FOO
135168
    1MOL0     O    1  10.823   1.763   5.069 -0.2787  0.5198 -0.4785
    1MOL0     C    2  10.840   1.646   5.090 -0.0327  0.6282 -0.2514
    1MOL0     O    3  10.741   1.546   5.094 -0.6576  0.5134  0.0769
    1MOL0     C    4  10.610   1.586   5.087  0.7423  0.1016  0.5153
    1MOL0     C    5  10.544   1.683   5.160 -0.0070  0.1496 -0.5032
    1MOL0     C    6  10.405   1.695   5.153 -0.3818 -0.5999 -0.2016
    1MOL0     C    7  10.328   1.626   5.058  0.6702 -0.0719  0.2685
    1MOL0     O    8  10.196   1.641   5.032 -0.4430  0.0734  0.1906
    1MOL0     C    9  10.123   1.736   5.114 -0.4737 -0.8327  0.8991
    1MOL0     C   10   9.978   1.764   5.074 -0.0413  0.7796  0.5733
    1MOL0     C   11   9.985   1.867   4.971 -0.3166  0.4273  0.5341
    1MOL0     C   12   9.839   1.913   4.950  1.0050  0.5626  0.5593
    1MOL0     C   13   9.823   2.020   4.845 -0.1350  0.2419  0.2701
    1MOL0     C   14   9.857   1.974   4.690 -0.9105  0.3234 -0.6629
    1MOL0     C   15   9.816   2.077   4.596  0.3278 -0.0308 -0.2350
    1MOL0     C   16   9.933   2.134   4.499 -0.1453  0.7032 -0.3920
    1MOL0     N   17  10.010   2.249   4.552  0.7366 -0.1205 -0.2780
    1MOL0     C   18  10.095   2.252   4.653  0.4657  0.6168 -0.2568
    1MOL0     C   19  10.138   2.374   4.663 -0.2422  0.8648  0.2799
    1MOL0     C   20  10.217   2.430   4.771 -0.4262 -0.2163  0.1208
    1MOL0     C   21  10.140   2.444   4.905 -0.3481  0.3871 -0.4830
    1MOL0     C   22  10.217   2.506   5.014  0.3794 -0.5006 -0.6844
    1MOL0     C   23  10.149   2.506   5.143  0.7550 -0.2633 -0.9874
    1MOL0     O   24  10.060   2.618   5.179  0.2431  0.1398  0.0697
    1MOL0     C   25   9.998   2.629   5.296 -0.4008 -0.3769 -0.3060
    1MOL0     C   26  10.020   2.559   5.409 -0.5091 -0.5374  0.1439
    1MOL0     C   27   9.955   2.597   5.529 -0.4383 -0.6399 -0.0695
    1MOL0     C   28   9.863   2.702   5.542 -0.6144  0.4036 -0.1114
    1MOL0     C   29   9.813   2.739   5.676  0.1428 -0.4743 -1.3899
    1MOL0     O   30   9.749   2.856   5.687 -0.2970  0.2680 -0.2436
    1MOL0     C   31   9.731   2.923   5.799 -0.1103 -0.7091 -0.2871
    1MOL0     C   32   9.603   2.985   5.817  0.6722 -0.5267  0.2727
    1MOL0     C   33   9.574   3.076   5.921  0.3385  0.4980  0.6058
    1MOL0     C   34   9.681   3.110   6.009 -0.4410 -0.1689 -0.3071
    1MOL0     O   35   9.679   3.213   6.100 -0.1847 -0.2429  0.5899
    1MOL0     C   36   9.560   3.286   6.121  0.1370 -0.5363  0.1020
    1MOL0     C   37   9.620   3.415   6.175  0.0109 -1.3512 -0.8382
    1MOL0     C   38   9.508   3.526   6.186  0.0441  1.1268  0.1222
    1MOL0     C   39   9.557   3.655   6.217  0.5796 -0.4589 -0.2093
    1MOL0     C   40   9.453   3.752   6.269 -0.2071  0.5654  0.0472
    1MOL0     C   41   9.354   3.791   6.166  0.5212 -0.3627 -0.4610
    1MOL0     C   42   9.239   3.871   6.237 -0.2078 -0.7521  0.1430
    1MOL0     C   43   9.110   3.871   6.172  0.0764 -0.0005  0.2651
    1MOL0    Cl   44   9.002   4.006   6.224  0.7036 -0.1755  0.2760
    1MOL0     C   45   9.811   3.045   5.999  0.0498  0.0787  0.8465
    1MOL0     C   46   9.831   2.946   5.903  0.6267 -0.2592 -0.4373
    1MOL0     O   47   9.849   2.670   5.774 -0.2529  0.7404 -0.3578
    1MOL0     C   48   9.838   2.776   5.424  0.1996 -0.6607 -0.2350
    1MOL0     C   49   9.903   2.738   5.307  0.7385 -0.5302 -0.4540
    1MOL0     N   50  10.088   2.451   4.560 -0.4277 -0.2116 -0.6881
    1MOL0     N   51  10.016   2.374   4.491 -0.2042 -0.2131  0.6307
    1MOL0     C   52  10.397   1.538   4.972 -0.1271 -0.2131 -0.1687
    1MOL0     C   53  10.535   1.514   4.994 -0.1581  0.0841  1.0539
    1MOL0     C   54  10.976   1.599   5.089  0.3921 -0.8080  0.1051
    1MOL0     C   55  11.083   1.696   5.092 -0.5914  0.0837  0.4282
    1MOL0     C   56  11.214   1.656   5.059  0.1876  0.2925 -0.9067
    1MOL0     C   57  11.249   1.513   5.044 -0.2395 -1.0217 -0.3120
    1MOL0     O   58  11.373   1.467   5.026  0.1391 -0.0964  0.7844
    1MOL0     C   59  11.494   1.549   5.022  0.4935 -0.2792  0.7826
    1MOL0     C   60  11.536   1.600   5.156  0.4899 -0.6343 -0.3077
    1MOL0     C   61  11.555   1.481   5.257  0.1738 -0.0205  0.9982
    1MOL0     C   62  11.450   1.492   5.369  0.6116  0.0201 -0.9734
    1MOL0     C   63  11.469   1.391   5.478  0.1831 -0.2391  0.3700
    1MOL0     C   64  11.479   1.308   5.565 -0.2799 -0.4424  0.4081
    1MOL0     C   65  11.136   1.423   5.042 -0.3026  0.6278 -0.2932
    1MOL0     C   66  11.006   1.461   5.087  0.0985 -1.1857 -0.1450
    1MOL0     H   67  10.607   1.738   5.231 -0.2067 -0.6513  0.3122
    1MOL0     H   68  10.349   1.746   5.231 -5.1280 -0.6467 -3.2027
    1MOL0     H   69  10.185   1.824   5.098 -0.2972 -1.4479 -2.4586
    1MOL0     H   70  10.123   1.688   5.212 -0.8589 -0.2094  1.2103
    1MOL0     H   71   9.912   1.810   5.148 -2.4077  0.0645 -1.0108
    1MOL0     H   72   9.937   1.667   5.044  0.6064  0.6889 -0.0502
    1MOL0     H   73  10.020   1.822   4.878 -2.1209 -0.2047  0.1245
    1MOL0     H   74  10.047   1.953   4.997  0.3871  0.5366 -1.3797
    1MOL0     H   75   9.771   1.829   4.932 -0.4331  1.5825  1.0157
    1MOL0     H   76   9.795   1.952   5.043 -0.7030  0.3295 -0.1057
    1MOL0     H   77   9.895   2.102   4.854 -0.2881  0.4346 -0.2664
    1MOL0     H   78   9.724   2.061   4.865  1.5301  3.2961  3.4014
    1MOL0     H   79   9.800   1.884   4.667  0.2590 -0.2758 -1.2890
    1MOL0     H   80   9.958   1.939   4.667 -0.2239  0.1702  2.1878
    1MOL0     H   81   9.749   2.038   4.518  0.5660  1.6017 -1.2901
    1MOL0     H   82   9.771   2.162   4.647  0.4639  0.4966 -0.9737
    1MOL0     H   83   9.896   2.159   4.400 -1.4910 -1.6015 -0.5405
    1MOL0     H   84   9.997   2.048   4.475  1.7126  1.3859  1.6933
    1MOL0     H   85  10.115   2.163   4.712  0.8022 -0.0356 -1.3287
    1MOL0     H   86  10.257   2.526   4.735 -0.2764 -0.0505  0.7182
    1MOL0     H   87  10.307   2.368   4.777 -0.4050 -0.6355 -2.8899
    1MOL0     H   88  10.111   2.341   4.929 -1.4294  0.8350  0.2012
    1MOL0     H   89  10.046   2.497   4.884  0.6997  1.6745 -2.1518
    1MOL0     H   90  10.305   2.443   5.029 -0.5709 -1.5662  0.7085
    1MOL0     H   91  10.253   2.608   4.996  1.1322 -0.0335  2.7272
    1MOL0     H   92  10.214   2.483   5.229 -1.6510  0.2859  1.0930
    1MOL0     H   93  10.086   2.417   5.145  3.5890 -2.5593 -3.6403
    1MOL0     H   94  10.076   2.468   5.422 -4.7146 -3.7932 -1.8190
    1MOL0     H   95   9.973   2.542   5.620  2.5277 -3.0302 -1.9305
    1MOL0     H   96   9.518   2.974   5.750  0.0391 -0.0515  0.9931
    1MOL0     H   97   9.473   3.114   5.925  1.0094  2.4478  0.4749
    1MOL0     H   98   9.500   3.230   6.194 -0.3126 -1.2372 -0.7844
    1MOL0     H   99   9.501   3.316   6.034 -1.0479 -0.7803  0.8019
    1MOL0     H  100   9.711   3.441   6.120 -0.3212 -0.7355 -1.1117
    1MOL0     H  101   9.660   3.398   6.276  1.0073  0.4345 -0.8877
    1MOL0     H  102   9.424   3.507   6.253 -1.3120  1.7740 -1.3199
    1MOL0     H  103   9.462   3.526   6.087  2.7881 -1.3542 -1.3263
    1MOL0     H  104   9.608   3.626   6.309 -3.8279  1.3754  3.2100
    1MOL0     H  105   9.625   3.687   6.138  1.4895 -1.6683  0.0501
    1MOL0     H  106   9.519   3.837   6.287 -2.1280  2.0949  0.1795
    1MOL0     H  107   9.409   3.712   6.361  1.8001 -2.7869 -0.2859
    1MOL0     H  108   9.308   3.704   6.118  0.1802 -1.5687  1.8804
    1MOL0     H  109   9.391   3.861   6.091 -2.0898  1.9006  0.1880
    1MOL0     H  110   9.217   3.841   6.340 -1.7347  0.7554  0.3006
    1MOL0     H  111   9.268   3.975   6.222 -2.9404  0.0422 -0.1447
    1MOL0     H  112   9.070   3.771   6.191 -1.5762  0.7518  0.8968
    1MOL0     H  113   9.123   3.887   6.065 -2.9326 -0.2556 -0.2027
    1MOL0     H  114   9.893   3.074   6.065  0.7434  0.8232 -0.2952
    1MOL0     H  115   9.924   2.892   5.887  0.1960 -0.8722 -0.9239
    1MOL0     H  116   9.779   2.867   5.430  0.6619 -0.4022  0.5726
    1MOL0     H  117   9.883   2.801   5.221  0.2780  0.0240  0.0488
    1MOL0     H  118  10.341   1.473   4.906  1.0484 -3.2961  1.6880
    1MOL0     H  119  10.581   1.433   4.938  0.6092  2.2119 -1.5727
    1MOL0     H  120  11.055   1.800   5.100  2.3430  0.8491  2.8114
    1MOL0     H  121  11.299   1.724   5.065  0.8402 -0.4889 -1.0975
    1MOL0     H  122  11.462   1.633   4.959  0.5817  0.2639  1.4513
    1MOL0     H  123  11.579   1.494   4.980  2.6453  1.4899  2.6141
    1MOL0     H  124  11.638   1.636   5.139 -0.2016  1.0528 -1.0349
    1MOL0     H  125  11.465   1.675   5.193  1.3259  1.0942 -2.0335
    1MOL0     H  126  11.650   1.486   5.310  0.4338  1.5648  0.4302
    1MOL0     H  127  11.564   1.394   5.191  1.1629  0.9361 -0.1709
    1MOL0     H  128  11.458   1.589   5.418  2.0157 -0.5727  0.0462
    1MOL0     H  129  11.353   1.471   5.323  0.7339 -1.4763 -0.5925
    1MOL0     H  130  11.499   1.244   5.649  0.1507 -0.7062  0.1095
    1MOL0     H  131  11.152   1.316   5.041 -4.3883 -0.4492  5.0322
    1MOL0     H  132  10.924   1.391   5.083 -0.8273 -0.2968  1.9483
    2MOL0     O  133   6.524   7.840   9.747  0.4891 -0.6693 -0.7060
    2MOL0     C  134   6.491   7.764   9.650  0.4671  0.0462  0.1209
    2MOL0     O  135   6.455   7.634   9.653 -0.0104 -0.3685 -0.0884
    2MOL0     C  136   6.424   7.560   9.760 -0.6367  0.0897 -0.8266
    2MOL0     C  137   6.386   7.618   9.888 -0.7616  0.1083 -0.4558
    2MOL0     C  138   6.368   7.516   9.984 -0.8547 -0.5640  1.4244
    2MOL0     C  139   6.366   7.378   9.963 -1.4097 -0.9731 -0.2284
    2MOL0     O  140   6.335   7.303  10.073  0.0701 -0.2226 -0.6870
    2MOL0     C  141   6.306   7.163  10.060  0.2345  0.5279  0.0009
    2MOL0     C  142   6.264   7.098  10.197 -0.4501 -1.0860 -0.1191
    2MOL0     C  143   6.395   7.095  10.284  0.1348  0.5992  0.0906
    2MOL0     C  144   6.359   7.031  10.422  0.2074  0.2939  1.0267
    2MOL0     C  145   6.331   6.886  10.412 -0.8352  1.0453  0.3196
    2MOL0     C  146   6.322   6.812  10.544  0.1022  0.3762 -0.1715
    2MOL0     C  147   6.345   6.661  10.521 -0.6627  0.0285 -0.9159
    2MOL0     C  148   6.403   6.600  10.661 -0.3325 -0.3479 -0.3115
    2MOL0     N  149   6.441   6.460  10.641  0.8334  0.5690 -0.0952
    2MOL0     C  150   6.549   6.414  10.559  0.2281 -0.4515 -0.0526
    2MOL0     C  151   6.580   6.288  10.603 -0.5090  0.1089 -0.5140
    2MOL0     C  152   6.694   6.192  10.549  0.4472  0.5738 -0.8929
    2MOL0     C  153   6.831   6.174  10.630  0.0363 -0.7632  0.0694
    2MOL0     C  154   6.877   6.317  10.681  0.5501 -0.1208  0.3200
    2MOL0     C  155   7.030   6.336  10.706  0.1185  0.3647 -0.9425
    2MOL0     O  156   7.057   6.470  10.733 -0.8549  0.3586  0.1702
    2MOL0     C  157   7.088   6.568  10.631 -0.9362  0.7552  0.4753
    2MOL0     C  158   7.123   6.700  10.663  0.6382  0.3472  0.5264
    2MOL0     C  159   7.150   6.786  10.570  0.1582 -0.4799 -0.5959
    2MOL0     C  160   7.168   6.749  10.436 -0.7123  0.8726 -0.4598
    2MOL0     C  161   7.201   6.853  10.332  0.0446  0.8901 -0.4390
    2MOL0     O  162   7.282   6.948  10.382 -0.1995 -0.1536 -0.1732
    2MOL0     C  163   7.315   7.057  10.306  0.6925 -0.4436 -0.8443
    2MOL0     C  164   7.362   7.067  10.173  0.1997 -0.0007  0.5433
    2MOL0     C  165   7.402   7.192  10.116 -1.1631 -0.2338 -0.3249
    2MOL0     C  166   7.395   7.310  10.192  0.4805  0.3843 -0.4109
    2MOL0     O  167   7.458   7.416  10.157  0.2077 -0.5768  0.0469
    2MOL0     C  168   7.474   7.438  10.020  0.4690 -0.6377  0.2500
    2MOL0     C  169   7.484   7.586   9.988  0.1265 -0.2357  0.3018
    2MOL0     C  170   7.352   7.672  10.013  0.0531  0.1612  0.2812
    2MOL0     C  171   7.374   7.816   9.966  0.1614  1.0469  0.4015
    2MOL0     C  172   7.253   7.908  10.005  0.1539  0.0836  0.0896
    2MOL0     C  173   7.263   7.918  10.162  0.5620  0.4550 -0.4967
    2MOL0     C  174   7.225   8.055  10.211  1.4800  0.0197  0.0889
    2MOL0     C  175   7.291   8.179  10.155 -0.0467 -0.5904 -0.3858
    2MOL0    Cl  176   7.469   8.159  10.157 -0.5772  0.7831  0.0578
    2MOL0     C  177   7.344   7.306  10.317 -0.1171 -0.2949 -0.1878
    2MOL0     C  178   7.302   7.184  10.376 -0.2148 -0.0874 -0.0028
    2MOL0     O  179   7.182   6.830  10.211 -0.1201 -0.2613  0.0012
    2MOL0     C  180   7.135   6.611  10.398  0.1693 -0.9130  0.0880
    2MOL0     C  181   7.096   6.526  10.493  0.2584 -0.0507  0.4477
    2MOL0     N  182   6.503   6.265  10.724  0.4639 -0.3081  0.4772
    2MOL0     N  183   6.417   6.358  10.733 -0.8490  0.8593 -0.2744
    2MOL0     C  184   6.394   7.326   9.841 -0.7818 -0.7909  1.3203
    2MOL0     C  185   6.414   7.428   9.736 -0.1120  0.7460  0.0938
    2MOL0     C  186   6.480   7.829   9.514  0.0011 -0.0988 -0.0722
    2MOL0     C  187   6.517   7.764   9.403  0.1976  0.5598 -0.0638
    2MOL0     C  188   6.516   7.812   9.270  1.1662  0.2363  0.5238
    2MOL0     C  189   6.468   7.942   9.261  0.1428 -0.2835  1.2381
    2MOL0     O  190   6.484   8.015   9.143 -0.5128 -0.6032 -0.6470
    2MOL0     C  191   6.369   8.009   9.062  0.4798  1.0084  0.4523
    2MOL0     C  192   6.404   7.987   8.916 -0.0918 -0.6400 -0.2254
    2MOL0     C  193   6.273   7.940   8.840  0.5041 -0.0920 -0.3655
    2MOL0     C  194   6.301   7.860   8.713  0.0464  0.3418  0.9816
    2MOL0     C  195   6.184   7.785   8.651 -0.8521  1.1574 -0.7892
    2MOL0     C  196   6.094   7.722   8.604 -0.0266  0.3667 -0.4995
    2MOL0     C  197   6.438   8.019   9.377  0.5622 -0.2602  0.2402
    2MOL0     C  198   6.440   7.959   9.500 -0.0687 -0.8380 -0.4471
    2MOL0     H  199   6.402   7.722   9.917  1.5076 -0.3344  0.0645
    2MOL0     H  200   6.370   7.537  10.090  2.3572 -1.9824  1.7501
    2MOL0     H  201   6.399   7.115  10.028  0.3962  0.3893  0.6585
    2MOL0     H  202   6.228   7.137   9.988  0.0187  0.3646  0.2898
    2MOL0     H  203   6.227   6.997  10.180  1.9462 -2.8685  3.9314
    2MOL0     H  204   6.182   7.156  10.239  0.2770  0.4965 -0.7818
    2MOL0     H  205   6.453   7.187  10.297  1.8541 -0.3623 -0.4241
    2MOL0     H  206   6.474   7.029  10.247  0.6338  0.9882  0.4423
    2MOL0     H  207   6.444   7.044  10.490  2.2826  0.1403 -1.3636
    2MOL0     H  208   6.270   7.081  10.461  1.0270  0.3893  2.8598
    2MOL0     H  209   6.410   6.848  10.346 -1.8580  2.9321 -2.1386
    2MOL0     H  210   6.237   6.872  10.359 -0.7700 -0.5589  0.5753
    2MOL0     H  211   6.218   6.829  10.573 -0.1563 -1.3883  0.0627
    2MOL0     H  212   6.399   6.844  10.614 -0.8168 -1.6264  1.8816
    2MOL0     H  213   6.255   6.603  10.499 -0.3322 -1.7228  1.8073
    2MOL0     H  214   6.427   6.645  10.451  0.8375  2.4699  0.1167
    2MOL0     H  215   6.346   6.623  10.752  0.9739  4.2378 -0.4010
    2MOL0     H  216   6.502   6.645  10.672  0.3920 -0.9882 -3.3536
    2MOL0     H  217   6.594   6.474  10.480 -2.8574 -0.1200 -1.7176
    2MOL0     H  218   6.724   6.214  10.446 -1.5313 -0.3279 -1.7235
    2MOL0     H  219   6.642   6.096  10.552 -0.8303  1.2403  2.4383
    2MOL0     H  220   6.899   6.125  10.559 -2.9922 -2.5382 -1.8287
    2MOL0     H  221   6.825   6.104  10.714 -1.0436 -1.5121 -0.6079
    2MOL0     H  222   6.836   6.386  10.606 -0.0297 -1.9337 -1.1232
    2MOL0     H  223   6.834   6.358  10.773 -1.2003 -0.8462 -0.1280
    2MOL0     H  224   7.102   6.306  10.629  1.3256  0.5698  0.0684
    2MOL0     H  225   7.061   6.271  10.788 -0.9628 -2.1261 -2.3902
    2MOL0     H  226   7.106   6.730  10.766  1.2393  4.1969 -0.3521
    2MOL0     H  227   7.168   6.889  10.599  2.4170 -0.2258 -2.6441
    2MOL0     H  228   7.388   6.982  10.112 -2.6982  0.5715 -1.7400
    2MOL0     H  229   7.457   7.179  10.023 -2.5661 -0.4845 -1.1518
    2MOL0     H  230   7.387   7.401   9.964 -0.8490  2.8975 -0.3124
    2MOL0     H  231   7.560   7.390   9.973 -0.7060 -0.9799 -1.6755
    2MOL0     H  232   7.527   7.610   9.891 -0.2501  1.4744  0.5249
    2MOL0     H  233   7.559   7.625  10.058  3.2972 -0.2282 -2.8579
    2MOL0     H  234   7.325   7.665  10.118 -0.4797 -0.1604  0.1281
    2MOL0     H  235   7.281   7.634   9.939 -0.3678 -1.5470  1.5134
    2MOL0     H  236   7.456   7.867  10.018 -1.1857  3.9501 -0.1008
    2MOL0     H  237   7.392   7.821   9.858 -1.9566 -1.7768 -0.1969
    2MOL0     H  238   7.152   7.881   9.973  0.2528  2.7967 -3.1228
    2MOL0     H  239   7.275   8.002   9.953  2.4529 -0.4706 -0.0689
    2MOL0     H  240   7.357   7.904  10.217  0.7480 -2.1808 -1.3353
    2MOL0     H  241   7.197   7.836  10.192 -1.8192  2.5285  0.2545
    2MOL0     H  242   7.116   8.069  10.210  1.4882  0.0692 -0.2927
    2MOL0     H  243   7.250   8.052  10.317  1.3519 -2.9357  0.1098
    2MOL0     H  244   7.265   8.262  10.222  0.1057  0.6328 -1.7934
    2MOL0     H  245   7.260   8.190  10.051 -0.2483 -3.5733 -0.7257
    2MOL0     H  246   7.359   7.394  10.378  0.7148 -2.2078  2.5969
    2MOL0     H  247   7.269   7.171  10.479 -0.3912 -0.2459 -0.0775
    2MOL0     H  248   7.131   6.591  10.291 -3.4301 -0.2346 -0.0474
    2MOL0     H  249   7.051   6.436  10.452 -1.4112  1.8545 -2.2535
    2MOL0     H  250   6.385   7.220   9.818  4.4465 -0.6857 -3.2727
    2MOL0     H  251   6.449   7.395   9.639  1.6824 -1.0793  1.2628
    2MOL0     H  252   6.559   7.667   9.429 -2.1214 -0.6128 -0.4563
    2MOL0     H  253   6.573   7.771   9.187 -0.4780 -0.4373 -0.3182
    2MOL0     H  254   6.303   8.095   9.078 -1.2426 -0.1985  0.1286
    2MOL0     H  255   6.313   7.918   9.088  2.2081  0.3687  2.1830
    2MOL0     H  256   6.453   8.080   8.884  2.8640 -0.8501  3.0261
    2MOL0     H  257   6.484   7.915   8.897  1.8013  1.7684 -2.2174
    2MOL0     H  258   6.200   8.021   8.830  0.2807 -0.3151 -0.5262
    2MOL0     H  259   6.220   7.866   8.900 -3.5061  1.4251 -1.6957
    2MOL0     H  260   6.326   7.933   8.636  0.2781  2.4393  2.9176
    2MOL0     H  261   6.382   7.788   8.731 -0.4687 -0.2059  1.1205
    2MOL0     H  262   6.014   7.660   8.571  0.6931 -1.1698  0.5595
    2MOL0     H  263   6.411   8.120   9.349 -2.8496 -1.6420 -2.1411
    2MOL0     H  264   6.420   8.006   9.596 -0.1060 -0.5372 -0.6022
    3MOL0     O  265   6.806   3.553   0.409 -0.2428 -0.5079 -0.5482
    3MOL0     C  266   6.801   3.510   0.524  0.2163 -0.0455 -0.1162
    3MOL0     O  267   6.731   3.401   0.580 -0.0599 -0.2833  0.0100
    3MOL0     C  268   6.627   3.362   0.510 -0.4193  0.6482  0.2530
    3MOL0     C  269   6.615   3.218   0.498  0.1494 -0.7077 -0.4040
    3MOL0     C  270   6.508   3.164   0.432  0.9737 -0.0994 -0.1420
    3MOL0     C  271   6.416   3.246   0.371  0.9533  0.1380  0.0798
    3MOL0     O  272   6.292   3.205   0.320  0.7185  0.5433 -0.1090
    3MOL0     C  273   6.292   3.081   0.252 -0.2759 -0.6925 -1.4004
    3MOL0     C  274   6.199   3.100   0.133 -0.1018 -1.6210 -0.2287
    3MOL0     C  275   6.163   2.962   0.068  0.0394 -0.0071 -0.5391
    3MOL0     C  276   6.154   2.969  -0.080  0.0704  0.2521  0.0873
    3MOL0     C  277   6.145   2.829  -0.145 -0.9471 -0.3984 -0.6087
    3MOL0     C  278   6.140   2.829  -0.303 -0.6722 -1.2772  0.1081
    3MOL0     C  279   6.039   2.911  -0.380 -0.0996  0.8613  0.2045
    3MOL0     C  280   5.897   2.900  -0.327  0.2385 -0.0449 -0.2813
    3MOL0     N  281   5.791   2.936  -0.427  0.4039 -0.3024 -0.2432
    3MOL0     C  282   5.778   2.883  -0.557  0.6338 -0.0571  0.1233
    3MOL0     C  283   5.706   2.972  -0.626 -1.5277  0.1642  0.4845
    3MOL0     C  284   5.666   2.961  -0.763 -0.0834 -0.0392 -0.1123
    3MOL0     C  285   5.540   2.870  -0.772 -0.0294  1.1513  0.6524
    3MOL0     C  286   5.527   2.805  -0.906 -0.1837  0.3237  0.0277
    3MOL0     C  287   5.397   2.732  -0.934  0.3381  0.3325 -0.3564
    3MOL0     O  288   5.297   2.828  -0.967  1.0829  0.2599  0.5612
    3MOL0     C  289   5.168   2.777  -1.010  1.0329  0.3981 -0.5347
    3MOL0     C  290   5.142   2.642  -1.036  0.3815 -0.3709 -0.8987
    3MOL0     C  291   5.009   2.592  -1.062 -0.4913  0.7486 -0.1564
    3MOL0     C  292   4.898   2.678  -1.066 -0.4745 -0.2651 -0.2524
    3MOL0     C  293   4.766   2.641  -1.128  0.1091 -0.4161  0.1268
    3MOL0     O  294   4.750   2.505  -1.143  0.1715 -0.4183  0.1548
    3MOL0     C  295   4.624   2.453  -1.161 -0.5698  0.1362 -0.7100
    3MOL0     C  296   4.610   2.309  -1.138  0.1164 -0.7113  0.0667
    3MOL0     C  297   4.490   2.237  -1.156 -0.7086 -0.5950  0.6548
    3MOL0     C  298   4.377   2.305  -1.185 -0.3458 -0.6948  0.3824
    3MOL0     O  299   4.261   2.236  -1.200  0.2679 -0.2062  0.2036
    3MOL0     C  300   4.171   2.257  -1.313 -0.3647  0.2671  0.0893
    3MOL0     C  301   4.138   2.115  -1.373  0.9554  0.3434  1.2056
    3MOL0     C  302   4.129   2.113  -1.525 -0.0107 -0.1704  0.0774
    3MOL0     C  303   4.266   2.127  -1.603  0.1050  0.3072 -0.2166
    3MOL0     C  304   4.257   2.054  -1.742 -0.1056  0.2213 -0.2241
    3MOL0     C  305   4.151   2.099  -1.839  0.4770 -0.2138  1.3879
    3MOL0     C  306   4.176   2.032  -1.977 -0.5137  0.6208  0.1455
    3MOL0     C  307   4.288   2.099  -2.043  1.0351 -0.7929  0.9513
    3MOL0    Cl  308   4.275   2.052  -2.204 -0.7480  0.1671 -0.1215
    3MOL0     C  309   4.388   2.443  -1.213 -0.0830 -0.5332 -0.1461
    3MOL0     C  310   4.505   2.519  -1.208 -0.1261 -0.0340  0.3428
    3MOL0     O  311   4.682   2.725  -1.150  0.0462 -0.4688  0.1319
    3MOL0     C  312   4.922   2.823  -1.039  0.0599  0.0503  0.4324
    3MOL0     C  313   5.052   2.862  -0.994 -0.4104  0.1174  0.4820
    3MOL0     N  314   5.686   3.082  -0.546  0.7215  0.0801  0.5387
    3MOL0     N  315   5.729   3.053  -0.427 -0.0771 -0.7954 -0.1055
    3MOL0     C  316   6.420   3.386   0.392 -0.5224 -0.1304 -0.6102
    3MOL0     C  317   6.531   3.443   0.465  0.2779  0.1558 -0.6162
    3MOL0     C  318   6.908   3.565   0.617 -0.0844 -0.0333 -0.5301
    3MOL0     C  319   7.002   3.662   0.563 -0.2153  0.5195 -0.8659
    3MOL0     C  320   7.091   3.714   0.648 -1.4088 -0.0229 -0.8242
    3MOL0     C  321   7.108   3.688   0.783  1.2442  0.2650 -0.0504
    3MOL0     O  322   7.226   3.738   0.846  0.8335 -0.6683 -0.0139
    3MOL0     C  323   7.262   3.676   0.978  0.2947  1.0835  0.7385
    3MOL0     C  324   7.399   3.710   1.025  0.5374 -1.1756  1.0159
    3MOL0     C  325   7.502   3.678   0.913 -0.0255  0.1515  0.4030
    3MOL0     C  326   7.654   3.683   0.955  0.0265 -0.6140 -0.6743
    3MOL0     C  327   7.690   3.551   1.013 -0.1288 -0.5503 -0.4478
    3MOL0     C  328   7.736   3.455   1.064  1.2823 -0.3266  0.1885
    3MOL0     C  329   7.024   3.579   0.835  0.6205  0.4993  0.0631
    3MOL0     C  330   6.922   3.526   0.750 -0.4722 -0.2829  0.0673
    3MOL0     H  331   6.696   3.163   0.543 -0.0484  1.1926  2.5111
    3MOL0     H  332   6.497   3.058   0.415 -0.4943  0.2500 -1.7025
    3MOL0     H  333   6.237   3.007   0.311 -0.4170  0.0390 -0.6061
    3MOL0     H  334   6.389   3.034   0.235 -0.1759 -0.7887 -0.5932
    3MOL0     H  335   6.249   3.166   0.062 -2.1219  0.5785  0.2800
    3MOL0     H  336   6.111   3.162   0.153  0.5109 -0.7628 -0.1579
    3MOL0     H  337   6.068   2.923   0.106  0.2211 -2.9015 -2.7178
    3MOL0     H  338   6.243   2.891   0.085 -0.0692  0.1852  0.8412
    3MOL0     H  339   6.070   3.030  -0.112  0.8184  2.7581  2.5482
    3MOL0     H  340   6.250   3.006  -0.119  1.3398 -1.6253  1.2708
    3MOL0     H  341   6.074   2.764  -0.093  0.0361  0.0359  1.3985
    3MOL0     H  342   6.234   2.770  -0.122 -0.3723  0.1974 -1.2383
    3MOL0     H  343   6.133   2.730  -0.348 -1.7121  0.4137 -3.8559
    3MOL0     H  344   6.245   2.850  -0.329 -0.0401 -1.8853  2.0067
    3MOL0     H  345   6.062   3.017  -0.391 -1.3701  0.8684 -4.7590
    3MOL0     H  346   6.050   2.862  -0.477 -0.4022 -2.8265  1.8439
    3MOL0     H  347   5.881   2.973  -0.247 -1.1347  0.7785 -1.2693
    3MOL0     H  348   5.889   2.798  -0.288  2.4361  0.0428  0.5648
    3MOL0     H  349   5.812   2.785  -0.590 -0.9606 -0.4098 -0.5654
    3MOL0     H  350   5.747   2.913  -0.820  1.9516 -0.2624  2.7556
    3MOL0     H  351   5.645   3.066  -0.788 -1.6688  1.2922  5.5090
    3MOL0     H  352   5.448   2.921  -0.742 -0.7582  1.9176 -2.5113
    3MOL0     H  353   5.567   2.784  -0.710  1.8262 -0.0055 -1.5896
    3MOL0     H  354   5.543   2.879  -0.985 -1.9063  0.5847 -0.1105
    3MOL0     H  355   5.609   2.738  -0.934 -0.7012 -0.1960 -0.2833
    3MOL0     H  356   5.367   2.669  -0.849 -1.0313  2.2210  0.6124
    3MOL0     H  357   5.402   2.662  -1.019  0.5280 -0.7291  0.5006
    3MOL0     H  358   5.222   2.569  -1.035  2.7416  1.8232 -4.8280
    3MOL0     H  359   4.998   2.488  -1.091 -0.8222  0.9423 -0.7473
    3MOL0     H  360   4.690   2.241  -1.109 -1.3547 -2.1176  1.0288
    3MOL0     H  361   4.495   2.128  -1.150 -0.9906 -0.6216  0.4590
    3MOL0     H  362   4.217   2.305  -1.399 -2.7319 -1.2069 -2.1523
    3MOL0     H  363   4.080   2.318  -1.302  0.2374  1.6966 -2.1503
    3MOL0     H  364   4.052   2.071  -1.321  0.9422  1.3405  2.0638
    3MOL0     H  365   4.227   2.066  -1.332  1.3857  1.5643  1.7891
    3MOL0     H  366   4.056   2.189  -1.556  0.9024  0.9274  0.5421
    3MOL0     H  367   4.102   2.010  -1.549  2.0881 -1.2264  1.9478
    3MOL0     H  368   4.309   2.226  -1.618  1.9021  0.0451  2.6429
    3MOL0     H  369   4.335   2.068  -1.542 -2.2022 -0.2305  2.0271
    3MOL0     H  370   4.230   1.951  -1.720 -0.4790 -0.0579 -1.8705
    3MOL0     H  371   4.356   2.060  -1.788  0.2669  0.6387  0.6033
    3MOL0     H  372   4.149   2.208  -1.850  1.0308 -0.3894 -1.4229
    3MOL0     H  373   4.056   2.069  -1.795 -0.2328  1.2485  0.9302
    3MOL0     H  374   4.201   1.926  -1.964  0.2564  0.6775 -0.7597
    3MOL0     H  375   4.086   2.029  -2.038 -0.8454 -2.5642  0.6085
    3MOL0     H  376   4.381   2.071  -1.993  1.7513 -2.1410 -1.0052
    3MOL0     H  377   4.279   2.207  -2.030  1.7888 -0.3516 -1.6272
    3MOL0     H  378   4.295   2.497  -1.228 -1.2051 -1.0678  3.7569
    3MOL0     H  379   4.505   2.623  -1.238  3.2654 -0.2158 -0.6603
    3MOL0     H  380   4.836   2.889  -1.034 -0.6048 -0.3613 -3.2577
    3MOL0     H  381   5.081   2.961  -0.960  1.2335  0.5097 -1.8088
    3MOL0     H  382   6.335   3.439   0.351  0.6648  1.7982 -0.6647
    3MOL0     H  383   6.529   3.551   0.477 -0.4064  0.2349 -1.3777
    3MOL0     H  384   6.993   3.702   0.462 -3.0092 -1.2399 -1.4258
    3MOL0     H  385   7.158   3.783   0.599 -0.0619 -0.7492 -0.0795
    3MOL0     H  386   7.247   3.568   0.975 -3.6530  1.4361 -2.6390
    3MOL0     H  387   7.192   3.721   1.049 -0.5766 -0.1193  0.6818
    3MOL0     H  388   7.385   3.818   1.040 -4.2157 -1.2812 -0.8666
    3MOL0     H  389   7.427   3.662   1.119 -2.8272 -0.1564  2.7019
    3MOL0     H  390   7.489   3.764   0.847 -3.3032 -1.0162 -0.6504
    3MOL0     H  391   7.467   3.584   0.870 -1.4285  1.1367 -0.7241
    3MOL0     H  392   7.728   3.707   0.878  0.2399 -0.5108 -0.4367
    3MOL0     H  393   7.673   3.752   1.037  1.1244  1.7446 -2.7797
    3MOL0     H  394   7.764   3.359   1.103 -4.7492 -1.4851  2.8138
    3MOL0     H  395   7.030   3.539   0.935  2.0037 -0.8741 -0.5365
    3MOL0     H  396   6.844   3.476   0.807  1.3432  0.1756  3.2015
    4MOL0     O  397   1.191   3.847   3.826 -0.2566  0.0041  0.0576
    4MOL0     C  398   1.293   3.784   3.786  0.0416  0.1339  0.1257
    4MOL0     O  399   1.311   3.652   3.795  0.3264  0.2236  0.2544
    4MOL0     C  400   1.205   3.573   3.835 -0.9204 -0.1933 -0.0842
    4MOL0     C  401   1.188   3.494   3.947 -0.7572 -1.3420 -0.0391
    4MOL0     C  402   1.074   3.411   3.972 -1.6032 -1.0468 -0.5071
    4MOL0     C  403   0.971   3.403   3.879  0.3566  0.1075  1.0114
    4MOL0     O  404   0.862   3.318   3.899  0.3996 -0.0046  0.9101
    4MOL0     C  405   0.741   3.368   3.841 -0.0705 -0.0119  0.7048
    4MOL0     C  406   0.612   3.302   3.892 -0.2302  0.3254  0.1089
    4MOL0     C  407   0.495   3.335   3.794 -0.3755 -0.1981  0.1549
    4MOL0     C  408   0.356   3.323   3.861 -0.2081 -0.1819  0.3416
    4MOL0     C  409   0.245   3.291   3.770  1.0021 -0.2081  0.0326
    4MOL0     C  410   0.116   3.276   3.850 -0.1617  0.4312 -0.1456
    4MOL0     C  411  -0.007   3.255   3.764 -0.3351 -0.5531  0.0486
    4MOL0     C  412  -0.071   3.384   3.717  0.4233 -0.0165  0.8834
    4MOL0     N  413  -0.121   3.479   3.826  0.1272 -0.5939 -0.9831
    4MOL0     C  414  -0.250   3.459   3.865  0.0322 -0.3025  0.7366
    4MOL0     C  415  -0.262   3.554   3.968  0.8183 -0.3559  0.0044
    4MOL0     C  416  -0.398   3.570   4.036 -0.3306  0.0308  0.0749
    4MOL0     C  417  -0.408   3.648   4.169  0.3456  0.8806 -0.2103
    4MOL0     C  418  -0.330   3.579   4.283  0.6318 -0.7040 -0.0712
    4MOL0     C  419  -0.393   3.454   4.338 -0.0114 -0.2491  0.0145
    4MOL0     O  420  -0.351   3.421   4.476 -0.6793 -0.2831  0.3635
    4MOL0     C  421  -0.270   3.308   4.480  0.3834 -0.6002 -0.6643
    4MOL0     C  422  -0.299   3.210   4.573 -0.6469 -0.6149 -0.0271
    4MOL0     C  423  -0.220   3.106   4.599 -0.0038  0.4776 -0.0666
    4MOL0     C  424  -0.098   3.095   4.524  1.4831 -0.7892  0.2394
    4MOL0     C  425  -0.016   2.971   4.540 -1.0646 -0.4592 -0.0970
    4MOL0     O  426   0.103   2.968   4.470  0.5387  0.6960  0.1189
    4MOL0     C  427   0.168   2.851   4.457  0.5941  0.1801 -0.7605
    4MOL0     C  428   0.110   2.725   4.412  1.2755  0.2801  0.1138
    4MOL0     C  429   0.197   2.615   4.389  0.5079 -0.8997 -0.1894
    4MOL0     C  430   0.339   2.627   4.393 -0.2136 -0.4636 -0.6557
    4MOL0     O  431   0.441   2.534   4.364 -1.0600  1.2143 -0.0326
    4MOL0     C  432   0.403   2.423   4.293 -0.6781  0.1182  0.0422
    4MOL0     C  433   0.534   2.334   4.270  1.2827  0.3657 -0.4027
    4MOL0     C  434   0.560   2.243   4.394 -0.0573 -0.3538  0.0002
    4MOL0     C  435   0.497   2.108   4.404  0.0419 -0.0583  0.3927
    4MOL0     C  436   0.518   2.051   4.541 -0.0491  1.9858  0.0477
    4MOL0     C  437   0.446   1.913   4.556 -0.0475  0.5581  0.2345
    4MOL0     C  438   0.503   1.844   4.685 -0.0011  0.4314  0.5466
    4MOL0     C  439   0.454   1.695   4.687 -0.4118 -0.5886 -0.7289
    4MOL0    Cl  440   0.283   1.701   4.730 -0.0366  0.2816 -0.6396
    4MOL0     C  441   0.383   2.752   4.442  0.0401 -0.5427 -1.1839
    4MOL0     C  442   0.302   2.861   4.475  0.1823  0.8507  1.2016
    4MOL0     O  443  -0.067   2.879   4.608  0.4125  0.2430 -0.7795
    4MOL0     C  444  -0.057   3.201   4.437  0.7178  1.3178 -0.5979
    4MOL0     C  445  -0.150   3.311   4.416 -0.9595  0.7672  0.8243
    4MOL0     N  446  -0.142   3.624   3.977 -0.2311 -0.3241  0.6482
    4MOL0     N  447  -0.054   3.568   3.903  0.8084 -0.6585 -0.0229
    4MOL0     C  448   0.982   3.480   3.761 -0.7374 -0.7167  0.7566
    4MOL0     C  449   1.100   3.569   3.736 -0.5622  0.1579  0.1122
    4MOL0     C  450   1.412   3.859   3.740 -0.1450 -0.8144  0.2241
    4MOL0     C  451   1.403   4.001   3.738  0.1575 -0.6385  0.0666
    4MOL0     C  452   1.508   4.083   3.709 -0.2300  0.3850  0.4261
    4MOL0     C  453   1.632   4.030   3.663  0.8134 -0.4331 -0.5814
    4MOL0     O  454   1.736   4.114   3.633  0.2149 -0.8692  0.0933
    4MOL0     C  455   1.868   4.089   3.692 -0.6262  0.4678 -0.2589
    4MOL0     C  456   1.972   4.087   3.586  0.4890 -0.4092  0.6539
    4MOL0     C  457   1.936   3.972   3.481  0.0369 -0.1698 -0.1296
    4MOL0     C  458   1.984   3.819   3.508  0.2290  0.1303 -0.7769
    4MOL0     C  459   2.067   3.796   3.626  0.5838 -0.5510  0.6460
    4MOL0     C  460   2.137   3.765   3.718 -0.7017 -0.0895  0.3689
    4MOL0     C  461   1.641   3.881   3.681  0.1240 -0.0487 -0.5725
    4MOL0     C  462   1.536   3.802   3.713 -0.4690 -0.7689  0.9038
    4MOL0     H  463   1.263   3.495   4.026 -3.1472 -0.7565  2.3950
    4MOL0     H  464   1.061   3.343   4.056  0.5235 -0.4064  0.4117
    4MOL0     H  465   0.734   3.353   3.733 -2.4581 -2.5697  1.1122
    4MOL0     H  466   0.752   3.473   3.868  0.0782  0.3643 -0.7424
    4MOL0     H  467   0.603   3.336   3.996 -0.6195 -2.5784  1.1182
    4MOL0     H  468   0.626   3.194   3.904  1.3500  0.2058 -2.3181
    4MOL0     H  469   0.496   3.266   3.709 -1.8700  1.2973 -1.1627
    4MOL0     H  470   0.529   3.434   3.762  0.7046 -0.7960 -0.6137
    4MOL0     H  471   0.356   3.242   3.935 -3.3089 -1.0847 -0.4709
    4MOL0     H  472   0.342   3.412   3.922  2.5296  0.6821 -0.1673
    4MOL0     H  473   0.270   3.202   3.711 -3.1007 -0.5155 -1.5744
    4MOL0     H  474   0.221   3.375   3.703  0.0998 -1.0355 -0.7093
    4MOL0     H  475   0.101   3.365   3.911 -0.1744  2.0701 -2.3891
    4MOL0     H  476   0.135   3.188   3.912  0.5985  0.8586  0.2349
    4MOL0     H  477   0.009   3.182   3.683  0.9462  1.4879 -1.6490
    4MOL0     H  478  -0.081   3.207   3.828  1.4115 -2.5472  0.7118
    4MOL0     H  479  -0.149   3.348   3.649  2.1166 -0.0119 -1.1920
    4MOL0     H  480   0.003   3.440   3.658  0.0155 -0.5954 -0.2004
    4MOL0     H  481  -0.318   3.389   3.817 -0.1344  0.2631  0.1325
    4MOL0     H  482  -0.447   3.475   4.058 -1.4809  0.5232 -0.2469
    4MOL0     H  483  -0.453   3.637   3.968  0.0689  1.1632  0.8314
    4MOL0     H  484  -0.512   3.644   4.202  0.3120  1.1538 -0.2826
    4MOL0     H  485  -0.382   3.754   4.163  1.3229  0.5884 -2.0452
    4MOL0     H  486  -0.234   3.559   4.234  0.0231 -1.7607 -0.8696
    4MOL0     H  487  -0.325   3.654   4.363  0.0306 -0.9798  0.2351
    4MOL0     H  488  -0.369   3.363   4.281  1.8476 -0.0807  0.4946
    4MOL0     H  489  -0.503   3.459   4.332 -0.1083 -2.3610 -4.4608
    4MOL0     H  490  -0.387   3.215   4.637 -0.9069 -1.5628 -0.2915
    4MOL0     H  491  -0.247   3.032   4.674  0.5779 -1.0427 -1.3092
    4MOL0     H  492   0.003   2.708   4.412  1.2069  0.6539 -0.4207
    4MOL0     H  493   0.138   2.525   4.373 -0.7639 -0.5098  1.9151
    4MOL0     H  494   0.361   2.462   4.200  3.2602  2.6957 -0.8994
    4MOL0     H  495   0.327   2.369   4.350 -1.2275 -0.2847 -1.0478
    4MOL0     H  496   0.624   2.391   4.243  1.1540  1.5073  1.4272
    4MOL0     H  497   0.514   2.263   4.189 -2.2773  1.5683 -0.7339
    4MOL0     H  498   0.533   2.291   4.488  0.1949  0.4759 -0.3477
    4MOL0     H  499   0.666   2.214   4.396  0.2562  0.7632  1.9474
    4MOL0     H  500   0.389   2.113   4.387 -0.1028 -3.7065 -0.4987
    4MOL0     H  501   0.536   2.036   4.331  3.1137 -0.7194  2.4959
    4MOL0     H  502   0.481   2.128   4.610  1.4450  2.6820  0.1081
    4MOL0     H  503   0.623   2.035   4.569 -0.4837  0.0757  0.7851
    4MOL0     H  504   0.467   1.847   4.471 -0.6925  1.7060 -0.8504
    4MOL0     H  505   0.340   1.939   4.559 -0.3748 -0.7561  1.6099
    4MOL0     H  506   0.612   1.843   4.681 -0.0143  0.4380  0.1865
    4MOL0     H  507   0.466   1.892   4.776 -2.0143  1.0425 -0.5242
    4MOL0     H  508   0.514   1.635   4.756 -0.5416 -1.9541 -1.7593
    4MOL0     H  509   0.487   1.651   4.592  1.4124  1.5840 -1.1849
    4MOL0     H  510   0.486   2.760   4.475 -0.6132  2.7046  0.5819
    4MOL0     H  511   0.354   2.949   4.511  1.2536  1.6749 -2.0371
    4MOL0     H  512   0.036   3.196   4.381  1.3785 -0.9574  0.5847
    4MOL0     H  513  -0.121   3.394   4.351 -3.1894  1.5414  0.7023
    4MOL0     H  514   0.917   3.474   3.675 -0.4215 -3.6136  0.6360
    4MOL0     H  515   1.111   3.630   3.646  2.2372  1.3922  1.1826
    4MOL0     H  516   1.308   4.042   3.774 -0.0428 -2.0457  1.2192
    4MOL0     H  517   1.500   4.191   3.709 -2.0231  0.2873 -0.3698
    4MOL0     H  518   1.869   4.007   3.765 -0.8738  1.8235  1.3234
    4MOL0     H  519   1.895   4.176   3.753  2.5684 -0.3891 -0.2580
    4MOL0     H  520   1.978   4.186   3.541  0.5664  0.5063  2.5838
    4MOL0     H  521   2.071   4.077   3.632  1.5319  1.2010 -1.0997
    4MOL0     H  522   1.978   3.996   3.383  1.1618 -0.7197  0.2015
    4MOL0     H  523   1.832   3.973   3.447  0.7090  2.1385 -2.3997
    4MOL0     H  524   1.901   3.747   3.510 -1.2169  1.4489 -4.3833
    4MOL0     H  525   2.047   3.792   3.422 -0.3896 -3.3999 -0.2885
    4MOL0     H  526   2.199   3.745   3.803 -0.5524 -5.7414 -0.6768
    4MOL0     H  527   1.741   3.837   3.682  0.4119  0.5802 -0.7882
    4MOL0     H  528   1.559   3.699   3.735  1.5838 -0.5729 -0.1095
    5MOL0     O  529  10.788   1.642   0.458 -0.3017 -0.9973 -0.8060
    5MOL0     C  530  10.814   1.548   0.376  0.7120 -0.9289  0.7353
    5MOL0     O  531  10.736   1.437   0.348  0.0820 -0.1256 -0.9674
    5MOL0     C  532  10.615   1.437   0.417  0.0249 -0.2681 -0.2931
    5MOL0     C  533  10.605   1.433   0.558 -0.4789  0.1771 -0.1937
    5MOL0     C  534  10.481   1.428   0.624 -0.0013  0.1512  0.1129
    5MOL0     C  535  10.368   1.437   0.550  0.6809  0.0853 -1.6670
    5MOL0     O  536  10.250   1.426   0.624 -0.6875  0.0698 -0.0125
    5MOL0     C  537  10.137   1.503   0.588  0.5460 -0.0763 -0.2596
    5MOL0     C  538  10.040   1.503   0.710  0.4591  0.2454 -0.3867
    5MOL0     C  539  10.013   1.358   0.768 -0.6130 -0.3054 -1.0024
    5MOL0     C  540   9.925   1.376   0.892 -0.0745 -0.0307  0.2651
    5MOL0     C  541   9.789   1.299   0.882  0.1538 -0.2821  0.8950
    5MOL0     C  542   9.725   1.301   1.018  0.6673  0.5005  0.8598
    5MOL0     C  543   9.584   1.236   1.029  1.0411  0.9677  0.1505
    5MOL0     C  544   9.518   1.263   1.170 -0.8105 -0.4485  0.8739
    5MOL0     N  545   9.472   1.402   1.161  0.8418  0.2113 -0.0925
    5MOL0     C  546   9.367   1.453   1.093 -0.0881 -0.3827 -0.0824
    5MOL0     C  547   9.363   1.587   1.110 -0.4169 -0.1837 -0.8648
    5MOL0     C  548   9.271   1.682   1.062  0.3497 -0.6515 -0.3596
    5MOL0     C  549   9.260   1.819   1.143 -0.8004  0.7667  0.5319
    5MOL0     C  550   9.218   1.805   1.294 -0.6074  0.3493  0.1135
    5MOL0     C  551   9.257   1.937   1.354  1.4714 -0.3897 -1.0638
    5MOL0     O  552   9.232   1.925   1.497 -0.0502 -0.0940 -0.6120
    5MOL0     C  553   9.278   2.033   1.578  0.8199  0.0791 -0.5827
    5MOL0     C  554   9.297   2.159   1.527  0.8667  0.2001  0.7509
    5MOL0     C  555   9.338   2.264   1.610  0.0567  0.2956  0.4196
    5MOL0     C  556   9.367   2.239   1.748  0.0703  0.3940 -1.1473
    5MOL0     C  557   9.435   2.336   1.835  0.0970 -0.4125  0.6911
    5MOL0     O  558   9.508   2.424   1.773 -0.0088  0.2389 -0.0983
    5MOL0     C  559   9.587   2.516   1.841 -0.3003 -0.7406  0.4438
    5MOL0     C  560   9.539   2.653   1.858 -0.2720  0.4967 -0.2993
    5MOL0     C  561   9.624   2.736   1.936 -0.0939  1.0392  0.3841
    5MOL0     C  562   9.754   2.697   1.977  0.1204 -1.6276 -0.0619
    5MOL0     O  563   9.823   2.803   2.038  0.2667 -0.0402  0.1278
    5MOL0     C  564   9.961   2.805   2.002  0.1129 -0.0012 -0.7993
    5MOL0     C  565  10.046   2.876   2.105  0.2127 -0.1312 -0.7772
    5MOL0     C  566  10.050   2.789   2.226 -0.2428  0.5011 -0.5341
    5MOL0     C  567  10.159   2.824   2.330  0.7884  0.3182  0.9074
    5MOL0     C  568  10.126   2.960   2.390  0.1989  0.2031 -0.1734
    5MOL0     C  569  10.217   3.016   2.495  0.2882  0.0055  0.0022
    5MOL0     C  570  10.185   3.154   2.558  0.8187  0.2826  0.5595
    5MOL0     C  571  10.229   3.159   2.703 -0.8306  0.1602 -0.1196
    5MOL0    Cl  572  10.414   3.153   2.739  0.0123  0.0619  0.0901
    5MOL0     C  573   9.792   2.566   1.960 -0.5406  0.5884 -0.4338
    5MOL0     C  574   9.719   2.467   1.888 -1.1021 -0.4179 -0.2680
    5MOL0     O  575   9.415   2.338   1.950  0.3080 -0.2924 -0.0373
    5MOL0     C  576   9.343   2.113   1.797 -0.7105  0.6741  0.7550
    5MOL0     C  577   9.294   2.012   1.713 -0.0165  0.1890  0.0934
    5MOL0     N  578   9.481   1.615   1.174 -0.4667 -0.3746  0.5550
    5MOL0     N  579   9.552   1.509   1.200  0.3389 -0.6330 -0.0136
    5MOL0     C  580  10.375   1.445   0.417  0.5532  0.1637  0.0134
    5MOL0     C  581  10.498   1.437   0.346  0.7570 -0.2679 -1.0445
    5MOL0     C  582  10.941   1.567   0.306  0.6165 -0.3718 -0.2074
    5MOL0     C  583  11.027   1.669   0.351 -0.0669 -0.7409  0.8394
    5MOL0     C  584  11.139   1.694   0.268 -0.8073  0.2865  0.6780
    5MOL0     C  585  11.174   1.620   0.151 -0.7600  0.3827 -0.1203
    5MOL0     O  586  11.286   1.653   0.075 -0.5648 -0.1143 -0.3395
    5MOL0     C  587  11.307   1.599  -0.054 -0.4035  0.2876 -0.6871
    5MOL0     C  588  11.469   1.589  -0.058 -0.0035 -0.7675 -0.2521
    5MOL0     C  589  11.541   1.708  -0.125 -0.0603 -0.1427  0.6823
    5MOL0     C  590  11.518   1.837  -0.048 -0.1724  1.5675 -0.2747
    5MOL0     C  591  11.607   1.940  -0.106 -0.8099 -0.7280  1.0209
    5MOL0     C  592  11.676   2.025  -0.162  0.5421 -0.1338  0.0031
    5MOL0     C  593  11.106   1.502   0.128  0.2965 -1.3100 -0.3948
    5MOL0     C  594  10.981   1.479   0.200 -0.2227  0.3270 -0.0730
    5MOL0     H  595  10.700   1.421   0.608 -1.5516 -0.9189  1.6840
    5MOL0     H  596  10.474   1.407   0.731 -1.6779  2.2493  0.4723
    5MOL0     H  597  10.085   1.452   0.507 -0.5470 -3.0955  2.1429
    5MOL0     H  598  10.152   1.609   0.564 -1.5988  0.8621  2.0234
    5MOL0     H  599   9.943   1.539   0.673  0.4847 -0.0330 -0.7270
    5MOL0     H  600  10.069   1.567   0.794  0.0508  0.8873 -0.7199
    5MOL0     H  601  10.104   1.319   0.814 -2.0336  1.9402  4.4976
    5MOL0     H  602   9.964   1.293   0.695  2.1831  1.1922 -4.5284
    5MOL0     H  603   9.982   1.337   0.978 -1.5240  0.2290  1.3805
    5MOL0     H  604   9.908   1.482   0.913  3.2718  0.6151  0.2559
    5MOL0     H  605   9.810   1.198   0.845  0.3599 -0.1584  0.6741
    5MOL0     H  606   9.732   1.357   0.809 -0.5614 -1.7115  0.2692
    5MOL0     H  607   9.710   1.409   1.029 -1.0319  0.3860  0.0644
    5MOL0     H  608   9.792   1.258   1.092  2.2733 -1.6063 -1.6558
    5MOL0     H  609   9.515   1.268   0.951 -0.1670 -3.3154 -0.8114
    5MOL0     H  610   9.595   1.128   1.016 -0.1636  0.6407  1.5976
    5MOL0     H  611   9.601   1.265   1.241  0.7715 -0.8502 -0.8827
    5MOL0     H  612   9.440   1.190   1.192 -0.7763  0.3931  4.2745
    5MOL0     H  613   9.290   1.397   1.041 -1.3327  0.7907  0.4268
    5MOL0     H  614   9.165   1.654   1.057  0.8059 -2.3586 -1.0006
    5MOL0     H  615   9.306   1.711   0.963 -1.7495  3.5493 -0.0997
    5MOL0     H  616   9.199   1.892   1.089 -0.1171  1.4228  0.6405
    5MOL0     H  617   9.363   1.854   1.137  0.6957 -3.3667 -2.4821
    5MOL0     H  618   9.112   1.782   1.310 -0.5246 -0.0353  0.1205
    5MOL0     H  619   9.275   1.729   1.347 -1.0926  0.2828  0.5446
    5MOL0     H  620   9.188   2.012   1.314 -0.5328 -1.7994 -0.4651
    5MOL0     H  621   9.360   1.972   1.346  0.3885  4.4903  2.0392
    5MOL0     H  622   9.275   2.182   1.423  1.9794  0.3957  0.5412
    5MOL0     H  623   9.342   2.363   1.566  3.0190 -0.7506 -2.0623
    5MOL0     H  624   9.443   2.684   1.819 -1.1266 -2.1768 -0.5328
    5MOL0     H  625   9.577   2.831   1.961 -2.4204 -0.8886  4.2514
    5MOL0     H  626   9.974   2.857   1.906 -1.0786  1.5844 -0.1577
    5MOL0     H  627  10.014   2.711   1.984 -0.9354 -0.7881  0.0871
    5MOL0     H  628   9.995   2.965   2.144 -1.4759 -1.1980 -0.4213
    5MOL0     H  629  10.142   2.906   2.063 -1.3092  1.2312 -3.5940
    5MOL0     H  630  10.056   2.682   2.203 -1.2021 -0.0526  1.5311
    5MOL0     H  631   9.956   2.794   2.283  0.5971  1.1967  0.8360
    5MOL0     H  632  10.158   2.748   2.409 -3.2573 -0.0744  0.6677
    5MOL0     H  633  10.259   2.831   2.285  0.3728 -0.6236 -0.2095
    5MOL0     H  634  10.025   2.966   2.432 -0.5337 -0.4723 -1.7541
    5MOL0     H  635  10.117   3.036   2.312 -2.8535  0.6645  0.4791
    5MOL0     H  636  10.318   3.017   2.453  1.4397 -3.2664  2.3245
    5MOL0     H  637  10.225   2.941   2.574  2.0499 -1.6476 -1.6342
    5MOL0     H  638  10.225   3.232   2.493 -0.7963 -1.6642 -3.0961
    5MOL0     H  639  10.079   3.181   2.565  0.4891 -0.7946 -0.0916
    5MOL0     H  640  10.177   3.070   2.739 -0.2133 -1.1841 -2.3266
    5MOL0     H  641  10.199   3.251   2.754 -0.7965  1.0674 -1.6692
    5MOL0     H  642   9.876   2.550   2.027 -2.0609  1.0301  1.6802
    5MOL0     H  643   9.775   2.374   1.885 -3.5352 -1.9351 -2.8737
    5MOL0     H  644   9.356   2.093   1.903 -3.6790  1.0600  1.2807
    5MOL0     H  645   9.283   1.917   1.764  0.1913 -0.0752 -0.3535
    5MOL0     H  646  10.282   1.454   0.362 -0.4766 -0.9387  1.4843
    5MOL0     H  647  10.499   1.442   0.237  1.9858 -0.8766 -1.0828
    5MOL0     H  648  11.026   1.719   0.447  1.2250 -0.7041  0.8514
    5MOL0     H  649  11.214   1.765   0.300  1.6529 -1.5690 -0.6781
    5MOL0     H  650  11.268   1.666  -0.131  0.3963  1.1604 -0.3525
    5MOL0     H  651  11.279   1.495  -0.074 -0.6216 -0.2423  1.9997
    5MOL0     H  652  11.502   1.588   0.046 -2.3490 -0.8580  0.5691
    5MOL0     H  653  11.503   1.499  -0.109 -0.8850 -0.9593 -0.5274
    5MOL0     H  654  11.500   1.710  -0.226 -1.4359 -1.0003  1.1958
    5MOL0     H  655  11.646   1.680  -0.143  0.0078 -0.8839  2.1080
    5MOL0     H  656  11.414   1.869  -0.060 -0.4582  1.6085  1.9365
    5MOL0     H  657  11.540   1.825   0.058  2.1204 -1.6057 -0.9503
    5MOL0     H  658  11.728   2.111  -0.198  1.9248 -0.8065  0.3040
    5MOL0     H  659  11.129   1.429   0.052  0.6025  0.4629 -2.0945
    5MOL0     H  660  10.914   1.396   0.179 -1.2408 -0.3107  4.4772
    6MOL0     O  661   7.902   8.038   5.392  0.6179  0.4629  0.4032
    6MOL0     C  662   7.883   7.923   5.425 -0.3319  0.0232 -0.7722
    6MOL0     O  663   7.862   7.880   5.553  0.2427 -0.6313 -0.7141
    6MOL0     C  664   7.851   7.971   5.659  0.3278  0.2022 -0.0940
    6MOL0     C  665   7.921   7.945   5.781 -0.6796  0.3195  0.4304
    6MOL0     C  666   7.907   8.031   5.888 -0.2618 -0.3486 -0.5468
    6MOL0     C  667   7.811   8.133   5.888 -0.1062 -0.7081  0.6596
    6MOL0     O  668   7.778   8.208   6.005  0.2572  0.7677  0.0869
    6MOL0     C  669   7.652   8.279   5.998 -0.1156 -0.2019 -0.3938
    6MOL0     C  670   7.643   8.352   6.132  0.4673  0.3671  0.1736
    6MOL0     C  671   7.605   8.260   6.248 -0.6316  0.9451  0.5913
    6MOL0     C  672   7.546   8.348   6.352 -0.1344 -0.1871 -0.8731
    6MOL0     C  673   7.472   8.258   6.466 -0.6827  0.4342 -0.3240
    6MOL0     C  674   7.555   8.149   6.533 -0.0784  0.2827  0.1576
    6MOL0     C  675   7.479   8.059   6.634  0.3585 -0.3994 -1.0079
    6MOL0     C  676   7.446   8.128   6.766  0.3774  0.6265 -0.8488
    6MOL0     N  677   7.317   8.109   6.834  0.5823  0.9044  0.2385
    6MOL0     C  678   7.288   8.022   6.940 -0.4542  0.2728  0.1699
    6MOL0     C  679   7.150   8.038   6.976  0.2903  1.2034  0.5430
    6MOL0     C  680   7.068   7.975   7.082  0.8429  0.8960  0.2410
    6MOL0     C  681   6.920   7.945   7.035 -0.3080 -0.3011 -0.1457
    6MOL0     C  682   6.922   7.837   6.924  0.3835  0.1977  0.5891
    6MOL0     C  683   6.793   7.765   6.897  0.1143 -0.9744  0.2200
    6MOL0     O  684   6.727   7.722   7.015  0.0863  0.0878 -0.0780
    6MOL0     C  685   6.591   7.756   7.026  0.1433  0.2217  0.2112
    6MOL0     C  686   6.505   7.737   6.921  0.1947  0.6976 -1.1746
    6MOL0     C  687   6.373   7.772   6.938 -0.1686 -0.1200 -0.1436
    6MOL0     C  688   6.328   7.818   7.061 -0.0549  0.5388  0.0401
    6MOL0     C  689   6.189   7.856   7.081  0.7025  0.3473 -0.1701
    6MOL0     O  690   6.143   7.895   7.208  0.3925  0.8616  0.7294
    6MOL0     C  691   6.013   7.942   7.232  0.1092  0.1822 -0.3781
    6MOL0     C  692   5.969   7.944   7.366 -1.2075  0.2708  0.5549
    6MOL0     C  693   5.842   8.002   7.405  0.1265  0.3563  0.3646
    6MOL0     C  694   5.750   8.054   7.308 -0.7977  0.8169 -0.2998
    6MOL0     O  695   5.636   8.100   7.358  0.5100 -0.4898  0.3831
    6MOL0     C  696   5.576   8.201   7.277 -0.0364 -0.0550  0.5996
    6MOL0     C  697   5.501   8.297   7.355  0.3561 -0.6143 -0.8224
    6MOL0     C  698   5.417   8.235   7.470  0.0144 -0.3280  1.2961
    6MOL0     C  699   5.301   8.326   7.513 -0.8681 -0.0189 -0.7753
    6MOL0     C  700   5.242   8.289   7.658 -0.0562  1.0729 -0.1941
    6MOL0     C  701   5.303   8.188   7.750 -0.4756  0.0923 -0.5057
    6MOL0     C  702   5.214   8.177   7.887  0.8436  0.1747  0.0765
    6MOL0     C  703   5.231   8.043   7.964  0.2486 -0.1073  0.6816
    6MOL0    Cl  704   5.370   8.058   8.065  0.1122 -0.0196 -0.2806
    6MOL0     C  705   5.801   8.063   7.169  0.8102 -0.2642 -1.2215
    6MOL0     C  706   5.928   8.009   7.149 -0.4495 -0.4713 -0.0635
    6MOL0     O  707   6.120   7.860   6.978 -0.2337  0.2811 -0.3834
    6MOL0     C  708   6.415   7.848   7.168 -0.5464  0.2740 -0.2508
    6MOL0     C  709   6.542   7.810   7.148 -0.3661  0.3692  0.0505
    6MOL0     N  710   7.101   8.132   6.893  0.5164 -0.5936 -0.8082
    6MOL0     N  711   7.191   8.148   6.802 -0.2205 -0.3751 -0.5679
    6MOL0     C  712   7.732   8.162   5.769  0.4046 -0.4103 -0.2199
    6MOL0     C  713   7.756   8.079   5.655 -0.8299 -0.2557  0.0051
    6MOL0     C  714   7.871   7.822   5.317  0.9922  0.1419 -0.6904
    6MOL0     C  715   7.928   7.847   5.193  1.2317 -0.2854 -0.8114
    6MOL0     C  716   7.928   7.745   5.100  0.0739 -0.0008  0.7034
    6MOL0     C  717   7.858   7.627   5.116  0.9968 -0.8796 -0.6637
    6MOL0     O  718   7.874   7.530   5.019 -0.1377 -0.6785 -0.4173
    6MOL0     C  719   7.824   7.393   5.044  0.1047 -0.5351 -0.0233
    6MOL0     C  720   7.921   7.319   5.133  0.4697  0.1764  0.2486
    6MOL0     C  721   8.053   7.307   5.054 -1.1930  0.1948  0.5306
    6MOL0     C  722   8.129   7.190   5.110 -0.5621  0.7496 -0.2320
    6MOL0     C  723   8.264   7.176   5.057  0.2508 -0.3079 -0.7110
    6MOL0     C  724   8.371   7.151   5.016 -0.0564  0.4305 -0.2187
    6MOL0     C  725   7.780   7.613   5.234 -0.5609 -0.2409  0.3281
    6MOL0     C  726   7.794   7.701   5.335  0.4106 -0.9137 -0.5920
    6MOL0     H  727   7.995   7.866   5.776 -1.6536 -0.6766  1.2692
    6MOL0     H  728   7.958   8.022   5.983 -4.1631  0.1012  1.8248
    6MOL0     H  729   7.568   8.210   5.988  1.7054 -2.4399 -0.9020
    6MOL0     H  730   7.655   8.354   5.918  1.8198  2.2045  1.7522
    6MOL0     H  731   7.566   8.428   6.116  2.8909  2.5716 -1.8244
    6MOL0     H  732   7.732   8.412   6.152 -0.3412  1.4378  0.7410
    6MOL0     H  733   7.689   8.205   6.291 -0.5614  1.2808  0.8923
    6MOL0     H  734   7.531   8.186   6.215  0.4718 -1.5253  3.2181
    6MOL0     H  735   7.622   8.412   6.398 -1.0107  1.3536 -1.4560
    6MOL0     H  736   7.479   8.423   6.307  1.2473  2.5993  1.3897
    6MOL0     H  737   7.386   8.209   6.420  0.3334 -2.9773  1.1012
    6MOL0     H  738   7.427   8.322   6.543  0.5327 -1.9013  2.5296
    6MOL0     H  739   7.648   8.184   6.580  0.2465  0.1098 -0.3467
    6MOL0     H  740   7.586   8.080   6.454 -0.4290 -0.1533  0.3994
    6MOL0     H  741   7.387   8.010   6.602  0.1836 -0.9118  0.2242
    6MOL0     H  742   7.555   7.983   6.657 -0.2237 -0.9265 -0.7778
    6MOL0     H  743   7.472   8.234   6.757  2.3477  0.1130 -1.7726
    6MOL0     H  744   7.523   8.105   6.839 -1.0269 -1.0184  0.1950
    6MOL0     H  745   7.366   7.962   6.985  1.1737  2.6339  0.6676
    6MOL0     H  746   7.056   8.046   7.165 -0.3400 -0.1469  0.9991
    6MOL0     H  747   7.132   7.890   7.109 -0.6174  0.7183  3.7943
    6MOL0     H  748   6.867   8.035   7.003 -3.0820 -1.8751 -0.2033
    6MOL0     H  749   6.873   7.892   7.119  1.5388 -0.1575  1.0543
    6MOL0     H  750   6.954   7.882   6.829  1.0528  1.2477  1.2852
    6MOL0     H  751   6.993   7.760   6.955 -3.1924 -2.8770  1.7393
    6MOL0     H  752   6.792   7.669   6.845 -4.1188 -1.0699  0.1071
    6MOL0     H  753   6.733   7.833   6.834 -1.6121 -2.3716  0.2838
    6MOL0     H  754   6.544   7.704   6.825  2.6877 -0.2045  0.0775
    6MOL0     H  755   6.309   7.749   6.853  0.4223 -1.7216 -0.1863
    6MOL0     H  756   6.038   7.908   7.442  1.6704  2.3223 -0.9515
    6MOL0     H  757   5.817   8.008   7.510  2.5498  2.6764  0.9089
    6MOL0     H  758   5.504   8.145   7.217 -1.3719 -0.7721  2.7867
    6MOL0     H  759   5.652   8.252   7.215  0.0581 -2.3636 -1.3242
    6MOL0     H  760   5.434   8.354   7.289  0.5358  0.3963 -0.1431
    6MOL0     H  761   5.565   8.376   7.394  2.6415 -1.2992 -2.9132
    6MOL0     H  762   5.488   8.223   7.552 -0.6905  0.0397  1.9820
    6MOL0     H  763   5.367   8.144   7.437 -3.2547  1.4755  0.7480
    6MOL0     H  764   5.357   8.418   7.530  0.9288 -0.6666 -2.8281
    6MOL0     H  765   5.223   8.345   7.439 -1.2657  1.4017 -0.0254
    6MOL0     H  766   5.140   8.253   7.642  0.4097 -0.7459  0.6884
    6MOL0     H  767   5.235   8.388   7.704  0.8368  0.5745  1.0759
    6MOL0     H  768   5.398   8.220   7.794 -0.7388  0.1436  0.0355
    6MOL0     H  769   5.319   8.087   7.713 -0.1008 -0.5965  1.3891
    6MOL0     H  770   5.229   8.258   7.959 -4.7266  1.9303 -0.2884
    6MOL0     H  771   5.110   8.178   7.853  1.0829  2.0852 -0.7558
    6MOL0     H  772   5.252   7.958   7.897  1.0483  0.7548 -0.1963
    6MOL0     H  773   5.137   8.019   8.014  0.0680  0.1936  0.4885
    6MOL0     H  774   5.748   8.098   7.081  3.1192 -0.5312 -2.8091
    6MOL0     H  775   5.955   8.015   7.044 -0.8054 -0.9681 -0.1887
    6MOL0     H  776   6.389   7.894   7.263 -0.9643  2.5915 -1.4145
    6MOL0     H  777   6.624   7.831   7.215  1.7081 -2.5074 -1.4014
    6MOL0     H  778   7.663   8.241   5.744  1.4699  0.3996 -0.7010
    6MOL0     H  779   7.691   8.083   5.568 -0.4975  0.6331 -0.2154
    6MOL0     H  780   7.955   7.945   5.155  2.6454 -0.1882  0.3837
    6MOL0     H  781   7.962   7.760   4.998  0.5977  0.8206  0.9896
    6MOL0     H  782   7.805   7.343   4.948 -1.9211  0.1920 -0.0361
    6MOL0     H  783   7.728   7.395   5.097 -0.0203  0.3020 -0.2690
    6MOL0     H  784   7.916   7.368   5.230 -0.6535 -0.5015  0.5492
    6MOL0     H  785   7.885   7.216   5.145  1.2009 -0.5625 -2.8386
    6MOL0     H  786   8.124   7.389   5.055  1.8975 -2.0604 -3.1729
    6MOL0     H  787   8.027   7.281   4.951 -0.8764 -3.1175  1.1726
    6MOL0     H  788   8.149   7.203   5.217  2.1427  2.3222 -0.8411
    6MOL0     H  789   8.080   7.096   5.084  0.3359  0.2521 -0.1629
    6MOL0     H  790   8.475   7.130   5.005  0.5610  2.6718  0.8404
    6MOL0     H  791   7.729   7.518   5.246 -0.3422 -0.9010 -3.1388
    6MOL0     H  792   7.748   7.676   5.430 -1.3257 -0.3302 -1.2439
    7MOL0     O  793   2.358   9.953   9.386 -0.0659  0.3351 -0.3518
    7MOL0     C  794   2.282   9.870   9.336 -0.0467  0.6095  0.0529
    7MOL0     O  795   2.180   9.813   9.399  0.5603  0.4404  0.6180
    7MOL0     C  796   2.158   9.843   9.536  0.0575  0.3828  0.5008
    7MOL0     C  797   2.109   9.962   9.578 -0.1766 -0.7735 -0.3508
    7MOL0     C  798   2.087   9.994   9.713 -0.9571  0.3177 -0.0828
    7MOL0     C  799   2.118   9.897   9.814  0.4242 -0.0939  0.2928
    7MOL0     O  800   2.095   9.921   9.952  0.3451 -0.0482 -0.0745
    7MOL0     C  801   1.967   9.968   9.995 -0.4317  0.5225 -0.3889
    7MOL0     C  802   1.964   9.994  10.146  0.1465  0.5118 -0.5365
    7MOL0     C  803   1.812  10.026  10.176 -0.9751  0.1305  0.2504
    7MOL0     C  804   1.803  10.059  10.325 -0.8297 -0.0674  0.6821
    7MOL0     C  805   1.658  10.047  10.373  0.3392  1.2427 -1.1618
    7MOL0     C  806   1.643  10.013  10.519  0.5549 -0.7758 -0.3740
    7MOL0     C  807   1.707  10.113  10.615 -0.9655 -0.5072 -0.0857
    7MOL0     C  808   1.659  10.255  10.609  0.5004 -0.5574 -0.6532
    7MOL0     N  809   1.522  10.279  10.644 -1.1221  0.3449 -0.2184
    7MOL0     C  810   1.445  10.365  10.570 -1.1913 -0.3522  0.2342
    7MOL0     C  811   1.319  10.322  10.597 -1.0009  0.6789 -0.7238
    7MOL0     C  812   1.193  10.368  10.531 -0.3387  1.3573  0.7551
    7MOL0     C  813   1.144  10.262  10.429 -0.6224  0.0542  0.4645
    7MOL0     C  814   1.072  10.159  10.509 -0.4299 -0.0694  0.0330
    7MOL0     C  815   1.009  10.063  10.418  0.1795 -0.0597 -0.0099
    7MOL0     O  816   0.942   9.955  10.471  0.2105  0.2797 -0.4251
    7MOL0     C  817   0.820   9.971  10.539  0.8271 -0.1218  0.7635
    7MOL0     C  818   0.793   9.862  10.617 -0.5792  0.6165 -0.2133
    7MOL0     C  819   0.672   9.843  10.690  1.0216 -0.8508 -0.8617
    7MOL0     C  820   0.577   9.945  10.703  0.3667  0.3210 -0.2054
    7MOL0     C  821   0.446   9.942  10.775 -0.3821 -0.4369 -0.2869
    7MOL0     O  822   0.361  10.056  10.774  0.3254  0.1694 -1.1555
    7MOL0     C  823   0.254  10.064  10.862  0.1738  0.0297  0.6259
    7MOL0     C  824   0.273  10.045  10.995  0.8803  0.1361 -0.2164
    7MOL0     C  825   0.160  10.073  11.076 -1.1531  0.5726 -0.0086
    7MOL0     C  826   0.035  10.111  11.032 -0.7170 -0.8743  1.0783
    7MOL0     O  827  -0.066  10.117  11.127 -0.5139  0.6848  0.3844
    7MOL0     C  828  -0.197  10.169  11.094 -0.5538 -0.5348 -0.0878
    7MOL0     C  829  -0.277  10.173  11.227 -0.2990  0.5361  1.7410
    7MOL0     C  830  -0.385  10.270  11.218 -0.3305  0.3098 -0.3584
    7MOL0     C  831  -0.439  10.304  11.360 -0.2486  0.7188 -0.3991
    7MOL0     C  832  -0.556  10.403  11.346  0.2052  0.3155  0.2499
    7MOL0     C  833  -0.635  10.394  11.478  0.4410  0.0726  0.2980
    7MOL0     C  834  -0.580  10.491  11.587 -0.6180  0.1141  0.3954
    7MOL0     C  835  -0.673  10.506  11.703  0.3784  0.4872 -1.0252
    7MOL0    Cl  836  -0.707  10.365  11.797 -0.2410 -0.3495  0.0327
    7MOL0     C  837   0.026  10.141  10.896 -0.2727 -0.3967  0.5780
    7MOL0     C  838   0.131  10.108  10.803 -0.6950 -0.4825  0.1446
    7MOL0     O  839   0.408   9.828  10.796  0.4986 -0.5250 -0.5954
    7MOL0     C  840   0.613  10.064  10.628 -0.5934 -0.0872  0.7363
    7MOL0     C  841   0.738  10.086  10.562 -0.2958  0.1771 -0.0519
    7MOL0     N  842   1.327  10.234  10.707 -0.9805 -0.2871  0.3058
    7MOL0     N  843   1.450  10.206  10.733  0.2574 -0.4550  0.7285
    7MOL0     C  844   2.175   9.772   9.777 -0.0842  0.5745 -0.4776
    7MOL0     C  845   2.191   9.748   9.636  0.9216  0.0059  0.0220
    7MOL0     C  846   2.299   9.835   9.196  1.3563 -0.1123 -0.5071
    7MOL0     C  847   2.403   9.890   9.121  0.0662  1.7979 -0.2218
    7MOL0     C  848   2.414   9.858   8.985 -0.0845 -0.1448 -0.4338
    7MOL0     C  849   2.325   9.771   8.920 -0.4432 -0.3128 -0.4087
    7MOL0     O  850   2.341   9.762   8.781  0.0225 -0.1870 -0.3800
    7MOL0     C  851   2.225   9.728   8.703  0.1935  0.1429  0.2330
    7MOL0     C  852   2.236   9.784   8.567 -0.4354 -0.3545 -0.4706
    7MOL0     C  853   2.342   9.704   8.480  1.2135 -0.6245  0.6711
    7MOL0     C  854   2.384   9.769   8.358  0.0282  0.4273 -0.3785
    7MOL0     C  855   2.270   9.761   8.258  0.8604  0.0651 -0.3128
    7MOL0     C  856   2.170   9.754   8.185 -0.2867  0.9205 -0.1904
    7MOL0     C  857   2.223   9.711   8.998  0.6997 -0.0823  0.0092
    7MOL0     C  858   2.211   9.748   9.129  1.0413  0.8932  0.2153
    7MOL0     H  859   2.092  10.038   9.502 -1.2141 -2.1125 -1.5111
    7MOL0     H  860   2.038  10.088   9.735 -3.2161 -1.3552  2.7807
    7MOL0     H  861   1.882   9.904   9.971  0.4492 -1.0726  0.5869
    7MOL0     H  862   1.936  10.059   9.942 -0.9574  0.5238 -0.0882
    7MOL0     H  863   2.028  10.079  10.173 -0.3201  1.1231 -1.3276
    7MOL0     H  864   2.000   9.904  10.198  0.3572 -0.0311 -1.5878
    7MOL0     H  865   1.752   9.945  10.133  0.2315  0.0134 -1.2863
    7MOL0     H  866   1.785  10.119  10.126 -1.3160 -0.4374 -0.6494
    7MOL0     H  867   1.854   9.978  10.378 -1.4407  0.0629  1.4984
    7MOL0     H  868   1.855  10.145  10.368  2.4293 -2.5577  2.2045
    7MOL0     H  869   1.595   9.979  10.316  1.0752 -1.7093  1.2522
    7MOL0     H  870   1.612  10.144  10.352 -0.3507  1.2470  0.1865
    7MOL0     H  871   1.680   9.912  10.537  3.3800  0.4296  1.1586
    7MOL0     H  872   1.534  10.009  10.530  0.5000 -2.3726 -1.2535
    7MOL0     H  873   1.710  10.074  10.717  0.5006  2.4655  1.1181
    7MOL0     H  874   1.815  10.121  10.600 -1.1404 -1.5772 -2.5445
    7MOL0     H  875   1.678  10.288  10.506 -2.0207  1.7189 -0.4869
    7MOL0     H  876   1.716  10.324  10.672  1.2578 -1.9590  0.2459
    7MOL0     H  877   1.466  10.434  10.489 -3.0349  0.3257  0.2825
    7MOL0     H  878   1.212  10.464  10.481 -1.3650  1.1438 -0.0765
    7MOL0     H  879   1.112  10.388  10.602 -0.0882  3.2579  0.5648
    7MOL0     H  880   1.224  10.202  10.385  0.5073 -0.0661  2.5268
    7MOL0     H  881   1.088  10.316  10.352 -0.1342  1.3781  1.0254
    7MOL0     H  882   1.141  10.105  10.574 -1.5217 -1.0266  0.4218
    7MOL0     H  883   0.994  10.204  10.572  0.2710  1.8579 -0.3983
    7MOL0     H  884   1.092  10.026  10.357 -1.1369 -0.4311 -1.6678
    7MOL0     H  885   0.940  10.116  10.352 -0.4441  0.5065  1.0736
    7MOL0     H  886   0.866   9.784  10.602 -0.0536  0.3813  3.0314
    7MOL0     H  887   0.660   9.754  10.752  3.8823 -0.2674  0.6742
    7MOL0     H  888   0.366  10.008  11.036  1.9544  4.7221  2.2090
    7MOL0     H  889   0.168  10.042  11.180  0.6492 -0.2620 -0.3539
    7MOL0     H  890  -0.222  10.101  11.012 -0.3628  0.1429 -0.7142
    7MOL0     H  891  -0.193  10.273  11.062 -2.8557 -0.6408 -0.9028
    7MOL0     H  892  -0.204  10.204  11.302  1.4131 -0.0111  0.3813
    7MOL0     H  893  -0.317  10.073  11.249  0.6971 -0.3875 -0.3298
    7MOL0     H  894  -0.470  10.237  11.158 -1.8193  2.1066  0.6719
    7MOL0     H  895  -0.348  10.365  11.178  2.4926 -0.2103  0.7722
    7MOL0     H  896  -0.466  10.208  11.405 -1.5627  2.3816  2.6667
    7MOL0     H  897  -0.356  10.346  11.418 -1.3805  1.9748  0.3693
    7MOL0     H  898  -0.625  10.373  11.267 -2.7776  5.1659  0.5946
    7MOL0     H  899  -0.530  10.505  11.318 -4.3626  0.8854 -3.2202
    7MOL0     H  900  -0.638  10.296  11.527 -0.6414  0.3436  0.8051
    7MOL0     H  901  -0.737  10.425  11.455  0.4044  0.3412  0.7957
    7MOL0     H  902  -0.488  10.455  11.634  0.5660  4.9657  2.4311
    7MOL0     H  903  -0.539  10.579  11.538  3.6829 -1.4533  0.7393
    7MOL0     H  904  -0.769  10.550  11.675 -1.3943 -2.2474  0.2196
    7MOL0     H  905  -0.630  10.581  11.769 -0.2478 -0.5158  0.5947
    7MOL0     H  906  -0.063  10.182  10.849  0.6198  1.0747  0.0988
    7MOL0     H  907   0.125  10.145  10.701 -2.9401  0.0319  0.4160
    7MOL0     H  908   0.536  10.137  10.609  0.9547  1.8851  1.6438
    7MOL0     H  909   0.760  10.182  10.516  0.8598 -0.1000 -0.0995
    7MOL0     H  910   2.190   9.694   9.851  0.2207  2.2272  1.2695
    7MOL0     H  911   2.224   9.659   9.584 -0.0262 -0.6677  0.5370
    7MOL0     H  912   2.466   9.959   9.176  2.2081 -1.2470  1.4568
    7MOL0     H  913   2.489   9.924   8.941  1.5599  0.1017  2.5042
    7MOL0     H  914   2.140   9.773   8.754  1.2402  0.0731  2.1157
    7MOL0     H  915   2.209   9.620   8.701  0.2374  0.0534 -3.9247
    7MOL0     H  916   2.141   9.787   8.514  1.0390  3.7521 -3.4299
    7MOL0     H  917   2.275   9.886   8.574  2.8096 -1.4166 -1.0382
    7MOL0     H  918   2.309   9.601   8.468 -0.6554  0.0005  0.1557
    7MOL0     H  919   2.432   9.704   8.542 -0.5972  1.3130  3.5665
    7MOL0     H  920   2.412   9.874   8.369  0.3445  0.2517  0.5155
    7MOL0     H  921   2.473   9.711   8.331 -0.1277 -0.7988  1.5477
    7MOL0     H  922   2.076   9.760   8.133  0.6376 -0.3768 -2.1279
    7MOL0     H  923   2.140   9.652   8.962 -1.0420  2.4103 -0.2718
    7MOL0     H  924   2.130   9.706   9.187  0.5453  0.8024 -0.5286
    8MOL0     O  925  10.109   7.880   4.875  0.6961  0.1624 -0.5886
    8MOL0     C  926  10.078   7.821   4.771 -1.1356  0.3425  0.1224
    8MOL0     O  927  10.126   7.835   4.641 -0.5802 -0.0518  0.7089
    8MOL0     C  928  10.223   7.927   4.617  0.4036 -0.0491 -0.0624
    8MOL0     C  929  10.185   8.061   4.616 -0.8915 -0.4520  0.1778
    8MOL0     C  930  10.284   8.161   4.621 -1.4478 -0.1286 -0.2989
    8MOL0     C  931  10.422   8.126   4.611  0.0665 -1.4543 -0.2252
    8MOL0     O  932  10.510   8.234   4.611  0.3704 -0.0158  0.4680
    8MOL0     C  933  10.547   8.282   4.476  0.6734  1.3659 -1.5283
    8MOL0     C  934  10.659   8.394   4.470 -0.1878  0.3560  0.1360
    8MOL0     C  935  10.798   8.338   4.522 -0.5043  0.3029  1.2731
    8MOL0     C  936  10.855   8.226   4.425  0.7638 -0.0372 -0.3709
    8MOL0     C  937  10.993   8.176   4.464 -0.1465  0.1146 -0.0381
    8MOL0     C  938  11.003   8.092   4.595 -0.4191  0.3943 -0.2841
    8MOL0     C  939  11.140   8.027   4.623 -1.0777  0.2202  1.0102
    8MOL0     C  940  11.137   7.943   4.752  0.2842  0.4137  0.6293
    8MOL0     N  941  11.242   7.846   4.761 -0.7610 -0.1865 -0.1572
    8MOL0     C  942  11.370   7.867   4.724  0.0684  0.5606  0.3480
    8MOL0     C  943  11.443   7.757   4.757 -0.6014 -0.3097 -0.3136
    8MOL0     C  944  11.592   7.725   4.735 -0.0310  0.3358 -0.5542
    8MOL0     C  945  11.681   7.780   4.839 -0.4637 -0.0087 -0.4100
    8MOL0     C  946  11.634   7.752   4.982 -0.2560  0.6819 -0.0605
    8MOL0     C  947  11.754   7.770   5.075  0.2457 -0.3034  0.2694
    8MOL0     O  948  11.726   7.723   5.199  0.1266  0.7130 -0.2601
    8MOL0     C  949  11.730   7.590   5.217 -0.5354 -0.3131 -0.5570
    8MOL0     C  950  11.719   7.569   5.359 -0.1344 -0.0878  0.2661
    8MOL0     C  951  11.731   7.438   5.407  0.1332 -0.2271  0.6436
    8MOL0     C  952  11.744   7.332   5.320 -0.9194 -0.0596  0.3299
    8MOL0     C  953  11.729   7.197   5.376 -0.1016 -0.9580 -0.0999
    8MOL0     O  954  11.674   7.180   5.500 -0.1439  0.2719  0.1482
    8MOL0     C  955  11.692   7.061   5.566 -0.6240  0.8125 -0.8074
    8MOL0     C  956  11.792   6.963   5.548  0.5597 -0.2455  0.3771
    8MOL0     C  957  11.811   6.863   5.633 -0.9168  0.7383  0.0949
    8MOL0     C  958  11.720   6.838   5.732  0.1268 -0.0956 -0.6211
    8MOL0     O  959  11.735   6.737   5.826  0.1030 -0.1720  0.3961
    8MOL0     C  960  11.644   6.620   5.798 -0.3886 -0.7427  0.4531
    8MOL0     C  961  11.564   6.558   5.915 -0.6143 -0.0455  0.3982
    8MOL0     C  962  11.642   6.524   6.038 -0.0061 -0.1406 -0.3894
    8MOL0     C  963  11.557   6.516   6.168  0.6009 -0.3155 -0.0925
    8MOL0     C  964  11.578   6.380   6.236 -0.1308 -1.1246 -0.7059
    8MOL0     C  965  11.469   6.351   6.354 -0.1889 -0.4382 -0.7804
    8MOL0     C  966  11.452   6.480   6.438 -0.2342 -0.3635 -0.4689
    8MOL0     C  967  11.392   6.444   6.574 -0.8329 -0.1359  1.0280
    8MOL0    Cl  968  11.374   6.604   6.648  0.3368  0.6354  0.1815
    8MOL0     C  969  11.622   6.935   5.759  0.0237  0.7500  0.1557
    8MOL0     C  970  11.607   7.036   5.667  1.1600 -0.5756  0.6827
    8MOL0     O  971  11.767   7.108   5.307  0.1019 -0.4907  0.1647
    8MOL0     C  972  11.769   7.359   5.176  0.7242  1.7187 -1.4403
    8MOL0     C  973  11.770   7.485   5.133 -0.4048  0.3170  1.0184
    8MOL0     N  974  11.356   7.665   4.802  0.2433  0.3977  0.6175
    8MOL0     N  975  11.239   7.713   4.800 -0.9713 -0.0402  0.1706
    8MOL0     C  976  10.457   7.982   4.607 -0.0151 -0.9262  0.2417
    8MOL0     C  977  10.358   7.890   4.608 -0.0477  0.7205 -0.4156
    8MOL0     C  978   9.974   7.717   4.779  0.4063 -0.4563 -0.2919
    8MOL0     C  979   9.895   7.706   4.898  0.6123  1.0313  0.0610
    8MOL0     C  980   9.779   7.615   4.885 -0.0740  0.3385 -0.4684
    8MOL0     C  981   9.761   7.531   4.775  0.1459  0.1091  0.2820
    8MOL0     O  982   9.658   7.437   4.788 -0.1894 -0.1212  0.0200
    8MOL0     C  983   9.519   7.475   4.772 -0.7964 -0.4853  0.3873
    8MOL0     C  984   9.449   7.483   4.912  0.3198 -0.9910  1.0891
    8MOL0     C  985   9.471   7.358   4.983 -0.1975 -0.4514  0.0497
    8MOL0     C  986   9.398   7.234   4.928  0.7988 -0.3875  0.5007
    8MOL0     C  987   9.249   7.240   4.932  0.3104 -0.6478 -0.0943
    8MOL0     C  988   9.126   7.240   4.943 -0.0425  0.4702  0.0119
    8MOL0     C  989   9.842   7.539   4.667 -0.2204 -0.6445 -0.0013
    8MOL0     C  990   9.952   7.626   4.674 -0.1994 -0.7058  0.3155
    8MOL0     H  991  10.081   8.087   4.629 -1.0841  1.2703 -3.5112
    8MOL0     H  992  10.259   8.266   4.631 -2.0795 -0.1459 -1.5079
    8MOL0     H  993  10.460   8.330   4.432 -0.3272  0.9651 -0.0602
    8MOL0     H  994  10.559   8.190   4.418 -0.0882 -0.0250  0.3852
    8MOL0     H  995  10.638   8.484   4.529  1.1169  0.0088  1.1776
    8MOL0     H  996  10.660   8.448   4.375 -1.1705  0.2339  0.0491
    8MOL0     H  997  10.782   8.289   4.619 -1.1526  2.3617  2.2730
    8MOL0     H  998  10.866   8.423   4.523  0.7358 -0.4909 -2.0699
    8MOL0     H  999  10.781   8.145   4.428 -2.3657  2.5872  1.0039
    8MOL0     H 1000  10.858   8.259   4.321 -0.5036  0.7894 -0.1696
    8MOL0     H 1001  11.059   8.263   4.468 -1.6703  1.3712 -0.9822
    8MOL0     H 1002  11.035   8.114   4.384  1.3960 -0.1468  0.9301
    8MOL0     H 1003  10.928   8.013   4.602  2.3880 -2.4683 -0.2438
    8MOL0     H 1004  10.993   8.164   4.677  0.9052 -2.3390  2.4891
    8MOL0     H 1005  11.169   7.957   4.544 -1.0763  0.1855  1.0414
    8MOL0     H 1006  11.218   8.103   4.638  2.1399 -1.9926 -2.5898
    8MOL0     H 1007  11.043   7.888   4.757 -0.1712  1.0927 -0.2063
    8MOL0     H 1008  11.131   8.019   4.831 -0.2853  3.1303 -1.8374
    8MOL0     H 1009  11.402   7.959   4.675 -0.2739 -0.1652 -1.2867
    8MOL0     H 1010  11.619   7.755   4.633 -0.3383  1.6602 -0.2668
    8MOL0     H 1011  11.598   7.616   4.735 -3.4084  0.0226  0.3877
    8MOL0     H 1012  11.704   7.885   4.820 -0.4967 -0.2918 -2.0866
    8MOL0     H 1013  11.782   7.741   4.822 -0.7701 -0.0811 -2.1643
    8MOL0     H 1014  11.554   7.823   5.006 -0.8932 -0.1906  0.4287
    8MOL0     H 1015  11.600   7.651   5.003 -1.0169  1.5689  3.7375
    8MOL0     H 1016  11.771   7.877   5.094  0.1639 -0.4045  0.9307
    8MOL0     H 1017  11.841   7.714   5.039 -0.7639 -1.1965 -0.8333
    8MOL0     H 1018  11.695   7.661   5.409 -1.1301  1.1581 -2.3024
    8MOL0     H 1019  11.726   7.427   5.515  2.6713 -1.5612  0.7161
    8MOL0     H 1020  11.881   6.982   5.488  0.1856 -2.2569 -0.9263
    8MOL0     H 1021  11.898   6.799   5.620 -2.1756 -1.0783  0.1628
    8MOL0     H 1022  11.713   6.550   5.748  0.2384 -1.0856  1.7494
    8MOL0     H 1023  11.568   6.651   5.726 -0.1392  1.2685  1.0183
    8MOL0     H 1024  11.512   6.471   5.874 -1.9090 -0.0781  2.0231
    8MOL0     H 1025  11.487   6.630   5.946 -0.8099 -1.4884  3.5649
    8MOL0     H 1026  11.714   6.605   6.052 -1.4015  1.1027 -0.1472
    8MOL0     H 1027  11.692   6.427   6.034 -1.8743 -1.4783  3.4853
    8MOL0     H 1028  11.584   6.596   6.238  0.9085 -0.1758 -0.3706
    8MOL0     H 1029  11.450   6.533   6.152  0.3627  0.0493  1.6214
    8MOL0     H 1030  11.682   6.372   6.266 -0.1918  0.1378 -0.1249
    8MOL0     H 1031  11.550   6.308   6.157  3.2841 -2.1573 -1.1523
    8MOL0     H 1032  11.505   6.271   6.419  0.4135  1.9276  2.0029
    8MOL0     H 1033  11.376   6.321   6.306  0.4393 -1.1627 -1.5726
    8MOL0     H 1034  11.552   6.523   6.445 -0.5592  0.2344  0.6046
    8MOL0     H 1035  11.387   6.548   6.382 -0.9493 -0.0338  0.7368
    8MOL0     H 1036  11.453   6.373   6.631 -1.3134 -2.3311 -0.9977
    8MOL0     H 1037  11.291   6.403   6.572 -1.9666  2.3905  2.3653
    8MOL0     H 1038  11.554   6.933   5.843 -2.4222  1.3394 -1.6880
    8MOL0     H 1039  11.527   7.106   5.686 -0.7709 -3.3356  3.9716
    8MOL0     H 1040  11.793   7.275   5.112  1.8239  0.4380  0.5727
    8MOL0     H 1041  11.803   7.500   5.030 -2.0304 -4.7963 -0.5311
    8MOL0     H 1042  10.558   7.948   4.627 -0.0271  0.0100  2.1447
    8MOL0     H 1043  10.370   7.782   4.612  1.1871  0.7853 -1.8910
    8MOL0     H 1044   9.920   7.769   4.982  0.7631  1.8056 -0.5468
    8MOL0     H 1045   9.714   7.606   4.971 -0.5279  1.6364 -0.6496
    8MOL0     H 1046   9.475   7.397   4.710  4.9624 -2.1890 -2.2292
    8MOL0     H 1047   9.523   7.568   4.714  1.9936 -0.4969  0.4190
    8MOL0     H 1048   9.504   7.553   4.976  1.3627  0.2526 -1.0441
    8MOL0     H 1049   9.343   7.506   4.904  0.5928  0.4928  1.4005
    8MOL0     H 1050   9.438   7.376   5.086 -1.4708 -0.8420 -0.2704
    8MOL0     H 1051   9.575   7.334   5.006 -0.4202  0.0832  1.7337
    8MOL0     H 1052   9.442   7.198   4.834  1.3602  1.4392  0.0194
    8MOL0     H 1053   9.420   7.152   4.998 -0.1429  0.3739  1.7394
    8MOL0     H 1054   9.019   7.238   4.952 -0.2148 -2.3552 -1.6103
    8MOL0     H 1055   9.823   7.481   4.577  2.1085  0.1263 -1.0614
    8MOL0     H 1056  10.023   7.628   4.592  0.9127 -0.1588  1.2558
    9MOL0     O 1057  11.397   8.767   4.918  0.9299  0.8310 -0.0968
    9MOL0     C 1058  11.331   8.865   4.898 -0.1273  0.0376 -0.9563
    9MOL0     O 1059  11.362   8.978   4.958 -0.4113 -0.5628  0.1359
    9MOL0     C 1060  11.448   8.978   5.066  0.0547 -0.4948 -0.1009
    9MOL0     C 1061  11.428   8.908   5.180  0.0456 -0.0192  0.6652
    9MOL0     C 1062  11.508   8.928   5.294  1.6760 -0.4161  0.4485
    9MOL0     C 1063  11.604   9.027   5.298  0.3407 -0.3743  0.6523
    9MOL0     O 1064  11.676   9.073   5.402 -0.4932 -0.8438 -0.6778
    9MOL0     C 1065  11.657   9.001   5.527 -0.1305  0.3556  0.9004
    9MOL0     C 1066  11.739   9.080   5.631  0.2406 -0.4369 -0.2350
    9MOL0     C 1067  11.890   9.088   5.614 -0.3277  0.5643 -0.1731
    9MOL0     C 1068  11.962   9.147   5.737  0.3483  0.3207 -0.3417
    9MOL0     C 1069  12.112   9.154   5.715  0.3932  0.7353  0.0085
    9MOL0     C 1070  12.189   9.194   5.847  0.4034  0.2988 -0.1204
    9MOL0     C 1071  12.336   9.218   5.818  0.3483 -0.2886  0.2492
    9MOL0     C 1072  12.429   9.221   5.945 -0.2268  0.3363 -0.0456
    9MOL0     N 1073  12.563   9.291   5.937 -0.1562  0.7507 -0.3516
    9MOL0     C 1074  12.590   9.408   6.006 -0.3432 -0.0907  0.6850
    9MOL0     C 1075  12.726   9.427   5.995 -0.0866 -0.3350 -0.4889
    9MOL0     C 1076  12.810   9.533   6.067 -0.1954 -0.5728  0.0142
    9MOL0     C 1077  12.836   9.652   5.964  0.7652  0.1574  0.2254
    9MOL0     C 1078  12.905   9.773   6.024  0.1294 -0.1410 -0.4957
    9MOL0     C 1079  12.992   9.742   6.157 -0.4093 -0.1475 -0.1193
    9MOL0     O 1080  13.088   9.651   6.114 -0.0095 -0.6628  0.0365
    9MOL0     C 1081  13.215   9.656   6.154 -0.5631  0.1300 -0.4814
    9MOL0     C 1082  13.260   9.691   6.284 -0.3454 -0.1429  0.3835
    9MOL0     C 1083  13.398   9.678   6.316  0.1807  0.5177 -0.8427
    9MOL0     C 1084  13.489   9.650   6.215  0.2036  0.8309  0.8210
    9MOL0     C 1085  13.640   9.648   6.243  0.0037 -1.1740 -0.2814
    9MOL0     O 1086  13.679   9.667   6.373  0.6951 -0.2742  0.0687
    9MOL0     C 1087  13.809   9.674   6.408 -0.5343 -0.2981 -0.7196
    9MOL0     C 1088  13.841   9.790   6.484  0.6068  0.8660  0.5653
    9MOL0     C 1089  13.973   9.807   6.527 -0.0510 -0.2569  0.3704
    9MOL0     C 1090  14.077   9.715   6.496  0.9446 -1.1728  0.4917
    9MOL0     O 1091  14.200   9.745   6.557  0.0096 -0.1988  0.3276
    9MOL0     C 1092  14.283   9.628   6.595  0.0121  0.1451  0.1826
    9MOL0     C 1093  14.437   9.660   6.629  0.4286  0.3505 -0.6246
    9MOL0     C 1094  14.511   9.757   6.543 -0.5992 -0.2604  0.0274
    9MOL0     C 1095  14.621   9.701   6.453  0.1208  0.5804 -0.3850
    9MOL0     C 1096  14.688   9.801   6.360  0.0800 -0.1225  0.6483
    9MOL0     C 1097  14.798   9.880   6.426 -0.0540 -0.4617 -0.1223
    9MOL0     C 1098  14.878   9.961   6.323  0.9026  0.5060  0.5972
    9MOL0     C 1099  14.916  10.104   6.362 -0.5239  0.6891 -0.6440
    9MOL0    Cl 1100  15.064  10.103   6.458  0.3536  0.4000 -0.1587
    9MOL0     C 1101  14.042   9.597   6.430 -0.5444  0.1796  0.4477
    9MOL0     C 1102  13.909   9.574   6.392 -0.0864  0.1995  0.2976
    9MOL0     O 1103  13.719   9.631   6.150  0.2703  0.8112  0.2958
    9MOL0     C 1104  13.444   9.614   6.085  0.3315  0.2595 -0.5208
    9MOL0     C 1105  13.308   9.615   6.055 -0.6863 -0.6284  0.7499
    9MOL0     N 1106  12.768   9.328   5.913  0.2310 -0.1474 -0.2143
    9MOL0     N 1107  12.673   9.245   5.880 -1.3136  0.5409 -0.7556
    9MOL0     C 1108  11.629   9.096   5.175  0.1183  0.6578 -0.4369
    9MOL0     C 1109  11.550   9.071   5.053 -1.1632 -0.4453 -0.5239
    9MOL0     C 1110  11.229   8.861   4.794  0.2894  0.4694 -0.4207
    9MOL0     C 1111  11.196   8.974   4.723 -0.0408 -0.9367  0.4903
    9MOL0     C 1112  11.090   8.973   4.636  0.7939 -0.9197 -0.2992
    9MOL0     C 1113  11.010   8.860   4.609  0.4715 -0.4729  0.6462
    9MOL0     O 1114  10.909   8.876   4.514  0.2749 -0.3096  0.3357
    9MOL0     C 1115  10.857   8.760   4.443 -0.9274  0.4465  0.2152
    9MOL0     C 1116  10.791   8.810   4.318  0.3937 -0.0136  0.2436
    9MOL0     C 1117  10.866   8.782   4.187 -0.1294  0.0848  0.7978
    9MOL0     C 1118  10.885   8.628   4.159 -0.3305 -0.0188  0.3953
    9MOL0     C 1119  10.930   8.624   4.017  1.1136  0.5345 -1.4095
    9MOL0     C 1120  10.958   8.626   3.904  0.4130 -0.4705  0.1952
    9MOL0     C 1121  11.029   8.746   4.688 -0.1005 -0.2225 -0.0235
    9MOL0     C 1122  11.149   8.744   4.772 -0.3458  0.6168  0.0479
    9MOL0     H 1123  11.351   8.831   5.175  1.6038 -1.5530 -2.6459
    9MOL0     H 1124  11.485   8.861   5.376  0.6956 -0.8925 -0.1951
    9MOL0     H 1125  11.682   8.895   5.524 -1.3555  0.0717 -0.7920
    9MOL0     H 1126  11.551   9.002   5.551 -0.8478  1.5467 -1.9517
    9MOL0     H 1127  11.726   9.040   5.732 -0.1490 -0.0686 -0.1374
    9MOL0     H 1128  11.687   9.176   5.628 -3.4052 -2.2418 -2.3983
    9MOL0     H 1129  11.917   9.141   5.523 -2.3047 -1.0301 -1.8192
    9MOL0     H 1130  11.942   8.993   5.598  0.6195  0.5966  2.3084
    9MOL0     H 1131  11.925   9.250   5.738 -2.6426 -0.6325 -0.5813
    9MOL0     H 1132  11.936   9.098   5.832 -0.3307  0.8363 -0.2534
    9MOL0     H 1133  12.140   9.235   5.646  3.9507 -1.3915 -1.3385
    9MOL0     H 1134  12.142   9.057   5.674 -3.2681 -0.3608 -0.4046
    9MOL0     H 1135  12.180   9.111   5.918  1.3217  0.8405  0.6561
    9MOL0     H 1136  12.137   9.278   5.894 -0.5270  0.1713 -0.9020
    9MOL0     H 1137  12.372   9.148   5.742  2.5604  2.5588 -1.5579
    9MOL0     H 1138  12.335   9.319   5.777 -4.3102  0.1586  0.9420
    9MOL0     H 1139  12.452   9.114   5.957  1.8723  0.8342  0.9008
    9MOL0     H 1140  12.368   9.245   6.032 -3.5209 -2.4460 -1.3473
    9MOL0     H 1141  12.502   9.453   6.051  0.1562  0.0547  1.5309
    9MOL0     H 1142  12.906   9.489   6.094  0.5063  1.1653  0.4402
    9MOL0     H 1143  12.752   9.567   6.153  2.1596 -0.2145  1.5442
    9MOL0     H 1144  12.740   9.680   5.921  1.0183  0.5691 -0.0700
    9MOL0     H 1145  12.904   9.618   5.885  1.9593  1.3761  0.6883
    9MOL0     H 1146  12.972   9.816   5.949  1.8538 -1.7339  0.0725
    9MOL0     H 1147  12.824   9.841   6.053 -1.3348 -1.3781 -1.6021
    9MOL0     H 1148  12.935   9.700   6.240  1.9032 -1.2526  0.9920
    9MOL0     H 1149  13.030   9.834   6.202 -1.2151 -0.1432  0.5808
    9MOL0     H 1150  13.194   9.727   6.362 -2.4180 -1.1129 -0.8135
    9MOL0     H 1151  13.432   9.696   6.417  0.5426 -0.8237 -0.7000
    9MOL0     H 1152  13.757   9.855   6.507 -1.9960 -2.5432  1.4949
    9MOL0     H 1153  13.998   9.891   6.591  0.6476 -0.4258  0.3253
    9MOL0     H 1154  14.292   9.553   6.516 -1.7950  1.4936 -1.4405
    9MOL0     H 1155  14.242   9.588   6.688 -0.2615 -2.2700 -0.9035
    9MOL0     H 1156  14.498   9.570   6.626  0.5037  0.4235 -1.7427
    9MOL0     H 1157  14.450   9.696   6.731 -2.3467 -1.4032  0.4719
    9MOL0     H 1158  14.551   9.842   6.600 -0.0643  0.8491 -1.9168
    9MOL0     H 1159  14.450   9.804   6.465 -0.5161  2.7444  1.6291
    9MOL0     H 1160  14.693   9.648   6.516  2.0046  1.6547 -1.5445
    9MOL0     H 1161  14.579   9.620   6.394  0.2761 -1.4221  2.0905
    9MOL0     H 1162  14.616   9.877   6.328  1.0948 -0.3851 -2.6450
    9MOL0     H 1163  14.720   9.749   6.269  1.3973 -0.5838  1.3475
    9MOL0     H 1164  14.866   9.809   6.473 -1.3841 -1.3445  0.5311
    9MOL0     H 1165  14.741   9.929   6.506 -0.4252 -1.8692  0.5045
    9MOL0     H 1166  14.970   9.905   6.302 -0.4890 -1.0568 -1.9163
    9MOL0     H 1167  14.811   9.966   6.237  0.4563  0.8365  0.9642
    9MOL0     H 1168  14.827  10.150   6.405  0.5680 -0.3359  3.0624
    9MOL0     H 1169  14.933  10.154   6.266 -1.6148 -1.1702 -1.9016
    9MOL0     H 1170  14.131   9.541   6.404  2.0279  2.5930  3.2301
    9MOL0     H 1171  13.882   9.482   6.341  3.4448  0.1319 -1.7489
    9MOL0     H 1172  13.514   9.593   6.004  0.2043  0.2969 -0.6410
    9MOL0     H 1173  13.275   9.588   5.955 -2.2891 -1.3270  1.4375
    9MOL0     H 1174  11.706   9.170   5.154  1.7735 -1.9043 -4.9097
    9MOL0     H 1175  11.560   9.131   4.962  0.1306  0.4015  0.1354
    9MOL0     H 1176  11.247   9.069   4.741 -3.8807  1.4735 -0.2514
    9MOL0     H 1177  11.059   9.070   4.598 -3.9012 -1.5528  1.2194
    9MOL0     H 1178  10.781   8.698   4.491  1.6513 -1.8698  1.5672
    9MOL0     H 1179  10.941   8.698   4.410 -0.9002  1.7782 -2.5143
    9MOL0     H 1180  10.691   8.771   4.297 -0.4739  2.2516 -0.1242
    9MOL0     H 1181  10.770   8.917   4.329 -2.3325 -0.5884  1.4575
    9MOL0     H 1182  10.966   8.824   4.197 -1.7841  4.1697  2.4277
    9MOL0     H 1183  10.805   8.831   4.110 -3.8380  2.5736  4.7921
    9MOL0     H 1184  10.956   8.578   4.225  0.0864 -2.6043 -1.8610
    9MOL0     H 1185  10.798   8.567   4.183 -0.7366  1.4245  3.0169
    9MOL0     H 1186  10.975   8.616   3.799 -0.5725  0.4169 -0.0735
    9MOL0     H 1187  10.955   8.666   4.689 -1.7218  1.1111  3.6803
    9MOL0     H 1188  11.167   8.650   4.823 -3.8079  0.3443  1.0141
   10MOL0     O 1189   8.537   5.541   6.600  0.2790 -0.4620 -0.1935
   10MOL0     C 1190   8.641   5.500   6.645 -0.3921  0.5599  0.8244
   10MOL0     O 1191   8.671   5.493   6.773  0.2730  0.0637 -0.1323
   10MOL0     C 1192   8.571   5.527   6.866  0.2125 -0.6082 -0.1839
   10MOL0     C 1193   8.485   5.430   6.908 -0.2666 -0.5608  0.6188
   10MOL0     C 1194   8.386   5.455   7.004  0.0737  0.4643  2.1413
   10MOL0     C 1195   8.379   5.565   7.081  0.1061 -0.9824 -0.0842
   10MOL0     O 1196   8.275   5.591   7.171  0.6512 -0.2172 -0.2774
   10MOL0     C 1197   8.321   5.658   7.287 -0.0941 -0.1796  0.2566
   10MOL0     C 1198   8.203   5.709   7.377  0.0075  1.0877  1.1763
   10MOL0     C 1199   8.122   5.818   7.311  0.8375 -0.3338  0.0245
   10MOL0     C 1200   8.037   5.896   7.408 -0.8781  0.3887  0.3545
   10MOL0     C 1201   7.914   5.967   7.342  0.1211 -0.2644  0.0901
   10MOL0     C 1202   7.958   6.104   7.276 -0.1478  0.4696  0.9571
   10MOL0     C 1203   7.849   6.149   7.173  1.1185  0.3858 -0.0524
   10MOL0     C 1204   7.730   6.218   7.225 -0.3267 -0.1134  0.1226
   10MOL0     N 1205   7.653   6.278   7.111  0.5527  0.2758  0.3193
   10MOL0     C 1206   7.600   6.209   7.004 -0.1884 -0.1099  0.3188
   10MOL0     C 1207   7.573   6.304   6.911 -0.0312  0.1038 -0.8165
   10MOL0     C 1208   7.526   6.258   6.773 -0.2289 -0.0763 -0.0345
   10MOL0     C 1209   7.615   6.293   6.654  0.9034 -0.2402 -1.3828
   10MOL0     C 1210   7.599   6.206   6.528 -0.0053  0.4781  0.1576
   10MOL0     C 1211   7.674   6.245   6.405 -0.3550  0.0174 -0.9431
   10MOL0     O 1212   7.621   6.190   6.278 -0.0872  0.1464  0.1767
   10MOL0     C 1213   7.631   6.052   6.251 -0.3993 -0.1012  0.2092
   10MOL0     C 1214   7.518   5.990   6.196 -0.4538  0.1432 -0.2260
   10MOL0     C 1215   7.520   5.848   6.190  0.3017 -0.0228 -0.1564
   10MOL0     C 1216   7.620   5.774   6.260  0.6997 -0.4029  1.2557
   10MOL0     C 1217   7.616   5.630   6.252  0.0035 -0.6126 -0.5630
   10MOL0     O 1218   7.696   5.559   6.338 -0.4711 -1.1097 -0.1149
   10MOL0     C 1219   7.673   5.425   6.353  0.1711  0.4866 -0.5613
   10MOL0     C 1220   7.676   5.336   6.245  0.0851 -0.7116  0.3824
   10MOL0     C 1221   7.675   5.196   6.264 -0.0827 -0.6744  0.7095
   10MOL0     C 1222   7.657   5.146   6.390  0.4948 -0.8703 -0.5891
   10MOL0     O 1223   7.650   5.015   6.397 -0.8457 -0.0563  0.3376
   10MOL0     C 1224   7.780   4.952   6.444 -0.6917  1.2016  0.0138
   10MOL0     C 1225   7.759   4.856   6.555 -0.1363  0.3360  0.6751
   10MOL0     C 1226   7.888   4.833   6.645  0.4074 -0.6953  0.4505
   10MOL0     C 1227   7.836   4.785   6.784  0.8832 -0.2167  1.2737
   10MOL0     C 1228   7.765   4.653   6.769  0.3696 -0.0818  0.5151
   10MOL0     C 1229   7.846   4.531   6.720  0.4928 -1.1640  1.4942
   10MOL0     C 1230   7.960   4.487   6.816  0.1151  0.0374  0.6501
   10MOL0     C 1231   8.044   4.375   6.752 -0.2325 -0.1649  0.8626
   10MOL0    Cl 1232   7.958   4.230   6.789  0.0407  0.0885  0.2511
   10MOL0     C 1233   7.652   5.234   6.501 -0.2032 -0.0620  0.9537
   10MOL0     C 1234   7.664   5.369   6.483  0.1567 -0.0908 -0.1938
   10MOL0     O 1235   7.536   5.579   6.171 -0.4738  0.3013 -0.3608
   10MOL0     C 1236   7.723   5.837   6.317 -0.1923 -0.8128 -0.0111
   10MOL0     C 1237   7.735   5.971   6.311  0.5786 -0.6112  0.0298
   10MOL0     N 1238   7.611   6.423   6.964  0.2279 -0.0982 -0.0272
   10MOL0     N 1239   7.644   6.410   7.089  0.5716 -0.7207  0.6563
   10MOL0     C 1240   8.465   5.668   7.046 -0.1458 -0.6349 -0.0607
   10MOL0     C 1241   8.555   5.649   6.934  0.0125  0.4150 -0.1261
   10MOL0     C 1242   8.723   5.449   6.535  0.9268  0.2128 -0.1867
   10MOL0     C 1243   8.867   5.438   6.557 -0.5902 -0.1935  0.6572
   10MOL0     C 1244   8.945   5.379   6.457  0.7133  0.9931 -0.2542
   10MOL0     C 1245   8.893   5.335   6.340 -0.1378 -0.3065 -0.0520
   10MOL0     O 1246   8.981   5.291   6.247  0.0993 -0.4472  0.7447
   10MOL0     C 1247   8.933   5.201   6.147 -0.3735 -0.2686 -0.7569
   10MOL0     C 1248   8.893   5.073   6.232 -0.2369 -0.1927  1.1941
   10MOL0     C 1249   9.010   4.992   6.281  0.1579 -0.5893  0.6665
   10MOL0     C 1250   9.051   4.879   6.198  0.2855  0.1921  0.0910
   10MOL0     C 1251   9.197   4.853   6.181  1.3146 -0.0181  0.1378
   10MOL0     C 1252   9.313   4.820   6.191 -0.0455 -0.0280 -0.0150
   10MOL0     C 1253   8.755   5.364   6.313 -0.2375  0.3463  0.6545
   10MOL0     C 1254   8.667   5.406   6.409  0.3768  0.1394 -0.3680
   10MOL0     H 1255   8.485   5.336   6.853  1.5459  0.7341 -1.8030
   10MOL0     H 1256   8.306   5.382   7.014  0.7345 -0.4764  0.8114
   10MOL0     H 1257   8.397   5.732   7.263  1.6307 -2.7532 -2.8821
   10MOL0     H 1258   8.372   5.584   7.350  0.7770  0.5718  0.4389
   10MOL0     H 1259   8.246   5.753   7.467 -0.6739  0.0136  2.0422
   10MOL0     H 1260   8.142   5.621   7.400 -1.4318  0.9826 -2.3060
   10MOL0     H 1261   8.060   5.768   7.235 -0.9502  0.0521  1.1783
   10MOL0     H 1262   8.189   5.895   7.271  0.9398 -0.3153  0.2320
   10MOL0     H 1263   7.998   5.828   7.484  2.8884 -0.9064  1.3622
   10MOL0     H 1264   8.088   5.976   7.464 -1.7914  0.9381  0.4244
   10MOL0     H 1265   7.843   5.987   7.424  1.1502  0.4934  0.8162
   10MOL0     H 1266   7.876   5.896   7.268  1.2438 -1.0429  0.2496
   10MOL0     H 1267   8.046   6.091   7.213 -0.3047  3.6509 -0.1075
   10MOL0     H 1268   7.981   6.187   7.344  3.8691  1.4725 -1.2729
   10MOL0     H 1269   7.907   6.226   7.120 -1.1956  2.9669  0.9592
   10MOL0     H 1270   7.812   6.077   7.099 -1.7634  1.0121  0.6834
   10MOL0     H 1271   7.753   6.297   7.297 -1.4763 -1.3937  1.9666
   10MOL0     H 1272   7.674   6.143   7.282  0.8780  0.8352  2.7326
   10MOL0     H 1273   7.592   6.101   7.005 -1.5647 -0.0559 -1.1621
   10MOL0     H 1274   7.433   6.308   6.746  0.1409 -0.4010 -2.0507
   10MOL0     H 1275   7.519   6.150   6.781 -0.3507 -0.2989 -2.4466
   10MOL0     H 1276   7.714   6.286   6.701 -0.7026 -2.1563  2.1289
   10MOL0     H 1277   7.597   6.397   6.626 -0.8618 -0.1052  0.0917
   10MOL0     H 1278   7.613   6.101   6.557 -0.7392  0.8595  2.0746
   10MOL0     H 1279   7.494   6.221   6.503 -0.2331 -0.2984  0.6119
   10MOL0     H 1280   7.780   6.219   6.411 -0.9735 -3.4056 -2.2911
   10MOL0     H 1281   7.666   6.352   6.389 -1.7620 -0.1599 -1.5538
   10MOL0     H 1282   7.435   6.038   6.146  1.0150  1.2911 -1.6646
   10MOL0     H 1283   7.432   5.802   6.147 -1.9081  5.1614 -2.0165
   10MOL0     H 1284   7.682   5.378   6.145 -2.5066  0.2730  0.5768
   10MOL0     H 1285   7.690   5.127   6.182 -0.5785 -0.0277  0.0591
   10MOL0     H 1286   7.848   5.032   6.476 -3.0428  2.4932  2.0752
   10MOL0     H 1287   7.820   4.888   6.364  1.8611  0.1501  1.9630
   10MOL0     H 1288   7.717   4.767   6.506  2.7340 -0.1953 -1.0166
   10MOL0     H 1289   7.692   4.919   6.615 -2.6003 -1.4492 -0.0114
   10MOL0     H 1290   7.944   4.927   6.650  2.0420 -1.6243  0.6147
   10MOL0     H 1291   7.948   4.750   6.607 -0.2268 -0.3965 -1.2742
   10MOL0     H 1292   7.924   4.770   6.847  1.7642 -0.8477 -0.0631
   10MOL0     H 1293   7.769   4.860   6.828 -1.1159  1.0036 -3.2543
   10MOL0     H 1294   7.681   4.666   6.699  0.4719  0.0081  0.4090
   10MOL0     H 1295   7.716   4.615   6.859 -0.2467 -0.6798 -0.0568
   10MOL0     H 1296   7.881   4.554   6.618 -3.9378 -1.9462 -0.4387
   10MOL0     H 1297   7.774   4.450   6.706 -1.8139  0.7266  1.7833
   10MOL0     H 1298   8.013   4.579   6.842 -1.6279  0.8544  1.4559
   10MOL0     H 1299   7.914   4.446   6.906  0.0868  0.1443  0.6842
   10MOL0     H 1300   8.145   4.382   6.794 -0.6586  0.6661  1.7700
   10MOL0     H 1301   8.050   4.378   6.643 -0.9649  0.7213  0.8361
   10MOL0     H 1302   7.641   5.188   6.598 -2.5436 -0.6582  0.4775
   10MOL0     H 1303   7.680   5.429   6.572  1.4819  2.0914 -1.8061
   10MOL0     H 1304   7.817   5.785   6.333  0.8083  0.5433 -1.2360
   10MOL0     H 1305   7.828   6.008   6.354  1.2383 -3.6561  1.5315
   10MOL0     H 1306   8.458   5.764   7.096  0.2141 -0.2822 -0.6787
   10MOL0     H 1307   8.622   5.726   6.897  1.2253 -0.9185 -0.7738
   10MOL0     H 1308   8.922   5.479   6.641  0.5094 -0.5784  0.1392
   10MOL0     H 1309   9.051   5.360   6.447  0.0717 -1.7881 -4.4857
   10MOL0     H 1310   9.017   5.194   6.077  0.3591 -0.7597  0.1351
   10MOL0     H 1311   8.842   5.242   6.103 -0.1922 -0.1789 -1.0543
   10MOL0     H 1312   8.822   5.105   6.309 -0.0628  1.6815  0.6296
   10MOL0     H 1313   8.840   5.008   6.162  5.1208 -2.1919 -1.5723
   10MOL0     H 1314   8.966   4.962   6.377 -0.2843  0.0073  0.6591
   10MOL0     H 1315   9.096   5.053   6.309 -0.8026  0.5688  1.2277
   10MOL0     H 1316   8.994   4.795   6.240 -0.5654  1.2595  1.1628
   10MOL0     H 1317   8.999   4.888   6.103  0.2655 -1.4295 -0.0807
   10MOL0     H 1318   9.417   4.795   6.181 -0.0643  0.1275 -0.6294
   10MOL0     H 1319   8.713   5.332   6.218  0.8875 -1.0171  0.5825
   10MOL0     H 1320   8.561   5.419   6.389  0.3477 -0.2713 -0.5012
   11MOL0     O 1321   2.141   9.568  10.103 -1.0216  0.0096  0.3460
   11MOL0     C 1322   2.052   9.473  10.107 -0.2409 -0.7308 -0.0310
   11MOL0     O 1323   1.967   9.451  10.209 -0.2023 -0.2541  0.0889
   11MOL0     C 1324   1.990   9.522  10.328 -1.1229 -1.1567 -0.0920
   11MOL0     C 1325   2.120   9.507  10.382  0.1829 -0.3305  0.4639
   11MOL0     C 1326   2.133   9.566  10.508 -0.4758  0.0055 -0.8299
   11MOL0     C 1327   2.038   9.650  10.569  0.6712  1.5499  0.7383
   11MOL0     O 1328   2.041   9.692  10.700  0.4401  0.3206 -0.0903
   11MOL0     C 1329   2.151   9.640  10.778 -0.5132 -0.4923 -1.2826
   11MOL0     C 1330   2.163   9.713  10.916  0.3985 -0.4879 -0.4336
   11MOL0     C 1331   2.295   9.683  10.984  0.1903  0.6435 -0.1349
   11MOL0     C 1332   2.322   9.536  11.000 -0.1665 -0.2569 -0.2870
   11MOL0     C 1333   2.206   9.468  11.090  1.3521  0.7000 -0.6057
   11MOL0     C 1334   2.209   9.316  11.098  0.0645  0.0388  0.0832
   11MOL0     C 1335   2.105   9.268  11.197 -0.5587  0.3780 -0.6357
   11MOL0     C 1336   2.110   9.114  11.224  0.2877  1.0174 -0.0886
   11MOL0     N 1337   2.040   9.024  11.124 -0.7202  0.5635 -0.4633
   11MOL0     C 1338   1.936   9.060  11.045  0.0513  0.3524  0.1103
   11MOL0     C 1339   1.906   8.949  10.982 -0.0284  0.2370 -0.2329
   11MOL0     C 1340   1.798   8.950  10.887 -0.4428  0.0794  0.3349
   11MOL0     C 1341   1.655   8.995  10.925  0.2290 -0.5325 -0.1247
   11MOL0     C 1342   1.586   8.902  11.024  0.0187  0.0927  0.6005
   11MOL0     C 1343   1.465   8.971  11.075 -0.6608  0.3568  0.4170
   11MOL0     O 1344   1.369   8.987  10.966 -0.0161 -0.4579 -0.3428
   11MOL0     C 1345   1.261   9.071  10.979 -0.0576 -0.1575  0.1539
   11MOL0     C 1346   1.177   9.096  10.872 -0.3632 -0.0733  0.3167
   11MOL0     C 1347   1.067   9.191  10.881 -0.4093  0.2255 -0.0117
   11MOL0     C 1348   1.058   9.264  11.000 -0.2931 -0.0258  0.0770
   11MOL0     C 1349   0.941   9.351  11.015 -0.6766  0.2200  0.0554
   11MOL0     O 1350   0.938   9.434  11.126  0.4130  0.5993 -0.2978
   11MOL0     C 1351   0.825   9.517  11.152  0.2456  0.8048  0.5624
   11MOL0     C 1352   0.822   9.561  11.288 -0.3965 -0.5399  0.9720
   11MOL0     C 1353   0.710   9.628  11.345 -0.2077  0.5079  0.0246
   11MOL0     C 1354   0.603   9.657  11.253 -0.0239 -0.6171 -0.2781
   11MOL0     O 1355   0.482   9.715  11.289 -0.7794 -0.5397  0.1014
   11MOL0     C 1356   0.449   9.744  11.432 -0.0065 -0.2062 -0.9706
   11MOL0     C 1357   0.312   9.815  11.456  0.6939  0.4530 -0.0617
   11MOL0     C 1358   0.196   9.711  11.482 -0.6869 -1.3601  0.2123
   11MOL0     C 1359   0.076   9.785  11.534 -0.0273 -0.2669  0.0328
   11MOL0     C 1360   0.083   9.843  11.680 -0.2653  1.3565 -0.3008
   11MOL0     C 1361  -0.048   9.828  11.761 -1.3229 -0.2541  0.7737
   11MOL0     C 1362  -0.167   9.916  11.707 -0.0278  0.2242  0.4241
   11MOL0     C 1363  -0.272   9.935  11.813  0.1368 -0.4127  0.0910
   11MOL0    Cl 1364  -0.215  10.039  11.943  0.1026  0.1013 -0.4075
   11MOL0     C 1365   0.602   9.616  11.118 -1.0413 -0.1013  0.1501
   11MOL0     C 1366   0.715   9.557  11.063  0.1688  0.2708  0.1616
   11MOL0     O 1367   0.843   9.341  10.939 -0.4566  0.1218  0.3220
   11MOL0     C 1368   1.154   9.243  11.107  0.4932  0.1258 -1.0885
   11MOL0     C 1369   1.243   9.137  11.106 -0.2352  0.3670  0.0910
   11MOL0     N 1370   1.992   8.850  11.018 -0.4672 -0.2096 -0.5536
   11MOL0     N 1371   2.065   8.899  11.111 -0.2126 -0.4262 -0.9951
   11MOL0     C 1372   1.931   9.681  10.496  0.0562 -0.0319 -0.3303
   11MOL0     C 1373   1.907   9.615  10.386  0.1504  0.7187  0.6909
   11MOL0     C 1374   2.043   9.385   9.991  0.1289  0.1844 -0.8594
   11MOL0     C 1375   2.132   9.376   9.887  0.0393  1.2419  0.1649
   11MOL0     C 1376   2.110   9.311   9.769  0.0019  0.2873 -0.6247
   11MOL0     C 1377   1.993   9.230   9.746 -0.4523  0.1980  0.1387
   11MOL0     O 1378   1.990   9.166   9.621 -0.1881  0.0089 -0.3031
   11MOL0     C 1379   1.873   9.095   9.582 -0.3095  0.8909  1.3307
   11MOL0     C 1380   1.877   8.953   9.634 -0.7578 -0.9387  0.3967
   11MOL0     C 1381   1.765   8.869   9.584  0.2230 -0.3548  0.1158
   11MOL0     C 1382   1.770   8.855   9.435 -1.1816 -1.3751  0.1887
   11MOL0     C 1383   1.692   8.748   9.376 -0.3417  0.9776  0.0949
   11MOL0     C 1384   1.620   8.671   9.324 -0.6243  0.5421 -0.1584
   11MOL0     C 1385   1.899   9.228   9.852  0.2969 -0.9672  0.1305
   11MOL0     C 1386   1.926   9.303   9.970 -0.1771 -1.5588  0.6087
   11MOL0     H 1387   2.187   9.433  10.341 -1.7074 -1.4360 -0.8095
   11MOL0     H 1388   2.226   9.527  10.548  0.3815  0.7920 -2.0079
   11MOL0     H 1389   2.251   9.656  10.737 -0.9521 -0.1710 -2.2368
   11MOL0     H 1390   2.131   9.534  10.798  0.3092 -0.8473 -2.2717
   11MOL0     H 1391   2.073   9.704  10.978  2.7261  0.9334  3.5784
   11MOL0     H 1392   2.174   9.817  10.883 -1.5391 -0.3807 -0.8212
   11MOL0     H 1393   2.293   9.733  11.081  0.0836  2.5804 -1.0914
   11MOL0     H 1394   2.377   9.716  10.919 -2.6131  0.2147 -4.2871
   11MOL0     H 1395   2.331   9.496  10.899  0.9953  2.0960 -1.1905
   11MOL0     H 1396   2.413   9.535  11.061  0.2339 -0.3652 -0.8758
   11MOL0     H 1397   2.108   9.496  11.049 -0.5510 -1.9191  1.7724
   11MOL0     H 1398   2.214   9.517  11.187 -1.3049  1.2031 -0.5778
   11MOL0     H 1399   2.313   9.286  11.112  0.6416 -0.8963 -4.5606
   11MOL0     H 1400   2.181   9.269  11.003  0.6144 -0.7730  0.3163
   11MOL0     H 1401   2.127   9.322  11.290  2.2867 -1.1483 -0.3123
   11MOL0     H 1402   2.007   9.300  11.160 -1.9001  0.0853  2.3432
   11MOL0     H 1403   2.051   9.095  11.314  1.0252 -4.9037 -0.4857
   11MOL0     H 1404   2.214   9.086  11.245  0.4396 -0.5474 -2.6318
   11MOL0     H 1405   1.886   9.156  11.034 -1.2105 -0.0584  1.7287
   11MOL0     H 1406   1.796   8.848  10.847 -0.7704  1.5743 -3.8939
   11MOL0     H 1407   1.832   9.007  10.800  1.6949  0.4102  1.3072
   11MOL0     H 1408   1.603   8.995  10.829  0.1635  2.0287 -0.1769
   11MOL0     H 1409   1.646   9.097  10.963 -1.5310 -0.1799 -1.3401
   11MOL0     H 1410   1.567   8.801  10.984 -3.5187  0.9940 -0.3592
   11MOL0     H 1411   1.649   8.883  11.111 -0.9468 -2.0310  0.9146
   11MOL0     H 1412   1.494   9.073  11.103  3.7099 -0.4837 -0.3870
   11MOL0     H 1413   1.421   8.915  11.158  0.4293 -0.3256  0.5507
   11MOL0     H 1414   1.187   9.040  10.780 -0.5665  1.7058 -0.8362
   11MOL0     H 1415   0.993   9.184  10.802 -0.3893 -1.3238  0.0661
   11MOL0     H 1416   0.903   9.538  11.356 -0.5414 -1.8702  0.7236
   11MOL0     H 1417   0.696   9.658  11.448 -3.0441 -1.8394  0.4271
   11MOL0     H 1418   0.523   9.811  11.478 -1.1901  0.4390  0.1044
   11MOL0     H 1419   0.451   9.651  11.490 -3.9651  2.5171  4.5125
   11MOL0     H 1420   0.296   9.887  11.375 -0.6417  1.0469  0.6989
   11MOL0     H 1421   0.319   9.876  11.547 -2.0489  1.9597 -0.7334
   11MOL0     H 1422   0.233   9.644  11.559  2.8464 -1.4257 -1.3685
   11MOL0     H 1423   0.165   9.649  11.397  1.4400 -1.3519 -0.6275
   11MOL0     H 1424   0.042   9.869  11.472  1.0785  1.4236  1.6185
   11MOL0     H 1425   0.003   9.705  11.517  2.8188 -3.1069  0.0910
   11MOL0     H 1426   0.125   9.944  11.678 -0.8722  1.6301  0.1660
   11MOL0     H 1427   0.147   9.777  11.740 -0.2256  1.0384 -0.6941
   11MOL0     H 1428  -0.014   9.866  11.857  4.0754 -0.5640 -0.6752
   11MOL0     H 1429  -0.063   9.720  11.772 -1.2527 -0.9199 -3.6203
   11MOL0     H 1430  -0.129  10.010  11.665 -0.4922  1.4194  2.5434
   11MOL0     H 1431  -0.212   9.863  11.622  1.5344  0.6758 -0.7453
   11MOL0     H 1432  -0.290   9.841  11.865  0.8959 -0.1514  0.8362
   11MOL0     H 1433  -0.370   9.964  11.774 -0.4465 -3.0288 -0.5849
   11MOL0     H 1434   0.516   9.643  11.058  0.0854  1.0197 -1.0253
   11MOL0     H 1435   0.721   9.538  10.956  3.2097 -3.7748  0.8045
   11MOL0     H 1436   1.152   9.307  11.194  0.4783  0.3432 -1.2484
   11MOL0     H 1437   1.312   9.142  11.189 -0.4433  1.6055  0.1996
   11MOL0     H 1438   1.863   9.756  10.535 -3.2206 -2.5766 -0.8248
   11MOL0     H 1439   1.819   9.635  10.326  2.5123 -1.7869 -4.2141
   11MOL0     H 1440   2.230   9.422   9.899  1.7268 -1.3719 -2.3345
   11MOL0     H 1441   2.185   9.319   9.691  1.0570 -0.7788  0.2426
   11MOL0     H 1442   1.860   9.083   9.474 -1.1298 -3.6800  1.7470
   11MOL0     H 1443   1.786   9.154   9.613 -0.2164  2.8865 -1.7411
   11MOL0     H 1444   1.967   8.904   9.597  0.1822 -0.3025  1.7875
   11MOL0     H 1445   1.883   8.960   9.743  0.7528  0.9695  0.2419
   11MOL0     H 1446   1.666   8.910   9.606  1.0036  1.0594  1.0918
   11MOL0     H 1447   1.778   8.771   9.632  0.8765 -0.4006 -0.1505
   11MOL0     H 1448   1.722   8.941   9.388 -1.2906 -0.9991  0.9757
   11MOL0     H 1449   1.875   8.839   9.407 -0.9304 -2.7471  1.7571
   11MOL0     H 1450   1.548   8.594   9.301  1.3978 -1.5419  0.0816
   11MOL0     H 1451   1.800   9.187   9.834 -0.0723  0.0858 -0.3536
   11MOL0     H 1452   1.842   9.314  10.038 -1.4125  0.3013 -1.0978
   12MOL0     O 1453   8.869   5.300   7.965  0.3492 -0.3525 -0.3480
   12MOL0     C 1454   8.769   5.337   8.018  0.6307 -0.2156 -1.1801
   12MOL0     O 1455   8.641   5.322   7.981  0.3438 -0.3448 -0.5533
   12MOL0     C 1456   8.619   5.262   7.864  0.9648  0.0161 -0.2762
   12MOL0     C 1457   8.548   5.343   7.766 -0.4188  0.5025 -0.0843
   12MOL0     C 1458   8.518   5.292   7.643  0.0292  0.0480  0.7854
   12MOL0     C 1459   8.561   5.156   7.611  0.2360 -0.3956  0.4628
   12MOL0     O 1460   8.524   5.119   7.483 -0.0438  0.6007 -0.2821
   12MOL0     C 1461   8.508   4.984   7.471 -0.1108  0.5883  1.1621
   12MOL0     C 1462   8.375   4.942   7.534 -0.9813 -0.3202  0.5638
   12MOL0     C 1463   8.316   4.822   7.473 -0.4355  0.3392  0.5757
   12MOL0     C 1464   8.414   4.708   7.464 -0.5617  0.6681  0.1022
   12MOL0     C 1465   8.467   4.656   7.600  0.1995 -0.3611 -0.3330
   12MOL0     C 1466   8.357   4.612   7.694  0.4165 -0.1089  0.2051
   12MOL0     C 1467   8.270   4.487   7.635  1.6579  1.0647  0.1855
   12MOL0     C 1468   8.180   4.437   7.749 -0.0188 -0.8191  0.0442
   12MOL0     N 1469   8.074   4.355   7.696  0.7053  0.1054  0.8429
   12MOL0     C 1470   8.107   4.252   7.612  0.8317 -0.3458 -0.1470
   12MOL0     C 1471   7.986   4.215   7.565 -0.2849  0.4328  0.8575
   12MOL0     C 1472   7.976   4.090   7.485  0.0893  0.5533 -0.1022
   12MOL0     C 1473   7.959   3.957   7.558 -0.8636  0.7260  0.3679
   12MOL0     C 1474   7.914   3.838   7.466 -0.5298 -0.0470  0.5493
   12MOL0     C 1475   7.768   3.846   7.420 -0.2499 -0.0089  0.1242
   12MOL0     O 1476   7.757   3.931   7.298  0.4579  0.2096  0.0086
   12MOL0     C 1477   7.785   3.882   7.178  1.2923  0.4058  0.8233
   12MOL0     C 1478   7.765   3.972   7.077 -0.0807 -0.6776  0.6021
   12MOL0     C 1479   7.781   3.938   6.939 -0.1293 -0.2472 -0.1955
   12MOL0     C 1480   7.796   3.802   6.909 -0.4885 -0.5651  0.4537
   12MOL0     C 1481   7.814   3.756   6.769  0.0129 -0.2462  0.9091
   12MOL0     O 1482   7.812   3.845   6.669 -0.4039  1.5128 -0.5648
   12MOL0     C 1483   7.811   3.807   6.535 -0.2039 -0.5091 -0.3834
   12MOL0     C 1484   7.704   3.830   6.453 -0.2918 -0.8774  0.8850
   12MOL0     C 1485   7.700   3.784   6.323  0.4381 -0.4564  0.1043
   12MOL0     C 1486   7.803   3.714   6.266  0.0134  0.1091  0.4084
   12MOL0     O 1487   7.780   3.671   6.135 -0.2869 -0.1437 -0.2203
   12MOL0     C 1488   7.889   3.614   6.068 -0.4569 -0.6186 -0.3036
   12MOL0     C 1489   7.869   3.661   5.925 -0.4513  0.0403  0.2948
   12MOL0     C 1490   7.962   3.591   5.827  1.1192 -0.1984  0.3290
   12MOL0     C 1491   7.899   3.606   5.686 -0.0800 -0.5328 -0.2089
   12MOL0     C 1492   7.971   3.531   5.580  0.9785  0.3006 -0.3304
   12MOL0     C 1493   8.123   3.561   5.568  0.5343  0.5376 -0.5617
   12MOL0     C 1494   8.169   3.469   5.452  0.1013  0.3239 -0.1049
   12MOL0     C 1495   8.326   3.474   5.448 -0.1710  0.0610  0.5709
   12MOL0    Cl 1496   8.409   3.446   5.597 -0.1757  0.6897 -0.1796
   12MOL0     C 1497   7.922   3.703   6.346  0.1562  0.7327 -0.1301
   12MOL0     C 1498   7.919   3.742   6.475  0.1509 -0.5004 -0.4680
   12MOL0     O 1499   7.827   3.639   6.756 -0.3200  0.1618 -0.0833
   12MOL0     C 1500   7.820   3.711   7.016  0.5638  0.2245 -0.0454
   12MOL0     C 1501   7.811   3.749   7.150 -0.5284  1.0387  0.6806
   12MOL0     N 1502   7.886   4.282   7.633 -1.4967 -0.0603 -0.4360
   12MOL0     N 1503   7.945   4.379   7.699 -0.4236 -0.2904 -0.9992
   12MOL0     C 1504   8.635   5.075   7.712  0.0640  0.7808  0.5197
   12MOL0     C 1505   8.663   5.130   7.839  0.5045  0.0321  0.1763
   12MOL0     C 1506   8.791   5.405   8.154  0.2508 -1.2092  0.1162
   12MOL0     C 1507   8.681   5.470   8.209 -0.6706 -0.1697  0.1932
   12MOL0     C 1508   8.693   5.541   8.330  0.1366  0.7562  0.2997
   12MOL0     C 1509   8.827   5.553   8.382  0.9520  0.0103 -0.9131
   12MOL0     O 1510   8.871   5.624   8.490  0.6028  0.6641  0.6239
   12MOL0     C 1511   8.776   5.688   8.576 -1.2569  0.0913 -0.1364
   12MOL0     C 1512   8.848   5.780   8.672 -0.8857 -0.7844 -0.4086
   12MOL0     C 1513   8.970   5.705   8.727  0.4480  0.4081 -0.2263
   12MOL0     C 1514   8.937   5.572   8.797 -0.3084 -0.1907 -0.4134
   12MOL0     C 1515   8.843   5.594   8.905 -0.0148  0.5640  0.5369
   12MOL0     C 1516   8.757   5.609   8.986 -0.9084 -0.4106 -1.1704
   12MOL0     C 1517   8.932   5.477   8.332 -0.3050  0.7592 -0.5702
   12MOL0     C 1518   8.909   5.402   8.219 -0.6699 -0.8876  0.7162
   12MOL0     H 1519   8.525   5.446   7.792  0.0947  0.6144 -0.0607
   12MOL0     H 1520   8.448   5.343   7.577  1.1240  0.3943 -0.1457
   12MOL0     H 1521   8.593   4.922   7.501 -0.9461 -1.5705 -0.6240
   12MOL0     H 1522   8.506   4.961   7.363 -0.8918  4.0344  0.3440
   12MOL0     H 1523   8.308   5.027   7.517 -2.7812 -1.6314  0.8141
   12MOL0     H 1524   8.380   4.940   7.644 -0.3565  3.1898  0.7264
   12MOL0     H 1525   8.283   4.855   7.373  2.1286 -5.5596 -2.7450
   12MOL0     H 1526   8.235   4.785   7.537 -0.0772 -0.1702  0.7418
   12MOL0     H 1527   8.371   4.624   7.408  2.8424 -1.1851  0.0247
   12MOL0     H 1528   8.501   4.743   7.408  1.2139 -3.1804  0.1485
   12MOL0     H 1529   8.520   4.733   7.657 -1.7719  0.9314 -0.1300
   12MOL0     H 1530   8.515   4.560   7.580  2.9273  0.9014 -0.2544
   12MOL0     H 1531   8.281   4.690   7.704  1.3868  1.0513 -1.1087
   12MOL0     H 1532   8.409   4.593   7.788  2.7052  0.0086 -0.9472
   12MOL0     H 1533   8.206   4.533   7.558 -2.6605 -0.3235  2.5927
   12MOL0     H 1534   8.340   4.413   7.594 -1.0546 -2.3474  1.1758
   12MOL0     H 1535   8.134   4.514   7.811  0.9978 -0.4762  0.3870
   12MOL0     H 1536   8.243   4.380   7.818 -0.9335 -1.2414  0.5407
   12MOL0     H 1537   8.204   4.219   7.576  1.2087  0.1566  0.3863
   12MOL0     H 1538   8.063   4.087   7.419 -2.1209 -1.2065 -3.2063
   12MOL0     H 1539   7.890   4.100   7.418  1.3962  0.5426 -1.8689
   12MOL0     H 1540   7.896   3.976   7.645  0.9514  3.7406  1.1719
   12MOL0     H 1541   8.060   3.943   7.598  0.8691  2.2434 -3.0519
   12MOL0     H 1542   7.980   3.822   7.380  0.1584 -1.9468  1.3645
   12MOL0     H 1543   7.920   3.746   7.525 -2.6401 -1.2570 -0.9902
   12MOL0     H 1544   7.717   3.891   7.506  1.3552 -1.2450  1.8108
   12MOL0     H 1545   7.730   3.747   7.396  1.6832 -0.6811 -0.3216
   12MOL0     H 1546   7.754   4.074   7.111  1.6131 -0.3696  0.3302
   12MOL0     H 1547   7.768   4.023   6.872  1.1228  2.4846  2.7790
   12MOL0     H 1548   7.623   3.884   6.500  0.1718 -0.9428  1.7636
   12MOL0     H 1549   7.616   3.792   6.255  1.2669 -1.1460 -1.0362
   12MOL0     H 1550   7.879   3.506   6.081  3.2044 -0.9524  1.1660
   12MOL0     H 1551   7.991   3.641   6.100 -0.7280  0.4723 -0.3170
   12MOL0     H 1552   7.909   3.763   5.922 -0.0926 -0.1271 -1.7428
   12MOL0     H 1553   7.764   3.644   5.898 -0.8655 -1.0045  2.3248
   12MOL0     H 1554   7.985   3.486   5.845 -1.3056 -0.9736 -0.6455
   12MOL0     H 1555   8.051   3.655   5.827  0.3508  0.9103 -0.1647
   12MOL0     H 1556   7.803   3.553   5.695  1.6598 -3.5101  3.9410
   12MOL0     H 1557   7.889   3.711   5.660 -2.3607 -0.7695 -0.4936
   12MOL0     H 1558   7.921   3.562   5.488 -0.3178 -3.3969 -1.0043
   12MOL0     H 1559   7.944   3.427   5.597 -0.2331  0.8998  1.9018
   12MOL0     H 1560   8.164   3.524   5.663  0.3737 -0.8878 -1.0237
   12MOL0     H 1561   8.130   3.669   5.551 -1.6685  0.8852  0.3640
   12MOL0     H 1562   8.147   3.363   5.468  2.0456 -0.2417 -0.8006
   12MOL0     H 1563   8.131   3.493   5.353 -1.8160 -1.1461  0.2242
   12MOL0     H 1564   8.365   3.573   5.421 -0.3633  0.6395  2.2433
   12MOL0     H 1565   8.377   3.411   5.375  2.2916  1.4340  0.9837
   12MOL0     H 1566   8.004   3.642   6.309 -0.0283 -0.1011  0.7945
   12MOL0     H 1567   8.003   3.709   6.536 -1.5402 -3.9418  0.2624
   12MOL0     H 1568   7.830   3.605   6.996 -1.9444 -0.2373  0.7072
   12MOL0     H 1569   7.843   3.683   7.230 -0.3056  2.6272  1.9437
   12MOL0     H 1570   8.654   4.968   7.704 -0.1933  0.6561  1.4577
   12MOL0     H 1571   8.722   5.069   7.907  2.2409  0.6303 -0.7201
   12MOL0     H 1572   8.587   5.469   8.154  0.0509  4.7382 -1.5744
   12MOL0     H 1573   8.613   5.599   8.376 -0.6338  1.1417 -1.4312
   12MOL0     H 1574   8.725   5.616   8.641  0.5928 -2.8419 -1.7105
   12MOL0     H 1575   8.694   5.738   8.525 -0.3475  0.2619 -1.4825
   12MOL0     H 1576   8.876   5.871   8.617 -4.3065  0.3284 -0.6162
   12MOL0     H 1577   8.768   5.807   8.743 -5.3395 -2.4085 -4.2671
   12MOL0     H 1578   9.010   5.764   8.810 -0.1825 -0.1805  0.5198
   12MOL0     H 1579   9.049   5.700   8.652  1.4037 -0.1682  0.7853
   12MOL0     H 1580   8.908   5.490   8.730  1.2503 -0.7027 -0.4892
   12MOL0     H 1581   9.031   5.548   8.847  0.3705 -0.5015 -1.8189
   12MOL0     H 1582   8.672   5.614   9.051 -0.8650  0.1094 -1.1430
   12MOL0     H 1583   9.025   5.472   8.388 -0.9384  3.2170  0.8625
   12MOL0     H 1584   8.991   5.367   8.157 -1.1853 -1.6118  0.4250
   13MOL0     O 1585   0.977  10.291   6.777 -0.7826 -0.7857 -0.8627
   13MOL0     C 1586   1.018  10.340   6.672 -0.1318  0.3074 -0.4227
   13MOL0     O 1587   0.930  10.386   6.585  0.0538  0.3792  0.5844
   13MOL0     C 1588   0.798  10.406   6.610 -0.5031 -0.1678  0.0555
   13MOL0     C 1589   0.750  10.504   6.688  0.6736 -0.4769  0.4764
   13MOL0     C 1590   0.611  10.520   6.713  0.2575 -0.3768  0.2004
   13MOL0     C 1591   0.520  10.434   6.648 -0.4407  0.3528 -0.9863
   13MOL0     O 1592   0.384  10.436   6.678  1.2155 -0.5862  0.1581
   13MOL0     C 1593   0.330  10.541   6.755  0.8236  0.7190 -0.2476
   13MOL0     C 1594   0.181  10.524   6.773  0.0139 -0.0742  0.5543
   13MOL0     C 1595   0.089  10.565   6.654  1.2170 -0.4603  0.5640
   13MOL0     C 1596   0.041  10.458   6.547 -0.6054  0.6915  1.2262
   13MOL0     C 1597   0.133  10.432   6.432  0.7648 -0.3914  0.8193
   13MOL0     C 1598   0.116  10.290   6.360 -0.3833 -0.4977  0.2155
   13MOL0     C 1599   0.216  10.264   6.245 -0.5026 -0.2785  0.3734
   13MOL0     C 1600   0.360  10.242   6.287  0.1249 -0.7873 -0.8847
   13MOL0     N 1601   0.453  10.200   6.180  0.4157  0.0234 -0.3570
   13MOL0     C 1602   0.496  10.269   6.069 -0.1699 -0.9507 -0.4346
   13MOL0     C 1603   0.607  10.196   6.041  0.1069  1.2548 -0.4586
   13MOL0     C 1604   0.698  10.256   5.945  0.5662  0.4021  0.5272
   13MOL0     C 1605   0.638  10.257   5.806  0.3824 -1.0480 -0.7129
   13MOL0     C 1606   0.757  10.276   5.715 -0.4841 -0.3691  1.6473
   13MOL0     C 1607   0.723  10.278   5.562 -0.0035  0.7494 -0.1617
   13MOL0     O 1608   0.634  10.172   5.530 -0.2177 -0.3367  0.0779
   13MOL0     C 1609   0.601  10.162   5.401 -0.6357  0.1266  0.4042
   13MOL0     C 1610   0.649  10.239   5.286  0.7204  0.3130  0.1211
   13MOL0     C 1611   0.587  10.231   5.156 -0.1416  0.2139 -0.5932
   13MOL0     C 1612   0.494  10.131   5.123  0.5073 -0.1281  0.6790
   13MOL0     C 1613   0.440  10.090   4.990  0.8439 -0.6836 -0.8976
   13MOL0     O 1614   0.468  10.170   4.885  0.0151  0.2727 -0.3055
   13MOL0     C 1615   0.435  10.119   4.761 -0.2903  0.6662  0.0411
   13MOL0     C 1616   0.323  10.155   4.688 -0.5231 -0.1917 -0.4456
   13MOL0     C 1617   0.297  10.095   4.559 -0.4620  0.1812 -0.2310
   13MOL0     C 1618   0.380  10.010   4.500 -0.1636  0.5273  0.1601
   13MOL0     O 1619   0.348   9.979   4.372 -0.2302 -0.1454 -0.3413
   13MOL0     C 1620   0.397   9.862   4.314 -0.5370  0.0114  0.7305
   13MOL0     C 1621   0.329   9.852   4.182  0.6023 -0.2985  0.3452
   13MOL0     C 1622   0.408   9.942   4.077  0.4106 -0.4961 -1.4548
   13MOL0     C 1623   0.326   9.957   3.951  0.6633 -1.1570  0.6637
   13MOL0     C 1624   0.338   9.847   3.855 -0.3649  0.9484  1.2717
   13MOL0     C 1625   0.241   9.849   3.733 -0.0955  0.5698  0.2166
   13MOL0     C 1626   0.283   9.767   3.608  0.1385 -0.2228  0.9154
   13MOL0     C 1627   0.402   9.834   3.533 -0.1233 -0.5038  0.2207
   13MOL0    Cl 1628   0.358   9.989   3.454 -0.3862  0.0253  0.2006
   13MOL0     C 1629   0.483   9.959   4.580 -0.5221  0.5477  0.4051
   13MOL0     C 1630   0.505  10.013   4.707 -0.1874 -1.0738 -0.4676
   13MOL0     O 1631   0.382   9.981   4.986 -0.7077  0.0848 -0.2305
   13MOL0     C 1632   0.456  10.049   5.235 -0.1142 -0.2160  0.1363
   13MOL0     C 1633   0.503  10.060   5.366  0.0353 -0.4174 -1.0041
   13MOL0     N 1634   0.630  10.088   6.128  0.2909  0.0063 -0.0483
   13MOL0     N 1635   0.532  10.089   6.206 -0.6418 -0.2228  0.0972
   13MOL0     C 1636   0.571  10.346   6.553 -0.1818  0.8118 -0.6165
   13MOL0     C 1637   0.716  10.326   6.543 -0.4955 -0.1418 -0.3630
   13MOL0     C 1638   1.157  10.330   6.638 -0.6073  0.6498  0.1836
   13MOL0     C 1639   1.220  10.387   6.527  0.9229  1.0252  0.1190
   13MOL0     C 1640   1.351  10.367   6.492  0.9653  0.8801  0.2716
   13MOL0     C 1641   1.428  10.282   6.572 -0.5846 -0.8497  0.2966
   13MOL0     O 1642   1.563  10.263   6.560 -0.5871  0.1779 -0.2532
   13MOL0     C 1643   1.624  10.334   6.448 -0.1015  0.8962 -0.2953
   13MOL0     C 1644   1.776  10.316   6.465 -0.1781  0.4191 -0.5850
   13MOL0     C 1645   1.812  10.170   6.445 -0.2047 -1.2778  0.5331
   13MOL0     C 1646   1.957  10.175   6.395  0.4393  0.9757 -0.1543
   13MOL0     C 1647   2.059  10.234   6.478  0.2885 -0.4798  0.7635
   13MOL0     C 1648   2.144  10.278   6.546  1.1008 -0.7362  0.3767
   13MOL0     C 1649   1.371  10.221   6.686 -0.0335  0.8598  0.0914
   13MOL0     C 1650   1.239  10.238   6.713  0.4201  0.0299  0.6978
   13MOL0     H 1651   0.816  10.566   6.747  1.3301 -2.2870  1.7433
   13MOL0     H 1652   0.582  10.602   6.778  2.4789  1.1515 -0.5786
   13MOL0     H 1653   0.360  10.638   6.715  0.6659  0.1680 -1.7861
   13MOL0     H 1654   0.381  10.541   6.852  0.9846  3.6545 -0.2567
   13MOL0     H 1655   0.146  10.586   6.856 -1.2659 -0.6621  0.4772
   13MOL0     H 1656   0.158  10.420   6.794 -3.1316  0.3009 -0.5068
   13MOL0     H 1657   0.121  10.662   6.615  0.6380 -0.0926  0.9870
   13MOL0     H 1658  -0.002  10.599   6.704  2.7642 -0.8402  3.9664
   13MOL0     H 1659   0.043  10.359   6.594 -1.3924  0.3918  0.6583
   13MOL0     H 1660  -0.059  10.481   6.509 -0.0884  1.8659  0.5139
   13MOL0     H 1661   0.239  10.439   6.457  1.2840  0.6500 -1.3846
   13MOL0     H 1662   0.110  10.510   6.358 -1.1814  0.7449  2.5212
   13MOL0     H 1663   0.016  10.270   6.319  0.2138  0.9923 -2.1390
   13MOL0     H 1664   0.134  10.212   6.435 -0.9532  0.0059  0.9029
   13MOL0     H 1665   0.199  10.169   6.194  0.9454 -2.3958  3.5310
   13MOL0     H 1666   0.206  10.343   6.170 -0.4441 -3.5761 -3.3935
   13MOL0     H 1667   0.362  10.166   6.366 -1.0348  1.8408  1.8879
   13MOL0     H 1668   0.392  10.332   6.339 -1.3151 -0.1311 -1.0684
   13MOL0     H 1669   0.455  10.361   6.029  3.7373  0.3619 -1.9119
   13MOL0     H 1670   0.789  10.196   5.944 -0.0262 -0.7485 -3.3527
   13MOL0     H 1671   0.728  10.358   5.971 -0.9046  1.4294 -1.4546
   13MOL0     H 1672   0.574  10.346   5.803  1.7746  0.3872  3.5476
   13MOL0     H 1673   0.583  10.166   5.780 -0.1670 -0.0915 -3.1082
   13MOL0     H 1674   0.816  10.366   5.732 -2.6442  0.8829  3.0353
   13MOL0     H 1675   0.837  10.204   5.735  0.8150  1.1022  1.9423
   13MOL0     H 1676   0.824  10.269   5.521  0.7548  0.7657  1.6435
   13MOL0     H 1677   0.684  10.377   5.534 -0.3158  1.1135  1.4425
   13MOL0     H 1678   0.728  10.313   5.287  2.2023 -1.1495 -1.6017
   13MOL0     H 1679   0.624  10.302   5.083  3.2196  2.5746  3.0348
   13MOL0     H 1680   0.246  10.220   4.730 -1.9755 -1.2699 -1.3450
   13MOL0     H 1681   0.228  10.142   4.490  0.0611 -1.5178 -2.0107
   13MOL0     H 1682   0.374   9.775   4.377 -2.5509  1.7448  2.5130
   13MOL0     H 1683   0.506   9.868   4.305 -0.3874 -1.0301  1.6060
   13MOL0     H 1684   0.222   9.874   4.177  0.4816 -0.6245  1.2016
   13MOL0     H 1685   0.344   9.745   4.160 -0.0951 -0.8636  2.3397
   13MOL0     H 1686   0.507   9.902   4.055  2.9973  2.5381  3.1296
   13MOL0     H 1687   0.428  10.042   4.115  1.8397 -1.9950  2.2368
   13MOL0     H 1688   0.221   9.959   3.984  1.2186 -0.9641  2.5594
   13MOL0     H 1689   0.334  10.057   3.907 -2.1384 -0.4674  1.5032
   13MOL0     H 1690   0.340   9.748   3.901 -0.4770  1.3408  2.1435
   13MOL0     H 1691   0.435   9.845   3.805 -0.3080  0.2922  1.4028
   13MOL0     H 1692   0.220   9.951   3.699  1.2988  0.5310 -0.8409
   13MOL0     H 1693   0.149   9.802   3.767  0.3648  0.7895  1.8451
   13MOL0     H 1694   0.304   9.666   3.644 -1.0325 -0.6681  0.3787
   13MOL0     H 1695   0.203   9.755   3.535  1.5290  1.1040 -0.9061
   13MOL0     H 1696   0.440   9.764   3.458 -0.7704  0.1638 -0.7528
   13MOL0     H 1697   0.482   9.847   3.607 -0.9884 -1.6859  1.4145
   13MOL0     H 1698   0.561   9.888   4.553  0.6341  1.1873  1.9069
   13MOL0     H 1699   0.573   9.956   4.770 -0.0051 -0.9786 -0.5783
   13MOL0     H 1700   0.376   9.979   5.212 -1.4053  1.7911 -1.9856
   13MOL0     H 1701   0.464   9.990   5.439 -2.4017 -0.1759 -1.9657
   13MOL0     H 1702   0.505  10.283   6.494  2.6540  0.1726 -3.4299
   13MOL0     H 1703   0.758  10.259   6.469 -1.5086  0.9457 -1.9871
   13MOL0     H 1704   1.170  10.461   6.466  2.2963  2.0014  0.1417
   13MOL0     H 1705   1.394  10.421   6.408 -0.9870  0.4673 -1.0617
   13MOL0     H 1706   1.605  10.441   6.461  0.1255  1.0225 -0.9258
   13MOL0     H 1707   1.591  10.297   6.351 -0.4098 -0.5899  0.3569
   13MOL0     H 1708   1.821  10.377   6.385  0.3233  1.1797  0.2557
   13MOL0     H 1709   1.815  10.340   6.564  3.5632 -2.0020 -1.2434
   13MOL0     H 1710   1.749  10.120   6.371 -1.3529  1.6623 -0.6215
   13MOL0     H 1711   1.820  10.121   6.542  0.4652 -0.1835  1.0537
   13MOL0     H 1712   2.000  10.076   6.376 -1.4185 -0.0562  0.7214
   13MOL0     H 1713   1.966  10.233   6.303  2.0408 -1.4390 -1.6221
   13MOL0     H 1714   2.222  10.333   6.595  1.1650  0.6008 -1.1460
   13MOL0     H 1715   1.420  10.148   6.750 -1.4913 -2.0130 -1.8447
   13MOL0     H 1716   1.194  10.184   6.795 -2.8185 -2.3577 -2.3144
   14MOL0     O 1717   6.111   7.868   4.303  0.0666  0.3522 -0.5736
   14MOL0     C 1718   6.081   7.888   4.184 -0.2344 -0.6512  0.8737
   14MOL0     O 1719   6.019   7.992   4.129 -0.6165  0.1260  0.2187
   14MOL0     C 1720   5.986   8.095   4.211 -0.2132 -0.2717 -0.7022
   14MOL0     C 1721   6.058   8.146   4.315 -0.3292 -0.4680 -0.2067
   14MOL0     C 1722   6.016   8.260   4.387  0.3659 -0.0934 -0.8025
   14MOL0     C 1723   5.895   8.318   4.369  0.0678 -0.6840 -0.2485
   14MOL0     O 1724   5.858   8.418   4.465 -0.3581  0.3916 -0.3761
   14MOL0     C 1725   5.747   8.385   4.550 -0.2339  0.3872  0.1769
   14MOL0     C 1726   5.738   8.488   4.655  0.8129 -0.7162 -0.8893
   14MOL0     C 1727   5.608   8.452   4.738 -0.3710  0.2848 -0.0965
   14MOL0     C 1728   5.587   8.560   4.851  1.1992  0.6708 -0.4881
   14MOL0     C 1729   5.592   8.486   4.982  0.7049 -0.2311  0.1657
   14MOL0     C 1730   5.608   8.589   5.089  0.4576  0.9807  0.7101
   14MOL0     C 1731   5.581   8.526   5.231 -0.7982 -0.0333 -0.1275
   14MOL0     C 1732   5.569   8.624   5.346  0.6586  0.0642 -0.2782
   14MOL0     N 1733   5.467   8.726   5.333  0.0740 -0.1018  1.1990
   14MOL0     C 1734   5.348   8.710   5.270  0.3311  0.2446 -0.2351
   14MOL0     C 1735   5.291   8.828   5.270  0.0692 -0.7935 -0.2903
   14MOL0     C 1736   5.159   8.862   5.212 -0.1958  0.4074  0.2711
   14MOL0     C 1737   5.151   8.832   5.061 -0.4167 -0.0424  1.7816
   14MOL0     C 1738   5.267   8.875   4.971  0.8838  0.3889 -0.0504
   14MOL0     C 1739   5.325   9.009   5.007  0.5645  0.5680 -0.3895
   14MOL0     O 1740   5.431   9.026   4.911 -0.5839  0.1134 -0.2129
   14MOL0     C 1741   5.558   8.991   4.941 -0.8891  0.4854 -0.5104
   14MOL0     C 1742   5.600   8.955   5.068 -0.1159  0.9493  0.2666
   14MOL0     C 1743   5.732   8.921   5.084 -0.6763  1.0394  0.7245
   14MOL0     C 1744   5.822   8.903   4.974  0.4775 -0.9724  0.1581
   14MOL0     C 1745   5.967   8.872   4.994 -0.5365 -0.1878 -0.1518
   14MOL0     O 1746   6.018   8.842   5.120 -0.5855  0.7292  0.0991
   14MOL0     C 1747   6.157   8.804   5.122  0.5321  0.1221 -0.3136
   14MOL0     C 1748   6.229   8.715   5.034  0.3556  0.7762  0.4941
   14MOL0     C 1749   6.367   8.699   5.040 -0.3377  0.8643  0.0554
   14MOL0     C 1750   6.436   8.770   5.144  0.4648 -0.5465  0.1587
   14MOL0     O 1751   6.569   8.758   5.142 -0.0185 -0.9009 -0.5953
   14MOL0     C 1752   6.638   8.869   5.091  1.3124 -0.3825  0.3088
   14MOL0     C 1753   6.759   8.911   5.170  0.4174 -0.2740  0.2429
   14MOL0     C 1754   6.870   8.803   5.163  0.4020 -0.6756 -0.1486
   14MOL0     C 1755   7.000   8.872   5.204 -0.1880  0.1187 -0.4171
   14MOL0     C 1756   7.128   8.821   5.141  0.9255  0.5625  0.1770
   14MOL0     C 1757   7.252   8.878   5.206  0.3046  0.0663 -1.1760
   14MOL0     C 1758   7.390   8.886   5.138  0.3308  0.3893  0.7415
   14MOL0     C 1759   7.503   8.938   5.228 -0.6480  0.0461 -0.5039
   14MOL0    Cl 1760   7.649   8.854   5.198  0.0306  0.2964 -0.4590
   14MOL0     C 1761   6.363   8.842   5.237 -0.9773  0.3167 -0.6264
   14MOL0     C 1762   6.228   8.854   5.227 -0.0730 -0.4701 -0.0777
   14MOL0     O 1763   6.026   8.880   4.888  0.1306  0.1489  0.3821
   14MOL0     C 1764   5.774   8.943   4.852  0.3132 -1.0731  0.6641
   14MOL0     C 1765   5.646   8.983   4.832  0.7495 -0.2894  0.7958
   14MOL0     N 1766   5.366   8.915   5.339 -0.2754 -1.1029 -0.6711
   14MOL0     N 1767   5.454   8.850   5.391 -0.0002  1.0065  0.1609
   14MOL0     C 1768   5.809   8.260   4.281 -0.3747  0.8126 -0.8190
   14MOL0     C 1769   5.858   8.147   4.195  0.1024 -0.8714  0.7956
   14MOL0     C 1770   6.142   7.791   4.091 -0.4569 -0.6715 -0.0266
   14MOL0     C 1771   6.192   7.667   4.135  0.0571 -0.0041 -0.2902
   14MOL0     C 1772   6.246   7.577   4.045  0.2539 -0.3144 -0.6504
   14MOL0     C 1773   6.262   7.604   3.911 -0.1858  0.5704  0.1866
   14MOL0     O 1774   6.310   7.518   3.820  0.5198  0.1774 -0.3556
   14MOL0     C 1775   6.428   7.442   3.851  0.0314  0.1953  0.5782
   14MOL0     C 1776   6.472   7.366   3.724  0.7998 -0.5390 -0.4473
   14MOL0     C 1777   6.586   7.271   3.757 -0.1263 -0.0923 -0.2714
   14MOL0     C 1778   6.597   7.156   3.648 -0.6610 -0.1603  0.2513
   14MOL0     C 1779   6.736   7.123   3.611  0.9448 -0.3038  0.1083
   14MOL0     C 1780   6.852   7.097   3.595  0.1565  0.0372  1.4503
   14MOL0     C 1781   6.220   7.720   3.861 -0.6616  0.1909  0.2558
   14MOL0     C 1782   6.159   7.806   3.944 -0.0789 -0.2319 -0.2083
   14MOL0     H 1783   6.153   8.106   4.349 -0.0810  0.8986  0.8139
   14MOL0     H 1784   6.066   8.300   4.475 -1.1450  0.8896 -0.3505
   14MOL0     H 1785   5.761   8.286   4.596  0.9613  0.4724  0.0423
   14MOL0     H 1786   5.652   8.394   4.497 -1.1333  1.1980  1.8342
   14MOL0     H 1787   5.721   8.592   4.623 -1.9587 -0.8403 -0.1385
   14MOL0     H 1788   5.823   8.479   4.723 -0.2243  1.3281  0.7925
   14MOL0     H 1789   5.615   8.353   4.785  0.1379 -0.2293 -1.2252
   14MOL0     H 1790   5.525   8.458   4.667 -1.3565  0.7367  1.0485
   14MOL0     H 1791   5.668   8.633   4.847  1.7300  0.2032  0.9824
   14MOL0     H 1792   5.490   8.609   4.848  0.5920 -0.5062 -0.8919
   14MOL0     H 1793   5.672   8.412   4.988 -0.2377 -1.6520 -2.8081
   14MOL0     H 1794   5.500   8.426   4.986  2.2670 -2.7603  0.9869
   14MOL0     H 1795   5.541   8.674   5.074 -1.9558 -0.4830  2.4261
   14MOL0     H 1796   5.712   8.624   5.085  0.4503  1.0615 -3.7418
   14MOL0     H 1797   5.481   8.481   5.227 -1.2357  0.9834 -1.1381
   14MOL0     H 1798   5.665   8.459   5.251  1.0841  2.1770 -0.3328
   14MOL0     H 1799   5.665   8.673   5.365  1.7252 -1.8109 -0.4857
   14MOL0     H 1800   5.551   8.552   5.427  0.3762 -1.9681 -2.0367
   14MOL0     H 1801   5.321   8.613   5.230  0.0848  1.0725 -2.2333
   14MOL0     H 1802   5.138   8.966   5.240 -0.8313  0.4964 -0.4969
   14MOL0     H 1803   5.081   8.804   5.263  0.9175  0.7198  2.4369
   14MOL0     H 1804   5.053   8.866   5.027 -0.5637  0.1099  2.3427
   14MOL0     H 1805   5.144   8.726   5.039 -2.6528  0.1139  1.5533
   14MOL0     H 1806   5.346   8.800   4.975  1.0171  0.5559  0.5238
   14MOL0     H 1807   5.233   8.870   4.867  1.2656 -0.9560 -0.1273
   14MOL0     H 1808   5.348   9.021   5.113 -3.0225  1.9765  0.3868
   14MOL0     H 1809   5.250   9.087   4.995 -0.3871 -0.3157 -0.3588
   14MOL0     H 1810   5.529   8.953   5.150 -0.1804  1.8459  0.2417
   14MOL0     H 1811   5.768   8.886   5.180 -0.3311 -0.2410  0.1461
   14MOL0     H 1812   6.189   8.647   4.959  1.6145 -0.0702  0.5686
   14MOL0     H 1813   6.423   8.646   4.964 -1.0414  2.2468 -1.4850
   14MOL0     H 1814   6.576   8.959   5.087  0.2599 -1.1207 -0.7183
   14MOL0     H 1815   6.650   8.850   4.984 -0.9123 -3.9771  0.5115
   14MOL0     H 1816   6.718   8.908   5.272 -1.0240 -2.9740 -0.3224
   14MOL0     H 1817   6.785   9.010   5.133  0.9168  0.9875  3.6201
   14MOL0     H 1818   6.881   8.764   5.062 -2.9525 -0.8558 -0.5694
   14MOL0     H 1819   6.845   8.720   5.230  0.7434 -1.9196 -1.5134
   14MOL0     H 1820   6.991   8.981   5.206  0.1554  0.1462 -0.0079
   14MOL0     H 1821   7.008   8.859   5.313  1.2131  2.2680 -0.1956
   14MOL0     H 1822   7.135   8.852   5.036  1.6053 -2.5842 -0.8068
   14MOL0     H 1823   7.121   8.712   5.137 -2.5208  0.7319 -2.5889
   14MOL0     H 1824   7.263   8.845   5.309 -0.4366  0.8323 -0.8359
   14MOL0     H 1825   7.227   8.984   5.218  2.9550  0.5872  0.6596
   14MOL0     H 1826   7.428   8.793   5.096  1.5425 -0.0755  2.7057
   14MOL0     H 1827   7.377   8.952   5.052 -4.8139  0.0671  0.9556
   14MOL0     H 1828   7.471   8.934   5.332 -1.4447 -0.4119 -0.7550
   14MOL0     H 1829   7.521   9.045   5.215  2.4475 -0.5010 -1.6019
   14MOL0     H 1830   6.413   8.893   5.319 -3.5867 -0.4205  1.5476
   14MOL0     H 1831   6.166   8.917   5.290 -1.8685  2.4725 -4.2780
   14MOL0     H 1832   5.841   8.952   4.767 -0.2398 -4.7903 -0.3265
   14MOL0     H 1833   5.605   8.994   4.732  1.2981  1.4892  0.7387
   14MOL0     H 1834   5.707   8.296   4.272 -1.0494 -0.7778  0.0389
   14MOL0     H 1835   5.799   8.097   4.119 -0.8569 -1.8960  2.1580
   14MOL0     H 1836   6.199   7.660   4.243  0.0090  4.1784  0.1569
   14MOL0     H 1837   6.276   7.483   4.090  1.4171 -1.6528 -3.8934
   14MOL0     H 1838   6.401   7.372   3.931  0.0360  1.2348  1.5183
   14MOL0     H 1839   6.508   7.507   3.889  1.0034 -1.5827  1.7404
   14MOL0     H 1840   6.384   7.307   3.695  0.5572 -0.6679  0.5026
   14MOL0     H 1841   6.497   7.439   3.647  1.7372 -0.4287 -0.0557
   14MOL0     H 1842   6.560   7.228   3.854 -2.2565  0.8537 -0.3545
   14MOL0     H 1843   6.677   7.330   3.766 -0.0641 -0.2084 -0.1380
   14MOL0     H 1844   6.542   7.064   3.671 -1.6451 -0.1439 -1.7522
   14MOL0     H 1845   6.556   7.184   3.550  1.5413  1.0669 -0.3753
   14MOL0     H 1846   6.955   7.082   3.568 -0.7281 -0.8358 -1.9891
   14MOL0     H 1847   6.242   7.738   3.756  4.1309 -2.6028  0.4755
   14MOL0     H 1848   6.121   7.894   3.891  2.3873  1.8632  1.2743
   15MOL0     O 1849   8.649   4.402   0.454 -0.0068 -1.1175 -0.1459
   15MOL0     C 1850   8.703   4.328   0.378 -0.2568 -0.7289  0.7899
   15MOL0     O 1851   8.648   4.265   0.283 -0.2809  0.4956  0.0477
   15MOL0     C 1852   8.513   4.280   0.254 -0.2776 -0.1021 -0.5233
   15MOL0     C 1853   8.430   4.169   0.235 -1.0541 -1.2439  0.1190
   15MOL0     C 1854   8.292   4.185   0.224 -0.5047 -0.1125 -0.7244
   15MOL0     C 1855   8.238   4.315   0.210 -0.4787 -0.1228  0.0492
   15MOL0     O 1856   8.099   4.335   0.203 -0.7626  0.0868 -0.0402
   15MOL0     C 1857   8.024   4.310   0.325 -0.7590 -0.0575 -0.2756
   15MOL0     C 1858   8.070   4.419   0.433  1.3593 -0.4624  0.3908
   15MOL0     C 1859   7.971   4.412   0.553  0.2899 -0.7375 -0.7664
   15MOL0     C 1860   7.988   4.538   0.645  0.4089 -0.3805  0.0195
   15MOL0     C 1861   7.935   4.502   0.789  0.4211  0.2082 -0.2717
   15MOL0     C 1862   7.780   4.476   0.796  0.0693 -0.4479  0.8268
   15MOL0     C 1863   7.752   4.403   0.926 -0.4166  0.1610  1.7062
   15MOL0     C 1864   7.774   4.486   1.053 -0.2484 -0.4099 -0.2379
   15MOL0     N 1865   7.752   4.397   1.167  0.4348  0.1716 -0.2769
   15MOL0     C 1866   7.629   4.406   1.230 -0.2563 -0.4903 -0.0305
   15MOL0     C 1867   7.639   4.339   1.354 -1.0320  0.3229 -0.8718
   15MOL0     C 1868   7.546   4.328   1.467 -0.5502  0.9096 -0.3575
   15MOL0     C 1869   7.612   4.271   1.598 -0.7018 -0.0646 -0.4640
   15MOL0     C 1870   7.524   4.330   1.716  0.1486 -0.3423 -0.1870
   15MOL0     C 1871   7.555   4.250   1.841  0.1098  0.2624 -0.6811
   15MOL0     O 1872   7.517   4.325   1.958 -0.1124 -1.0282 -0.1440
   15MOL0     C 1873   7.506   4.252   2.076 -0.4108  0.0836  0.1168
   15MOL0     C 1874   7.443   4.308   2.191 -1.1834 -0.0987  0.3338
   15MOL0     C 1875   7.426   4.232   2.307 -0.7947  0.2827 -0.1362
   15MOL0     C 1876   7.496   4.102   2.327 -0.2280 -0.1437  0.3317
   15MOL0     C 1877   7.479   4.035   2.450  0.1260  0.1484  0.2326
   15MOL0     O 1878   7.452   4.108   2.559  1.1332 -0.1456 -0.0072
   15MOL0     C 1879   7.399   4.062   2.675 -0.9003  0.1325  0.0183
   15MOL0     C 1880   7.285   3.981   2.683 -0.3739 -0.3409  0.0707
   15MOL0     C 1881   7.211   3.967   2.801  1.0151  0.1327 -1.1098
   15MOL0     C 1882   7.235   4.039   2.916 -0.8159  0.4816  0.2547
   15MOL0     O 1883   7.151   4.054   3.034 -0.3926 -0.3039 -0.1157
   15MOL0     C 1884   7.052   3.957   3.069  1.0014 -0.5016 -0.4701
   15MOL0     C 1885   6.973   4.021   3.180 -0.7238 -0.5257 -0.1495
   15MOL0     C 1886   6.867   3.944   3.259 -0.2357  0.4376  0.9410
   15MOL0     C 1887   6.815   4.024   3.381  0.0426 -0.1793  0.4834
   15MOL0     C 1888   6.679   3.971   3.419 -0.1418  0.1729  0.7870
   15MOL0     C 1889   6.623   4.034   3.544 -0.7089 -0.9993 -0.9402
   15MOL0     C 1890   6.474   4.011   3.576 -0.5085 -0.3835 -0.0739
   15MOL0     C 1891   6.446   4.044   3.721  0.1684 -0.3555 -0.2454
   15MOL0    Cl 1892   6.511   3.927   3.828 -0.1327 -0.4183 -0.0645
   15MOL0     C 1893   7.346   4.115   2.903 -0.4339  0.5912  0.6184
   15MOL0     C 1894   7.430   4.129   2.791 -0.4354 -0.1536 -0.1877
   15MOL0     O 1895   7.491   3.912   2.446 -0.5812 -0.2468  0.2060
   15MOL0     C 1896   7.568   4.062   2.215 -0.3179  0.8168  0.3032
   15MOL0     C 1897   7.568   4.129   2.089 -1.3174 -0.6204 -0.2059
   15MOL0     N 1898   7.762   4.271   1.341  0.2888  0.1784  0.6328
   15MOL0     N 1899   7.829   4.309   1.235 -0.0805 -0.3634 -1.3108
   15MOL0     C 1900   8.323   4.434   0.227 -1.5168 -0.2635 -0.2187
   15MOL0     C 1901   8.456   4.415   0.249  0.7151  0.9013 -0.0045
   15MOL0     C 1902   8.855   4.315   0.398 -0.2454 -0.1834 -0.2720
   15MOL0     C 1903   8.942   4.272   0.293  0.7890  0.3422 -0.0304
   15MOL0     C 1904   9.073   4.235   0.322  0.2765 -0.9123 -0.1239
   15MOL0     C 1905   9.136   4.264   0.447  0.1221  0.0009  0.0612
   15MOL0     O 1906   9.274   4.239   0.465  0.4708 -0.3395  0.3040
   15MOL0     C 1907   9.328   4.268   0.591 -0.1721 -0.5358 -0.2410
   15MOL0     C 1908   9.478   4.234   0.596 -0.8322 -0.2905 -0.0684
   15MOL0     C 1909   9.570   4.277   0.479 -0.8527  0.7693 -0.9040
   15MOL0     C 1910   9.710   4.226   0.499 -0.3548  0.2246 -0.3640
   15MOL0     C 1911   9.733   4.100   0.420 -0.3187  0.1647  0.6597
   15MOL0     C 1912   9.742   4.007   0.340  0.1947 -0.5610 -0.4905
   15MOL0     C 1913   9.050   4.304   0.545 -0.3470  1.0878  0.4979
   15MOL0     C 1914   8.913   4.336   0.514 -0.0245  0.7163 -0.6869
   15MOL0     H 1915   8.465   4.066   0.230 -1.2345 -1.2684 -0.8820
   15MOL0     H 1916   8.237   4.094   0.206  1.9742 -1.5381 -1.5465
   15MOL0     H 1917   8.032   4.213   0.375  0.8917  1.9672  3.9473
   15MOL0     H 1918   7.918   4.328   0.307 -1.4883 -1.6036  1.9535
   15MOL0     H 1919   8.071   4.515   0.381 -4.3746 -1.1028 -1.6727
   15MOL0     H 1920   8.162   4.382   0.478  0.7622 -3.9213 -0.9123
   15MOL0     H 1921   7.988   4.316   0.603 -1.9560 -2.0065 -2.2554
   15MOL0     H 1922   7.866   4.402   0.523 -0.3501 -1.7080  1.5653
   15MOL0     H 1923   8.092   4.571   0.646  0.4071 -0.3373  1.8509
   15MOL0     H 1924   7.930   4.620   0.603  1.8367  0.8016  0.2685
   15MOL0     H 1925   7.975   4.570   0.864  2.7834 -0.9738 -0.3870
   15MOL0     H 1926   7.976   4.405   0.819 -3.1555 -1.5697 -0.5157
   15MOL0     H 1927   7.735   4.420   0.714 -0.5957  0.1208  0.7933
   15MOL0     H 1928   7.727   4.571   0.800  2.9315  1.3344 -0.2578
   15MOL0     H 1929   7.645   4.382   0.927 -0.3398 -0.3043  1.0248
   15MOL0     H 1930   7.802   4.306   0.928  0.6955  0.5440 -1.7541
   15MOL0     H 1931   7.726   4.584   1.058  0.9523  0.1516  2.9400
   15MOL0     H 1932   7.881   4.507   1.068 -0.5996  0.3260  1.4886
   15MOL0     H 1933   7.543   4.469   1.211 -1.6576 -1.2531  3.1030
   15MOL0     H 1934   7.471   4.258   1.430  0.5794  0.7816 -2.5929
   15MOL0     H 1935   7.496   4.425   1.467  1.0166  1.8319 -3.4284
   15MOL0     H 1936   7.716   4.304   1.602 -0.2073 -1.6011  0.0418
   15MOL0     H 1937   7.618   4.162   1.600 -0.7596 -0.0617  0.8028
   15MOL0     H 1938   7.553   4.431   1.748 -0.4047 -1.0216  2.8163
   15MOL0     H 1939   7.419   4.317   1.690 -1.0685 -4.6823  4.9620
   15MOL0     H 1940   7.660   4.224   1.854 -0.3034 -1.0897  0.1072
   15MOL0     H 1941   7.506   4.153   1.826  1.4492 -0.6617  0.6434
   15MOL0     H 1942   7.403   4.408   2.180 -1.1401  0.2904  3.1193
   15MOL0     H 1943   7.385   4.278   2.397  0.6341  0.6339  0.3680
   15MOL0     H 1944   7.252   3.909   2.609  1.0045 -1.0300  0.1042
   15MOL0     H 1945   7.129   3.899   2.781  2.2964 -0.8176 -3.5436
   15MOL0     H 1946   7.100   3.875   3.122 -0.5315  0.3003  2.4067
   15MOL0     H 1947   7.003   3.921   2.978 -1.3159 -0.1206  0.5459
   15MOL0     H 1948   6.932   4.121   3.162  0.6457  0.5634  2.2362
   15MOL0     H 1949   7.058   4.037   3.248 -0.0636  2.2092 -1.5061
   15MOL0     H 1950   6.924   3.861   3.302 -0.4421 -1.1985 -1.6858
   15MOL0     H 1951   6.784   3.900   3.203  1.4499  1.1609 -2.4249
   15MOL0     H 1952   6.890   4.010   3.460  0.3078 -5.2033 -0.3102
   15MOL0     H 1953   6.811   4.128   3.349 -1.4160 -0.5219 -0.5640
   15MOL0     H 1954   6.700   3.866   3.442  0.3695  0.4022  1.3736
   15MOL0     H 1955   6.612   3.984   3.333  0.4271  2.4617  0.6415
   15MOL0     H 1956   6.642   4.141   3.528  0.2041 -1.1331 -0.7654
   15MOL0     H 1957   6.684   3.995   3.627 -1.4130 -2.5750 -1.1299
   15MOL0     H 1958   6.397   4.072   3.529 -0.9522 -0.4889  0.5005
   15MOL0     H 1959   6.458   3.905   3.556 -0.2828 -0.6342  0.9608
   15MOL0     H 1960   6.340   4.041   3.747  0.2999 -1.9310  0.2711
   15MOL0     H 1961   6.471   4.145   3.754 -2.4320  0.0857  0.5874
   15MOL0     H 1962   7.378   4.166   2.994  3.9759 -1.5112  0.4810
   15MOL0     H 1963   7.510   4.203   2.791  0.9247 -1.5653 -0.2318
   15MOL0     H 1964   7.620   3.969   2.234 -0.3889  1.0494  1.7342
   15MOL0     H 1965   7.637   4.081   2.020  0.8636  0.4498  1.1213
   15MOL0     H 1966   8.285   4.535   0.239 -1.7696 -0.4242  0.3600
   15MOL0     H 1967   8.504   4.509   0.276 -0.5236  1.7943 -0.8433
   15MOL0     H 1968   8.900   4.270   0.193 -2.6912  1.8837  1.2338
   15MOL0     H 1969   9.130   4.200   0.236 -0.4373 -0.7578 -0.6621
   15MOL0     H 1970   9.291   4.204   0.672  4.4299 -0.2885  2.4591
   15MOL0     H 1971   9.310   4.371   0.622 -0.5714 -0.0993 -1.8196
   15MOL0     H 1972   9.514   4.261   0.695 -0.3602  3.4244 -1.1005
   15MOL0     H 1973   9.491   4.125   0.590 -2.2897 -0.4082 -2.1381
   15MOL0     H 1974   9.588   4.385   0.475  0.5679  0.6632  1.2399
   15MOL0     H 1975   9.535   4.249   0.379  0.7081 -0.5084 -1.1274
   15MOL0     H 1976   9.786   4.293   0.457 -0.5104 -0.6227 -2.0788
   15MOL0     H 1977   9.729   4.206   0.605 -2.2766 -0.6105 -0.1286
   15MOL0     H 1978   9.756   3.919   0.280  0.0977 -0.7945 -0.1773
   15MOL0     H 1979   9.081   4.318   0.648  1.3924 -0.3067  0.2045
   15MOL0     H 1980   8.859   4.378   0.599  0.5663  0.1905 -0.0454
   16MOL0     O 1981   4.512   9.620   0.436 -0.3940 -0.1548  0.4481
   16MOL0     C 1982   4.603   9.577   0.375 -0.8051 -0.6788  0.5179
   16MOL0     O 1983   4.594   9.463   0.293  0.2572 -0.3587 -0.3838
   16MOL0     C 1984   4.471   9.401   0.286  0.6682  0.1796 -0.5531
   16MOL0     C 1985   4.423   9.375   0.160 -0.1364 -0.8612  0.4105
   16MOL0     C 1986   4.299   9.316   0.139  0.7060 -0.1736  0.2380
   16MOL0     C 1987   4.224   9.279   0.251  0.3385  0.4689  1.1964
   16MOL0     O 1988   4.103   9.222   0.229  0.4284  0.9200  0.2829
   16MOL0     C 1989   4.071   9.096   0.297 -0.2045  0.3558  0.4779
   16MOL0     C 1990   3.954   9.113   0.396  0.1543  0.8603 -0.1714
   16MOL0     C 1991   3.915   8.977   0.440 -0.0420 -0.6124  0.0630
   16MOL0     C 1992   3.833   8.986   0.580  0.5869  0.5103 -0.0759
   16MOL0     C 1993   3.764   8.857   0.630 -0.7556  0.0199  0.4465
   16MOL0     C 1994   3.646   8.876   0.721  0.2553 -0.0498 -0.2506
   16MOL0     C 1995   3.678   8.940   0.855  0.1717  0.3097 -0.5252
   16MOL0     C 1996   3.566   8.908   0.961 -0.9400 -0.1011 -0.3285
   16MOL0     N 1997   3.588   8.985   1.092 -0.4674  0.0123 -0.9691
   16MOL0     C 1998   3.527   9.098   1.118  0.2240  0.1078 -0.3663
   16MOL0     C 1999   3.560   9.129   1.241  0.4976 -0.7586 -0.6795
   16MOL0     C 2000   3.498   9.237   1.327  1.0281 -1.1168  0.4058
   16MOL0     C 2001   3.601   9.356   1.341  0.2668 -0.7296  0.2160
   16MOL0     C 2002   3.719   9.330   1.433  0.5729  0.1143 -0.2479
   16MOL0     C 2003   3.803   9.454   1.464 -0.7184  0.3436  0.1518
   16MOL0     O 2004   3.877   9.510   1.347 -0.4538 -0.1540  0.9322
   16MOL0     C 2005   4.007   9.551   1.356  0.2021 -0.4768 -0.3721
   16MOL0     C 2006   4.050   9.677   1.313 -0.0463 -0.1581 -0.0995
   16MOL0     C 2007   4.173   9.718   1.348  0.0169 -0.0470 -0.3633
   16MOL0     C 2008   4.260   9.634   1.427  0.5849  0.1518  0.5722
   16MOL0     C 2009   4.390   9.672   1.486  0.5565 -0.1703 -0.4942
   16MOL0     O 2010   4.449   9.598   1.584 -0.3353  0.6807 -0.2076
   16MOL0     C 2011   4.561   9.648   1.649 -0.6024  0.0054  0.3493
   16MOL0     C 2012   4.687   9.601   1.617  0.4203 -0.8025 -0.4475
   16MOL0     C 2013   4.802   9.639   1.691  0.5662 -0.4036 -0.3129
   16MOL0     C 2014   4.790   9.721   1.799  0.9637  0.0722 -0.1325
   16MOL0     O 2015   4.889   9.752   1.882  0.0763  0.0113 -0.3570
   16MOL0     C 2016   5.013   9.693   1.865 -0.7653  0.1497 -0.2738
   16MOL0     C 2017   5.112   9.749   1.965  0.1530 -0.5503  0.1637
   16MOL0     C 2018   5.134   9.897   1.936  0.0189  0.0822  0.0175
   16MOL0     C 2019   5.265   9.960   1.997  0.3206 -0.1887  0.3829
   16MOL0     C 2020   5.216  10.079   2.092 -0.0722 -0.3056  0.3136
   16MOL0     C 2021   5.324  10.153   2.180  0.1120  0.1992 -0.2371
   16MOL0     C 2022   5.420  10.236   2.093  0.0216 -0.7638 -1.2774
   16MOL0     C 2023   5.502  10.339   2.181 -0.7580  0.9922  0.4122
   16MOL0    Cl 2024   5.604  10.266   2.314  0.0951 -0.1081  0.0152
   16MOL0     C 2025   4.657   9.770   1.826  0.0231  0.4728  1.0665
   16MOL0     C 2026   4.549   9.736   1.751 -0.2861  0.4712  0.8633
   16MOL0     O 2027   4.420   9.779   1.453 -0.3820  0.1808  0.0439
   16MOL0     C 2028   4.230   9.497   1.441  0.6906  0.7129 -0.9099
   16MOL0     C 2029   4.099   9.459   1.412  0.4684 -0.2713 -0.4330
   16MOL0     N 2030   3.658   9.034   1.282  0.0956  0.6849  1.1982
   16MOL0     N 2031   3.672   8.942   1.195  0.3376  1.2169  0.6746
   16MOL0     C 2032   4.275   9.302   0.380 -0.1339 -0.0549 -0.7941
   16MOL0     C 2033   4.399   9.359   0.405  0.8054 -0.0495 -0.4956
   16MOL0     C 2034   4.736   9.639   0.391 -0.4275 -0.1101  0.4404
   16MOL0     C 2035   4.831   9.593   0.300  0.5794 -0.0777 -0.2443
   16MOL0     C 2036   4.962   9.659   0.304 -0.5193 -0.1113 -0.2458
   16MOL0     C 2037   4.990   9.775   0.388  0.6784  0.8211  0.2574
   16MOL0     O 2038   5.103   9.858   0.387  0.6711 -0.4158  0.3961
   16MOL0     C 2039   5.230   9.810   0.338  0.2013 -0.1267 -0.1715
   16MOL0     C 2040   5.270   9.831   0.193 -0.2471 -0.6466  0.0253
   16MOL0     C 2041   5.248   9.984   0.169  0.0347 -0.5834  0.0955
   16MOL0     C 2042   5.323  10.019   0.038 -0.1803 -0.6757 -0.1071
   16MOL0     C 2043   5.313  10.171   0.020  0.6462  0.5327  0.3698
   16MOL0     C 2044   5.299  10.296   0.008  0.4871  0.0395  0.3899
   16MOL0     C 2045   4.877   9.815   0.466  0.3334  0.2227 -0.5244
   16MOL0     C 2046   4.767   9.745   0.469 -0.0384 -0.1391  0.6513
   16MOL0     H 2047   4.476   9.413   0.074  4.0425 -3.0979  1.7223
   16MOL0     H 2048   4.282   9.283   0.037  3.3325 -4.0369  0.8228
   16MOL0     H 2049   4.156   9.045   0.342 -0.8508 -2.6908 -1.3933
   16MOL0     H 2050   4.056   9.026   0.214  0.6676 -1.5319  1.8229
   16MOL0     H 2051   3.868   9.169   0.359  1.3723  1.9578 -1.5029
   16MOL0     H 2052   3.983   9.169   0.485 -2.5422  0.0037  1.3489
   16MOL0     H 2053   4.010   8.928   0.461  0.8538  0.2957 -1.7186
   16MOL0     H 2054   3.854   8.921   0.368  0.6033  0.9359 -1.7729
   16MOL0     H 2055   3.908   9.009   0.656 -0.6654  1.6242  0.8739
   16MOL0     H 2056   3.761   9.068   0.585  2.4412  2.2148  0.1472
   16MOL0     H 2057   3.838   8.805   0.691  0.4344  0.5306 -0.5317
   16MOL0     H 2058   3.729   8.808   0.538  0.5280  1.6212 -0.9798
   16MOL0     H 2059   3.595   8.779   0.726  3.1678 -1.6771  0.9275
   16MOL0     H 2060   3.579   8.943   0.666 -3.3082 -3.8020 -1.0259
   16MOL0     H 2061   3.769   8.891   0.892  0.1436  1.4647  1.1961
   16MOL0     H 2062   3.699   9.047   0.853 -0.4106  0.6096  3.0336
   16MOL0     H 2063   3.581   8.801   0.980  0.1119  0.1862  0.5556
   16MOL0     H 2064   3.466   8.919   0.918 -1.1465 -1.3905 -0.2370
   16MOL0     H 2065   3.439   9.148   1.081  1.6593  1.2688 -2.3893
   16MOL0     H 2066   3.459   9.214   1.427 -2.9114  3.5552  0.2973
   16MOL0     H 2067   3.418   9.282   1.268  0.4780 -0.8317  1.3438
   16MOL0     H 2068   3.545   9.443   1.378 -0.2024 -2.1560  3.1219
   16MOL0     H 2069   3.643   9.365   1.240  0.2335  1.1041  0.3356
   16MOL0     H 2070   3.669   9.283   1.519  1.7768  1.1149  1.0409
   16MOL0     H 2071   3.787   9.257   1.388 -1.7898 -1.7391 -1.0454
   16MOL0     H 2072   3.885   9.432   1.533  1.4112 -0.0516 -2.3656
   16MOL0     H 2073   3.741   9.532   1.509  3.4820  5.5510 -1.9530
   16MOL0     H 2074   3.979   9.745   1.267  0.9174  1.2312  0.3989
   16MOL0     H 2075   4.194   9.824   1.351 -0.2393 -0.0242  0.8886
   16MOL0     H 2076   4.691   9.533   1.532 -2.6899 -2.5168  0.6224
   16MOL0     H 2077   4.897   9.592   1.668  0.6765 -0.7457  0.8003
   16MOL0     H 2078   5.050   9.705   1.763 -1.0799  0.6465 -0.3322
   16MOL0     H 2079   5.003   9.585   1.879 -4.2346  0.0332 -2.4137
   16MOL0     H 2080   5.209   9.698   1.960  1.1660  0.5608  4.7645
   16MOL0     H 2081   5.074   9.736   2.066  1.0414 -0.9648  0.4564
   16MOL0     H 2082   5.045   9.948   1.973  0.7580  0.8873  0.7244
   16MOL0     H 2083   5.143   9.892   1.827 -2.3909  0.7233 -0.2546
   16MOL0     H 2084   5.313   9.879   2.052  3.5927  0.5882 -1.1324
   16MOL0     H 2085   5.336  10.000   1.924  0.8259 -0.8155  0.5263
   16MOL0     H 2086   5.147  10.038   2.166 -1.1763  1.5412  0.3793
   16MOL0     H 2087   5.153  10.150   2.038 -0.1045 -1.0398 -0.6362
   16MOL0     H 2088   5.378  10.075   2.234  0.1469  1.3393  1.4400
   16MOL0     H 2089   5.274  10.216   2.254 -0.3117 -0.2182 -0.1613
   16MOL0     H 2090   5.483  10.169   2.033  1.9467  1.3971 -1.8051
   16MOL0     H 2091   5.361  10.297   2.024 -0.5057  3.4955  2.4874
   16MOL0     H 2092   5.436  10.412   2.229 -1.5579 -0.2132  1.2018
   16MOL0     H 2093   5.564  10.392   2.108  0.9894  0.0711  1.1773
   16MOL0     H 2094   4.639   9.843   1.906  3.2921  1.8618  0.6969
   16MOL0     H 2095   4.453   9.782   1.771 -0.3769  0.7761 -0.1909
   16MOL0     H 2096   4.289   9.419   1.486 -0.0164 -0.5773 -2.1310
   16MOL0     H 2097   4.063   9.359   1.431 -0.6590  0.3069  0.5392
   16MOL0     H 2098   4.226   9.265   0.469 -0.1603  2.1433  0.1517
   16MOL0     H 2099   4.436   9.377   0.506  0.9536 -1.8034 -0.2086
   16MOL0     H 2100   4.815   9.511   0.230  1.7222 -1.4931  1.0661
   16MOL0     H 2101   5.045   9.638   0.237  2.6343  3.4846  2.0791
   16MOL0     H 2102   5.230   9.702   0.353  0.6265 -0.7799 -3.8768
   16MOL0     H 2103   5.304   9.854   0.405  0.4433 -0.7241 -0.0471
   16MOL0     H 2104   5.368   9.782   0.195 -0.9073 -2.0036  1.6771
   16MOL0     H 2105   5.209   9.769   0.126 -0.9775 -0.9660  0.9625
   16MOL0     H 2106   5.281  10.052   0.248 -0.2258  0.4272 -0.6408
   16MOL0     H 2107   5.141   9.997   0.151  0.6221 -0.5809 -4.9709
   16MOL0     H 2108   5.425   9.983   0.053 -0.2173 -0.2444  1.3046
   16MOL0     H 2109   5.299   9.977  -0.061  0.5617  3.1493 -2.0986
   16MOL0     H 2110   5.288  10.402  -0.002 -1.1074 -0.1034  0.3913
   16MOL0     H 2111   4.897   9.902   0.527 -1.0478  0.8173 -0.8686
   16MOL0     H 2112   4.682   9.786   0.524 -1.2681 -1.7226  0.0299
   17MOL0     O 2113   7.199  10.618  10.583  1.0241  0.6294  0.3313
   17MOL0     C 2114   7.192  10.506  10.535 -0.4008 -0.3943 -0.9269
   17MOL0     O 2115   7.170  10.479  10.404  0.2672 -0.0562  0.8467
   17MOL0     C 2116   7.129  10.582  10.319  0.4801  1.2507  0.1195
   17MOL0     C 2117   6.994  10.560  10.270 -0.2145  0.0071  0.9174
   17MOL0     C 2118   6.934  10.665  10.189 -0.0985 -0.1842  0.6389
   17MOL0     C 2119   7.009  10.779  10.153 -0.1346  1.2038 -0.5903
   17MOL0     O 2120   6.945  10.867  10.072 -0.1758 -0.5204 -0.5792
   17MOL0     C 2121   7.021  10.958   9.991  0.5466  0.0947  0.6614
   17MOL0     C 2122   6.926  11.038   9.903 -0.8686  0.6242 -0.5850
   17MOL0     C 2123   7.005  11.137   9.813  0.0039 -0.4450 -0.4417
   17MOL0     C 2124   7.023  11.063   9.681  0.0156 -0.8497  0.2694
   17MOL0     C 2125   7.086  11.150   9.572  0.1003 -0.2832  0.5617
   17MOL0     C 2126   7.226  11.224   9.609  1.0351 -0.0737  0.0339
   17MOL0     C 2127   7.290  11.297   9.495  0.0296 -0.8250  1.2698
   17MOL0     C 2128   7.331  11.218   9.376  0.0294  0.5484  0.2576
   17MOL0     N 2129   7.439  11.109   9.398 -0.1859 -0.5555  0.6538
   17MOL0     C 2130   7.570  11.109   9.357  0.0264 -0.3414 -0.5483
   17MOL0     C 2131   7.630  10.993   9.409 -0.6286  0.3915 -0.6794
   17MOL0     C 2132   7.774  10.972   9.373 -0.0102 -0.3930  0.9188
   17MOL0     C 2133   7.811  10.826   9.338  0.6440 -0.7593 -1.0372
   17MOL0     C 2134   7.813  10.796   9.189  0.7788  0.3066  0.8138
   17MOL0     C 2135   7.694  10.855   9.118 -1.4167 -0.6839 -0.0258
   17MOL0     O 2136   7.576  10.796   9.170 -0.0761  0.4354  0.2475
   17MOL0     C 2137   7.453  10.833   9.129  0.3718  0.4866  0.2679
   17MOL0     C 2138   7.333  10.791   9.191  0.8656 -0.0664  0.0624
   17MOL0     C 2139   7.210  10.815   9.137  0.2983  0.4773 -0.0321
   17MOL0     C 2140   7.197  10.869   9.006  0.0582  0.2873  0.2076
   17MOL0     C 2141   7.068  10.886   8.942 -0.0219  0.8466  1.0124
   17MOL0     O 2142   7.063  10.914   8.809 -0.3488 -0.0184  0.3527
   17MOL0     C 2143   6.948  10.953   8.738 -0.5509  1.2119  0.2304
   17MOL0     C 2144   6.950  10.919   8.606  0.4755  0.0763  0.1507
   17MOL0     C 2145   6.826  10.936   8.536 -0.7642 -0.4536 -0.5436
   17MOL0     C 2146   6.705  10.978   8.581  0.3114  0.2537 -0.7570
   17MOL0     O 2147   6.591  10.975   8.510 -0.4182 -0.0854  0.4330
   17MOL0     C 2148   6.588  11.002   8.364 -0.4804  0.0642 -0.5236
   17MOL0     C 2149   6.449  11.021   8.307 -0.1045 -0.0453 -0.7519
   17MOL0     C 2150   6.442  11.092   8.177 -0.2870 -0.4167  0.3073
   17MOL0     C 2151   6.299  11.127   8.141  0.2391 -0.2146 -0.6881
   17MOL0     C 2152   6.312  11.229   8.028  0.6626 -0.3628 -0.2367
   17MOL0     C 2153   6.171  11.259   7.968  0.5610  0.8479 -0.2935
   17MOL0     C 2154   6.056  11.269   8.069 -0.0339 -0.0448  0.6822
   17MOL0     C 2155   5.925  11.298   8.002  0.4091 -0.6800  0.6635
   17MOL0    Cl 2156   5.931  11.471   7.949  0.0675 -0.3423  0.1751
   17MOL0     C 2157   6.710  10.995   8.716 -0.1538  0.4446  0.5985
   17MOL0     C 2158   6.830  10.996   8.791  0.1380 -0.5307 -0.2296
   17MOL0     O 2159   6.968  10.861   9.010 -0.2653  0.1658  0.3421
   17MOL0     C 2160   7.319  10.905   8.938 -0.1681  0.3717 -0.2404
   17MOL0     C 2161   7.440  10.899   9.006 -0.7110 -0.0496  0.2364
   17MOL0     N 2162   7.535  10.930   9.487  0.0366 -0.2543 -0.5244
   17MOL0     N 2163   7.423  10.995   9.481  0.2926 -0.6386 -0.3255
   17MOL0     C 2164   7.144  10.788  10.199  1.1924 -0.3377  0.3244
   17MOL0     C 2165   7.204  10.690  10.278 -0.4569  0.6820 -0.4483
   17MOL0     C 2166   7.237  10.401  10.638 -0.6665  0.2027 -0.4990
   17MOL0     C 2167   7.272  10.445  10.768  0.0370 -0.0656  0.0089
   17MOL0     C 2168   7.312  10.356  10.874  0.4824 -1.0157  0.5358
   17MOL0     C 2169   7.330  10.223  10.846  0.7126 -0.0986  0.7440
   17MOL0     O 2170   7.376  10.130  10.934  0.5905  0.5086  0.2793
   17MOL0     C 2171   7.523  10.135  10.946  0.8818 -0.0415 -0.1207
   17MOL0     C 2172   7.590  10.007  11.003  0.9394  0.2192 -0.0077
   17MOL0     C 2173   7.557   9.994  11.159  1.2455 -0.8705 -0.1344
   17MOL0     C 2174   7.579   9.848  11.196 -0.5033  0.2926 -0.0276
   17MOL0     C 2175   7.717   9.821  11.224  0.3129  0.1168  0.8657
   17MOL0     C 2176   7.837   9.799  11.215 -0.0227  0.9132 -0.1901
   17MOL0     C 2177   7.292  10.177  10.716  0.4145 -0.0457 -0.4145
   17MOL0     C 2178   7.255  10.267  10.613  0.2322  0.2800  0.0516
   17MOL0     H 2179   6.935  10.471  10.293 -1.0168  0.8007  2.0058
   17MOL0     H 2180   6.834  10.665  10.148 -0.0627 -1.1845  0.5166
   17MOL0     H 2181   7.081  10.904   9.917  0.8426  0.9733  0.2464
   17MOL0     H 2182   7.090  11.023  10.044  2.2402  0.3282 -1.6509
   17MOL0     H 2183   6.855  11.088   9.970 -0.3325 -0.4643  0.8333
   17MOL0     H 2184   6.864  10.971   9.842 -1.6546  2.2078 -1.6062
   17MOL0     H 2185   7.090  11.176   9.870  0.5847 -1.7130 -0.4063
   17MOL0     H 2186   6.944  11.223   9.784  1.4060  0.2004 -1.6275
   17MOL0     H 2187   7.093  10.980   9.696  1.3949  0.4542  1.2558
   17MOL0     H 2188   6.919  11.041   9.652 -1.6895  4.6779  1.0394
   17MOL0     H 2189   7.003  11.216   9.545  1.0758  1.3004  1.2758
   17MOL0     H 2190   7.106  11.081   9.489 -0.5457 -0.2669  0.3910
   17MOL0     H 2191   7.294  11.141   9.629  1.9461  0.5460 -0.4303
   17MOL0     H 2192   7.207  11.286   9.696  1.5732 -2.1441  1.7185
   17MOL0     H 2193   7.227  11.378   9.457 -0.0486 -1.5441 -0.1944
   17MOL0     H 2194   7.382  11.340   9.537  1.1585  1.1240 -2.7057
   17MOL0     H 2195   7.358  11.278   9.289  3.0583 -2.0423 -0.7743
   17MOL0     H 2196   7.244  11.168   9.331 -0.2822 -0.6228  2.0337
   17MOL0     H 2197   7.617  11.190   9.303 -1.4739 -0.3770 -2.0211
   17MOL0     H 2198   7.850  11.020   9.435  1.1155 -2.4499  1.2295
   17MOL0     H 2199   7.789  11.031   9.282  1.0633 -0.6558  0.9017
   17MOL0     H 2200   7.747  10.763   9.401 -2.2932  1.8269 -1.1993
   17MOL0     H 2201   7.914  10.813   9.370  0.5478  0.2734 -0.2535
   17MOL0     H 2202   7.903  10.830   9.137  0.1834  3.6406  1.6718
   17MOL0     H 2203   7.802  10.690   9.166  3.8615  0.8507 -4.9149
   17MOL0     H 2204   7.715  10.829   9.014  0.2039  1.3801 -0.2897
   17MOL0     H 2205   7.696  10.965   9.122  2.0669 -0.6738  0.9731
   17MOL0     H 2206   7.338  10.728   9.279  2.2113  0.5115  0.4332
   17MOL0     H 2207   7.124  10.778   9.191  0.1621  1.1979  0.2572
   17MOL0     H 2208   7.035  10.873   8.559 -1.0236 -1.0120 -1.6051
   17MOL0     H 2209   6.812  10.901   8.434 -2.4083  1.6631 -1.1210
   17MOL0     H 2210   6.637  10.928   8.301 -0.7373  0.5687 -1.3331
   17MOL0     H 2211   6.642  11.097   8.357 -0.9037  0.4614  1.1195
   17MOL0     H 2212   6.393  11.084   8.377 -1.7995 -0.2807 -1.8395
   17MOL0     H 2213   6.396  10.926   8.296 -2.6453  1.1855  0.1062
   17MOL0     H 2214   6.495  11.027   8.106  1.2510  0.9621  0.1448
   17MOL0     H 2215   6.496  11.185   8.195 -2.3213  0.6461  1.2154
   17MOL0     H 2216   6.257  11.031   8.107  0.4446 -0.2477 -0.8493
   17MOL0     H 2217   6.236  11.165   8.222  0.4435 -0.3265 -0.4762
   17MOL0     H 2218   6.365  11.184   7.943 -3.0525 -1.9785 -1.8907
   17MOL0     H 2219   6.353  11.327   8.054  0.9436  0.4485 -3.4038
   17MOL0     H 2220   6.137  11.179   7.901  0.2704 -2.3140  3.3081
   17MOL0     H 2221   6.168  11.347   7.903 -6.4243  0.2339 -1.5284
   17MOL0     H 2222   6.044  11.169   8.111 -2.1094 -0.2839 -0.3679
   17MOL0     H 2223   6.085  11.344   8.144  2.0514  0.3000 -0.3742
   17MOL0     H 2224   5.839  11.286   8.069 -1.7096  2.3465 -1.2697
   17MOL0     H 2225   5.909  11.234   7.915  1.5301 -0.2084  0.0925
   17MOL0     H 2226   6.614  11.004   8.765 -0.2846 -1.1667  0.6868
   17MOL0     H 2227   6.820  11.010   8.898  5.0247  0.0770  0.3669
   17MOL0     H 2228   7.315  10.952   8.841  0.5530 -1.6472 -1.3140
   17MOL0     H 2229   7.521  10.937   8.945 -0.0638 -0.3549  0.8816
   17MOL0     H 2230   7.215  10.857  10.153 -0.8917  2.2709  0.8015
   17MOL0     H 2231   7.305  10.688  10.319 -0.3706 -1.9160 -0.5917
   17MOL0     H 2232   7.248  10.546  10.799 -0.9746  0.2649 -1.7527
   17MOL0     H 2233   7.337  10.375  10.978  0.2929 -0.2664  0.4491
   17MOL0     H 2234   7.551  10.221  11.007 -3.2138  1.1292  0.4368
   17MOL0     H 2235   7.573  10.164  10.853  1.7820 -0.4518  0.2282
   17MOL0     H 2236   7.539   9.934  10.939 -4.7261  2.4157  1.4211
   17MOL0     H 2237   7.699  10.015  11.001  0.9407  0.1004 -1.6497
   17MOL0     H 2238   7.453  10.012  11.188  1.5093 -1.7759  1.4978
   17MOL0     H 2239   7.617  10.070  11.210  1.2817 -0.3394 -0.9514
   17MOL0     H 2240   7.517   9.830  11.284  0.0149 -0.8876  0.1216
   17MOL0     H 2241   7.542   9.778  11.121  1.5826 -0.5588 -0.3287
   17MOL0     H 2242   7.935   9.760  11.198 -0.5808 -0.7544  0.2901
   17MOL0     H 2243   7.287  10.072  10.688  2.3230 -0.3719  0.2603
   17MOL0     H 2244   7.232  10.228  10.514  2.7287  2.8249 -1.6553
   18MOL0     O 2245   2.954   0.705   1.136 -0.2136 -0.0294 -0.8789
   18MOL0     C 2246   2.854   0.649   1.103  0.3601  0.9247 -0.1926
   18MOL0     O 2247   2.722   0.704   1.108 -0.0580 -0.1238  0.6701
   18MOL0     C 2248   2.721   0.840   1.126 -0.6542 -0.8985  0.6025
   18MOL0     C 2249   2.700   0.895   1.250  0.1627  0.1097 -0.7450
   18MOL0     C 2250   2.681   1.031   1.271  0.1844  1.1242 -0.3671
   18MOL0     C 2251   2.654   1.109   1.160  0.1800  0.6790 -0.2257
   18MOL0     O 2252   2.620   1.240   1.177 -0.0316  0.3070 -0.5473
   18MOL0     C 2253   2.484   1.265   1.137  0.2976 -1.4869 -0.5422
   18MOL0     C 2254   2.427   1.390   1.200  0.5101 -0.6113  0.7519
   18MOL0     C 2255   2.286   1.424   1.156 -0.0197 -0.1277  0.7794
   18MOL0     C 2256   2.188   1.319   1.196 -0.0795 -0.0967 -0.9411
   18MOL0     C 2257   2.048   1.355   1.145  0.8818 -0.4770 -0.0928
   18MOL0     C 2258   1.936   1.266   1.196  0.7508 -0.5718 -0.0535
   18MOL0     C 2259   1.793   1.325   1.173  0.1019 -0.0966 -0.0678
   18MOL0     C 2260   1.771   1.393   1.032 -0.1257 -0.1292 -0.4474
   18MOL0     N 2261   1.627   1.420   1.017  0.1148 -0.2073  0.3244
   18MOL0     C 2262   1.560   1.541   1.038 -0.3748  0.4896 -0.1804
   18MOL0     C 2263   1.424   1.519   1.034 -0.2282 -0.4341 -0.1870
   18MOL0     C 2264   1.315   1.631   1.048 -0.3225  1.2853 -0.4041
   18MOL0     C 2265   1.341   1.707   1.179 -0.5073  0.1752  1.4030
   18MOL0     C 2266   1.248   1.813   1.225 -0.0020  0.7695  0.5846
   18MOL0     C 2267   1.291   1.864   1.353  0.1885 -0.1573  0.3394
   18MOL0     O 2268   1.230   1.981   1.396 -0.0581  0.3218  0.1874
   18MOL0     C 2269   1.284   2.055   1.507  0.4655 -0.4896  0.6070
   18MOL0     C 2270   1.224   2.187   1.521 -0.5395 -0.5768  0.7651
   18MOL0     C 2271   1.272   2.277   1.623  0.2472 -0.6190  0.2644
   18MOL0     C 2272   1.353   2.226   1.724 -0.7939 -0.2333 -0.4399
   18MOL0     C 2273   1.384   2.308   1.847 -0.5114 -0.5445 -0.1324
   18MOL0     O 2274   1.318   2.431   1.854  0.9371  0.5440 -0.5996
   18MOL0     C 2275   1.333   2.507   1.964 -0.2954 -0.1022  0.2054
   18MOL0     C 2276   1.417   2.504   2.071  0.1091 -1.0501  0.5744
   18MOL0     C 2277   1.421   2.597   2.185  0.2593  0.0825 -1.1358
   18MOL0     C 2278   1.325   2.697   2.183 -0.3802 -0.0643  0.2562
   18MOL0     O 2279   1.307   2.780   2.295 -0.5103  0.8359 -0.0943
   18MOL0     C 2280   1.420   2.854   2.332  0.1045  0.1278 -0.3539
   18MOL0     C 2281   1.379   2.973   2.414  0.2752  0.5880 -0.9556
   18MOL0     C 2282   1.239   3.023   2.379  0.3845 -0.3948  0.1301
   18MOL0     C 2283   1.209   3.170   2.425 -0.6768 -0.2865 -0.1417
   18MOL0     C 2284   1.207   3.195   2.569 -0.9441 -0.2007  0.0160
   18MOL0     C 2285   1.079   3.143   2.647 -0.7155 -0.3275 -0.8533
   18MOL0     C 2286   1.105   3.192   2.792 -0.0515  0.1418  1.2484
   18MOL0     C 2287   0.991   3.141   2.886  0.2365  0.0501  0.5488
   18MOL0    Cl 2288   1.023   3.196   3.049 -0.3240  0.2302 -0.1473
   18MOL0     C 2289   1.247   2.715   2.067 -0.0398 -1.2179 -0.3581
   18MOL0     C 2290   1.253   2.621   1.958  0.5283  0.0648 -1.3754
   18MOL0     O 2291   1.455   2.255   1.925  0.2281  0.0420 -0.0800
   18MOL0     C 2292   1.424   2.114   1.695  0.5015  0.5014  0.2244
   18MOL0     C 2293   1.395   2.032   1.588  0.3567 -0.1846  0.1055
   18MOL0     N 2294   1.410   1.380   1.026  0.2858 -0.1224 -0.4643
   18MOL0     N 2295   1.529   1.319   1.018  0.1153 -0.1516 -0.4592
   18MOL0     C 2296   2.669   1.057   1.033  0.3017  0.8014  0.5762
   18MOL0     C 2297   2.696   0.924   1.010  0.2427  1.0816 -0.3433
   18MOL0     C 2298   2.866   0.506   1.079 -0.1084 -0.9924 -0.1774
   18MOL0     C 2299   2.754   0.426   1.085 -0.2629 -0.3749 -0.2609
   18MOL0     C 2300   2.750   0.289   1.044 -0.2077  0.0651 -0.0213
   18MOL0     C 2301   2.873   0.234   0.996  0.0749  0.5060  0.6033
   18MOL0     O 2302   2.875   0.094   0.966  0.4944 -0.4783  0.1836
   18MOL0     C 2303   2.956   0.052   0.859 -0.2552  0.2254  0.0929
   18MOL0     C 2304   2.901  -0.082   0.792  0.1381  0.1885  0.0522
   18MOL0     C 2305   2.771  -0.071   0.701  0.0732  0.5629 -0.6471
   18MOL0     C 2306   2.711  -0.209   0.660 -0.3925 -0.1331 -0.4313
   18MOL0     C 2307   2.707  -0.237   0.511 -0.0511  0.5566 -0.0125
   18MOL0     C 2308   2.697  -0.270   0.393 -1.2485  0.4985 -0.0849
   18MOL0     C 2309   2.984   0.323   0.976 -0.7173 -0.8775 -0.6761
   18MOL0     C 2310   2.992   0.454   1.028  0.2045  0.9878 -0.0400
   18MOL0     H 2311   2.701   0.844   1.346 -3.7298 -1.7221 -1.5212
   18MOL0     H 2312   2.673   1.083   1.366  1.7497 -1.1618  1.1308
   18MOL0     H 2313   2.431   1.173   1.165  1.3622 -1.7240  0.8619
   18MOL0     H 2314   2.482   1.277   1.029  1.4567  0.3861 -0.3932
   18MOL0     H 2315   2.483   1.480   1.173 -2.4682  1.6077  1.4589
   18MOL0     H 2316   2.438   1.376   1.308 -2.4749 -2.1734  0.9617
   18MOL0     H 2317   2.286   1.417   1.047  0.4406 -1.1581  0.8290
   18MOL0     H 2318   2.257   1.526   1.183  3.1239  0.7352  1.2473
   18MOL0     H 2319   2.212   1.216   1.168  2.2288 -0.3833  1.6517
   18MOL0     H 2320   2.183   1.313   1.305  0.5021  3.6694 -0.5536
   18MOL0     H 2321   2.051   1.363   1.035  2.7153 -0.1218 -0.0420
   18MOL0     H 2322   2.024   1.453   1.187  0.7277 -0.4044 -0.3441
   18MOL0     H 2323   1.946   1.260   1.305 -1.9438  0.0429  0.3156
   18MOL0     H 2324   1.952   1.166   1.156  4.3260 -0.2626  0.2950
   18MOL0     H 2325   1.725   1.240   1.182 -1.8782  1.3095 -1.1199
   18MOL0     H 2326   1.766   1.398   1.249 -0.4530 -3.0435  2.8117
   18MOL0     H 2327   1.805   1.316   0.962 -3.2556  0.7138 -3.1707
   18MOL0     H 2328   1.841   1.475   1.021 -0.1924  0.2669  1.6572
   18MOL0     H 2329   1.600   1.640   1.054  0.0355  0.3719 -0.4626
   18MOL0     H 2330   1.218   1.581   1.048  0.8937 -1.2738 -1.4377
   18MOL0     H 2331   1.314   1.685   0.953  3.8718 -0.5313 -1.7557
   18MOL0     H 2332   1.437   1.757   1.172 -1.6031  2.2408  0.3084
   18MOL0     H 2333   1.356   1.624   1.249  2.8951 -0.0094  0.6374
   18MOL0     H 2334   1.243   1.896   1.154  0.5481 -0.6342 -1.1870
   18MOL0     H 2335   1.144   1.780   1.226  0.4882 -1.1739 -2.0176
   18MOL0     H 2336   1.397   1.890   1.350 -0.0545  1.0570  1.3523
   18MOL0     H 2337   1.257   1.783   1.418 -0.8342 -0.1123 -0.1193
   18MOL0     H 2338   1.144   2.224   1.457  1.0684 -0.4597 -1.2970
   18MOL0     H 2339   1.218   2.370   1.633 -0.4108 -0.9515 -0.1212
   18MOL0     H 2340   1.486   2.422   2.088 -0.3170 -1.1831  1.7887
   18MOL0     H 2341   1.495   2.580   2.263 -0.9466  1.6743  0.4291
   18MOL0     H 2342   1.480   2.891   2.249 -1.0087 -2.0497 -2.2468
   18MOL0     H 2343   1.485   2.797   2.399 -2.1119 -2.5867 -0.3261
   18MOL0     H 2344   1.454   3.053   2.409 -1.2713  2.0175 -3.9408
   18MOL0     H 2345   1.366   2.957   2.521 -0.4629  0.4069 -1.0695
   18MOL0     H 2346   1.174   2.952   2.432  1.9555 -1.9232  0.1213
   18MOL0     H 2347   1.203   3.022   2.276 -3.2170 -1.9094  1.2452
   18MOL0     H 2348   1.273   3.244   2.375 -0.4205  0.1666  0.8180
   18MOL0     H 2349   1.112   3.196   2.382 -0.6465  0.4783  0.2318
   18MOL0     H 2350   1.212   3.304   2.580 -3.7407  0.1903 -1.6287
   18MOL0     H 2351   1.290   3.155   2.629 -1.1921  0.6381  0.9405
   18MOL0     H 2352   1.079   3.034   2.644 -1.6225 -0.3363 -0.7242
   18MOL0     H 2353   0.985   3.184   2.609 -0.7779  0.5391  0.1909
   18MOL0     H 2354   1.198   3.149   2.829  0.1211  0.3242  1.0282
   18MOL0     H 2355   1.105   3.301   2.790 -1.2826  0.2083 -2.1064
   18MOL0     H 2356   0.969   3.034   2.879 -2.2364  0.2411  3.4598
   18MOL0     H 2357   0.898   3.193   2.863 -0.1482 -1.0188 -0.3864
   18MOL0     H 2358   1.180   2.800   2.063  1.7270  0.2070 -3.1473
   18MOL0     H 2359   1.189   2.628   1.870  1.7790  0.0496 -2.3286
   18MOL0     H 2360   1.496   2.073   1.766 -0.0654 -1.0384 -0.0677
   18MOL0     H 2361   1.466   1.950   1.579  0.7342  0.3425 -2.5077
   18MOL0     H 2362   2.662   1.129   0.952 -3.0784 -2.8547 -2.9125
   18MOL0     H 2363   2.697   0.899   0.904  1.0226  1.8662 -0.5332
   18MOL0     H 2364   2.652   0.458   1.105 -0.7180  0.2580 -3.1385
   18MOL0     H 2365   2.666   0.220   1.040  2.7731 -4.3999  3.8923
   18MOL0     H 2366   3.053   0.020   0.898 -0.4874 -2.6710 -1.4152
   18MOL0     H 2367   2.975   0.129   0.783 -0.8358 -0.4514 -0.7665
   18MOL0     H 2368   2.981  -0.111   0.724  2.1260  2.8776  1.1039
   18MOL0     H 2369   2.884  -0.155   0.872 -1.7619 -0.8365 -1.1933
   18MOL0     H 2370   2.785  -0.009   0.612 -0.5203  0.3801 -0.8751
   18MOL0     H 2371   2.693  -0.031   0.767  0.0304 -0.4814 -0.0369
   18MOL0     H 2372   2.743  -0.292   0.725 -2.9340  0.2439  1.4768
   18MOL0     H 2373   2.606  -0.198   0.686 -1.0297 -0.5600 -2.6558
   18MOL0     H 2374   2.697  -0.298   0.290 -1.1280 -0.3593  0.1391
   18MOL0     H 2375   3.067   0.286   0.917 -1.1788 -0.9977 -1.2586
   18MOL0     H 2376   3.087   0.507   1.028  1.9006 -1.8332 -0.9137
   19MOL0     O 2377   4.923   3.938   2.752 -0.2289  0.3132  0.6906
   19MOL0     C 2378   4.805   3.917   2.722  0.0594 -0.3341 -0.2520
   19MOL0     O 2379   4.734   3.983   2.629 -0.0955 -0.7117  0.0363
   19MOL0     C 2380   4.809   4.065   2.540 -0.0973  0.0534 -1.1728
   19MOL0     C 2381   4.903   4.161   2.579 -0.3889  0.0598  1.0014
   19MOL0     C 2382   4.954   4.236   2.472  0.5352  0.0122 -0.0995
   19MOL0     C 2383   4.927   4.219   2.335  0.0245 -0.0519 -0.1410
   19MOL0     O 2384   4.982   4.307   2.247  0.5693  0.1520  0.6005
   19MOL0     C 2385   5.049   4.247   2.135  0.3774 -0.3798 -0.6423
   19MOL0     C 2386   5.102   4.365   2.040 -0.8515  0.2410 -0.3858
   19MOL0     C 2387   4.979   4.429   1.980  0.0174  0.2593 -0.0212
   19MOL0     C 2388   5.025   4.531   1.867  0.5295  0.9947 -0.5297
   19MOL0     C 2389   5.014   4.681   1.915  0.5790  0.6134  0.0946
   19MOL0     C 2390   5.070   4.773   1.817 -0.0068 -0.1901 -0.0202
   19MOL0     C 2391   5.018   4.918   1.819 -0.8378  0.7356 -0.0310
   19MOL0     C 2392   4.920   4.958   1.706  0.7936  0.3620  0.1542
   19MOL0     N 2393   4.784   4.907   1.736  0.0405  0.1259  0.7149
   19MOL0     C 2394   4.725   4.790   1.679  0.4676 -0.6761 -0.0543
   19MOL0     C 2395   4.610   4.776   1.750 -0.4814  0.2585  0.4072
   19MOL0     C 2396   4.506   4.668   1.732 -0.3802  0.6365  0.0792
   19MOL0     C 2397   4.569   4.530   1.731  0.4045 -0.0148 -0.4668
   19MOL0     C 2398   4.456   4.430   1.763  0.0528  0.5311 -1.0114
   19MOL0     C 2399   4.506   4.288   1.750  0.4862 -0.4123 -0.7294
   19MOL0     O 2400   4.614   4.254   1.837  0.7550 -0.9586  0.2843
   19MOL0     C 2401   4.588   4.246   1.974  0.7954 -0.1782  0.3976
   19MOL0     C 2402   4.652   4.341   2.057  0.7077 -0.3707 -0.2193
   19MOL0     C 2403   4.604   4.359   2.195 -0.3573 -0.4626 -0.1532
   19MOL0     C 2404   4.520   4.271   2.251  0.4631  0.1128 -0.2894
   19MOL0     C 2405   4.475   4.291   2.398 -0.1468  0.0921 -0.0788
   19MOL0     O 2406   4.531   4.389   2.478 -0.7265  0.6065 -0.5167
   19MOL0     C 2407   4.501   4.398   2.611  0.3883  0.5980  1.1532
   19MOL0     C 2408   4.381   4.462   2.652 -0.0623  0.7335  0.3178
   19MOL0     C 2409   4.359   4.471   2.786 -0.7848 -0.3564  0.2382
   19MOL0     C 2410   4.443   4.404   2.880  0.0261  0.9024  0.2692
   19MOL0     O 2411   4.408   4.416   3.012  0.1120  0.0586 -0.5900
   19MOL0     C 2412   4.367   4.538   3.061 -0.8675 -0.5270 -0.4682
   19MOL0     C 2413   4.377   4.538   3.217 -0.6640  0.1490 -0.1247
   19MOL0     C 2414   4.501   4.489   3.280 -0.5490  0.2363  0.3097
   19MOL0     C 2415   4.495   4.474   3.433 -0.0422 -0.1263  0.2643
   19MOL0     C 2416   4.617   4.446   3.529  0.4761  0.0079  0.1330
   19MOL0     C 2417   4.712   4.337   3.487  1.2943 -0.2172  0.1747
   19MOL0     C 2418   4.862   4.350   3.545 -0.2981 -0.0547  0.6980
   19MOL0     C 2419   4.871   4.312   3.690  0.7581  0.3352  0.2355
   19MOL0    Cl 2420   4.843   4.139   3.694 -0.3110  0.3156 -0.0637
   19MOL0     C 2421   4.557   4.332   2.834  0.8139  0.6152  0.8775
   19MOL0     C 2422   4.578   4.333   2.699  0.2628  0.3029 -0.0342
   19MOL0     O 2423   4.384   4.211   2.436 -0.2746  0.6746  0.7183
   19MOL0     C 2424   4.468   4.171   2.171  0.2228 -0.2695 -0.6703
   19MOL0     C 2425   4.494   4.159   2.036 -0.1761  0.1386  0.0153
   19MOL0     N 2426   4.603   4.881   1.837  0.0262  0.3985 -0.5548
   19MOL0     N 2427   4.702   4.953   1.836  0.2400 -0.1768  0.3175
   19MOL0     C 2428   4.838   4.113   2.306  0.5989  0.4345  0.1273
   19MOL0     C 2429   4.769   4.045   2.412 -0.5250  0.0822 -0.3439
   19MOL0     C 2430   4.726   3.803   2.782  0.0581  0.8991  0.0107
   19MOL0     C 2431   4.586   3.801   2.786 -0.2639 -0.0372  0.2536
   19MOL0     C 2432   4.516   3.706   2.869 -0.2785  0.1755 -0.4074
   19MOL0     C 2433   4.587   3.612   2.939 -0.5177 -0.4317 -0.4685
   19MOL0     O 2434   4.527   3.532   3.039 -0.3132  0.1244 -0.1111
   19MOL0     C 2435   4.401   3.465   3.014 -0.4240  0.2454  0.1683
   19MOL0     C 2436   4.428   3.321   2.967 -0.4521 -0.3680 -0.3792
   19MOL0     C 2437   4.474   3.213   3.073  0.2038 -0.1926 -0.2672
   19MOL0     C 2438   4.514   3.103   2.986  0.8380 -0.0874 -0.3656
   19MOL0     C 2439   4.570   2.982   3.059  0.5786 -0.3399 -0.1320
   19MOL0     C 2440   4.618   2.903   3.132  0.3199  1.2502  0.2424
   19MOL0     C 2441   4.728   3.600   2.919  0.3881  0.1284 -0.6267
   19MOL0     C 2442   4.796   3.700   2.846 -0.7867  0.0121 -0.2706
   19MOL0     H 2443   4.927   4.176   2.683  1.6358 -0.7971  0.6884
   19MOL0     H 2444   5.012   4.320   2.508  0.2179  0.9904 -1.7552
   19MOL0     H 2445   4.971   4.186   2.086 -3.6635  1.7423  2.5320
   19MOL0     H 2446   5.137   4.194   2.173  1.3426  2.2328  0.9447
   19MOL0     H 2447   5.178   4.322   1.973  1.5515  0.6964  1.9095
   19MOL0     H 2448   5.167   4.427   2.101 -0.7239  2.7627 -2.8556
   19MOL0     H 2449   4.930   4.480   2.063 -3.5675 -2.6702 -0.0902
   19MOL0     H 2450   4.910   4.346   1.959 -0.4413 -0.3967  3.4706
   19MOL0     H 2451   5.132   4.524   1.846  0.5611 -0.6441  0.0471
   19MOL0     H 2452   4.955   4.513   1.785 -1.2297 -0.6314  1.2466
   19MOL0     H 2453   5.063   4.694   2.012  0.6340 -0.5355  0.2412
   19MOL0     H 2454   4.910   4.705   1.937  0.0748 -2.4213  1.6214
   19MOL0     H 2455   5.044   4.741   1.715  1.8141  1.2790 -1.0102
   19MOL0     H 2456   5.178   4.767   1.835 -0.4308 -4.2049  2.6235
   19MOL0     H 2457   4.979   4.944   1.917  0.4013 -1.8304  1.2314
   19MOL0     H 2458   5.105   4.983   1.811 -1.8400  2.1163 -0.0423
   19MOL0     H 2459   4.953   4.917   1.610 -4.7122 -3.3588 -0.6250
   19MOL0     H 2460   4.910   5.066   1.690 -1.2546  0.1726 -0.0765
   19MOL0     H 2461   4.764   4.723   1.603  0.2802  2.6620 -3.4227
   19MOL0     H 2462   4.460   4.677   1.633  0.3500  2.5769 -0.1167
   19MOL0     H 2463   4.423   4.676   1.803 -0.2923 -3.3428  0.8847
   19MOL0     H 2464   4.635   4.531   1.818 -2.6197 -2.2576  2.0976
   19MOL0     H 2465   4.616   4.511   1.634  0.9446  1.7876 -0.5889
   19MOL0     H 2466   4.428   4.444   1.868  2.8961 -0.4781 -0.0162
   19MOL0     H 2467   4.366   4.443   1.702 -2.3867 -2.2867  1.6387
   19MOL0     H 2468   4.544   4.287   1.647 -1.0936  1.2867 -1.3776
   19MOL0     H 2469   4.421   4.222   1.769 -0.3592  0.8334 -0.0668
   19MOL0     H 2470   4.714   4.414   2.006 -4.0733  3.0545 -1.8659
   19MOL0     H 2471   4.623   4.446   2.257 -5.4108 -2.1174  4.4572
   19MOL0     H 2472   4.318   4.512   2.578 -0.0957  0.8040  0.3939
   19MOL0     H 2473   4.258   4.505   2.807 -0.8713  1.3307 -2.5382
   19MOL0     H 2474   4.266   4.564   3.028 -0.5118  2.5287  0.5328
   19MOL0     H 2475   4.436   4.609   3.014 -2.6243 -0.4779 -3.1868
   19MOL0     H 2476   4.292   4.473   3.242  0.0099 -0.0492  1.7696
   19MOL0     H 2477   4.364   4.636   3.264 -1.7958 -0.4578  0.9013
   19MOL0     H 2478   4.583   4.556   3.251 -2.5855  2.5144 -0.5007
   19MOL0     H 2479   4.530   4.397   3.228  0.0498  1.8900 -2.4863
   19MOL0     H 2480   4.444   4.565   3.464 -1.3963 -0.2367 -1.5058
   19MOL0     H 2481   4.425   4.391   3.443  2.0615 -2.1231 -0.5617
   19MOL0     H 2482   4.590   4.425   3.633 -1.3235  0.5562 -0.1791
   19MOL0     H 2483   4.667   4.543   3.518 -1.6767  1.1627 -0.1611
   19MOL0     H 2484   4.725   4.355   3.380 -3.1063 -0.6532 -0.6277
   19MOL0     H 2485   4.660   4.242   3.500 -2.5414  0.5572 -5.6962
   19MOL0     H 2486   4.938   4.287   3.497  1.6420  0.6398  2.7177
   19MOL0     H 2487   4.896   4.452   3.523  0.3978 -0.5841 -0.8750
   19MOL0     H 2488   4.800   4.370   3.750  1.5744  1.9842 -0.3069
   19MOL0     H 2489   4.975   4.324   3.722  1.4764 -3.8458  0.0588
   19MOL0     H 2490   4.629   4.264   2.880  3.2060  0.6803 -2.4004
   19MOL0     H 2491   4.661   4.269   2.669  0.9343  1.0474  0.2019
   19MOL0     H 2492   4.413   4.096   2.226  2.1971 -0.7634  0.7176
   19MOL0     H 2493   4.458   4.079   1.973  1.4659  0.0350 -0.8336
   19MOL0     H 2494   4.811   4.082   2.205 -4.1331  2.0909  0.6549
   19MOL0     H 2495   4.693   3.969   2.395  0.0555  0.0957 -3.6898
   19MOL0     H 2496   4.530   3.886   2.748 -1.3833  0.7980  3.4215
   19MOL0     H 2497   4.410   3.725   2.883 -0.3553 -0.5411  0.0598
   19MOL0     H 2498   4.339   3.513   2.938 -1.3961 -0.6642  0.3492
   19MOL0     H 2499   4.340   3.452   3.104  0.1461 -1.6152  0.3315
   19MOL0     H 2500   4.335   3.282   2.923  0.0587 -3.7879  1.2416
   19MOL0     H 2501   4.503   3.331   2.888 -0.7764 -0.8121 -0.7564
   19MOL0     H 2502   4.400   3.179   3.146  1.8310 -0.7063  1.2160
   19MOL0     H 2503   4.553   3.252   3.138 -0.0637 -2.5895  1.6364
   19MOL0     H 2504   4.425   3.083   2.926  1.3574 -2.1915 -0.5050
   19MOL0     H 2505   4.599   3.140   2.927 -0.2440  1.3383 -1.0971
   19MOL0     H 2506   4.661   2.829   3.196  0.1653 -0.5947 -1.6973
   19MOL0     H 2507   4.781   3.524   2.977 -0.8980 -0.1269  0.2355
   19MOL0     H 2508   4.904   3.696   2.851 -0.5194 -0.5152 -3.8297
   20MOL0     O 2509   6.619   1.821   8.333 -0.0379  0.5109 -0.3547
   20MOL0     C 2510   6.621   1.701   8.304 -0.4396 -0.4875  0.1254
   20MOL0     O 2511   6.618   1.645   8.181 -0.1570 -0.0938  0.8730
   20MOL0     C 2512   6.624   1.727   8.068 -0.1101 -0.4591  0.1411
   20MOL0     C 2513   6.525   1.702   7.971 -0.7058  0.3208  0.2517
   20MOL0     C 2514   6.546   1.778   7.847  0.2340 -0.5428  0.7362
   20MOL0     C 2515   6.658   1.863   7.823 -0.4495  0.1513  0.0260
   20MOL0     O 2516   6.661   1.925   7.694 -0.3459 -1.5253 -0.6583
   20MOL0     C 2517   6.650   2.067   7.709 -1.2643 -0.9510  0.1784
   20MOL0     C 2518   6.518   2.111   7.639  0.0690  0.4974  0.2426
   20MOL0     C 2519   6.386   2.079   7.715  0.1995  0.2934  0.2183
   20MOL0     C 2520   6.271   2.127   7.625 -0.5815 -0.8753  0.6964
   20MOL0     C 2521   6.125   2.098   7.667 -0.8353  0.9587 -0.1004
   20MOL0     C 2522   6.013   2.163   7.584 -0.5435  0.0163 -0.4161
   20MOL0     C 2523   5.887   2.136   7.652 -0.5186  0.2849 -0.8694
   20MOL0     C 2524   5.846   1.991   7.666  0.3259 -0.5446  0.2038
   20MOL0     N 2525   5.845   1.917   7.539  0.6915 -0.0334 -0.0036
   20MOL0     C 2526   5.741   1.912   7.456  0.2724  0.1706 -0.4382
   20MOL0     C 2527   5.776   1.835   7.355 -0.0310  0.2813 -0.1198
   20MOL0     C 2528   5.700   1.811   7.227  0.3905 -0.2760  0.1569
   20MOL0     C 2529   5.592   1.910   7.182 -0.9178 -0.5193 -0.0639
   20MOL0     C 2530   5.626   2.061   7.166 -0.2078  0.4003 -0.2761
   20MOL0     C 2531   5.747   2.108   7.095  0.4287  0.6070  0.1384
   20MOL0     O 2532   5.716   2.135   6.954 -0.7626 -0.3677 -0.0834
   20MOL0     C 2533   5.649   2.250   6.912  0.3172  0.0145 -0.7773
   20MOL0     C 2534   5.576   2.250   6.796 -0.0595 -0.3092 -0.0891
   20MOL0     C 2535   5.490   2.352   6.753 -0.5753 -0.1414  0.3198
   20MOL0     C 2536   5.500   2.480   6.817  0.5664  0.2834  0.7850
   20MOL0     C 2537   5.434   2.599   6.766 -1.1639 -0.2590  0.5351
   20MOL0     O 2538   5.400   2.598   6.634 -0.4648  0.4146 -0.2264
   20MOL0     C 2539   5.314   2.696   6.604 -0.3673  0.4321 -0.3795
   20MOL0     C 2540   5.173   2.675   6.610  0.0781  0.3005 -0.3400
   20MOL0     C 2541   5.085   2.782   6.584  0.8518  0.5571 -0.7112
   20MOL0     C 2542   5.132   2.913   6.557  0.8367  0.0765 -0.1739
   20MOL0     O 2543   5.049   3.006   6.506  0.3135  0.1090  0.0947
   20MOL0     C 2544   4.998   3.103   6.592 -0.9561 -0.7296 -0.6338
   20MOL0     C 2545   5.061   3.240   6.558  0.0035  0.4562 -0.4621
   20MOL0     C 2546   5.073   3.273   6.414  0.2970 -0.4444  1.0721
   20MOL0     C 2547   5.141   3.404   6.396  0.2214  0.0673  0.7091
   20MOL0     C 2548   5.176   3.451   6.258 -0.2350  0.2506 -0.3067
   20MOL0     C 2549   5.244   3.591   6.279 -0.3440  0.2865  0.6219
   20MOL0     C 2550   5.375   3.591   6.190 -0.8942 -0.5341  0.6765
   20MOL0     C 2551   5.346   3.602   6.038  0.1281  0.3065 -0.8252
   20MOL0    Cl 2552   5.377   3.450   5.938  0.1232  0.2638 -0.3249
   20MOL0     C 2553   5.266   2.936   6.566 -1.1087 -0.1855  0.2513
   20MOL0     C 2554   5.362   2.828   6.596 -0.1141  0.6162  1.0518
   20MOL0     O 2555   5.403   2.681   6.850 -0.4095 -0.1691 -0.1344
   20MOL0     C 2556   5.577   2.481   6.939  0.4141 -0.7371 -0.1748
   20MOL0     C 2557   5.641   2.371   6.994  0.0081  0.6750  0.4780
   20MOL0     N 2558   5.903   1.793   7.386  0.5748  0.1320 -0.4248
   20MOL0     N 2559   5.944   1.831   7.499  0.2239  0.6213  0.1128
   20MOL0     C 2560   6.748   1.890   7.926 -0.0239  0.5992  1.5224
   20MOL0     C 2561   6.732   1.816   8.047  0.2636 -0.2967  0.8624
   20MOL0     C 2562   6.613   1.610   8.428 -0.1350 -0.9643  0.1923
   20MOL0     C 2563   6.598   1.469   8.414 -0.4847 -0.6545 -0.3425
   20MOL0     C 2564   6.592   1.390   8.526 -0.8806 -0.1440  0.3366
   20MOL0     C 2565   6.605   1.444   8.657  0.7217  0.1260 -0.2215
   20MOL0     O 2566   6.607   1.384   8.782  0.0376 -0.4681 -0.2448
   20MOL0     C 2567   6.573   1.246   8.784  0.0348 -0.1856  0.3233
   20MOL0     C 2568   6.690   1.152   8.757  0.6670 -0.1065  0.3232
   20MOL0     C 2569   6.807   1.177   8.852 -0.4562  0.2394  0.3537
   20MOL0     C 2570   6.948   1.144   8.792 -0.1152  0.2057  0.0690
   20MOL0     C 2571   7.041   1.122   8.904  0.7726 -0.1096  1.0908
   20MOL0     C 2572   7.125   1.096   8.990 -0.5333 -0.9428 -0.6841
   20MOL0     C 2573   6.614   1.576   8.665 -0.6551  0.0567 -0.4979
   20MOL0     C 2574   6.615   1.666   8.560 -0.9045  0.3798  0.1859
   20MOL0     H 2575   6.433   1.645   7.981 -1.2481  0.6331 -2.3162
   20MOL0     H 2576   6.474   1.766   7.766  0.9927 -1.6218  0.1999
   20MOL0     H 2577   6.741   2.105   7.660  0.7336 -0.6801  3.7689
   20MOL0     H 2578   6.651   2.107   7.811 -1.1570  2.0925 -0.9019
   20MOL0     H 2579   6.508   2.050   7.549 -1.8535  0.0028  0.7426
   20MOL0     H 2580   6.525   2.216   7.607  2.0111 -0.3494 -2.5093
   20MOL0     H 2581   6.373   2.121   7.815  4.2755 -1.4664  1.7289
   20MOL0     H 2582   6.384   1.972   7.737  0.7569  0.1930 -0.2080
   20MOL0     H 2583   6.283   2.234   7.604  2.0779 -1.1795  0.2512
   20MOL0     H 2584   6.295   2.078   7.530 -1.4689  0.6633 -0.3638
   20MOL0     H 2585   6.104   2.120   7.772  2.8004  0.4908  0.8785
   20MOL0     H 2586   6.121   1.992   7.641 -0.0248  1.3618 -2.0239
   20MOL0     H 2587   6.021   2.120   7.483  0.8451 -1.5390  0.3034
   20MOL0     H 2588   6.030   2.271   7.580 -0.1609  0.1772  2.9346
   20MOL0     H 2589   5.894   2.173   7.755  0.6782  0.0834 -0.8553
   20MOL0     H 2590   5.807   2.190   7.602 -0.4783  1.2407  0.0718
   20MOL0     H 2591   5.738   1.983   7.683  0.0355 -0.3822 -1.3609
   20MOL0     H 2592   5.891   1.944   7.753 -0.6314 -0.2232  0.8879
   20MOL0     H 2593   5.652   1.972   7.471  0.6769  0.1830  2.6643
   20MOL0     H 2594   5.645   1.717   7.242 -0.2394 -0.0668 -0.7292
   20MOL0     H 2595   5.778   1.797   7.151  0.4561 -1.7925  0.4742
   20MOL0     H 2596   5.511   1.912   7.256 -1.0304 -1.2624 -0.1623
   20MOL0     H 2597   5.546   1.883   7.086 -0.8376  1.4325 -0.6909
   20MOL0     H 2598   5.540   2.106   7.117 -0.2622  3.3687  2.2559
   20MOL0     H 2599   5.619   2.111   7.263 -1.9663  0.1556 -0.2547
   20MOL0     H 2600   5.825   2.033   7.114 -1.9070 -2.5296 -1.6495
   20MOL0     H 2601   5.793   2.196   7.141 -0.9999  1.5280 -0.1211
   20MOL0     H 2602   5.598   2.163   6.735  2.1541 -0.2939  0.6091
   20MOL0     H 2603   5.427   2.345   6.665  1.6507  4.0244 -1.8750
   20MOL0     H 2604   5.121   2.582   6.630 -0.2563  0.1631 -1.7398
   20MOL0     H 2605   4.978   2.773   6.600  0.9420  2.0800  1.0205
   20MOL0     H 2606   5.011   3.082   6.699 -2.2819  0.0224 -0.3068
   20MOL0     H 2607   4.893   3.122   6.569 -0.1546  1.6392 -2.7877
   20MOL0     H 2608   5.163   3.241   6.597  0.2595  1.7212 -1.1320
   20MOL0     H 2609   4.999   3.315   6.608  2.1215  0.9880  1.5385
   20MOL0     H 2610   4.971   3.280   6.376  0.5143 -2.8608 -0.1239
   20MOL0     H 2611   5.127   3.207   6.346  0.1155  0.5617 -0.0852
   20MOL0     H 2612   5.068   3.469   6.446 -2.9652 -3.6912  1.5209
   20MOL0     H 2613   5.225   3.411   6.466 -0.3642 -1.0815  1.5526
   20MOL0     H 2614   5.079   3.452   6.206 -1.9089 -0.9885  2.5638
   20MOL0     H 2615   5.247   3.379   6.217  1.6837  1.6355  0.4598
   20MOL0     H 2616   5.264   3.617   6.383 -2.1152  1.8944  0.6277
   20MOL0     H 2617   5.182   3.673   6.239  0.1646 -0.1914 -1.2641
   20MOL0     H 2618   5.447   3.671   6.209  1.0190 -0.8875 -3.9039
   20MOL0     H 2619   5.431   3.498   6.202 -1.4631 -1.3872 -2.4588
   20MOL0     H 2620   5.405   3.680   5.988  1.0719 -0.6408 -1.2413
   20MOL0     H 2621   5.244   3.633   6.016 -0.0075  1.4515  1.1795
   20MOL0     H 2622   5.302   3.038   6.560  1.4753 -1.0133  0.6694
   20MOL0     H 2623   5.465   2.860   6.587  1.3181 -3.8462 -1.6676
   20MOL0     H 2624   5.581   2.571   7.000 -1.1405 -1.6150  1.3004
   20MOL0     H 2625   5.692   2.375   7.090  5.0641  4.0727 -1.8742
   20MOL0     H 2626   6.821   1.962   7.890  0.8546 -1.0528 -0.1857
   20MOL0     H 2627   6.809   1.830   8.122  1.8912  3.2845 -1.1988
   20MOL0     H 2628   6.594   1.426   8.314 -0.1476 -3.0176  0.6138
   20MOL0     H 2629   6.580   1.283   8.515  1.2976 -0.5795  1.5837
   20MOL0     H 2630   6.492   1.230   8.711  0.2602 -1.9878  0.4051
   20MOL0     H 2631   6.524   1.207   8.873 -1.7244 -2.6441 -1.5547
   20MOL0     H 2632   6.665   1.046   8.752  2.6284 -0.6460  1.0626
   20MOL0     H 2633   6.736   1.163   8.658  4.5085 -0.0565  1.9256
   20MOL0     H 2634   6.792   1.126   8.948  0.2616 -0.6005  0.0284
   20MOL0     H 2635   6.815   1.285   8.870  0.8175  0.4314 -1.1051
   20MOL0     H 2636   6.949   1.054   8.729 -0.1118  1.0217 -1.1359
   20MOL0     H 2637   6.985   1.220   8.723 -2.0947 -1.6159 -3.2420
   20MOL0     H 2638   7.210   1.091   9.056  2.9486  1.5513 -4.4626
   20MOL0     H 2639   6.629   1.617   8.764  0.1074 -1.7321  0.1548
   20MOL0     H 2640   6.630   1.770   8.588 -0.8426 -0.0108  1.6845
   21MOL0     O 2641   9.962   8.774   5.942 -0.2211 -0.8116  0.2894
   21MOL0     C 2642  10.065   8.793   6.014  0.5257  0.0403  0.0698
   21MOL0     O 2643  10.070   8.874   6.122 -0.4738  0.5631 -0.6786
   21MOL0     C 2644   9.957   8.886   6.201  0.3065  1.6372  0.0489
   21MOL0     C 2645   9.969   8.976   6.310 -0.2162  1.1012 -0.9429
   21MOL0     C 2646   9.865   9.013   6.397  1.0419  0.1030 -0.4312
   21MOL0     C 2647   9.737   8.948   6.381 -0.6775  0.1377  0.1789
   21MOL0     O 2648   9.619   8.981   6.448  0.2170 -0.0857 -0.0785
   21MOL0     C 2649   9.609   8.932   6.589 -0.3129 -1.5509  0.1252
   21MOL0     C 2650   9.514   8.813   6.598  0.2746 -0.0473 -0.1475
   21MOL0     C 2651   9.371   8.851   6.608 -1.5133  0.4390  0.1658
   21MOL0     C 2652   9.265   8.734   6.617 -0.2012  0.8043  0.7090
   21MOL0     C 2653   9.128   8.760   6.565  0.1453 -0.3479 -0.3250
   21MOL0     C 2654   9.070   8.882   6.621  0.1336  0.1412 -0.5188
   21MOL0     C 2655   8.926   8.900   6.587  0.1407 -0.8734 -0.8762
   21MOL0     C 2656   8.885   8.869   6.444  0.9408 -0.2642  0.0247
   21MOL0     N 2657   8.749   8.904   6.399  0.2690  0.2574  0.2672
   21MOL0     C 2658   8.633   8.825   6.420  0.6942 -0.2224  0.7767
   21MOL0     C 2659   8.544   8.882   6.332  0.0962 -0.0240  0.2671
   21MOL0     C 2660   8.400   8.827   6.308 -0.2955 -0.0964 -0.5504
   21MOL0     C 2661   8.300   8.854   6.425  0.9932  0.3455  0.8294
   21MOL0     C 2662   8.157   8.813   6.401  0.5772 -0.2166 -0.0054
   21MOL0     C 2663   8.090   8.735   6.509  0.3427 -0.1652  0.4952
   21MOL0     O 2664   7.969   8.673   6.453  0.1269 -0.2084  0.3128
   21MOL0     C 2665   7.986   8.540   6.426  0.7722 -0.3821  0.7341
   21MOL0     C 2666   8.034   8.492   6.299 -0.6079  0.3838 -0.3694
   21MOL0     C 2667   8.029   8.353   6.258  0.2671 -0.2310  0.4895
   21MOL0     C 2668   7.972   8.261   6.344 -0.2376 -0.1377  0.7210
   21MOL0     C 2669   7.991   8.117   6.319 -0.1369 -0.6295  0.6312
   21MOL0     O 2670   7.935   8.031   6.411 -0.7013 -0.1472  0.3690
   21MOL0     C 2671   7.965   7.900   6.423 -0.8750 -0.2281  0.4064
   21MOL0     C 2672   8.090   7.854   6.389  0.0593  0.5101  0.5671
   21MOL0     C 2673   8.117   7.717   6.405 -0.5191 -0.6647  0.2162
   21MOL0     C 2674   8.016   7.627   6.439  0.7072  0.0603 -0.1405
   21MOL0     O 2675   8.024   7.491   6.447 -0.0831  0.3306 -0.7911
   21MOL0     C 2676   8.152   7.438   6.452 -0.3730  0.5794  0.9894
   21MOL0     C 2677   8.138   7.301   6.521 -0.7776 -0.5890  0.6030
   21MOL0     C 2678   8.138   7.335   6.673 -0.2855  0.0122 -0.4480
   21MOL0     C 2679   8.084   7.201   6.741 -0.0122  0.4539 -0.7021
   21MOL0     C 2680   8.114   7.189   6.888  0.3070  0.3612 -0.1038
   21MOL0     C 2681   8.016   7.289   6.961 -0.5355  0.3414 -0.0769
   21MOL0     C 2682   8.053   7.281   7.112  0.1929  0.7911 -0.0977
   21MOL0     C 2683   8.003   7.404   7.187  0.8481 -0.2154 -0.5362
   21MOL0    Cl 2684   8.061   7.390   7.351  0.3378  0.0036  0.5204
   21MOL0     C 2685   7.894   7.685   6.485  0.2864  0.7635 -0.5983
   21MOL0     C 2686   7.871   7.818   6.477  0.5169 -0.3412  0.0403
   21MOL0     O 2687   8.040   8.086   6.212 -0.1832 -0.2780  1.0650
   21MOL0     C 2688   7.934   8.307   6.477  0.9201  0.3668  0.1908
   21MOL0     C 2689   7.938   8.442   6.506  0.3497 -0.2372 -0.7990
   21MOL0     N 2690   8.602   8.996   6.282 -0.0522 -0.5677  0.2682
   21MOL0     N 2691   8.726   9.007   6.314  0.5719  0.4297  0.0784
   21MOL0     C 2692   9.729   8.850   6.280 -0.0154 -0.1289  0.4488
   21MOL0     C 2693   9.827   8.820   6.192 -0.6129  0.1509 -0.1524
   21MOL0     C 2694  10.186   8.776   5.935  1.1902  1.1746 -0.0119
   21MOL0     C 2695  10.181   8.716   5.800  0.3667 -0.3945  0.2324
   21MOL0     C 2696  10.294   8.705   5.722 -0.1332  0.7698 -0.0558
   21MOL0     C 2697  10.421   8.743   5.759 -0.4669 -0.3113 -0.2529
   21MOL0     O 2698  10.549   8.716   5.697 -0.4196 -0.4685  0.1379
   21MOL0     C 2699  10.557   8.628   5.587  0.2005  0.9370  0.1430
   21MOL0     C 2700  10.622   8.496   5.622  0.1307 -0.7539 -0.2251
   21MOL0     C 2701  10.767   8.522   5.637 -0.2685 -0.3334 -0.6354
   21MOL0     C 2702  10.853   8.403   5.659 -0.1878 -0.2474 -0.3147
   21MOL0     C 2703  10.897   8.338   5.529 -0.8778  0.4707 -0.7465
   21MOL0     C 2704  10.921   8.291   5.420 -0.1323  0.3897 -0.6294
   21MOL0     C 2705  10.425   8.797   5.892  0.8783 -0.3271 -0.4750
   21MOL0     C 2706  10.311   8.809   5.976  0.0891 -1.2474 -0.3829
   21MOL0     H 2707  10.069   9.013   6.328  0.6190 -1.8383  1.1959
   21MOL0     H 2708   9.880   9.085   6.477 -0.3085 -0.8419  0.7125
   21MOL0     H 2709   9.570   9.022   6.637  1.0166 -0.7362 -0.2588
   21MOL0     H 2710   9.712   8.910   6.621  1.1451 -0.0479 -3.0325
   21MOL0     H 2711   9.539   8.754   6.687 -0.3730 -3.0031 -1.7804
   21MOL0     H 2712   9.532   8.734   6.524  2.1569 -1.7793  2.0027
   21MOL0     H 2713   9.344   8.917   6.525 -1.7317 -1.1816 -1.1220
   21MOL0     H 2714   9.373   8.913   6.698  0.3025  3.0396 -1.5465
   21MOL0     H 2715   9.311   8.655   6.557 -1.2420  1.0658 -0.4718
   21MOL0     H 2716   9.264   8.703   6.722  2.7446  0.5922  0.7521
   21MOL0     H 2717   9.059   8.676   6.581 -3.2576  2.1133 -0.9790
   21MOL0     H 2718   9.154   8.780   6.461  1.0324 -0.6112 -0.1649
   21MOL0     H 2719   9.133   8.967   6.594  2.0773 -1.8544 -2.7359
   21MOL0     H 2720   9.066   8.867   6.729  0.9359 -0.7037 -0.5930
   21MOL0     H 2721   8.854   8.851   6.653 -2.6400  1.9023 -1.5904
   21MOL0     H 2722   8.910   9.008   6.599  3.8733 -0.0568 -1.7999
   21MOL0     H 2723   8.905   8.762   6.432  0.5375 -0.3875  0.4066
   21MOL0     H 2724   8.954   8.929   6.384  3.0615 -1.7641  0.8172
   21MOL0     H 2725   8.618   8.734   6.478 -0.0800 -0.3527  0.3778
   21MOL0     H 2726   8.404   8.724   6.273 -1.5744 -0.3997  0.1506
   21MOL0     H 2727   8.377   8.879   6.215 -1.0206 -0.2067 -0.4321
   21MOL0     H 2728   8.297   8.958   6.461 -3.1478  1.1175 -1.1713
   21MOL0     H 2729   8.342   8.792   6.505  1.6145 -0.5369 -0.1600
   21MOL0     H 2730   8.092   8.900   6.388  0.7210 -0.0328  0.5181
   21MOL0     H 2731   8.155   8.750   6.311 -2.2328 -0.5835  0.2194
   21MOL0     H 2732   8.062   8.800   6.593  0.5043 -0.1871  0.5677
   21MOL0     H 2733   8.153   8.668   6.567 -1.6138 -0.5002  2.3769
   21MOL0     H 2734   8.073   8.561   6.225  4.0163  0.1819  1.5169
   21MOL0     H 2735   8.059   8.328   6.157 -0.5056 -1.9632  0.6461
   21MOL0     H 2736   8.166   7.928   6.366 -0.4575  0.7284 -0.5475
   21MOL0     H 2737   8.207   7.674   6.362 -1.4372  0.6602 -3.4220
   21MOL0     H 2738   8.233   7.492   6.501 -0.7901  1.4886  0.7033
   21MOL0     H 2739   8.182   7.429   6.347  1.2465  0.0244  1.4605
   21MOL0     H 2740   8.218   7.229   6.501 -0.4524 -0.4469  1.3402
   21MOL0     H 2741   8.042   7.266   6.483 -1.5085  0.0741  1.7580
   21MOL0     H 2742   8.073   7.419   6.699 -1.3862 -1.2410  1.0751
   21MOL0     H 2743   8.240   7.361   6.701 -0.1266  1.5973 -2.3042
   21MOL0     H 2744   7.978   7.177   6.736  0.0036  0.4185 -0.9134
   21MOL0     H 2745   8.120   7.111   6.689 -0.3668  0.3257 -0.7267
   21MOL0     H 2746   8.219   7.219   6.894  0.8114 -1.5777  2.4053
   21MOL0     H 2747   8.090   7.098   6.944  1.1672  2.1106  3.3337
   21MOL0     H 2748   7.910   7.262   6.955 -1.6038  2.9547  3.5096
   21MOL0     H 2749   8.019   7.388   6.916 -2.2890  0.3436 -0.2658
   21MOL0     H 2750   8.018   7.191   7.165  0.7176  0.0900 -0.9194
   21MOL0     H 2751   8.161   7.286   7.126  0.2730 -0.3801 -0.1727
   21MOL0     H 2752   7.893   7.404   7.184  0.8269  1.5578 -0.7798
   21MOL0     H 2753   8.053   7.485   7.133  1.5714 -0.2523  0.0727
   21MOL0     H 2754   7.812   7.616   6.503 -0.0044  0.8261 -1.5889
   21MOL0     H 2755   7.780   7.873   6.499  0.0146 -0.0862 -2.3908
   21MOL0     H 2756   7.887   8.238   6.546 -1.2707  3.6291  2.2722
   21MOL0     H 2757   7.902   8.481   6.600 -2.8293  1.6957 -2.6225
   21MOL0     H 2758   9.627   8.818   6.259 -0.9758  0.9794  3.0001
   21MOL0     H 2759   9.792   8.745   6.122  0.4925 -0.4255 -0.1101
   21MOL0     H 2760  10.086   8.688   5.755  1.4018  0.9183 -3.0829
   21MOL0     H 2761  10.266   8.655   5.630 -4.6073 -2.8885  2.8584
   21MOL0     H 2762  10.615   8.679   5.510 -0.2678  0.2896 -0.6535
   21MOL0     H 2763  10.462   8.600   5.540  1.2118 -1.6082 -0.5572
   21MOL0     H 2764  10.585   8.445   5.711  1.2029 -0.9095  0.1456
   21MOL0     H 2765  10.613   8.429   5.535  2.8192  1.9984 -2.8857
   21MOL0     H 2766  10.775   8.583   5.728 -3.3679 -0.5407 -0.1459
   21MOL0     H 2767  10.803   8.586   5.556 -0.2594 -0.7143 -0.9357
   21MOL0     H 2768  10.943   8.432   5.714 -0.2964 -0.8825  0.2063
   21MOL0     H 2769  10.799   8.319   5.705  1.0012 -2.3561 -2.5501
   21MOL0     H 2770  10.943   8.248   5.325 -0.7837 -0.2308 -0.5080
   21MOL0     H 2771  10.516   8.841   5.930  2.7178 -4.6977  0.8959
   21MOL0     H 2772  10.337   8.844   6.076 -2.0888  1.4683 -0.6514
   22MOL0     O 2773   3.609   6.544   4.406 -0.0963 -0.9866  0.3553
   22MOL0     C 2774   3.511   6.509   4.334 -0.0673 -0.4023 -0.7366
   22MOL0     O 2775   3.384   6.515   4.361  0.2167  0.5627 -0.0003
   22MOL0     C 2776   3.337   6.602   4.458  0.3778  0.1495  0.6088
   22MOL0     C 2777   3.391   6.721   4.499 -0.8838  0.1409 -0.2087
   22MOL0     C 2778   3.328   6.802   4.591 -0.1780 -0.8507  0.0353
   22MOL0     C 2779   3.206   6.758   4.648  0.9147 -0.7650 -0.0758
   22MOL0     O 2780   3.148   6.832   4.750  0.9824  0.6930 -0.1299
   22MOL0     C 2781   3.217   6.814   4.866  0.4388  0.1726 -0.6500
   22MOL0     C 2782   3.135   6.775   4.984 -0.4406  0.6427 -0.0164
   22MOL0     C 2783   3.216   6.762   5.119 -0.6241  0.9333 -0.4581
   22MOL0     C 2784   3.134   6.749   5.246  0.1998  0.2652  0.3756
   22MOL0     C 2785   3.218   6.759   5.372 -0.3046 -0.0272  0.0080
   22MOL0     C 2786   3.294   6.892   5.383  0.0784 -0.1438 -0.9949
   22MOL0     C 2787   3.210   7.016   5.355 -0.0379 -0.3071 -0.5471
   22MOL0     C 2788   3.284   7.135   5.424  0.1309  0.2632 -0.8509
   22MOL0     N 2789   3.217   7.265   5.397  0.0175  0.9323  0.4229
   22MOL0     C 2790   3.227   7.347   5.287  0.2025  0.5471  0.2506
   22MOL0     C 2791   3.134   7.444   5.313 -0.1039  0.7476 -1.3267
   22MOL0     C 2792   3.110   7.568   5.238 -0.0105  0.0023 -0.8152
   22MOL0     C 2793   3.212   7.680   5.271 -0.6216 -0.1118 -0.6166
   22MOL0     C 2794   3.246   7.689   5.420  0.2757 -0.2288  0.5522
   22MOL0     C 2795   3.315   7.820   5.457 -0.2774  0.1489 -1.4781
   22MOL0     O 2796   3.453   7.809   5.406  0.7633 -0.2878 -0.0476
   22MOL0     C 2797   3.536   7.912   5.421  0.4842  0.1545  0.4975
   22MOL0     C 2798   3.603   7.966   5.308  0.3972  0.4351  0.5386
   22MOL0     C 2799   3.696   8.066   5.320 -0.0443 -0.3515  0.9739
   22MOL0     C 2800   3.718   8.128   5.448  0.1215  0.1178  0.7633
   22MOL0     C 2801   3.805   8.241   5.473 -0.2187 -0.5904 -0.2473
   22MOL0     O 2802   3.806   8.304   5.593 -0.1429  0.5734 -0.0575
   22MOL0     C 2803   3.892   8.403   5.627 -0.3757  0.5500 -0.3362
   22MOL0     C 2804   3.877   8.447   5.756 -0.5951 -0.7747  0.1039
   22MOL0     C 2805   3.953   8.552   5.816  0.1129 -0.0776  0.4285
   22MOL0     C 2806   4.037   8.631   5.727 -0.0307  0.4875 -0.6660
   22MOL0     O 2807   4.101   8.750   5.757 -0.9562  0.4735  0.0785
   22MOL0     C 2808   4.100   8.794   5.897 -0.6748 -0.8200  0.7890
   22MOL0     C 2809   4.154   8.936   5.892 -0.6866 -0.4181 -0.7418
   22MOL0     C 2810   4.306   8.933   5.853 -0.5270  0.4294  0.7476
   22MOL0     C 2811   4.320   9.011   5.730  0.1036 -0.3376  0.0998
   22MOL0     C 2812   4.449   8.989   5.664  0.7268 -0.2004  0.1498
   22MOL0     C 2813   4.572   9.023   5.746 -0.4619  0.1652 -0.4882
   22MOL0     C 2814   4.693   8.997   5.652  0.0152 -0.3353 -0.3667
   22MOL0     C 2815   4.787   9.122   5.679 -0.3327  0.6979  0.2507
   22MOL0    Cl 2816   4.935   9.088   5.575  0.4502 -0.3622 -0.1289
   22MOL0     C 2817   4.058   8.580   5.595 -0.2090  0.0287 -0.2477
   22MOL0     C 2818   3.996   8.458   5.550  0.3261  0.4188 -0.2222
   22MOL0     O 2819   3.868   8.274   5.374 -0.5666  0.3685 -0.4461
   22MOL0     C 2820   3.645   8.076   5.561 -0.3988 -0.4773  0.4300
   22MOL0     C 2821   3.554   7.969   5.544 -0.6815  0.5036  0.4003
   22MOL0     N 2822   3.057   7.412   5.427  0.0806 -0.4001 -0.5477
   22MOL0     N 2823   3.110   7.305   5.465 -0.0467  0.7550 -0.8723
   22MOL0     C 2824   3.149   6.641   4.612 -0.3116  0.2833 -0.4062
   22MOL0     C 2825   3.214   6.562   4.508 -0.4960 -0.6053 -0.4481
   22MOL0     C 2826   3.545   6.441   4.207 -0.4471  0.0428 -0.8622
   22MOL0     C 2827   3.448   6.386   4.131  1.0365  0.1611  0.1960
   22MOL0     C 2828   3.461   6.321   4.012 -0.2247 -1.3997  1.2185
   22MOL0     C 2829   3.578   6.288   3.963 -0.5512 -0.0382 -1.3188
   22MOL0     O 2830   3.589   6.194   3.860  0.0647 -0.9999  0.3064
   22MOL0     C 2831   3.726   6.178   3.810  0.8483  0.4698  0.1064
   22MOL0     C 2832   3.733   6.086   3.691  0.2330  0.0211 -0.2017
   22MOL0     C 2833   3.733   5.940   3.739  0.0587  0.0216 -0.0410
   22MOL0     C 2834   3.860   5.892   3.796 -0.3808  0.6661 -0.0801
   22MOL0     C 2835   3.952   5.831   3.696  0.1508  0.4621 -0.1023
   22MOL0     C 2836   4.013   5.763   3.613 -0.2445 -0.2151  0.0415
   22MOL0     C 2837   3.689   6.330   4.049  0.1810 -0.0398  0.9152
   22MOL0     C 2838   3.677   6.410   4.167  0.0056  0.3444 -1.1325
   22MOL0     H 2839   3.482   6.756   4.452  0.3549 -1.6760  0.7668
   22MOL0     H 2840   3.377   6.896   4.613  1.7658 -1.1610 -2.4985
   22MOL0     H 2841   3.248   6.917   4.886  1.1210 -0.5508  2.4806
   22MOL0     H 2842   3.300   6.742   4.862  0.9957  0.8194 -0.9826
   22MOL0     H 2843   3.084   6.682   4.955  1.6710 -0.1834 -1.2801
   22MOL0     H 2844   3.056   6.849   5.003 -0.3433  1.0663 -1.1874
   22MOL0     H 2845   3.281   6.850   5.122  0.5771  0.0897 -0.9349
   22MOL0     H 2846   3.280   6.674   5.109 -0.9759  0.5394  0.6449
   22MOL0     H 2847   3.065   6.834   5.243  0.4678  0.5782  2.2054
   22MOL0     H 2848   3.090   6.649   5.245  0.0478  0.3190 -1.2022
   22MOL0     H 2849   3.282   6.671   5.375 -1.9909 -1.3084  0.1187
   22MOL0     H 2850   3.146   6.757   5.454  1.9913 -0.1035  2.1395
   22MOL0     H 2851   3.372   6.891   5.308  0.1867 -0.1759 -0.8821
   22MOL0     H 2852   3.344   6.889   5.480 -2.3901 -0.4566  0.3674
   22MOL0     H 2853   3.224   7.037   5.248  4.3504  2.0520  0.2481
   22MOL0     H 2854   3.109   6.984   5.382 -0.3258 -3.7261 -4.6150
   22MOL0     H 2855   3.383   7.136   5.377  0.8776  0.8960  0.6435
   22MOL0     H 2856   3.299   7.129   5.532  1.3881 -1.6005 -1.0718
   22MOL0     H 2857   3.299   7.334   5.207  0.6535  0.7993  0.6102
   22MOL0     H 2858   3.011   7.608   5.258  0.8347  1.3315  1.1049
   22MOL0     H 2859   3.125   7.547   5.132  0.4127  1.1886 -1.0053
   22MOL0     H 2860   3.173   7.778   5.241  1.4680  0.8403 -0.3862
   22MOL0     H 2861   3.296   7.667   5.203 -0.5595  2.5974 -1.1712
   22MOL0     H 2862   3.162   7.670   5.487  1.8356 -1.2627  2.3059
   22MOL0     H 2863   3.316   7.607   5.435  0.0672 -0.0205  3.0152
   22MOL0     H 2864   3.311   7.832   5.565  0.1010  0.3738 -1.4889
   22MOL0     H 2865   3.260   7.907   5.420 -1.4336  1.5318  2.8700
   22MOL0     H 2866   3.577   7.921   5.213  3.1714 -0.3408  0.0552
   22MOL0     H 2867   3.738   8.091   5.223 -0.9917 -0.9928  0.3837
   22MOL0     H 2868   3.796   8.409   5.817  1.7366 -3.3876  1.8020
   22MOL0     H 2869   3.936   8.576   5.921 -3.3139 -0.4294  0.0714
   22MOL0     H 2870   4.170   8.724   5.944  1.4027 -1.2940 -2.6989
   22MOL0     H 2871   3.999   8.797   5.941 -0.3686 -0.4219  1.4904
   22MOL0     H 2872   4.161   8.991   5.986  1.8229 -0.1205 -1.0125
   22MOL0     H 2873   4.093   8.994   5.822  0.1513 -1.8253 -2.7481
   22MOL0     H 2874   4.348   8.832   5.839  1.1238  0.7879  2.5715
   22MOL0     H 2875   4.358   8.976   5.940 -1.0487 -1.8362  2.2742
   22MOL0     H 2876   4.247   8.988   5.652 -0.0729 -0.2952  0.2513
   22MOL0     H 2877   4.315   9.117   5.757 -0.4503  0.4076 -2.6942
   22MOL0     H 2878   4.449   9.048   5.573  2.0437  0.6441  0.6593
   22MOL0     H 2879   4.450   8.881   5.645  0.4406 -0.2721  0.5332
   22MOL0     H 2880   4.566   8.958   5.834 -0.3151 -1.8179 -1.8667
   22MOL0     H 2881   4.567   9.128   5.775 -0.7709  0.1261 -0.4004
   22MOL0     H 2882   4.748   8.911   5.691 -0.4509  0.3480  1.9574
   22MOL0     H 2883   4.677   8.965   5.548 -0.4959 -3.4501  0.5522
   22MOL0     H 2884   4.823   9.128   5.782  1.5431  2.0101 -0.4021
   22MOL0     H 2885   4.753   9.221   5.644 -2.3175 -0.0502 -0.0770
   22MOL0     H 2886   4.127   8.639   5.535  1.0961  1.2799  2.3225
   22MOL0     H 2887   4.020   8.416   5.452 -1.6808 -0.9439 -0.1742
   22MOL0     H 2888   3.655   8.116   5.662  0.2077 -0.1575  0.2471
   22MOL0     H 2889   3.498   7.935   5.631 -1.7148  1.0026 -0.0614
   22MOL0     H 2890   3.062   6.598   4.662  1.8630 -1.9775  1.7266
   22MOL0     H 2891   3.176   6.465   4.477 -2.2535 -0.7782  1.9517
   22MOL0     H 2892   3.348   6.398   4.169  0.5185  0.0243 -1.0786
   22MOL0     H 2893   3.375   6.296   3.950 -3.2159  2.0337  3.5863
   22MOL0     H 2894   3.786   6.132   3.889 -0.4991  1.4815  1.7889
   22MOL0     H 2895   3.766   6.274   3.778  0.0190  0.2408 -1.7712
   22MOL0     H 2896   3.644   6.102   3.630 -0.6448  2.9839  1.6411
   22MOL0     H 2897   3.827   6.094   3.636  1.4106 -4.2241  0.7742
   22MOL0     H 2898   3.705   5.881   3.651  1.0586  0.5438 -0.7214
   22MOL0     H 2899   3.655   5.945   3.816  1.1498  1.8072  1.0342
   22MOL0     H 2900   3.912   5.970   3.853  1.6645 -0.8043  0.1883
   22MOL0     H 2901   3.847   5.811   3.869  0.2909 -0.7234 -1.4461
   22MOL0     H 2902   4.071   5.709   3.540 -4.7619 -1.5282 -2.9863
   22MOL0     H 2903   3.789   6.308   4.014  0.3140  0.2535  1.1056
   22MOL0     H 2904   3.770   6.445   4.210  0.6096 -0.7500 -1.5001
   23MOL0     O 2905   2.151   3.641   9.080  0.5327  0.2138  0.2130
   23MOL0     C 2906   2.169   3.632   9.197 -0.3193  0.4426 -0.3385
   23MOL0     O 2907   2.226   3.721   9.282 -0.5866  0.1219  0.6236
   23MOL0     C 2908   2.247   3.850   9.234 -0.1609 -0.6378  0.4963
   23MOL0     C 2909   2.355   3.877   9.141  0.1624 -0.2187 -0.8981
   23MOL0     C 2910   2.393   4.014   9.117 -0.6212 -0.9691  0.5796
   23MOL0     C 2911   2.324   4.122   9.180  0.3220 -0.0329 -0.6921
   23MOL0     O 2912   2.363   4.245   9.127 -0.5408  0.0985  0.0954
   23MOL0     C 2913   2.291   4.364   9.159  0.6227  0.3290 -0.4873
   23MOL0     C 2914   2.372   4.481   9.123 -1.4960 -0.7414 -0.7680
   23MOL0     C 2915   2.495   4.490   9.222  0.6785 -0.6509 -0.2290
   23MOL0     C 2916   2.561   4.633   9.224 -0.3699 -0.6138  0.1821
   23MOL0     C 2917   2.679   4.641   9.317  0.0895 -1.3410  0.2185
   23MOL0     C 2918   2.790   4.525   9.302 -0.7034  0.6853  0.9592
   23MOL0     C 2919   2.903   4.559   9.387 -0.0373  0.2885  0.5918
   23MOL0     C 2920   3.028   4.471   9.367  0.0805  0.1287  0.5904
   23MOL0     N 2921   3.107   4.460   9.484 -0.5773  0.5087  1.1360
   23MOL0     C 2922   3.181   4.557   9.554  0.2592  0.9084 -1.5748
   23MOL0     C 2923   3.218   4.512   9.674  0.3877  0.2457 -0.2515
   23MOL0     C 2924   3.282   4.593   9.782 -0.9502  0.3435  0.3876
   23MOL0     C 2925   3.432   4.550   9.790  0.1301  0.6121 -0.3108
   23MOL0     C 2926   3.511   4.612   9.907 -0.5986  0.4520  0.1266
   23MOL0     C 2927   3.482   4.754   9.941 -0.2922 -0.2432  0.0491
   23MOL0     O 2928   3.506   4.844   9.838 -0.5432 -0.2297 -0.2489
   23MOL0     C 2929   3.608   4.933   9.852  0.2226  0.0585  0.2005
   23MOL0     C 2930   3.590   5.044   9.777 -0.9292 -1.2569  0.5464
   23MOL0     C 2931   3.679   5.151   9.770  0.7022 -0.4410 -0.6938
   23MOL0     C 2932   3.805   5.132   9.835  0.3065 -0.5358 -0.8571
   23MOL0     C 2933   3.910   5.235   9.835  0.2021  0.7296 -0.4891
   23MOL0     O 2934   4.018   5.201   9.901 -0.5775 -0.3021  0.2978
   23MOL0     C 2935   4.115   5.287   9.959  0.3936 -1.0540  0.3432
   23MOL0     C 2936   4.248   5.247   9.991  0.6188 -0.4583 -0.5828
   23MOL0     C 2937   4.337   5.343  10.050  0.5404  0.0750  0.3003
   23MOL0     C 2938   4.299   5.475  10.084  0.4968  0.2064 -0.1664
   23MOL0     O 2939   4.399   5.562  10.114 -0.0607  0.0649 -0.7458
   23MOL0     C 2940   4.441   5.553  10.251  0.1510 -0.2640  0.8879
   23MOL0     C 2941   4.566   5.637  10.261 -0.5341  0.2161  0.6599
   23MOL0     C 2942   4.634   5.612  10.405 -0.0109 -0.2067 -0.3433
   23MOL0     C 2943   4.732   5.723  10.439  0.1370  0.1920 -0.1430
   23MOL0     C 2944   4.818   5.690  10.565 -1.3026  0.2615  0.4827
   23MOL0     C 2945   4.748   5.655  10.696 -0.5487 -0.0948 -0.8692
   23MOL0     C 2946   4.836   5.606  10.819 -0.4142 -0.7884  0.1615
   23MOL0     C 2947   4.752   5.592  10.940 -0.5244 -0.4499  0.9303
   23MOL0    Cl 2948   4.706   5.742  10.999  0.6004 -0.3554 -0.0680
   23MOL0     C 2949   4.167   5.516  10.056  0.5787 -0.3586 -0.0247
   23MOL0     C 2950   4.080   5.426   9.987  0.4314  0.1023  0.1988
   23MOL0     O 2951   3.890   5.337   9.767  0.1232 -0.1484 -1.0123
   23MOL0     C 2952   3.824   5.007   9.912 -0.1996 -1.0043  0.3190
   23MOL0     C 2953   3.722   4.910   9.918 -1.4125 -0.5670  0.5469
   23MOL0     N 2954   3.150   4.392   9.682 -0.2783  0.0315 -0.7561
   23MOL0     N 2955   3.094   4.357   9.568 -0.5645 -0.4656  0.8508
   23MOL0     C 2956   2.213   4.089   9.260 -0.7643 -0.7394 -0.4049
   23MOL0     C 2957   2.174   3.958   9.283 -0.3603  0.1046  0.1264
   23MOL0     C 2958   2.134   3.501   9.261 -0.2034 -0.3951  0.1895
   23MOL0     C 2959   2.145   3.474   9.395  0.2322  0.5611 -0.5316
   23MOL0     C 2960   2.115   3.349   9.456 -0.0388  0.0418  0.2114
   23MOL0     C 2961   2.053   3.246   9.371 -0.0197 -0.3035  0.5785
   23MOL0     O 2962   2.014   3.121   9.422 -0.1588 -0.1490  0.5251
   23MOL0     C 2963   1.968   3.120   9.550 -0.3391 -0.3893  0.1623
   23MOL0     C 2964   1.945   2.977   9.589  0.0212  0.3423  0.2025
   23MOL0     C 2965   1.831   2.910   9.506 -0.3025 -0.3940 -0.2743
   23MOL0     C 2966   1.856   2.861   9.367 -0.7996  0.3199  1.0886
   23MOL0     C 2967   1.787   2.738   9.329 -0.9495  0.3086 -0.2892
   23MOL0     C 2968   1.710   2.639   9.311  1.0743  0.2671 -0.3547
   23MOL0     C 2969   2.038   3.272   9.230  0.5776  0.2493  0.3913
   23MOL0     C 2970   2.077   3.403   9.188 -0.3587  0.0097 -0.1688
   23MOL0     H 2971   2.414   3.793   9.106  0.7275 -0.9758  1.6212
   23MOL0     H 2972   2.474   4.034   9.048 -1.5063  0.9619  0.0300
   23MOL0     H 2973   2.273   4.377   9.266  2.6037 -0.4030 -0.0274
   23MOL0     H 2974   2.202   4.371   9.096  0.2256 -0.5264 -0.0396
   23MOL0     H 2975   2.311   4.572   9.126 -2.6171 -1.4927  0.2453
   23MOL0     H 2976   2.405   4.472   9.019 -0.2369 -2.2148 -0.2730
   23MOL0     H 2977   2.553   4.404   9.186 -1.4667 -2.2758 -0.0020
   23MOL0     H 2978   2.474   4.464   9.326  3.5426 -1.6875  0.1963
   23MOL0     H 2979   2.588   4.673   9.126 -3.1809 -1.6469 -1.1305
   23MOL0     H 2980   2.491   4.708   9.262 -0.9777 -1.2958  0.4418
   23MOL0     H 2981   2.635   4.642   9.417  0.0387  1.9963  0.2639
   23MOL0     H 2982   2.727   4.736   9.293 -1.4678 -0.4442  0.5557
   23MOL0     H 2983   2.814   4.511   9.197  1.3165  1.4697  1.2624
   23MOL0     H 2984   2.757   4.425   9.331  0.9125 -0.7671 -1.8384
   23MOL0     H 2985   2.930   4.665   9.394 -0.0376  0.5636 -2.3305
   23MOL0     H 2986   2.868   4.541   9.489  1.2790  1.3395  1.2685
   23MOL0     H 2987   3.098   4.510   9.293  0.9621 -0.4474  1.1085
   23MOL0     H 2988   2.982   4.376   9.338  0.6931  0.0309 -0.0926
   23MOL0     H 2989   3.201   4.661   9.529  1.3272  1.1426  0.0856
   23MOL0     H 2990   3.247   4.562   9.881  3.1659 -2.7351  1.1737
   23MOL0     H 2991   3.274   4.698   9.753  1.8581  0.2480 -1.0766
   23MOL0     H 2992   3.476   4.587   9.697  0.3627 -0.3869 -0.6072
   23MOL0     H 2993   3.435   4.441   9.787 -2.3328  0.4869 -0.0092
   23MOL0     H 2994   3.503   4.554   9.999 -4.3058  2.7899  1.5181
   23MOL0     H 2995   3.617   4.609   9.880 -1.0752 -1.4110 -1.8178
   23MOL0     H 2996   3.533   4.794  10.028 -1.2735  2.1925 -0.4165
   23MOL0     H 2997   3.375   4.760   9.965 -0.3632 -0.2208 -0.2625
   23MOL0     H 2998   3.493   5.054   9.730 -1.5363 -3.0282  1.3394
   23MOL0     H 2999   3.651   5.239   9.714 -2.9697 -1.4075 -0.6228
   23MOL0     H 3000   4.265   5.143   9.966 -1.2658 -0.6493 -1.2449
   23MOL0     H 3001   4.438   5.314  10.078  0.5981  1.0701  1.2136
   23MOL0     H 3002   4.465   5.448  10.265  1.3617 -0.7075 -3.2002
   23MOL0     H 3003   4.366   5.585  10.325  0.4092  1.2801  0.5165
   23MOL0     H 3004   4.546   5.741  10.235  0.8629  0.6195  1.1338
   23MOL0     H 3005   4.624   5.599  10.176 -2.3232 -0.9605 -0.1160
   23MOL0     H 3006   4.688   5.517  10.417  1.9642  1.0741  1.8813
   23MOL0     H 3007   4.556   5.614  10.482  1.0863 -0.8400  0.8333
   23MOL0     H 3008   4.784   5.751  10.347 -0.5600  2.5247  0.1024
   23MOL0     H 3009   4.663   5.802  10.473 -0.7160 -1.7895  3.2478
   23MOL0     H 3010   4.889   5.773  10.575 -1.1724  0.4237 -1.4388
   23MOL0     H 3011   4.880   5.603  10.543  0.8192  1.7008  0.4901
   23MOL0     H 3012   4.673   5.583  10.661  2.2804 -1.5352 -4.6990
   23MOL0     H 3013   4.691   5.742  10.730 -0.6121  0.0174 -1.2482
   23MOL0     H 3014   4.881   5.511  10.788  2.3967  0.2995  0.5902
   23MOL0     H 3015   4.919   5.674  10.840 -2.6788  1.7372  1.4193
   23MOL0     H 3016   4.815   5.535  11.009  0.4541  1.6669  1.9027
   23MOL0     H 3017   4.660   5.539  10.915  1.1691 -1.3872 -4.5398
   23MOL0     H 3018   4.148   5.621  10.077  2.6615  0.3568 -1.3423
   23MOL0     H 3019   3.978   5.457   9.968  0.1024  0.0409  1.7173
   23MOL0     H 3020   3.916   4.996   9.969  0.5453  1.3614 -0.3104
   23MOL0     H 3021   3.756   4.820   9.969  0.5580 -1.0526 -1.4721
   23MOL0     H 3022   2.161   4.171   9.307 -4.2400  0.4479 -5.5066
   23MOL0     H 3023   2.088   3.936   9.345 -0.3892  0.9105  0.3847
   23MOL0     H 3024   2.188   3.545   9.465 -3.0795  0.1936  2.1168
   23MOL0     H 3025   2.124   3.342   9.564  0.4933 -2.4729  0.0728
   23MOL0     H 3026   1.883   3.185   9.571  1.5450  1.8365  1.4596
   23MOL0     H 3027   2.044   3.158   9.620  1.6862 -1.8981 -1.1016
   23MOL0     H 3028   2.037   2.920   9.575 -0.4655 -0.1435 -1.1751
   23MOL0     H 3029   1.912   2.974   9.693 -0.7736  1.6850  0.0164
   23MOL0     H 3030   1.749   2.981   9.494  0.4709  0.7801  1.0771
   23MOL0     H 3031   1.792   2.829   9.568 -4.1244 -0.1863 -2.1208
   23MOL0     H 3032   1.816   2.940   9.302  1.5566  1.2103  0.6286
   23MOL0     H 3033   1.963   2.859   9.347 -0.7287 -0.5128  1.5005
   23MOL0     H 3034   1.645   2.554   9.307 -0.1060  0.5868  4.9066
   23MOL0     H 3035   2.000   3.202   9.156  0.1635  2.9404 -2.1038
   23MOL0     H 3036   2.092   3.405   9.081  0.3815 -2.5538 -0.1886
   24MOL0     O 3037   3.804   7.209   2.002 -1.0400  0.3074  0.6571
   24MOL0     C 3038   3.889   7.248   2.084 -0.5990  0.5589 -0.8578
   24MOL0     O 3039   3.891   7.369   2.155  0.2571  0.7618 -0.4583
   24MOL0     C 3040   3.800   7.456   2.116 -0.3626 -0.6804  0.2105
   24MOL0     C 3041   3.693   7.481   2.199  0.0854  0.3128  0.1399
   24MOL0     C 3042   3.603   7.587   2.169 -0.1088  0.4563 -0.1081
   24MOL0     C 3043   3.625   7.666   2.060 -0.3186 -0.8503 -0.1080
   24MOL0     O 3044   3.545   7.772   2.041  0.3433  0.2173  0.1221
   24MOL0     C 3045   3.602   7.896   2.048  0.3266 -1.1956 -0.5607
   24MOL0     C 3046   3.505   8.001   2.097 -0.3367 -0.1088 -0.1147
   24MOL0     C 3047   3.564   8.141   2.103 -0.8978  0.1812  0.1205
   24MOL0     C 3048   3.454   8.251   2.095  0.0616  0.3085  0.9159
   24MOL0     C 3049   3.390   8.282   2.232  0.9330  0.1654 -0.4369
   24MOL0     C 3050   3.280   8.387   2.228  0.7635  0.6061 -1.2225
   24MOL0     C 3051   3.338   8.517   2.190  0.0101 -0.2638 -0.1482
   24MOL0     C 3052   3.233   8.627   2.167  0.3747  0.0021  1.7797
   24MOL0     N 3053   3.194   8.633   2.026 -1.4723 -0.3805 -0.4655
   24MOL0     C 3054   3.099   8.558   1.960 -0.1240 -0.5756 -0.6474
   24MOL0     C 3055   3.108   8.585   1.830  0.1229 -0.4255 -0.9708
   24MOL0     C 3056   3.037   8.501   1.723  0.8064 -0.3372 -0.7883
   24MOL0     C 3057   3.126   8.404   1.661 -0.3201 -0.6492 -0.2613
   24MOL0     C 3058   3.145   8.281   1.744  0.1204  0.2046 -0.1641
   24MOL0     C 3059   3.225   8.173   1.660  1.1716  0.0499 -0.2406
   24MOL0     O 3060   3.265   8.060   1.745  0.9076  0.2368  0.3728
   24MOL0     C 3061   3.273   7.940   1.676 -0.6123 -0.6587  0.3641
   24MOL0     C 3062   3.176   7.893   1.587  0.6165 -0.3385 -0.5879
   24MOL0     C 3063   3.196   7.762   1.532  0.0387 -0.0727 -0.4769
   24MOL0     C 3064   3.300   7.677   1.562 -0.7130 -0.1607  0.6662
   24MOL0     C 3065   3.309   7.544   1.516 -0.0618  0.0227 -0.2355
   24MOL0     O 3066   3.436   7.506   1.486  0.1529  0.1263  0.4726
   24MOL0     C 3067   3.462   7.371   1.488 -0.5167 -0.2514  0.1691
   24MOL0     C 3068   3.550   7.333   1.597  0.5018 -0.8773  0.0612
   24MOL0     C 3069   3.583   7.206   1.618  0.0602  0.3344  0.8838
   24MOL0     C 3070   3.540   7.094   1.544 -0.7853 -0.5614  0.0654
   24MOL0     O 3071   3.578   6.968   1.580  0.1713  0.4059  0.5275
   24MOL0     C 3072   3.521   6.859   1.500 -0.4574  0.0307 -0.0985
   24MOL0     C 3073   3.602   6.733   1.492 -0.2269  0.4638 -0.1680
   24MOL0     C 3074   3.532   6.616   1.416 -0.5049 -1.3273 -0.3942
   24MOL0     C 3075   3.512   6.640   1.265  0.0140 -0.9629  0.0190
   24MOL0     C 3076   3.446   6.521   1.190  0.0702 -0.9508 -0.6898
   24MOL0     C 3077   3.346   6.569   1.082 -0.6268 -0.6328  0.3799
   24MOL0     C 3078   3.316   6.461   0.975 -0.8433  0.0295 -0.3076
   24MOL0     C 3079   3.243   6.343   1.022  0.4557  0.9135  0.0526
   24MOL0    Cl 3080   3.236   6.210   0.901  0.2015  0.0744 -0.2380
   24MOL0     C 3081   3.449   7.134   1.441 -0.6750 -0.0119 -0.6667
   24MOL0     C 3082   3.418   7.272   1.404 -0.5471  0.3939 -0.2390
   24MOL0     O 3083   3.209   7.478   1.506  0.4129  0.1988  0.2047
   24MOL0     C 3084   3.403   7.728   1.653  0.3341 -0.3253  0.6488
   24MOL0     C 3085   3.391   7.859   1.699  0.8071 -0.3500  0.2604
   24MOL0     N 3086   3.202   8.684   1.804  0.1101  1.1408 -0.2409
   24MOL0     N 3087   3.246   8.718   1.924 -0.9238  0.1030 -0.1323
   24MOL0     C 3088   3.720   7.628   1.968  0.6575  0.3790 -0.4333
   24MOL0     C 3089   3.806   7.528   1.993  0.3072  0.3425 -0.2847
   24MOL0     C 3090   3.990   7.139   2.143  0.1658 -0.3401  0.3447
   24MOL0     C 3091   3.994   7.009   2.093 -0.1416 -0.2457  0.4338
   24MOL0     C 3092   4.081   6.917   2.150  0.0430 -0.3416  0.3845
   24MOL0     C 3093   4.166   6.953   2.248  0.1625  0.6164 -1.0681
   24MOL0     O 3094   4.248   6.858   2.297  0.6662 -0.3169  0.5905
   24MOL0     C 3095   4.235   6.847   2.434  0.2240  0.7625 -0.3912
   24MOL0     C 3096   4.320   6.727   2.476  0.7757  0.4821 -0.4601
   24MOL0     C 3097   4.266   6.590   2.435 -0.4835 -0.4826  0.3631
   24MOL0     C 3098   4.366   6.467   2.467  0.2358 -0.6009  0.0668
   24MOL0     C 3099   4.491   6.480   2.398  0.9293 -0.6975  0.2156
   24MOL0     C 3100   4.599   6.497   2.347  0.6052  1.0150 -0.5092
   24MOL0     C 3101   4.168   7.087   2.291 -0.4997 -0.8328  0.2637
   24MOL0     C 3102   4.080   7.179   2.241 -0.6711  0.3145 -0.0263
   24MOL0     H 3103   3.691   7.435   2.298  3.5167 -3.7066 -1.3845
   24MOL0     H 3104   3.527   7.612   2.243  2.2746  0.7823  2.3952
   24MOL0     H 3105   3.658   7.930   1.961 -0.2434  0.3846 -0.3460
   24MOL0     H 3106   3.670   7.888   2.134  0.8934 -3.0300 -1.1261
   24MOL0     H 3107   3.462   7.979   2.196 -2.1885  2.4911 -0.2334
   24MOL0     H 3108   3.416   7.989   2.035 -1.7292 -0.3618  1.8384
   24MOL0     H 3109   3.628   8.157   2.015 -1.2147 -0.7465 -0.3036
   24MOL0     H 3110   3.624   8.158   2.192  1.5819 -1.1147 -1.2014
   24MOL0     H 3111   3.509   8.335   2.054  2.2692 -0.7167  1.5964
   24MOL0     H 3112   3.371   8.215   2.033  0.0762 -2.0884  2.1364
   24MOL0     H 3113   3.475   8.303   2.297  2.0354  1.8908 -2.2987
   24MOL0     H 3114   3.348   8.191   2.277  1.1599  0.3695  0.1865
   24MOL0     H 3115   3.223   8.380   2.321 -1.1145 -1.8112 -2.4318
   24MOL0     H 3116   3.207   8.355   2.153  1.0816 -0.3023 -1.1606
   24MOL0     H 3117   3.417   8.546   2.260  1.7316 -0.0819 -2.0331
   24MOL0     H 3118   3.386   8.510   2.092  1.8178 -2.5370  0.8055
   24MOL0     H 3119   3.294   8.716   2.183  2.9326 -1.6705  1.9496
   24MOL0     H 3120   3.143   8.620   2.228 -1.0393 -3.2741 -0.3862
   24MOL0     H 3121   3.037   8.479   2.000  0.2780 -1.3161 -1.4555
   24MOL0     H 3122   2.991   8.559   1.642 -0.7937 -0.3553  0.0696
   24MOL0     H 3123   2.949   8.451   1.765  0.9776  1.9782  2.6670
   24MOL0     H 3124   3.225   8.447   1.639 -0.6580  0.6066  0.5682
   24MOL0     H 3125   3.087   8.372   1.564 -1.7874  0.7526 -0.1818
   24MOL0     H 3126   3.204   8.310   1.831  1.8749  3.0552 -2.1144
   24MOL0     H 3127   3.055   8.225   1.768  1.9893 -2.2878  1.5137
   24MOL0     H 3128   3.307   8.214   1.601 -0.1420 -2.8089 -4.4781
   24MOL0     H 3129   3.158   8.144   1.578  2.5329  0.6088 -1.5911
   24MOL0     H 3130   3.083   7.946   1.567 -0.5607 -2.5916 -1.3901
   24MOL0     H 3131   3.119   7.724   1.467 -1.3101  2.1847 -0.2925
   24MOL0     H 3132   3.591   7.406   1.665 -0.8249 -0.0650  0.0397
   24MOL0     H 3133   3.648   7.182   1.702  0.0644 -2.3895  0.2243
   24MOL0     H 3134   3.508   6.877   1.393  0.0970 -2.9651 -0.7620
   24MOL0     H 3135   3.427   6.830   1.549 -0.4013 -2.4514 -1.3252
   24MOL0     H 3136   3.634   6.709   1.594 -0.9886  1.0084  0.2148
   24MOL0     H 3137   3.689   6.769   1.436  1.2667 -1.0699  1.0414
   24MOL0     H 3138   3.438   6.587   1.464 -0.4218  0.3940  0.9208
   24MOL0     H 3139   3.606   6.535   1.420  1.0613 -0.0760 -2.4440
   24MOL0     H 3140   3.454   6.731   1.250  1.0278 -0.3644 -0.3977
   24MOL0     H 3141   3.615   6.644   1.227  0.3607  1.6090  1.0071
   24MOL0     H 3142   3.395   6.463   1.267  1.5180 -2.0912 -0.5378
   24MOL0     H 3143   3.520   6.452   1.148  1.4537  0.6452 -0.9812
   24MOL0     H 3144   3.404   6.646   1.032  0.9019 -0.0297  2.9054
   24MOL0     H 3145   3.259   6.613   1.132  0.7940  1.1401  1.3990
   24MOL0     H 3146   3.275   6.499   0.881  1.9475 -2.0272 -2.5511
   24MOL0     H 3147   3.417   6.436   0.941 -1.3354  1.4894 -3.1925
   24MOL0     H 3148   3.138   6.368   1.041  0.1130  1.4588 -2.2715
   24MOL0     H 3149   3.281   6.297   1.114  0.1685 -0.5163 -0.5200
   24MOL0     H 3150   3.411   7.053   1.380 -1.4271 -0.9308  0.9596
   24MOL0     H 3151   3.337   7.296   1.336 -1.9263  0.5350  1.3904
   24MOL0     H 3152   3.487   7.670   1.689  0.1653 -0.3128  1.0611
   24MOL0     H 3153   3.484   7.887   1.748  0.6782 -2.7328  2.0381
   24MOL0     H 3154   3.724   7.690   1.879 -0.9234  3.2268  1.3447
   24MOL0     H 3155   3.883   7.499   1.922 -0.2542  1.7035 -1.4878
   24MOL0     H 3156   3.924   6.973   2.018  0.9158 -1.1612 -0.1378
   24MOL0     H 3157   4.086   6.815   2.114 -1.8504  0.2580 -1.8055
   24MOL0     H 3158   4.131   6.839   2.469  0.1520 -1.8194 -0.9551
   24MOL0     H 3159   4.276   6.935   2.484 -0.2271  1.6268 -1.4832
   24MOL0     H 3160   4.424   6.741   2.448  0.8085  1.0076 -0.0878
   24MOL0     H 3161   4.322   6.712   2.584 -1.3447 -0.9114 -0.5483
   24MOL0     H 3162   4.238   6.588   2.329  0.1492 -1.7346  0.1979
   24MOL0     H 3163   4.181   6.565   2.500  1.3901 -0.7590  2.8606
   24MOL0     H 3164   4.372   6.466   2.577 -1.6137  1.3548  0.2412
   24MOL0     H 3165   4.316   6.376   2.432 -0.3212  0.7899 -3.0445
   24MOL0     H 3166   4.700   6.508   2.310  1.0228 -0.5108  0.1040
   24MOL0     H 3167   4.220   7.116   2.381 -1.3470  1.4662  0.0640
   24MOL0     H 3168   4.069   7.282   2.272 -1.4393 -0.2009  1.5332
   25MOL0     O 3169   8.618   3.455   4.172  0.2639  0.1436 -0.1869
   25MOL0     C 3170   8.579   3.553   4.242  0.2129  0.8879  0.3335
   25MOL0     O 3171   8.532   3.669   4.192 -0.0422 -0.2209  0.2023
   25MOL0     C 3172   8.528   3.682   4.053  0.8691 -0.7961  0.2933
   25MOL0     C 3173   8.580   3.808   4.006 -0.1576  0.4198  0.3503
   25MOL0     C 3174   8.548   3.839   3.865 -0.1265 -0.1301  0.3646
   25MOL0     C 3175   8.494   3.730   3.783 -0.5613  0.0001  0.3696
   25MOL0     O 3176   8.488   3.770   3.651  0.1314  0.7812  0.2690
   25MOL0     C 3177   8.399   3.693   3.556  0.3188 -0.8017  0.5238
   25MOL0     C 3178   8.443   3.731   3.417  0.0499  0.3380  0.0067
   25MOL0     C 3179   8.442   3.888   3.394  0.1079  0.0525 -0.2306
   25MOL0     C 3180   8.494   3.906   3.247  0.2213 -0.0878  0.7023
   25MOL0     C 3181   8.533   4.049   3.199  0.0528  0.2508  0.2151
   25MOL0     C 3182   8.420   4.155   3.201  0.7985  0.3979  0.5940
   25MOL0     C 3183   8.438   4.277   3.108 -0.0404 -0.0028  0.1922
   25MOL0     C 3184   8.574   4.343   3.135 -0.2089 -0.7230  0.1604
   25MOL0     N 3185   8.593   4.443   3.025  0.0399 -0.3874  0.2444
   25MOL0     C 3186   8.670   4.420   2.918 -0.1729 -0.4110 -0.2005
   25MOL0     C 3187   8.663   4.527   2.832  0.0470 -0.0634 -0.3356
   25MOL0     C 3188   8.728   4.539   2.700 -0.0835 -0.0000 -0.2642
   25MOL0     C 3189   8.656   4.454   2.594 -1.2898 -0.5799  0.2511
   25MOL0     C 3190   8.616   4.305   2.641 -0.4811 -0.5853 -0.5180
   25MOL0     C 3191   8.543   4.233   2.530  0.8374 -0.2837 -0.2233
   25MOL0     O 3192   8.410   4.281   2.521 -0.3463  0.8833 -0.4740
   25MOL0     C 3193   8.312   4.251   2.611 -0.8937 -0.6198 -0.6885
   25MOL0     C 3194   8.323   4.181   2.735 -0.0884 -0.4284 -0.0100
   25MOL0     C 3195   8.216   4.171   2.829 -0.1405  0.5417 -0.3560
   25MOL0     C 3196   8.094   4.229   2.799 -0.0890 -1.1802  0.8587
   25MOL0     C 3197   7.987   4.211   2.890  0.7859  0.6655 -1.5906
   25MOL0     O 3198   7.870   4.279   2.870 -0.3423 -0.6053 -0.1047
   25MOL0     C 3199   7.766   4.258   2.962 -0.3980  0.0785  1.0396
   25MOL0     C 3200   7.744   4.152   3.051  0.2916 -0.1388  0.6881
   25MOL0     C 3201   7.645   4.169   3.140 -0.7328  1.1267 -0.6246
   25MOL0     C 3202   7.549   4.277   3.151  0.4634 -0.0613 -0.2397
   25MOL0     O 3203   7.439   4.293   3.231 -0.4379  0.6894 -0.3186
   25MOL0     C 3204   7.396   4.161   3.277 -0.5467 -0.5202 -0.1051
   25MOL0     C 3205   7.272   4.172   3.378  0.2732  0.1766 -0.3367
   25MOL0     C 3206   7.317   4.197   3.522  0.0866  0.2582  0.1533
   25MOL0     C 3207   7.190   4.231   3.595 -0.4451  0.1959  0.6276
   25MOL0     C 3208   7.230   4.251   3.746 -0.1598  0.0059  0.8296
   25MOL0     C 3209   7.115   4.325   3.819 -1.0326 -0.4714  0.0878
   25MOL0     C 3210   6.980   4.252   3.823  0.2019 -0.4477  0.3660
   25MOL0     C 3211   6.895   4.304   3.703 -0.3951  0.2922  0.3974
   25MOL0    Cl 3212   6.814   4.463   3.737  0.0314  0.0429 -0.1732
   25MOL0     C 3213   7.565   4.370   3.048 -0.5031 -0.5102  0.7576
   25MOL0     C 3214   7.666   4.358   2.954  0.3859  0.9673 -0.0761
   25MOL0     O 3215   8.014   4.136   2.992  0.2520  0.5805  0.2796
   25MOL0     C 3216   8.085   4.300   2.683  0.0192 -0.6032  0.1806
   25MOL0     C 3217   8.193   4.316   2.583  0.6383 -0.8484 -0.2805
   25MOL0     N 3218   8.571   4.615   2.885 -0.2382  0.8906  0.1238
   25MOL0     N 3219   8.534   4.564   3.003 -0.2430 -0.1719 -0.1893
   25MOL0     C 3220   8.453   3.608   3.837  0.4409 -0.8018 -0.3958
   25MOL0     C 3221   8.459   3.593   3.974  0.5456  0.6578  0.7513
   25MOL0     C 3222   8.591   3.544   4.392  0.8715  0.5728 -0.3121
   25MOL0     C 3223   8.654   3.436   4.457  0.6368 -0.1201  0.1473
   25MOL0     C 3224   8.660   3.425   4.595 -0.4798  0.6720  0.6551
   25MOL0     C 3225   8.585   3.505   4.673  0.3277 -0.3985 -0.6972
   25MOL0     O 3226   8.573   3.492   4.810 -0.8232 -0.8343 -0.5455
   25MOL0     C 3227   8.573   3.359   4.862 -0.7304 -0.8459 -0.2600
   25MOL0     C 3228   8.497   3.371   5.001 -0.8377  0.6431  0.6603
   25MOL0     C 3229   8.347   3.410   4.968 -0.0767 -1.3419 -0.2755
   25MOL0     C 3230   8.243   3.317   5.031  0.2726 -0.1065  0.8301
   25MOL0     C 3231   8.112   3.384   5.028 -0.1752  0.6134  0.7893
   25MOL0     C 3232   8.001   3.431   5.019 -0.0302 -0.9376  0.0124
   25MOL0     C 3233   8.529   3.620   4.609 -0.7880 -0.0788  0.3363
   25MOL0     C 3234   8.534   3.640   4.464 -0.5405  0.1095 -0.4649
   25MOL0     H 3235   8.631   3.890   4.055  1.3763  1.3802 -2.5634
   25MOL0     H 3236   8.573   3.936   3.824 -0.3502  0.9106  2.5428
   25MOL0     H 3237   8.297   3.730   3.571  0.3740 -0.6490  0.5195
   25MOL0     H 3238   8.401   3.585   3.573  0.3991 -0.8710  0.0770
   25MOL0     H 3239   8.380   3.687   3.340 -0.9693 -1.2385  1.6620
   25MOL0     H 3240   8.550   3.709   3.406 -0.2936 -2.0668  0.8004
   25MOL0     H 3241   8.511   3.946   3.455  1.2019  0.0641 -1.4379
   25MOL0     H 3242   8.337   3.915   3.408  0.2032 -0.6133  2.1498
   25MOL0     H 3243   8.582   3.843   3.229  0.3782  0.4667 -0.6485
   25MOL0     H 3244   8.419   3.866   3.178 -1.4935 -1.5722  3.2545
   25MOL0     H 3245   8.569   4.038   3.096 -3.2579  1.2221 -1.1973
   25MOL0     H 3246   8.626   4.077   3.247 -0.3246 -0.5507  1.4616
   25MOL0     H 3247   8.386   4.176   3.303  0.4348 -1.0656  0.7909
   25MOL0     H 3248   8.333   4.106   3.158 -0.6525 -0.7114  4.3881
   25MOL0     H 3249   8.426   4.255   3.002  0.5671 -0.1438  0.1460
   25MOL0     H 3250   8.362   4.349   3.139  1.4258  0.9154  1.8913
   25MOL0     H 3251   8.654   4.271   3.151 -3.4650 -4.2268  2.4879
   25MOL0     H 3252   8.565   4.411   3.220 -1.8066  2.5350 -2.3442
   25MOL0     H 3253   8.720   4.325   2.910 -1.5470 -1.1237 -0.7027
   25MOL0     H 3254   8.833   4.512   2.708 -0.4037 -1.9696 -1.8358
   25MOL0     H 3255   8.739   4.645   2.674  2.8348  0.2131  1.4766
   25MOL0     H 3256   8.715   4.456   2.502  0.9622  1.1034  1.6360
   25MOL0     H 3257   8.570   4.522   2.589 -1.2759 -0.3335  2.2901
   25MOL0     H 3258   8.703   4.245   2.669  2.3659  3.4919  0.1910
   25MOL0     H 3259   8.561   4.303   2.735  4.3135 -3.4421  2.6865
   25MOL0     H 3260   8.545   4.124   2.542 -3.4265 -1.1643 -4.4494
   25MOL0     H 3261   8.588   4.255   2.433  0.3060  0.6089 -0.2727
   25MOL0     H 3262   8.423   4.142   2.751  0.8291  1.7337 -0.0939
   25MOL0     H 3263   8.229   4.099   2.909 -0.6845 -0.2288 -0.9504
   25MOL0     H 3264   7.804   4.062   3.062  1.3198  0.4505  0.0974
   25MOL0     H 3265   7.639   4.083   3.205  1.6638  0.4420 -1.2374
   25MOL0     H 3266   7.482   4.117   3.329  0.9839 -0.2839 -2.3092
   25MOL0     H 3267   7.372   4.105   3.186  0.8822  1.0483 -1.4981
   25MOL0     H 3268   7.222   4.075   3.380 -0.7752  0.6601 -1.6131
   25MOL0     H 3269   7.198   4.250   3.354 -0.2028  0.5732  2.1932
   25MOL0     H 3270   7.392   4.276   3.531  1.1814 -0.3619 -2.5200
   25MOL0     H 3271   7.366   4.106   3.558  0.0297 -0.0908 -0.6182
   25MOL0     H 3272   7.154   4.327   3.557  0.6399 -0.7176 -3.1057
   25MOL0     H 3273   7.123   4.147   3.572 -0.9361  1.1972 -1.9878
   25MOL0     H 3274   7.308   4.328   3.754 -0.1277 -0.1443  2.3105
   25MOL0     H 3275   7.262   4.156   3.790 -0.8143 -1.6775 -2.0806
   25MOL0     H 3276   7.105   4.430   3.792  0.2097 -0.3870 -0.1070
   25MOL0     H 3277   7.148   4.334   3.923 -0.6454 -0.0356 -0.0700
   25MOL0     H 3278   6.988   4.143   3.822 -1.3512 -0.5801  0.0154
   25MOL0     H 3279   6.922   4.281   3.912 -2.6871  0.8070 -1.7825
   25MOL0     H 3280   6.821   4.232   3.667 -1.7339  1.1321  1.3761
   25MOL0     H 3281   6.953   4.333   3.615  4.8130  0.9730  3.6142
   25MOL0     H 3282   7.490   4.448   3.042  2.0477  2.0070 -1.2992
   25MOL0     H 3283   7.676   4.420   2.865 -2.0461  1.5767 -0.0026
   25MOL0     H 3284   7.991   4.348   2.656  0.4686  1.3005  1.7763
   25MOL0     H 3285   8.189   4.369   2.488 -3.7635  0.1163  0.2224
   25MOL0     H 3286   8.407   3.524   3.786  0.1714 -1.7670  1.3595
   25MOL0     H 3287   8.416   3.501   4.012 -0.7264  1.4183  1.2402
   25MOL0     H 3288   8.719   3.366   4.405 -0.7455 -0.1238 -1.6955
   25MOL0     H 3289   8.731   3.351   4.630  0.7494  1.1941 -0.6761
   25MOL0     H 3290   8.677   3.329   4.875 -1.1996 -2.3378  0.2350
   25MOL0     H 3291   8.532   3.294   4.785 -0.3965  1.2140 -2.2782
   25MOL0     H 3292   8.499   3.276   5.055  0.3944 -0.6502 -1.5246
   25MOL0     H 3293   8.553   3.433   5.072 -2.2378 -0.2051  2.6028
   25MOL0     H 3294   8.331   3.411   4.859 -0.1171 -1.6725 -0.2722
   25MOL0     H 3295   8.327   3.512   5.004 -2.1920 -1.1799 -1.6938
   25MOL0     H 3296   8.246   3.224   4.973  2.2292  1.3463 -1.5915
   25MOL0     H 3297   8.283   3.302   5.132  1.4352  3.3866  1.0167
   25MOL0     H 3298   7.903   3.474   5.013  0.6672  1.3729  2.8255
   25MOL0     H 3299   8.490   3.700   4.672  0.1762 -1.8910  3.4338
   25MOL0     H 3300   8.480   3.728   4.429  0.1959 -0.4492 -3.1996
   26MOL0     O 3301   6.433   6.702   9.248 -0.4348 -0.2203  1.1444
   26MOL0     C 3302   6.360   6.802   9.246  0.3365 -0.4173 -0.4077
   26MOL0     O 3303   6.226   6.810   9.302 -0.3639  0.7209 -0.1415
   26MOL0     C 3304   6.169   6.703   9.358  0.3126  0.5017  0.5287
   26MOL0     C 3305   6.087   6.625   9.289  0.7748 -0.0652 -0.4174
   26MOL0     C 3306   6.031   6.508   9.343  0.6411 -0.7188  0.2064
   26MOL0     C 3307   6.044   6.477   9.481 -0.3032 -1.0172  0.3455
   26MOL0     O 3308   5.995   6.376   9.549 -0.1765  0.1553  0.3383
   26MOL0     C 3309   5.934   6.273   9.482 -0.7305 -0.7514  0.4637
   26MOL0     C 3310   5.870   6.187   9.583  0.1332  0.3939 -0.7512
   26MOL0     C 3311   5.959   6.087   9.654  0.0390 -1.4022  0.1515
   26MOL0     C 3312   6.059   6.153   9.747  0.7645 -0.1525 -0.9057
   26MOL0     C 3313   6.198   6.166   9.693  0.5830 -0.3029  0.5662
   26MOL0     C 3314   6.279   6.258   9.790 -0.2222 -0.2759  1.3888
   26MOL0     C 3315   6.309   6.211   9.930  0.1849 -0.0319 -1.0297
   26MOL0     C 3316   6.372   6.072   9.950 -0.4167 -0.2921 -0.0395
   26MOL0     N 3317   6.490   6.092  10.034 -0.8382 -0.8692  0.0321
   26MOL0     C 3318   6.608   6.131   9.995  0.5028 -0.4012 -0.1068
   26MOL0     C 3319   6.681   6.150  10.107 -0.2302  0.3037  0.0235
   26MOL0     C 3320   6.829   6.182  10.127 -0.4502 -0.2574  0.5160
   26MOL0     C 3321   6.854   6.331  10.095  0.2522 -0.8193 -0.8891
   26MOL0     C 3322   6.794   6.408  10.218  0.1954  0.3815  1.1470
   26MOL0     C 3323   6.811   6.557  10.190 -0.8000 -0.0972 -0.8387
   26MOL0     O 3324   6.758   6.629  10.302 -0.6762  0.5631  0.1854
   26MOL0     C 3325   6.744   6.761  10.297 -0.1862  0.3331  0.6436
   26MOL0     C 3326   6.686   6.826  10.407  0.7270 -0.7472  0.1665
   26MOL0     C 3327   6.689   6.962  10.419 -0.2433 -0.7930 -0.2960
   26MOL0     C 3328   6.726   7.046  10.312 -0.9870 -0.9195 -0.4843
   26MOL0     C 3329   6.729   7.192  10.324 -0.0361  0.1984 -0.1465
   26MOL0     O 3330   6.753   7.260  10.211  0.0741 -0.3473 -0.1240
   26MOL0     C 3331   6.753   7.403  10.217  0.8044 -0.6497  0.2458
   26MOL0     C 3332   6.662   7.484  10.147 -0.3636 -0.3599  0.0069
   26MOL0     C 3333   6.663   7.621  10.141 -0.9480  1.1560  0.3523
   26MOL0     C 3334   6.746   7.687  10.226 -0.5079  0.6692  0.1707
   26MOL0     O 3335   6.748   7.825  10.227 -0.7554 -0.0278 -0.6781
   26MOL0     C 3336   6.681   7.891  10.115 -0.1172 -0.1671 -0.7619
   26MOL0     C 3337   6.691   8.043  10.139 -1.3697 -0.7136 -0.7765
   26MOL0     C 3338   6.841   8.087  10.151  0.1112 -0.3238  1.2474
   26MOL0     C 3339   6.852   8.241  10.180 -0.4426  0.8095  0.9694
   26MOL0     C 3340   6.807   8.346  10.061 -0.1759 -0.4877  0.3145
   26MOL0     C 3341   6.903   8.346   9.942  0.9558  0.2623 -1.6161
   26MOL0     C 3342   6.886   8.479   9.859  1.4334  0.1958 -1.0009
   26MOL0     C 3343   7.007   8.523   9.767  0.6610 -0.4257 -0.1626
   26MOL0    Cl 3344   7.064   8.704   9.781  0.2590  0.2591  0.2596
   26MOL0     C 3345   6.829   7.611  10.312 -0.2201  1.0407 -0.3175
   26MOL0     C 3346   6.836   7.471  10.302  0.1253 -0.5339  0.3907
   26MOL0     O 3347   6.715   7.245  10.436 -0.0599 -0.3268 -0.6024
   26MOL0     C 3348   6.766   6.979  10.199  0.4099 -0.2922  0.4735
   26MOL0     C 3349   6.769   6.843  10.192  0.5849 -0.8609  0.0623
   26MOL0     N 3350   6.605   6.109  10.216  0.9607  0.5234 -0.3842
   26MOL0     N 3351   6.490   6.080  10.173  0.4495  0.5693  1.2657
   26MOL0     C 3352   6.115   6.568   9.549 -0.6343 -0.0689 -0.9641
   26MOL0     C 3353   6.181   6.674   9.493 -0.6509 -0.7466 -1.0494
   26MOL0     C 3354   6.405   6.912   9.167  0.3793  1.1306  0.5903
   26MOL0     C 3355   6.531   6.944   9.153 -0.4936 -0.3593 -0.1981
   26MOL0     C 3356   6.563   7.068   9.082  0.5559  0.1722  0.1018
   26MOL0     C 3357   6.464   7.152   9.034  0.9121 -0.6010  0.5193
   26MOL0     O 3358   6.498   7.271   8.970  0.1670  0.5147  0.1581
   26MOL0     C 3359   6.398   7.360   8.911 -0.8128 -0.2138 -0.8224
   26MOL0     C 3360   6.468   7.489   8.882 -1.0184 -0.9141 -0.1122
   26MOL0     C 3361   6.562   7.467   8.765  1.1440  0.0795 -0.3710
   26MOL0     C 3362   6.703   7.451   8.820  0.7021 -0.2584  0.3182
   26MOL0     C 3363   6.789   7.463   8.713 -0.2456 -0.3604 -0.4884
   26MOL0     C 3364   6.870   7.496   8.625  1.1404 -0.9015  0.1248
   26MOL0     C 3365   6.327   7.110   9.061 -0.9952 -0.2327 -0.0489
   26MOL0     C 3366   6.300   6.990   9.114 -0.2467 -0.3750  0.1082
   26MOL0     H 3367   6.077   6.647   9.183 -0.9612  1.0753 -0.0620
   26MOL0     H 3368   5.960   6.444   9.293  1.1343 -0.7476 -0.4654
   26MOL0     H 3369   6.016   6.216   9.437  1.0885 -0.7179  3.4888
   26MOL0     H 3370   5.848   6.296   9.419  0.0863  0.4479 -0.2570
   26MOL0     H 3371   5.801   6.125   9.525  2.7172 -4.1136  0.4757
   26MOL0     H 3372   5.818   6.247   9.659 -0.2349 -1.6473  0.7127
   26MOL0     H 3373   6.016   6.040   9.574 -0.2156  0.1198 -0.9660
   26MOL0     H 3374   5.891   6.019   9.707 -3.2094  1.9381  0.6989
   26MOL0     H 3375   6.023   6.250   9.784 -0.8297 -0.7257 -0.8633
   26MOL0     H 3376   6.069   6.085   9.832 -2.3233  0.3447 -0.0184
   26MOL0     H 3377   6.197   6.210   9.593  2.4963  2.9675  1.8233
   26MOL0     H 3378   6.256   6.073   9.683  1.8752  0.3116  1.8467
   26MOL0     H 3379   6.226   6.353   9.801 -1.9567 -0.9502 -0.4911
   26MOL0     H 3380   6.375   6.286   9.745 -0.2090  0.7049  1.9922
   26MOL0     H 3381   6.364   6.295   9.972 -3.0082  1.3378  0.7803
   26MOL0     H 3382   6.218   6.222   9.990  0.7676 -1.3165  0.1431
   26MOL0     H 3383   6.406   6.030   9.855 -0.6839  2.2940 -1.3586
   26MOL0     H 3384   6.307   5.999   9.998  1.5996 -1.5381  0.9286
   26MOL0     H 3385   6.652   6.152   9.898 -0.7614  3.2270 -0.0225
   26MOL0     H 3386   6.890   6.121  10.061  0.5404  2.3615 -1.1657
   26MOL0     H 3387   6.859   6.160  10.230  1.0126  0.3033  0.2305
   26MOL0     H 3388   6.803   6.370  10.007 -1.5448 -0.8722  0.0850
   26MOL0     H 3389   6.963   6.342  10.089  0.6708 -3.4553  0.2639
   26MOL0     H 3390   6.685   6.394  10.219  0.2881 -0.3734  0.9155
   26MOL0     H 3391   6.828   6.390  10.320 -2.9815  0.5782  2.3597
   26MOL0     H 3392   6.743   6.575  10.106 -2.5136 -2.1049  0.0372
   26MOL0     H 3393   6.916   6.582  10.175 -0.4874 -0.3720  0.7348
   26MOL0     H 3394   6.654   6.774  10.497  0.3345  0.0119  0.4705
   26MOL0     H 3395   6.646   7.007  10.507 -0.3489 -0.3205 -0.5874
   26MOL0     H 3396   6.596   7.427  10.082 -0.7431 -0.2700  0.3165
   26MOL0     H 3397   6.582   7.660  10.080 -1.5118 -1.4599 -0.6956
   26MOL0     H 3398   6.575   7.871  10.133  0.4129 -1.1090  1.7966
   26MOL0     H 3399   6.716   7.859  10.017  3.0045 -1.3725  0.5946
   26MOL0     H 3400   6.644   8.074  10.232  2.0051  1.9486  0.2789
   26MOL0     H 3401   6.630   8.096  10.065 -0.5303  0.4624 -0.6553
   26MOL0     H 3402   6.882   8.067  10.051  0.8707 -4.1831  2.1497
   26MOL0     H 3403   6.909   8.025  10.211  4.3811  1.8414 -0.8317
   26MOL0     H 3404   6.785   8.258  10.264  0.0667  3.5976  0.9382
   26MOL0     H 3405   6.951   8.263  10.222  0.1310 -0.1899  0.1918
   26MOL0     H 3406   6.814   8.445  10.107  1.5139  0.3213 -1.5448
   26MOL0     H 3407   6.706   8.309  10.039  0.2897 -1.1794 -0.7152
   26MOL0     H 3408   6.869   8.265   9.877 -1.4837 -0.9166  0.9456
   26MOL0     H 3409   7.004   8.340   9.984  0.8808  1.9354 -1.1282
   26MOL0     H 3410   6.799   8.467   9.794  1.4582  0.8460 -1.1537
   26MOL0     H 3411   6.856   8.570   9.912 -1.4610 -1.4278  0.3990
   26MOL0     H 3412   6.986   8.502   9.662 -0.3861 -1.0911  0.1625
   26MOL0     H 3413   7.097   8.466   9.792  1.4236  0.2899 -1.1657
   26MOL0     H 3414   6.892   7.667  10.381 -1.3632 -1.0312  2.6240
   26MOL0     H 3415   6.914   7.406  10.340 -0.6118 -1.0859  1.0037
   26MOL0     H 3416   6.813   7.031  10.116 -0.8953 -0.3714 -0.3529
   26MOL0     H 3417   6.805   6.806  10.096 -0.4194 -0.6381 -0.4174
   26MOL0     H 3418   6.129   6.546   9.655 -1.5832  2.3962 -0.2558
   26MOL0     H 3419   6.236   6.734   9.564  0.6920 -2.8914 -0.1581
   26MOL0     H 3420   6.603   6.866   9.172 -0.1506 -0.1096 -0.4491
   26MOL0     H 3421   6.665   7.101   9.064  0.4994 -0.5873 -1.7454
   26MOL0     H 3422   6.319   7.386   8.982  1.4026 -3.2172  3.1529
   26MOL0     H 3423   6.351   7.318   8.821 -0.3534 -1.3561 -0.5402
   26MOL0     H 3424   6.386   7.558   8.860 -3.2645 -1.9508  4.0424
   26MOL0     H 3425   6.516   7.529   8.972  0.1968  1.3076 -1.6329
   26MOL0     H 3426   6.550   7.557   8.704  0.6458  0.0319 -0.3481
   26MOL0     H 3427   6.543   7.376   8.707  0.7639 -0.6173  0.8283
   26MOL0     H 3428   6.725   7.524   8.899  1.6898  1.2482 -1.2881
   26MOL0     H 3429   6.702   7.347   8.854  0.8888 -0.6575 -0.8592
   26MOL0     H 3430   6.935   7.544   8.555  2.7158  1.6632  3.0438
   26MOL0     H 3431   6.248   7.177   9.030 -1.3006  0.5248  2.1522
   26MOL0     H 3432   6.198   6.959   9.133 -1.0821  1.2919 -1.4227
   27MOL0     O 3433   4.121   4.713   5.103  0.4671  0.1754  0.5498
   27MOL0     C 3434   4.220   4.749   5.162 -1.3180  0.0546 -0.5349
   27MOL0     O 3435   4.356   4.741   5.123  0.2765  0.1129  0.3357
   27MOL0     C 3436   4.380   4.684   5.003 -0.1464 -0.1865  0.1901
   27MOL0     C 3437   4.470   4.755   4.916  0.2648 -0.4652 -0.7664
   27MOL0     C 3438   4.532   4.683   4.809 -0.4708 -0.0011  0.2167
   27MOL0     C 3439   4.485   4.555   4.780 -0.0607  0.3457  0.8903
   27MOL0     O 3440   4.540   4.475   4.681  0.0503  1.0333  0.2606
   27MOL0     C 3441   4.669   4.522   4.622  0.6639 -0.3756  0.5505
   27MOL0     C 3442   4.706   4.408   4.530  0.2647  0.0933 -0.5630
   27MOL0     C 3443   4.856   4.435   4.492  0.2653 -0.3979 -0.5849
   27MOL0     C 3444   4.908   4.314   4.409 -0.0338  0.1721 -0.1243
   27MOL0     C 3445   5.030   4.351   4.323  0.2985  0.4114 -0.1473
   27MOL0     C 3446   4.985   4.411   4.191 -1.0707 -1.6519 -0.9984
   27MOL0     C 3447   5.084   4.439   4.085  0.2382 -0.5283 -0.2353
   27MOL0     C 3448   5.208   4.355   4.058 -0.9458 -0.2154 -0.9319
   27MOL0     N 3449   5.184   4.234   3.973 -0.8839 -0.5811  0.0081
   27MOL0     C 3450   5.097   4.136   4.009 -0.3575 -0.2525  0.0669
   27MOL0     C 3451   5.110   4.035   3.928  0.2030  1.1047  0.1656
   27MOL0     C 3452   5.036   3.903   3.946 -0.0411 -0.0937 -0.6867
   27MOL0     C 3453   5.121   3.809   4.037  0.7359 -0.3420  0.5831
   27MOL0     C 3454   5.227   3.740   3.959 -0.8038 -0.4935 -0.2034
   27MOL0     C 3455   5.336   3.679   4.060 -0.6139 -0.8037 -0.1736
   27MOL0     O 3456   5.411   3.781   4.130 -0.8034  0.3923 -0.1605
   27MOL0     C 3457   5.514   3.750   4.219 -0.8277 -0.1513 -0.9901
   27MOL0     C 3458   5.526   3.811   4.343  0.2992 -0.3841 -0.4137
   27MOL0     C 3459   5.627   3.772   4.437 -0.4142  0.7683 -0.2006
   27MOL0     C 3460   5.729   3.681   4.401 -0.0714  0.3630  0.6623
   27MOL0     C 3461   5.830   3.645   4.501 -0.0039 -0.0038  0.2208
   27MOL0     O 3462   5.939   3.575   4.441  0.4997  0.2362  0.1240
   27MOL0     C 3463   6.050   3.548   4.520 -0.7659 -0.2462  1.0077
   27MOL0     C 3464   6.102   3.624   4.630 -0.3367 -0.0025 -0.0208
   27MOL0     C 3465   6.222   3.602   4.688 -0.4528 -0.2356 -0.1347
   27MOL0     C 3466   6.298   3.492   4.645  0.1966 -0.4263  0.0208
   27MOL0     O 3467   6.410   3.452   4.706 -0.6315 -0.2738 -0.7205
   27MOL0     C 3468   6.406   3.463   4.850 -0.0875  0.4667  0.5574
   27MOL0     C 3469   6.303   3.356   4.900  0.4863  0.6425  1.3428
   27MOL0     C 3470   6.325   3.298   5.036 -0.0984  0.3737 -0.0997
   27MOL0     C 3471   6.238   3.162   5.046  0.2659  0.0931 -0.0384
   27MOL0     C 3472   6.253   3.072   5.164 -0.7421  0.9362 -0.1621
   27MOL0     C 3473   6.220   3.133   5.306 -0.0077  0.3572 -0.1779
   27MOL0     C 3474   6.206   3.028   5.418  0.0805 -0.4314 -0.6936
   27MOL0     C 3475   6.144   3.091   5.536  0.4048  0.2249 -0.8651
   27MOL0    Cl 3476   6.109   2.970   5.654  0.3772 -0.0573  0.4506
   27MOL0     C 3477   6.238   3.407   4.548  0.7870 -0.2849 -0.4410
   27MOL0     C 3478   6.125   3.437   4.481 -0.2441  0.3613  0.2935
   27MOL0     O 3479   5.826   3.688   4.617  0.3239  0.4166  0.1565
   27MOL0     C 3480   5.715   3.615   4.272 -0.0631 -1.2228 -0.6581
   27MOL0     C 3481   5.606   3.649   4.187  0.2040 -1.2195  0.5223
   27MOL0     N 3482   5.202   4.073   3.829  0.1860  0.8194 -0.4174
   27MOL0     N 3483   5.244   4.198   3.854  0.4195  0.0311  0.3107
   27MOL0     C 3484   4.382   4.501   4.856  0.1315  0.7790  0.0448
   27MOL0     C 3485   4.326   4.559   4.968 -0.2304 -0.8068  0.1003
   27MOL0     C 3486   4.201   4.800   5.299 -0.5438 -0.0023  0.1807
   27MOL0     C 3487   4.078   4.798   5.372 -0.0559 -0.2479  0.2478
   27MOL0     C 3488   4.076   4.860   5.500  1.1991  0.4672 -0.9968
   27MOL0     C 3489   4.187   4.926   5.564  0.7685  0.2817  0.3880
   27MOL0     O 3490   4.188   4.987   5.687  0.0101  0.6999 -0.0753
   27MOL0     C 3491   4.078   4.999   5.777  0.0534 -0.0244 -0.8455
   27MOL0     C 3492   4.052   4.872   5.846  0.4587 -0.1228 -0.4197
   27MOL0     C 3493   4.168   4.812   5.936 -0.7705 -0.7681  0.1504
   27MOL0     C 3494   4.257   4.716   5.855 -0.0120 -0.9111 -0.1142
   27MOL0     C 3495   4.341   4.620   5.935  0.5790  1.3340  0.6388
   27MOL0     C 3496   4.413   4.550   6.005 -0.1069  0.1393  0.0218
   27MOL0     C 3497   4.297   4.926   5.477  0.3624  0.5361 -0.1474
   27MOL0     C 3498   4.309   4.872   5.349  0.1469  0.3606  0.9341
   27MOL0     H 3499   4.501   4.857   4.937  0.1385 -0.5932  0.0598
   27MOL0     H 3500   4.611   4.727   4.749 -0.5071 -0.3946 -0.1192
   27MOL0     H 3501   4.741   4.542   4.702  0.4081 -0.6099  0.8409
   27MOL0     H 3502   4.666   4.614   4.563  1.1159 -0.1428  0.8813
   27MOL0     H 3503   4.658   4.418   4.432  1.6168 -0.8461 -1.3550
   27MOL0     H 3504   4.683   4.310   4.572  0.0756  0.5520  0.4304
   27MOL0     H 3505   4.919   4.439   4.582  2.3901 -0.7721 -1.9772
   27MOL0     H 3506   4.853   4.532   4.441 -0.9041 -1.3527 -2.4225
   27MOL0     H 3507   4.950   4.247   4.484  1.3192 -0.2622 -1.2336
   27MOL0     H 3508   4.835   4.251   4.357  0.1070 -0.5244  0.5040
   27MOL0     H 3509   5.084   4.256   4.319 -1.1355 -0.6017  2.4704
   27MOL0     H 3510   5.097   4.426   4.367  1.6818 -0.6814 -0.3072
   27MOL0     H 3511   4.944   4.505   4.230  1.9555 -1.2877  1.7973
   27MOL0     H 3512   4.903   4.353   4.148  0.4527 -1.7369 -4.0998
   27MOL0     H 3513   5.024   4.459   3.995  0.6411  4.7337  0.3364
   27MOL0     H 3514   5.130   4.532   4.118  3.7620 -1.6015 -1.7445
   27MOL0     H 3515   5.263   4.334   4.150 -1.9789 -0.6688 -0.3989
   27MOL0     H 3516   5.259   4.429   3.995 -3.1685  2.2120 -0.0876
   27MOL0     H 3517   5.041   4.139   4.102  0.0131  5.0255  0.4354
   27MOL0     H 3518   5.017   3.856   3.849  1.6697 -0.6018 -0.8099
   27MOL0     H 3519   4.935   3.911   3.986 -0.7705 -2.1136 -1.9728
   27MOL0     H 3520   5.060   3.731   4.084 -0.2731  0.3177  0.3914
   27MOL0     H 3521   5.161   3.855   4.128 -1.4509 -1.3717  2.1606
   27MOL0     H 3522   5.187   3.663   3.892  2.1298  0.1649 -2.9174
   27MOL0     H 3523   5.287   3.813   3.905  1.2470 -1.0340  1.2060
   27MOL0     H 3524   5.400   3.614   3.999 -2.0466  1.1902 -4.1557
   27MOL0     H 3525   5.287   3.611   4.130  0.8337 -1.8263 -0.1080
   27MOL0     H 3526   5.445   3.877   4.372  1.4291 -0.2472  2.8948
   27MOL0     H 3527   5.635   3.830   4.529  0.5168  1.3136 -0.6063
   27MOL0     H 3528   6.048   3.711   4.666  2.3886  1.4503  0.8213
   27MOL0     H 3529   6.248   3.676   4.764  2.1360 -3.0504  1.9730
   27MOL0     H 3530   6.381   3.565   4.880  2.3575  0.5027  2.8648
   27MOL0     H 3531   6.502   3.431   4.891 -0.2862 -3.5615 -1.6064
   27MOL0     H 3532   6.302   3.277   4.824 -0.7725  0.0937  1.8948
   27MOL0     H 3533   6.206   3.406   4.899  1.9546  3.7127  1.5750
   27MOL0     H 3534   6.298   3.377   5.107 -0.6854  1.7079 -1.7607
   27MOL0     H 3535   6.431   3.275   5.052 -0.2681 -0.4662 -0.1233
   27MOL0     H 3536   6.135   3.197   5.038 -0.0124 -0.2522  1.7292
   27MOL0     H 3537   6.252   3.100   4.956  0.3302 -0.4244  0.3227
   27MOL0     H 3538   6.356   3.036   5.163 -1.0478 -0.0682 -2.4922
   27MOL0     H 3539   6.200   2.978   5.146 -0.0164  0.5898 -0.5513
   27MOL0     H 3540   6.124   3.186   5.300 -0.2098 -0.0560 -0.6202
   27MOL0     H 3541   6.298   3.206   5.330 -1.4203  1.3116  1.7936
   27MOL0     H 3542   6.133   2.957   5.380 -1.4793 -0.4043  2.0680
   27MOL0     H 3543   6.305   2.990   5.446  0.6038  1.2834 -0.0553
   27MOL0     H 3544   6.058   3.153   5.513  0.2255  1.2280  2.1728
   27MOL0     H 3545   6.221   3.154   5.583  0.6020 -0.8361  0.2654
   27MOL0     H 3546   6.289   3.313   4.526 -0.1293 -0.6845 -0.9319
   27MOL0     H 3547   6.076   3.390   4.395 -2.5522 -0.0961  1.7615
   27MOL0     H 3548   5.777   3.526   4.264  0.0153 -1.2522  0.1506
   27MOL0     H 3549   5.595   3.595   4.094 -1.9804  1.1999 -0.7526
   27MOL0     H 3550   4.340   4.408   4.820 -1.0293  1.2324  0.1854
   27MOL0     H 3551   4.241   4.518   5.022  0.7299 -1.7967  0.9057
   27MOL0     H 3552   3.994   4.753   5.321 -1.7791  1.1424  1.7160
   27MOL0     H 3553   3.998   4.842   5.573 -0.3202  0.0949 -2.6276
   27MOL0     H 3554   3.989   5.031   5.722  0.4933 -1.1324 -2.2766
   27MOL0     H 3555   4.108   5.074   5.851 -1.6982 -0.9656  0.9284
   27MOL0     H 3556   3.972   4.893   5.919 -0.4358 -0.2875 -1.3307
   27MOL0     H 3557   4.013   4.805   5.770  0.9061 -0.5648 -0.2612
   27MOL0     H 3558   4.116   4.758   6.016 -1.3646  1.3094  1.2438
   27MOL0     H 3559   4.221   4.889   5.993 -2.8089 -0.2414  1.4409
   27MOL0     H 3560   4.181   4.653   5.807 -0.2753 -1.5380  1.1087
   27MOL0     H 3561   4.318   4.775   5.785 -0.0049  0.9022  1.3445
   27MOL0     H 3562   4.487   4.479   6.036 -0.8858 -0.5541  0.3071
   27MOL0     H 3563   4.386   4.983   5.499  1.5698 -1.3557  0.0328
   27MOL0     H 3564   4.400   4.901   5.298  0.1066  1.5454  1.5086
   28MOL0     O 3565   0.743   5.369   9.530 -0.1138 -0.2792 -0.5433
   28MOL0     C 3566   0.761   5.254   9.577  0.3590  0.0889 -0.2443
   28MOL0     O 3567   0.882   5.183   9.565 -0.2431  0.0686 -0.2316
   28MOL0     C 3568   1.000   5.257   9.529 -0.0821 -0.1720  0.1983
   28MOL0     C 3569   1.033   5.389   9.566  0.1407 -0.0622  0.6124
   28MOL0     C 3570   1.156   5.450   9.527  0.3024 -0.3914 -0.4985
   28MOL0     C 3571   1.240   5.384   9.449 -0.3780  0.3844  0.2888
   28MOL0     O 3572   1.351   5.436   9.396  0.4075 -0.4728 -0.5262
   28MOL0     C 3573   1.405   5.542   9.474  0.3716  0.4386 -0.8103
   28MOL0     C 3574   1.345   5.681   9.458 -0.5546 -0.6464 -0.6665
   28MOL0     C 3575   1.442   5.805   9.427  0.7096  0.3905 -0.6095
   28MOL0     C 3576   1.371   5.941   9.398 -1.0539 -0.1264 -0.3584
   28MOL0     C 3577   1.254   5.939   9.283 -0.4333 -0.5347 -0.9370
   28MOL0     C 3578   1.228   6.082   9.250 -0.3485  0.1458  0.3987
   28MOL0     C 3579   1.110   6.104   9.152 -0.1973  0.1049 -0.3009
   28MOL0     C 3580   1.074   6.246   9.161  0.2447 -0.5567 -0.3546
   28MOL0     N 3581   0.941   6.256   9.110 -0.0517  0.1077 -0.4988
   28MOL0     C 3582   0.903   6.367   9.033 -1.1864  0.2273 -0.7878
   28MOL0     C 3583   0.772   6.366   9.036 -0.5531 -0.4388  0.4521
   28MOL0     C 3584   0.688   6.455   8.942 -0.6154  0.2777  0.1511
   28MOL0     C 3585   0.541   6.460   8.973 -0.0112 -1.1922  0.3033
   28MOL0     C 3586   0.460   6.330   8.948 -1.1628 -1.1533  0.6401
   28MOL0     C 3587   0.440   6.295   8.800 -0.1218 -0.2897 -0.3791
   28MOL0     O 3588   0.468   6.158   8.772  0.2287 -0.0739  0.3457
   28MOL0     C 3589   0.380   6.057   8.821 -0.0557 -1.2890  0.2686
   28MOL0     C 3590   0.447   5.936   8.808 -0.0214 -0.1640 -1.1852
   28MOL0     C 3591   0.380   5.822   8.852 -0.5323 -0.1266  0.1090
   28MOL0     C 3592   0.249   5.835   8.902 -0.5475 -0.2019 -0.1025
   28MOL0     C 3593   0.177   5.720   8.960 -0.3977 -0.0385 -0.2810
   28MOL0     O 3594   0.238   5.599   8.941  0.2266  0.0047 -0.0704
   28MOL0     C 3595   0.163   5.486   8.982 -0.3689  0.0341 -0.8073
   28MOL0     C 3596   0.082   5.463   9.101 -0.5770 -0.6528  0.0736
   28MOL0     C 3597  -0.009   5.352   9.113 -0.0504 -0.3935  0.8710
   28MOL0     C 3598  -0.026   5.271   8.994  0.1383 -0.2995  0.5732
   28MOL0     O 3599  -0.123   5.169   8.977  0.4053 -0.6110 -0.7990
   28MOL0     C 3600  -0.204   5.141   9.103 -0.0369 -0.3845 -0.1020
   28MOL0     C 3601  -0.278   5.020   9.070  0.2271  0.5255 -0.2119
   28MOL0     C 3602  -0.242   4.895   9.153  0.2282  0.7107 -0.5061
   28MOL0     C 3603  -0.330   4.776   9.087  0.2469  0.2892 -0.0799
   28MOL0     C 3604  -0.311   4.647   9.163  0.7299  0.5989  0.4244
   28MOL0     C 3605  -0.178   4.572   9.115  0.1604 -0.0837  0.6149
   28MOL0     C 3606  -0.137   4.462   9.207 -0.1351  0.6123  0.8413
   28MOL0     C 3607  -0.050   4.350   9.158  0.1565  0.3933  0.4807
   28MOL0    Cl 3608  -0.125   4.252   9.031  0.0032 -0.7155 -0.3458
   28MOL0     C 3609   0.054   5.291   8.877  0.2928  0.2925  0.5887
   28MOL0     C 3610   0.147   5.391   8.874  0.5047 -0.5237 -0.2344
   28MOL0     O 3611   0.066   5.747   9.009  0.6677  0.2530 -0.1101
   28MOL0     C 3612   0.181   5.956   8.912 -0.1674  0.7379  0.1862
   28MOL0     C 3613   0.253   6.074   8.871 -0.0662  0.2141 -0.0041
   28MOL0     N 3614   0.726   6.262   9.115 -0.5236  0.0770  0.0812
   28MOL0     N 3615   0.821   6.201   9.169 -1.0111 -0.0639 -0.7484
   28MOL0     C 3616   1.213   5.250   9.425  1.4651  0.4168  0.6838
   28MOL0     C 3617   1.101   5.180   9.464  0.4660  0.4872 -0.6796
   28MOL0     C 3618   0.650   5.177   9.647  0.1113  0.1727  0.7023
   28MOL0     C 3619   0.658   5.052   9.703 -1.9490  0.4610 -0.3672
   28MOL0     C 3620   0.551   4.997   9.773  0.2327 -0.4937  0.0708
   28MOL0     C 3621   0.424   5.063   9.786 -0.9673 -0.6785 -0.7836
   28MOL0     O 3622   0.304   5.026   9.842  0.0738  0.5605 -0.5862
   28MOL0     C 3623   0.309   4.900   9.913 -0.6932  0.1380 -0.0154
   28MOL0     C 3624   0.296   4.780   9.809 -1.3731 -0.8717  0.1989
   28MOL0     C 3625   0.284   4.637   9.877 -0.8560 -0.4381 -0.6413
   28MOL0     C 3626   0.288   4.516   9.790  0.6089  0.6305 -0.6499
   28MOL0     C 3627   0.324   4.399   9.878 -0.3109  0.4554  0.4746
   28MOL0     C 3628   0.358   4.309   9.954  0.3285  0.1718 -0.3224
   28MOL0     C 3629   0.421   5.192   9.735  0.9626  0.6258  0.1956
   28MOL0     C 3630   0.529   5.245   9.659 -0.3017  0.1895 -0.7498
   28MOL0     H 3631   0.976   5.447   9.637  1.1979  1.1758  0.4830
   28MOL0     H 3632   1.170   5.555   9.552 -0.9238 -0.6966  1.7912
   28MOL0     H 3633   1.508   5.541   9.439  0.4232 -3.0293 -0.9059
   28MOL0     H 3634   1.410   5.524   9.582  1.5181  1.5706 -0.6603
   28MOL0     H 3635   1.296   5.710   9.551 -3.6371 -4.3829 -0.8785
   28MOL0     H 3636   1.264   5.674   9.384 -0.0689  1.1539 -1.4309
   28MOL0     H 3637   1.495   5.781   9.334 -1.4569 -0.5027 -1.6907
   28MOL0     H 3638   1.506   5.810   9.515 -3.2147 -1.5445  2.6888
   28MOL0     H 3639   1.333   5.988   9.489  0.5306  2.1854 -0.8230
   28MOL0     H 3640   1.451   6.005   9.363  0.9764 -2.1593  0.3255
   28MOL0     H 3641   1.159   5.887   9.296 -0.9294 -0.4349 -3.6027
   28MOL0     H 3642   1.291   5.884   9.196  2.0316 -2.6744  1.2510
   28MOL0     H 3643   1.313   6.144   9.220 -0.6996  2.4649  3.5767
   28MOL0     H 3644   1.194   6.117   9.348 -1.0626 -4.5465  2.0908
   28MOL0     H 3645   1.151   6.094   9.051  1.7620  3.6194 -0.0185
   28MOL0     H 3646   1.029   6.033   9.172 -1.4917  1.6897  0.3062
   28MOL0     H 3647   1.148   6.311   9.112  0.5465  0.0768  0.9173
   28MOL0     H 3648   1.070   6.273   9.266 -2.2066  0.6427 -0.7013
   28MOL0     H 3649   0.973   6.415   8.966  0.4164 -2.4761 -1.1576
   28MOL0     H 3650   0.705   6.408   8.845  0.7016 -0.7962  0.8671
   28MOL0     H 3651   0.742   6.550   8.946  2.5829 -1.3962 -0.0816
   28MOL0     H 3652   0.492   6.541   8.917  0.4783 -2.0374 -1.3954
   28MOL0     H 3653   0.526   6.486   9.079 -2.8028 -5.4150  1.1771
   28MOL0     H 3654   0.502   6.245   9.003 -1.8635 -0.9646  1.5086
   28MOL0     H 3655   0.361   6.340   8.993  0.2869  1.3063  3.7091
   28MOL0     H 3656   0.502   6.357   8.735  2.0012  0.5185  2.2249
   28MOL0     H 3657   0.336   6.322   8.778  0.5700  1.9187 -1.2356
   28MOL0     H 3658   0.544   5.916   8.762 -1.2400 -2.4087 -2.9584
   28MOL0     H 3659   0.421   5.725   8.827  3.6034  1.8515 -1.8947
   28MOL0     H 3660   0.068   5.547   9.168 -0.6226  1.2252 -2.1758
   28MOL0     H 3661  -0.067   5.334   9.203  0.6821 -0.8167  1.2712
   28MOL0     H 3662  -0.277   5.221   9.121  0.2209 -0.5985  2.2116
   28MOL0     H 3663  -0.142   5.121   9.191 -2.3465 -0.1724  1.6601
   28MOL0     H 3664  -0.265   5.001   8.963  4.8327 -0.8216  0.3602
   28MOL0     H 3665  -0.386   5.038   9.077 -0.7044 -4.2145  3.3046
   28MOL0     H 3666  -0.254   4.898   9.262 -5.6349 -0.2113 -0.8095
   28MOL0     H 3667  -0.135   4.874   9.144  0.6772  0.5053  3.3446
   28MOL0     H 3668  -0.434   4.807   9.077  0.1852 -0.4462 -2.2410
   28MOL0     H 3669  -0.288   4.771   8.986 -0.4486  0.1759 -0.3682
   28MOL0     H 3670  -0.401   4.586   9.156 -0.6269  2.5740 -0.4058
   28MOL0     H 3671  -0.301   4.667   9.270  0.3771  0.1004  0.5549
   28MOL0     H 3672  -0.089   4.636   9.114 -0.6747  1.1077  0.9555
   28MOL0     H 3673  -0.193   4.539   9.012 -0.2281 -1.3703  1.0615
   28MOL0     H 3674  -0.081   4.511   9.287  2.6849  0.0178 -0.6673
   28MOL0     H 3675  -0.230   4.427   9.254 -1.3593  1.2086 -1.0051
   28MOL0     H 3676  -0.032   4.289   9.248  1.9762  1.5816  0.9741
   28MOL0     H 3677   0.036   4.386   9.102 -0.5179  0.1610 -0.7554
   28MOL0     H 3678   0.023   5.232   8.791  4.1320  0.7984 -1.3552
   28MOL0     H 3679   0.195   5.437   8.789 -0.1297  1.4276  0.4094
   28MOL0     H 3680   0.085   5.974   8.959  1.7520  1.4317  4.2785
   28MOL0     H 3681   0.204   6.171   8.874 -0.4630  0.0126  2.8127
   28MOL0     H 3682   1.277   5.183   9.368 -0.6684  0.8565 -2.4501
   28MOL0     H 3683   1.083   5.085   9.415 -0.4405  1.7226 -2.8792
   28MOL0     H 3684   0.750   4.994   9.706 -3.2434 -1.6551  1.2179
   28MOL0     H 3685   0.569   4.898   9.815 -0.3418 -0.1487  1.1691
   28MOL0     H 3686   0.225   4.900   9.982  0.3586  1.7845  1.3578
   28MOL0     H 3687   0.399   4.882   9.973 -1.6208 -0.6480  1.1855
   28MOL0     H 3688   0.209   4.808   9.749 -1.0777 -0.6272 -0.1205
   28MOL0     H 3689   0.382   4.787   9.741 -1.9334 -1.5999 -0.6108
   28MOL0     H 3690   0.201   4.644   9.948 -0.2576  2.0676 -0.1033
   28MOL0     H 3691   0.376   4.644   9.935 -0.3792 -0.6449 -1.3561
   28MOL0     H 3692   0.189   4.491   9.749 -0.8909  1.5684  2.1007
   28MOL0     H 3693   0.356   4.518   9.705 -1.2925  1.5053 -2.2506
   28MOL0     H 3694   0.387   4.232  10.021 -3.2189 -1.9115 -0.9283
   28MOL0     H 3695   0.337   5.255   9.763  1.2180  1.1725 -0.2607
   28MOL0     H 3696   0.531   5.351   9.638  1.7983 -0.1764 -2.7657
   29MOL0     O 3697   4.432   2.036   4.779 -0.7019  0.2204 -0.0202
   29MOL0     C 3698   4.335   2.039   4.707 -0.0759  0.3033  0.1801
   29MOL0     O 3699   4.232   2.129   4.712 -0.4374  0.2799 -0.0669
   29MOL0     C 3700   4.230   2.217   4.822 -0.2318  0.6299  0.2568
   29MOL0     C 3701   4.223   2.178   4.958 -0.0754  0.2524  0.0335
   29MOL0     C 3702   4.204   2.272   5.052 -0.1755 -0.1662 -0.9354
   29MOL0     C 3703   4.201   2.407   5.024  0.4678 -0.0679 -0.2629
   29MOL0     O 3704   4.183   2.511   5.112 -0.4528 -0.0016  0.4752
   29MOL0     C 3705   4.293   2.530   5.193 -0.9279 -0.7331  0.8630
   29MOL0     C 3706   4.244   2.628   5.292 -0.4064  0.4489  0.2516
   29MOL0     C 3707   4.352   2.695   5.358 -1.9812 -0.7461  0.5418
   29MOL0     C 3708   4.320   2.811   5.446  1.6235 -1.3782 -0.8210
   29MOL0     C 3709   4.189   2.793   5.528  0.8068  0.0109 -0.5867
   29MOL0     C 3710   4.214   2.688   5.638  0.9785 -0.5904  0.0034
   29MOL0     C 3711   4.115   2.708   5.745  0.0522 -1.1722  0.6185
   29MOL0     C 3712   4.135   2.609   5.865 -0.7592  1.0648 -0.8845
   29MOL0     N 3713   4.274   2.649   5.922  0.0569 -0.6176 -0.3132
   29MOL0     C 3714   4.394   2.579   5.939 -0.0466  0.6292 -0.0440
   29MOL0     C 3715   4.483   2.656   6.004  0.6937 -0.9722 -0.2988
   29MOL0     C 3716   4.619   2.602   6.051  0.2488  0.1140  0.0134
   29MOL0     C 3717   4.732   2.707   6.054 -0.3868  0.7464  0.3498
   29MOL0     C 3718   4.778   2.767   5.919 -0.0307  0.3639 -1.1191
   29MOL0     C 3719   4.694   2.893   5.876 -0.6567 -0.7082 -0.3491
   29MOL0     O 3720   4.784   2.978   5.798  0.2074  0.1470  0.4791
   29MOL0     C 3721   4.821   2.925   5.678 -0.3182 -0.0530 -0.9404
   29MOL0     C 3722   4.742   2.838   5.612 -0.4770  0.0547  0.6653
   29MOL0     C 3723   4.777   2.791   5.487  0.4741  0.2664 -0.2334
   29MOL0     C 3724   4.896   2.828   5.424  0.0200 -0.3066  0.5740
   29MOL0     C 3725   4.930   2.766   5.291  0.3842  0.5211  0.3245
   29MOL0     O 3726   4.871   2.645   5.265 -0.1514 -0.8369  0.5282
   29MOL0     C 3727   4.914   2.566   5.158  0.4912  0.0727  0.2949
   29MOL0     C 3728   4.810   2.489   5.096 -0.9368 -0.2667  0.4541
   29MOL0     C 3729   4.849   2.392   5.004  0.1901  0.0211  0.8451
   29MOL0     C 3730   4.978   2.371   4.962 -0.2567 -0.1262  0.5555
   29MOL0     O 3731   5.013   2.285   4.854 -0.2288 -0.3186  0.5479
   29MOL0     C 3732   5.092   2.176   4.883  0.2080  0.2252 -0.1436
   29MOL0     C 3733   5.015   2.044   4.843 -0.4718  0.3733  0.6332
   29MOL0     C 3734   5.076   1.925   4.909 -0.0792  0.9794  0.2502
   29MOL0     C 3735   5.001   1.787   4.892  0.6091 -0.0071  0.3364
   29MOL0     C 3736   4.979   1.755   4.743 -0.2758 -0.5832  0.2529
   29MOL0     C 3737   5.099   1.759   4.650  0.7614  0.4865 -0.2882
   29MOL0     C 3738   5.069   1.698   4.522 -0.7843 -0.9441  0.4790
   29MOL0     C 3739   5.171   1.687   4.407 -0.0011  1.3337  0.3741
   29MOL0    Cl 3740   5.231   1.512   4.393  0.0517  0.0535 -0.2072
   29MOL0     C 3741   5.078   2.442   5.028  0.0499 -0.2651 -0.0517
   29MOL0     C 3742   5.046   2.532   5.132  0.6329 -1.4039  1.0565
   29MOL0     O 3743   5.011   2.820   5.219  0.2383 -0.6274 -0.1980
   29MOL0     C 3744   4.981   2.916   5.494  0.1338 -0.0320 -0.4796
   29MOL0     C 3745   4.935   2.973   5.620  0.4315  0.1321 -0.1370
   29MOL0     N 3746   4.410   2.772   6.045 -0.1118  0.4219  0.6302
   29MOL0     N 3747   4.290   2.762   6.000 -0.2660  1.0890  0.2439
   29MOL0     C 3748   4.215   2.451   4.899  1.0662 -0.1157 -0.0162
   29MOL0     C 3749   4.235   2.352   4.795  0.7903  1.5088  0.8651
   29MOL0     C 3750   4.337   1.942   4.596 -0.3873  0.3554  0.6382
   29MOL0     C 3751   4.458   1.860   4.573  0.0311 -0.6582  0.1465
   29MOL0     C 3752   4.446   1.765   4.464 -0.6358  0.0944  0.8513
   29MOL0     C 3753   4.337   1.767   4.378  0.0841 -0.1053 -0.4275
   29MOL0     O 3754   4.334   1.676   4.283 -0.2796  0.5498  0.6171
   29MOL0     C 3755   4.356   1.740   4.155 -0.6086  0.4553 -0.4354
   29MOL0     C 3756   4.489   1.685   4.098 -0.3527  0.3939 -0.2096
   29MOL0     C 3757   4.492   1.721   3.948  0.1789  0.6775 -0.6347
   29MOL0     C 3758   4.613   1.642   3.892  0.5642  0.2500  0.7122
   29MOL0     C 3759   4.597   1.591   3.752  0.3021 -1.1154 -0.5649
   29MOL0     C 3760   4.588   1.552   3.638 -0.5372 -0.1593 -0.2833
   29MOL0     C 3761   4.225   1.847   4.404  0.2103 -0.1843  0.4912
   29MOL0     C 3762   4.224   1.919   4.517  0.8325 -0.4664  0.4709
   29MOL0     H 3763   4.223   2.075   4.991 -2.4173  1.4517  4.7284
   29MOL0     H 3764   4.199   2.222   5.148  0.9005  1.5571  0.0844
   29MOL0     H 3765   4.371   2.562   5.124  0.6230 -5.1909  0.2480
   29MOL0     H 3766   4.322   2.441   5.249 -4.7862 -1.0519  2.7250
   29MOL0     H 3767   4.172   2.578   5.358 -0.1291 -1.9984 -1.1483
   29MOL0     H 3768   4.192   2.708   5.239  1.5469  0.9710 -0.9572
   29MOL0     H 3769   4.431   2.720   5.287 -2.2123 -3.0640 -0.6320
   29MOL0     H 3770   4.392   2.619   5.426  2.4153 -1.0268 -1.9394
   29MOL0     H 3771   4.399   2.841   5.515  0.2457 -0.0507  0.2721
   29MOL0     H 3772   4.303   2.891   5.372 -1.2860 -0.7126  0.4015
   29MOL0     H 3773   4.102   2.779   5.463 -2.1130  3.8236  2.0149
   29MOL0     H 3774   4.158   2.889   5.569  0.5400  0.8916 -2.7299
   29MOL0     H 3775   4.319   2.687   5.667  0.8415 -0.3489  0.5341
   29MOL0     H 3776   4.178   2.596   5.591  0.2578  0.0608 -0.7451
   29MOL0     H 3777   4.133   2.809   5.784 -2.1704  0.3141 -1.8326
   29MOL0     H 3778   4.015   2.718   5.700  1.4610  1.1873 -2.4040
   29MOL0     H 3779   4.144   2.508   5.823 -0.2110 -0.0846  1.8271
   29MOL0     H 3780   4.053   2.614   5.938 -0.7852 -1.0364 -0.7262
   29MOL0     H 3781   4.405   2.478   5.900 -3.0285 -0.5746  1.8442
   29MOL0     H 3782   4.643   2.521   5.981 -2.5968 -0.1769 -0.7308
   29MOL0     H 3783   4.614   2.565   6.154  0.5408 -0.1475 -0.0660
   29MOL0     H 3784   4.820   2.650   6.086  0.4381  1.7205 -0.1498
   29MOL0     H 3785   4.698   2.782   6.126 -0.1123 -1.0843  2.5254
   29MOL0     H 3786   4.883   2.793   5.936  0.0836  0.1586 -1.4994
   29MOL0     H 3787   4.789   2.692   5.841  1.2627  1.1693 -1.7317
   29MOL0     H 3788   4.658   2.938   5.968 -1.0424 -0.3736 -0.6613
   29MOL0     H 3789   4.608   2.860   5.816 -0.3683  0.5973 -1.5386
   29MOL0     H 3790   4.640   2.809   5.639 -1.1138  2.6813  1.2977
   29MOL0     H 3791   4.707   2.727   5.434  1.1271 -0.0856 -0.6932
   29MOL0     H 3792   4.704   2.504   5.113 -1.4635 -1.0193 -1.8489
   29MOL0     H 3793   4.766   2.339   4.959 -0.3565  1.1309  0.4998
   29MOL0     H 3794   5.087   2.164   4.992 -3.7765  1.9553  0.0356
   29MOL0     H 3795   5.196   2.183   4.850 -0.3067 -1.0696 -2.1807
   29MOL0     H 3796   5.022   2.039   4.734 -0.8962  2.2095  0.4852
   29MOL0     H 3797   4.908   2.060   4.862 -0.9986 -3.3640  1.5812
   29MOL0     H 3798   5.072   1.949   5.015 -1.6484 -0.5654  0.5968
   29MOL0     H 3799   5.180   1.913   4.879  1.3206  5.6104  2.4411
   29MOL0     H 3800   5.054   1.703   4.940 -0.2417 -0.5874  0.2774
   29MOL0     H 3801   4.909   1.793   4.950  2.4991  1.2531  3.4698
   29MOL0     H 3802   4.906   1.826   4.703  1.9986  1.4884 -0.5089
   29MOL0     H 3803   4.927   1.659   4.748 -2.1502  0.3611 -0.1544
   29MOL0     H 3804   5.180   1.697   4.691  0.7700  0.2433 -0.6578
   29MOL0     H 3805   5.134   1.862   4.642 -1.6075  1.3064 -0.6441
   29MOL0     H 3806   5.050   1.594   4.548 -0.2998 -1.0347  0.4767
   29MOL0     H 3807   4.982   1.753   4.484 -0.8473  1.3131  3.4734
   29MOL0     H 3808   5.253   1.757   4.425  2.6995 -1.4923 -0.0543
   29MOL0     H 3809   5.123   1.700   4.310 -2.3676  2.2632  1.5717
   29MOL0     H 3810   5.183   2.427   5.004 -0.5769 -2.5322 -1.8188
   29MOL0     H 3811   5.124   2.586   5.184  2.1728 -1.7155 -0.7924
   29MOL0     H 3812   5.078   2.953   5.462 -0.0553 -0.8705 -2.1310
   29MOL0     H 3813   4.985   3.056   5.669 -0.3998  1.9627 -2.2926
   29MOL0     H 3814   4.201   2.558   4.885 -0.0906 -0.2720 -0.1168
   29MOL0     H 3815   4.223   2.390   4.694 -0.2235 -1.1163 -0.0944
   29MOL0     H 3816   4.547   1.856   4.635  0.8537 -2.9393 -1.0699
   29MOL0     H 3817   4.524   1.695   4.435 -2.8378 -1.8921 -0.6402
   29MOL0     H 3818   4.359   1.850   4.150 -3.0760  0.7133  1.7515
   29MOL0     H 3819   4.275   1.711   4.087 -0.8166 -3.3180  1.1781
   29MOL0     H 3820   4.567   1.737   4.153 -2.3090  1.9483  1.2167
   29MOL0     H 3821   4.502   1.577   4.107 -0.0017  0.6062  2.6469
   29MOL0     H 3822   4.504   1.830   3.944 -0.8753  1.2228  4.3920
   29MOL0     H 3823   4.402   1.688   3.897 -0.2294 -1.5374  1.3568
   29MOL0     H 3824   4.683   1.726   3.885 -0.4043  1.6115  4.8825
   29MOL0     H 3825   4.662   1.563   3.950 -0.6124  0.8801  2.6334
   29MOL0     H 3826   4.591   1.494   3.548  3.9988 -0.1756 -0.3297
   29MOL0     H 3827   4.144   1.845   4.331  2.5396 -0.5787 -2.2831
   29MOL0     H 3828   4.132   1.977   4.526  1.2394  0.0594  1.4217
   30MOL0     O 3829  10.868  11.426   6.235 -0.4886 -0.1675 -0.1617
   30MOL0     C 3830  10.981  11.390   6.235  0.7708  0.9295  0.2844
   30MOL0     O 3831  11.056  11.373   6.348 -0.0055  0.4574  0.1934
   30MOL0     C 3832  11.017  11.424   6.467  0.0495 -0.5747  0.2325
   30MOL0     C 3833  10.988  11.349   6.585 -0.6079  0.3111  0.0419
   30MOL0     C 3834  10.960  11.410   6.702 -0.4501 -1.5619 -0.3027
   30MOL0     C 3835  10.941  11.552   6.711 -0.5609  0.0696 -0.3283
   30MOL0     O 3836  10.887  11.606   6.823 -0.3573 -0.4159  0.0207
   30MOL0     C 3837  10.887  11.751   6.840 -0.5240  0.3661 -0.5148
   30MOL0     C 3838  10.816  11.800   6.964 -0.4435  0.4067  0.5659
   30MOL0     C 3839  10.899  11.799   7.086  0.5171  0.3323  0.3073
   30MOL0     C 3840  10.881  11.931   7.164  0.3887  0.3936 -0.7215
   30MOL0     C 3841  10.958  11.924   7.295  0.0007 -0.2543  0.5853
   30MOL0     C 3842  10.926  12.039   7.398 -0.4184  0.5081 -0.1226
   30MOL0     C 3843  11.011  12.037   7.525  0.2765 -0.3839  0.2595
   30MOL0     C 3844  10.950  12.130   7.636  0.7110  0.8171  0.6489
   30MOL0     N 3845  10.819  12.100   7.694 -0.4784 -0.3041  0.2537
   30MOL0     C 3846  10.796  11.989   7.774  0.6364 -0.0383  0.5961
   30MOL0     C 3847  10.666  12.004   7.811  0.0893  0.0872 -0.8734
   30MOL0     C 3848  10.587  11.914   7.896  0.3664  0.3880  0.1326
   30MOL0     C 3849  10.554  11.965   8.037 -0.6604 -1.2080 -0.1902
   30MOL0     C 3850  10.679  11.958   8.131  1.2756  0.3204  0.2835
   30MOL0     C 3851  10.670  12.048   8.256  0.2690  0.5038  0.1271
   30MOL0     O 3852  10.584  11.980   8.345  0.8874  0.2132 -0.0112
   30MOL0     C 3853  10.518  12.047   8.446 -0.1234  0.3080 -0.2016
   30MOL0     C 3854  10.551  12.175   8.495 -0.6886 -0.6198  0.0792
   30MOL0     C 3855  10.499  12.227   8.610  0.8779  0.6424 -0.6409
   30MOL0     C 3856  10.396  12.157   8.676 -0.5977  0.0145 -0.0298
   30MOL0     C 3857  10.362  12.211   8.816  1.2273  0.8214 -0.4438
   30MOL0     O 3858  10.319  12.117   8.896  0.4968  0.7578 -0.3326
   30MOL0     C 3859  10.266  12.171   9.011  0.0971  0.2750  0.7929
   30MOL0     C 3860  10.130  12.200   8.998 -0.3774  1.1311  0.1397
   30MOL0     C 3861  10.060  12.271   9.099  0.4217  0.1492  0.2751
   30MOL0     C 3862  10.134  12.328   9.206 -0.3330 -0.8052 -0.1122
   30MOL0     O 3863  10.081  12.403   9.309 -0.3504 -0.0395  0.0139
   30MOL0     C 3864  10.151  12.527   9.312 -0.2684 -0.1524 -0.7946
   30MOL0     C 3865  10.052  12.619   9.393 -0.4269  1.0394 -0.5211
   30MOL0     C 3866   9.985  12.712   9.309  1.0857 -0.3088 -0.0470
   30MOL0     C 3867   9.887  12.795   9.384 -0.0783  0.4574 -0.3013
   30MOL0     C 3868   9.789  12.859   9.293 -1.0268 -1.0183  0.3013
   30MOL0     C 3869   9.707  12.957   9.383  0.0699 -0.6751  0.4739
   30MOL0     C 3870   9.573  13.000   9.336 -0.8529 -0.8810 -0.0526
   30MOL0     C 3871   9.498  13.105   9.423  0.3842 -0.2097  0.8526
   30MOL0    Cl 3872   9.356  13.157   9.337  0.3277  0.1916  0.1352
   30MOL0     C 3873  10.269  12.289   9.219  0.0295  0.0363  0.2584
   30MOL0     C 3874  10.342  12.224   9.115 -0.8926 -0.4054 -0.0535
   30MOL0     O 3875  10.382  12.326   8.844  0.4372 -0.6546 -0.1377
   30MOL0     C 3876  10.366  12.028   8.627  0.9367  0.1243 -0.1267
   30MOL0     C 3877  10.417  11.972   8.513 -0.8319 -0.7748  0.4524
   30MOL0     N 3878  10.613  12.117   7.751 -0.5843  0.4895 -0.2106
   30MOL0     N 3879  10.706  12.175   7.688  0.0251  0.0185  0.1000
   30MOL0     C 3880  10.967  11.628   6.597 -0.3029  1.0724 -0.2578
   30MOL0     C 3881  11.001  11.567   6.475  0.4352  0.0797 -0.0972
   30MOL0     C 3882  11.039  11.348   6.103  0.1557  0.6010 -0.1559
   30MOL0     C 3883  11.003  11.419   5.991 -0.3446  0.7421  0.4204
   30MOL0     C 3884  11.048  11.402   5.859 -0.1040 -0.0807  0.0910
   30MOL0     C 3885  11.137  11.294   5.837  0.5951 -0.1631  0.6054
   30MOL0     O 3886  11.177  11.260   5.713  0.6917  0.2718  0.4612
   30MOL0     C 3887  11.230  11.130   5.679  0.1030  0.0878  0.2783
   30MOL0     C 3888  11.139  11.030   5.618  0.2986  1.3582 -1.0431
   30MOL0     C 3889  11.201  10.894   5.582 -0.2462 -0.3168  0.5972
   30MOL0     C 3890  11.236  10.805   5.706 -0.5535  0.4189 -0.4007
   30MOL0     C 3891  11.126  10.770   5.792 -1.0653 -0.3592 -0.5455
   30MOL0     C 3892  11.029  10.730   5.864  0.3784 -0.6299 -0.5120
   30MOL0     C 3893  11.170  11.218   5.950 -0.1410  0.0230 -0.4093
   30MOL0     C 3894  11.132  11.245   6.082  0.2337  0.2596 -0.1014
   30MOL0     H 3895  10.989  11.240   6.576  0.5428  0.1755  1.4295
   30MOL0     H 3896  10.954  11.352   6.794  0.9284 -0.8172  0.2863
   30MOL0     H 3897  10.837  11.804   6.758  2.0786  2.6836 -0.7491
   30MOL0     H 3898  10.986  11.796   6.839 -0.5781  0.4792 -0.8499
   30MOL0     H 3899  10.725  11.738   6.967 -2.0707  2.3463 -2.6655
   30MOL0     H 3900  10.788  11.903   6.940  0.7946  0.3847 -1.1509
   30MOL0     H 3901  11.002  11.772   7.061  0.3646  1.1411 -1.2742
   30MOL0     H 3902  10.856  11.715   7.141  0.1299 -1.3099 -2.3082
   30MOL0     H 3903  10.921  12.012   7.103  3.3610  0.2827  0.8867
   30MOL0     H 3904  10.777  11.956   7.185  0.8135  2.2938 -0.7268
   30MOL0     H 3905  11.064  11.928   7.268 -0.3854 -0.3144 -1.0289
   30MOL0     H 3906  10.944  11.824   7.337  3.7147  0.0780  3.0409
   30MOL0     H 3907  10.819  12.024   7.414 -0.5187  1.1345 -0.1880
   30MOL0     H 3908  10.932  12.136   7.348 -0.5992  0.9874  0.7603
   30MOL0     H 3909  11.015  11.937   7.571  1.1838  0.3152  1.8004
   30MOL0     H 3910  11.114  12.071   7.507  0.0495 -0.5783 -1.5600
   30MOL0     H 3911  10.944  12.229   7.591  0.4098  0.6083  0.2278
   30MOL0     H 3912  11.028  12.141   7.712  1.4114  3.3513 -0.3518
   30MOL0     H 3913  10.874  11.921   7.807  3.1679  3.5625  2.8981
   30MOL0     H 3914  10.639  11.818   7.900 -2.1713 -1.0759 -0.1420
   30MOL0     H 3915  10.496  11.901   7.837 -0.6367  1.9613  1.2627
   30MOL0     H 3916  10.476  11.898   8.073 -3.7990  3.3467  2.6417
   30MOL0     H 3917  10.508  12.064   8.029 -3.5929 -2.4353  0.0260
   30MOL0     H 3918  10.706  11.855   8.152  0.8791  0.0235 -0.6195
   30MOL0     H 3919  10.768  11.993   8.077  0.8529 -1.5539 -1.7525
   30MOL0     H 3920  10.627  12.146   8.235 -1.1616  0.0701  0.9062
   30MOL0     H 3921  10.774  12.053   8.289  0.5009 -1.7893 -0.1199
   30MOL0     H 3922  10.620  12.227   8.430 -0.1830 -2.4932 -0.9582
   30MOL0     H 3923  10.525  12.328   8.641 -1.6452  0.5765  2.1189
   30MOL0     H 3924  10.071  12.164   8.915  0.7752 -2.1500  0.6208
   30MOL0     H 3925   9.952  12.271   9.113  0.3982 -1.1200  0.2153
   30MOL0     H 3926  10.182  12.566   9.214  0.8276 -0.5158 -0.6073
   30MOL0     H 3927  10.250  12.517   9.356  0.2148 -1.2493 -2.0485
   30MOL0     H 3928  10.105  12.673   9.471  1.1131 -2.6330  1.2351
   30MOL0     H 3929   9.972  12.562   9.441 -2.5327  2.6355 -1.9217
   30MOL0     H 3930   9.936  12.658   9.227  1.9182  1.2437 -1.6247
   30MOL0     H 3931  10.059  12.778   9.263 -1.8094  1.6535 -2.1868
   30MOL0     H 3932   9.824  12.729   9.444  1.6274 -2.5926 -1.6395
   30MOL0     H 3933   9.922  12.863   9.462 -0.6629  0.7136 -0.2563
   30MOL0     H 3934   9.722  12.780   9.258 -0.0970 -2.9478  2.6253
   30MOL0     H 3935   9.844  12.915   9.217  0.1642 -1.9077  0.4752
   30MOL0     H 3936   9.765  13.047   9.403 -1.8093  0.6662  0.2147
   30MOL0     H 3937   9.697  12.911   9.482 -0.1129  0.9181  1.2393
   30MOL0     H 3938   9.585  13.057   9.244 -0.3855  1.3875  1.3305
   30MOL0     H 3939   9.510  12.916   9.308  0.1168 -0.8330 -2.6208
   30MOL0     H 3940   9.569  13.183   9.452  2.5062 -3.0084  4.0592
   30MOL0     H 3941   9.464  13.062   9.518  2.6561 -4.3748  0.0107
   30MOL0     H 3942  10.325  12.327   9.304 -0.1126 -3.0924  1.8849
   30MOL0     H 3943  10.446  12.197   9.124 -0.8363 -0.3510 -0.4810
   30MOL0     H 3944  10.299  11.962   8.681  0.6006 -0.1291 -0.8496
   30MOL0     H 3945  10.407  11.873   8.469  0.6869  0.6079 -3.4722
   30MOL0     H 3946  10.946  11.735   6.604  0.3597  1.1250  1.3515
   30MOL0     H 3947  11.014  11.630   6.388  2.0343 -0.5126 -0.3240
   30MOL0     H 3948  10.935  11.500   6.014  0.7234  2.1843 -1.2795
   30MOL0     H 3949  11.022  11.469   5.778  0.7021 -2.1447 -1.9911
   30MOL0     H 3950  11.296  11.085   5.753 -1.2987 -1.1764  0.8189
   30MOL0     H 3951  11.295  11.145   5.593  0.4767  1.2542  0.7486
   30MOL0     H 3952  11.056  11.020   5.690  2.3235  0.1605  1.2843
   30MOL0     H 3953  11.109  11.076   5.524  1.7404  0.9563 -1.7197
   30MOL0     H 3954  11.278  10.915   5.507  0.9030 -1.1686  1.4848
   30MOL0     H 3955  11.117  10.840   5.538  0.0630 -2.5142  2.4750
   30MOL0     H 3956  11.285  10.719   5.659 -2.2424 -0.4156 -0.6923
   30MOL0     H 3957  11.312  10.858   5.765  1.1033 -3.3178  1.1739
   30MOL0     H 3958  10.934  10.733   5.913  0.8748  0.2373  0.4243
   30MOL0     H 3959  11.225  11.129   5.923 -2.0310 -1.9423  1.8283
   30MOL0     H 3960  11.178  11.185   6.160 -0.8993 -1.8474 -0.9736
   31MOL0     O 3961   1.042   4.040   6.976  1.0131  0.6410 -0.5802
   31MOL0     C 3962   1.056   4.026   7.094  0.2861  0.1526 -0.2848
   31MOL0     O 3963   1.177   3.997   7.159 -0.1572  0.6698 -0.2569
   31MOL0     C 3964   1.295   3.970   7.088  0.6791  0.2661  0.2767
   31MOL0     C 3965   1.313   3.914   6.957  0.2293 -0.2757 -0.5354
   31MOL0     C 3966   1.452   3.888   6.914 -0.0452 -0.4589  0.5826
   31MOL0     C 3967   1.562   3.919   6.993 -1.3326 -0.3525  0.3346
   31MOL0     O 3968   1.694   3.906   6.961 -0.4476  0.1029  0.2398
   31MOL0     C 3969   1.733   3.833   6.843 -0.2624 -0.4366  0.1316
   31MOL0     C 3970   1.865   3.753   6.870 -0.6421  1.2815 -0.2142
   31MOL0     C 3971   1.980   3.848   6.897  0.7555 -0.9357  0.3019
   31MOL0     C 3972   2.069   3.795   7.004  0.8953 -0.2622  0.0653
   31MOL0     C 3973   2.217   3.827   6.975 -1.3702 -0.5092 -1.0865
   31MOL0     C 3974   2.297   3.814   7.100 -0.6670 -0.1551  0.1087
   31MOL0     C 3975   2.445   3.846   7.065 -0.2395 -0.5362  0.0380
   31MOL0     C 3976   2.516   3.722   7.002 -0.1210  0.2093 -0.2590
   31MOL0     N 3977   2.661   3.752   7.017 -0.3357  0.7105 -0.5341
   31MOL0     C 3978   2.727   3.724   7.133 -0.0736 -1.3930  0.1458
   31MOL0     C 3979   2.850   3.781   7.110 -0.5728  0.3675 -0.1769
   31MOL0     C 3980   2.969   3.810   7.196  1.4492  0.2609  0.6559
   31MOL0     C 3981   2.938   3.847   7.346  0.1162 -0.2397 -0.6515
   31MOL0     C 3982   2.861   3.741   7.424  1.2774 -0.1707  0.5927
   31MOL0     C 3983   2.860   3.768   7.575 -0.3689 -0.5282  0.3040
   31MOL0     O 3984   2.810   3.648   7.633  0.0737 -0.2404  0.2798
   31MOL0     C 3985   2.834   3.617   7.766  0.5898 -0.3547  0.6904
   31MOL0     C 3986   2.833   3.486   7.808 -0.5668 -0.2415 -0.6374
   31MOL0     C 3987   2.855   3.451   7.944  0.4735 -0.1464 -0.0168
   31MOL0     C 3988   2.873   3.546   8.040 -0.0969 -0.4377  0.2681
   31MOL0     C 3989   2.877   3.526   8.186 -0.4406 -0.0863 -0.4047
   31MOL0     O 3990   2.888   3.635   8.252 -0.3369  0.8964  0.0431
   31MOL0     C 3991   2.897   3.641   8.391 -0.5975 -0.2319  0.3259
   31MOL0     C 3992   2.797   3.710   8.464 -0.1520 -0.2616  0.4949
   31MOL0     C 3993   2.811   3.736   8.602 -0.1783 -0.2471 -0.4789
   31MOL0     C 3994   2.932   3.703   8.669 -0.3318  0.0720 -0.2791
   31MOL0     O 3995   2.956   3.735   8.798 -0.1210  0.2716  0.7013
   31MOL0     C 3996   2.852   3.698   8.888 -0.8196  0.4990 -0.3223
   31MOL0     C 3997   2.915   3.700   9.029 -0.4651  0.3116  1.0016
   31MOL0     C 3998   2.819   3.640   9.130 -0.1044  0.5177 -0.4519
   31MOL0     C 3999   2.695   3.726   9.156 -1.1378  0.5568 -0.2408
   31MOL0     C 4000   2.619   3.683   9.288 -0.5190  0.3502  0.1899
   31MOL0     C 4001   2.622   3.527   9.306 -0.8519 -0.1511 -0.1243
   31MOL0     C 4002   2.521   3.476   9.405  0.4069  0.4025  0.1469
   31MOL0     C 4003   2.523   3.554   9.536  0.3913  0.0289  0.2011
   31MOL0    Cl 4004   2.677   3.524   9.633  0.0885 -0.2046 -0.4510
   31MOL0     C 4005   3.024   3.625   8.604  0.1430 -0.4839 -0.4708
   31MOL0     C 4006   3.013   3.606   8.461  0.4474  1.5950 -0.8257
   31MOL0     O 4007   2.879   3.409   8.233  0.1656 -0.2112  0.2223
   31MOL0     C 4008   2.878   3.680   7.994 -0.4003  0.5959 -0.4621
   31MOL0     C 4009   2.854   3.708   7.863 -1.0385  0.0929 -0.0994
   31MOL0     N 4010   2.865   3.818   6.978 -0.8266  0.2968  0.5135
   31MOL0     N 4011   2.751   3.788   6.923 -0.9339  0.2567  0.2641
   31MOL0     C 4012   1.545   3.984   7.115  0.6032  0.5905  0.4752
   31MOL0     C 4013   1.405   4.009   7.156 -1.3781 -0.6988  0.5836
   31MOL0     C 4014   0.941   4.061   7.181 -0.1973 -0.0378 -0.3919
   31MOL0     C 4015   0.818   4.057   7.121  0.7791  0.3628  0.7531
   31MOL0     C 4016   0.701   4.058   7.203 -0.3656 -0.1517  0.1400
   31MOL0     C 4017   0.710   4.065   7.346 -0.5614  0.3820 -0.2475
   31MOL0     O 4018   0.588   4.044   7.413  0.0654  0.1037 -0.2725
   31MOL0     C 4019   0.564   4.049   7.558  0.4948  0.6243 -0.3185
   31MOL0     C 4020   0.574   4.199   7.600 -0.3475 -0.4725  0.2172
   31MOL0     C 4021   0.597   4.225   7.754 -0.0743  0.2502  0.0557
   31MOL0     C 4022   0.507   4.161   7.851  0.3151  0.9489  0.0343
   31MOL0     C 4023   0.568   4.164   7.986  0.5222 -1.1416  0.0902
   31MOL0     C 4024   0.644   4.164   8.091 -0.1273  0.1858  0.3950
   31MOL0     C 4025   0.834   4.076   7.409  0.2326 -0.6122  0.1972
   31MOL0     C 4026   0.948   4.064   7.327  0.2163 -0.9277  0.2319
   31MOL0     H 4027   1.238   3.882   6.886  0.2639  0.7461 -1.0512
   31MOL0     H 4028   1.460   3.857   6.810  4.2373 -1.0202  0.9104
   31MOL0     H 4029   1.755   3.916   6.776 -0.9668 -2.0183 -2.1717
   31MOL0     H 4030   1.656   3.772   6.795 -0.2544  0.8782 -1.6343
   31MOL0     H 4031   1.886   3.704   6.774  0.9600  1.5551 -0.0350
   31MOL0     H 4032   1.859   3.686   6.956 -1.4651 -0.9599 -1.8981
   31MOL0     H 4033   1.934   3.944   6.924 -0.0403 -0.7703 -1.5417
   31MOL0     H 4034   2.042   3.868   6.809 -0.8150  2.1734 -0.2400
   31MOL0     H 4035   2.027   3.839   7.094 -3.6385 -2.1213 -0.8444
   31MOL0     H 4036   2.060   3.686   7.018  1.2320 -0.2886  0.1034
   31MOL0     H 4037   2.236   3.934   6.962 -2.1656 -0.2812 -0.4587
   31MOL0     H 4038   2.260   3.770   6.892  2.8161  1.1722 -0.3467
   31MOL0     H 4039   2.276   3.711   7.131  0.3865 -0.3983  0.0658
   31MOL0     H 4040   2.257   3.883   7.175  0.8198  1.5917 -0.6169
   31MOL0     H 4041   2.441   3.924   6.989 -1.9715 -0.3857  0.2388
   31MOL0     H 4042   2.489   3.879   7.160  1.1396  2.7782 -1.6103
   31MOL0     H 4043   2.496   3.716   6.895  0.7369 -0.1522 -0.4061
   31MOL0     H 4044   2.496   3.628   7.055  2.1627  0.0002  0.3305
   31MOL0     H 4045   2.687   3.680   7.224 -4.7381  1.3279 -0.2525
   31MOL0     H 4046   3.017   3.895   7.147 -0.5139 -0.8144 -3.6246
   31MOL0     H 4047   3.034   3.722   7.201  0.0746 -0.7372  1.3815
   31MOL0     H 4048   2.887   3.943   7.359 -0.1641 -0.5195  0.3651
   31MOL0     H 4049   3.040   3.853   7.385  1.1968  1.0698 -3.4265
   31MOL0     H 4050   2.753   3.740   7.407  1.4995 -5.5602 -2.7741
   31MOL0     H 4051   2.902   3.640   7.417 -0.0399 -0.6136 -1.6598
   31MOL0     H 4052   2.796   3.852   7.603  0.0982 -0.8067  2.3770
   31MOL0     H 4053   2.961   3.795   7.607 -0.8480  2.9626 -0.7179
   31MOL0     H 4054   2.819   3.406   7.736 -3.6264 -1.1278  0.7631
   31MOL0     H 4055   2.858   3.350   7.984  6.4428 -0.6969 -0.9674
   31MOL0     H 4056   2.707   3.736   8.410  0.0204 -0.1639  0.2502
   31MOL0     H 4057   2.741   3.804   8.649  2.0043  2.6451 -1.1214
   31MOL0     H 4058   2.818   3.596   8.866  0.5236 -0.6691  2.5976
   31MOL0     H 4059   2.775   3.774   8.902  1.2221  2.2138  2.9083
   31MOL0     H 4060   2.940   3.805   9.044 -0.9722  1.0614 -2.4892
   31MOL0     H 4061   3.012   3.649   9.027 -0.8781 -0.5055 -1.0070
   31MOL0     H 4062   2.875   3.646   9.224  0.2095  3.2331 -0.7202
   31MOL0     H 4063   2.805   3.537   9.097  0.9663  0.4893 -0.8687
   31MOL0     H 4064   2.733   3.827   9.176  1.3334  0.1378 -2.3623
   31MOL0     H 4065   2.629   3.721   9.069 -0.3755 -2.5137 -0.7573
   31MOL0     H 4066   2.517   3.723   9.289 -0.6411  0.0676 -0.7046
   31MOL0     H 4067   2.668   3.740   9.368  2.1148 -0.2555 -0.8801
   31MOL0     H 4068   2.724   3.502   9.339  0.1054  4.1209  0.9270
   31MOL0     H 4069   2.610   3.484   9.207  0.6610  1.4916 -1.0880
   31MOL0     H 4070   2.420   3.490   9.365 -0.0361 -1.0210  0.6937
   31MOL0     H 4071   2.541   3.371   9.430  1.7491  0.7579  0.6575
   31MOL0     H 4072   2.435   3.525   9.594  0.3760 -1.4876 -0.5311
   31MOL0     H 4073   2.497   3.656   9.506  1.0711  0.2230  0.2680
   31MOL0     H 4074   3.106   3.585   8.664 -3.5273 -1.1387  4.7917
   31MOL0     H 4075   3.101   3.550   8.433 -0.6057  0.2113 -1.4703
   31MOL0     H 4076   2.892   3.765   8.060 -2.7159  0.6600  0.0256
   31MOL0     H 4077   2.850   3.809   7.823  2.2521 -0.2006 -1.5082
   31MOL0     H 4078   1.633   4.010   7.173  2.9980 -1.3170 -2.0064
   31MOL0     H 4079   1.392   4.039   7.260 -0.3380 -1.6497  1.0141
   31MOL0     H 4080   0.817   4.028   7.017  1.0582 -0.1831  0.9001
   31MOL0     H 4081   0.601   4.040   7.163 -0.3789 -2.9198  1.1798
   31MOL0     H 4082   0.637   3.987   7.609  0.7069  0.4867 -0.7799
   31MOL0     H 4083   0.466   4.007   7.583 -1.5242  3.5769 -2.4442
   31MOL0     H 4084   0.647   4.255   7.540 -0.0834  1.1029  1.9213
   31MOL0     H 4085   0.473   4.230   7.572 -0.7383 -0.3140  1.7308
   31MOL0     H 4086   0.590   4.332   7.777 -0.3715 -0.0457  1.4395
   31MOL0     H 4087   0.701   4.200   7.780 -0.0308  0.0678 -0.2869
   31MOL0     H 4088   0.406   4.202   7.861 -0.1051 -0.5206  3.0298
   31MOL0     H 4089   0.490   4.056   7.824 -1.1647  0.7190  1.6492
   31MOL0     H 4090   0.706   4.151   8.177  3.5985 -2.0966 -2.3300
   31MOL0     H 4091   0.853   4.091   7.515 -0.7344 -0.0179  0.2931
   31MOL0     H 4092   1.044   4.058   7.376  1.0995 -0.7146 -1.3922
   32MOL0     O 4093   8.339   8.776   2.574 -0.3914  0.4565 -0.1333
   32MOL0     C 4094   8.353   8.847   2.673 -0.0868  0.2959 -0.0193
   32MOL0     O 4095   8.432   8.814   2.779 -0.0798 -0.3242 -0.3216
   32MOL0     C 4096   8.511   8.702   2.782 -0.5986  0.1874  0.2086
   32MOL0     C 4097   8.646   8.730   2.808  0.2637  0.2925  0.2527
   32MOL0     C 4098   8.732   8.626   2.835  0.8263  0.4992  0.2305
   32MOL0     C 4099   8.687   8.491   2.831 -0.0780 -0.9509 -0.3309
   32MOL0     O 4100   8.756   8.377   2.848 -0.2162  0.2532  0.3965
   32MOL0     C 4101   8.899   8.398   2.861 -0.2300  0.1746 -0.1783
   32MOL0     C 4102   8.975   8.265   2.835 -0.8603  0.0271  0.5203
   32MOL0     C 4103   8.914   8.139   2.899 -0.0713 -0.2568  0.2350
   32MOL0     C 4104   8.955   8.015   2.837 -0.7766  0.3939  0.1924
   32MOL0     C 4105   8.888   7.890   2.892 -0.9718 -0.0180 -0.6832
   32MOL0     C 4106   8.935   7.758   2.838  0.2209 -0.8114  0.5777
   32MOL0     C 4107   9.091   7.729   2.830 -0.1016 -0.5773  0.0763
   32MOL0     C 4108   9.122   7.587   2.785 -0.1865  0.0105 -0.1319
   32MOL0     N 4109   9.256   7.544   2.727  0.9187 -0.3262  0.5219
   32MOL0     C 4110   9.308   7.589   2.610 -0.2539  1.0861 -0.0183
   32MOL0     C 4111   9.427   7.519   2.594  0.2029 -0.3396  0.5148
   32MOL0     C 4112   9.525   7.557   2.484  0.0556  1.0874  0.5253
   32MOL0     C 4113   9.532   7.445   2.380 -0.5751 -0.1683 -0.4037
   32MOL0     C 4114   9.567   7.302   2.442 -0.1526  0.0403 -0.6357
   32MOL0     C 4115   9.595   7.209   2.326  0.3912  0.2155 -0.6217
   32MOL0     O 4116   9.719   7.238   2.263 -0.3732  1.0484  0.8465
   32MOL0     C 4117   9.760   7.157   2.154  0.2801  0.0820 -0.6062
   32MOL0     C 4118   9.882   7.185   2.109  0.3712 -1.1508  0.1484
   32MOL0     C 4119   9.933   7.109   2.007 -0.0793  0.0398  0.6113
   32MOL0     C 4120   9.859   7.018   1.931  0.6456 -0.8882 -0.2233
   32MOL0     C 4121   9.913   6.948   1.813 -0.3057  0.1148  0.0698
   32MOL0     O 4122   9.826   6.886   1.731 -0.0237 -0.0713 -0.9174
   32MOL0     C 4123   9.881   6.815   1.626 -1.2804  0.1102 -0.9000
   32MOL0     C 4124   9.935   6.685   1.627  0.2971  0.7076 -0.4365
   32MOL0     C 4125   9.988   6.624   1.515  0.8332 -0.0065  0.9006
   32MOL0     C 4126   9.990   6.699   1.395  0.1390 -0.9467  0.0744
   32MOL0     O 4127  10.045   6.636   1.288 -0.5673  0.5192  0.4560
   32MOL0     C 4128   9.992   6.672   1.167 -0.0549 -0.0762  0.4159
   32MOL0     C 4129  10.007   6.565   1.053 -0.5957  0.0895  0.1203
   32MOL0     C 4130   9.935   6.440   1.104 -0.3733  0.3218  0.4334
   32MOL0     C 4131  10.000   6.313   1.038 -0.3636 -0.7885  0.0943
   32MOL0     C 4132  10.116   6.261   1.124  0.2651 -0.3328  0.1114
   32MOL0     C 4133  10.161   6.115   1.072 -0.3084 -0.1207 -0.0403
   32MOL0     C 4134  10.297   6.086   1.144 -0.2637 -0.4172  0.0857
   32MOL0     C 4135  10.385   5.987   1.066 -0.1424  0.1547 -0.8555
   32MOL0    Cl 4136  10.497   6.081   0.968  0.1297  0.0462 -0.1484
   32MOL0     C 4137   9.943   6.830   1.389  0.6729 -0.9911  0.3968
   32MOL0     C 4138   9.887   6.880   1.502  0.2442  0.1882  0.0938
   32MOL0     O 4139  10.037   6.949   1.800  0.1646 -1.0138 -0.7985
   32MOL0     C 4140   9.722   6.999   1.976 -0.0686 -0.3235  0.3413
   32MOL0     C 4141   9.674   7.065   2.094 -0.7377  0.3911  0.1982
   32MOL0     N 4142   9.431   7.431   2.698  0.6658 -0.5088 -0.1493
   32MOL0     N 4143   9.325   7.447   2.769 -0.4257  0.5846  0.5484
   32MOL0     C 4144   8.546   8.469   2.795 -0.3387  0.2369  0.6528
   32MOL0     C 4145   8.467   8.569   2.766  0.4165  0.5594 -0.4379
   32MOL0     C 4146   8.274   8.970   2.671  0.0826 -0.4804  0.6696
   32MOL0     C 4147   8.268   9.048   2.790  0.6692  0.3742  0.5700
   32MOL0     C 4148   8.203   9.162   2.785  0.1316 -0.1904  0.0022
   32MOL0     C 4149   8.117   9.204   2.680  0.5743  0.5641  0.0943
   32MOL0     O 4150   8.027   9.309   2.713  0.0694 -0.3803  0.6029
   32MOL0     C 4151   7.925   9.340   2.618  0.5736 -0.3316  0.3827
   32MOL0     C 4152   7.993   9.433   2.525 -0.2019  0.1096  0.6736
   32MOL0     C 4153   7.913   9.489   2.402  0.4064 -0.1194 -0.0707
   32MOL0     C 4154   7.832   9.386   2.325  0.2743  0.7768  0.2612
   32MOL0     C 4155   7.917   9.286   2.255  0.0926  0.1283 -0.4897
   32MOL0     C 4156   7.981   9.195   2.198  0.0191  0.3613  0.3587
   32MOL0     C 4157   8.128   9.128   2.563  0.3790  0.7139  0.2491
   32MOL0     C 4158   8.206   9.020   2.562 -0.7546  0.1224 -0.7524
   32MOL0     H 4159   8.679   8.832   2.824 -2.0472  1.3327 -1.0827
   32MOL0     H 4160   8.834   8.653   2.860 -0.2703  3.6069  1.8583
   32MOL0     H 4161   8.924   8.435   2.961 -1.5006  1.4713 -0.3040
   32MOL0     H 4162   8.931   8.466   2.782  2.0071 -1.5585 -0.8550
   32MOL0     H 4163   9.079   8.270   2.869 -1.0003  1.5525  0.8312
   32MOL0     H 4164   8.980   8.254   2.726  1.3026  0.9104  0.4713
   32MOL0     H 4165   8.805   8.142   2.888  0.0786  0.7664 -1.3548
   32MOL0     H 4166   8.950   8.143   3.002  3.5592  2.4271 -0.9331
   32MOL0     H 4167   8.935   8.015   2.730 -0.8638 -2.3131  0.1198
   32MOL0     H 4168   9.064   8.003   2.847 -0.4891 -0.3083 -2.9562
   32MOL0     H 4169   8.780   7.899   2.878 -0.9875  1.4273  0.1375
   32MOL0     H 4170   8.918   7.883   2.997  1.8321 -0.9346 -1.4496
   32MOL0     H 4171   8.891   7.733   2.741 -1.3405  0.8434  0.8084
   32MOL0     H 4172   8.908   7.676   2.906  0.2108 -0.1759  1.3549
   32MOL0     H 4173   9.146   7.804   2.772  0.5868  1.6256  3.3225
   32MOL0     H 4174   9.127   7.734   2.933  1.4447 -3.1686 -0.2541
   32MOL0     H 4175   9.035   7.549   2.730 -0.0609 -2.5298  1.2795
   32MOL0     H 4176   9.117   7.523   2.874 -2.2203  0.0895 -0.1325
   32MOL0     H 4177   9.261   7.663   2.546 -0.6013 -0.2616 -1.3901
   32MOL0     H 4178   9.623   7.549   2.533 -0.0068 -4.1635  0.3582
   32MOL0     H 4179   9.497   7.654   2.442 -1.0627  0.4579 -0.2192
   32MOL0     H 4180   9.619   7.479   2.322 -0.1245  0.6441  0.7066
   32MOL0     H 4181   9.447   7.448   2.312 -1.0512 -4.2953 -0.2056
   32MOL0     H 4182   9.654   7.305   2.507 -1.7268  2.2887  1.5538
   32MOL0     H 4183   9.482   7.259   2.497 -0.9929  1.4541 -0.7724
   32MOL0     H 4184   9.510   7.213   2.258 -0.3070 -0.3697  0.2010
   32MOL0     H 4185   9.600   7.106   2.361 -2.9047  0.9546  2.5413
   32MOL0     H 4186   9.944   7.261   2.155  0.4250 -0.2492 -1.3473
   32MOL0     H 4187  10.038   7.130   1.985  0.9241 -1.5496  3.3414
   32MOL0     H 4188   9.941   6.633   1.722  1.2239  0.7374 -0.4758
   32MOL0     H 4189  10.010   6.519   1.502 -3.0213 -0.7161 -1.7281
   32MOL0     H 4190  10.054   6.760   1.149  3.2734 -2.1965  0.5234
   32MOL0     H 4191   9.884   6.686   1.168 -0.1097 -0.4857  0.7034
   32MOL0     H 4192  10.105   6.532   1.016  0.4690  1.2308  1.7652
   32MOL0     H 4193   9.958   6.597   0.961  0.2049  1.1633  0.0512
   32MOL0     H 4194   9.830   6.459   1.079  0.0735  0.1185 -1.7825
   32MOL0     H 4195   9.943   6.437   1.213 -2.9275  0.6944  0.6951
   32MOL0     H 4196   9.916   6.243   1.042 -0.9831 -0.0081  0.8571
   32MOL0     H 4197  10.033   6.336   0.936 -0.5890  2.0113  0.5919
   32MOL0     H 4198  10.088   6.248   1.228  1.0389 -0.6466  0.2868
   32MOL0     H 4199  10.205   6.325   1.118  1.2266 -1.4131  1.9101
   32MOL0     H 4200  10.172   6.119   0.963  1.3394  0.0282  0.0964
   32MOL0     H 4201  10.089   6.035   1.091  0.7917 -0.9665  0.7409
   32MOL0     H 4202  10.345   6.179   1.175 -2.1629 -0.1213  2.3809
   32MOL0     H 4203  10.278   6.024   1.232  1.2188  1.1383  1.5826
   32MOL0     H 4204  10.332   5.923   0.995 -0.8293 -0.5738  0.2777
   32MOL0     H 4205  10.444   5.923   1.133  0.6544  1.3893 -0.3286
   32MOL0     H 4206   9.946   6.889   1.298  0.7217  2.9860  2.7498
   32MOL0     H 4207   9.850   6.982   1.507 -1.1677 -0.1770 -1.6879
   32MOL0     H 4208   9.660   6.930   1.919 -0.8497  0.6961 -0.0879
   32MOL0     H 4209   9.572   7.049   2.129 -2.2083 -0.6515 -3.9482
   32MOL0     H 4210   8.516   8.365   2.783  1.6465 -0.4457  1.2462
   32MOL0     H 4211   8.366   8.546   2.733  1.4207 -0.3535 -3.1282
   32MOL0     H 4212   8.319   9.007   2.877 -0.5613 -1.5827  0.4380
   32MOL0     H 4213   8.207   9.226   2.873  2.4627 -0.3205  0.0464
   32MOL0     H 4214   7.847   9.391   2.675  1.3561 -0.1036  1.2691
   32MOL0     H 4215   7.890   9.246   2.574  1.0644 -0.2494 -0.2062
   32MOL0     H 4216   8.034   9.515   2.585  1.4626 -1.8710  2.3907
   32MOL0     H 4217   8.093   9.395   2.502  0.5008  2.7067 -0.9917
   32MOL0     H 4218   7.981   9.538   2.331 -1.2486  1.7630 -0.4299
   32MOL0     H 4219   7.847   9.569   2.437 -0.3761  1.1800 -3.9727
   32MOL0     H 4220   7.755   9.340   2.387 -0.7431  0.1160 -1.4245
   32MOL0     H 4221   7.780   9.440   2.246 -0.8729  1.5469  1.5094
   32MOL0     H 4222   8.037   9.112   2.158 -0.5189  0.5383 -0.7919
   32MOL0     H 4223   8.068   9.154   2.476 -1.2515  0.7974  1.3594
   32MOL0     H 4224   8.205   8.949   2.479 -0.0482  0.2885 -0.9036
   33MOL0     O 4225   1.737   6.951   4.505  0.5319 -1.0277  1.1570
   33MOL0     C 4226   1.617   6.927   4.488  0.8967  0.0766  0.1163
   33MOL0     O 4227   1.580   6.809   4.425 -0.1584  0.3664 -0.9162
   33MOL0     C 4228   1.664   6.733   4.348 -0.6648 -0.2643 -1.3743
   33MOL0     C 4229   1.629   6.602   4.352  0.5822  1.3817  0.1838
   33MOL0     C 4230   1.719   6.502   4.314  0.9469  0.0378  0.8818
   33MOL0     C 4231   1.836   6.533   4.243  0.1874 -0.0912  0.4423
   33MOL0     O 4232   1.900   6.425   4.192  0.7754 -0.5847  0.5474
   33MOL0     C 4233   1.976   6.444   4.068 -0.7579  1.6127  0.7634
   33MOL0     C 4234   2.047   6.311   4.039  0.2086 -1.0888  0.6005
   33MOL0     C 4235   1.960   6.202   3.979 -1.2617 -0.0252  0.0726
   33MOL0     C 4236   1.873   6.142   4.076 -0.1711 -0.8441 -0.4573
   33MOL0     C 4237   1.868   5.982   4.053 -0.0526 -0.2860  0.2427
   33MOL0     C 4238   1.805   5.943   3.916 -0.0783  0.6935 -0.0826
   33MOL0     C 4239   1.755   5.799   3.919  0.8955 -0.4064  0.0005
   33MOL0     C 4240   1.724   5.757   3.777  0.8833 -0.2209 -0.0484
   33MOL0     N 4241   1.686   5.619   3.767  0.0221  0.0431  0.4127
   33MOL0     C 4242   1.559   5.580   3.746 -0.0357  0.1831 -0.2789
   33MOL0     C 4243   1.571   5.450   3.770  0.4575  0.2199  0.7795
   33MOL0     C 4244   1.446   5.364   3.762  0.9785 -0.0947 -0.1636
   33MOL0     C 4245   1.393   5.350   3.629 -0.4846 -0.4917 -0.0665
   33MOL0     C 4246   1.269   5.266   3.627  1.1399  0.4821  0.0450
   33MOL0     C 4247   1.304   5.124   3.594  0.3731 -0.1521  0.2585
   33MOL0     O 4248   1.190   5.031   3.604  0.1389 -0.2899  0.0322
   33MOL0     C 4249   1.130   5.002   3.485  0.4565  0.2540  0.0376
   33MOL0     C 4250   1.027   5.086   3.440 -0.6065  0.3841 -0.7338
   33MOL0     C 4251   0.944   5.056   3.340 -0.0523  0.0472 -0.7347
   33MOL0     C 4252   0.963   4.931   3.273  0.7799 -0.7769  0.7469
   33MOL0     C 4253   0.858   4.898   3.178 -0.6096  0.0946 -0.1834
   33MOL0     O 4254   0.876   4.784   3.099  0.3420  0.6491  0.2567
   33MOL0     C 4255   0.783   4.754   3.005  0.1116  0.2546  0.2137
   33MOL0     C 4256   0.741   4.617   2.972 -0.5675 -0.6734  0.2105
   33MOL0     C 4257   0.652   4.586   2.872 -1.4240  1.3259  0.3255
   33MOL0     C 4258   0.615   4.681   2.783  0.1259  0.8324  0.4124
   33MOL0     O 4259   0.518   4.641   2.692  0.4664  0.3250  0.4892
   33MOL0     C 4260   0.558   4.528   2.607  0.4548 -0.7916 -0.5262
   33MOL0     C 4261   0.517   4.555   2.462  0.3645  0.1300  0.8528
   33MOL0     C 4262   0.520   4.435   2.372 -0.2303  0.0868  0.1669
   33MOL0     C 4263   0.424   4.449   2.255 -0.5140  0.1590 -0.5965
   33MOL0     C 4264   0.395   4.309   2.191 -0.8401 -0.4829 -0.5278
   33MOL0     C 4265   0.500   4.253   2.094  0.2550 -0.3477  0.0626
   33MOL0     C 4266   0.451   4.168   1.985  0.8486  0.5017 -0.4803
   33MOL0     C 4267   0.558   4.084   1.911 -0.7185 -0.5876  0.4526
   33MOL0    Cl 4268   0.659   4.193   1.804  0.3125  0.0642  0.2019
   33MOL0     C 4269   0.650   4.812   2.810 -0.1575 -0.3951 -0.4603
   33MOL0     C 4270   0.743   4.848   2.907  0.5557 -0.2438 -0.6221
   33MOL0     O 4271   0.769   4.984   3.162 -0.4084  0.1586 -1.2131
   33MOL0     C 4272   1.062   4.838   3.311 -0.8094  0.3186  0.5856
   33MOL0     C 4273   1.140   4.874   3.422  0.4388 -0.4126  0.1108
   33MOL0     N 4274   1.698   5.412   3.783 -0.6647  0.1429 -1.1068
   33MOL0     N 4275   1.773   5.516   3.772  0.4031  0.5231  0.1087
   33MOL0     C 4276   1.873   6.676   4.231 -0.9027 -0.0307  0.2318
   33MOL0     C 4277   1.791   6.773   4.295  0.3652  0.7308  1.2405
   33MOL0     C 4278   1.524   7.022   4.547  0.2219 -0.4418  0.7810
   33MOL0     C 4279   1.507   7.153   4.498  0.5397 -1.0123 -0.3465
   33MOL0     C 4280   1.393   7.228   4.544  0.4955 -0.4804  0.5432
   33MOL0     C 4281   1.317   7.183   4.652  0.9309 -0.8464 -1.0065
   33MOL0     O 4282   1.209   7.249   4.697 -0.2873  0.1387 -0.6373
   33MOL0     C 4283   1.106   7.306   4.609 -0.3122  0.0077  0.1224
   33MOL0     C 4284   1.076   7.201   4.490 -0.5523  0.2350  0.4100
   33MOL0     C 4285   0.940   7.242   4.426 -0.0372  0.5326 -0.5089
   33MOL0     C 4286   0.945   7.192   4.282  0.4975 -0.7583 -0.5793
   33MOL0     C 4287   0.919   7.045   4.261 -1.0017 -0.1254  0.0686
   33MOL0     C 4288   0.886   6.930   4.243 -0.6680 -1.5951 -0.6788
   33MOL0     C 4289   1.340   7.059   4.704  0.8975  0.0933 -0.0901
   33MOL0     C 4290   1.437   6.975   4.648  0.5332  0.3091 -0.8299
   33MOL0     H 4291   1.535   6.569   4.395  0.5845  0.7762 -0.2583
   33MOL0     H 4292   1.693   6.397   4.323  1.0860  0.0578  1.5681
   33MOL0     H 4293   2.059   6.514   4.082  0.9178 -0.2863  0.8287
   33MOL0     H 4294   1.911   6.477   3.987  0.4983  0.7746 -0.6506
   33MOL0     H 4295   2.106   6.265   4.119  2.2898 -2.4505 -1.5948
   33MOL0     H 4296   2.119   6.335   3.961 -2.6172 -0.6356 -2.0646
   33MOL0     H 4297   2.033   6.133   3.937  0.5670  3.4537 -3.1529
   33MOL0     H 4298   1.897   6.230   3.894  1.4114 -0.7077 -2.3233
   33MOL0     H 4299   1.890   6.168   4.181 -2.4869 -3.1820  0.5853
   33MOL0     H 4300   1.775   6.176   4.042 -0.4001  0.1828  1.1304
   33MOL0     H 4301   1.803   5.942   4.132 -0.0020 -2.5190 -0.7569
   33MOL0     H 4302   1.961   5.927   4.073 -0.7158 -1.6417 -0.2711
   33MOL0     H 4303   1.876   5.966   3.836 -0.7458  1.3950 -0.4897
   33MOL0     H 4304   1.722   6.007   3.886 -1.6246 -1.1324  0.1396
   33MOL0     H 4305   1.834   5.730   3.949 -0.1911 -1.6634  0.0643
   33MOL0     H 4306   1.672   5.785   3.988  0.4264  1.0932 -0.2105
   33MOL0     H 4307   1.805   5.782   3.708  1.2573  0.3791  0.5940
   33MOL0     H 4308   1.636   5.813   3.746  0.9567 -1.1827 -2.1914
   33MOL0     H 4309   1.473   5.641   3.724  0.0935  0.7276  0.6800
   33MOL0     H 4310   1.370   5.428   3.808 -0.8928 -2.4151  0.2010
   33MOL0     H 4311   1.459   5.271   3.818  3.3619  1.1498  1.5259
   33MOL0     H 4312   1.469   5.310   3.561 -0.5792 -3.3098  1.3389
   33MOL0     H 4313   1.358   5.446   3.591 -2.5345 -1.8537 -1.8360
   33MOL0     H 4314   1.212   5.287   3.718 -0.4477  2.5715 -1.3432
   33MOL0     H 4315   1.202   5.308   3.552  0.8407  1.2791  0.7344
   33MOL0     H 4316   1.391   5.089   3.650  0.9206  1.4580  0.4661
   33MOL0     H 4317   1.341   5.124   3.491 -1.4741  1.4531 -0.4783
   33MOL0     H 4318   1.000   5.171   3.501  2.7061  1.2485 -0.2875
   33MOL0     H 4319   0.861   5.124   3.321 -0.8122 -0.6620 -0.0517
   33MOL0     H 4320   0.787   4.549   3.042 -2.2432 -1.3829  0.6656
   33MOL0     H 4321   0.623   4.482   2.862  0.8353  0.3970  2.5393
   33MOL0     H 4322   0.526   4.428   2.638  0.0058 -0.3192  0.5936
   33MOL0     H 4323   0.667   4.532   2.605  0.4639  3.3178 -1.6607
   33MOL0     H 4324   0.570   4.641   2.421 -0.1243 -1.3322 -3.4233
   33MOL0     H 4325   0.411   4.581   2.461  0.1509 -0.6957  0.5373
   33MOL0     H 4326   0.488   4.349   2.432 -0.6590 -0.9001 -1.4211
   33MOL0     H 4327   0.619   4.414   2.331  0.1378  2.3626 -0.2462
   33MOL0     H 4328   0.325   4.484   2.287 -0.8783 -1.1918 -0.1713
   33MOL0     H 4329   0.460   4.515   2.176  0.4484 -1.3386 -1.4512
   33MOL0     H 4330   0.302   4.312   2.134  0.3591 -0.5472 -2.5819
   33MOL0     H 4331   0.374   4.236   2.270  0.1287  1.1504  1.3486
   33MOL0     H 4332   0.573   4.197   2.153  0.7732  1.1389  0.8739
   33MOL0     H 4333   0.548   4.341   2.049 -0.7601 -1.0442 -2.5648
   33MOL0     H 4334   0.380   4.096   2.028  1.3279 -1.4275 -2.7106
   33MOL0     H 4335   0.400   4.237   1.918 -0.7097 -1.4238 -1.3880
   33MOL0     H 4336   0.514   4.006   1.848 -1.4225  1.1853 -1.3282
   33MOL0     H 4337   0.626   4.037   1.983  1.2715 -0.5820 -1.3564
   33MOL0     H 4338   0.606   4.893   2.751  1.2209  1.1192  0.4948
   33MOL0     H 4339   0.767   4.953   2.921 -2.4759  0.1946  2.4246
   33MOL0     H 4340   1.081   4.746   3.256  0.1528  1.2528 -0.6879
   33MOL0     H 4341   1.215   4.809   3.466  0.1266 -0.7324  0.1754
   33MOL0     H 4342   1.956   6.711   4.170  0.6420 -0.7370  1.8501
   33MOL0     H 4343   1.833   6.872   4.306  0.2784  0.8313  0.6849
   33MOL0     H 4344   1.559   7.192   4.410 -3.3731 -0.7699 -2.7736
   33MOL0     H 4345   1.363   7.325   4.507  3.0627  0.4822  0.7973
   33MOL0     H 4346   1.141   7.404   4.576  0.9646 -0.3884  0.2585
   33MOL0     H 4347   1.014   7.329   4.664  1.7322 -0.2174  3.9774
   33MOL0     H 4348   1.165   7.198   4.426  0.1237 -0.6980  1.3488
   33MOL0     H 4349   1.060   7.101   4.531  2.5244 -0.8168 -0.6597
   33MOL0     H 4350   0.917   7.349   4.431  1.0340  0.8665  5.9242
   33MOL0     H 4351   0.859   7.186   4.474 -0.6749 -0.0578 -2.2060
   33MOL0     H 4352   0.858   7.237   4.232 -1.6497 -2.7658  1.0927
   33MOL0     H 4353   1.034   7.233   4.235 -1.1244  2.0679 -1.4436
   33MOL0     H 4354   0.852   6.828   4.239 -0.2336 -1.7806  0.1167
   33MOL0     H 4355   1.263   7.025   4.772  0.7493 -0.9538 -0.7671
   33MOL0     H 4356   1.448   6.871   4.677  0.9211 -0.1098 -2.4035
   34MOL0     O 4357   1.603   0.061   1.965  0.4570 -0.2489  0.5151
   34MOL0     C 4358   1.499   0.126   1.958 -0.8524 -0.2200 -0.2767
   34MOL0     O 4359   1.486   0.256   1.996 -0.1091 -0.3560  0.0558
   34MOL0     C 4360   1.592   0.338   2.017  0.1865  0.5345  0.6744
   34MOL0     C 4361   1.717   0.321   1.957 -1.1778 -0.2799 -0.2124
   34MOL0     C 4362   1.826   0.409   1.988  0.6782  0.4237 -0.6753
   34MOL0     C 4363   1.793   0.526   2.071 -0.7580  0.6958 -0.2943
   34MOL0     O 4364   1.892   0.619   2.107 -0.1991 -0.0492 -0.3489
   34MOL0     C 4365   2.029   0.573   2.137 -0.7425 -0.0592  0.0117
   34MOL0     C 4366   2.129   0.614   2.033 -0.6312 -0.3813 -0.5271
   34MOL0     C 4367   2.132   0.767   2.010 -0.1075  0.7843  1.2856
   34MOL0     C 4368   2.167   0.847   2.138  0.7608  0.2204 -0.0100
   34MOL0     C 4369   2.184   0.998   2.110 -0.0457 -0.7363  0.5281
   34MOL0     C 4370   2.230   1.069   2.231  0.4247  0.2366 -0.0842
   34MOL0     C 4371   2.329   1.191   2.198  0.4976 -0.0330  0.8778
   34MOL0     C 4372   2.258   1.284   2.098  0.2635 -0.4046  0.2320
   34MOL0     N 4373   2.315   1.415   2.130  0.3966  0.1602  0.7188
   34MOL0     C 4374   2.419   1.476   2.070 -0.3370  0.6291  0.2685
   34MOL0     C 4375   2.410   1.612   2.090  0.1741 -0.5680  0.6716
   34MOL0     C 4376   2.497   1.716   2.023  1.0384  0.6869 -0.1711
   34MOL0     C 4377   2.464   1.764   1.883 -0.2153  0.3542 -0.0048
   34MOL0     C 4378   2.327   1.834   1.879  0.3320 -0.3704  0.2445
   34MOL0     C 4379   2.337   1.968   1.798  0.6874  0.8477  0.6583
   34MOL0     O 4380   2.200   2.009   1.787 -0.2125  0.2670 -0.3601
   34MOL0     C 4381   2.174   2.132   1.736 -0.7256  0.1889  0.6196
   34MOL0     C 4382   2.190   2.248   1.819  0.2495  0.2415  1.1581
   34MOL0     C 4383   2.158   2.377   1.770 -0.0692  0.4761  0.3619
   34MOL0     C 4384   2.125   2.392   1.629  0.5566  0.2863  0.0917
   34MOL0     C 4385   2.093   2.520   1.568 -0.3733 -1.0377 -0.4060
   34MOL0     O 4386   2.053   2.521   1.435 -0.3705  0.8623 -0.7493
   34MOL0     C 4387   2.047   2.636   1.364 -1.2536 -0.4264 -0.3704
   34MOL0     C 4388   2.110   2.767   1.389 -0.2831  0.5416  0.2574
   34MOL0     C 4389   2.091   2.871   1.294  0.6161  0.1094  0.5742
   34MOL0     C 4390   2.001   2.855   1.182  0.9233  1.0833 -0.3710
   34MOL0     O 4391   1.982   2.949   1.089  0.2882 -0.3439 -0.8180
   34MOL0     C 4392   1.850   3.001   1.075 -1.0118  0.8185 -0.0903
   34MOL0     C 4393   1.850   3.130   0.991  0.2243 -0.1215 -0.3498
   34MOL0     C 4394   1.733   3.209   1.026 -1.0586  0.2957 -1.1898
   34MOL0     C 4395   1.758   3.287   1.155  1.2713 -0.1525 -0.2442
   34MOL0     C 4396   1.628   3.317   1.232  0.2904  0.1147 -0.1875
   34MOL0     C 4397   1.657   3.410   1.356  0.3448  0.1873  0.4369
   34MOL0     C 4398   1.537   3.471   1.424  0.7509  0.1135 -0.4528
   34MOL0     C 4399   1.570   3.534   1.564 -0.2735  0.0798 -0.7392
   34MOL0    Cl 4400   1.607   3.408   1.680 -0.0817 -0.3695 -0.1225
   34MOL0     C 4401   1.940   2.736   1.164  0.9104  0.6364  0.8033
   34MOL0     C 4402   1.968   2.630   1.247 -0.2642  0.1088 -0.1935
   34MOL0     O 4403   2.112   2.625   1.638  0.1919  0.6345  0.1981
   34MOL0     C 4404   2.111   2.275   1.554  0.7591  0.3403  0.8629
   34MOL0     C 4405   2.144   2.154   1.599 -0.0961  0.2396 -0.5425
   34MOL0     N 4406   2.304   1.635   2.175 -0.8838  0.0418 -0.6622
   34MOL0     N 4407   2.250   1.515   2.199  0.2955  0.2074  0.2866
   34MOL0     C 4408   1.664   0.546   2.116  0.3024 -1.0058  0.1848
   34MOL0     C 4409   1.556   0.459   2.081 -0.2385 -0.1178 -0.3076
   34MOL0     C 4410   1.370   0.054   1.907 -0.0132  0.3716  0.6377
   34MOL0     C 4411   1.244   0.097   1.923  0.3563 -0.6842 -0.3341
   34MOL0     C 4412   1.123   0.033   1.870 -0.1885 -0.1205  0.6649
   34MOL0     C 4413   1.136  -0.069   1.775 -1.0137 -0.0636 -0.1954
   34MOL0     O 4414   1.045  -0.138   1.698  0.2574 -0.2888  0.2369
   34MOL0     C 4415   0.904  -0.107   1.720  0.1553 -0.5330 -0.7979
   34MOL0     C 4416   0.850  -0.167   1.845  0.1957  0.3499  0.4418
   34MOL0     C 4417   0.709  -0.122   1.874 -0.1028  0.2915 -0.2684
   34MOL0     C 4418   0.660  -0.232   1.978  0.2491  0.0619  0.1412
   34MOL0     C 4419   0.513  -0.203   1.998  0.4467 -0.0344 -0.4418
   34MOL0     C 4420   0.397  -0.176   2.020 -1.2152 -0.0635  0.0796
   34MOL0     C 4421   1.269  -0.109   1.744  0.4558  0.6859  0.4895
   34MOL0     C 4422   1.375  -0.064   1.826 -0.4458 -0.8597 -0.2188
   34MOL0     H 4423   1.746   0.235   1.898 -1.1411 -0.6364  0.3252
   34MOL0     H 4424   1.924   0.398   1.944  0.8986 -0.7573  0.0624
   34MOL0     H 4425   2.040   0.466   2.154 -1.5774 -0.6885 -2.8276
   34MOL0     H 4426   2.058   0.626   2.229 -0.5670  1.3963 -0.8407
   34MOL0     H 4427   2.098   0.563   1.941 -0.7069  1.8823 -1.8453
   34MOL0     H 4428   2.228   0.577   2.060 -0.5820 -0.7548 -1.2032
   34MOL0     H 4429   2.032   0.804   1.984  0.8463  2.2206 -0.6312
   34MOL0     H 4430   2.202   0.784   1.928 -0.3392  1.2934  1.1855
   34MOL0     H 4431   2.094   0.839   2.219 -0.1130  2.2822 -0.5267
   34MOL0     H 4432   2.257   0.800   2.178 -0.7798 -0.6675  2.6430
   34MOL0     H 4433   2.084   1.034   2.085  0.8328  0.4323 -1.5195
   34MOL0     H 4434   2.245   1.001   2.019 -1.5805 -5.6497 -0.9756
   34MOL0     H 4435   2.297   0.995   2.277 -0.7575 -1.2684 -0.7141
   34MOL0     H 4436   2.148   1.093   2.301  0.3337 -4.1378  1.6141
   34MOL0     H 4437   2.349   1.245   2.291 -1.6051  0.0136  1.3538
   34MOL0     H 4438   2.431   1.160   2.172  0.5501  1.6162 -1.1288
   34MOL0     H 4439   2.153   1.284   2.127 -0.2436  1.6137 -1.3621
   34MOL0     H 4440   2.278   1.257   1.994  1.0824  1.0915 -0.0325
   34MOL0     H 4441   2.486   1.416   2.009 -3.0389 -2.6551  0.2087
   34MOL0     H 4442   2.593   1.663   2.012  0.2619 -0.3943 -2.4468
   34MOL0     H 4443   2.504   1.806   2.084 -0.6628  0.6395  0.1299
   34MOL0     H 4444   2.461   1.677   1.817  1.2990 -0.4719  0.9586
   34MOL0     H 4445   2.539   1.827   1.834 -2.2249 -0.0837 -4.1247
   34MOL0     H 4446   2.257   1.773   1.821 -1.8071  3.7036 -1.9234
   34MOL0     H 4447   2.279   1.846   1.976  2.6763  0.3646  1.3861
   34MOL0     H 4448   2.390   1.952   1.704  2.1993  1.6821  1.3341
   34MOL0     H 4449   2.392   2.051   1.844 -0.2332  3.0359 -1.9495
   34MOL0     H 4450   2.216   2.220   1.920 -1.4676  0.7195  1.7785
   34MOL0     H 4451   2.140   2.466   1.829 -0.5330  0.8344 -0.2965
   34MOL0     H 4452   2.162   2.776   1.483  2.6796  3.2805 -1.4519
   34MOL0     H 4453   2.136   2.969   1.298 -2.9948  1.9979 -0.7829
   34MOL0     H 4454   1.804   3.017   1.172 -1.1500 -1.0308  0.1745
   34MOL0     H 4455   1.791   2.935   1.011  0.7444 -0.2571 -0.7016
   34MOL0     H 4456   1.863   3.102   0.886 -0.0633 -1.9845  0.0810
   34MOL0     H 4457   1.936   3.194   1.013  1.2121 -1.7143  0.5528
   34MOL0     H 4458   1.653   3.136   1.039 -2.8935  2.5283  1.1882
   34MOL0     H 4459   1.711   3.276   0.942  1.2245 -0.5160 -2.5103
   34MOL0     H 4460   1.817   3.232   1.229 -3.3510 -1.2623  3.0777
   34MOL0     H 4461   1.806   3.381   1.126 -0.5057  0.0465 -2.8547
   34MOL0     H 4462   1.572   3.230   1.268 -0.7800  1.6239  2.0114
   34MOL0     H 4463   1.566   3.373   1.161 -0.2075 -1.7367 -1.2687
   34MOL0     H 4464   1.710   3.492   1.307 -1.8217 -0.9666 -4.4277
   34MOL0     H 4465   1.726   3.358   1.423 -0.9308 -0.2361  1.4748
   34MOL0     H 4466   1.508   3.556   1.362  1.0033  1.2222  0.9087
   34MOL0     H 4467   1.459   3.396   1.441  0.4937  0.5485  0.3423
   34MOL0     H 4468   1.488   3.597   1.600  0.5572  1.9433 -1.9311
   34MOL0     H 4469   1.657   3.598   1.544  3.4090 -4.0779  0.5958
   34MOL0     H 4470   1.882   2.714   1.075 -0.0997 -1.1822  1.8501
   34MOL0     H 4471   1.931   2.531   1.220 -1.2474  0.3153  0.3498
   34MOL0     H 4472   2.087   2.280   1.449  1.5068  0.5133  0.6927
   34MOL0     H 4473   2.141   2.072   1.528  0.5446  0.6594 -1.0673
   34MOL0     H 4474   1.639   0.638   2.167 -2.2566 -0.8108 -1.2444
   34MOL0     H 4475   1.453   0.465   2.115 -0.8179 -2.7814 -1.3422
   34MOL0     H 4476   1.243   0.191   1.977  1.5207 -2.1169  2.3581
   34MOL0     H 4477   1.027   0.080   1.884  0.1644 -0.1844  4.7959
   34MOL0     H 4478   0.846  -0.148   1.637 -2.0952 -0.6517  0.7555
   34MOL0     H 4479   0.889   0.001   1.723  1.9456 -0.2693  0.2574
   34MOL0     H 4480   0.845  -0.276   1.835 -4.3531  0.1037  2.6873
   34MOL0     H 4481   0.917  -0.146   1.929 -0.5350  1.5918  0.7400
   34MOL0     H 4482   0.657  -0.120   1.778 -0.2804 -2.0609 -0.2592
   34MOL0     H 4483   0.711  -0.026   1.927 -0.3847 -0.4327  1.0863
   34MOL0     H 4484   0.662  -0.334   1.940  0.7393 -0.5228  1.6410
   34MOL0     H 4485   0.724  -0.235   2.067 -1.2890  2.4435  1.4473
   34MOL0     H 4486   0.302  -0.130   2.040 -1.7892 -1.9998  2.4178
   34MOL0     H 4487   1.300  -0.190   1.679  3.3901  0.2106  2.2588
   34MOL0     H 4488   1.476  -0.101   1.816 -0.6425 -0.9521 -2.7232
   35MOL0     O 4489  10.646   9.368  10.352 -0.2074 -0.1076 -0.7121
   35MOL0     C 4490  10.665   9.243  10.373  1.3594 -1.3217  0.0869
   35MOL0     O 4491  10.678   9.190  10.490  0.1747  0.3515  0.4404
   35MOL0     C 4492  10.674   9.270  10.596 -0.4853 -0.0906 -0.0712
   35MOL0     C 4493  10.766   9.265  10.702 -0.3454 -0.6739 -0.5737
   35MOL0     C 4494  10.756   9.351  10.813 -0.5281 -0.3222 -0.4571
   35MOL0     C 4495  10.647   9.443  10.833 -0.5262 -0.9246  0.1110
   35MOL0     O 4496  10.643   9.510  10.954 -0.0062 -0.3469 -0.1065
   35MOL0     C 4497  10.532   9.593  10.984  1.0879  0.9885 -0.2540
   35MOL0     C 4498  10.555   9.664  11.110  1.0657 -0.1849  0.3925
   35MOL0     C 4499  10.421   9.750  11.149 -0.2244  0.2022 -0.8721
   35MOL0     C 4500  10.372   9.846  11.049 -0.3850  0.5690  0.3536
   35MOL0     C 4501  10.250   9.932  11.102 -0.3350  0.0150 -0.5276
   35MOL0     C 4502  10.100   9.891  11.104 -0.3836  0.1882  0.4758
   35MOL0     C 4503  10.041   9.881  10.968  0.4994 -0.6096 -0.6879
   35MOL0     C 4504  10.004  10.024  10.901  0.3462  1.2604  0.3683
   35MOL0     N 4505   9.895  10.094  10.965 -0.0252  0.2096  0.5201
   35MOL0     C 4506   9.764  10.066  10.952  0.0273 -0.5379  0.6120
   35MOL0     C 4507   9.693  10.152  11.033 -0.0653 -0.0750 -0.7782
   35MOL0     C 4508   9.541  10.153  11.046 -0.1889 -0.2017 -0.6675
   35MOL0     C 4509   9.505  10.044  11.142 -0.8650  0.2425  0.0423
   35MOL0     C 4510   9.489   9.904  11.087  0.7740  0.9794  0.2877
   35MOL0     C 4511   9.460   9.802  11.200 -0.0563 -0.2164 -0.8559
   35MOL0     O 4512   9.582   9.791  11.282  0.1887 -0.2862  1.4013
   35MOL0     C 4513   9.562   9.741  11.406 -0.0926  0.2870  0.0440
   35MOL0     C 4514   9.461   9.658  11.454  0.2062  0.7864 -0.1082
   35MOL0     C 4515   9.449   9.610  11.584  0.1821 -0.4630  0.5661
   35MOL0     C 4516   9.552   9.637  11.676  0.7530 -0.0933 -0.4782
   35MOL0     C 4517   9.532   9.588  11.819  0.8326 -0.0645  0.8615
   35MOL0     O 4518   9.415   9.520  11.840 -1.1135  0.2710 -0.4232
   35MOL0     C 4519   9.371   9.479  11.960 -0.6048 -0.8059 -0.1845
   35MOL0     C 4520   9.403   9.537  12.084 -0.1812 -0.3904 -0.1499
   35MOL0     C 4521   9.346   9.489  12.202 -1.4834  0.0113  0.1593
   35MOL0     C 4522   9.249   9.391  12.202 -0.6713 -0.6735  0.8476
   35MOL0     O 4523   9.182   9.373  12.317  0.0301  0.0149  0.1349
   35MOL0     C 4524   9.127   9.244  12.340 -0.1539  0.5240  0.5517
   35MOL0     C 4525   9.171   9.198  12.476  1.0590  0.1922 -0.6667
   35MOL0     C 4526   9.077   9.234  12.593 -0.0361 -0.6046 -0.9697
   35MOL0     C 4527   9.116   9.171  12.728  0.2740  0.0943  0.5843
   35MOL0     C 4528   9.029   9.192  12.845  0.6416 -0.4138  0.3093
   35MOL0     C 4529   9.023   9.339  12.891 -0.3749 -0.1312 -0.6548
   35MOL0     C 4530   9.148   9.415  12.903 -0.4602 -0.8420  0.0027
   35MOL0     C 4531   9.116   9.565  12.934 -0.7575 -0.1532 -0.1069
   35MOL0    Cl 4532   9.054   9.660  12.784 -0.1431  0.1714 -0.6851
   35MOL0     C 4533   9.206   9.350  12.072  0.3948 -0.0727 -1.2921
   35MOL0     C 4534   9.270   9.386  11.957  0.6013  0.5851 -0.1779
   35MOL0     O 4535   9.630   9.592  11.893  0.3332 -0.5854 -0.3517
   35MOL0     C 4536   9.661   9.717  11.631  0.6908 -0.5348 -0.4398
   35MOL0     C 4537   9.664   9.774  11.503 -0.1444 -1.5624  0.1628
   35MOL0     N 4538   9.789  10.230  11.100 -0.3338  0.6533  0.2248
   35MOL0     N 4539   9.908  10.194  11.051 -0.3010  0.0676 -0.5214
   35MOL0     C 4540  10.557   9.462  10.720 -0.5816  0.6031  1.1220
   35MOL0     C 4541  10.558   9.356  10.626 -0.0196 -0.4763  0.5939
   35MOL0     C 4542  10.607   9.167  10.268  0.2987  0.8161 -0.3759
   35MOL0     C 4543  10.607   9.206  10.137  0.8617  0.3158  0.3385
   35MOL0     C 4544  10.569   9.119  10.036  0.9003  0.0715 -0.4194
   35MOL0     C 4545  10.507   8.999  10.059  0.6880 -0.9201  0.0589
   35MOL0     O 4546  10.449   8.932   9.954 -0.0775 -0.8425 -0.2930
   35MOL0     C 4547  10.337   8.845   9.995 -0.4127  0.4600  0.8553
   35MOL0     C 4548  10.253   8.827   9.873 -0.6663  0.0610 -0.0201
   35MOL0     C 4549  10.206   8.968   9.825 -0.1051 -0.7796 -0.3422
   35MOL0     C 4550  10.121   9.050   9.935  0.1523  0.8668 -0.5588
   35MOL0     C 4551   9.994   8.978   9.962  0.2128 -0.5931 -0.2754
   35MOL0     C 4552   9.892   8.911   9.976 -0.0320 -0.1748  0.4185
   35MOL0     C 4553  10.516   8.955  10.187  0.4844  0.1307  0.8265
   35MOL0     C 4554  10.574   9.032  10.284 -0.4453  0.4816  0.0558
   35MOL0     H 4555  10.845   9.191  10.700 -1.3220 -1.7431 -0.9421
   35MOL0     H 4556  10.831   9.347  10.892  1.3338  1.0571 -2.0720
   35MOL0     H 4557  10.447   9.524  10.990  0.1813  2.1903  1.6949
   35MOL0     H 4558  10.525   9.662  10.900 -0.3095  0.0416 -0.9393
   35MOL0     H 4559  10.640   9.731  11.094  0.1033  0.5558 -1.9994
   35MOL0     H 4560  10.568   9.589  11.188 -4.2407 -1.6667  0.2537
   35MOL0     H 4561  10.447   9.800  11.243  2.3010 -0.0951 -1.3385
   35MOL0     H 4562  10.345   9.675  11.175 -0.4937  1.2025  1.4539
   35MOL0     H 4563  10.456   9.914  11.031  2.2465 -1.2884  4.2042
   35MOL0     H 4564  10.335   9.802  10.955  0.6059  0.3848  0.0375
   35MOL0     H 4565  10.265  10.031  11.059  2.7241  0.0530  0.3415
   35MOL0     H 4566  10.286   9.940  11.205  2.0594 -1.0803 -1.1984
   35MOL0     H 4567  10.043   9.950  11.176 -0.8044  0.2877  0.0716
   35MOL0     H 4568  10.083   9.788  11.135  0.7398 -0.9656 -2.3715
   35MOL0     H 4569  10.098   9.817  10.900  0.4498 -0.2057 -1.1162
   35MOL0     H 4570   9.947   9.827  10.984 -1.9050  3.0738 -0.8666
   35MOL0     H 4571   9.976  10.018  10.796  0.8726  1.8513  0.1895
   35MOL0     H 4572  10.101  10.074  10.895  0.3114  1.3910  0.8241
   35MOL0     H 4573   9.717   9.989  10.891 -1.9331 -1.0039  2.5955
   35MOL0     H 4574   9.497  10.143  10.947  1.9346 -1.1856 -1.5870
   35MOL0     H 4575   9.500  10.247  11.083 -0.8360 -1.7274  3.0056
   35MOL0     H 4576   9.406  10.079  11.174 -0.6615  1.6986 -0.8345
   35MOL0     H 4577   9.578  10.040  11.223 -0.1359 -1.5709 -0.6496
   35MOL0     H 4578   9.403   9.901  11.019 -0.7139  0.7815  2.0824
   35MOL0     H 4579   9.584   9.873  11.042  1.2478  0.7330  1.4166
   35MOL0     H 4580   9.429   9.702  11.168 -2.0860  1.2138 -3.7805
   35MOL0     H 4581   9.373   9.832  11.260  0.4718 -1.4672  0.5956
   35MOL0     H 4582   9.384   9.612  11.393 -1.1293  1.1211  1.2413
   35MOL0     H 4583   9.362   9.547  11.602  0.5198 -0.1880  3.5567
   35MOL0     H 4584   9.487   9.606  12.085 -1.7833  1.6487  0.5980
   35MOL0     H 4585   9.379   9.525  12.299 -4.3309  0.6406  0.9810
   35MOL0     H 4586   9.175   9.178  12.268  2.0962  2.7177 -0.1128
   35MOL0     H 4587   9.018   9.256  12.339 -0.3233 -0.4422  2.4691
   35MOL0     H 4588   9.269   9.230  12.511  0.6602  0.3437  0.3305
   35MOL0     H 4589   9.168   9.089  12.472 -0.9120 -0.0140  2.8595
   35MOL0     H 4590   8.972   9.216  12.568 -0.1172  0.7282 -1.6899
   35MOL0     H 4591   9.072   9.340  12.622 -1.4605 -0.5103 -1.4735
   35MOL0     H 4592   9.117   9.064  12.703  1.4997  0.3069 -0.4151
   35MOL0     H 4593   9.220   9.195  12.751  1.1468 -1.2450 -1.6426
   35MOL0     H 4594   9.078   9.129  12.919 -0.0472 -2.3352 -0.8070
   35MOL0     H 4595   8.926   9.156  12.837 -0.8555  2.8744  2.4364
   35MOL0     H 4596   8.980   9.318  12.990  2.3552 -0.7170  0.5068
   35MOL0     H 4597   8.959   9.386  12.817  0.7073  0.1299 -1.4572
   35MOL0     H 4598   9.197   9.365  12.988 -0.2134 -0.0721  0.3164
   35MOL0     H 4599   9.218   9.405  12.819 -0.7867  2.4047 -0.7785
   35MOL0     H 4600   9.202   9.608  12.986  1.6587 -3.3521 -1.1573
   35MOL0     H 4601   9.047   9.571  13.019  0.1983  0.3955  0.6469
   35MOL0     H 4602   9.119   9.289  12.048  0.5326 -0.2723 -1.2903
   35MOL0     H 4603   9.234   9.342  11.865  0.7621  0.5674 -0.2324
   35MOL0     H 4604   9.729   9.751  11.710 -0.6588  4.2118 -0.9811
   35MOL0     H 4605   9.742   9.846  11.479 -2.3570  0.8889 -0.1298
   35MOL0     H 4606  10.468   9.524  10.720 -1.9836 -1.1952 -1.2059
   35MOL0     H 4607  10.484   9.366  10.548 -0.0648 -2.1532  0.3854
   35MOL0     H 4608  10.648   9.305  10.119 -0.9547  1.0906  0.2016
   35MOL0     H 4609  10.577   9.147   9.932 -2.2614 -1.0313 -1.0500
   35MOL0     H 4610  10.282   8.881  10.083 -2.1177  1.5063 -0.5717
   35MOL0     H 4611  10.373   8.750  10.035 -2.1899 -1.8320 -2.5723
   35MOL0     H 4612  10.292   8.770   9.789 -3.9974  0.3343 -1.9419
   35MOL0     H 4613  10.160   8.772   9.894 -0.2085 -2.0359 -2.8589
   35MOL0     H 4614  10.157   8.968   9.728 -1.4302  2.1386  0.2093
   35MOL0     H 4615  10.290   9.038   9.813 -0.5813  0.0843  1.0635
   35MOL0     H 4616  10.172   9.047  10.031 -1.1132 -0.6659  0.1087
   35MOL0     H 4617  10.096   9.155   9.914  1.6012  1.2664 -0.3698
   35MOL0     H 4618   9.801   8.867  10.013 -0.6982  3.6066  3.9487
   35MOL0     H 4619  10.491   8.854  10.219 -0.3330  0.2460  0.5697
   35MOL0     H 4620  10.567   8.983  10.380 -3.9204  1.4094  0.3958
   36MOL0     O 4621   5.670   4.957  11.266 -0.4199 -0.3655 -0.0435
   36MOL0     C 4622   5.686   4.942  11.386  0.1952 -0.5504  0.1436
   36MOL0     O 4623   5.592   4.922  11.477  0.8495  0.1979  0.6419
   36MOL0     C 4624   5.466   4.967  11.451 -0.3841 -1.2380 -0.7436
   36MOL0     C 4625   5.450   5.104  11.423  1.2555  0.5050  0.5631
   36MOL0     C 4626   5.315   5.153  11.419  0.0320  0.4887 -0.5456
   36MOL0     C 4627   5.203   5.068  11.427 -0.6048 -0.5738  0.0902
   36MOL0     O 4628   5.075   5.101  11.427 -0.2006  0.1676 -0.1502
   36MOL0     C 4629   5.037   5.236  11.408 -0.3386 -0.1987  0.1266
   36MOL0     C 4630   4.885   5.239  11.383  0.6990  0.1783  0.5562
   36MOL0     C 4631   4.798   5.177  11.498  0.0348  0.3720  0.3454
   36MOL0     C 4632   4.656   5.221  11.520  0.6881 -0.2253  0.4738
   36MOL0     C 4633   4.546   5.188  11.413  0.0770 -0.0495  0.1121
   36MOL0     C 4634   4.509   5.035  11.396  0.0179 -0.0227 -0.1971
   36MOL0     C 4635   4.453   4.966  11.522 -1.1840 -0.0983  0.4901
   36MOL0     C 4636   4.323   5.015  11.570  0.0045  0.0844  0.4039
   36MOL0     N 4637   4.222   5.014  11.465  0.0263 -0.0570  1.1001
   36MOL0     C 4638   4.118   4.926  11.458  0.9033 -0.6951  0.2252
   36MOL0     C 4639   4.031   4.986  11.369 -0.3864 -0.7613  0.2905
   36MOL0     C 4640   3.893   4.944  11.328 -0.0327  0.3909  0.4015
   36MOL0     C 4641   3.811   4.864  11.440  0.9026  0.7330  0.2992
   36MOL0     C 4642   3.731   4.980  11.522 -0.7107  1.0580  0.8795
   36MOL0     C 4643   3.815   5.078  11.607  0.3624  0.1314 -1.1293
   36MOL0     O 4644   3.728   5.152  11.696  0.3867 -0.1938  0.1002
   36MOL0     C 4645   3.659   5.090  11.789 -0.1837 -0.0153 -0.1270
   36MOL0     C 4646   3.521   5.103  11.794 -0.2430 -0.3272 -0.9235
   36MOL0     C 4647   3.442   5.039  11.890 -0.2610 -0.8229  0.0915
   36MOL0     C 4648   3.497   4.954  11.985  0.9383  0.1293  1.0127
   36MOL0     C 4649   3.413   4.891  12.082 -0.8665  0.0160 -0.2772
   36MOL0     O 4650   3.277   4.914  12.065 -0.1152 -0.1885 -0.6617
   36MOL0     C 4651   3.194   4.860  12.159 -0.4474 -0.2409  0.3460
   36MOL0     C 4652   3.217   4.868  12.295  0.0842  0.7580  0.5221
   36MOL0     C 4653   3.131   4.797  12.381 -0.6551  0.7311 -0.6688
   36MOL0     C 4654   3.028   4.720  12.336  1.0207 -1.0146  0.0524
   36MOL0     O 4655   2.943   4.648  12.419  1.0676  0.7616  0.5067
   36MOL0     C 4656   2.981   4.629  12.557 -0.3702 -0.2355 -0.0760
   36MOL0     C 4657   2.896   4.525  12.630 -0.0113  0.7353 -0.0906
   36MOL0     C 4658   2.743   4.567  12.639  0.3825  0.6977 -0.2081
   36MOL0     C 4659   2.646   4.444  12.631 -0.5546 -0.4121 -0.0811
   36MOL0     C 4660   2.657   4.395  12.487  0.2261  0.0382  0.5819
   36MOL0     C 4661   2.536   4.410  12.391  0.9697  0.2580 -0.2148
   36MOL0     C 4662   2.569   4.368  12.252 -0.3332 -0.1095  0.0654
   36MOL0     C 4663   2.438   4.361  12.165 -0.4001  0.0419  0.3123
   36MOL0    Cl 4664   2.481   4.372  11.983 -0.0779  0.0086 -0.3961
   36MOL0     C 4665   3.003   4.710  12.194 -0.9529 -0.4005  0.1012
   36MOL0     C 4666   3.085   4.787  12.112  0.0632  0.0824 -0.0180
   36MOL0     O 4667   3.466   4.807  12.156  0.7253 -0.2658  0.2564
   36MOL0     C 4668   3.637   4.943  11.982 -0.1087  1.0268 -0.1993
   36MOL0     C 4669   3.719   5.014  11.890 -0.0902 -0.0499 -0.0115
   36MOL0     N 4670   4.076   5.116  11.333 -0.3780  0.0873 -0.4982
   36MOL0     N 4671   4.194   5.117  11.376 -0.4750 -0.0529 -0.1886
   36MOL0     C 4672   5.228   4.932  11.455  0.9142  1.2783 -0.0338
   36MOL0     C 4673   5.359   4.882  11.452 -0.4490  0.1209 -0.7062
   36MOL0     C 4674   5.830   4.955  11.431  0.2607  0.3719  0.6450
   36MOL0     C 4675   5.937   4.944  11.348 -0.4310  0.0973 -0.8972
   36MOL0     C 4676   6.068   4.935  11.385  1.3147  0.7418  0.9452
   36MOL0     C 4677   6.098   4.951  11.519  0.8601  1.2802 -0.1906
   36MOL0     O 4678   6.224   4.952  11.574  0.2965 -0.1765  0.7012
   36MOL0     C 4679   6.334   4.973  11.487 -0.6185  0.8140 -0.0484
   36MOL0     C 4680   6.465   4.983  11.565  0.3106  0.2668 -0.2370
   36MOL0     C 4681   6.452   5.103  11.654 -0.6100 -1.1288  0.4625
   36MOL0     C 4682   6.383   5.089  11.792  0.0701 -0.0905 -0.4806
   36MOL0     C 4683   6.443   4.978  11.877  0.4865 -0.8223  0.1809
   36MOL0     C 4684   6.462   4.889  11.955  0.6581  0.3280 -1.1401
   36MOL0     C 4685   5.990   4.983  11.606  0.4275 -1.3728  0.4667
   36MOL0     C 4686   5.857   4.972  11.568  0.0487 -0.4956  0.0151
   36MOL0     H 4687   5.534   5.174  11.425  2.8842 -1.2918  3.5162
   36MOL0     H 4688   5.300   5.258  11.401 -3.0248  0.4244  1.0049
   36MOL0     H 4689   5.090   5.275  11.320 -1.3403  1.9894  0.4301
   36MOL0     H 4690   5.063   5.298  11.494  0.8015 -1.7726  0.9630
   36MOL0     H 4691   4.870   5.189  11.287  1.8615  0.9212 -0.0374
   36MOL0     H 4692   4.853   5.342  11.365 -1.9676 -1.0560 -2.7427
   36MOL0     H 4693   4.857   5.188  11.590 -1.9105 -1.9389  2.0132
   36MOL0     H 4694   4.782   5.070  11.480  0.4871 -0.1028  2.4459
   36MOL0     H 4695   4.619   5.181  11.615 -1.7546  0.2402 -0.2172
   36MOL0     H 4696   4.657   5.330  11.523 -0.1769 -0.1167 -1.4370
   36MOL0     H 4697   4.571   5.234  11.317  0.3693 -1.4530 -0.5053
   36MOL0     H 4698   4.453   5.232  11.451 -0.7819 -1.1423 -0.6224
   36MOL0     H 4699   4.603   4.985  11.372  1.0358  1.2745  0.9427
   36MOL0     H 4700   4.445   5.011  11.311  0.7388 -3.1395  0.0243
   36MOL0     H 4701   4.457   4.857  11.514  1.1697 -0.2724  2.7496
   36MOL0     H 4702   4.529   4.982  11.600 -1.7043 -0.7899  1.1543
   36MOL0     H 4703   4.348   5.117  11.601 -2.5713  1.2465 -1.0071
   36MOL0     H 4704   4.281   4.967  11.658  0.4734  0.9238  1.0985
   36MOL0     H 4705   4.104   4.841  11.524 -1.9856  1.3676  2.6009
   36MOL0     H 4706   3.907   4.870  11.249  1.6450 -1.8746  2.6673
   36MOL0     H 4707   3.840   5.033  11.292  0.0576  0.3100  0.0635
   36MOL0     H 4708   3.863   4.793  11.504  1.3212  2.5136  2.0195
   36MOL0     H 4709   3.733   4.799  11.399  3.8423 -2.2777 -0.9857
   36MOL0     H 4710   3.667   5.041  11.458 -0.9456  1.5543  1.5768
   36MOL0     H 4711   3.654   4.931  11.584 -0.1737 -2.9322 -1.2486
   36MOL0     H 4712   3.875   5.150  11.551  2.0719 -1.6390 -1.6549
   36MOL0     H 4713   3.887   5.024  11.670  1.0428 -2.5403 -3.9441
   36MOL0     H 4714   3.478   5.172  11.723  3.7127  1.4845 -1.8125
   36MOL0     H 4715   3.338   5.069  11.896 -0.5172 -1.3835 -1.2624
   36MOL0     H 4716   3.296   4.930  12.337 -0.4285  1.9295 -0.2365
   36MOL0     H 4717   3.149   4.789  12.488 -1.5035 -0.5103 -0.5989
   36MOL0     H 4718   2.969   4.725  12.608 -0.4800 -1.1669  1.7294
   36MOL0     H 4719   3.086   4.599  12.563  0.9385  3.7541  0.3037
   36MOL0     H 4720   2.940   4.514  12.730  0.5101  0.7669 -0.3129
   36MOL0     H 4721   2.906   4.430  12.576 -0.7091  0.0576  0.9331
   36MOL0     H 4722   2.708   4.636  12.562 -0.4025  1.9213  1.1940
   36MOL0     H 4723   2.743   4.623  12.733  3.0162  3.2381 -1.5612
   36MOL0     H 4724   2.679   4.373  12.707  2.0562 -1.5265 -2.1102
   36MOL0     H 4725   2.541   4.464  12.652 -0.6320 -0.2258 -0.6204
   36MOL0     H 4726   2.666   4.286  12.490  1.7004  0.1626  1.5341
   36MOL0     H 4727   2.749   4.423  12.435  1.3512 -0.8364  2.0089
   36MOL0     H 4728   2.507   4.515  12.388  1.4655  0.4835  1.4599
   36MOL0     H 4729   2.450   4.353  12.427  0.2245  1.7082  0.3843
   36MOL0     H 4730   2.642   4.437  12.210 -0.5373 -0.3329 -0.6679
   36MOL0     H 4731   2.611   4.267  12.253 -1.0132 -0.4533  2.8318
   36MOL0     H 4732   2.378   4.450  12.187  0.0682  0.7619 -1.1566
   36MOL0     H 4733   2.376   4.274  12.188  0.2831 -0.0862  1.7452
   36MOL0     H 4734   2.913   4.657  12.164 -0.4721 -0.3436 -1.5556
   36MOL0     H 4735   3.061   4.780  12.007 -0.3601 -2.6310  0.1926
   36MOL0     H 4736   3.687   4.881  12.056  0.1014  1.5405  0.0884
   36MOL0     H 4737   3.827   5.008  11.887  0.1461  2.4287  1.2656
   36MOL0     H 4738   5.147   4.859  11.458  2.3523 -0.3768  1.9338
   36MOL0     H 4739   5.382   4.777  11.461  1.4259  0.2769 -2.8254
   36MOL0     H 4740   5.911   4.929  11.244 -0.8316 -0.2047 -0.7584
   36MOL0     H 4741   6.143   4.896  11.317 -2.1750  0.1046 -3.0326
   36MOL0     H 4742   6.321   5.057  11.419  1.4734  2.6723  1.6679
   36MOL0     H 4743   6.344   4.884  11.425 -1.1445 -0.0108  1.0323
   36MOL0     H 4744   6.479   4.893  11.625  1.2060  0.0067 -0.8111
   36MOL0     H 4745   6.542   5.014  11.494  0.1484 -1.3772 -1.1800
   36MOL0     H 4746   6.403   5.184  11.598  0.1126  0.8903  2.5829
   36MOL0     H 4747   6.554   5.141  11.662 -1.3364  1.4967 -1.4301
   36MOL0     H 4748   6.390   5.191  11.832 -0.2583 -0.0504 -0.5237
   36MOL0     H 4749   6.276   5.069  11.787  0.5631 -2.9189 -1.0812
   36MOL0     H 4750   6.487   4.829  12.040  1.7247 -0.0213 -1.6929
   36MOL0     H 4751   6.013   4.999  11.711 -1.8556 -1.4384  1.0135
   36MOL0     H 4752   5.772   4.995  11.632 -1.0049  1.9379 -2.0503
   37MOL0     O 4753   7.355   4.488   5.684  0.4473  0.2856  0.1452
   37MOL0     C 4754   7.434   4.408   5.739  0.1969  0.1917  0.5917
   37MOL0     O 4755   7.395   4.291   5.799  0.5468 -1.2005  0.0100
   37MOL0     C 4756   7.258   4.265   5.786 -0.9250  0.1589  0.4611
   37MOL0     C 4757   7.207   4.146   5.725 -0.0360 -0.1255 -0.0331
   37MOL0     C 4758   7.073   4.115   5.733 -0.9624  0.6131  0.1883
   37MOL0     C 4759   6.973   4.202   5.778 -0.2920 -0.1330 -0.7638
   37MOL0     O 4760   6.845   4.148   5.794 -0.8776  0.1514  0.0185
   37MOL0     C 4761   6.733   4.235   5.826 -1.0798 -0.1770 -0.4674
   37MOL0     C 4762   6.592   4.172   5.838 -1.0256 -1.0566 -0.3656
   37MOL0     C 4763   6.527   4.170   5.701  0.7753  0.0156 -0.1624
   37MOL0     C 4764   6.385   4.113   5.709 -0.0851 -0.1755 -0.2273
   37MOL0     C 4765   6.279   4.218   5.721  0.1399 -1.1120 -0.0069
   37MOL0     C 4766   6.279   4.296   5.851  0.5667  0.8737  0.3808
   37MOL0     C 4767   6.147   4.361   5.877 -0.1200  0.4716 -0.1760
   37MOL0     C 4768   6.056   4.267   5.953  0.5384 -0.0600 -0.2170
   37MOL0     N 4769   5.922   4.321   5.981  1.0082  0.5789 -0.2999
   37MOL0     C 4770   5.802   4.292   5.916 -0.7121 -0.4233  0.1142
   37MOL0     C 4771   5.710   4.369   5.981  0.6557 -0.0667  1.0105
   37MOL0     C 4772   5.561   4.356   5.953  0.0331 -0.4024 -0.6806
   37MOL0     C 4773   5.507   4.494   5.921 -0.2946  0.2479  0.5954
   37MOL0     C 4774   5.548   4.549   5.784  0.3189 -0.3912 -0.6220
   37MOL0     C 4775   5.489   4.465   5.679 -0.2911  0.4588 -0.0596
   37MOL0     O 4776   5.493   4.542   5.561  0.2093 -0.1349  0.6159
   37MOL0     C 4777   5.389   4.622   5.515 -0.1966  0.0590 -0.2338
   37MOL0     C 4778   5.282   4.673   5.594 -0.6226  0.3587  0.9873
   37MOL0     C 4779   5.176   4.744   5.531 -0.0481  0.8537 -0.4343
   37MOL0     C 4780   5.178   4.779   5.403  0.6318 -0.7759  0.2936
   37MOL0     C 4781   5.064   4.863   5.352 -0.5301 -0.3961 -0.1723
   37MOL0     O 4782   4.963   4.892   5.446  0.6284  0.1029  0.6548
   37MOL0     C 4783   4.839   4.943   5.401  0.2635  0.3962 -0.1077
   37MOL0     C 4784   4.768   5.024   5.492  0.3784 -0.0139  0.1154
   37MOL0     C 4785   4.657   5.096   5.448  0.6272  1.1090  0.1412
   37MOL0     C 4786   4.606   5.098   5.314 -0.5532  0.1048  0.0882
   37MOL0     O 4787   4.499   5.169   5.264  0.0413  0.1413  0.5517
   37MOL0     C 4788   4.431   5.239   5.372  0.1509 -0.3309  0.0958
   37MOL0     C 4789   4.302   5.297   5.321  0.0863 -1.1802 -0.7436
   37MOL0     C 4790   4.199   5.181   5.295 -0.2684  0.2370  0.5993
   37MOL0     C 4791   4.085   5.231   5.205  0.7957 -0.4160 -0.0726
   37MOL0     C 4792   3.999   5.110   5.168 -0.7655  0.0893  0.3035
   37MOL0     C 4793   3.890   5.143   5.070  0.1254 -0.2639  0.1667
   37MOL0     C 4794   3.768   5.200   5.129 -0.4037 -0.5544  0.4655
   37MOL0     C 4795   3.665   5.261   5.019  0.2361  0.4143 -0.4918
   37MOL0    Cl 4796   3.528   5.311   5.096  0.1019  0.5599  0.2587
   37MOL0     C 4797   4.682   5.022   5.233 -0.5863 -0.1186  0.0746
   37MOL0     C 4798   4.783   4.938   5.272 -0.8080 -0.2585  0.0903
   37MOL0     O 4799   5.069   4.891   5.234  0.1350 -0.4526  0.2492
   37MOL0     C 4800   5.281   4.733   5.322  0.1681 -0.6175 -0.0260
   37MOL0     C 4801   5.387   4.660   5.380  0.2821 -0.6857 -0.2841
   37MOL0     N 4802   5.774   4.442   6.085 -0.1134  0.6487  1.1044
   37MOL0     N 4803   5.898   4.410   6.086  0.0403  0.1705 -0.5214
   37MOL0     C 4804   7.016   4.329   5.826 -0.3847  0.6186  0.1743
   37MOL0     C 4805   7.159   4.352   5.841  0.2940  0.2478 -0.2199
   37MOL0     C 4806   7.581   4.441   5.732  0.8216 -0.3439 -0.0556
   37MOL0     C 4807   7.684   4.364   5.779 -0.1006  0.1197 -0.6182
   37MOL0     C 4808   7.822   4.391   5.750  0.4262 -0.6940 -0.8312
   37MOL0     C 4809   7.854   4.512   5.694 -0.1115 -0.5035  0.3746
   37MOL0     O 4810   7.986   4.537   5.669 -0.2077 -0.8039 -0.1696
   37MOL0     C 4811   8.078   4.521   5.780 -0.8434 -0.2350 -0.0833
   37MOL0     C 4812   8.066   4.645   5.877  0.2421 -0.1936  0.1076
   37MOL0     C 4813   8.181   4.637   5.981 -0.0878  0.1954  0.6203
   37MOL0     C 4814   8.233   4.776   6.037  0.2880  0.6348 -0.0297
   37MOL0     C 4815   8.161   4.820   6.160  0.4785  0.0279 -0.4001
   37MOL0     C 4816   8.098   4.863   6.265 -0.4214 -0.1987 -0.4721
   37MOL0     C 4817   7.755   4.602   5.657  0.5726 -0.1562  0.5220
   37MOL0     C 4818   7.616   4.572   5.676 -0.4065  0.0728  0.0198
   37MOL0     H 4819   7.273   4.084   5.665 -2.6630 -2.5220 -0.6727
   37MOL0     H 4820   7.034   4.020   5.697  1.1989 -0.6142  0.8538
   37MOL0     H 4821   6.734   4.327   5.767  0.2614  0.1051 -0.0449
   37MOL0     H 4822   6.754   4.269   5.928 -0.3184 -0.4046 -0.5439
   37MOL0     H 4823   6.527   4.224   5.909 -0.0644 -2.4135  1.6056
   37MOL0     H 4824   6.625   4.076   5.879  1.8811 -0.0291 -0.0371
   37MOL0     H 4825   6.580   4.110   5.627 -0.4327  0.2555 -1.2599
   37MOL0     H 4826   6.511   4.271   5.662  1.6676  1.1771  2.2698
   37MOL0     H 4827   6.355   4.053   5.622 -0.5541  1.0387 -0.9252
   37MOL0     H 4828   6.369   4.045   5.793 -2.5539  1.0222  0.3777
   37MOL0     H 4829   6.185   4.163   5.722 -0.6411  0.1389  2.5573
   37MOL0     H 4830   6.270   4.270   5.625 -0.2524 -3.2957 -1.2196
   37MOL0     H 4831   6.357   4.372   5.859 -0.6759  1.9843  2.9452
   37MOL0     H 4832   6.299   4.221   5.928 -3.0703 -0.1629  0.4951
   37MOL0     H 4833   6.165   4.440   5.950  0.6951 -1.9862  2.4793
   37MOL0     H 4834   6.098   4.390   5.784  2.0564 -1.9915 -2.2488
   37MOL0     H 4835   6.107   4.257   6.049 -0.0547  2.9589  0.5093
   37MOL0     H 4836   6.040   4.174   5.898 -1.7567 -1.9086  3.1879
   37MOL0     H 4837   5.784   4.220   5.837  0.2836  0.4730 -0.9575
   37MOL0     H 4838   5.507   4.298   6.029  1.3267 -0.7734 -0.0216
   37MOL0     H 4839   5.554   4.291   5.865 -1.1845 -2.4688  0.8232
   37MOL0     H 4840   5.541   4.561   6.000 -0.5449  0.6606  0.3572
   37MOL0     H 4841   5.398   4.496   5.925 -0.6847  2.9147 -3.9652
   37MOL0     H 4842   5.525   4.656   5.778  0.0032 -0.3296  1.1091
   37MOL0     H 4843   5.657   4.558   5.778  0.2343  3.4856  0.8372
   37MOL0     H 4844   5.388   4.437   5.711  0.1626 -1.1672  0.0537
   37MOL0     H 4845   5.545   4.372   5.667 -2.3454 -1.4337  3.3060
   37MOL0     H 4846   5.271   4.663   5.701 -1.5675 -2.0051  0.7286
   37MOL0     H 4847   5.096   4.773   5.598 -2.3815 -2.6830 -1.4172
   37MOL0     H 4848   4.801   5.032   5.595  3.4258 -0.9502 -0.6783
   37MOL0     H 4849   4.614   5.149   5.533  1.4968 -0.9265  1.9390
   37MOL0     H 4850   4.488   5.330   5.395 -0.6535  0.1256  0.3027
   37MOL0     H 4851   4.419   5.185   5.466 -0.8819  0.2892  0.3354
   37MOL0     H 4852   4.328   5.354   5.231  3.2396 -1.5609 -0.2018
   37MOL0     H 4853   4.260   5.373   5.387  0.9054 -0.6648 -0.7933
   37MOL0     H 4854   4.162   5.128   5.383  2.2606 -0.3793  1.3916
   37MOL0     H 4855   4.248   5.101   5.239 -1.9746 -0.2547 -0.2512
   37MOL0     H 4856   4.018   5.301   5.255 -0.3231 -0.1894 -1.8031
   37MOL0     H 4857   4.124   5.278   5.115 -2.4941  1.4164 -0.6904
   37MOL0     H 4858   3.950   5.079   5.261 -1.4347 -0.9864 -0.3739
   37MOL0     H 4859   4.052   5.024   5.127 -2.7105 -1.8969  1.6753
   37MOL0     H 4860   3.867   5.045   5.026  0.6626 -0.8676  1.2142
   37MOL0     H 4861   3.921   5.207   4.987 -0.4099  0.1050  0.2423
   37MOL0     H 4862   3.720   5.120   5.186 -4.1768  0.1273 -1.4022
   37MOL0     H 4863   3.810   5.278   5.193  2.2655  2.1291 -3.9957
   37MOL0     H 4864   3.645   5.184   4.944 -1.1291 -0.9787  1.2045
   37MOL0     H 4865   3.706   5.354   4.979 -0.3828  0.3466 -1.2980
   37MOL0     H 4866   4.660   5.010   5.127  3.6075  3.0664 -1.4258
   37MOL0     H 4867   4.832   4.878   5.196  0.0288  1.3863 -0.7456
   37MOL0     H 4868   5.284   4.772   5.221 -0.1448  4.1043  1.5308
   37MOL0     H 4869   5.451   4.603   5.314 -1.1666 -1.6121 -0.9520
   37MOL0     H 4870   6.936   4.392   5.863 -1.0709  0.2057 -0.5845
   37MOL0     H 4871   7.191   4.444   5.890  4.4228 -0.4908 -1.1526
   37MOL0     H 4872   7.656   4.268   5.821  1.8031 -0.4241 -0.5099
   37MOL0     H 4873   7.885   4.311   5.787 -1.8463 -1.6035  1.3860
   37MOL0     H 4874   8.182   4.522   5.746 -1.1578  1.2005 -1.1123
   37MOL0     H 4875   8.064   4.422   5.824 -0.7949 -1.0806 -1.8946
   37MOL0     H 4876   8.073   4.736   5.817 -3.1087  0.7447  0.9387
   37MOL0     H 4877   7.969   4.634   5.926  0.1223 -0.4248 -0.1801
   37MOL0     H 4878   8.268   4.586   5.937  1.0249  1.8886  0.7577
   37MOL0     H 4879   8.155   4.561   6.055  0.0735  0.7705  1.2789
   37MOL0     H 4880   8.339   4.763   6.062  0.4021 -0.9182 -1.1944
   37MOL0     H 4881   8.231   4.861   5.968  2.5606 -2.0500 -3.7374
   37MOL0     H 4882   8.050   4.891   6.357 -2.9721  1.3207 -2.1398
   37MOL0     H 4883   7.783   4.698   5.613 -2.4271  1.0837  1.0838
   37MOL0     H 4884   7.539   4.645   5.654 -0.0034  0.9446  1.3357
   38MOL0     O 4885   0.835  11.066   7.077 -0.2647 -0.0940 -0.0309
   38MOL0     C 4886   0.897  11.106   6.983  0.5069 -0.7463  0.4638
   38MOL0     O 4887   1.014  11.057   6.934  0.2603  0.3536  0.9352
   38MOL0     C 4888   1.048  10.934   6.962  0.7246  0.2819 -0.2651
   38MOL0     C 4889   0.991  10.819   6.904  0.1436 -0.3237 -0.1152
   38MOL0     C 4890   1.043  10.690   6.937  1.1433 -0.0100  0.4091
   38MOL0     C 4891   1.136  10.670   7.037  0.3942  0.6884 -0.2899
   38MOL0     O 4892   1.180  10.551   7.080  0.7578  0.1589  0.4710
   38MOL0     C 4893   1.091  10.481   7.171 -0.2472  0.1594 -0.5485
   38MOL0     C 4894   1.174  10.438   7.285  0.1482 -0.0605  0.8586
   38MOL0     C 4895   1.214  10.290   7.269  0.0767  0.0188 -1.3944
   38MOL0     C 4896   1.299  10.267   7.152 -0.7902 -0.9811 -0.7818
   38MOL0     C 4897   1.325  10.123   7.114  0.7185  0.4094 -0.6658
   38MOL0     C 4898   1.197  10.051   7.070  0.9613 -0.2403 -0.6292
   38MOL0     C 4899   1.224   9.913   7.025  1.2437  0.5283 -0.0500
   38MOL0     C 4900   1.093   9.835   6.991  0.1090 -0.2203 -0.3886
   38MOL0     N 4901   1.040   9.759   7.108  0.5409 -0.7335  0.7930
   38MOL0     C 4902   0.931   9.803   7.172  0.0829  0.1900 -0.0116
   38MOL0     C 4903   0.887   9.699   7.241  0.0195  0.5207 -0.7245
   38MOL0     C 4904   0.775   9.684   7.334 -0.4433 -0.4523 -0.2084
   38MOL0     C 4905   0.705   9.548   7.331  0.2796  0.2866 -0.1383
   38MOL0     C 4906   0.577   9.537   7.415 -0.9811  0.8458 -0.2261
   38MOL0     C 4907   0.502   9.412   7.383 -0.0636  0.0094 -0.5965
   38MOL0     O 4908   0.366   9.425   7.426 -0.0624 -0.8552  1.1942
   38MOL0     C 4909   0.283   9.317   7.393  0.5388 -0.1141  0.3775
   38MOL0     C 4910   0.158   9.327   7.453  0.4209 -0.5333  0.1157
   38MOL0     C 4911   0.051   9.238   7.421 -0.4928 -0.5875  0.3611
   38MOL0     C 4912   0.083   9.122   7.353 -0.2132 -0.5376  0.1945
   38MOL0     C 4913  -0.022   9.028   7.332  0.0066 -0.2939 -0.2398
   38MOL0     O 4914  -0.147   9.071   7.359 -0.3453  0.4642 -0.6598
   38MOL0     C 4915  -0.254   8.998   7.328 -0.5197 -0.1468  0.6241
   38MOL0     C 4916  -0.335   9.022   7.213 -0.2204  0.5259 -0.3624
   38MOL0     C 4917  -0.462   8.960   7.212  0.0781 -0.5025  0.3141
   38MOL0     C 4918  -0.511   8.868   7.309  0.8187 -0.2318  0.4166
   38MOL0     O 4919  -0.629   8.810   7.286 -0.1113 -0.0116  0.2936
   38MOL0     C 4920  -0.723   8.817   7.397  0.0530 -0.3747  0.1055
   38MOL0     C 4921  -0.726   8.694   7.490 -0.1735 -0.3738  0.0370
   38MOL0     C 4922  -0.749   8.569   7.406 -0.3330  0.1872 -0.4457
   38MOL0     C 4923  -0.744   8.440   7.490 -0.1782 -0.8295  0.0250
   38MOL0     C 4924  -0.752   8.318   7.398  0.3748 -0.9877 -0.8387
   38MOL0     C 4925  -0.890   8.282   7.360  0.2987 -0.4689 -0.1391
   38MOL0     C 4926  -0.901   8.186   7.248 -0.5822  0.5094  0.5452
   38MOL0     C 4927  -0.844   8.044   7.286 -0.6587  1.0479 -0.5752
   38MOL0    Cl 4928  -0.746   7.958   7.166  0.0534 -0.6539 -0.2137
   38MOL0     C 4929  -0.426   8.831   7.402 -0.1774  0.8811 -0.4377
   38MOL0     C 4930  -0.301   8.893   7.409 -0.0526 -0.2991 -0.5891
   38MOL0     O 4931   0.015   8.917   7.298 -0.1715 -0.3218  0.4557
   38MOL0     C 4932   0.210   9.106   7.287  1.3986 -0.2053  0.4853
   38MOL0     C 4933   0.310   9.214   7.295  0.3799 -0.3242  0.0016
   38MOL0     N 4934   0.975   9.590   7.224 -0.2499 -0.2659 -0.4001
   38MOL0     N 4935   1.063   9.630   7.140 -0.0969 -0.1979  0.4939
   38MOL0     C 4936   1.186  10.780   7.097 -0.4699  0.1081  0.0906
   38MOL0     C 4937   1.151  10.906   7.060  1.0478 -0.1891 -0.4038
   38MOL0     C 4938   0.832  11.231   6.928 -0.3520 -0.7566  0.3439
   38MOL0     C 4939   0.700  11.282   6.964  0.3838 -0.1584  0.1273
   38MOL0     C 4940   0.653  11.401   6.901 -0.5315  0.3454 -1.0614
   38MOL0     C 4941   0.726  11.461   6.798  0.0821 -0.3600 -0.1737
   38MOL0     O 4942   0.691  11.571   6.723  0.9425 -0.0431  0.1557
   38MOL0     C 4943   0.561  11.633   6.740  0.6411  0.4844  0.4878
   38MOL0     C 4944   0.575  11.756   6.834  0.1609  0.3214 -0.4486
   38MOL0     C 4945   0.703  11.839   6.803  0.3432  0.3110 -0.6360
   38MOL0     C 4946   0.815  11.813   6.908  0.4693  0.8118  0.1048
   38MOL0     C 4947   0.940  11.885   6.890 -0.0935  0.4760 -0.0875
   38MOL0     C 4948   1.047  11.937   6.869  0.4300 -0.1021 -0.1459
   38MOL0     C 4949   0.854  11.411   6.767  0.6760  1.2493 -0.8101
   38MOL0     C 4950   0.905  11.299   6.823  0.1585  0.4396 -0.5398
   38MOL0     H 4951   0.904  10.830   6.840 -1.5722 -2.9706  1.5569
   38MOL0     H 4952   0.996  10.600   6.898  0.3298  0.0610  1.1813
   38MOL0     H 4953   1.043  10.395   7.123 -0.9854  2.0031 -3.3383
   38MOL0     H 4954   1.010  10.544   7.210 -0.8886  1.5118 -3.7650
   38MOL0     H 4955   1.118  10.447   7.379 -2.2502 -1.8996 -0.2749
   38MOL0     H 4956   1.268  10.493   7.277  0.3447 -0.7361 -2.7912
   38MOL0     H 4957   1.136  10.213   7.266  2.8058 -3.4293  2.9043
   38MOL0     H 4958   1.268  10.259   7.359 -1.6702  1.3821  0.1990
   38MOL0     H 4959   1.259  10.326   7.068  3.0781 -0.1768 -2.2543
   38MOL0     H 4960   1.394  10.314   7.179  0.2256 -2.1904 -2.0891
   38MOL0     H 4961   1.367  10.070   7.200 -0.1382  2.2622  0.9791
   38MOL0     H 4962   1.401  10.118   7.034  0.2682 -2.4678 -1.0347
   38MOL0     H 4963   1.155  10.110   6.989  0.5723  1.6147  0.8528
   38MOL0     H 4964   1.117  10.048   7.145 -0.1074 -4.2990 -1.6703
   38MOL0     H 4965   1.283   9.918   6.933  1.3180 -3.0350 -0.3199
   38MOL0     H 4966   1.285   9.855   7.094  1.7223  2.0084  0.8083
   38MOL0     H 4967   1.123   9.762   6.915 -2.5584 -1.0383 -0.7504
   38MOL0     H 4968   1.011   9.894   6.951 -0.0918 -2.0290 -2.8978
   38MOL0     H 4969   0.885   9.901   7.174 -0.1545  0.0909  2.7227
   38MOL0     H 4970   0.697   9.758   7.314  1.7010  2.3897  1.0935
   38MOL0     H 4971   0.812   9.710   7.434 -1.6398  1.5523 -0.2294
   38MOL0     H 4972   0.776   9.467   7.352 -3.1719 -2.3770  2.5240
   38MOL0     H 4973   0.682   9.534   7.225  1.9252 -0.7572 -0.3863
   38MOL0     H 4974   0.588   9.543   7.523  1.9354  1.0796 -0.4605
   38MOL0     H 4975   0.509   9.619   7.388 -0.3792  2.0827  1.8457
   38MOL0     H 4976   0.551   9.330   7.436  0.4502 -0.0932 -1.2055
   38MOL0     H 4977   0.507   9.397   7.275  1.7366 -0.9442 -0.4292
   38MOL0     H 4978   0.136   9.414   7.513 -0.1621  0.9139 -2.0948
   38MOL0     H 4979  -0.044   9.273   7.459  0.5409  0.3189  2.2792
   38MOL0     H 4980  -0.308   9.093   7.135  1.6350  0.3044  0.0327
   38MOL0     H 4981  -0.525   8.983   7.127 -1.0157 -3.1830  0.3115
   38MOL0     H 4982  -0.819   8.814   7.344 -2.1683  2.5445  3.4414
   38MOL0     H 4983  -0.719   8.908   7.458  4.2433  0.5398 -1.1909
   38MOL0     H 4984  -0.817   8.707   7.550 -0.5612 -1.6668 -0.2361
   38MOL0     H 4985  -0.628   8.693   7.540  0.2771 -0.4369 -0.8308
   38MOL0     H 4986  -0.665   8.560   7.336  2.7090 -1.2377  3.0516
   38MOL0     H 4987  -0.837   8.595   7.346  0.5044  1.2523 -1.2605
   38MOL0     H 4988  -0.647   8.440   7.541 -0.6131  0.5055  0.9015
   38MOL0     H 4989  -0.823   8.449   7.565  0.5360 -0.3035  0.7289
   38MOL0     H 4990  -0.714   8.234   7.456  0.3453 -1.5709 -1.6493
   38MOL0     H 4991  -0.687   8.351   7.317 -0.5293  2.5575 -0.2954
   38MOL0     H 4992  -0.947   8.375   7.346  2.4525  1.1788  1.4954
   38MOL0     H 4993  -0.933   8.238   7.451  0.6402  1.0639  0.7990
   38MOL0     H 4994  -1.004   8.162   7.220 -0.7294  2.5020 -0.8909
   38MOL0     H 4995  -0.858   8.229   7.157 -0.4614 -0.0845  0.3172
   38MOL0     H 4996  -0.932   7.983   7.305  0.9308 -1.0229  0.5215
   38MOL0     H 4997  -0.784   8.051   7.378  0.2127  1.4872 -1.1584
   38MOL0     H 4998  -0.452   8.763   7.483  3.1484  0.0709  0.1176
   38MOL0     H 4999  -0.247   8.869   7.500 -1.5870 -2.5803 -0.2052
   38MOL0     H 5000   0.228   9.019   7.223  1.4864 -1.0580  1.6407
   38MOL0     H 5001   0.405   9.206   7.243  0.4388 -0.1508  0.0817
   38MOL0     H 5002   1.264  10.765   7.171 -1.3025  4.2673  2.0942
   38MOL0     H 5003   1.205  10.977   7.122  1.0701 -3.0515  3.1750
   38MOL0     H 5004   0.642  11.237   7.044 -0.3996  2.3137  1.0539
   38MOL0     H 5005   0.556  11.434   6.937  0.5253  1.2046  1.1768
   38MOL0     H 5006   0.488  11.562   6.781  0.1636 -0.5072 -1.9362
   38MOL0     H 5007   0.508  11.654   6.647 -0.8784  0.7188  1.3716
   38MOL0     H 5008   0.499  11.834   6.817 -0.6848 -0.9477 -3.0325
   38MOL0     H 5009   0.574  11.734   6.941  3.1394  1.0063 -0.2120
   38MOL0     H 5010   0.676  11.944   6.819 -0.8614 -0.0441 -0.2585
   38MOL0     H 5011   0.726  11.837   6.696 -0.0462  3.1722 -0.8479
   38MOL0     H 5012   0.772  11.836   7.006  0.5531 -1.9017  0.8567
   38MOL0     H 5013   0.831  11.705   6.901 -2.2587  0.3478 -0.4004
   38MOL0     H 5014   1.130  11.987   6.823  0.7764 -0.6452 -0.1275
   38MOL0     H 5015   0.915  11.460   6.692  3.6635 -0.6050  0.2596
   38MOL0     H 5016   1.002  11.259   6.796 -0.3623 -1.4829  0.2328
   39MOL0     O 5017   7.455   9.057   5.981  0.2230  0.4314  0.3581
   39MOL0     C 5018   7.365   9.045   6.067  0.1149 -0.1223 -0.1903
   39MOL0     O 5019   7.340   8.938   6.143 -0.1340 -0.6578  0.5565
   39MOL0     C 5020   7.349   8.802   6.102  0.3279  0.5218 -0.2757
   39MOL0     C 5021   7.309   8.709   6.199 -0.1528 -0.1601 -0.1445
   39MOL0     C 5022   7.295   8.576   6.172  0.6482 -0.4925 -0.3568
   39MOL0     C 5023   7.322   8.530   6.051 -0.9860  0.0024  0.8697
   39MOL0     O 5024   7.310   8.399   6.034  0.4715  0.0353 -0.1767
   39MOL0     C 5025   7.330   8.348   5.898 -0.0271 -0.1697 -0.1233
   39MOL0     C 5026   7.282   8.205   5.890 -0.1770 -0.2945  0.4591
   39MOL0     C 5027   7.313   8.131   5.752  0.2933 -0.5495  0.8258
   39MOL0     C 5028   7.305   8.228   5.626 -0.0153 -0.1941 -0.9818
   39MOL0     C 5029   7.298   8.145   5.491 -0.0234  0.3398 -0.0536
   39MOL0     C 5030   7.431   8.098   5.440 -0.6759  0.9666  0.7983
   39MOL0     C 5031   7.425   8.004   5.319  0.6969 -0.2700  0.0087
   39MOL0     C 5032   7.555   7.945   5.278  0.1336 -0.7515 -0.6866
   39MOL0     N 5033   7.556   7.869   5.154  0.6788  0.5383  0.1879
   39MOL0     C 5034   7.463   7.785   5.114 -0.2693 -0.1960 -0.1345
   39MOL0     C 5035   7.470   7.765   4.979 -0.2484  0.3710  0.2912
   39MOL0     C 5036   7.384   7.673   4.904  0.6067 -0.3865  0.7707
   39MOL0     C 5037   7.460   7.535   4.875  1.3267 -0.0026 -0.6413
   39MOL0     C 5038   7.360   7.434   4.833  1.0439  0.2492  0.2692
   39MOL0     C 5039   7.421   7.291   4.850  0.4018  0.0048  0.7872
   39MOL0     O 5040   7.453   7.247   4.717 -0.3985  0.3005 -1.1478
   39MOL0     C 5041   7.489   7.116   4.705 -0.1890  0.5527 -1.3002
   39MOL0     C 5042   7.459   7.059   4.586  0.6223 -0.7344  0.5647
   39MOL0     C 5043   7.496   6.920   4.563  0.5166 -1.1968 -0.1513
   39MOL0     C 5044   7.561   6.840   4.664 -0.3886  0.2580  0.5222
   39MOL0     C 5045   7.602   6.708   4.617 -0.4824 -0.1466  0.2504
   39MOL0     O 5046   7.617   6.620   4.720 -0.5067 -0.1200 -0.3511
   39MOL0     C 5047   7.663   6.494   4.721 -0.2772  0.0589 -0.1081
   39MOL0     C 5048   7.751   6.446   4.623  0.9084  0.2194 -0.1019
   39MOL0     C 5049   7.806   6.317   4.633 -0.4302 -0.4113  0.9578
   39MOL0     C 5050   7.770   6.234   4.736 -0.8151 -0.0813 -0.8075
   39MOL0     O 5051   7.810   6.108   4.758 -0.3720  0.2106 -0.0664
   39MOL0     C 5052   7.887   6.041   4.653 -0.7219 -0.5851  0.0193
   39MOL0     C 5053   8.039   6.075   4.657 -0.4999 -0.2177 -0.3911
   39MOL0     C 5054   8.081   6.193   4.736  0.1237 -0.4082  1.1644
   39MOL0     C 5055   8.235   6.228   4.703 -0.0068 -0.4840  0.2073
   39MOL0     C 5056   8.269   6.359   4.759  1.3348  0.1284  0.4937
   39MOL0     C 5057   8.421   6.383   4.778 -1.0362 -0.2287  0.6186
   39MOL0     C 5058   8.440   6.503   4.868 -0.5444 -0.5458 -0.4041
   39MOL0     C 5059   8.589   6.520   4.908  0.3809 -0.1404 -0.3619
   39MOL0    Cl 5060   8.685   6.548   4.758 -0.2463  0.5943 -0.2182
   39MOL0     C 5061   7.683   6.292   4.833  0.4272 -1.0814  0.2584
   39MOL0     C 5062   7.631   6.413   4.828  0.1639 -0.5712  0.8861
   39MOL0     O 5063   7.617   6.684   4.495 -0.2112 -0.2589 -0.9838
   39MOL0     C 5064   7.586   6.907   4.785 -0.6953  0.6046  0.0308
   39MOL0     C 5065   7.550   7.041   4.808 -0.8071 -0.2312  0.1329
   39MOL0     N 5066   7.570   7.840   4.930 -0.8499 -0.7498 -0.2001
   39MOL0     N 5067   7.611   7.905   5.032  0.0345  0.4066 -1.3874
   39MOL0     C 5068   7.372   8.617   5.947 -0.4695 -0.5882 -0.4951
   39MOL0     C 5069   7.375   8.752   5.977 -0.3469 -0.4483  0.0574
   39MOL0     C 5070   7.270   9.153   6.077  0.4561 -1.1092 -0.3061
   39MOL0     C 5071   7.167   9.153   6.175  0.4296  0.3291 -0.6076
   39MOL0     C 5072   7.072   9.248   6.172  0.5755 -1.1872  0.2126
   39MOL0     C 5073   7.075   9.360   6.089  0.7426 -0.4544 -0.8251
   39MOL0     O 5074   6.977   9.454   6.100 -0.1550  0.2600  0.9712
   39MOL0     C 5075   6.990   9.590   6.030  0.1709 -0.0422 -0.2244
   39MOL0     C 5076   6.849   9.650   6.036 -0.4119  0.1739  0.3922
   39MOL0     C 5077   6.748   9.593   5.941 -0.3738 -0.4061  0.9734
   39MOL0     C 5078   6.796   9.620   5.797  1.1081  0.1410  1.1746
   39MOL0     C 5079   6.678   9.598   5.706  0.2170 -0.1248  0.5603
   39MOL0     C 5080   6.580   9.575   5.636 -0.3419 -0.7328  0.7942
   39MOL0     C 5081   7.194   9.371   6.004 -0.4930  0.6646  0.7076
   39MOL0     C 5082   7.291   9.269   5.995 -0.7079 -0.3544 -0.0935
   39MOL0     H 5083   7.302   8.757   6.296 -3.6341  0.8197 -0.7377
   39MOL0     H 5084   7.262   8.503   6.245  1.2668 -1.3921 -0.9490
   39MOL0     H 5085   7.434   8.366   5.870  0.6090 -1.3049  1.3635
   39MOL0     H 5086   7.274   8.419   5.836  0.5288  0.2570 -0.1417
   39MOL0     H 5087   7.179   8.192   5.925  0.0654 -1.6721  0.7096
   39MOL0     H 5088   7.333   8.149   5.969 -1.1046 -0.8812  0.6583
   39MOL0     H 5089   7.256   8.040   5.734 -2.5681  1.2296  0.3042
   39MOL0     H 5090   7.418   8.101   5.758  0.2782 -0.5466  1.1177
   39MOL0     H 5091   7.220   8.294   5.646  0.6716  0.6183 -0.6597
   39MOL0     H 5092   7.397   8.286   5.617 -2.0424  3.7222  0.7946
   39MOL0     H 5093   7.257   8.213   5.416 -0.7567 -0.5493 -0.4818
   39MOL0     H 5094   7.239   8.058   5.523  1.6255 -0.9071 -0.2537
   39MOL0     H 5095   7.476   8.034   5.516 -2.2744  0.1933  1.1237
   39MOL0     H 5096   7.498   8.182   5.419 -1.3163  0.8657 -2.1011
   39MOL0     H 5097   7.353   7.923   5.333  2.4887 -2.1788 -1.1307
   39MOL0     H 5098   7.391   8.066   5.235 -2.2217  1.0601  2.0376
   39MOL0     H 5099   7.587   7.882   5.362  1.8151  0.9730  0.0521
   39MOL0     H 5100   7.635   8.020   5.272  1.7525 -2.4795 -2.2547
   39MOL0     H 5101   7.393   7.733   5.178 -0.8160  1.1241  0.3694
   39MOL0     H 5102   7.350   7.723   4.813 -4.7372 -2.2386  1.3983
   39MOL0     H 5103   7.288   7.662   4.955  0.6997  0.8524  1.2718
   39MOL0     H 5104   7.512   7.494   4.963  1.7595 -0.2521 -1.0093
   39MOL0     H 5105   7.518   7.535   4.783 -2.2439 -4.8460 -3.3908
   39MOL0     H 5106   7.271   7.454   4.893  0.7428  1.0823 -0.4231
   39MOL0     H 5107   7.326   7.451   4.730  1.9045  0.0672 -0.0545
   39MOL0     H 5108   7.340   7.233   4.897 -1.5475  2.2893  0.4290
   39MOL0     H 5109   7.518   7.291   4.899 -1.3737  2.1036  4.7905
   39MOL0     H 5110   7.414   7.100   4.496  0.1846 -0.3655  0.9437
   39MOL0     H 5111   7.476   6.896   4.459  1.0269 -0.0092 -0.5425
   39MOL0     H 5112   7.781   6.509   4.540 -0.6341  0.8998 -0.1733
   39MOL0     H 5113   7.870   6.283   4.553 -0.2703  0.4423  0.7080
   39MOL0     H 5114   7.848   6.059   4.552  0.1696 -1.1030 -0.4335
   39MOL0     H 5115   7.882   5.935   4.677  2.1184 -0.6474  0.6688
   39MOL0     H 5116   8.080   6.082   4.556  0.8781  4.4838  0.2704
   39MOL0     H 5117   8.088   5.985   4.696 -0.5880 -0.8186 -1.6145
   39MOL0     H 5118   8.066   6.181   4.843  1.3347 -0.2813  1.3639
   39MOL0     H 5119   8.039   6.291   4.710  1.3308  0.5586  2.6607
   39MOL0     H 5120   8.299   6.148   4.741 -1.1377 -1.2597  0.5170
   39MOL0     H 5121   8.253   6.227   4.596 -1.9106  0.9847 -0.1881
   39MOL0     H 5122   8.235   6.363   4.863  0.5616  2.7545  0.2362
   39MOL0     H 5123   8.217   6.444   4.711  0.7711  0.0544  0.9615
   39MOL0     H 5124   8.464   6.409   4.681 -3.1996  2.1599  0.1833
   39MOL0     H 5125   8.467   6.292   4.817  0.6348 -1.0601 -2.9383
   39MOL0     H 5126   8.404   6.597   4.823 -0.5407 -0.3482  0.0026
   39MOL0     H 5127   8.376   6.506   4.956  2.2489  2.0763  1.7809
   39MOL0     H 5128   8.611   6.428   4.964 -1.5865 -1.1098 -1.0837
   39MOL0     H 5129   8.620   6.599   4.977  1.7173  2.4092 -3.6677
   39MOL0     H 5130   7.630   6.235   4.909 -4.5626  1.2280 -1.0490
   39MOL0     H 5131   7.561   6.454   4.900 -0.1050 -0.1347  0.3758
   39MOL0     H 5132   7.619   6.854   4.873 -2.6760  1.0051  1.0880
   39MOL0     H 5133   7.574   7.085   4.904 -1.1390 -0.9899  0.5689
   39MOL0     H 5134   7.421   8.578   5.859  1.7742 -2.4872  1.4561
   39MOL0     H 5135   7.414   8.826   5.908 -1.1284  3.6669  3.5976
   39MOL0     H 5136   7.152   9.069   6.241 -0.4511 -0.0854 -1.3072
   39MOL0     H 5137   6.995   9.237   6.248  1.3469 -1.8445  0.9302
   39MOL0     H 5138   7.033   9.579   5.930 -1.8186 -1.7256 -0.9650
   39MOL0     H 5139   7.063   9.647   6.088  0.6776  0.6310 -1.5027
   39MOL0     H 5140   6.818   9.624   6.137  0.4554  1.2900  0.9610
   39MOL0     H 5141   6.851   9.759   6.033 -1.3586  0.1898 -0.1079
   39MOL0     H 5142   6.656   9.651   5.958  1.3110  2.7797  0.1038
   39MOL0     H 5143   6.721   9.489   5.962  0.1525 -0.7168  0.1389
   39MOL0     H 5144   6.812   9.728   5.786 -0.0634  0.3407  1.3809
   39MOL0     H 5145   6.881   9.562   5.761  0.5520 -0.4694  0.8323
   39MOL0     H 5146   6.496   9.538   5.580  0.4735 -1.0345 -0.2555
   39MOL0     H 5147   7.213   9.462   5.948  0.3256  2.1801  3.2500
   39MOL0     H 5148   7.381   9.289   5.938  0.8438 -1.5084  1.8372
   40MOL0     O 5149   7.273   5.958   8.174 -0.5061 -0.0273  0.4861
   40MOL0     C 5150   7.249   5.867   8.104 -0.0708 -0.7855  0.2458
   40MOL0     O 5151   7.232   5.875   7.980 -0.7495 -0.7027  0.4624
   40MOL0     C 5152   7.167   5.986   7.917 -0.3007 -0.2305  0.2837
   40MOL0     C 5153   7.197   6.010   7.780 -0.8409 -0.7555  0.3679
   40MOL0     C 5154   7.128   6.119   7.722 -0.0142  0.3624  0.0451
   40MOL0     C 5155   7.015   6.175   7.774  0.0431  0.7462  0.0667
   40MOL0     O 5156   6.931   6.248   7.694 -0.4036 -0.0616 -0.1557
   40MOL0     C 5157   6.830   6.332   7.753  0.1514  0.6293 -0.2522
   40MOL0     C 5158   6.818   6.460   7.670 -0.9301 -0.2319 -0.2571
   40MOL0     C 5159   6.943   6.549   7.700 -0.0624 -0.8190  0.3286
   40MOL0     C 5160   7.021   6.592   7.580 -0.5969 -0.8121  1.3042
   40MOL0     C 5161   7.081   6.734   7.609 -0.6966 -0.3107  0.1956
   40MOL0     C 5162   7.220   6.715   7.689  1.3857  0.7856  0.3530
   40MOL0     C 5163   7.300   6.843   7.691  0.6350  0.2011  0.4953
   40MOL0     C 5164   7.399   6.848   7.572 -0.4276 -0.1379 -0.1206
   40MOL0     N 5165   7.508   6.745   7.578 -1.1692 -0.4599 -0.2579
   40MOL0     C 5166   7.596   6.740   7.683  0.1653 -0.7924  1.1982
   40MOL0     C 5167   7.669   6.636   7.651 -0.8003  0.0545 -0.3053
   40MOL0     C 5168   7.781   6.578   7.730  1.2798 -0.9331 -0.1041
   40MOL0     C 5169   7.764   6.433   7.771 -0.3383  0.1472  0.1898
   40MOL0     C 5170   7.887   6.396   7.847  0.2213  0.4601 -0.6144
   40MOL0     C 5171   7.902   6.245   7.886 -0.2016  0.6161  0.2945
   40MOL0     O 5172   7.773   6.212   7.950 -0.4063  0.4403  0.9799
   40MOL0     C 5173   7.765   6.208   8.088 -0.3369  0.1337 -0.2454
   40MOL0     C 5174   7.647   6.138   8.124  0.2352  0.1462  0.9350
   40MOL0     C 5175   7.587   6.139   8.255 -0.5355 -0.8805 -0.2681
   40MOL0     C 5176   7.657   6.218   8.356  0.3688 -0.5169  1.0964
   40MOL0     C 5177   7.591   6.241   8.481 -0.4882  0.4143 -0.0885
   40MOL0     O 5178   7.481   6.167   8.502 -0.4611  0.3649  0.8453
   40MOL0     C 5179   7.434   6.181   8.630  1.6406  0.0019  0.4878
   40MOL0     C 5180   7.491   6.115   8.742  0.3297 -0.2454 -0.0019
   40MOL0     C 5181   7.433   6.106   8.865  1.5193  0.0115 -0.0058
   40MOL0     C 5182   7.307   6.173   8.881 -0.2948  0.5145  0.6098
   40MOL0     O 5183   7.266   6.166   9.011 -0.3844 -0.7876  0.1816
   40MOL0     C 5184   7.190   6.271   9.064  0.3803 -0.4409 -0.2077
   40MOL0     C 5185   7.215   6.261   9.211  0.4375  0.6002 -0.6534
   40MOL0     C 5186   7.164   6.123   9.270 -0.3881  0.5424  0.0791
   40MOL0     C 5187   7.021   6.111   9.258  0.0831 -0.4508 -0.4654
   40MOL0     C 5188   6.960   6.010   9.355  0.1289  0.4060 -0.4384
   40MOL0     C 5189   6.801   6.002   9.344 -0.0677 -0.3037  0.2698
   40MOL0     C 5190   6.738   5.902   9.454 -0.7498 -0.0243 -0.8161
   40MOL0     C 5191   6.612   5.951   9.500  0.2547 -0.5937 -0.4556
   40MOL0    Cl 5192   6.614   6.083   9.612  0.0813 -0.1480  0.1483
   40MOL0     C 5193   7.252   6.253   8.784 -0.0862  1.5930  0.3018
   40MOL0     C 5194   7.312   6.244   8.656  0.3056  0.1035  0.0351
   40MOL0     O 5195   7.637   6.323   8.555 -0.8229 -0.1447 -0.1938
   40MOL0     C 5196   7.788   6.268   8.325  0.1507 -0.1323  0.0916
   40MOL0     C 5197   7.841   6.264   8.191 -0.2697  0.1983  0.0540
   40MOL0     N 5198   7.622   6.579   7.540 -0.1043  0.2716  0.5510
   40MOL0     N 5199   7.526   6.643   7.490 -0.5986 -0.4855 -0.0238
   40MOL0     C 5200   6.977   6.133   7.901  0.3346 -0.5727  0.5824
   40MOL0     C 5201   7.056   6.049   7.975 -0.5210 -0.4771  0.0342
   40MOL0     C 5202   7.261   5.733   8.164  0.2081  0.3306 -0.5331
   40MOL0     C 5203   7.277   5.613   8.084 -0.8420 -0.0207  0.1418
   40MOL0     C 5204   7.287   5.481   8.146 -0.3752 -0.4631  0.2117
   40MOL0     C 5205   7.285   5.467   8.285 -0.4590 -0.4100 -0.0911
   40MOL0     O 5206   7.311   5.343   8.350 -0.2648 -0.3636  0.5794
   40MOL0     C 5207   7.261   5.222   8.282 -0.0974  0.7339 -0.4074
   40MOL0     C 5208   7.265   5.113   8.389 -0.3483  0.3460 -0.8777
   40MOL0     C 5209   7.405   5.047   8.400 -0.5979  0.2263  0.4025
   40MOL0     C 5210   7.403   4.938   8.506  1.7162 -1.0973  0.2873
   40MOL0     C 5211   7.533   4.898   8.550 -1.0504  0.4109 -0.4385
   40MOL0     C 5212   7.637   4.862   8.598  1.0195  0.0120 -0.3311
   40MOL0     C 5213   7.279   5.589   8.356 -1.1248  1.0785  0.5619
   40MOL0     C 5214   7.265   5.713   8.301 -0.1622 -0.2489  0.4210
   40MOL0     H 5215   7.277   5.977   7.715 -1.2833  0.4656 -0.8460
   40MOL0     H 5216   7.153   6.134   7.618 -0.5766 -1.4058 -0.3790
   40MOL0     H 5217   6.849   6.368   7.855  0.6818 -2.7409  0.9695
   40MOL0     H 5218   6.742   6.267   7.761  1.2853 -0.7072  3.2234
   40MOL0     H 5219   6.725   6.518   7.672 -1.2839 -0.5371 -3.4020
   40MOL0     H 5220   6.822   6.435   7.564  1.0900 -0.2416 -0.2181
   40MOL0     H 5221   7.018   6.499   7.762 -1.9231 -2.2155  1.5420
   40MOL0     H 5222   6.915   6.630   7.768  2.4459 -0.5149  1.0878
   40MOL0     H 5223   7.090   6.520   7.537  0.3995  0.5074  0.6131
   40MOL0     H 5224   6.960   6.612   7.490  0.7056 -1.7579  0.1813
   40MOL0     H 5225   7.010   6.794   7.668 -0.4922 -0.1145  0.2402
   40MOL0     H 5226   7.097   6.789   7.516 -0.1479  0.9818  1.0310
   40MOL0     H 5227   7.283   6.638   7.643  1.6262  0.9116  0.4696
   40MOL0     H 5228   7.212   6.676   7.791  1.0328 -2.4385 -0.8148
   40MOL0     H 5229   7.245   6.938   7.684  1.8928  0.8527 -1.4939
   40MOL0     H 5230   7.363   6.845   7.781  1.4590 -2.0158  0.0109
   40MOL0     H 5231   7.431   6.953   7.573 -0.5801 -0.0887  0.9647
   40MOL0     H 5232   7.342   6.819   7.483  0.3755 -0.5248 -0.5147
   40MOL0     H 5233   7.597   6.800   7.774 -2.0376 -1.1845  1.5254
   40MOL0     H 5234   7.790   6.659   7.803  1.4614  0.3286 -1.4609
   40MOL0     H 5235   7.878   6.586   7.680  2.2943  1.3059  2.0189
   40MOL0     H 5236   7.748   6.374   7.680 -0.7310  0.4490  0.0617
   40MOL0     H 5237   7.672   6.411   7.826 -0.0619 -0.8879  0.2750
   40MOL0     H 5238   7.981   6.423   7.798 -0.5881 -2.8505 -4.5240
   40MOL0     H 5239   7.875   6.453   7.940  0.7511  1.6693 -1.2590
   40MOL0     H 5240   7.979   6.231   7.961 -0.4062  0.5391  0.4907
   40MOL0     H 5241   7.927   6.194   7.793  4.7687  0.7866  1.2679
   40MOL0     H 5242   7.612   6.068   8.049  0.4300  0.9780  0.0515
   40MOL0     H 5243   7.504   6.079   8.291  0.9743 -2.6994  0.3185
   40MOL0     H 5244   7.582   6.063   8.712  0.2160 -0.5474  0.1764
   40MOL0     H 5245   7.485   6.054   8.945 -0.6571 -0.9224  0.8762
   40MOL0     H 5246   7.086   6.260   9.031  0.1739  0.3664  0.1531
   40MOL0     H 5247   7.216   6.371   9.029 -4.0073  1.9878  2.5765
   40MOL0     H 5248   7.151   6.336   9.259 -1.2074 -1.9417  1.4376
   40MOL0     H 5249   7.317   6.296   9.230  0.1449  0.7476  0.7790
   40MOL0     H 5250   7.206   6.113   9.371  0.3787 -3.4092 -0.4990
   40MOL0     H 5251   7.213   6.037   9.224  0.2013  2.5192 -3.3180
   40MOL0     H 5252   6.979   6.210   9.275 -0.1049 -0.3966 -1.2120
   40MOL0     H 5253   7.004   6.085   9.153  2.8990  2.6922 -1.8748
   40MOL0     H 5254   6.994   6.026   9.458 -1.2361  3.7244 -0.3742
   40MOL0     H 5255   7.000   5.913   9.323  0.5436  0.6640 -0.7241
   40MOL0     H 5256   6.780   5.960   9.246  2.3382 -2.8009  0.7089
   40MOL0     H 5257   6.754   6.100   9.356  2.0406  1.2337 -2.6639
   40MOL0     H 5258   6.729   5.801   9.412  0.1578  1.0429 -3.7847
   40MOL0     H 5259   6.805   5.896   9.539 -0.5639 -1.0401 -1.0154
   40MOL0     H 5260   6.564   5.857   9.528  1.5899 -2.0297 -2.6675
   40MOL0     H 5261   6.556   5.975   9.409  1.0777  3.4352 -0.0756
   40MOL0     H 5262   7.158   6.306   8.797 -1.2001  0.1578 -1.4947
   40MOL0     H 5263   7.271   6.296   8.569  0.1858 -2.7664 -1.7656
   40MOL0     H 5264   7.823   6.336   8.402 -0.5612 -0.3764  0.6430
   40MOL0     H 5265   7.928   6.318   8.156 -0.5767  0.7986  0.2052
   40MOL0     H 5266   6.893   6.177   7.954  0.9481 -0.0270  1.1127
   40MOL0     H 5267   7.027   6.034   8.079  0.3650 -1.7229  0.1417
   40MOL0     H 5268   7.279   5.635   7.978 -3.3945 -1.1936 -0.2199
   40MOL0     H 5269   7.295   5.392   8.086 -2.4966 -1.2285  0.9657
   40MOL0     H 5270   7.332   5.202   8.201 -0.7990 -0.9832 -0.6305
   40MOL0     H 5271   7.160   5.236   8.243 -0.8544  1.5629  1.6779
   40MOL0     H 5272   7.230   5.163   8.479 -3.1892  3.5488 -3.4812
   40MOL0     H 5273   7.193   5.035   8.366 -0.4551 -0.4261  1.7551
   40MOL0     H 5274   7.479   5.122   8.428 -0.8450  0.9240 -0.7434
   40MOL0     H 5275   7.445   5.008   8.306  1.2213  2.2865  0.2582
   40MOL0     H 5276   7.356   4.976   8.597  0.3977 -1.1958 -0.3348
   40MOL0     H 5277   7.343   4.858   8.464  3.4437 -1.1531 -2.2735
   40MOL0     H 5278   7.728   4.832   8.645 -0.3183 -1.2622  1.5405
   40MOL0     H 5279   7.288   5.583   8.464 -0.6544 -0.8877  0.4361
   40MOL0     H 5280   7.267   5.806   8.356 -0.8595  2.1103 -3.1895
   41MOL0     O 5281   6.846   7.949  10.627 -0.8702  0.3122  0.2204
   41MOL0     C 5282   6.970   7.916  10.636 -0.4642  0.7946  0.0891
   41MOL0     O 5283   7.077   8.001  10.630 -0.8059  0.4587  0.1403
   41MOL0     C 5284   7.062   8.135  10.602 -0.2506 -0.0700  0.6300
   41MOL0     C 5285   6.948   8.210  10.586  0.6139 -0.2339 -0.4055
   41MOL0     C 5286   6.946   8.340  10.531  0.2776  0.0177  0.4622
   41MOL0     C 5287   7.070   8.408  10.506 -0.2780  0.0214 -0.1125
   41MOL0     O 5288   7.089   8.541  10.487 -0.5495  0.2663 -0.7477
   41MOL0     C 5289   7.126   8.616  10.612 -0.4266  0.2833  0.3661
   41MOL0     C 5290   7.100   8.761  10.583  0.3693 -0.2863  0.0639
   41MOL0     C 5291   6.959   8.778  10.504 -0.2741 -0.5570  0.2504
   41MOL0     C 5292   6.923   8.924  10.515 -0.0997  0.9119  0.9236
   41MOL0     C 5293   6.795   8.943  10.435 -0.1467 -0.3824  0.3601
   41MOL0     C 5294   6.716   9.072  10.482  0.1109  0.2584  0.7226
   41MOL0     C 5295   6.606   9.113  10.381 -0.2684 -0.3469 -0.4389
   41MOL0     C 5296   6.668   9.176  10.247 -1.3180  0.7644  0.2796
   41MOL0     N 5297   6.577   9.238  10.151  0.6476 -0.6828 -0.0635
   41MOL0     C 5298   6.519   9.187  10.045  0.0282 -0.2446  0.5899
   41MOL0     C 5299   6.467   9.293   9.975  0.4480  0.4571 -0.6798
   41MOL0     C 5300   6.399   9.290   9.846 -0.1578 -0.6901  0.0599
   41MOL0     C 5301   6.491   9.253   9.733  0.0499 -0.2588 -1.0429
   41MOL0     C 5302   6.614   9.344   9.716  0.5611  0.7862 -0.1505
   41MOL0     C 5303   6.708   9.292   9.606 -0.0225 -0.2130 -0.0124
   41MOL0     O 5304   6.793   9.190   9.646 -0.1950  0.6391 -0.1428
   41MOL0     C 5305   6.846   9.101   9.559 -0.5235  0.1353 -0.2027
   41MOL0     C 5306   6.791   9.043   9.439 -1.0673 -0.4566  1.3054
   41MOL0     C 5307   6.861   8.947   9.374 -0.5247  0.4006  0.7383
   41MOL0     C 5308   6.983   8.895   9.417 -0.5941  0.3974  0.4099
   41MOL0     C 5309   7.058   8.791   9.349  0.9265 -0.4593 -0.0301
   41MOL0     O 5310   7.187   8.818   9.344 -0.0661 -0.3144 -1.0577
   41MOL0     C 5311   7.278   8.733   9.288  0.1646 -0.2183  0.0085
   41MOL0     C 5312   7.285   8.597   9.330  0.5813 -0.2383  0.4823
   41MOL0     C 5313   7.378   8.509   9.270  0.4240  0.2434 -0.8669
   41MOL0     C 5314   7.469   8.557   9.175 -0.7334  0.3344  0.5493
   41MOL0     O 5315   7.567   8.487   9.118 -0.3837 -0.1070 -0.5637
   41MOL0     C 5316   7.552   8.348   9.104  0.7411 -0.4653 -0.4007
   41MOL0     C 5317   7.639   8.297   8.995  0.5490  0.8079  0.3095
   41MOL0     C 5318   7.609   8.144   8.980  1.1875 -1.1296 -0.2730
   41MOL0     C 5319   7.690   8.082   8.867  0.5067 -0.5838  0.5838
   41MOL0     C 5320   7.605   8.053   8.737  0.6468  0.0079 -0.3719
   41MOL0     C 5321   7.570   8.172   8.653  0.1913 -0.1884 -0.0118
   41MOL0     C 5322   7.478   8.129   8.540 -0.2591  1.0478 -0.5044
   41MOL0     C 5323   7.416   8.255   8.463 -0.3540 -0.4909  0.8844
   41MOL0    Cl 5324   7.246   8.292   8.516 -0.5069  0.1828  0.3650
   41MOL0     C 5325   7.457   8.692   9.128 -0.7115 -0.0256 -0.5230
   41MOL0     C 5326   7.358   8.782   9.182  0.0298 -0.0732  0.7491
   41MOL0     O 5327   6.999   8.691   9.303 -0.0119  0.8225  0.2405
   41MOL0     C 5328   7.033   8.951   9.539  0.4382 -0.2128  0.8297
   41MOL0     C 5329   6.966   9.050   9.608 -0.1018  0.4143 -0.0491
   41MOL0     N 5330   6.492   9.405  10.048 -0.1623  0.1045  0.1463
   41MOL0     N 5331   6.556   9.370  10.156  0.9093  0.1496 -0.5676
   41MOL0     C 5332   7.185   8.336  10.520 -0.5495 -0.6372 -0.3699
   41MOL0     C 5333   7.184   8.202  10.561  0.7359 -0.7168  0.0394
   41MOL0     C 5334   7.003   7.769  10.641 -0.0675 -0.4103  0.5488
   41MOL0     C 5335   6.901   7.671  10.637 -0.2088  0.0071 -1.1622
   41MOL0     C 5336   6.939   7.536  10.636 -0.0668  0.0534 -0.1037
   41MOL0     C 5337   7.072   7.491  10.655  0.0894  0.6266 -0.9642
   41MOL0     O 5338   7.114   7.364  10.689  0.1589  0.2636 -0.7792
   41MOL0     C 5339   7.018   7.261  10.705 -0.1791 -0.2696  0.4757
   41MOL0     C 5340   7.091   7.143  10.786  0.4169 -0.1449 -0.4104
   41MOL0     C 5341   7.009   7.029  10.848  0.3907 -1.2912  0.4302
   41MOL0     C 5342   6.887   6.991  10.767  0.0251  0.9195 -0.0879
   41MOL0     C 5343   6.829   6.879  10.839  0.0553 -0.1766 -0.4978
   41MOL0     C 5344   6.762   6.794  10.895  0.3693  1.2419 -0.0764
   41MOL0     C 5345   7.166   7.592  10.658 -0.0038  1.0243 -0.9482
   41MOL0     C 5346   7.133   7.728  10.640 -0.3674  0.8840 -0.3341
   41MOL0     H 5347   6.856   8.168  10.625  0.2971  1.2078  0.4578
   41MOL0     H 5348   6.852   8.387  10.505 -0.7259 -1.1816  1.7688
   41MOL0     H 5349   7.234   8.606  10.631 -0.4472  0.2382  0.4627
   41MOL0     H 5350   7.093   8.580  10.710  0.9216  0.8463  1.0656
   41MOL0     H 5351   7.181   8.808  10.526  1.6680 -0.6174  1.5838
   41MOL0     H 5352   7.091   8.816  10.677 -0.9781 -0.1452 -0.1234
   41MOL0     H 5353   6.881   8.708  10.538 -0.0100 -1.8859 -1.7201
   41MOL0     H 5354   6.969   8.778  10.395 -1.7596  0.4158  0.0911
   41MOL0     H 5355   6.899   8.957  10.616  2.2879  2.5123  1.0368
   41MOL0     H 5356   7.006   8.984  10.477 -0.8031  0.8593 -0.8135
   41MOL0     H 5357   6.737   8.850  10.445 -0.4948 -0.3614 -1.2093
   41MOL0     H 5358   6.810   8.941  10.327 -0.3643  0.5378  0.3046
   41MOL0     H 5359   6.791   9.151  10.491  0.3306  0.0587  0.6589
   41MOL0     H 5360   6.663   9.060  10.576 -0.0289 -1.5968  0.4412
   41MOL0     H 5361   6.530   9.038  10.354 -2.2509  0.7244  1.7628
   41MOL0     H 5362   6.554   9.200  10.421 -0.9074  0.1385 -2.2457
   41MOL0     H 5363   6.723   9.098  10.194  1.9310  1.4052  2.4423
   41MOL0     H 5364   6.745   9.250  10.270  0.7217 -2.1395  4.0257
   41MOL0     H 5365   6.514   9.081  10.019 -0.2962 -0.3629  1.1017
   41MOL0     H 5366   6.360   9.389   9.822  0.4928 -1.0048 -2.5897
   41MOL0     H 5367   6.329   9.205   9.850  0.6253 -1.3104  1.1668
   41MOL0     H 5368   6.426   9.242   9.646 -2.5121 -0.2728  0.7352
   41MOL0     H 5369   6.530   9.153   9.755 -1.1185 -0.3129  1.1087
   41MOL0     H 5370   6.564   9.433   9.677  0.2215  0.8222  0.3674
   41MOL0     H 5371   6.661   9.354   9.814 -3.4846 -0.9989  2.2429
   41MOL0     H 5372   6.766   9.373   9.561 -0.1105 -0.7039 -1.0300
   41MOL0     H 5373   6.632   9.261   9.534 -2.9258  1.0880  2.2691
   41MOL0     H 5374   6.704   9.086   9.390 -0.7278  2.1453  2.8414
   41MOL0     H 5375   6.815   8.911   9.283 -3.3732  2.6181  1.1740
   41MOL0     H 5376   7.203   8.561   9.391  1.4026 -4.5495 -0.6284
   41MOL0     H 5377   7.359   8.404   9.293  2.2289  0.0801  0.0502
   41MOL0     H 5378   7.448   8.335   9.073  1.0974  2.7216 -3.5130
   41MOL0     H 5379   7.569   8.306   9.204 -3.8373 -0.5613  0.5473
   41MOL0     H 5380   7.745   8.314   9.016  0.5982 -1.2815  2.0778
   41MOL0     H 5381   7.619   8.347   8.899 -1.4585 -0.3098  0.1083
   41MOL0     H 5382   7.501   8.130   8.973  1.0320 -1.3479  1.8524
   41MOL0     H 5383   7.647   8.100   9.073  2.3418  0.6994  0.1921
   41MOL0     H 5384   7.779   8.139   8.840  1.2031 -1.5258  0.8643
   41MOL0     H 5385   7.727   7.990   8.911  0.2100 -0.3453  1.3552
   41MOL0     H 5386   7.513   8.007   8.776  2.6358 -1.8037  2.6477
   41MOL0     H 5387   7.642   7.968   8.679  0.3832 -0.3397 -0.0357
   41MOL0     H 5388   7.667   8.213   8.623 -0.7748  1.8255 -0.5714
   41MOL0     H 5389   7.514   8.237   8.721  0.1951 -0.0315 -0.1589
   41MOL0     H 5390   7.543   8.079   8.468 -0.1179 -2.3458  1.7229
   41MOL0     H 5391   7.407   8.049   8.561  2.9532 -2.1497 -0.8769
   41MOL0     H 5392   7.404   8.235   8.357 -3.0365  0.5220  0.9093
   41MOL0     H 5393   7.480   8.344   8.458 -0.1546 -0.6740  0.1278
   41MOL0     H 5394   7.526   8.729   9.053 -0.7510  1.2407  0.0403
   41MOL0     H 5395   7.343   8.879   9.136  2.2638 -1.8239 -4.5308
   41MOL0     H 5396   7.120   8.907   9.587  0.6589 -2.5562 -1.4857
   41MOL0     H 5397   6.995   9.077   9.709 -1.1929 -1.4089  0.7922
   41MOL0     H 5398   7.277   8.384  10.489  1.2078 -1.0442  3.6407
   41MOL0     H 5399   7.278   8.148  10.555  0.1227 -1.8523  0.2106
   41MOL0     H 5400   6.794   7.689  10.641 -0.2631 -0.3744 -0.7037
   41MOL0     H 5401   6.868   7.454  10.636  0.0569 -0.0854 -2.0273
   41MOL0     H 5402   6.989   7.227  10.604  0.6672 -0.9312  0.4450
   41MOL0     H 5403   6.927   7.284  10.761 -0.7796 -0.2643 -0.4678
   41MOL0     H 5404   7.166   7.099  10.720  0.1230 -0.0085 -0.8391
   41MOL0     H 5405   7.146   7.182  10.872 -0.8427 -1.2120  0.9212
   41MOL0     H 5406   6.976   7.063  10.946 -2.9892  1.0204 -1.3178
   41MOL0     H 5407   7.074   6.942  10.860  0.3534 -1.1380  1.9537
   41MOL0     H 5408   6.821   7.078  10.766 -0.2772  0.7589  1.8707
   41MOL0     H 5409   6.925   6.961  10.669  0.8711  4.3832 -0.9675
   41MOL0     H 5410   6.707   6.713  10.939  0.8224  0.6652 -0.5470
   41MOL0     H 5411   7.267   7.554  10.676  0.3171  1.6553 -1.3773
   41MOL0     H 5412   7.208   7.805  10.660  0.0349 -0.2856  3.6819
   42MOL0     O 5413   2.842   1.840   5.959 -0.6727 -0.3184 -0.5578
   42MOL0     C 5414   2.956   1.823   6.005  1.3344  0.2598  1.3153
   42MOL0     O 5415   3.064   1.779   5.934  0.2844  0.9212 -0.9053
   42MOL0     C 5416   3.098   1.798   5.804 -0.4657 -0.1103  0.3316
   42MOL0     C 5417   3.204   1.718   5.757  0.3109  1.0850  0.1275
   42MOL0     C 5418   3.233   1.722   5.619 -0.3574  0.0661 -0.7571
   42MOL0     C 5419   3.170   1.810   5.532 -0.8530  0.2308  0.0678
   42MOL0     O 5420   3.208   1.802   5.401  0.1825  0.0653  0.7648
   42MOL0     C 5421   3.239   1.935   5.341  1.0952 -0.2079 -1.0918
   42MOL0     C 5422   3.383   1.992   5.390  0.3569  0.2677  0.5621
   42MOL0     C 5423   3.495   1.885   5.387  0.7773 -0.1633 -0.4303
   42MOL0     C 5424   3.502   1.795   5.263  0.6750 -0.3441  0.7721
   42MOL0     C 5425   3.586   1.677   5.300  0.0557  0.3129 -0.4107
   42MOL0     C 5426   3.652   1.605   5.179  0.3540 -0.1282  0.3741
   42MOL0     C 5427   3.551   1.591   5.056  0.4062  0.0934 -0.8954
   42MOL0     C 5428   3.626   1.523   4.946 -0.0950  0.1456  0.0554
   42MOL0     N 5429   3.710   1.613   4.858  0.3890  0.5292  0.0844
   42MOL0     C 5430   3.667   1.684   4.749  0.8260  0.3101 -0.4300
   42MOL0     C 5431   3.773   1.753   4.707 -0.5847 -0.6396  0.2006
   42MOL0     C 5432   3.796   1.840   4.587 -0.0350  0.7901 -0.1713
   42MOL0     C 5433   3.838   1.981   4.603  0.1699 -0.9178 -0.0796
   42MOL0     C 5434   3.860   2.062   4.471 -0.5699  0.7772  0.0480
   42MOL0     C 5435   3.907   2.205   4.502 -0.1511 -0.4160 -0.0785
   42MOL0     O 5436   3.828   2.257   4.613 -0.4212  0.6972 -0.3228
   42MOL0     C 5437   3.856   2.380   4.654  0.6105 -0.2437  0.2411
   42MOL0     C 5438   3.938   2.489   4.608  0.0732 -0.2803 -0.6585
   42MOL0     C 5439   3.952   2.610   4.676 -0.1966  0.4104  0.4026
   42MOL0     C 5440   3.889   2.627   4.803 -0.2749 -0.8721 -0.0451
   42MOL0     C 5441   3.918   2.755   4.886  0.4423  0.4745 -0.7241
   42MOL0     O 5442   3.871   2.761   5.015 -0.1556 -0.6350  0.1902
   42MOL0     C 5443   3.906   2.869   5.090 -0.4853  0.9989 -0.4104
   42MOL0     C 5444   3.808   2.931   5.171 -0.2729 -0.6907  0.5269
   42MOL0     C 5445   3.845   3.033   5.259  1.1885 -1.0605  0.4240
   42MOL0     C 5446   3.973   3.088   5.271 -0.5300  0.1817 -0.7074
   42MOL0     O 5447   4.000   3.201   5.340  0.2000  0.6363  0.1019
   42MOL0     C 5448   4.045   3.177   5.479  1.0181 -0.5762  0.4383
   42MOL0     C 5449   4.009   3.320   5.539 -0.7260  0.2682 -0.0993
   42MOL0     C 5450   4.024   3.331   5.689  0.3444 -0.3362  0.0046
   42MOL0     C 5451   3.977   3.472   5.753  0.0885  0.9568 -0.3859
   42MOL0     C 5452   3.999   3.469   5.909  0.1693  0.5062  0.0119
   42MOL0     C 5453   3.976   3.601   5.977  0.4503  0.0317 -0.2015
   42MOL0     C 5454   4.037   3.725   5.900  0.1987 -0.2889 -0.6263
   42MOL0     C 5455   4.031   3.840   6.007 -0.2267  0.4257  0.2918
   42MOL0    Cl 5456   4.148   3.816   6.137 -0.4853 -0.3177 -0.2968
   42MOL0     C 5457   4.077   3.023   5.203 -0.2983  0.8622 -0.1471
   42MOL0     C 5458   4.040   2.906   5.115  1.1290 -0.4412 -0.2216
   42MOL0     O 5459   3.989   2.833   4.831 -0.1221 -0.6073 -0.3298
   42MOL0     C 5460   3.816   2.525   4.855  0.9424  0.4099 -0.0921
   42MOL0     C 5461   3.801   2.401   4.782  1.3445 -0.3550 -0.0112
   42MOL0     N 5462   3.883   1.714   4.788 -0.0113 -0.3298 -1.0974
   42MOL0     N 5463   3.843   1.631   4.884  0.1126 -0.6107  1.1732
   42MOL0     C 5464   3.061   1.882   5.570  0.0925 -0.6041 -0.4423
   42MOL0     C 5465   3.024   1.880   5.712  1.0911 -0.4329 -0.9806
   42MOL0     C 5466   2.963   1.842   6.148 -0.6136  0.4848  0.1557
   42MOL0     C 5467   3.087   1.845   6.213 -0.3223 -0.1615 -0.0438
   42MOL0     C 5468   3.092   1.846   6.349 -0.3739  0.2498 -0.3385
   42MOL0     C 5469   2.975   1.848   6.429 -0.1568  0.1416  0.1243
   42MOL0     O 5470   3.006   1.857   6.566  0.9503 -0.3554  0.0996
   42MOL0     C 5471   2.899   1.873   6.660  0.4698  1.2063 -0.2232
   42MOL0     C 5472   2.964   1.947   6.780  0.8038 -0.6266  0.6341
   42MOL0     C 5473   3.094   1.889   6.823  0.7009 -0.7039  1.1104
   42MOL0     C 5474   3.147   1.977   6.946 -0.0571  1.6670  0.0636
   42MOL0     C 5475   3.277   1.934   6.993 -0.6915  1.1314  0.7084
   42MOL0     C 5476   3.389   1.893   7.024  0.1237 -0.4375 -0.1395
   42MOL0     C 5477   2.848   1.854   6.363  0.0422 -0.1265 -0.3207
   42MOL0     C 5478   2.845   1.853   6.228 -0.0009 -0.3825  0.6392
   42MOL0     H 5479   3.251   1.646   5.825 -3.3984  0.4204  2.2656
   42MOL0     H 5480   3.312   1.658   5.581 -0.8010 -2.0231  1.5870
   42MOL0     H 5481   3.166   2.013   5.365  1.0582 -0.2052 -1.2126
   42MOL0     H 5482   3.243   1.934   5.231  0.5381 -1.9761 -1.1226
   42MOL0     H 5483   3.368   2.025   5.494 -1.3216 -0.3249  0.5397
   42MOL0     H 5484   3.411   2.080   5.332  2.4230 -0.8103 -0.1707
   42MOL0     H 5485   3.488   1.818   5.474 -0.3195 -1.0689 -1.1910
   42MOL0     H 5486   3.586   1.944   5.402  0.2762  1.0857 -2.0527
   42MOL0     H 5487   3.404   1.758   5.230 -0.3022  0.4633  2.6098
   42MOL0     H 5488   3.543   1.857   5.182 -0.5278  0.9661  1.1210
   42MOL0     H 5489   3.521   1.612   5.359  0.5324  0.9252  0.8286
   42MOL0     H 5490   3.662   1.710   5.371 -2.7334  0.3654  2.8005
   42MOL0     H 5491   3.691   1.508   5.211 -0.5528 -1.0563 -1.1559
   42MOL0     H 5492   3.736   1.666   5.144  0.1315  0.0243  0.1044
   42MOL0     H 5493   3.472   1.525   5.094  1.5501 -0.4726  0.5751
   42MOL0     H 5494   3.499   1.684   5.030 -0.0713 -0.4238 -1.8441
   42MOL0     H 5495   3.559   1.472   4.877 -0.5355  0.5469  0.1761
   42MOL0     H 5496   3.690   1.445   4.988 -1.5428 -2.0330 -1.5550
   42MOL0     H 5497   3.571   1.686   4.699  1.3200  2.6544 -1.4287
   42MOL0     H 5498   3.703   1.824   4.532  0.4638 -0.8631 -0.6041
   42MOL0     H 5499   3.870   1.786   4.528 -2.1122 -1.0821 -1.2462
   42MOL0     H 5500   3.932   1.986   4.659  0.5300  0.2451 -0.7692
   42MOL0     H 5501   3.750   2.022   4.654 -0.5312 -1.3747 -0.8844
   42MOL0     H 5502   3.931   2.007   4.408 -3.3736  0.6141 -3.3078
   42MOL0     H 5503   3.768   2.058   4.412 -2.3017 -1.2216  2.6846
   42MOL0     H 5504   3.906   2.264   4.410  3.3753 -0.3902 -0.2301
   42MOL0     H 5505   4.015   2.206   4.520  0.2106 -1.4594 -2.0093
   42MOL0     H 5506   3.962   2.491   4.502 -0.5041  3.8087 -0.8648
   42MOL0     H 5507   4.004   2.688   4.621 -0.4728  1.3388  1.4408
   42MOL0     H 5508   3.704   2.902   5.161  0.0006 -1.4939 -0.0472
   42MOL0     H 5509   3.768   3.081   5.319  0.7217 -1.5301  0.2095
   42MOL0     H 5510   4.151   3.152   5.472  1.6261  1.9584 -0.2095
   42MOL0     H 5511   3.980   3.101   5.525  1.3569 -1.6867 -0.8568
   42MOL0     H 5512   3.905   3.342   5.512 -0.6947  3.2529  1.7544
   42MOL0     H 5513   4.083   3.383   5.488  2.9643 -1.9630  2.0810
   42MOL0     H 5514   4.128   3.316   5.718 -0.5469 -1.9847  2.6823
   42MOL0     H 5515   3.973   3.245   5.733 -0.0856 -0.5917 -0.9680
   42MOL0     H 5516   4.043   3.542   5.702  1.6499 -1.3553 -1.7275
   42MOL0     H 5517   3.876   3.506   5.728  0.0984  0.6874 -0.8057
   42MOL0     H 5518   4.101   3.443   5.938  0.5815  0.6872 -1.2206
   42MOL0     H 5519   3.943   3.395   5.967 -0.5057  1.5316  0.7138
   42MOL0     H 5520   4.002   3.590   6.082  0.6880 -3.1035 -0.5027
   42MOL0     H 5521   3.869   3.621   5.989  0.3223  0.7886 -2.1675
   42MOL0     H 5522   4.136   3.705   5.858 -0.5471 -0.1112 -2.5992
   42MOL0     H 5523   3.983   3.766   5.813  0.1244  0.7810 -0.0892
   42MOL0     H 5524   3.928   3.850   6.040 -0.8895  1.3566 -1.8877
   42MOL0     H 5525   4.049   3.942   5.970  2.1489  0.2330  0.7455
   42MOL0     H 5526   4.176   3.067   5.210 -0.3989  1.4396 -1.7721
   42MOL0     H 5527   4.116   2.851   5.061  0.9329 -1.5596  0.6098
   42MOL0     H 5528   3.778   2.537   4.956  3.0351  2.2292  0.5673
   42MOL0     H 5529   3.747   2.324   4.836 -1.3159 -1.7511 -4.2009
   42MOL0     H 5530   2.997   1.930   5.497 -1.5417  0.9392  1.8593
   42MOL0     H 5531   2.943   1.947   5.739  0.4279 -1.4104 -0.5081
   42MOL0     H 5532   3.174   1.853   6.149 -1.3093  1.3521 -1.2396
   42MOL0     H 5533   3.188   1.868   6.395 -0.1759  0.7748 -0.9933
   42MOL0     H 5534   2.860   1.777   6.695 -1.9368  1.5930 -1.6499
   42MOL0     H 5535   2.820   1.944   6.633 -0.8090  1.1510  2.8895
   42MOL0     H 5536   2.973   2.053   6.752 -0.7470 -0.6152  0.0782
   42MOL0     H 5537   2.892   1.948   6.863 -3.0343  1.9654 -2.3732
   42MOL0     H 5538   3.162   1.879   6.738 -2.3045  2.4399 -2.0184
   42MOL0     H 5539   3.071   1.791   6.866 -0.2686 -0.7361  0.5356
   42MOL0     H 5540   3.143   2.080   6.910 -3.0410  2.1066  1.3261
   42MOL0     H 5541   3.076   1.964   7.029 -0.2646  2.5955  0.0445
   42MOL0     H 5542   3.486   1.864   7.059 -0.4877 -0.5266  1.5801
   42MOL0     H 5543   2.751   1.861   6.412  1.3343  2.1963  2.2013
   42MOL0     H 5544   2.756   1.850   6.166  0.3735  6.0651 -0.8830
   43MOL0     O 5545   9.657  10.585   3.526  0.6540  0.0715 -0.5790
   43MOL0     C 5546   9.644  10.707   3.502 -0.1659 -0.3600 -0.4670
   43MOL0     O 5547   9.742  10.798   3.475  0.2981  0.3030 -0.2467
   43MOL0     C 5548   9.867  10.752   3.452  1.1450 -0.2718  1.1080
   43MOL0     C 5549   9.957  10.743   3.554 -0.8233 -0.6268  1.0056
   43MOL0     C 5550  10.082  10.690   3.526 -0.0247 -0.5666  0.4810
   43MOL0     C 5551  10.132  10.663   3.398 -0.5191 -0.0841  0.6531
   43MOL0     O 5552  10.260  10.609   3.388 -0.3208  0.4052  0.0776
   43MOL0     C 5553  10.306  10.565   3.261 -0.7298 -0.2867  0.1483
   43MOL0     C 5554  10.456  10.545   3.269  0.6431 -0.4130  0.6372
   43MOL0     C 5555  10.509  10.485   3.141 -0.0407  0.0259 -1.1234
   43MOL0     C 5556  10.660  10.510   3.135  0.0010  0.3101  0.2939
   43MOL0     C 5557  10.725  10.474   2.996  0.3325  0.0610  0.4889
   43MOL0     C 5558  10.768  10.326   2.972 -0.0666 -0.3851  0.1837
   43MOL0     C 5559  10.877  10.324   2.860 -0.3809 -0.2835  0.6169
   43MOL0     C 5560  10.823  10.392   2.729 -0.1099  0.4017 -0.8008
   43MOL0     N 5561  10.881  10.329   2.613  0.3556  0.2691  0.2224
   43MOL0     C 5562  10.823  10.225   2.545 -0.8044 -0.4017 -0.8177
   43MOL0     C 5563  10.908  10.189   2.448 -0.8648 -0.0167 -0.9195
   43MOL0     C 5564  10.887  10.077   2.349  0.3298 -0.4610 -0.0405
   43MOL0     C 5565  10.790   9.979   2.402 -0.2480  0.7473  0.5088
   43MOL0     C 5566  10.800   9.836   2.333 -0.0671 -0.7495 -0.1445
   43MOL0     C 5567  10.792   9.833   2.180  0.2743  1.4681  1.0784
   43MOL0     O 5568  10.822   9.699   2.136  0.3906  0.5617  0.0591
   43MOL0     C 5569  10.710   9.603   2.128  0.3147  0.8956  0.4264
   43MOL0     C 5570  10.598   9.635   2.060 -0.2450 -0.6275 -0.4695
   43MOL0     C 5571  10.512   9.531   2.025 -0.3867 -0.1884  0.0425
   43MOL0     C 5572  10.529   9.400   2.062  1.7621  0.0719 -0.1420
   43MOL0     C 5573  10.438   9.286   2.037  0.6054 -0.3992  0.7748
   43MOL0     O 5574  10.487   9.161   2.058 -0.1472  0.2449 -0.8417
   43MOL0     C 5575  10.442   9.046   1.997  1.1349 -0.1758 -0.9397
   43MOL0     C 5576  10.419   9.040   1.864  0.3486  1.7635  0.6858
   43MOL0     C 5577  10.382   8.915   1.801 -0.8208 -0.0090  0.0763
   43MOL0     C 5578  10.373   8.795   1.873 -0.0998  0.3194  0.0906
   43MOL0     O 5579  10.350   8.673   1.816  0.1860  0.0756  0.2876
   43MOL0     C 5580  10.296   8.662   1.684  0.5410 -0.5144 -0.2145
   43MOL0     C 5581  10.313   8.515   1.637  0.5682 -0.1982  0.2859
   43MOL0     C 5582  10.269   8.495   1.488  0.3470  0.2761 -0.0582
   43MOL0     C 5583  10.269   8.353   1.437 -0.4511  0.2410  0.3680
   43MOL0     C 5584  10.235   8.351   1.285 -0.0172  0.8527 -1.1546
   43MOL0     C 5585  10.366   8.365   1.209 -0.2631 -0.3548  0.2006
   43MOL0     C 5586  10.341   8.395   1.058 -0.6889 -0.5541  0.2417
   43MOL0     C 5587  10.291   8.536   1.018 -0.2155 -1.0073 -0.0173
   43MOL0    Cl 5588  10.301   8.538   0.845 -0.0585 -0.1770  0.0479
   43MOL0     C 5589  10.392   8.804   2.012 -0.0760  0.2074 -0.7598
   43MOL0     C 5590  10.420   8.932   2.071 -0.9923  0.0797  0.0287
   43MOL0     O 5591  10.329   9.320   1.980 -0.6468  1.0065 -0.7572
   43MOL0     C 5592  10.632   9.378   2.150 -0.7144 -0.3595  0.1097
   43MOL0     C 5593  10.731   9.477   2.184 -0.4480 -0.0417 -0.2339
   43MOL0     N 5594  11.026  10.261   2.470  0.5369 -0.0045 -0.7474
   43MOL0     N 5595  11.009  10.346   2.564  0.0176  0.4267 -0.5480
   43MOL0     C 5596  10.044  10.684   3.293  0.6829 -0.6901 -0.1951
   43MOL0     C 5597   9.911  10.722   3.318 -0.3606 -0.0539 -1.0347
   43MOL0     C 5598   9.504  10.765   3.510 -0.1272  0.3202 -0.3583
   43MOL0     C 5599   9.394  10.684   3.515 -0.4641  0.1714 -1.4165
   43MOL0     C 5600   9.263  10.741   3.521 -0.0054  0.1979  0.1212
   43MOL0     C 5601   9.242  10.878   3.529 -0.1926  0.6160 -0.2900
   43MOL0     O 5602   9.111  10.912   3.519  0.3567  0.0312  0.3057
   43MOL0     C 5603   9.078  11.049   3.503 -0.2456 -0.7817  0.0549
   43MOL0     C 5604   9.113  11.113   3.366 -0.7780  0.3892 -0.4491
   43MOL0     C 5605   9.028  11.234   3.336  0.5041  0.2902 -0.2484
   43MOL0     C 5606   9.056  11.291   3.195 -0.2246 -1.1621  0.1274
   43MOL0     C 5607   8.943  11.360   3.132  0.3791  0.8748  0.5753
   43MOL0     C 5608   8.855  11.430   3.087 -0.2287 -0.4510 -0.4749
   43MOL0     C 5609   9.358  10.962   3.541  1.2121  1.0920 -0.6170
   43MOL0     C 5610   9.487  10.906   3.513 -0.8361  0.5851  0.9501
   43MOL0     H 5611   9.937  10.762   3.659  2.0211  0.6640  1.3984
   43MOL0     H 5612  10.162  10.675   3.598  1.4424  0.7918 -0.7726
   43MOL0     H 5613  10.274  10.628   3.178  0.4074 -0.2176 -0.2448
   43MOL0     H 5614  10.252  10.471   3.244 -1.2716 -0.3117  1.8294
   43MOL0     H 5615  10.478  10.478   3.354  2.9974  0.8859  1.1525
   43MOL0     H 5616  10.503  10.642   3.284 -3.1813  1.6140  0.7423
   43MOL0     H 5617  10.445  10.519   3.059 -2.4237  0.0363  0.6106
   43MOL0     H 5618  10.483  10.379   3.151 -2.6641  0.6779  0.1728
   43MOL0     H 5619  10.671  10.616   3.157  1.7885  0.1799  0.1594
   43MOL0     H 5620  10.708  10.452   3.215  0.3693 -1.5779 -1.1972
   43MOL0     H 5621  10.811  10.540   2.984  0.8887 -1.0829 -3.5329
   43MOL0     H 5622  10.653  10.502   2.919  1.3142  3.1133  0.5579
   43MOL0     H 5623  10.688  10.255   2.952  1.6954 -2.6404  0.7619
   43MOL0     H 5624  10.830  10.281   3.050  0.4700 -0.2424 -0.1512
   43MOL0     H 5625  10.971  10.372   2.886  1.2772  0.4480 -5.2852
   43MOL0     H 5626  10.912  10.221   2.849  1.6932  0.3211  1.0663
   43MOL0     H 5627  10.843  10.499   2.728  0.3120  0.3289 -2.1754
   43MOL0     H 5628  10.714  10.381   2.730 -0.0432 -0.4799 -1.6140
   43MOL0     H 5629  10.726  10.186   2.575 -0.9341 -0.2276 -1.0109
   43MOL0     H 5630  10.986  10.041   2.320  0.2590 -0.7626  0.0890
   43MOL0     H 5631  10.854  10.127   2.257 -0.1464  1.2819  1.0260
   43MOL0     H 5632  10.691  10.025   2.393 -1.5653 -1.3760  2.8304
   43MOL0     H 5633  10.812   9.965   2.509  1.5735  0.8683  0.1671
   43MOL0     H 5634  10.897   9.792   2.357  0.1496 -1.1263 -1.6004
   43MOL0     H 5635  10.727   9.769   2.381 -0.9846  0.9360  0.9130
   43MOL0     H 5636  10.862   9.907   2.140  0.7001  0.9564  0.8680
   43MOL0     H 5637  10.693   9.863   2.145 -0.2695 -0.1991  1.1166
   43MOL0     H 5638  10.576   9.734   2.023 -0.7569  0.7737  3.1786
   43MOL0     H 5639  10.424   9.558   1.967  0.1001  0.6432 -0.3223
   43MOL0     H 5640  10.431   9.119   1.790 -1.8989  2.2885  0.8399
   43MOL0     H 5641  10.356   8.924   1.696  0.8552 -1.5897 -0.5213
   43MOL0     H 5642  10.349   8.731   1.618  3.1134 -2.5398 -0.4719
   43MOL0     H 5643  10.190   8.685   1.685  1.2846  4.2577 -2.5316
   43MOL0     H 5644  10.257   8.445   1.701 -0.8973  1.4340  0.8627
   43MOL0     H 5645  10.421   8.499   1.643  0.5266  0.1260  2.5972
   43MOL0     H 5646  10.337   8.559   1.431  0.2014  0.6940  0.2261
   43MOL0     H 5647  10.167   8.530   1.471  0.1873  0.1647  0.6337
   43MOL0     H 5648  10.365   8.303   1.454 -0.3038 -1.8482 -4.8647
   43MOL0     H 5649  10.190   8.305   1.495  0.9828 -0.0652  2.1393
   43MOL0     H 5650  10.172   8.439   1.272  1.9385  2.6521  0.6820
   43MOL0     H 5651  10.185   8.260   1.254  1.1116  0.0992 -0.8295
   43MOL0     H 5652  10.431   8.277   1.216  1.7481  0.8862 -1.5704
   43MOL0     H 5653  10.425   8.450   1.245  3.0527 -0.9617 -3.2286
   43MOL0     H 5654  10.439   8.386   1.009 -1.6220 -1.3635 -1.5762
   43MOL0     H 5655  10.280   8.314   1.018 -0.2850 -1.2578  1.0204
   43MOL0     H 5656  10.354   8.612   1.066 -1.3273 -1.1328  1.7447
   43MOL0     H 5657  10.185   8.549   1.044  0.0070 -1.1808  1.0196
   43MOL0     H 5658  10.398   8.723   2.084 -1.5713  1.0291  0.3496
   43MOL0     H 5659  10.421   8.938   2.179 -1.7021 -2.6523  0.2635
   43MOL0     H 5660  10.650   9.279   2.192  1.7535 -0.2934 -0.6761
   43MOL0     H 5661  10.810   9.460   2.257  2.4557  0.0356 -3.1268
   43MOL0     H 5662  10.071  10.670   3.189  1.0234  1.5419 -0.4475
   43MOL0     H 5663   9.847  10.736   3.232 -0.1090  0.8699 -1.0798
   43MOL0     H 5664   9.393  10.576   3.506 -2.3029 -0.2569  2.3462
   43MOL0     H 5665   9.172  10.681   3.511  0.8371 -1.2224  0.7398
   43MOL0     H 5666   9.112  11.103   3.591 -3.1712 -0.9398  1.4024
   43MOL0     H 5667   8.969  11.056   3.511 -0.1283 -1.1130  3.7950
   43MOL0     H 5668   9.219  11.141   3.368 -0.9503  1.3156 -2.4005
   43MOL0     H 5669   9.100  11.030   3.296  1.6935 -1.2754  0.9027
   43MOL0     H 5670   9.038  11.313   3.411  0.9889  0.6777 -0.7161
   43MOL0     H 5671   8.923  11.202   3.339  1.1299 -2.0418 -1.0599
   43MOL0     H 5672   9.149  11.349   3.187  2.7502 -4.8239  3.5193
   43MOL0     H 5673   9.081  11.210   3.126 -4.0056 -0.6574 -2.1145
   43MOL0     H 5674   8.794  11.514   3.062 -0.0672 -0.7448 -1.9581
   43MOL0     H 5675   9.343  11.068   3.560 -0.5446  1.2214 -2.3966
   43MOL0     H 5676   9.579  10.963   3.510  0.1240 -0.9216  0.4837
   44MOL0     O 5677  10.746   7.091   5.029  0.0398 -0.7501 -0.8234
   44MOL0     C 5678  10.728   6.995   5.107 -0.0788 -0.1450 -0.5066
   44MOL0     O 5679  10.817   6.915   5.182  0.2306 -0.1051 -0.5513
   44MOL0     C 5680  10.951   6.940   5.190  0.0858 -0.3415  0.6994
   44MOL0     C 5681  11.003   7.052   5.253 -0.2216  0.8284 -0.1862
   44MOL0     C 5682  11.140   7.070   5.272 -0.3210  0.6107 -0.1232
   44MOL0     C 5683  11.231   6.995   5.198 -0.3702 -0.0206 -1.7605
   44MOL0     O 5684  11.363   7.015   5.200  0.3397  0.5210  0.6482
   44MOL0     C 5685  11.442   6.997   5.318  0.0737 -0.1218  0.4513
   44MOL0     C 5686  11.530   6.873   5.317  0.5313 -0.3877 -0.2406
   44MOL0     C 5687  11.439   6.742   5.306 -0.3340 -0.1689 -0.8651
   44MOL0     C 5688  11.331   6.729   5.427 -0.6885  0.1642  0.2439
   44MOL0     C 5689  11.268   6.593   5.440  0.4029 -0.0641  0.0401
   44MOL0     C 5690  11.261   6.546   5.587 -0.7099 -0.2486  0.1124
   44MOL0     C 5691  11.211   6.402   5.609 -0.1517  0.4106  0.2804
   44MOL0     C 5692  11.321   6.306   5.557 -0.2449  0.5286  0.6599
   44MOL0     N 5693  11.445   6.296   5.625 -0.1861 -0.9595  0.3493
   44MOL0     C 5694  11.571   6.301   5.572 -0.3719  0.1999  0.5643
   44MOL0     C 5695  11.654   6.281   5.683 -0.0757  0.1131  0.0488
   44MOL0     C 5696  11.811   6.299   5.670 -1.0679 -0.5780 -0.4620
   44MOL0     C 5697  11.873   6.167   5.732 -0.0096  0.4105 -0.5469
   44MOL0     C 5698  12.018   6.204   5.745  0.1781  0.1271  0.6987
   44MOL0     C 5699  12.099   6.086   5.709 -0.2294  0.4158 -0.7138
   44MOL0     O 5700  12.110   6.082   5.569  0.8683 -0.9559  1.3889
   44MOL0     C 5701  12.205   6.017   5.507  1.1002 -0.7184  0.5822
   44MOL0     C 5702  12.291   5.924   5.573 -0.2478  0.7610  0.7039
   44MOL0     C 5703  12.394   5.843   5.505  0.6481 -0.3812 -1.2243
   44MOL0     C 5704  12.420   5.882   5.367 -0.3780  0.7996 -0.2702
   44MOL0     C 5705  12.535   5.825   5.293 -0.4552 -0.4692  0.3552
   44MOL0     O 5706  12.562   5.852   5.163  0.6823 -0.0497  0.2083
   44MOL0     C 5707  12.681   5.825   5.091  0.3463 -0.1490 -0.0528
   44MOL0     C 5708  12.813   5.819   5.145  0.3626  0.1108  0.6359
   44MOL0     C 5709  12.921   5.799   5.055  0.4263  0.0055  0.5493
   44MOL0     C 5710  12.903   5.807   4.910  0.2860 -0.5373 -0.8470
   44MOL0     O 5711  13.008   5.793   4.826 -0.6385  0.2540  0.2717
   44MOL0     C 5712  13.106   5.902   4.837 -0.4352 -0.2567  0.1268
   44MOL0     C 5713  13.236   5.860   4.754  0.4188 -0.8037  0.4775
   44MOL0     C 5714  13.320   5.973   4.694 -0.4380  0.0366  0.0282
   44MOL0     C 5715  13.420   6.059   4.778  0.6244 -0.5366 -0.4984
   44MOL0     C 5716  13.495   6.155   4.688 -0.8780 -0.4427 -0.6350
   44MOL0     C 5717  13.623   6.201   4.753  0.0265  0.1476 -0.3768
   44MOL0     C 5718  13.662   6.332   4.671 -0.4329  0.4363 -0.1341
   44MOL0     C 5719  13.784   6.396   4.723 -0.2750 -0.1621 -1.0690
   44MOL0    Cl 5720  13.751   6.469   4.887  0.2166  0.0514  0.0811
   44MOL0     C 5721  12.768   5.822   4.860  0.5333 -0.5380  1.6575
   44MOL0     C 5722  12.665   5.814   4.946  0.7225 -0.0016 -0.8496
   44MOL0     O 5723  12.596   5.741   5.357 -0.4382  0.0427  0.3001
   44MOL0     C 5724  12.340   5.978   5.313 -0.5923 -0.2506 -0.1778
   44MOL0     C 5725  12.230   6.043   5.378 -0.7255  0.1071 -0.1752
   44MOL0     N 5726  11.569   6.243   5.785  1.0189 -0.5853  0.6760
   44MOL0     N 5727  11.450   6.252   5.752  0.3764  0.9129 -0.0075
   44MOL0     C 5728  11.180   6.891   5.118 -0.2757  0.7177 -1.1655
   44MOL0     C 5729  11.041   6.864   5.118 -0.1719 -0.0274  0.4389
   44MOL0     C 5730  10.590   6.947   5.132 -0.4050 -0.0932  0.5389
   44MOL0     C 5731  10.485   7.030   5.086  0.3632  0.3803 -0.0070
   44MOL0     C 5732  10.351   6.989   5.103  0.4129  0.0275 -1.0911
   44MOL0     C 5733  10.315   6.870   5.176  0.2407 -0.2983 -0.0814
   44MOL0     O 5734  10.183   6.850   5.187  0.3132  0.8477  0.1903
   44MOL0     C 5735  10.138   6.778   5.310  0.4269  0.7553  0.4920
   44MOL0     C 5736  10.135   6.870   5.439 -0.3833  0.2741  0.1967
   44MOL0     C 5737  10.214   7.005   5.433 -0.5400  1.0132 -0.0478
   44MOL0     C 5738  10.349   7.005   5.506  0.4992 -0.3290  0.0141
   44MOL0     C 5739  10.423   7.126   5.473  0.2547  0.1088 -0.3992
   44MOL0     C 5740  10.487   7.231   5.456  0.4486 -0.2763  0.1572
   44MOL0     C 5741  10.422   6.782   5.214 -0.5355  0.0773 -0.3069
   44MOL0     C 5742  10.556   6.823   5.194 -0.1809  1.1255  0.0879
   44MOL0     H 5743  10.939   7.119   5.310 -1.2517 -0.5603  0.3388
   44MOL0     H 5744  11.174   7.154   5.331  2.0902 -0.5340  0.2330
   44MOL0     H 5745  11.374   7.000   5.403 -1.3997 -0.5140 -0.6680
   44MOL0     H 5746  11.512   7.081   5.328  0.8653 -0.7533  0.3093
   44MOL0     H 5747  11.597   6.874   5.403  1.0376 -0.4690 -0.6304
   44MOL0     H 5748  11.599   6.883   5.233 -1.4513  0.8681 -1.8073
   44MOL0     H 5749  11.514   6.663   5.297 -0.2084 -0.0136 -1.1957
   44MOL0     H 5750  11.378   6.743   5.215 -0.7829  0.4745 -0.5690
   44MOL0     H 5751  11.383   6.760   5.518 -0.0469 -2.0778  0.6904
   44MOL0     H 5752  11.256   6.806   5.407 -0.0831  0.5329 -0.6984
   44MOL0     H 5753  11.333   6.521   5.389  0.6114  0.3287 -0.2630
   44MOL0     H 5754  11.168   6.584   5.397 -0.7301 -0.2670  2.5883
   44MOL0     H 5755  11.177   6.600   5.630 -2.7250  0.0913 -3.7835
   44MOL0     H 5756  11.358   6.564   5.635 -1.0039 -1.8824  1.3855
   44MOL0     H 5757  11.168   6.370   5.705 -4.8987  0.3380 -1.5827
   44MOL0     H 5758  11.116   6.402   5.555 -0.8887 -1.0445  1.5049
   44MOL0     H 5759  11.356   6.333   5.458 -0.9119  1.0885  0.5679
   44MOL0     H 5760  11.279   6.205   5.560 -3.6164  1.7979  2.8858
   44MOL0     H 5761  11.597   6.314   5.468 -2.9559  5.1772  0.2013
   44MOL0     H 5762  11.839   6.376   5.742 -1.8626 -0.0036 -0.7548
   44MOL0     H 5763  11.835   6.311   5.565 -0.2536  4.6503  0.0955
   44MOL0     H 5764  11.856   6.091   5.655 -3.4565  2.2486 -1.8204
   44MOL0     H 5765  11.831   6.128   5.825 -0.7824 -1.1350 -1.5069
   44MOL0     H 5766  12.042   6.293   5.686 -0.1000 -0.2269  0.0535
   44MOL0     H 5767  12.045   6.228   5.849 -2.2199  2.5226  0.8879
   44MOL0     H 5768  12.055   5.998   5.756  1.4214 -0.0262  0.0777
   44MOL0     H 5769  12.203   6.104   5.739  1.2232 -0.6577 -4.4156
   44MOL0     H 5770  12.284   5.904   5.680  2.1623 -1.6902  0.5356
   44MOL0     H 5771  12.448   5.764   5.557  0.5227 -1.1050 -2.1670
   44MOL0     H 5772  12.827   5.826   5.252 -1.7708 -4.0952  1.3987
   44MOL0     H 5773  13.014   5.797   5.111  0.5807 -0.2153  0.2864
   44MOL0     H 5774  13.135   5.927   4.939  1.1707 -0.0167 -0.3580
   44MOL0     H 5775  13.065   5.993   4.792  1.6612  2.1194  2.6665
   44MOL0     H 5776  13.192   5.804   4.671 -0.3183  0.0676  0.2567
   44MOL0     H 5777  13.307   5.808   4.819 -1.4225 -1.1481  2.2866
   44MOL0     H 5778  13.249   6.036   4.640  0.8487  0.5573 -1.1008
   44MOL0     H 5779  13.387   5.939   4.614  4.0102  2.0307  2.5137
   44MOL0     H 5780  13.366   6.123   4.849  0.9537 -0.0072 -0.7160
   44MOL0     H 5781  13.502   6.005   4.826  2.0155  2.4236  0.7735
   44MOL0     H 5782  13.440   6.244   4.656  2.4064  2.1152  0.2721
   44MOL0     H 5783  13.528   6.100   4.599 -0.1620 -1.3255  0.1495
   44MOL0     H 5784  13.699   6.128   4.725 -1.2779 -0.9141 -1.2460
   44MOL0     H 5785  13.633   6.207   4.862  0.2405  0.3137 -0.4038
   44MOL0     H 5786  13.668   6.298   4.567 -2.3603 -2.7592  0.6506
   44MOL0     H 5787  13.580   6.403   4.664  1.4529  2.5912 -2.6253
   44MOL0     H 5788  13.818   6.479   4.661 -1.0201  0.8304 -0.1763
   44MOL0     H 5789  13.859   6.317   4.732 -0.2751  0.0869  2.7830
   44MOL0     H 5790  12.750   5.845   4.756  0.5852  2.9928  2.2818
   44MOL0     H 5791  12.561   5.817   4.914 -0.2514  1.9994  2.0850
   44MOL0     H 5792  12.377   6.006   5.215  0.6062 -1.1480 -0.0038
   44MOL0     H 5793  12.177   6.121   5.325 -2.8085 -0.0396  1.5366
   44MOL0     H 5794  11.244   6.833   5.054  0.5761 -0.3259  0.5602
   44MOL0     H 5795  11.009   6.782   5.055  0.7636 -0.9683  1.1626
   44MOL0     H 5796  10.486   7.129   5.041 -3.4990 -0.4620 -2.4081
   44MOL0     H 5797  10.275   7.050   5.054  0.6962  2.3063  1.0775
   44MOL0     H 5798  10.203   6.692   5.330  0.4694  0.0765 -2.1500
   44MOL0     H 5799  10.049   6.718   5.290  2.3555 -1.2484 -3.2046
   44MOL0     H 5800  10.033   6.881   5.476  0.6316  0.5919  3.1625
   44MOL0     H 5801  10.174   6.806   5.519 -3.5761 -2.0260  0.1093
   44MOL0     H 5802  10.153   7.077   5.489 -0.2789  0.8089  0.5110
   44MOL0     H 5803  10.229   7.040   5.330  4.2388  0.2484  0.1569
   44MOL0     H 5804  10.342   6.998   5.615  0.5750 -0.3685  0.0162
   44MOL0     H 5805  10.396   6.914   5.469  1.1370  0.7800 -2.0910
   44MOL0     H 5806  10.548   7.318   5.444  0.1128  0.1467  1.3527
   44MOL0     H 5807  10.393   6.681   5.240 -3.3096  0.6619 -0.7980
   44MOL0     H 5808  10.637   6.758   5.228 -2.1031 -0.4222  1.9487
   45MOL0     O 5809  11.140   1.219   3.390  0.1880 -0.4013 -0.5682
   45MOL0     C 5810  11.261   1.252   3.381 -0.7365 -1.3653 -0.7130
   45MOL0     O 5811  11.363   1.200   3.462  0.0719  0.2217  0.8350
   45MOL0     C 5812  11.347   1.097   3.551  0.6314 -0.9589 -0.0583
   45MOL0     C 5813  11.234   1.007   3.555  0.4925  0.0430 -0.4329
   45MOL0     C 5814  11.216   0.923   3.666  0.4044 -0.4966  0.2875
   45MOL0     C 5815  11.306   0.921   3.772 -0.2925  0.0684 -0.2302
   45MOL0     O 5816  11.279   0.843   3.877 -0.6692  0.1907 -0.0687
   45MOL0     C 5817  11.392   0.805   3.953 -0.6762  0.5329  0.4411
   45MOL0     C 5818  11.340   0.709   4.063  0.0919  0.0465  0.0136
   45MOL0     C 5819  11.467   0.668   4.145  0.5458 -0.4957 -0.2174
   45MOL0     C 5820  11.441   0.598   4.280  0.3506 -0.3066 -0.2194
   45MOL0     C 5821  11.362   0.685   4.382 -0.2312  0.6321  0.1087
   45MOL0     C 5822  11.425   0.809   4.428 -0.0868 -0.8846  0.3018
   45MOL0     C 5823  11.568   0.779   4.469 -0.0497  0.3981 -1.0893
   45MOL0     C 5824  11.628   0.882   4.565  0.6179 -0.7774 -0.6948
   45MOL0     N 5825  11.650   1.013   4.495 -0.4240 -0.0062 -0.8448
   45MOL0     C 5826  11.556   1.101   4.457 -0.4878  0.8639 -0.3045
   45MOL0     C 5827  11.627   1.211   4.428  1.0135 -0.0032  0.2685
   45MOL0     C 5828  11.548   1.335   4.414  0.4263  0.6296  1.4202
   45MOL0     C 5829  11.581   1.406   4.282 -0.2271  1.0843 -0.0162
   45MOL0     C 5830  11.704   1.487   4.270 -1.0293  0.4007 -0.1113
   45MOL0     C 5831  11.715   1.570   4.145  0.1298  0.3374 -0.0842
   45MOL0     O 5832  11.849   1.622   4.125  0.0359  0.1171 -0.3832
   45MOL0     C 5833  11.838   1.751   4.075 -0.3465 -1.6039 -0.3922
   45MOL0     C 5834  11.739   1.795   3.986 -0.4455 -0.4976  0.3125
   45MOL0     C 5835  11.757   1.921   3.933  0.1323 -0.0044  0.0136
   45MOL0     C 5836  11.869   2.003   3.955  0.0443  0.0949 -1.1141
   45MOL0     C 5837  11.897   2.124   3.889  0.4606  0.9318 -0.7920
   45MOL0     O 5838  12.022   2.160   3.861 -1.1020 -0.2766  0.1520
   45MOL0     C 5839  12.055   2.264   3.772  0.3766 -0.0200 -0.4526
   45MOL0     C 5840  12.034   2.390   3.829 -0.7347 -0.4384 -0.5909
   45MOL0     C 5841  12.055   2.506   3.746  0.1128  0.5355  1.1103
   45MOL0     C 5842  12.119   2.498   3.619 -0.3538 -0.0639 -0.0875
   45MOL0     O 5843  12.140   2.605   3.534 -0.3670  0.9435  0.3014
   45MOL0     C 5844  12.182   2.730   3.584 -1.8744  0.4823 -0.3307
   45MOL0     C 5845  12.201   2.833   3.462 -0.3648 -0.7075 -0.5315
   45MOL0     C 5846  12.297   2.946   3.512  0.3581  0.1831  0.1566
   45MOL0     C 5847  12.326   3.017   3.387 -0.0723 -0.2078 -0.0266
   45MOL0     C 5848  12.411   3.145   3.414 -0.9485  0.0924 -0.4777
   45MOL0     C 5849  12.550   3.108   3.461 -0.9464 -0.4229 -0.8028
   45MOL0     C 5850  12.625   3.241   3.444 -0.1844 -0.4623 -0.5977
   45MOL0     C 5851  12.761   3.238   3.522  0.7613  0.4413  0.0296
   45MOL0    Cl 5852  12.881   3.116   3.448  0.0709  0.5860 -0.0427
   45MOL0     C 5853  12.149   2.362   3.575  0.3717  0.3196  0.4866
   45MOL0     C 5854  12.118   2.243   3.646 -0.1342  0.6976  0.5843
   45MOL0     O 5855  11.797   2.177   3.838 -1.0153  0.3892 -0.0003
   45MOL0     C 5856  11.961   1.964   4.057  0.4406  0.7505  0.4393
   45MOL0     C 5857  11.947   1.837   4.116  0.1234  0.4419  0.5360
   45MOL0     N 5858  11.765   1.189   4.443  0.0912 -0.0836  0.4382
   45MOL0     N 5859  11.773   1.073   4.487  0.1301  0.0572 -0.6092
   45MOL0     C 5860  11.434   0.991   3.752  0.4243  0.4369 -0.5189
   45MOL0     C 5861  11.447   1.080   3.647 -0.5551 -0.3371 -0.5933
   45MOL0     C 5862  11.291   1.341   3.263 -0.1640 -0.5544  0.4589
   45MOL0     C 5863  11.421   1.385   3.222  0.2701 -0.3642 -0.1303
   45MOL0     C 5864  11.444   1.484   3.127  0.1580  0.4806 -0.5219
   45MOL0     C 5865  11.342   1.539   3.055  0.5626 -0.3331 -0.2137
   45MOL0     O 5866  11.351   1.622   2.937  0.3489 -0.0579  0.2317
   45MOL0     C 5867  11.487   1.643   2.903  0.3055 -0.4134  1.0632
   45MOL0     C 5868  11.480   1.745   2.783  0.8556  0.8859 -0.4211
   45MOL0     C 5869  11.411   1.687   2.657  0.3557  0.4673  0.1635
   45MOL0     C 5870  11.486   1.667   2.525  0.0054  0.5480 -0.2697
   45MOL0     C 5871  11.577   1.545   2.532  0.6873 -0.6742 -0.1551
   45MOL0     C 5872  11.633   1.447   2.564 -0.4328  0.1987 -0.7732
   45MOL0     C 5873  11.217   1.494   3.083 -0.1285 -0.0171 -0.1742
   45MOL0     C 5874  11.191   1.397   3.185 -0.4652  0.1126  0.8346
   45MOL0     H 5875  11.151   1.008   3.485  0.1116  1.4410  0.0126
   45MOL0     H 5876  11.122   0.871   3.681 -0.7956  1.8209  1.3747
   45MOL0     H 5877  11.439   0.890   4.004 -0.4320  1.4572 -1.2279
   45MOL0     H 5878  11.468   0.754   3.893 -0.3081 -2.3121  3.1134
   45MOL0     H 5879  11.294   0.623   4.014 -1.3741  0.3250  0.8570
   45MOL0     H 5880  11.268   0.772   4.115 -1.5548 -0.9253 -1.0081
   45MOL0     H 5881  11.525   0.757   4.171  4.3546 -2.0917 -2.4952
   45MOL0     H 5882  11.528   0.611   4.075  0.6266  0.4217 -0.9027
   45MOL0     H 5883  11.395   0.499   4.270  0.1514 -0.6283  2.8155
   45MOL0     H 5884  11.544   0.571   4.306  0.8556 -1.5285 -3.0562
   45MOL0     H 5885  11.347   0.616   4.465 -1.4492  2.3009  1.3421
   45MOL0     H 5886  11.266   0.708   4.336  0.7469  0.7250 -2.0102
   45MOL0     H 5887  11.361   0.858   4.501 -0.6164 -0.6439 -0.3117
   45MOL0     H 5888  11.437   0.876   4.342 -1.0149 -0.0002  0.8424
   45MOL0     H 5889  11.568   0.692   4.535  1.0433 -1.3237 -3.2504
   45MOL0     H 5890  11.631   0.760   4.382  0.3925  1.3485 -0.9893
   45MOL0     H 5891  11.721   0.849   4.612 -0.7275 -3.2771  0.4272
   45MOL0     H 5892  11.577   0.916   4.655  0.4365 -1.7459 -0.4125
   45MOL0     H 5893  11.449   1.081   4.450 -0.5193  1.5384 -2.1529
   45MOL0     H 5894  11.571   1.399   4.500  2.5201  0.8850  0.7098
   45MOL0     H 5895  11.443   1.303   4.412  0.4492  0.5772  1.0223
   45MOL0     H 5896  11.501   1.478   4.262 -0.3648  0.7508 -0.6630
   45MOL0     H 5897  11.574   1.330   4.204  0.5895 -0.3300  1.2335
   45MOL0     H 5898  11.718   1.545   4.361  1.1620 -2.7036  1.6944
   45MOL0     H 5899  11.788   1.417   4.271  0.0537  1.4098 -3.8300
   45MOL0     H 5900  11.643   1.648   4.171  0.9389  0.5937  1.4792
   45MOL0     H 5901  11.689   1.511   4.056  0.0993 -0.1134  0.2188
   45MOL0     H 5902  11.650   1.737   3.964 -1.3537  0.5397  1.1412
   45MOL0     H 5903  11.688   1.967   3.863 -2.1636  0.8542  2.6255
   45MOL0     H 5904  11.999   2.401   3.931  0.5177 -2.3394  0.0897
   45MOL0     H 5905  12.026   2.603   3.786 -1.1655 -0.5677  3.0452
   45MOL0     H 5906  12.281   2.719   3.629 -1.8772  0.8386 -0.2362
   45MOL0     H 5907  12.110   2.779   3.649 -1.8250  0.2790 -0.1209
   45MOL0     H 5908  12.101   2.874   3.445  0.6164  0.8645 -3.1171
   45MOL0     H 5909  12.237   2.781   3.373  1.7613 -2.7777  1.4008
   45MOL0     H 5910  12.385   2.889   3.542  0.8472  2.3996  3.4412
   45MOL0     H 5911  12.260   3.014   3.590  2.6588  2.2677 -0.4191
   45MOL0     H 5912  12.370   2.956   3.308 -0.3845 -1.1065  0.4780
   45MOL0     H 5913  12.233   3.058   3.345 -0.5929 -2.5175 -1.2674
   45MOL0     H 5914  12.363   3.217   3.482 -3.5152 -0.7763 -1.2471
   45MOL0     H 5915  12.419   3.209   3.326  3.7468  1.7068  0.8285
   45MOL0     H 5916  12.604   3.031   3.406 -2.6408 -1.0865 -1.6395
   45MOL0     H 5917  12.550   3.063   3.561  2.7580  3.0027  0.9779
   45MOL0     H 5918  12.642   3.276   3.341  0.8711 -0.2610 -0.3669
   45MOL0     H 5919  12.575   3.328   3.487  3.9067  1.7422  0.2163
   45MOL0     H 5920  12.746   3.202   3.625 -0.7482  2.1217  0.4325
   45MOL0     H 5921  12.809   3.333   3.545  1.1712 -0.0127  1.1359
   45MOL0     H 5922  12.185   2.343   3.474  0.5120 -3.0814  1.0757
   45MOL0     H 5923  12.146   2.143   3.615 -3.1436 -0.5246  1.4303
   45MOL0     H 5924  12.056   2.013   4.074 -1.2210  3.8545  1.6325
   45MOL0     H 5925  12.016   1.796   4.189 -1.9966  1.8058  3.5184
   45MOL0     H 5926  11.515   0.977   3.824 -0.0294  1.7750  0.2930
   45MOL0     H 5927  11.535   1.143   3.653 -1.4509  0.7916  3.8941
   45MOL0     H 5928  11.507   1.346   3.275  0.1353  1.7893  1.8042
   45MOL0     H 5929  11.547   1.513   3.107  1.4468 -3.0994  0.1969
   45MOL0     H 5930  11.515   1.546   2.859 -0.6011  0.7403 -2.4468
   45MOL0     H 5931  11.552   1.689   2.977  0.8083  0.2127  0.2444
   45MOL0     H 5932  11.416   1.832   2.802 -2.3575 -0.3404 -4.1094
   45MOL0     H 5933  11.578   1.780   2.751 -1.1704  4.7653 -3.2527
   45MOL0     H 5934  11.335   1.764   2.638 -2.0475 -1.6224  0.7753
   45MOL0     H 5935  11.356   1.595   2.679 -1.6477  1.4070 -0.5745
   45MOL0     H 5936  11.402   1.652   2.457 -0.4440  2.7328 -0.2848
   45MOL0     H 5937  11.548   1.753   2.497 -1.0584  1.3791 -0.1408
   45MOL0     H 5938  11.680   1.356   2.596 -2.5745 -1.1907 -1.3749
   45MOL0     H 5939  11.132   1.536   3.031 -1.7859  0.5163  2.7558
   45MOL0     H 5940  11.090   1.358   3.193 -0.0691 -1.5713 -1.2747
   46MOL0     O 5941   0.575   8.771   1.528 -0.1372 -0.1117 -0.1288
   46MOL0     C 5942   0.692   8.743   1.513 -0.0382  0.1769 -0.5693
   46MOL0     O 5943   0.731   8.618   1.477 -0.6491  0.3395 -0.4526
   46MOL0     C 5944   0.640   8.514   1.456  0.2477  0.1203  0.7472
   46MOL0     C 5945   0.539   8.520   1.363  0.4629  1.1237  0.9828
   46MOL0     C 5946   0.474   8.402   1.327  0.1657  0.5919  1.1514
   46MOL0     C 5947   0.493   8.279   1.399 -0.6603  0.2639 -0.4461
   46MOL0     O 5948   0.428   8.160   1.366  0.6377  0.2474 -0.8992
   46MOL0     C 5949   0.322   8.160   1.272  0.4417  0.5207 -0.6218
   46MOL0     C 5950   0.254   8.015   1.274  0.5909 -0.3084 -1.2164
   46MOL0     C 5951   0.129   8.033   1.194  0.2135 -0.7057  0.3936
   46MOL0     C 5952   0.037   7.909   1.211  0.4037 -0.0086 -0.2218
   46MOL0     C 5953  -0.075   7.916   1.106  0.0240 -1.1000 -0.1801
   46MOL0     C 5954  -0.036   7.925   0.957  0.7386 -0.3603  0.0435
   46MOL0     C 5955  -0.170   7.878   0.881 -0.8936  0.4416 -0.0109
   46MOL0     C 5956  -0.163   7.869   0.728 -0.0775 -0.1404  0.2729
   46MOL0     N 5957  -0.159   7.999   0.666  0.3432  0.5496 -0.2046
   46MOL0     C 5958  -0.067   8.101   0.681  0.0424 -0.7592 -0.9392
   46MOL0     C 5959  -0.088   8.193   0.581 -0.8730 -0.2667 -0.0441
   46MOL0     C 5960  -0.003   8.325   0.568 -0.9032 -0.1799 -0.4371
   46MOL0     C 5961   0.151   8.296   0.550 -0.1715  0.1487 -0.1647
   46MOL0     C 5962   0.243   8.419   0.554 -0.0612 -0.5549 -1.4799
   46MOL0     C 5963   0.385   8.374   0.575 -0.1144  0.3175  0.0883
   46MOL0     O 5964   0.464   8.492   0.594  0.3034  0.3028 -0.7901
   46MOL0     C 5965   0.569   8.518   0.504  1.9473  0.7804 -0.3235
   46MOL0     C 5966   0.552   8.498   0.364 -0.7542 -0.6603 -0.0374
   46MOL0     C 5967   0.663   8.518   0.275  0.6099 -0.5766 -0.0033
   46MOL0     C 5968   0.795   8.535   0.330  0.7387  0.4765 -0.0156
   46MOL0     C 5969   0.912   8.559   0.247  0.1098 -0.2806  0.1667
   46MOL0     O 5970   1.036   8.596   0.314  0.5533 -0.3956  0.6593
   46MOL0     C 5971   1.132   8.608   0.225  0.3369 -0.1647 -0.4392
   46MOL0     C 5972   1.188   8.510   0.147 -0.8020 -0.5706  0.6133
   46MOL0     C 5973   1.306   8.535   0.076 -0.9465 -0.0302  0.6664
   46MOL0     C 5974   1.376   8.665   0.078  0.2065  0.3091  0.2662
   46MOL0     O 5975   1.481   8.694  -0.000 -0.1003  0.1307 -0.0640
   46MOL0     C 5976   1.594   8.602   0.015  0.6289 -0.2749 -0.4626
   46MOL0     C 5977   1.641   8.593  -0.127  0.1381  0.0104 -0.0819
   46MOL0     C 5978   1.779   8.532  -0.144  0.2635  0.0637  0.8304
   46MOL0     C 5979   1.815   8.474  -0.279  0.5831 -0.0339  0.2366
   46MOL0     C 5980   1.940   8.392  -0.273 -0.9665 -0.1775 -0.4072
   46MOL0     C 5981   2.002   8.361  -0.405  0.1753 -0.0442 -0.3949
   46MOL0     C 5982   1.915   8.284  -0.503  0.2395  0.3897  0.3248
   46MOL0     C 5983   1.997   8.233  -0.615  0.6486  1.0455  0.4602
   46MOL0    Cl 5984   1.881   8.205  -0.748  0.0280  0.0598 -0.3361
   46MOL0     C 5985   1.315   8.760   0.162 -0.8788  0.6695  0.1146
   46MOL0     C 5986   1.196   8.732   0.235 -0.4872  0.2523  0.7252
   46MOL0     O 5987   0.892   8.568   0.125 -0.1535  0.3462  0.2912
   46MOL0     C 5988   0.813   8.537   0.476  0.2490  0.0337  0.3233
   46MOL0     C 5989   0.695   8.538   0.549  0.6887  0.2917  0.3969
   46MOL0     N 5990  -0.198   8.148   0.512 -0.8246  0.1955  1.0339
   46MOL0     N 5991  -0.235   8.021   0.550 -0.6903 -0.2908 -0.0679
   46MOL0     C 5992   0.573   8.275   1.505 -0.3204  0.4282  0.3700
   46MOL0     C 5993   0.658   8.390   1.536  1.0904 -0.8511  0.0275
   46MOL0     C 5994   0.789   8.850   1.527 -0.1980  0.0861 -0.2508
   46MOL0     C 5995   0.767   8.951   1.623 -0.1262 -0.6871  0.6284
   46MOL0     C 5996   0.867   9.043   1.652 -0.4592 -0.2052  1.6037
   46MOL0     C 5997   0.983   9.050   1.568  0.3868 -0.6878 -0.1635
   46MOL0     O 5998   1.076   9.149   1.578  0.4872 -0.2038  0.2789
   46MOL0     C 5999   1.214   9.128   1.555  0.4813 -0.0858  0.1797
   46MOL0     C 6000   1.282   9.252   1.619  0.7025  0.0889 -0.4219
   46MOL0     C 6001   1.286   9.361   1.511 -0.1747  0.8979 -1.1764
   46MOL0     C 6002   1.321   9.503   1.567 -0.1658  0.5726  0.7253
   46MOL0     C 6003   1.430   9.498   1.663  0.4282  0.7262  1.0210
   46MOL0     C 6004   1.511   9.483   1.741 -0.7159  0.8754 -0.3915
   46MOL0     C 6005   1.001   8.950   1.470 -0.2383 -0.0701  0.2075
   46MOL0     C 6006   0.905   8.851   1.451 -0.0825 -0.2790 -0.4796
   46MOL0     H 6007   0.520   8.616   1.316  0.8351 -0.1469 -1.9322
   46MOL0     H 6008   0.394   8.419   1.255  0.2545  3.1795  1.5611
   46MOL0     H 6009   0.364   8.182   1.174 -0.0768  3.6243 -0.2710
   46MOL0     H 6010   0.243   8.232   1.296 -1.1310 -0.9837 -1.0786
   46MOL0     H 6011   0.201   7.986   1.366 -2.2951 -3.1786 -3.5537
   46MOL0     H 6012   0.324   7.938   1.239  0.6598 -2.4391  2.9178
   46MOL0     H 6013   0.151   8.052   1.088 -2.1864 -3.2638 -0.7170
   46MOL0     H 6014   0.075   8.123   1.225 -1.1627 -1.0846 -0.7800
   46MOL0     H 6015   0.096   7.822   1.181 -1.3843 -0.7208 -1.9217
   46MOL0     H 6016   0.016   7.909   1.319  1.9882  0.6519  0.1084
   46MOL0     H 6017  -0.147   7.995   1.126 -0.1880 -1.5588  0.9205
   46MOL0     H 6018  -0.137   7.827   1.122  0.7963 -1.3790  1.4910
   46MOL0     H 6019   0.038   7.847   0.935 -1.3007 -1.9940 -1.3093
   46MOL0     H 6020   0.005   8.024   0.936 -2.8217  1.6890  1.8794
   46MOL0     H 6021  -0.202   7.782   0.922  0.9922 -0.7159 -1.1099
   46MOL0     H 6022  -0.261   7.938   0.892 -2.3440 -1.8138  1.0671
   46MOL0     H 6023  -0.245   7.807   0.692  1.6637 -1.2966 -2.0270
   46MOL0     H 6024  -0.070   7.817   0.702 -0.0042 -0.5817  1.3791
   46MOL0     H 6025   0.020   8.106   0.746  1.3258 -0.5001 -2.6354
   46MOL0     H 6026  -0.016   8.378   0.663 -1.7569 -3.4357  1.4143
   46MOL0     H 6027  -0.042   8.385   0.484  3.8421  1.1271 -2.0247
   46MOL0     H 6028   0.158   8.246   0.453  0.4658 -0.2228  0.0719
   46MOL0     H 6029   0.191   8.239   0.634  0.6862  3.1733  1.6322
   46MOL0     H 6030   0.232   8.463   0.455  0.4600  2.3092 -0.3489
   46MOL0     H 6031   0.212   8.478   0.640 -1.3336 -1.1167 -1.5358
   46MOL0     H 6032   0.432   8.311   0.499  3.2720  2.4295  0.2150
   46MOL0     H 6033   0.390   8.319   0.669 -2.4160 -1.6413 -0.8400
   46MOL0     H 6034   0.456   8.470   0.321  0.4136 -3.1156 -1.2540
   46MOL0     H 6035   0.638   8.514   0.170 -1.5896  0.1739  0.4457
   46MOL0     H 6036   1.151   8.407   0.141 -3.2284  0.1201  2.1431
   46MOL0     H 6037   1.346   8.455   0.014 -1.0158  0.0078  0.5734
   46MOL0     H 6038   1.561   8.502   0.048 -1.8665  1.2592  2.1425
   46MOL0     H 6039   1.666   8.648   0.082 -0.4969  0.7610  0.0825
   46MOL0     H 6040   1.644   8.691  -0.175 -0.0023 -0.4606 -1.0731
   46MOL0     H 6041   1.566   8.537  -0.185 -2.1131 -0.0092  2.6098
   46MOL0     H 6042   1.790   8.445  -0.079 -2.1266 -2.1179 -1.4751
   46MOL0     H 6043   1.860   8.602  -0.121  0.7919 -0.3057  0.1463
   46MOL0     H 6044   1.733   8.422  -0.330  0.5127  2.0000 -1.9100
   46MOL0     H 6045   1.836   8.545  -0.360  1.2501 -0.3766  0.1053
   46MOL0     H 6046   1.924   8.295  -0.224 -1.9972 -0.3709 -1.1002
   46MOL0     H 6047   2.008   8.453  -0.213 -0.1779  2.2109 -3.5113
   46MOL0     H 6048   2.088   8.299  -0.376 -3.4999 -4.2656  2.9462
   46MOL0     H 6049   2.028   8.452  -0.459  0.1916 -0.8809 -1.8578
   46MOL0     H 6050   1.842   8.216  -0.457 -0.7566  1.5999  0.5856
   46MOL0     H 6051   1.848   8.359  -0.544 -3.3127 -1.6753  1.8693
   46MOL0     H 6052   2.030   8.137  -0.574 -3.5740 -0.4332  0.8621
   46MOL0     H 6053   2.087   8.292  -0.636  1.7125 -0.1395  1.4746
   46MOL0     H 6054   1.359   8.859   0.160 -6.2859  3.4654 -0.4458
   46MOL0     H 6055   1.154   8.810   0.297  1.2577  3.3685 -1.7555
   46MOL0     H 6056   0.910   8.560   0.519  0.5126 -1.5448  0.6426
   46MOL0     H 6057   0.723   8.545   0.654  0.9190 -1.5632  0.4916
   46MOL0     H 6058   0.604   8.186   1.560  2.5135  3.0021  3.3848
   46MOL0     H 6059   0.735   8.401   1.612  3.3618  1.7383 -2.4261
   46MOL0     H 6060   0.670   8.961   1.668 -1.1248  0.1913 -1.5517
   46MOL0     H 6061   0.851   9.119   1.728  1.7992  1.7566  0.2509
   46MOL0     H 6062   1.243   9.115   1.450  2.8276  1.2256  0.6100
   46MOL0     H 6063   1.222   9.036   1.613 -1.1123  1.2201  2.6380
   46MOL0     H 6064   1.226   9.284   1.707 -0.4161  2.1835 -1.8161
   46MOL0     H 6065   1.385   9.225   1.646  0.3454 -1.6630 -0.7068
   46MOL0     H 6066   1.192   9.364   1.455 -2.9891 -2.6664  2.7781
   46MOL0     H 6067   1.367   9.329   1.445  0.8784 -0.5661  0.7372
   46MOL0     H 6068   1.337   9.557   1.474 -1.3834 -0.4636 -0.1260
   46MOL0     H 6069   1.234   9.548   1.614 -0.1282 -0.2703  1.6419
   46MOL0     H 6070   1.582   9.465   1.819 -1.4414 -3.0605 -0.3983
   46MOL0     H 6071   1.087   8.942   1.405 -1.0120  0.6294 -0.9218
   46MOL0     H 6072   0.944   8.780   1.379 -1.1931 -1.2207 -0.1662
   47MOL0     O 6073   3.614   4.119   9.404 -0.2746 -0.9757 -0.2504
   47MOL0     C 6074   3.498   4.151   9.438 -0.7442  0.7081  0.1743
   47MOL0     O 6075   3.464   4.263   9.504  0.0057 -0.0661  0.5742
   47MOL0     C 6076   3.563   4.354   9.531 -1.0505  1.1047  0.6521
   47MOL0     C 6077   3.561   4.474   9.456 -0.6380  0.2313 -0.3680
   47MOL0     C 6078   3.662   4.559   9.466  0.9794  0.0232 -0.1920
   47MOL0     C 6079   3.776   4.540   9.544 -0.1881  0.1164 -0.0007
   47MOL0     O 6080   3.871   4.631   9.582 -0.2454 -0.0114 -0.3129
   47MOL0     C 6081   3.869   4.753   9.506 -0.1893 -0.6870 -0.3240
   47MOL0     C 6082   3.955   4.844   9.593  0.3263 -0.6418 -0.4742
   47MOL0     C 6083   4.035   4.946   9.518 -0.0758 -0.1542 -0.0680
   47MOL0     C 6084   4.080   5.063   9.599 -0.0270 -0.5237  0.4363
   47MOL0     C 6085   4.198   5.135   9.527  0.4594 -0.7510 -0.3337
   47MOL0     C 6086   4.258   5.257   9.595  0.1115  0.5383 -0.4083
   47MOL0     C 6087   4.158   5.376   9.549  0.1900  0.1816  0.3955
   47MOL0     C 6088   4.181   5.499   9.653  0.2826 -0.3582  0.1915
   47MOL0     N 6089   4.320   5.553   9.629  0.3897  0.4051 -0.0472
   47MOL0     C 6090   4.419   5.528   9.730  0.4858  0.5468  1.0684
   47MOL0     C 6091   4.528   5.572   9.667 -0.0496 -0.3544 -0.7625
   47MOL0     C 6092   4.656   5.569   9.736 -0.2767  0.2776 -0.4640
   47MOL0     C 6093   4.764   5.658   9.662  1.0080 -0.1303 -0.1603
   47MOL0     C 6094   4.894   5.655   9.738  0.2934 -0.2420  0.0677
   47MOL0     C 6095   4.975   5.752   9.654 -1.0960 -0.3490 -0.2737
   47MOL0     O 6096   5.008   5.712   9.520 -0.7753  0.5624 -0.5765
   47MOL0     C 6097   5.080   5.802   9.438 -0.3195 -0.1429  0.0114
   47MOL0     C 6098   5.060   5.940   9.442  0.2507  0.5248  0.4507
   47MOL0     C 6099   5.137   6.036   9.369 -0.1097  0.0909 -0.0136
   47MOL0     C 6100   5.233   5.984   9.272 -0.1252 -0.4353 -0.3304
   47MOL0     C 6101   5.302   6.073   9.174 -0.5127 -0.0783 -0.4498
   47MOL0     O 6102   5.227   6.163   9.113 -0.5593 -0.0886 -0.3211
   47MOL0     C 6103   5.276   6.288   9.075 -0.9892 -0.6274  1.1828
   47MOL0     C 6104   5.184   6.347   8.988 -0.4494 -0.2764  0.5933
   47MOL0     C 6105   5.204   6.476   8.942 -0.8352  0.5771  0.1152
   47MOL0     C 6106   5.318   6.539   8.978  0.3893 -0.0467 -0.3280
   47MOL0     O 6107   5.330   6.674   8.937  0.0824  0.3311  0.7443
   47MOL0     C 6108   5.387   6.774   9.017 -0.1035  0.1393 -1.1150
   47MOL0     C 6109   5.360   6.770   9.168 -0.1347  0.1266 -1.0663
   47MOL0     C 6110   5.266   6.882   9.203  0.8310 -0.5561  1.0488
   47MOL0     C 6111   5.331   7.025   9.197  0.1552  0.1364  0.0880
   47MOL0     C 6112   5.433   7.060   9.305 -0.2864 -0.0497 -0.1003
   47MOL0     C 6113   5.388   7.050   9.452 -0.1149  0.2012  0.0573
   47MOL0     C 6114   5.510   7.073   9.541  0.2314  0.7970 -0.5630
   47MOL0     C 6115   5.468   7.039   9.683  0.8317  0.0637 -0.0132
   47MOL0    Cl 6116   5.617   7.067   9.771 -0.4075 -0.7926 -0.0105
   47MOL0     C 6117   5.409   6.477   9.061  0.7465  0.2691  0.4689
   47MOL0     C 6118   5.396   6.352   9.111  0.3957 -0.5500  1.0119
   47MOL0     O 6119   5.422   6.048   9.161 -0.4500 -0.1661  0.2955
   47MOL0     C 6120   5.251   5.847   9.268 -0.0619 -0.4117  0.8912
   47MOL0     C 6121   5.175   5.758   9.352 -0.0937 -0.0662 -0.0339
   47MOL0     N 6122   4.508   5.592   9.529  0.2065 -0.6127 -0.2634
   47MOL0     N 6123   4.378   5.587   9.509  0.3947  0.1399  0.6580
   47MOL0     C 6124   3.778   4.420   9.618 -0.1950 -0.4562  0.1499
   47MOL0     C 6125   3.677   4.324   9.606  0.2004  0.2963  0.4060
   47MOL0     C 6126   3.388   4.050   9.433 -0.5290 -0.1433 -0.1688
   47MOL0     C 6127   3.266   4.078   9.494  2.1598  0.5476  0.9514
   47MOL0     C 6128   3.157   3.989   9.500 -0.4455 -0.0527  0.2753
   47MOL0     C 6129   3.179   3.854   9.464  0.7553  0.0098 -0.5396
   47MOL0     O 6130   3.074   3.768   9.488 -0.0545 -0.3929 -0.2959
   47MOL0     C 6131   3.105   3.651   9.562  0.2632 -0.0721  0.5611
   47MOL0     C 6132   3.154   3.666   9.700  0.1610  1.1864 -0.4232
   47MOL0     C 6133   3.094   3.768   9.807  0.4194  0.1902 -0.0719
   47MOL0     C 6134   2.952   3.739   9.832  0.4194 -0.9429  0.8789
   47MOL0     C 6135   2.911   3.838   9.941  0.0788  0.6737  0.4596
   47MOL0     C 6136   2.917   3.911  10.036 -0.1931  0.0246 -0.8650
   47MOL0     C 6137   3.300   3.819   9.408  0.2039 -0.3012 -0.5835
   47MOL0     C 6138   3.402   3.911   9.384  0.4986 -0.1174 -0.1413
   47MOL0     H 6139   3.472   4.495   9.396  0.8581  1.2234 -2.3670
   47MOL0     H 6140   3.652   4.654   9.415  0.0423  1.2402  2.1466
   47MOL0     H 6141   3.778   4.809   9.485  0.6486  1.0800  0.5185
   47MOL0     H 6142   3.921   4.730   9.413  0.7295 -1.0523  0.2642
   47MOL0     H 6143   4.032   4.788   9.646  0.0328 -0.4926  0.1254
   47MOL0     H 6144   3.892   4.883   9.673 -0.4599 -1.4195 -0.6909
   47MOL0     H 6145   3.969   4.989   9.442 -1.6954 -0.6757  0.9831
   47MOL0     H 6146   4.114   4.884   9.474 -0.5161 -1.1592  0.5078
   47MOL0     H 6147   4.004   5.141   9.607 -0.8255 -1.0630 -1.5793
   47MOL0     H 6148   4.096   5.026   9.701 -1.4115  1.4921  1.4750
   47MOL0     H 6149   4.160   5.171   9.431  0.4085  0.3916  0.1029
   47MOL0     H 6150   4.280   5.062   9.519  1.9713  0.1695  4.0092
   47MOL0     H 6151   4.354   5.266   9.545 -1.0005 -1.1475 -3.0669
   47MOL0     H 6152   4.265   5.252   9.704  0.4603  1.9958 -0.3383
   47MOL0     H 6153   4.192   5.407   9.449  0.2283  0.4817  0.5010
   47MOL0     H 6154   4.050   5.360   9.543 -0.4404  2.8693  2.4650
   47MOL0     H 6155   4.164   5.460   9.753 -0.9080 -0.7972 -0.1707
   47MOL0     H 6156   4.108   5.575   9.623  0.6710 -0.4721 -1.1112
   47MOL0     H 6157   4.401   5.482   9.827 -1.3770 -3.8895 -1.0950
   47MOL0     H 6158   4.687   5.464   9.737 -0.5031  0.1102  3.2387
   47MOL0     H 6159   4.644   5.590   9.842 -1.3419  0.4980 -0.6121
   47MOL0     H 6160   4.723   5.759   9.644  0.6990 -0.3224 -0.5660
   47MOL0     H 6161   4.781   5.609   9.565  2.7274 -2.7472  1.3504
   47MOL0     H 6162   4.886   5.687   9.842 -0.9879 -0.4245  0.0460
   47MOL0     H 6163   4.916   5.547   9.736 -0.2550 -0.4881 -5.1573
   47MOL0     H 6164   5.070   5.755   9.708 -1.8721 -1.7554  1.2375
   47MOL0     H 6165   4.928   5.851   9.644 -1.6308 -0.4713  0.8026
   47MOL0     H 6166   4.983   5.984   9.505 -0.5682 -0.4278  0.1374
   47MOL0     H 6167   5.105   6.139   9.380 -3.1356 -0.6278 -0.8906
   47MOL0     H 6168   5.104   6.286   8.948  0.3444 -0.3199 -1.0071
   47MOL0     H 6169   5.135   6.528   8.878 -1.3250 -0.8753 -0.5815
   47MOL0     H 6170   5.364   6.873   8.978  0.7936  0.7346 -0.1894
   47MOL0     H 6171   5.491   6.750   8.994 -0.1399 -1.2294 -0.0035
   47MOL0     H 6172   5.449   6.756   9.229 -1.7503  2.4557  2.0881
   47MOL0     H 6173   5.300   6.681   9.193  1.2561 -0.7699 -0.7998
   47MOL0     H 6174   5.223   6.862   9.302  0.9039 -1.3151  0.9307
   47MOL0     H 6175   5.182   6.878   9.133  1.1736 -1.0377  0.6582
   47MOL0     H 6176   5.391   7.030   9.105 -1.3666 -0.2636 -0.9540
   47MOL0     H 6177   5.244   7.089   9.184  0.3746  0.0576 -2.2626
   47MOL0     H 6178   5.459   7.165   9.288 -1.1553  0.2771  0.4632
   47MOL0     H 6179   5.525   7.002   9.296 -0.0630  0.1414  0.7971
   47MOL0     H 6180   5.350   6.948   9.461 -2.2939  0.8351 -1.1595
   47MOL0     H 6181   5.313   7.127   9.475 -1.4893 -1.1303  0.2276
   47MOL0     H 6182   5.594   7.013   9.506  0.2053  1.0232 -1.0271
   47MOL0     H 6183   5.544   7.176   9.539  0.4527  0.7253 -1.7637
   47MOL0     H 6184   5.450   6.932   9.697  0.2971  0.3679  1.9106
   47MOL0     H 6185   5.387   7.100   9.723  1.9780  0.1748  2.3399
   47MOL0     H 6186   5.501   6.532   9.080 -0.1840  1.5566  1.4604
   47MOL0     H 6187   5.477   6.296   9.156 -0.6351 -4.0959 -1.1202
   47MOL0     H 6188   5.319   5.810   9.193  0.2614  6.3406 -2.9268
   47MOL0     H 6189   5.192   5.652   9.340 -1.4549 -0.2754 -0.2547
   47MOL0     H 6190   3.871   4.405   9.671  1.5623  4.5367 -0.9774
   47MOL0     H 6191   3.684   4.222   9.644 -0.6911  0.1520  0.1918
   47MOL0     H 6192   3.255   4.170   9.552  0.3137  0.5112  0.6985
   47MOL0     H 6193   3.069   4.028   9.550  0.4732 -0.0881  2.0157
   47MOL0     H 6194   3.186   3.596   9.513  0.4540  2.1962 -1.9060
   47MOL0     H 6195   3.016   3.588   9.559  0.5134 -0.4749  1.3311
   47MOL0     H 6196   3.139   3.563   9.733  2.5247  0.7861 -0.4466
   47MOL0     H 6197   3.259   3.694   9.697  0.0023  2.1638  1.5983
   47MOL0     H 6198   3.129   3.871   9.795 -0.9981  0.6713 -0.1960
   47MOL0     H 6199   3.142   3.746   9.903 -1.5537 -2.5969  0.4084
   47MOL0     H 6200   2.893   3.747   9.740  2.6479 -1.7954 -0.7062
   47MOL0     H 6201   2.925   3.640   9.871  3.1145 -0.5612  4.1601
   47MOL0     H 6202   2.935   3.972  10.122  1.9878  0.4620 -1.5776
   47MOL0     H 6203   3.316   3.714   9.386  3.1343  0.5557 -3.3357
   47MOL0     H 6204   3.495   3.876   9.340  0.0767 -1.9257  0.3501
   48MOL0     O 6205   4.322   3.244   4.722  0.6315 -0.7132  0.2882
   48MOL0     C 6206   4.423   3.270   4.787  0.5401  0.8986  1.2230
   48MOL0     O 6207   4.549   3.239   4.740 -0.3200 -0.2333 -0.2552
   48MOL0     C 6208   4.582   3.184   4.616 -0.2016 -0.2391  0.2706
   48MOL0     C 6209   4.636   3.061   4.609 -0.6724  1.0327  0.0177
   48MOL0     C 6210   4.659   2.996   4.483  0.0837 -0.1967  0.2739
   48MOL0     C 6211   4.633   3.063   4.366 -0.3551 -0.2727 -0.3084
   48MOL0     O 6212   4.671   3.034   4.233 -0.7083  0.0880 -0.0135
   48MOL0     C 6213   4.755   2.912   4.215  0.4061 -0.1837 -0.5939
   48MOL0     C 6214   4.789   2.877   4.068  0.8874  0.7013 -0.8866
   48MOL0     C 6215   4.833   2.990   3.980  0.5973  0.2958 -0.3459
   48MOL0     C 6216   4.875   2.943   3.836 -0.2357  1.0215 -0.3503
   48MOL0     C 6217   5.005   2.858   3.834 -0.6958  0.2350  0.3269
   48MOL0     C 6218   5.141   2.925   3.840  0.5539 -0.2443 -0.0818
   48MOL0     C 6219   5.258   2.811   3.831  0.2943 -0.7413 -0.0672
   48MOL0     C 6220   5.278   2.722   3.955  1.2275 -0.7881  0.4484
   48MOL0     N 6221   5.387   2.630   3.931  0.9328  0.2246 -0.4285
   48MOL0     C 6222   5.520   2.659   3.906 -0.1186 -0.6784 -0.1602
   48MOL0     C 6223   5.582   2.541   3.908  0.4943  0.4591  0.2334
   48MOL0     C 6224   5.725   2.514   3.902 -0.4665 -0.2958  0.8357
   48MOL0     C 6225   5.750   2.400   3.807 -0.7787 -0.0263  0.7421
   48MOL0     C 6226   5.896   2.379   3.771 -1.0454 -0.5838  0.0180
   48MOL0     C 6227   5.978   2.313   3.890  0.8388 -0.2155 -0.0754
   48MOL0     O 6228   5.959   2.169   3.888  0.3589 -0.2897  0.2610
   48MOL0     C 6229   5.918   2.111   3.999 -0.4884 -0.1246 -0.0175
   48MOL0     C 6230   5.811   2.160   4.078  0.5709 -1.1633  0.5960
   48MOL0     C 6231   5.766   2.089   4.186  0.3280 -0.2979  0.1865
   48MOL0     C 6232   5.822   1.961   4.217  0.6355 -0.5542 -0.9367
   48MOL0     C 6233   5.768   1.877   4.333 -0.9014 -0.4337 -0.1754
   48MOL0     O 6234   5.651   1.921   4.385 -0.4264 -0.3114  0.9141
   48MOL0     C 6235   5.583   1.856   4.486  0.6579 -0.4253 -0.7417
   48MOL0     C 6236   5.515   1.939   4.577 -0.3410 -0.9969 -0.1437
   48MOL0     C 6237   5.446   1.889   4.696  1.0770  0.6610 -0.4186
   48MOL0     C 6238   5.437   1.751   4.716  0.1793 -1.1607  0.4191
   48MOL0     O 6239   5.363   1.702   4.818  0.3649  0.0920 -0.7582
   48MOL0     C 6240   5.375   1.558   4.861  0.8517  0.7022 -0.2664
   48MOL0     C 6241   5.339   1.558   5.009  0.6796 -0.3615  0.0113
   48MOL0     C 6242   5.447   1.630   5.096 -0.0563  0.5198 -0.1938
   48MOL0     C 6243   5.428   1.592   5.244 -0.0728  0.2219 -0.2385
   48MOL0     C 6244   5.531   1.649   5.346  0.2952  0.0411  0.5314
   48MOL0     C 6245   5.657   1.568   5.337  0.5131 -0.4053 -0.4066
   48MOL0     C 6246   5.730   1.586   5.468  0.9389 -0.4993  0.1640
   48MOL0     C 6247   5.831   1.477   5.481 -0.5272  0.0961 -0.4859
   48MOL0    Cl 6248   5.956   1.481   5.361 -0.4684  0.0822 -0.2398
   48MOL0     C 6249   5.501   1.674   4.618  0.3002 -0.1892  0.2226
   48MOL0     C 6250   5.566   1.719   4.501 -0.4881 -0.7063 -0.4132
   48MOL0     O 6251   5.841   1.794   4.388  0.6384 -0.2464  0.5168
   48MOL0     C 6252   5.933   1.915   4.143 -0.6002 -0.3832 -0.0735
   48MOL0     C 6253   5.973   1.989   4.029 -0.5321 -0.0587  0.2651
   48MOL0     N 6254   5.486   2.440   3.934  0.4472  0.3500 -0.1648
   48MOL0     N 6255   5.370   2.498   3.948 -0.2170  0.6415 -0.1108
   48MOL0     C 6256   4.580   3.193   4.376  0.0723 -0.0296  0.4629
   48MOL0     C 6257   4.558   3.246   4.494 -0.5115 -0.7799 -0.3372
   48MOL0     C 6258   4.436   3.357   4.903  0.3951 -0.9317  0.0120
   48MOL0     C 6259   4.337   3.455   4.920 -0.2933 -0.3701 -0.1845
   48MOL0     C 6260   4.342   3.549   5.025 -0.1928  0.1481 -0.1785
   48MOL0     C 6261   4.450   3.549   5.117  0.4395 -0.1347  0.5065
   48MOL0     O 6262   4.439   3.643   5.216  0.4023  0.3000  0.0813
   48MOL0     C 6263   4.547   3.643   5.316  1.2113 -0.3637  1.2193
   48MOL0     C 6264   4.505   3.752   5.410 -1.2609  0.1293  0.1965
   48MOL0     C 6265   4.409   3.709   5.522  1.0866  0.1462  0.4228
   48MOL0     C 6266   4.393   3.802   5.646  1.1195  0.7909  0.6188
   48MOL0     C 6267   4.329   3.920   5.583 -0.3984  0.0947 -0.1883
   48MOL0     C 6268   4.276   4.025   5.555  0.6829  0.2743  0.4333
   48MOL0     C 6269   4.552   3.447   5.095 -0.4113 -0.3777  0.1506
   48MOL0     C 6270   4.543   3.357   4.989  1.1701 -0.6937  0.0413
   48MOL0     H 6271   4.660   3.010   4.702  1.0762 -0.2788 -1.0982
   48MOL0     H 6272   4.700   2.896   4.475 -1.9337 -1.0726  0.3167
   48MOL0     H 6273   4.706   2.827   4.262  1.7855 -0.5819  0.1936
   48MOL0     H 6274   4.852   2.923   4.266 -0.1215 -1.8404  0.8504
   48MOL0     H 6275   4.707   2.826   4.017  0.3305 -0.0371  0.6720
   48MOL0     H 6276   4.855   2.795   4.099  1.2536  1.4901  0.5240
   48MOL0     H 6277   4.913   3.054   4.018  0.3475  0.7755 -0.6226
   48MOL0     H 6278   4.746   3.052   3.956 -0.2644  0.2551  2.3920
   48MOL0     H 6279   4.800   2.869   3.807  3.8630 -4.5063  1.3297
   48MOL0     H 6280   4.888   3.030   3.771  0.1399  0.7870 -0.5944
   48MOL0     H 6281   4.996   2.823   3.731 -2.8555  2.5336 -0.3625
   48MOL0     H 6282   5.004   2.767   3.895  0.7596  0.1683  0.3000
   48MOL0     H 6283   5.153   2.985   3.931  1.7373  0.8702 -0.9491
   48MOL0     H 6284   5.143   2.998   3.759 -2.5926  0.0079 -0.0741
   48MOL0     H 6285   5.249   2.748   3.742  1.1871  0.0244 -0.7200
   48MOL0     H 6286   5.355   2.861   3.826  0.0931 -0.2995  0.3472
   48MOL0     H 6287   5.189   2.664   3.980 -1.1523  2.7127  0.8873
   48MOL0     H 6288   5.308   2.786   4.039  2.8057  1.1477 -1.4743
   48MOL0     H 6289   5.567   2.755   3.891 -2.2306  0.4168 -0.0641
   48MOL0     H 6290   5.760   2.480   4.001  0.6637  2.8198  1.6213
   48MOL0     H 6291   5.783   2.605   3.886  0.0447 -0.6712  0.5303
   48MOL0     H 6292   5.703   2.429   3.712 -1.6088  3.1869  1.9810
   48MOL0     H 6293   5.704   2.306   3.837 -2.7365 -0.3096 -2.6106
   48MOL0     H 6294   5.919   2.324   3.679 -2.1889  0.8228 -1.1718
   48MOL0     H 6295   5.954   2.467   3.740 -0.6677 -0.7134  0.3482
   48MOL0     H 6296   5.943   2.366   3.979  0.9217 -0.1021 -0.1104
   48MOL0     H 6297   6.083   2.343   3.883 -0.3198  4.6818 -0.1701
   48MOL0     H 6298   5.762   2.254   4.057 -0.6848 -1.6662  1.1943
   48MOL0     H 6299   5.679   2.105   4.249  1.9764  2.0914  2.0413
   48MOL0     H 6300   5.519   2.045   4.553  2.4423 -1.0857 -0.3645
   48MOL0     H 6301   5.393   1.949   4.769  0.1145 -1.8780  1.0804
   48MOL0     H 6302   5.469   1.505   4.842  1.1328  1.3812 -0.8644
   48MOL0     H 6303   5.288   1.511   4.814  0.3798 -0.6005  1.7869
   48MOL0     H 6304   5.336   1.450   5.026 -1.4852  0.0319  2.6735
   48MOL0     H 6305   5.239   1.598   5.027  1.1566  0.7360  0.2795
   48MOL0     H 6306   5.433   1.734   5.067 -1.0187 -0.8469 -5.6361
   48MOL0     H 6307   5.548   1.596   5.071  0.3062  1.7304 -0.4334
   48MOL0     H 6308   5.335   1.644   5.268 -0.2478  2.1474 -4.4153
   48MOL0     H 6309   5.401   1.486   5.252  1.5440 -0.2591 -0.7097
   48MOL0     H 6310   5.480   1.630   5.441 -1.6915 -0.5724 -0.5992
   48MOL0     H 6311   5.533   1.758   5.351  2.8452  0.0450  0.5493
   48MOL0     H 6312   5.720   1.598   5.253 -0.2012 -2.3701 -1.7292
   48MOL0     H 6313   5.623   1.464   5.330  0.0158 -0.1963 -1.3724
   48MOL0     H 6314   5.786   1.679   5.475  0.7265  0.1122 -3.7936
   48MOL0     H 6315   5.663   1.582   5.554  1.0788 -0.9466  0.2571
   48MOL0     H 6316   5.791   1.377   5.463 -0.4864  0.0101 -0.1065
   48MOL0     H 6317   5.871   1.475   5.583  0.0464  1.8321 -0.6417
   48MOL0     H 6318   5.504   1.565   4.620 -2.4136 -0.4573  4.6147
   48MOL0     H 6319   5.616   1.646   4.437 -1.9865 -1.8867 -0.2898
   48MOL0     H 6320   5.971   1.817   4.169  0.3406 -0.2102 -0.7643
   48MOL0     H 6321   6.042   1.941   3.960  1.3723  1.4686  0.9942
   48MOL0     H 6322   4.557   3.241   4.281 -0.1471 -2.7758 -0.9700
   48MOL0     H 6323   4.503   3.339   4.489  0.7793  0.0854  0.7160
   48MOL0     H 6324   4.247   3.456   4.859 -0.0946  2.9760 -0.5993
   48MOL0     H 6325   4.260   3.617   5.042 -0.7089 -0.5284  0.0788
   48MOL0     H 6326   4.644   3.663   5.269 -0.2755 -3.9019 -4.2949
   48MOL0     H 6327   4.560   3.547   5.366  0.8520 -1.5838 -0.9067
   48MOL0     H 6328   4.594   3.792   5.460 -1.1916 -1.8258  1.7912
   48MOL0     H 6329   4.466   3.836   5.352 -0.9971  0.3103  0.2776
   48MOL0     H 6330   4.450   3.625   5.578 -0.9915 -1.1891  0.0642
   48MOL0     H 6331   4.323   3.670   5.467  2.5641  0.5903 -2.3781
   48MOL0     H 6332   4.320   3.762   5.718  1.1978  1.7831  1.2727
   48MOL0     H 6333   4.485   3.823   5.701  2.1836 -0.3671 -0.6635
   48MOL0     H 6334   4.209   4.108   5.542  1.0240  0.7693  1.7111
   48MOL0     H 6335   4.641   3.459   5.156 -0.8300  2.8248  0.3156
   48MOL0     H 6336   4.621   3.283   4.977  0.6569 -1.3790  0.8251
   49MOL0     O 6337   4.528   5.717   1.309 -0.1058  0.5463 -0.0164
   49MOL0     C 6338   4.631   5.784   1.328  0.2009 -0.0309  0.4784
   49MOL0     O 6339   4.718   5.811   1.231  0.6361 -0.2786  0.2624
   49MOL0     C 6340   4.708   5.735   1.123  0.0584  0.1281  0.3674
   49MOL0     C 6341   4.618   5.778   1.018  0.0290 -0.4311  0.4542
   49MOL0     C 6342   4.604   5.691   0.912  0.1032 -0.9954  0.2544
   49MOL0     C 6343   4.675   5.564   0.905 -0.1616  0.4343  0.7232
   49MOL0     O 6344   4.653   5.461   0.809  0.2280  0.0531  0.8710
   49MOL0     C 6345   4.582   5.495   0.697  0.8243  0.2227  0.9537
   49MOL0     C 6346   4.577   5.365   0.615  0.3586  0.5595  0.9974
   49MOL0     C 6347   4.521   5.374   0.474 -0.2864 -0.2096  0.1994
   49MOL0     C 6348   4.383   5.446   0.457  0.1641 -0.0356  1.2503
   49MOL0     C 6349   4.333   5.440   0.311  0.6113 -0.5225  1.1246
   49MOL0     C 6350   4.188   5.488   0.316  1.3654 -0.1676  1.3707
   49MOL0     C 6351   4.129   5.468   0.172  0.6484 -0.6341 -0.3221
   49MOL0     C 6352   3.998   5.548   0.139  0.4356 -0.1934 -1.4065
   49MOL0     N 6353   3.907   5.546   0.253 -0.6232  0.5742  0.2604
   49MOL0     C 6354   3.859   5.433   0.312  1.5365 -0.2551  0.6834
   49MOL0     C 6355   3.811   5.475   0.422  0.7869  0.1824 -0.5580
   49MOL0     C 6356   3.744   5.397   0.528 -0.4325  0.2507  0.6334
   49MOL0     C 6357   3.588   5.408   0.537  0.0196  0.4917 -0.0068
   49MOL0     C 6358   3.527   5.337   0.648  0.8538 -0.1450  0.0591
   49MOL0     C 6359   3.375   5.345   0.626  0.2872  0.5164 -0.6095
   49MOL0     O 6360   3.318   5.263   0.734 -0.3044  0.6168 -0.2642
   49MOL0     C 6361   3.193   5.289   0.779  0.6018  0.5985 -1.1177
   49MOL0     C 6362   3.087   5.330   0.708 -0.7040 -0.5979  0.0790
   49MOL0     C 6363   2.962   5.356   0.765 -0.3199  0.0192  0.6818
   49MOL0     C 6364   2.936   5.322   0.897 -0.2234 -0.9568 -0.1566
   49MOL0     C 6365   2.802   5.326   0.954  0.6892 -0.2387  0.2205
   49MOL0     O 6366   2.704   5.385   0.876 -0.0185  0.0333  0.1106
   49MOL0     C 6367   2.584   5.417   0.919  0.5207  0.5760  0.0264
   49MOL0     C 6368   2.523   5.525   0.853  0.3296 -0.4057  0.5313
   49MOL0     C 6369   2.390   5.565   0.890  0.0021  1.0734  0.4030
   49MOL0     C 6370   2.320   5.484   0.982  0.5202 -0.8337 -1.2124
   49MOL0     O 6371   2.198   5.524   1.011  1.2139  0.5598  0.3187
   49MOL0     C 6372   2.097   5.438   1.037  0.1172  0.4077 -1.0200
   49MOL0     C 6373   2.057   5.475   1.186 -0.7652  0.3089 -0.4101
   49MOL0     C 6374   2.003   5.611   1.216  1.0305  0.2873  0.4604
   49MOL0     C 6375   1.880   5.652   1.136  0.0429 -0.1053 -0.1404
   49MOL0     C 6376   1.818   5.773   1.199  0.3156 -0.4999 -0.0575
   49MOL0     C 6377   1.749   5.859   1.087  1.1361  0.4034 -0.8136
   49MOL0     C 6378   1.716   5.995   1.146  0.2283  0.4273  0.4376
   49MOL0     C 6379   1.639   6.081   1.039  0.0639 -0.2810 -0.0365
   49MOL0    Cl 6380   1.472   6.015   1.014  0.1782 -0.4229 -0.5470
   49MOL0     C 6381   2.376   5.375   1.045 -0.3604 -0.9821  0.6977
   49MOL0     C 6382   2.508   5.340   1.012 -0.4005  0.1896 -0.2032
   49MOL0     O 6383   2.786   5.284   1.075  0.8778 -0.2309 -0.0646
   49MOL0     C 6384   3.044   5.266   0.971  0.8347  0.2605  0.0245
   49MOL0     C 6385   3.174   5.250   0.910 -0.4283 -0.4151 -0.6675
   49MOL0     N 6386   3.808   5.615   0.429  0.0645  0.0106  0.4178
   49MOL0     N 6387   3.865   5.654   0.319  0.2851 -0.5971 -0.6122
   49MOL0     C 6388   4.778   5.537   0.994  0.5777  0.3088  0.8501
   49MOL0     C 6389   4.786   5.621   1.107  0.1804 -0.1928 -0.7640
   49MOL0     C 6390   4.658   5.836   1.464  0.2900  0.4422 -0.4102
   49MOL0     C 6391   4.785   5.896   1.503  0.1893 -0.0346  0.0085
   49MOL0     C 6392   4.805   5.951   1.625 -0.1205 -0.0463  0.5644
   49MOL0     C 6393   4.706   5.950   1.726  0.0108 -0.4971 -0.0284
   49MOL0     O 6394   4.749   6.029   1.831  0.7245  0.0770 -0.6847
   49MOL0     C 6395   4.652   6.057   1.934  0.5781  0.5708 -0.5698
   49MOL0     C 6396   4.573   6.172   1.882  0.5612 -0.0148 -0.8076
   49MOL0     C 6397   4.645   6.301   1.881  0.2276 -0.5418  0.0379
   49MOL0     C 6398   4.684   6.353   2.016 -0.2592 -0.4837 -0.2775
   49MOL0     C 6399   4.697   6.493   2.014  1.1020 -0.6299  0.2907
   49MOL0     C 6400   4.745   6.612   1.993 -0.0774  1.3409  0.0392
   49MOL0     C 6401   4.583   5.875   1.699  0.3275 -0.6957  0.9671
   49MOL0     C 6402   4.566   5.822   1.566 -0.0608 -0.3004 -0.1810
   49MOL0     H 6403   4.547   5.858   1.035 -1.0532 -1.5466  1.3030
   49MOL0     H 6404   4.533   5.730   0.840  2.0449  4.8073  0.9580
   49MOL0     H 6405   4.634   5.571   0.639  0.6622  0.5777  1.2688
   49MOL0     H 6406   4.475   5.518   0.705  0.0726 -2.6100  0.2370
   49MOL0     H 6407   4.512   5.295   0.668  0.1443  2.0448  2.8442
   49MOL0     H 6408   4.676   5.322   0.596 -0.4718  0.0137 -2.9234
   49MOL0     H 6409   4.501   5.278   0.425 -1.8997  0.7729 -1.1809
   49MOL0     H 6410   4.594   5.424   0.408  0.8473  1.1980  2.4093
   49MOL0     H 6411   4.322   5.380   0.521 -1.4405 -0.7437 -0.9001
   49MOL0     H 6412   4.385   5.543   0.509 -0.1998 -1.6608  4.5566
   49MOL0     H 6413   4.336   5.339   0.269 -1.2231 -1.3686  2.8675
   49MOL0     H 6414   4.397   5.515   0.263  1.8847 -1.0879  1.8848
   49MOL0     H 6415   4.167   5.589   0.351 -0.7981 -0.2643  0.4959
   49MOL0     H 6416   4.127   5.426   0.382  1.4462  0.2223  1.8183
   49MOL0     H 6417   4.213   5.484   0.104  2.3956 -4.6474  0.6023
   49MOL0     H 6418   4.106   5.362   0.156 -1.3547 -0.2453 -0.3422
   49MOL0     H 6419   3.947   5.503   0.054  1.1850 -3.3961 -0.3231
   49MOL0     H 6420   4.020   5.649   0.105 -1.5251  1.0276  0.6875
   49MOL0     H 6421   3.862   5.333   0.269 -2.4487 -0.5628  0.7511
   49MOL0     H 6422   3.793   5.427   0.621  1.7821 -1.4038  0.0966
   49MOL0     H 6423   3.763   5.290   0.512 -0.5188  0.6433 -2.9893
   49MOL0     H 6424   3.540   5.373   0.445 -5.5333 -0.7489  2.9486
   49MOL0     H 6425   3.562   5.513   0.556  2.0396  0.8131  1.3476
   49MOL0     H 6426   3.562   5.233   0.643  2.2256  0.2247  1.1498
   49MOL0     H 6427   3.555   5.384   0.743 -0.7682 -0.1742  0.5686
   49MOL0     H 6428   3.348   5.305   0.528  0.4779 -1.0782 -0.0329
   49MOL0     H 6429   3.335   5.447   0.623  1.6607  1.0577 -2.2498
   49MOL0     H 6430   3.113   5.352   0.604  2.2938  1.1504  1.0763
   49MOL0     H 6431   2.877   5.401   0.715 -0.7638 -0.7978  0.6852
   49MOL0     H 6432   2.594   5.578   0.789  0.3223 -0.1820  0.7077
   49MOL0     H 6433   2.330   5.643   0.845 -2.5406 -1.7540 -1.5423
   49MOL0     H 6434   2.118   5.330   1.037 -3.2717 -0.4390  1.8011
   49MOL0     H 6435   2.013   5.457   0.970 -0.7712  0.3706  0.0469
   49MOL0     H 6436   2.149   5.455   1.242 -0.5750  1.1012 -0.4308
   49MOL0     H 6437   1.982   5.406   1.225  0.1050  2.0255  5.1718
   49MOL0     H 6438   2.085   5.674   1.180  0.9381  0.1261 -0.0371
   49MOL0     H 6439   1.980   5.628   1.322 -0.8106  2.1226 -0.1810
   49MOL0     H 6440   1.904   5.670   1.031 -2.0602 -1.1068 -0.8422
   49MOL0     H 6441   1.817   5.562   1.132  1.0085 -0.7964 -0.1234
   49MOL0     H 6442   1.891   5.830   1.256  1.4733 -1.2695 -0.7181
   49MOL0     H 6443   1.744   5.736   1.271  1.5001  1.3918  2.2436
   49MOL0     H 6444   1.659   5.805   1.058  0.9286 -1.2429  2.5251
   49MOL0     H 6445   1.804   5.877   0.994 -0.1825  2.0284 -1.3290
   49MOL0     H 6446   1.668   5.974   1.242 -3.9213 -0.5021 -1.6049
   49MOL0     H 6447   1.808   6.053   1.163  1.4453 -1.0077 -0.9221
   49MOL0     H 6448   1.688   6.067   0.942 -0.1188  1.6179 -0.4329
   49MOL0     H 6449   1.632   6.188   1.057 -1.0629 -0.5441  1.2029
   49MOL0     H 6450   2.310   5.324   1.115 -0.0589  0.4943  2.1299
   49MOL0     H 6451   2.565   5.255   1.050  1.4557  2.9783  4.1040
   49MOL0     H 6452   3.030   5.221   1.069  0.5627 -1.2024 -0.6508
   49MOL0     H 6453   3.257   5.209   0.967 -0.3068 -1.8867 -1.8339
   49MOL0     H 6454   4.833   5.445   0.979  2.8693  1.8147 -0.6593
   49MOL0     H 6455   4.866   5.594   1.175  1.5126  1.3961 -1.6105
   49MOL0     H 6456   4.872   5.899   1.438  0.8996  0.8718  0.9595
   49MOL0     H 6457   4.899   6.006   1.621  0.3123 -0.5400 -5.5701
   49MOL0     H 6458   4.709   6.077   2.026  0.6610 -0.0868 -0.4688
   49MOL0     H 6459   4.589   5.970   1.958  0.0504  2.0483  4.7563
   49MOL0     H 6460   4.541   6.143   1.781 -0.9679 -1.2273 -0.0207
   49MOL0     H 6461   4.481   6.185   1.940 -0.3053 -2.2410 -1.5661
   49MOL0     H 6462   4.573   6.375   1.844  1.6045 -0.3489 -2.4391
   49MOL0     H 6463   4.737   6.304   1.822  1.7843  0.2432  2.4090
   49MOL0     H 6464   4.619   6.325   2.099 -0.4470  0.0651 -0.2350
   49MOL0     H 6465   4.781   6.305   2.032  0.9759  0.4097 -4.0823
   49MOL0     H 6466   4.784   6.710   1.974  0.7498  1.2436  1.1144
   49MOL0     H 6467   4.498   5.864   1.766 -1.4890 -0.2375 -1.1668
   49MOL0     H 6468   4.475   5.766   1.544 -1.3057  1.2011  0.9098
   50MOL0     O 6469   0.758   0.947   5.095  0.3212  0.2659  1.2698
   50MOL0     C 6470   0.825   1.015   5.022 -0.0500 -1.0376 -0.2330
   50MOL0     O 6471   0.823   1.013   4.888  0.0920 -0.7186  0.2647
   50MOL0     C 6472   0.757   0.921   4.806  0.0747  0.1335 -0.1794
   50MOL0     C 6473   0.737   0.957   4.680 -0.6899 -0.3743  0.3827
   50MOL0     C 6474   0.670   0.879   4.583 -0.2861  0.2692 -0.7363
   50MOL0     C 6475   0.623   0.753   4.628 -0.1222  0.0402 -0.1339
   50MOL0     O 6476   0.539   0.692   4.535  0.2614 -0.2184 -0.6367
   50MOL0     C 6477   0.607   0.614   4.435  0.3840 -0.6395 -0.0600
   50MOL0     C 6478   0.494   0.542   4.350 -1.1498  0.1224  0.5463
   50MOL0     C 6479   0.425   0.647   4.261  0.3305 -0.7188  0.9188
   50MOL0     C 6480   0.503   0.673   4.134 -0.9458  0.2005  0.5656
   50MOL0     C 6481   0.426   0.737   4.012 -0.2556 -0.0570  0.6240
   50MOL0     C 6482   0.377   0.885   4.040 -0.5398  0.2534 -0.0516
   50MOL0     C 6483   0.480   0.993   4.009  0.0478 -1.1613  0.3573
   50MOL0     C 6484   0.435   1.135   4.038 -0.6709  0.1428 -0.0909
   50MOL0     N 6485   0.337   1.199   3.951  1.3833  0.5511 -0.2342
   50MOL0     C 6486   0.362   1.266   3.837  0.5775 -0.1918  0.0461
   50MOL0     C 6487   0.245   1.328   3.802  0.8270  0.3624  0.1812
   50MOL0     C 6488   0.227   1.417   3.693 -0.4864  0.0931 -0.1020
   50MOL0     C 6489   0.132   1.535   3.710 -0.1069 -0.9062  1.2886
   50MOL0     C 6490   0.113   1.609   3.565  0.0754  0.4023  0.6993
   50MOL0     C 6491   0.033   1.736   3.583 -1.1270  0.7366 -0.5980
   50MOL0     O 6492   0.087   1.824   3.683 -0.0103  0.6407 -0.4604
   50MOL0     C 6493  -0.008   1.909   3.730  0.1398 -0.0143 -0.1154
   50MOL0     C 6494  -0.133   1.871   3.776  0.0142 -0.0468  0.0236
   50MOL0     C 6495  -0.239   1.953   3.813 -0.0815 -0.6023 -0.1526
   50MOL0     C 6496  -0.209   2.090   3.818  0.6552  1.0844  0.2037
   50MOL0     C 6497  -0.297   2.184   3.867 -0.4059  0.3615 -0.1181
   50MOL0     O 6498  -0.396   2.131   3.940  0.2139 -0.4954  0.3297
   50MOL0     C 6499  -0.498   2.216   3.981  0.8646 -0.2129 -0.9298
   50MOL0     C 6500  -0.596   2.273   3.898  0.1295 -0.0294  0.8631
   50MOL0     C 6501  -0.701   2.350   3.947  0.2250  0.3426 -0.7739
   50MOL0     C 6502  -0.709   2.381   4.081 -0.1445 -0.5963 -0.1037
   50MOL0     O 6503  -0.819   2.455   4.114  0.2917 -1.0065 -0.0691
   50MOL0     C 6504  -0.833   2.486   4.257  0.3055  0.1459  0.6420
   50MOL0     C 6505  -0.931   2.607   4.276 -0.0669  1.3268  0.4119
   50MOL0     C 6506  -0.936   2.685   4.406 -0.1496 -0.0981  0.3811
   50MOL0     C 6507  -1.073   2.761   4.431  0.1983 -0.6707  0.0658
   50MOL0     C 6508  -1.065   2.839   4.560  0.5300  0.2807 -0.0645
   50MOL0     C 6509  -1.198   2.887   4.611  1.2787  0.4769 -0.1864
   50MOL0     C 6510  -1.180   2.924   4.764  0.0898 -0.6567  0.2511
   50MOL0     C 6511  -1.302   2.957   4.838  0.3493 -0.2485  0.3106
   50MOL0    Cl 6512  -1.420   2.825   4.828 -0.2394 -0.2142  0.1315
   50MOL0     C 6513  -0.609   2.325   4.166  0.9116  0.4331  0.4143
   50MOL0     C 6514  -0.518   2.239   4.121 -0.3999  0.0864  0.2645
   50MOL0     O 6515  -0.263   2.302   3.869 -0.4528  0.8827 -0.0348
   50MOL0     C 6516  -0.081   2.135   3.773  0.8502 -0.4028 -0.5193
   50MOL0     C 6517   0.012   2.044   3.736 -0.2856  0.1810  1.5154
   50MOL0     N 6518   0.151   1.293   3.895 -0.4112 -0.5168  0.0744
   50MOL0     N 6519   0.204   1.209   3.981 -0.2283 -1.3473  0.4300
   50MOL0     C 6520   0.637   0.719   4.759  0.1733 -0.1247  0.2694
   50MOL0     C 6521   0.707   0.804   4.849  1.2428 -0.3515 -0.2288
   50MOL0     C 6522   0.896   1.131   5.082  0.8763 -0.7629  0.0121
   50MOL0     C 6523   0.959   1.224   4.992 -0.0794  0.1661 -0.0125
   50MOL0     C 6524   1.022   1.342   5.042  0.8017  0.4962  1.0957
   50MOL0     C 6525   1.022   1.362   5.177  0.7236 -0.0002  0.4819
   50MOL0     O 6526   1.077   1.477   5.229 -0.0857  0.2638 -0.1815
   50MOL0     C 6527   1.199   1.530   5.164 -0.3721 -0.6323 -0.0918
   50MOL0     C 6528   1.295   1.553   5.279 -0.2381 -1.1018  0.0866
   50MOL0     C 6529   1.336   1.425   5.344  0.1381 -0.1605 -0.3892
   50MOL0     C 6530   1.466   1.436   5.410 -0.0594  0.9540 -0.2560
   50MOL0     C 6531   1.538   1.311   5.415 -0.2139 -0.1734 -0.1261
   50MOL0     C 6532   1.591   1.209   5.449 -0.4082  0.9023  0.7479
   50MOL0     C 6533   0.948   1.281   5.259 -0.4666  0.3223 -0.9822
   50MOL0     C 6534   0.886   1.161   5.216 -1.0913  1.0899  0.3356
   50MOL0     H 6535   0.769   1.053   4.641  0.2623 -0.4631  0.9357
   50MOL0     H 6536   0.649   0.912   4.482  1.0526 -2.9363 -2.1853
   50MOL0     H 6537   0.675   0.552   4.493  1.6137  1.0005  0.3056
   50MOL0     H 6538   0.658   0.686   4.370 -1.1821  1.3209  0.7732
   50MOL0     H 6539   0.426   0.490   4.418 -1.6966 -1.7470 -1.3461
   50MOL0     H 6540   0.538   0.465   4.286 -0.4919  0.0914  1.0210
   50MOL0     H 6541   0.417   0.741   4.316  2.0965 -0.8262  1.4119
   50MOL0     H 6542   0.329   0.604   4.229  0.7373 -0.1891 -1.1481
   50MOL0     H 6543   0.591   0.735   4.152  1.2481 -3.0827  2.0019
   50MOL0     H 6544   0.545   0.578   4.101  0.3385  0.3852  1.5619
   50MOL0     H 6545   0.339   0.675   3.989 -0.4531  0.7279 -0.8961
   50MOL0     H 6546   0.491   0.745   3.924  1.4748  1.6206  1.9614
   50MOL0     H 6547   0.356   0.902   4.146  1.7707 -2.5654  0.9932
   50MOL0     H 6548   0.288   0.899   3.979 -1.0849  2.0729  1.0772
   50MOL0     H 6549   0.572   0.967   4.062 -0.1948 -1.5413  0.6011
   50MOL0     H 6550   0.500   0.987   3.902 -2.3013 -0.5052 -0.1703
   50MOL0     H 6551   0.527   1.193   4.039  1.0403 -2.3171 -1.4199
   50MOL0     H 6552   0.389   1.130   4.137 -3.6905 -1.6233 -1.4294
   50MOL0     H 6553   0.455   1.263   3.782 -0.7972 -0.6018 -2.4284
   50MOL0     H 6554   0.175   1.354   3.620 -1.7638  0.5651  0.3835
   50MOL0     H 6555   0.327   1.456   3.669 -0.5917  0.9955  0.8370
   50MOL0     H 6556   0.187   1.601   3.778 -1.8660  1.7308  0.3077
   50MOL0     H 6557   0.043   1.513   3.770 -2.9930 -1.0642 -2.6554
   50MOL0     H 6558   0.209   1.628   3.516 -1.3089 -0.5043 -2.6404
   50MOL0     H 6559   0.056   1.544   3.498 -1.7677  1.9534  0.6644
   50MOL0     H 6560  -0.062   1.696   3.621 -0.5234 -0.2954 -0.1350
   50MOL0     H 6561   0.017   1.793   3.492 -3.4044  1.6766  0.2975
   50MOL0     H 6562  -0.156   1.766   3.788 -2.7375  0.6289  1.3384
   50MOL0     H 6563  -0.329   1.898   3.840  0.5201 -1.9251 -0.7563
   50MOL0     H 6564  -0.591   2.252   3.792  1.6792 -1.9433  1.2472
   50MOL0     H 6565  -0.777   2.373   3.873 -1.3739  0.0270  0.6937
   50MOL0     H 6566  -0.737   2.529   4.289 -0.0461  0.2394  1.6041
   50MOL0     H 6567  -0.874   2.405   4.318 -1.6063 -0.2167 -1.0191
   50MOL0     H 6568  -1.030   2.564   4.258 -0.6099  2.8666 -0.5152
   50MOL0     H 6569  -0.903   2.683   4.202  3.3619  1.8210  2.0108
   50MOL0     H 6570  -0.859   2.762   4.405 -0.3884  0.2487  2.5215
   50MOL0     H 6571  -0.916   2.618   4.491  1.3520 -0.1607 -0.0099
   50MOL0     H 6572  -1.102   2.821   4.344  2.7670 -1.2204 -1.2698
   50MOL0     H 6573  -1.146   2.680   4.435 -2.2423  1.3357 -0.8544
   50MOL0     H 6574  -1.002   2.928   4.556 -0.2697  1.0887  2.6703
   50MOL0     H 6575  -1.022   2.775   4.638  1.9426  0.7333 -0.4448
   50MOL0     H 6576  -1.278   2.814   4.597  1.7914 -0.8836  3.0756
   50MOL0     H 6577  -1.232   2.970   4.549  1.5103  0.7965  0.1065
   50MOL0     H 6578  -1.120   2.857   4.826 -1.0322  0.0475  2.2061
   50MOL0     H 6579  -1.121   3.017   4.764 -0.1141 -0.5239  0.5657
   50MOL0     H 6580  -1.340   3.050   4.796 -0.2288 -0.3177  0.6629
   50MOL0     H 6581  -1.278   2.976   4.943  0.5281 -3.2602  0.9050
   50MOL0     H 6582  -0.613   2.353   4.271  2.7092  1.5902  0.2269
   50MOL0     H 6583  -0.450   2.196   4.194 -1.0225 -1.8535 -0.2253
   50MOL0     H 6584  -0.059   2.239   3.751 -3.0179  0.4792 -0.9226
   50MOL0     H 6585   0.105   2.087   3.700 -1.3356  1.8732  0.6662
   50MOL0     H 6586   0.590   0.625   4.789  1.7774 -1.4568 -1.1546
   50MOL0     H 6587   0.710   0.769   4.951  1.2549  0.6564  0.1216
   50MOL0     H 6588   0.965   1.213   4.884  2.1116  1.8231 -0.1227
   50MOL0     H 6589   1.067   1.408   4.968  0.4035  0.3976  0.7647
   50MOL0     H 6590   1.169   1.627   5.125  2.5752 -1.0940 -4.2263
   50MOL0     H 6591   1.242   1.476   5.079 -0.0173 -0.4217 -0.0490
   50MOL0     H 6592   1.385   1.600   5.239 -0.8941 -1.9859 -2.6111
   50MOL0     H 6593   1.232   1.613   5.346  0.8078 -0.0870  0.1863
   50MOL0     H 6594   1.346   1.356   5.260 -0.6342  1.0876 -1.5558
   50MOL0     H 6595   1.257   1.401   5.416  0.4184  2.8092  1.0827
   50MOL0     H 6596   1.529   1.504   5.352 -0.4073  1.4318 -0.0834
   50MOL0     H 6597   1.463   1.481   5.510  0.0895 -2.7404  1.5888
   50MOL0     H 6598   1.627   1.111   5.475  0.0876  0.8226 -0.1828
   50MOL0     H 6599   0.959   1.307   5.363  2.1064  3.7303 -1.9085
   50MOL0     H 6600   0.848   1.092   5.291  2.7416 -0.6951  0.9131
   51MOL0     O 6601   0.442  10.700   1.843  0.4980 -0.4708 -0.3733
   51MOL0     C 6602   0.452  10.787   1.760  0.0839 -0.3635 -0.4235
   51MOL0     O 6603   0.535  10.787   1.650  0.9385  0.7117  0.4891
   51MOL0     C 6604   0.614  10.684   1.613  0.0622  0.2004 -0.8851
   51MOL0     C 6605   0.748  10.711   1.576  0.4447 -0.0126 -0.0498
   51MOL0     C 6606   0.829  10.616   1.519  1.4484  0.2462 -1.0430
   51MOL0     C 6607   0.788  10.476   1.515 -0.6341  0.8909  0.4288
   51MOL0     O 6608   0.875  10.366   1.482 -0.4985 -0.2894 -0.1001
   51MOL0     C 6609   0.979  10.400   1.384  0.2310  1.0961  0.0879
   51MOL0     C 6610   1.006  10.281   1.298  0.1659  0.4222  0.8809
   51MOL0     C 6611   1.044  10.153   1.378 -0.5608  0.6229 -0.4977
   51MOL0     C 6612   1.103  10.035   1.302 -0.0799 -0.3106 -0.6507
   51MOL0     C 6613   1.156   9.916   1.390 -0.0987 -0.6279  0.1448
   51MOL0     C 6614   1.163   9.793   1.304 -0.5906  0.0064 -0.2440
   51MOL0     C 6615   1.238   9.815   1.171 -0.1303  0.5903 -0.5299
   51MOL0     C 6616   1.225   9.697   1.079  0.9548 -0.2933  0.2938
   51MOL0     N 6617   1.302   9.573   1.122  0.0872 -0.7811  0.0154
   51MOL0     C 6618   1.432   9.566   1.150  0.3549  0.2973 -0.6626
   51MOL0     C 6619   1.439   9.448   1.207  0.2155  0.4694 -0.0946
   51MOL0     C 6620   1.562   9.376   1.260  0.4395 -0.2821  0.4714
   51MOL0     C 6621   1.652   9.339   1.137  0.3919 -1.5999 -0.5656
   51MOL0     C 6622   1.789   9.304   1.197 -0.0420  0.6306 -0.1232
   51MOL0     C 6623   1.894   9.262   1.092 -0.0966  0.4783 -0.9610
   51MOL0     O 6624   1.847   9.130   1.046  0.2575  0.7736 -0.1086
   51MOL0     C 6625   1.935   9.035   1.075 -1.6769 -0.3633 -0.0356
   51MOL0     C 6626   2.056   9.014   0.997  1.0197  0.1375 -0.2736
   51MOL0     C 6627   2.142   8.905   1.016  0.1667  0.8698  0.7563
   51MOL0     C 6628   2.089   8.799   1.096  0.2009 -0.9391  0.3489
   51MOL0     C 6629   2.173   8.678   1.117 -0.7186 -0.2307  0.1860
   51MOL0     O 6630   2.120   8.577   1.197 -0.3739 -0.5664  0.8766
   51MOL0     C 6631   2.178   8.453   1.213 -0.3489 -0.9994  0.7246
   51MOL0     C 6632   2.148   8.387   1.328 -0.2728 -0.5243  0.0495
   51MOL0     C 6633   2.197   8.261   1.371  0.5482 -0.0058  0.4145
   51MOL0     C 6634   2.271   8.191   1.267 -0.2569 -0.5260  0.2738
   51MOL0     O 6635   2.333   8.066   1.286  0.4954 -0.3600  0.0112
   51MOL0     C 6636   2.367   8.028   1.416  0.8095 -0.1590 -0.3057
   51MOL0     C 6637   2.478   7.921   1.404  1.2629 -0.0092 -1.1123
   51MOL0     C 6638   2.419   7.785   1.361  0.0249  0.6876  0.4440
   51MOL0     C 6639   2.522   7.681   1.360 -0.0108  0.5166  0.1919
   51MOL0     C 6640   2.594   7.658   1.493 -0.2159  0.4232  0.7740
   51MOL0     C 6641   2.681   7.534   1.489 -0.9429  0.2146  0.3271
   51MOL0     C 6642   2.749   7.489   1.621  0.8060  0.2183  0.8064
   51MOL0     C 6643   2.892   7.546   1.646 -0.0384  0.0129 -0.4996
   51MOL0    Cl 6644   2.874   7.726   1.654  0.2927  0.1269 -0.0086
   51MOL0     C 6645   2.296   8.256   1.149 -0.4757 -0.4253 -0.2723
   51MOL0     C 6646   2.251   8.381   1.116  0.2655  0.0110  1.1328
   51MOL0     O 6647   2.258   8.661   1.032  0.4347  0.2268  0.2129
   51MOL0     C 6648   1.975   8.817   1.174 -0.2023 -0.3009 -0.4548
   51MOL0     C 6649   1.896   8.933   1.166 -0.2178 -0.4803 -0.5437
   51MOL0     N 6650   1.317   9.380   1.200  0.7599 -1.0036  0.2053
   51MOL0     N 6651   1.233   9.457   1.144 -0.1006 -0.1891  0.0619
   51MOL0     C 6652   0.661  10.450   1.560  1.5107 -0.3163 -0.0554
   51MOL0     C 6653   0.569  10.549   1.600 -0.1747 -0.1503  0.6149
   51MOL0     C 6654   0.363  10.908   1.765 -1.0442  0.3317 -0.2277
   51MOL0     C 6655   0.377  11.028   1.692 -0.1671  1.0338  0.4901
   51MOL0     C 6656   0.281  11.123   1.698 -0.0691 -0.4619 -0.1223
   51MOL0     C 6657   0.174  11.119   1.793 -0.4687 -0.1082  0.3558
   51MOL0     O 6658   0.112  11.238   1.816  0.2829 -0.1438  0.0125
   51MOL0     C 6659   0.009  11.246   1.920 -0.4262  1.0099 -0.0439
   51MOL0     C 6660  -0.075  11.365   1.888 -0.1109 -0.1655  0.4012
   51MOL0     C 6661  -0.175  11.318   1.787  0.7873  0.8249  0.2481
   51MOL0     C 6662  -0.257  11.440   1.732 -0.0067  0.4400  0.3893
   51MOL0     C 6663  -0.288  11.549   1.833  0.3010  0.1565 -0.4617
   51MOL0     C 6664  -0.307  11.639   1.915  0.0406  0.9071  0.7049
   51MOL0     C 6665   0.164  11.000   1.868  0.4311 -0.1585 -0.4183
   51MOL0     C 6666   0.252  10.895   1.852  0.0783 -0.0411 -0.1805
   51MOL0     H 6667   0.785  10.813   1.570 -2.1492  1.0605  0.6994
   51MOL0     H 6668   0.933  10.636   1.497  1.9128  0.6062  1.2477
   51MOL0     H 6669   1.075  10.420   1.434  0.1195 -0.7462  1.1252
   51MOL0     H 6670   0.958  10.485   1.318 -0.7220 -0.6496 -1.9830
   51MOL0     H 6671   1.082  10.307   1.225 -0.8697 -0.5123 -0.5991
   51MOL0     H 6672   0.921  10.262   1.231  0.3903 -3.7791  1.5228
   51MOL0     H 6673   0.955  10.120   1.432 -1.3265  0.4824 -1.8039
   51MOL0     H 6674   1.121  10.175   1.453  0.0018  1.4773 -1.3096
   51MOL0     H 6675   1.022   9.987   1.247 -2.5072 -0.4017  2.6544
   51MOL0     H 6676   1.170  10.088   1.235  0.6572  2.1825  1.8637
   51MOL0     H 6677   1.091   9.896   1.476  0.2129 -3.1633 -0.1364
   51MOL0     H 6678   1.257   9.942   1.421 -0.4321 -1.6571  2.2618
   51MOL0     H 6679   1.061   9.757   1.292 -1.5043  2.4289 -0.3713
   51MOL0     H 6680   1.216   9.713   1.357 -0.5557 -0.4471 -0.9566
   51MOL0     H 6681   1.217   9.910   1.121 -1.2978  1.2770  1.1862
   51MOL0     H 6682   1.344   9.819   1.196 -0.2211  0.6545 -0.1469
   51MOL0     H 6683   1.256   9.746   0.986 -3.4716  3.3341  0.3740
   51MOL0     H 6684   1.119   9.668   1.082 -0.3741  3.9906  1.6329
   51MOL0     H 6685   1.504   9.642   1.122  1.7803 -0.5956  0.4572
   51MOL0     H 6686   1.540   9.283   1.313 -0.7102 -1.1125 -1.3508
   51MOL0     H 6687   1.620   9.449   1.317 -0.4822 -0.5767  1.8415
   51MOL0     H 6688   1.656   9.421   1.064  0.5619  1.4819  2.6365
   51MOL0     H 6689   1.607   9.255   1.083 -4.2399  0.8061 -0.9067
   51MOL0     H 6690   1.823   9.402   1.233  0.8895  0.9577 -1.8085
   51MOL0     H 6691   1.770   9.245   1.287 -0.4196  1.4119  0.3190
   51MOL0     H 6692   1.996   9.266   1.132  0.1397 -0.8054 -1.4020
   51MOL0     H 6693   1.901   9.322   1.002  1.7557 -0.4481 -1.4783
   51MOL0     H 6694   2.080   9.099   0.933  0.6696  0.6223  0.2271
   51MOL0     H 6695   2.239   8.885   0.971  0.6702  0.7648  1.8299
   51MOL0     H 6696   2.082   8.433   1.400  2.4988  1.8419  1.2785
   51MOL0     H 6697   2.192   8.237   1.477 -1.5805 -1.1367  0.1165
   51MOL0     H 6698   2.277   7.991   1.466 -0.4069  2.5654 -0.3251
   51MOL0     H 6699   2.392   8.118   1.473 -1.0242  0.2173 -0.0258
   51MOL0     H 6700   2.518   7.903   1.504 -2.4606 -2.3079  0.1958
   51MOL0     H 6701   2.563   7.953   1.344  0.6925  1.0447 -1.3926
   51MOL0     H 6702   2.364   7.800   1.268  1.7859  0.3180 -0.7045
   51MOL0     H 6703   2.340   7.743   1.424 -1.5340  0.3028 -1.6821
   51MOL0     H 6704   2.475   7.592   1.318 -0.5925  0.9107 -0.0022
   51MOL0     H 6705   2.593   7.719   1.286 -0.5734 -0.0399 -0.6385
   51MOL0     H 6706   2.522   7.646   1.574  0.6939  0.0766  1.5512
   51MOL0     H 6707   2.649   7.751   1.512  0.6162  0.6498 -2.2502
   51MOL0     H 6708   2.765   7.552   1.421 -0.4675 -0.7762  0.6421
   51MOL0     H 6709   2.615   7.458   1.446 -2.8689  0.2445  2.9792
   51MOL0     H 6710   2.686   7.518   1.705  1.5709  2.0001  0.7967
   51MOL0     H 6711   2.749   7.380   1.621 -2.6368  0.0986 -0.1289
   51MOL0     H 6712   2.957   7.510   1.565  1.3650 -4.5526  2.2991
   51MOL0     H 6713   2.932   7.506   1.740  1.2314  2.2218 -0.0312
   51MOL0     H 6714   2.352   8.204   1.071  1.0913 -0.5074  0.8693
   51MOL0     H 6715   2.265   8.432   1.021 -2.9246 -3.0444 -1.2520
   51MOL0     H 6716   1.949   8.739   1.244  0.5132  0.8070  1.0986
   51MOL0     H 6717   1.811   8.965   1.225  0.8280 -0.9517  1.3001
   51MOL0     H 6718   0.625  10.349   1.544  3.5541 -1.1607  0.3483
   51MOL0     H 6719   0.467  10.518   1.623 -1.4371  1.6595 -2.0406
   51MOL0     H 6720   0.441  11.048   1.607  2.1901  0.4473  2.0237
   51MOL0     H 6721   0.282  11.200   1.622  0.4381 -0.9089 -0.5707
   51MOL0     H 6722   0.053  11.257   2.019 -1.5341  0.9216  0.4817
   51MOL0     H 6723  -0.047  11.151   1.917  1.2174  0.0232 -0.4983
   51MOL0     H 6724  -0.126  11.398   1.979 -1.1902 -0.3031 -0.1363
   51MOL0     H 6725  -0.005  11.443   1.855 -1.6488 -0.2469 -3.6796
   51MOL0     H 6726  -0.243  11.239   1.819 -0.3020  1.3157 -0.7496
   51MOL0     H 6727  -0.127  11.281   1.696 -1.8572 -1.0118 -0.5023
   51MOL0     H 6728  -0.194  11.479   1.651  0.5641 -1.3733 -0.0794
   51MOL0     H 6729  -0.356  11.408   1.701  0.2600 -1.9197  1.7634
   51MOL0     H 6730  -0.351  11.718   1.972 -0.5204  0.7967  0.4389
   51MOL0     H 6731   0.075  10.983   1.928 -0.4029  2.2247 -0.8778
   51MOL0     H 6732   0.223  10.805   1.906 -2.2415  1.3539  1.0224
   52MOL0     O 6733   3.483   6.587   8.822  0.2889  0.3817 -0.5755
   52MOL0     C 6734   3.432   6.549   8.719  0.1822  0.1017  0.2954
   52MOL0     O 6735   3.464   6.596   8.592  0.4121 -0.0348  0.1233
   52MOL0     C 6736   3.564   6.683   8.563 -0.4038 -0.2942 -0.0462
   52MOL0     C 6737   3.669   6.731   8.645 -0.2653  0.6049 -0.4624
   52MOL0     C 6738   3.742   6.843   8.610 -0.2449 -0.8778  0.1141
   52MOL0     C 6739   3.730   6.907   8.490 -0.0941  0.3478 -1.2146
   52MOL0     O 6740   3.802   7.013   8.445 -0.5644 -0.0399  0.7775
   52MOL0     C 6741   3.942   6.985   8.441 -0.1501  0.2718 -0.8026
   52MOL0     C 6742   4.036   7.086   8.371 -0.5069  0.6020  0.0270
   52MOL0     C 6743   4.067   7.215   8.454  0.0752 -0.5240 -0.5354
   52MOL0     C 6744   4.172   7.301   8.382 -0.2575 -0.0155 -1.1400
   52MOL0     C 6745   4.202   7.424   8.470  1.1947  0.5693  1.5239
   52MOL0     C 6746   4.326   7.503   8.418 -0.2934  0.2890 -0.0196
   52MOL0     C 6747   4.292   7.652   8.462 -0.3468  0.3645  0.0553
   52MOL0     C 6748   4.292   7.675   8.616  1.0654  0.3252 -0.6282
   52MOL0     N 6749   4.263   7.820   8.644 -0.7082  0.4355  0.1975
   52MOL0     C 6750   4.176   7.903   8.576 -0.2358  0.0733 -0.6372
   52MOL0     C 6751   4.177   8.019   8.633 -0.0914 -0.1603 -0.7049
   52MOL0     C 6752   4.106   8.146   8.603 -0.3106 -0.6475  0.9809
   52MOL0     C 6753   4.198   8.263   8.621  1.1041  0.0766 -0.8014
   52MOL0     C 6754   4.285   8.270   8.499 -0.3353 -0.1912  0.2388
   52MOL0     C 6755   4.394   8.364   8.538 -0.2599 -0.4315  0.1479
   52MOL0     O 6756   4.480   8.394   8.424 -0.1437 -0.4175  0.7508
   52MOL0     C 6757   4.607   8.417   8.459 -1.1853 -0.4833  0.5487
   52MOL0     C 6758   4.694   8.320   8.424  0.9275  0.4545 -0.9340
   52MOL0     C 6759   4.829   8.336   8.435 -0.1967 -0.3777  0.2401
   52MOL0     C 6760   4.876   8.462   8.475 -0.3717  1.3215  0.3778
   52MOL0     C 6761   5.029   8.475   8.475 -0.5520 -1.7335 -0.5315
   52MOL0     O 6762   5.112   8.379   8.417  0.8541  0.1266 -0.0734
   52MOL0     C 6763   5.251   8.399   8.420  0.9537  0.3089  0.8673
   52MOL0     C 6764   5.327   8.376   8.536 -0.6303 -0.2966 -0.6345
   52MOL0     C 6765   5.467   8.382   8.542  0.2333  0.1579  0.2458
   52MOL0     C 6766   5.536   8.432   8.436  1.2020 -0.4589  0.3032
   52MOL0     O 6767   5.666   8.476   8.453  0.2845 -0.6734  0.2607
   52MOL0     C 6768   5.768   8.379   8.429 -0.5775  0.2595 -0.0403
   52MOL0     C 6769   5.918   8.427   8.424 -0.1250  1.0964 -0.4921
   52MOL0     C 6770   5.938   8.553   8.336 -0.8278  0.2416  0.3675
   52MOL0     C 6771   5.874   8.538   8.201  0.2965 -0.2402  0.8995
   52MOL0     C 6772   5.933   8.624   8.091  0.3635  0.0341 -0.0727
   52MOL0     C 6773   6.077   8.599   8.073 -0.3364  0.2066 -0.4665
   52MOL0     C 6774   6.113   8.456   8.037  0.0121 -0.0226 -0.0556
   52MOL0     C 6775   6.187   8.466   7.900  0.9401  0.2352  0.6752
   52MOL0    Cl 6776   6.363   8.472   7.925  0.2090  0.4370 -0.5092
   52MOL0     C 6777   5.456   8.476   8.328 -0.7375 -1.0541  0.1142
   52MOL0     C 6778   5.316   8.452   8.308  0.0909 -0.0760  0.0857
   52MOL0     O 6779   5.077   8.574   8.539  0.7552  0.0174 -0.1161
   52MOL0     C 6780   4.786   8.557   8.526  0.0898  0.3463 -0.5480
   52MOL0     C 6781   4.647   8.540   8.513  0.5463  0.7594  0.1781
   52MOL0     N 6782   4.261   8.010   8.747  0.6050 -0.2517 -0.5328
   52MOL0     N 6783   4.308   7.892   8.751 -0.3711 -0.3555 -0.0480
   52MOL0     C 6784   3.634   6.850   8.399 -1.1265 -0.4985 -0.1448
   52MOL0     C 6785   3.553   6.745   8.434  0.6750 -0.0688  0.3851
   52MOL0     C 6786   3.343   6.433   8.723  0.1439  1.1199  0.5584
   52MOL0     C 6787   3.309   6.372   8.835  0.3035  2.2123 -0.1155
   52MOL0     C 6788   3.241   6.251   8.834 -0.0421 -0.7143  0.0256
   52MOL0     C 6789   3.208   6.184   8.715  0.7684  0.2238  0.1368
   52MOL0     O 6790   3.135   6.073   8.738  1.0288  0.3145  0.4706
   52MOL0     C 6791   3.108   5.981   8.630  0.2190 -0.0543  0.1509
   52MOL0     C 6792   3.245   5.911   8.598 -0.6688  0.8882  0.1803
   52MOL0     C 6793   3.299   5.827   8.717 -0.4664  0.3852  0.7027
   52MOL0     C 6794   3.273   5.681   8.721 -0.2805  0.3606  1.5731
   52MOL0     C 6795   3.363   5.613   8.625 -0.4133 -0.1978 -0.7213
   52MOL0     C 6796   3.435   5.557   8.552 -0.2064 -0.4600  0.2838
   52MOL0     C 6797   3.237   6.256   8.599  0.4578 -0.1212  0.5762
   52MOL0     C 6798   3.305   6.377   8.598 -0.1136  0.3500 -0.4419
   52MOL0     H 6799   3.689   6.675   8.736 -2.7643  2.0246  1.0465
   52MOL0     H 6800   3.829   6.869   8.670  0.3766 -0.6283 -0.8522
   52MOL0     H 6801   3.956   6.881   8.408 -0.1661 -0.0416  0.1439
   52MOL0     H 6802   3.982   6.987   8.542  0.2151  2.3043 -0.9519
   52MOL0     H 6803   3.991   7.113   8.274  0.5827 -1.0732 -0.9849
   52MOL0     H 6804   4.132   7.034   8.362 -0.2225  0.2212  3.6946
   52MOL0     H 6805   4.105   7.188   8.553  2.6745 -0.5820 -1.4745
   52MOL0     H 6806   3.973   7.270   8.453  1.2468  1.7122  1.5476
   52MOL0     H 6807   4.260   7.238   8.362 -1.1405 -1.6756 -0.0532
   52MOL0     H 6808   4.130   7.343   8.291 -2.4264  1.7678  0.5602
   52MOL0     H 6809   4.221   7.384   8.570 -1.0830 -1.7159  1.1537
   52MOL0     H 6810   4.108   7.480   8.469 -0.5526 -2.1386  2.1006
   52MOL0     H 6811   4.334   7.499   8.309  5.3733 -1.2504  0.1549
   52MOL0     H 6812   4.418   7.454   8.453 -0.8113  0.1939  1.2610
   52MOL0     H 6813   4.368   7.719   8.421  0.8878  0.2520  1.9760
   52MOL0     H 6814   4.199   7.685   8.416 -2.5709 -0.1517  3.7196
   52MOL0     H 6815   4.381   7.639   8.668  0.0248 -1.2975  0.1298
   52MOL0     H 6816   4.207   7.623   8.661 -0.2323  1.4084 -1.7433
   52MOL0     H 6817   4.123   7.894   8.482 -2.4738  0.8694  0.4919
   52MOL0     H 6818   4.011   8.154   8.656 -0.9425 -0.8219 -0.1012
   52MOL0     H 6819   4.076   8.146   8.498 -1.6367  0.2315  1.3466
   52MOL0     H 6820   4.255   8.254   8.714  0.3546 -0.1686 -0.3563
   52MOL0     H 6821   4.144   8.358   8.608  2.2327  0.9639  0.7923
   52MOL0     H 6822   4.326   8.170   8.480  0.3017 -0.0061  0.6095
   52MOL0     H 6823   4.236   8.314   8.412 -0.1526  3.0878  1.6734
   52MOL0     H 6824   4.452   8.315   8.617 -1.9787  0.3603  1.9706
   52MOL0     H 6825   4.359   8.460   8.576 -0.5218 -0.7847  0.8086
   52MOL0     H 6826   4.649   8.229   8.385 -0.9432  1.5082 -1.3221
   52MOL0     H 6827   4.884   8.258   8.384 -1.8538 -1.1687 -0.4184
   52MOL0     H 6828   5.272   8.329   8.617 -0.5768 -2.2040 -1.6466
   52MOL0     H 6829   5.525   8.341   8.623 -0.2201 -1.0804 -0.0372
   52MOL0     H 6830   5.746   8.319   8.340 -0.2635 -0.1980  0.1872
   52MOL0     H 6831   5.760   8.303   8.508  1.2556 -0.4188 -0.4536
   52MOL0     H 6832   5.989   8.345   8.412  0.5111  1.0996  2.4154
   52MOL0     H 6833   5.952   8.451   8.525  0.5403  1.5263 -0.8080
   52MOL0     H 6834   6.047   8.560   8.326 -0.8927  2.1695  0.6583
   52MOL0     H 6835   5.895   8.644   8.378 -2.3852 -0.2998  0.0365
   52MOL0     H 6836   5.854   8.433   8.178 -0.1009 -0.0182  0.2274
   52MOL0     H 6837   5.775   8.585   8.207 -0.5695 -1.6198 -1.3255
   52MOL0     H 6838   5.914   8.725   8.128 -1.0045 -0.9830  2.1978
   52MOL0     H 6839   5.879   8.610   7.996 -1.5657 -0.2736  1.0229
   52MOL0     H 6840   6.131   8.634   8.161  0.6167  2.8850 -1.9771
   52MOL0     H 6841   6.123   8.666   8.000  3.0741 -2.4067 -0.9619
   52MOL0     H 6842   6.179   8.408   8.110  1.7973 -0.4133 -1.8409
   52MOL0     H 6843   6.018   8.402   8.031 -1.3585  2.3275 -0.6302
   52MOL0     H 6844   6.156   8.546   7.832  4.6062  0.6557 -0.7507
   52MOL0     H 6845   6.172   8.368   7.853 -0.9603  0.4677  0.7193
   52MOL0     H 6846   5.501   8.536   8.249  1.7959 -0.7588  1.6815
   52MOL0     H 6847   5.277   8.475   8.209  3.8104  1.9807 -1.1014
   52MOL0     H 6848   4.833   8.648   8.563  1.7125 -0.9912  0.9010
   52MOL0     H 6849   4.582   8.623   8.536 -0.7363 -0.3889  0.7985
   52MOL0     H 6850   3.614   6.891   8.301 -0.9235 -1.9711 -0.8171
   52MOL0     H 6851   3.469   6.721   8.370  0.6220 -0.6401  0.6556
   52MOL0     H 6852   3.340   6.412   8.931 -2.4691  1.4955  1.1687
   52MOL0     H 6853   3.223   6.203   8.930 -1.8474 -0.9257 -0.3768
   52MOL0     H 6854   3.072   6.021   8.535  0.7482  0.6337  0.2274
   52MOL0     H 6855   3.039   5.904   8.666 -0.0960 -0.8048 -1.9702
   52MOL0     H 6856   3.232   5.846   8.511 -0.1192 -1.3858  1.7123
   52MOL0     H 6857   3.326   5.983   8.582 -0.3920  0.5375  0.0137
   52MOL0     H 6858   3.254   5.873   8.805  3.2410  3.5493  1.1951
   52MOL0     H 6859   3.407   5.842   8.720  0.1299 -2.0402 -2.6281
   52MOL0     H 6860   3.289   5.631   8.818 -2.2750  0.0901  1.7940
   52MOL0     H 6861   3.175   5.664   8.677  0.6618 -0.9216 -0.1670
   52MOL0     H 6862   3.490   5.496   8.483 -1.4373  0.4581 -1.6132
   52MOL0     H 6863   3.211   6.208   8.505 -0.6814  2.3699 -0.4821
   52MOL0     H 6864   3.335   6.399   8.496  0.7644 -1.5269 -0.6449
   53MOL0     O 6865   6.726   4.629   0.412 -0.0119 -0.1437 -0.0963
   53MOL0     C 6866   6.668   4.674   0.314 -0.2180  0.1857  0.5823
   53MOL0     O 6867   6.554   4.629   0.256 -1.5670  0.2308 -0.5080
   53MOL0     C 6868   6.500   4.507   0.293 -0.2730 -0.2891  0.1201
   53MOL0     C 6869   6.547   4.398   0.380  0.9887 -0.2883  0.2898
   53MOL0     C 6870   6.472   4.276   0.388 -0.5028 -1.4766  0.3799
   53MOL0     C 6871   6.360   4.256   0.306 -0.7326 -0.1608 -1.0590
   53MOL0     O 6872   6.298   4.129   0.311  1.0585  0.2197 -0.5533
   53MOL0     C 6873   6.176   4.108   0.238  0.1650 -0.6290  1.0522
   53MOL0     C 6874   6.197   4.075   0.095 -0.0742  0.1228 -0.5892
   53MOL0     C 6875   6.067   4.063   0.011  0.1657  0.9792 -0.4871
   53MOL0     C 6876   6.095   4.044  -0.141 -0.0165 -0.5195 -0.1317
   53MOL0     C 6877   6.144   4.168  -0.219 -0.3853  0.1460 -0.1443
   53MOL0     C 6878   6.049   4.289  -0.219  1.0111 -0.5493  0.1289
   53MOL0     C 6879   6.079   4.386  -0.334 -0.8849 -0.2421  0.2734
   53MOL0     C 6880   6.050   4.327  -0.475  0.0979 -0.0487 -0.6687
   53MOL0     N 6881   6.063   4.432  -0.578  1.0514  0.3390 -0.5286
   53MOL0     C 6882   5.953   4.483  -0.641  0.6926  0.1346 -0.9548
   53MOL0     C 6883   6.012   4.569  -0.729  0.6910 -0.4211  0.1800
   53MOL0     C 6884   5.941   4.687  -0.798 -0.0379 -0.3063  1.1700
   53MOL0     C 6885   5.951   4.688  -0.951 -0.1208  0.1067 -0.5324
   53MOL0     C 6886   5.874   4.583  -1.033 -0.1751  0.4955  0.5458
   53MOL0     C 6887   5.943   4.439  -1.060  0.0354 -0.8656 -0.0053
   53MOL0     O 6888   5.857   4.346  -1.126  0.0907  0.6284  0.7201
   53MOL0     C 6889   5.750   4.293  -1.058 -0.3102 -0.3662 -0.1599
   53MOL0     C 6890   5.734   4.276  -0.914  0.2055 -0.7924  1.1306
   53MOL0     C 6891   5.628   4.208  -0.851  0.0578 -0.1042 -0.3642
   53MOL0     C 6892   5.519   4.180  -0.925 -0.0908 -0.9093 -0.0485
   53MOL0     C 6893   5.406   4.123  -0.859 -0.0039 -0.0384  0.3796
   53MOL0     O 6894   5.344   4.032  -0.940  0.2989  0.0862  0.0973
   53MOL0     C 6895   5.268   3.943  -0.871 -1.0372 -0.6944  0.4705
   53MOL0     C 6896   5.333   3.820  -0.871  0.6230  0.2746  0.1574
   53MOL0     C 6897   5.258   3.716  -0.807  0.2781 -0.3837  0.0786
   53MOL0     C 6898   5.136   3.736  -0.747  0.6346 -0.2552  0.3328
   53MOL0     O 6899   5.086   3.630  -0.675  0.4163 -0.7205  0.1769
   53MOL0     C 6900   4.942   3.634  -0.659 -0.9138  0.5962 -0.2174
   53MOL0     C 6901   4.910   3.533  -0.554 -0.3178  0.4713 -0.1233
   53MOL0     C 6902   4.904   3.586  -0.415 -0.6377 -0.1171  0.2558
   53MOL0     C 6903   4.781   3.677  -0.392  0.3482  1.3483  0.0530
   53MOL0     C 6904   4.778   3.732  -0.246  0.5346 -0.9328  0.5003
   53MOL0     C 6905   4.814   3.638  -0.130 -0.0472 -0.2452 -0.0008
   53MOL0     C 6906   4.783   3.702  -0.001 -0.4663 -0.3093 -0.0450
   53MOL0     C 6907   4.775   3.605   0.118  0.4844  0.2758 -0.2850
   53MOL0    Cl 6908   4.859   3.683   0.251  0.3955 -0.3630  0.1232
   53MOL0     C 6909   5.073   3.867  -0.752 -0.3019  1.0420 -0.0247
   53MOL0     C 6910   5.144   3.965  -0.819 -0.0118  0.4407  0.4845
   53MOL0     O 6911   5.382   4.146  -0.735 -0.1502 -0.1343  0.6044
   53MOL0     C 6912   5.519   4.213  -1.061  0.0477 -0.2099  0.1334
   53MOL0     C 6913   5.638   4.256  -1.126  0.8399 -1.1041  0.2430
   53MOL0     N 6914   6.148   4.567  -0.710 -0.6008 -0.2018 -0.0980
   53MOL0     N 6915   6.180   4.495  -0.618  0.3821  0.5609  0.1792
   53MOL0     C 6916   6.303   4.362   0.230 -0.1794  0.8403 -0.7205
   53MOL0     C 6917   6.379   4.481   0.225 -0.4505 -1.3978  0.0943
   53MOL0     C 6918   6.747   4.765   0.227  0.1512  0.3684  0.1549
   53MOL0     C 6919   6.703   4.804   0.103  0.2156 -0.3669  0.4179
   53MOL0     C 6920   6.776   4.899   0.028 -1.0015 -0.0532 -0.4322
   53MOL0     C 6921   6.903   4.950   0.068 -0.0186  0.3444 -0.6190
   53MOL0     O 6922   6.970   5.039  -0.003 -0.4768 -0.3061 -0.3974
   53MOL0     C 6923   7.066   5.131   0.057  0.5392  1.0332 -0.0878
   53MOL0     C 6924   7.071   5.281  -0.000  0.8302 -0.1881  0.5357
   53MOL0     C 6925   7.117   5.280  -0.144  0.3420  0.5153 -0.7375
   53MOL0     C 6926   7.090   5.422  -0.199  0.3465 -0.8996  0.8960
   53MOL0     C 6927   7.157   5.446  -0.323  0.0346 -0.2606  1.0806
   53MOL0     C 6928   7.231   5.444  -0.423  0.6696 -0.2841  0.7456
   53MOL0     C 6929   6.945   4.895   0.193 -0.0224 -0.0994 -0.1428
   53MOL0     C 6930   6.872   4.808   0.268 -0.5386 -0.2063 -0.4510
   53MOL0     H 6931   6.640   4.403   0.435  1.6322  2.3456 -0.8651
   53MOL0     H 6932   6.518   4.201   0.451  1.4514  0.5504  1.5349
   53MOL0     H 6933   6.109   4.192   0.260  1.6157  0.2437  2.4095
   53MOL0     H 6934   6.124   4.023   0.283 -4.2580  0.5551 -1.2104
   53MOL0     H 6935   6.245   3.977   0.090 -2.5360 -1.1172 -1.4396
   53MOL0     H 6936   6.262   4.148   0.046  1.1972 -2.1806 -2.5604
   53MOL0     H 6937   6.015   4.159   0.021 -0.0786  0.8328 -0.3367
   53MOL0     H 6938   6.006   3.979   0.045  1.5850  0.6537  1.3444
   53MOL0     H 6939   6.172   3.970  -0.164  1.3068  1.3257 -2.0208
   53MOL0     H 6940   6.004   4.009  -0.191  0.2238 -1.1891 -0.1216
   53MOL0     H 6941   6.165   4.141  -0.323 -0.8417 -1.7435  0.2129
   53MOL0     H 6942   6.238   4.195  -0.172 -0.4277 -0.3674  0.2426
   53MOL0     H 6943   6.060   4.344  -0.124 -0.6651  1.8131 -0.9520
   53MOL0     H 6944   5.945   4.255  -0.219  0.2086  1.7526 -0.5483
   53MOL0     H 6945   6.015   4.473  -0.317 -0.0438  0.5405 -0.4440
   53MOL0     H 6946   6.178   4.434  -0.331 -0.4138 -1.0045 -1.5321
   53MOL0     H 6947   5.950   4.284  -0.477  0.4269 -0.9743  0.8534
   53MOL0     H 6948   6.128   4.253  -0.495 -2.2010 -2.6112 -0.6504
   53MOL0     H 6949   5.847   4.471  -0.618  1.2607 -1.7285  1.0491
   53MOL0     H 6950   5.995   4.777  -0.765  1.8996 -0.0780 -2.1759
   53MOL0     H 6951   5.838   4.704  -0.765  0.2542  1.3953  1.3104
   53MOL0     H 6952   6.057   4.687  -0.980  0.0538  1.3319  0.0220
   53MOL0     H 6953   5.907   4.777  -0.997  3.7827  1.2872 -2.4106
   53MOL0     H 6954   5.782   4.572  -0.973 -0.9004  0.3326 -0.5740
   53MOL0     H 6955   5.842   4.623  -1.129  0.4847  0.4178  0.2948
   53MOL0     H 6956   5.960   4.394  -0.962 -0.2153  2.9423  1.9711
   53MOL0     H 6957   6.037   4.452  -1.114 -1.2174 -0.2166 -2.1507
   53MOL0     H 6958   5.801   4.315  -0.839  1.5943  1.8570 -1.2971
   53MOL0     H 6959   5.641   4.196  -0.744 -0.6533  0.5128 -0.2021
   53MOL0     H 6960   5.425   3.795  -0.923 -1.3555 -1.2970 -2.8276
   53MOL0     H 6961   5.319   3.626  -0.806  4.4485  1.9914  4.0576
   53MOL0     H 6962   4.894   3.618  -0.755  1.4897  2.0919 -1.7887
   53MOL0     H 6963   4.901   3.729  -0.622 -2.5427  0.6742 -2.1075
   53MOL0     H 6964   4.983   3.452  -0.562 -0.8985  0.0876 -1.9920
   53MOL0     H 6965   4.818   3.480  -0.583  0.2389 -0.3806 -0.3828
   53MOL0     H 6966   4.992   3.641  -0.380 -1.3267  0.7547  0.6571
   53MOL0     H 6967   4.911   3.500  -0.347  0.7053  0.6879  1.1876
   53MOL0     H 6968   4.768   3.746  -0.477  1.7303  0.1654 -1.1686
   53MOL0     H 6969   4.704   3.600  -0.405  2.1151 -0.1970 -1.8940
   53MOL0     H 6970   4.681   3.777  -0.223 -0.0616 -2.4202  1.0605
   53MOL0     H 6971   4.847   3.816  -0.247 -1.6093  0.9658  1.8040
   53MOL0     H 6972   4.918   3.603  -0.134 -0.5346 -1.8425  0.4138
   53MOL0     H 6973   4.748   3.551  -0.139 -0.4686  0.2459 -2.2278
   53MOL0     H 6974   4.860   3.777   0.018 -0.6979  0.0822 -0.6323
   53MOL0     H 6975   4.689   3.757  -0.008  1.2606  2.7820 -1.2094
   53MOL0     H 6976   4.836   3.519   0.088 -0.7426 -2.3515  3.9139
   53MOL0     H 6977   4.678   3.567   0.151  0.1656  2.0956  1.0043
   53MOL0     H 6978   4.977   3.889  -0.708 -1.3016 -0.5155 -1.3000
   53MOL0     H 6979   5.105   4.064  -0.841 -2.9533 -0.8850 -0.8296
   53MOL0     H 6980   5.442   4.168  -1.123 -1.0269  1.2100  0.3810
   53MOL0     H 6981   5.632   4.282  -1.231 -0.8749  0.7464  0.7559
   53MOL0     H 6982   6.204   4.348   0.186 -0.4201  0.3781 -0.0406
   53MOL0     H 6983   6.340   4.561   0.162  0.6700 -0.0987  0.9834
   53MOL0     H 6984   6.613   4.759   0.062 -0.6184 -0.0165  1.7992
   53MOL0     H 6985   6.742   4.926  -0.071 -0.3692  2.0369 -0.1199
   53MOL0     H 6986   7.164   5.091   0.031  0.9672  1.9383  0.1035
   53MOL0     H 6987   7.055   5.135   0.166 -0.2406  0.8926 -0.1507
   53MOL0     H 6988   6.976   5.332   0.016  0.6100  0.3807 -2.1138
   53MOL0     H 6989   7.151   5.329   0.057  1.0261  2.2829 -1.6033
   53MOL0     H 6990   7.072   5.205  -0.210 -1.3305 -0.7709  1.7171
   53MOL0     H 6991   7.223   5.252  -0.153  0.6863  2.1656 -2.2553
   53MOL0     H 6992   6.982   5.432  -0.209  0.1972  1.3069  3.5037
   53MOL0     H 6993   7.133   5.494  -0.129 -0.6116  0.7423 -0.1513
   53MOL0     H 6994   7.293   5.452  -0.511 -1.4713  0.8082 -0.7553
   53MOL0     H 6995   7.044   4.926   0.227  0.1465 -0.6399 -0.1219
   53MOL0     H 6996   6.909   4.785   0.368 -2.1624  0.5684  0.3563
   54MOL0     O 6997   2.371   8.072  10.520  0.4698  0.3402 -0.0905
   54MOL0     C 6998   2.419   8.124  10.418 -0.4995 -0.4720 -0.0239
   54MOL0     O 6999   2.530   8.082  10.351  0.1936  0.6242 -0.4260
   54MOL0     C 7000   2.594   7.974  10.404 -0.4633  0.0427 -0.2849
   54MOL0     C 7001   2.649   7.982  10.531  0.0909  0.4447 -0.8965
   54MOL0     C 7002   2.725   7.875  10.587 -0.3280 -0.5259  0.4757
   54MOL0     C 7003   2.737   7.752  10.521 -0.0203  0.1354  0.3816
   54MOL0     O 7004   2.794   7.640  10.576  0.6196  0.0833  0.6992
   54MOL0     C 7005   2.782   7.623  10.716 -0.4516  0.4751  0.2295
   54MOL0     C 7006   2.868   7.493  10.753 -0.0035 -1.0730 -0.7729
   54MOL0     C 7007   2.822   7.359  10.697  0.1661 -0.0511 -0.1379
   54MOL0     C 7008   2.875   7.243  10.764 -0.2643  0.1512  0.2259
   54MOL0     C 7009   2.816   7.110  10.718  0.4193  0.4974 -0.6345
   54MOL0     C 7010   2.896   6.989  10.777  0.3974  0.0740 -0.9191
   54MOL0     C 7011   2.847   6.845  10.739 -0.6197 -0.6346  0.4858
   54MOL0     C 7012   2.796   6.775  10.861  0.2118  0.1558 -0.9186
   54MOL0     N 7013   2.732   6.650  10.835  0.3471  0.1689 -0.2672
   54MOL0     C 7014   2.642   6.586  10.920  0.4598 -0.1984 -0.4716
   54MOL0     C 7015   2.626   6.465  10.864 -1.6615  0.4505 -0.4099
   54MOL0     C 7016   2.543   6.353  10.900 -0.0672 -0.1062 -1.0013
   54MOL0     C 7017   2.466   6.292  10.787  0.3269  0.1887 -0.3590
   54MOL0     C 7018   2.399   6.167  10.828 -0.0841  0.1783  0.6875
   54MOL0     C 7019   2.285   6.183  10.914 -0.7238 -0.9104  0.2609
   54MOL0     O 7020   2.220   6.050  10.908 -0.5384  0.0213 -0.5409
   54MOL0     C 7021   2.083   6.043  10.919  0.5816 -0.8686  0.1585
   54MOL0     C 7022   2.031   5.927  10.879 -0.2983 -0.1917 -0.2462
   54MOL0     C 7023   1.899   5.902  10.863  0.7168 -1.0949  0.3932
   54MOL0     C 7024   1.805   5.995  10.915 -0.2041  0.2260 -0.1431
   54MOL0     C 7025   1.668   5.964  10.903 -0.2515 -0.5715  0.8578
   54MOL0     O 7026   1.635   5.828  10.889  0.5234 -0.3488 -0.0649
   54MOL0     C 7027   1.496   5.807  10.878 -0.3698 -0.0595 -0.0005
   54MOL0     C 7028   1.439   5.800  10.751 -0.2513 -0.2128  0.6157
   54MOL0     C 7029   1.305   5.772  10.743  0.0481  0.0925 -0.6815
   54MOL0     C 7030   1.216   5.753  10.843 -0.3401  0.3209 -0.1766
   54MOL0     O 7031   1.082   5.740  10.829 -0.3779  0.9471 -0.5640
   54MOL0     C 7032   1.032   5.752  10.698 -0.4082  0.0248 -1.0192
   54MOL0     C 7033   0.878   5.756  10.697  0.0989  0.4399  0.3159
   54MOL0     C 7034   0.821   5.617  10.720 -0.9815 -0.3780 -0.5347
   54MOL0     C 7035   0.679   5.608  10.699 -0.3743 -0.8359 -1.1883
   54MOL0     C 7036   0.617   5.483  10.722 -0.8574  0.4740  0.2337
   54MOL0     C 7037   0.622   5.446  10.866  0.3024  0.0149  0.1969
   54MOL0     C 7038   0.534   5.318  10.888  0.3330  0.3143  0.0208
   54MOL0     C 7039   0.448   5.329  11.008 -0.5172 -0.3552 -0.3264
   54MOL0    Cl 7040   0.544   5.419  11.134  0.0676  0.1726  0.2038
   54MOL0     C 7041   1.275   5.756  10.972  1.1091  0.5034 -0.6226
   54MOL0     C 7042   1.413   5.783  10.989 -0.8510 -0.5780  0.6461
   54MOL0     O 7043   1.595   6.066  10.879 -0.9765  0.4152 -0.6136
   54MOL0     C 7044   1.850   6.124  10.954 -0.6807  0.4277 -0.8615
   54MOL0     C 7045   1.989   6.146  10.956  0.3150  0.0326 -0.0758
   54MOL0     N 7046   2.714   6.452  10.754 -0.0882 -0.4026 -0.7405
   54MOL0     N 7047   2.761   6.565  10.734  0.4861 -0.0135 -0.0079
   54MOL0     C 7048   2.683   7.745  10.391 -0.0613 -0.9072  0.1216
   54MOL0     C 7049   2.620   7.852  10.329 -1.1250  0.1394  0.1611
   54MOL0     C 7050   2.339   8.221  10.341 -0.1921  1.0362 -0.3515
   54MOL0     C 7051   2.389   8.290  10.234 -0.2484 -0.2745  0.5315
   54MOL0     C 7052   2.301   8.361  10.147  0.3305 -0.3144 -1.1471
   54MOL0     C 7053   2.170   8.378  10.172 -0.9848  0.2538 -0.4360
   54MOL0     O 7054   2.102   8.449  10.079 -0.1179 -0.0554 -0.8352
   54MOL0     C 7055   1.998   8.539  10.126 -0.3105  0.2203 -0.6194
   54MOL0     C 7056   2.053   8.678  10.083  0.7785 -0.8161  0.1804
   54MOL0     C 7057   2.160   8.753  10.161 -0.5018 -0.4507  0.3296
   54MOL0     C 7058   2.298   8.765  10.092 -0.5152  0.2060  0.4537
   54MOL0     C 7059   2.290   8.820   9.957 -0.3190 -0.2260  0.2369
   54MOL0     C 7060   2.295   8.851   9.836  1.1138 -0.2712 -0.0072
   54MOL0     C 7061   2.119   8.313  10.287 -0.4665  0.4285 -0.2827
   54MOL0     C 7062   2.206   8.239  10.373  0.0732 -0.2315  0.2944
   54MOL0     H 7063   2.643   8.081  10.576  0.1581  0.2327 -0.4110
   54MOL0     H 7064   2.762   7.891  10.688 -1.6834 -0.3122  0.9616
   54MOL0     H 7065   2.681   7.606  10.754 -1.3350 -0.1276 -2.2044
   54MOL0     H 7066   2.844   7.698  10.766  1.4889 -0.9656  0.1010
   54MOL0     H 7067   2.873   7.497  10.862 -0.2673  0.0500 -0.7945
   54MOL0     H 7068   2.973   7.506  10.728  0.2146 -2.1437 -0.4874
   54MOL0     H 7069   2.853   7.352  10.592 -2.7426 -2.0472 -1.0042
   54MOL0     H 7070   2.713   7.345  10.690  0.5373 -2.6420 -2.7557
   54MOL0     H 7071   2.984   7.252  10.752 -0.5137  1.3979 -1.5051
   54MOL0     H 7072   2.842   7.253  10.868  0.4668  4.2630  0.2371
   54MOL0     H 7073   2.826   7.105  10.609 -1.5640 -1.2735 -0.7861
   54MOL0     H 7074   2.718   7.100  10.764  0.1094  4.9438  0.1129
   54MOL0     H 7075   2.895   6.993  10.886 -1.7377 -0.5393 -0.8676
   54MOL0     H 7076   2.998   7.007  10.743  0.3474 -0.1382 -1.1856
   54MOL0     H 7077   2.761   6.852  10.672 -1.8270  0.4784  2.0838
   54MOL0     H 7078   2.932   6.787  10.701  1.7969  2.0102  1.4412
   54MOL0     H 7079   2.724   6.829  10.922  1.2955 -0.6347  1.1718
   54MOL0     H 7080   2.881   6.756  10.928  0.5314  1.5644 -0.8966
   54MOL0     H 7081   2.591   6.622  11.009  1.7147 -3.7376  1.9063
   54MOL0     H 7082   2.470   6.383  10.976  0.6880 -1.7112  0.4193
   54MOL0     H 7083   2.601   6.274  10.949 -0.7836 -0.7268 -1.1172
   54MOL0     H 7084   2.531   6.269  10.702 -0.1792 -0.8585 -0.4758
   54MOL0     H 7085   2.390   6.363  10.755  1.4939  0.8827 -1.6933
   54MOL0     H 7086   2.349   6.133  10.736  0.4442  0.3732  0.3277
   54MOL0     H 7087   2.465   6.086  10.862 -0.4880  1.7897  6.1514
   54MOL0     H 7088   2.229   6.262  10.864  1.9208  0.8781 -0.0761
   54MOL0     H 7089   2.303   6.223  11.014 -3.8996  0.4512  0.4252
   54MOL0     H 7090   2.093   5.844  10.847 -0.4724 -1.1383  1.7321
   54MOL0     H 7091   1.866   5.803  10.835 -2.3563 -0.1317  0.2390
   54MOL0     H 7092   1.485   5.812  10.654 -0.4494 -1.7128  0.3173
   54MOL0     H 7093   1.277   5.771  10.638 -1.9794 -1.3472 -0.1958
   54MOL0     H 7094   1.073   5.670  10.639  1.9113 -0.9248  1.6767
   54MOL0     H 7095   1.063   5.850  10.659 -0.1876  0.4386  0.1502
   54MOL0     H 7096   0.846   5.786  10.596 -0.7930 -1.4281 -0.0060
   54MOL0     H 7097   0.835   5.828  10.767 -0.7293 -1.0793  1.4259
   54MOL0     H 7098   0.845   5.589  10.823 -1.2937 -0.5337 -0.5039
   54MOL0     H 7099   0.864   5.542  10.653  1.2259  0.6385 -0.3561
   54MOL0     H 7100   0.633   5.679  10.768  4.2861  0.8210  0.6178
   54MOL0     H 7101   0.670   5.641  10.595  3.8626 -1.0644 -1.8053
   54MOL0     H 7102   0.667   5.403  10.667 -2.9445  0.2664 -1.5090
   54MOL0     H 7103   0.515   5.493  10.684 -0.2968  1.3165 -1.1017
   54MOL0     H 7104   0.579   5.532  10.920 -0.2168  1.1101 -1.8559
   54MOL0     H 7105   0.727   5.430  10.893  0.2041  1.0669  1.3311
   54MOL0     H 7106   0.465   5.303  10.804 -1.2622  1.8660  0.9969
   54MOL0     H 7107   0.593   5.227  10.900  0.8539  0.4588 -1.2176
   54MOL0     H 7108   0.426   5.228  11.046  2.9770 -0.2267  2.5781
   54MOL0     H 7109   0.359   5.385  10.978  0.5393 -0.3378 -3.8012
   54MOL0     H 7110   1.211   5.718  11.052 -0.5907 -2.4205 -3.1097
   54MOL0     H 7111   1.465   5.785  11.084  0.3798  2.2134  0.0292
   54MOL0     H 7112   1.791   6.195  11.012 -0.5495 -0.8218  0.8933
   54MOL0     H 7113   2.030   6.245  10.968  0.3337  0.4745 -3.1433
   54MOL0     H 7114   2.703   7.654  10.335  1.8751 -1.9076  2.2882
   54MOL0     H 7115   2.592   7.839  10.225  1.9855  0.6139 -0.8441
   54MOL0     H 7116   2.494   8.301  10.210 -0.1239  2.1560  1.8268
   54MOL0     H 7117   2.335   8.398  10.050  0.0755 -0.3941 -1.2684
   54MOL0     H 7118   2.002   8.552  10.234  0.3399  2.7027 -0.8870
   54MOL0     H 7119   1.899   8.515  10.087  0.7565 -0.8189 -2.8783
   54MOL0     H 7120   2.088   8.673   9.979  0.0627  1.5696 -0.2381
   54MOL0     H 7121   1.968   8.746  10.082 -1.2578 -3.2180  0.9762
   54MOL0     H 7122   2.175   8.707  10.259  0.4343 -1.2813 -0.1773
   54MOL0     H 7123   2.129   8.857  10.175  4.3192  0.9567  2.8885
   54MOL0     H 7124   2.362   8.838  10.141  0.8098  0.1854 -1.1691
   54MOL0     H 7125   2.355   8.671  10.085 -3.2674 -1.4718 -3.7632
   54MOL0     H 7126   2.307   8.871   9.731 -0.6239  2.8584  0.2698
   54MOL0     H 7127   2.011   8.317  10.294 -0.4238 -0.0659  1.0389
   54MOL0     H 7128   2.164   8.176  10.451 -1.7592  0.8023  0.2049
   55MOL0     O 7129  10.696   0.974   5.892 -0.3210 -0.8148 -0.1689
   55MOL0     C 7130  10.698   0.852   5.884  0.3914  0.4663  0.4860
   55MOL0     O 7131  10.807   0.778   5.849 -0.0780 -0.4068 -0.1743
   55MOL0     C 7132  10.904   0.847   5.775  0.5972 -0.0317  0.4933
   55MOL0     C 7133  10.888   0.867   5.636  0.9958 -0.7674 -0.2169
   55MOL0     C 7134  10.970   0.950   5.558  0.1404 -0.9636  0.7074
   55MOL0     C 7135  11.081   1.011   5.622 -0.0573 -0.0207  0.1250
   55MOL0     O 7136  11.167   1.099   5.555  0.1692  0.6775  0.1573
   55MOL0     C 7137  11.156   1.137   5.412 -0.1382  0.1010  0.2618
   55MOL0     C 7138  11.215   1.030   5.325 -1.3155  0.4224  0.6118
   55MOL0     C 7139  11.193   1.046   5.177  0.6684 -0.0955  0.5248
   55MOL0     C 7140  11.186   0.912   5.100  0.7808 -0.6765 -0.2728
   55MOL0     C 7141  11.218   0.931   4.950 -1.0050  0.0979 -0.1827
   55MOL0     C 7142  11.207   0.821   4.856 -0.6303  0.9571  0.2657
   55MOL0     C 7143  11.070   0.747   4.843 -0.7647 -0.3407 -0.1159
   55MOL0     C 7144  11.003   0.766   4.706  0.9558  0.1407  0.2695
   55MOL0     N 7145  10.879   0.694   4.696  0.8002 -0.2115 -0.3386
   55MOL0     C 7146  10.755   0.734   4.736 -0.0648  0.2010 -1.7092
   55MOL0     C 7147  10.673   0.639   4.693 -0.1687  0.3316 -0.1751
   55MOL0     C 7148  10.522   0.645   4.726  0.0986 -0.7129  0.2536
   55MOL0     C 7149  10.442   0.667   4.590  0.3255  0.9586 -1.0274
   55MOL0     C 7150  10.352   0.797   4.592 -0.0912  0.2083 -0.2604
   55MOL0     C 7151  10.437   0.923   4.615  1.2932 -0.0804 -0.0147
   55MOL0     O 7152  10.348   1.023   4.664 -0.5394  0.2099 -0.5931
   55MOL0     C 7153  10.377   1.151   4.649  0.4804  1.0088 -0.5512
   55MOL0     C 7154  10.499   1.205   4.611 -0.6471  0.6394  0.2504
   55MOL0     C 7155  10.525   1.352   4.619  0.4519 -1.0708 -0.5456
   55MOL0     C 7156  10.420   1.430   4.646  0.5636 -0.6209  0.4807
   55MOL0     C 7157  10.441   1.580   4.631  0.3852 -0.9582  0.2772
   55MOL0     O 7158  10.569   1.622   4.667 -0.0088 -0.4873  0.5286
   55MOL0     C 7159  10.617   1.752   4.634 -0.0327 -0.5538  0.4577
   55MOL0     C 7160  10.609   1.809   4.508 -0.0012  0.4020 -0.1333
   55MOL0     C 7161  10.688   1.920   4.461  0.0033 -0.9523 -0.3065
   55MOL0     C 7162  10.777   1.974   4.553  0.6460 -0.1258  0.3102
   55MOL0     O 7163  10.830   2.088   4.502 -0.2354  0.6113  0.1496
   55MOL0     C 7164  10.938   2.143   4.579 -0.0377  0.1065 -0.4088
   55MOL0     C 7165  10.875   2.259   4.649 -0.0255 -0.1090 -0.3159
   55MOL0     C 7166  10.822   2.361   4.553  0.0050  0.0259 -0.0415
   55MOL0     C 7167  10.763   2.478   4.634 -0.9613 -0.4263  0.1080
   55MOL0     C 7168  10.631   2.460   4.704 -0.6401 -0.5460 -0.1160
   55MOL0     C 7169  10.589   2.599   4.764  0.0037 -0.2330  0.8810
   55MOL0     C 7170  10.656   2.637   4.905 -1.3606  0.3830  1.0066
   55MOL0     C 7171  10.601   2.540   5.011  0.7422  0.3780 -0.0244
   55MOL0    Cl 7172  10.727   2.407   5.030 -0.2212 -0.2231  0.3482
   55MOL0     C 7173  10.781   1.923   4.684 -0.3005  0.3435 -0.9162
   55MOL0     C 7174  10.711   1.811   4.721  0.0880 -0.1594 -0.9029
   55MOL0     O 7175  10.342   1.650   4.593  0.1594  0.4721  0.9882
   55MOL0     C 7176  10.290   1.382   4.669  0.2300 -0.1390 -1.0299
   55MOL0     C 7177  10.269   1.240   4.667  0.3429  0.6007  0.4093
   55MOL0     N 7178  10.749   0.534   4.643  0.6706  0.1828 -0.5161
   55MOL0     N 7179  10.873   0.571   4.637  0.3142  0.0249 -0.9195
   55MOL0     C 7180  11.106   0.978   5.755 -0.2463 -0.3784  0.1335
   55MOL0     C 7181  11.021   0.891   5.833 -0.6501 -0.8865  0.1217
   55MOL0     C 7182  10.581   0.774   5.916 -0.4318  0.5562  0.2811
   55MOL0     C 7183  10.558   0.645   5.858 -0.5241  0.2008  0.6315
   55MOL0     C 7184  10.454   0.570   5.900 -0.2507 -0.5466  0.4326
   55MOL0     C 7185  10.361   0.627   5.989  0.8047 -0.5834  0.7328
   55MOL0     O 7186  10.253   0.541   6.019  0.3003  0.4332  0.0927
   55MOL0     C 7187  10.130   0.590   6.064  0.3649 -1.7493 -0.2003
   55MOL0     C 7188  10.033   0.475   6.064 -0.4755 -0.1915 -0.6121
   55MOL0     C 7189  10.069   0.366   6.165 -0.3027  0.2910  0.3971
   55MOL0     C 7190  10.037   0.413   6.307  0.7401 -0.8724  0.7143
   55MOL0     C 7191  10.063   0.312   6.408  0.4067  0.1293 -0.0236
   55MOL0     C 7192  10.097   0.225   6.484 -0.7406  0.4052 -1.0873
   55MOL0     C 7193  10.381   0.754   6.052  0.2303  0.0588  0.0779
   55MOL0     C 7194  10.491   0.830   6.003  0.2008  0.5592 -1.1510
   55MOL0     H 7195  10.792   0.832   5.599  1.1222 -1.2181 -0.1314
   55MOL0     H 7196  10.948   0.958   5.452  1.0957 -0.9383  0.4995
   55MOL0     H 7197  11.208   1.232   5.395  2.1019 -1.5094 -3.0044
   55MOL0     H 7198  11.051   1.153   5.388 -0.4504  1.1615  2.1598
   55MOL0     H 7199  11.167   0.938   5.360 -0.0247  0.4748  2.7500
   55MOL0     H 7200  11.322   1.025   5.346 -1.3620  0.0741  0.7688
   55MOL0     H 7201  11.278   1.107   5.147 -0.4271  0.7634 -1.0053
   55MOL0     H 7202  11.096   1.091   5.154 -0.0364 -2.6532 -2.2490
   55MOL0     H 7203  11.251   0.842   5.153 -0.1326 -0.1422  1.6460
   55MOL0     H 7204  11.081   0.883   5.095  0.2885  1.0530 -0.5774
   55MOL0     H 7205  11.323   0.960   4.951 -1.2300  0.9741  0.4602
   55MOL0     H 7206  11.173   1.025   4.915  2.3761  2.6999  1.7891
   55MOL0     H 7207  11.274   0.744   4.895 -1.5271  0.6012  1.1786
   55MOL0     H 7208  11.254   0.852   4.762  1.7364 -1.5013  0.5197
   55MOL0     H 7209  11.079   0.641   4.868  0.3484 -0.5915 -1.4276
   55MOL0     H 7210  11.000   0.784   4.919  0.1707  1.2118  0.0408
   55MOL0     H 7211  11.069   0.732   4.625  1.3474  0.0128  0.6385
   55MOL0     H 7212  10.978   0.872   4.697  1.5182  0.3605  1.1642
   55MOL0     H 7213  10.723   0.830   4.773  0.2811 -0.5209  0.5814
   55MOL0     H 7214  10.506   0.723   4.801  0.0752 -1.9710  1.6003
   55MOL0     H 7215  10.491   0.555   4.779  0.2277 -0.2999  1.0367
   55MOL0     H 7216  10.364   0.590   4.591 -0.5558  1.8325 -1.3816
   55MOL0     H 7217  10.498   0.660   4.497  0.0153  1.9426 -1.2943
   55MOL0     H 7218  10.283   0.824   4.512 -1.3589 -1.1229  0.3336
   55MOL0     H 7219  10.293   0.780   4.683  0.2811  0.2709 -0.0052
   55MOL0     H 7220  10.496   0.957   4.530  2.6142 -1.0416  0.4789
   55MOL0     H 7221  10.509   0.912   4.697  0.0476 -0.1068  1.1244
   55MOL0     H 7222  10.590   1.147   4.604 -1.2451 -0.3666  0.6789
   55MOL0     H 7223  10.628   1.388   4.614  0.6932 -1.3252  1.5102
   55MOL0     H 7224  10.530   1.773   4.443 -0.3772 -0.5819  0.8315
   55MOL0     H 7225  10.668   1.961   4.362 -0.1223  0.2345  0.2015
   55MOL0     H 7226  11.009   2.194   4.513 -1.9318  1.5857 -1.4168
   55MOL0     H 7227  10.992   2.067   4.635 -1.1319  0.1533  0.7628
   55MOL0     H 7228  10.955   2.302   4.711  1.8633 -2.8057 -0.7069
   55MOL0     H 7229  10.797   2.215   4.710  0.2392 -1.8685 -1.1894
   55MOL0     H 7230  10.747   2.325   4.482 -1.2642  4.3582 -1.1940
   55MOL0     H 7231  10.907   2.405   4.498 -1.1593  2.3187 -0.1416
   55MOL0     H 7232  10.839   2.514   4.704  2.6675 -0.9254 -3.2404
   55MOL0     H 7233  10.755   2.558   4.559 -0.3581 -0.3122  0.1641
   55MOL0     H 7234  10.636   2.391   4.789  4.5184  1.3729  1.5418
   55MOL0     H 7235  10.561   2.427   4.628  0.1455  1.6228 -1.8804
   55MOL0     H 7236  10.481   2.600   4.776 -0.6854 -3.3874 -2.9301
   55MOL0     H 7237  10.614   2.674   4.687  1.4215  1.8787  3.2308
   55MOL0     H 7238  10.765   2.641   4.909 -1.2689 -1.4882  1.5658
   55MOL0     H 7239  10.620   2.735   4.938 -0.4353  0.2676  2.4346
   55MOL0     H 7240  10.507   2.490   4.984  0.8154 -0.2356  0.8088
   55MOL0     H 7241  10.587   2.581   5.112 -0.4321  1.0879 -0.4529
   55MOL0     H 7242  10.824   1.983   4.763 -1.8521  0.8031 -0.3714
   55MOL0     H 7243  10.723   1.765   4.818 -0.4539  0.5095 -0.5117
   55MOL0     H 7244  10.213   1.452   4.698 -1.3503 -1.6814 -1.3536
   55MOL0     H 7245  10.169   1.210   4.696 -0.8372 -0.1227 -3.8600
   55MOL0     H 7246  11.173   1.031   5.822  0.5199 -0.8135 -0.2758
   55MOL0     H 7247  11.028   0.876   5.940 -1.3603 -2.7934 -0.0542
   55MOL0     H 7248  10.627   0.604   5.784 -0.8723  1.2289 -0.2844
   55MOL0     H 7249  10.430   0.475   5.853 -1.7370  0.2410 -0.4697
   55MOL0     H 7250  10.094   0.678   6.011 -0.2223 -0.9201  1.5126
   55MOL0     H 7251  10.142   0.618   6.169  1.1683 -2.4082 -0.1037
   55MOL0     H 7252   9.933   0.516   6.081  0.0663  0.9771 -0.1078
   55MOL0     H 7253  10.035   0.442   5.959  1.4988 -1.5496 -0.2043
   55MOL0     H 7254  10.174   0.343   6.184 -1.0740 -1.7261  2.6566
   55MOL0     H 7255  10.019   0.274   6.133 -1.4607  1.5413 -1.6240
   55MOL0     H 7256  10.106   0.495   6.326  0.3717  0.5220 -3.0849
   55MOL0     H 7257   9.938   0.458   6.304 -0.1913 -2.8248 -1.2545
   55MOL0     H 7258  10.124   0.150   6.556 -0.2625  0.2784 -1.3955
   55MOL0     H 7259  10.315   0.799   6.126 -0.6820 -1.0473 -0.0240
   55MOL0     H 7260  10.515   0.920   6.060 -1.2399  0.3008 -0.0770
   56MOL0     O 7261   4.832   6.296  10.588  0.3766 -0.0548  0.6472
   56MOL0     C 7262   4.945   6.259  10.576 -0.1062  0.1942  0.8463
   56MOL0     O 7263   5.037   6.313  10.493  0.0218 -0.2853  0.2590
   56MOL0     C 7264   4.991   6.429  10.425  0.9823 -0.2788  0.4551
   56MOL0     C 7265   4.972   6.549  10.495  0.0946  1.3228  0.2112
   56MOL0     C 7266   4.930   6.675  10.436  0.2119  0.8598  0.0985
   56MOL0     C 7267   4.911   6.667  10.297 -0.0176  0.0947  0.2370
   56MOL0     O 7268   4.880   6.770  10.208  0.2139 -1.0103  0.0118
   56MOL0     C 7269   4.872   6.904  10.260 -1.0962  0.8324 -0.7707
   56MOL0     C 7270   4.868   7.002  10.142 -0.3168 -0.1002  0.8400
   56MOL0     C 7271   4.864   7.153  10.173  0.6101 -0.6226  0.9548
   56MOL0     C 7272   4.879   7.242  10.049  0.4131  0.3733 -0.0942
   56MOL0     C 7273   4.880   7.382  10.090 -0.0726 -0.0217  0.5232
   56MOL0     C 7274   4.854   7.480   9.978 -0.9551 -0.7182  1.0526
   56MOL0     C 7275   4.721   7.480   9.909 -0.8118 -1.1278 -0.9365
   56MOL0     C 7276   4.605   7.535   9.996 -0.7812 -0.2136 -0.4872
   56MOL0     N 7277   4.468   7.567   9.951  0.3707 -0.3431 -0.7105
   56MOL0     C 7278   4.373   7.650  10.008 -0.2708  1.0725 -0.5353
   56MOL0     C 7279   4.254   7.627   9.943  0.2427  0.0277  0.3663
   56MOL0     C 7280   4.124   7.703   9.951  0.3681 -0.6167  0.2735
   56MOL0     C 7281   4.029   7.655  10.067  0.0433 -1.6891 -0.4052
   56MOL0     C 7282   4.060   7.728  10.200  0.2630  0.0798  0.8166
   56MOL0     C 7283   3.953   7.688  10.305 -1.4198 -0.3473  1.0764
   56MOL0     O 7284   3.978   7.771  10.425  0.2932 -0.0893  0.1030
   56MOL0     C 7285   3.868   7.843  10.467 -0.4771  0.1569  0.0474
   56MOL0     C 7286   3.845   7.969  10.430  0.1276 -0.3492 -0.3152
   56MOL0     C 7287   3.725   8.028  10.467  0.1861  0.6185  0.6524
   56MOL0     C 7288   3.634   7.968  10.550  0.0938  0.0019 -0.6640
   56MOL0     C 7289   3.505   8.038  10.579 -1.0710 -0.3619  0.1370
   56MOL0     O 7290   3.396   7.964  10.625 -0.7691 -0.1149  0.4225
   56MOL0     C 7291   3.280   8.046  10.655  0.7807  0.6853 -0.1860
   56MOL0     C 7292   3.285   8.136  10.757 -1.0432 -0.1969  0.7733
   56MOL0     C 7293   3.183   8.222  10.791 -0.4511 -0.0268 -0.5335
   56MOL0     C 7294   3.063   8.229  10.708  0.5309 -0.0897  0.4089
   56MOL0     O 7295   2.966   8.316  10.708 -0.1170 -0.6975  0.4560
   56MOL0     C 7296   2.935   8.410  10.803 -0.4165  0.9467  0.5907
   56MOL0     C 7297   2.819   8.497  10.745 -0.5757 -0.0461  0.3766
   56MOL0     C 7298   2.748   8.578  10.858 -1.2615 -0.0460 -0.4661
   56MOL0     C 7299   2.834   8.681  10.930 -0.1477 -0.2494 -0.1738
   56MOL0     C 7300   2.858   8.815  10.847  0.1588  0.1141 -0.3361
   56MOL0     C 7301   2.891   8.936  10.931  0.5985 -0.7938 -1.3102
   56MOL0     C 7302   2.920   9.075  10.869 -0.1105  0.0868 -0.9630
   56MOL0     C 7303   2.948   9.176  10.979  0.3167  0.0666  0.1321
   56MOL0    Cl 7304   3.100   9.149  11.071  0.4915  0.0883 -0.3031
   56MOL0     C 7305   3.050   8.110  10.629 -0.3495 -0.0210  0.6595
   56MOL0     C 7306   3.153   8.024  10.608 -0.5164  0.2186  0.3422
   56MOL0     O 7307   3.497   8.162  10.558  0.2206  0.3288  0.2016
   56MOL0     C 7308   3.655   7.839  10.587 -0.5966  1.2210  0.3605
   56MOL0     C 7309   3.771   7.770  10.538  0.8699 -0.5634 -0.3517
   56MOL0     N 7310   4.284   7.529   9.844 -0.7454  0.0964  0.0274
   56MOL0     N 7311   4.415   7.505   9.839  0.0410  0.7919 -0.1172
   56MOL0     C 7312   4.922   6.547  10.229 -0.1433  0.5971 -0.1705
   56MOL0     C 7313   4.967   6.427  10.288 -0.3340  0.3869  0.2729
   56MOL0     C 7314   4.988   6.142  10.649 -0.6882  0.7771  0.6159
   56MOL0     C 7315   4.907   6.082  10.741  0.6210  0.3294  0.3332
   56MOL0     C 7316   4.964   5.984  10.816 -0.3121  0.1994 -0.6812
   56MOL0     C 7317   5.098   5.947  10.811 -1.3628 -0.0120  0.6490
   56MOL0     O 7318   5.153   5.860  10.889  0.3234 -0.5494 -0.2791
   56MOL0     C 7319   5.275   5.783  10.865 -0.2227 -0.1495 -0.5587
   56MOL0     C 7320   5.390   5.858  10.936  0.7524 -0.2200  0.1556
   56MOL0     C 7321   5.373   5.845  11.089 -0.6893  0.0544 -0.5702
   56MOL0     C 7322   5.391   5.702  11.162  0.2266 -0.1409 -0.2352
   56MOL0     C 7323   5.265   5.628  11.165  0.0225  0.8742 -0.0763
   56MOL0     C 7324   5.155   5.564  11.163 -0.9998 -0.5040  0.1064
   56MOL0     C 7325   5.176   6.010  10.715  0.0152 -0.5150 -0.1441
   56MOL0     C 7326   5.120   6.097  10.623 -1.0778 -0.2305 -1.4925
   56MOL0     H 7327   4.981   6.546  10.604 -3.8784 -0.2925  0.6437
   56MOL0     H 7328   4.914   6.768  10.490  0.6080  0.3734  1.0783
   56MOL0     H 7329   4.949   6.922  10.335 -2.7778 -1.3205  1.6156
   56MOL0     H 7330   4.785   6.913  10.325  2.0827 -1.5142  4.4522
   56MOL0     H 7331   4.783   6.988  10.075 -0.3195  0.5819  0.6931
   56MOL0     H 7332   4.964   6.986  10.092 -0.4075 -2.8858  1.4009
   56MOL0     H 7333   4.956   7.173  10.229  0.4075 -0.7623  1.3358
   56MOL0     H 7334   4.784   7.179  10.243  1.5242  0.3928  1.6661
   56MOL0     H 7335   4.970   7.211   9.997 -1.0333 -2.6190 -1.0596
   56MOL0     H 7336   4.796   7.232   9.980  0.4376 -0.9199  0.0543
   56MOL0     H 7337   4.976   7.416  10.131 -0.0166 -1.3271  1.5763
   56MOL0     H 7338   4.804   7.404  10.165 -0.4597  1.4264 -0.2637
   56MOL0     H 7339   4.936   7.465   9.907  0.4874  4.1457  1.3250
   56MOL0     H 7340   4.854   7.584  10.011  1.1075  0.4343 -2.1351
   56MOL0     H 7341   4.730   7.533   9.814  0.2787 -4.8181 -3.0941
   56MOL0     H 7342   4.690   7.381   9.874 -3.4405 -0.1503 -1.5929
   56MOL0     H 7343   4.640   7.632  10.031 -0.2653 -0.5151 -0.1538
   56MOL0     H 7344   4.593   7.474  10.086 -1.0737  1.6463  0.7859
   56MOL0     H 7345   4.393   7.728  10.080 -0.2000  1.6703 -1.1957
   56MOL0     H 7346   4.081   7.674   9.855  1.5370  0.9775 -0.7857
   56MOL0     H 7347   4.147   7.810   9.952  1.1526 -0.7486 -1.1874
   56MOL0     H 7348   4.036   7.547  10.084 -3.1653 -1.7475  1.2959
   56MOL0     H 7349   3.925   7.673  10.040 -0.3895 -3.4063 -0.0112
   56MOL0     H 7350   4.158   7.695  10.233  0.1830 -2.9728 -1.5555
   56MOL0     H 7351   4.063   7.837  10.191 -0.2658  0.0262 -0.2637
   56MOL0     H 7352   3.965   7.582  10.326 -0.2731 -0.2857  0.7993
   56MOL0     H 7353   3.858   7.706  10.253  0.8422  0.0625 -3.4374
   56MOL0     H 7354   3.918   8.019  10.367  0.0667  3.5882  2.3797
   56MOL0     H 7355   3.708   8.133  10.447 -1.3046  0.6184  1.7903
   56MOL0     H 7356   3.375   8.135  10.818  0.1201 -0.8712 -0.9047
   56MOL0     H 7357   3.210   8.295  10.866  1.2491 -0.9161 -0.2363
   56MOL0     H 7358   3.029   8.465  10.816  0.0350 -0.0669  1.8303
   56MOL0     H 7359   2.910   8.362  10.898 -1.3490  2.9373  1.4230
   56MOL0     H 7360   2.755   8.430  10.688  1.5302 -4.0897  2.3900
   56MOL0     H 7361   2.862   8.568  10.674 -2.2230  1.0345  0.3835
   56MOL0     H 7362   2.711   8.503  10.928 -0.6645 -0.5164 -0.6372
   56MOL0     H 7363   2.664   8.622  10.804 -1.4468  0.3395  0.1301
   56MOL0     H 7364   2.783   8.696  11.026  1.2836 -2.4745  1.0212
   56MOL0     H 7365   2.928   8.631  10.954  1.3251  1.5963 -1.8271
   56MOL0     H 7366   2.766   8.842  10.794 -1.1270  3.2742  3.0117
   56MOL0     H 7367   2.939   8.798  10.776  2.1898  1.3995  1.5604
   56MOL0     H 7368   2.980   8.915  10.992  1.0512  1.4353 -1.1138
   56MOL0     H 7369   2.803   8.948  10.996  0.0402 -1.3188 -1.9542
   56MOL0     H 7370   3.014   9.065  10.814  1.1564  2.1613  0.6709
   56MOL0     H 7371   2.841   9.120  10.808  0.2954  3.2801  0.6840
   56MOL0     H 7372   2.868   9.183  11.053 -1.1775  0.7277 -1.4800
   56MOL0     H 7373   2.958   9.278  10.940 -4.7658  1.3856  1.5277
   56MOL0     H 7374   2.959   8.087  10.575  1.5093  0.3549 -2.9081
   56MOL0     H 7375   3.130   7.932  10.554 -1.5874 -1.2072  3.0370
   56MOL0     H 7376   3.582   7.796  10.655 -0.9175  1.7524  0.3546
   56MOL0     H 7377   3.778   7.664  10.559 -1.4493 -1.0511 -1.7401
   56MOL0     H 7378   4.921   6.541  10.120  1.3892 -4.6567 -0.1813
   56MOL0     H 7379   4.976   6.334  10.233  1.5931  2.4987 -3.3795
   56MOL0     H 7380   4.802   6.111  10.749 -0.6915 -3.5329 -0.6710
   56MOL0     H 7381   4.909   5.946  10.901 -2.2183  3.4204 -0.2799
   56MOL0     H 7382   5.312   5.765  10.764  0.5242 -1.0597 -0.1437
   56MOL0     H 7383   5.259   5.695  10.929 -0.3024  0.8880  0.9048
   56MOL0     H 7384   5.492   5.823  10.917  0.1416 -1.9575 -0.0471
   56MOL0     H 7385   5.393   5.965  10.913  1.9449 -0.2874 -0.0753
   56MOL0     H 7386   5.274   5.880  11.120  0.3709  1.4497  1.5163
   56MOL0     H 7387   5.442   5.913  11.139 -1.9537  1.4210 -0.6165
   56MOL0     H 7388   5.475   5.660  11.107  1.1772  0.6050  0.5939
   56MOL0     H 7389   5.441   5.705  11.260  2.0894 -0.7378 -1.1124
   56MOL0     H 7390   5.059   5.518  11.156 -2.1228  1.4295  1.7086
   56MOL0     H 7391   5.277   5.973  10.698  0.0590 -0.9923  1.0518
   56MOL0     H 7392   5.186   6.136  10.545 -2.0561 -2.2876 -3.4699
   57MOL0     O 7393  10.452  11.148   8.480  0.3595 -0.7780  0.2281
   57MOL0     C 7394  10.534  11.211   8.545  0.1865  0.5394 -1.1997
   57MOL0     O 7395  10.573  11.346   8.523 -0.4498 -0.2994 -0.1493
   57MOL0     C 7396  10.531  11.401   8.404 -0.3605  1.3268  0.0431
   57MOL0     C 7397  10.517  11.345   8.276  0.5100 -0.8746  0.2949
   57MOL0     C 7398  10.462  11.419   8.174 -0.0544  0.6746  0.5035
   57MOL0     C 7399  10.453  11.557   8.186 -0.7702  0.7227 -0.0513
   57MOL0     O 7400  10.407  11.642   8.088 -0.0164  0.2762  0.6234
   57MOL0     C 7401  10.325  11.587   7.977 -0.5835 -0.2279  0.9855
   57MOL0     C 7402  10.203  11.514   8.033  0.0760 -0.3788  0.1641
   57MOL0     C 7403  10.092  11.490   7.933 -0.4878  0.3723  0.5334
   57MOL0     C 7404   9.997  11.388   7.980  0.4754 -0.2216 -0.0680
   57MOL0     C 7405   9.904  11.345   7.870 -1.2597 -0.1590  0.5336
   57MOL0     C 7406   9.832  11.223   7.907 -0.0512  0.7545 -0.1021
   57MOL0     C 7407   9.714  11.181   7.819  0.2518 -0.4008  0.6102
   57MOL0     C 7408   9.599  11.277   7.833  0.4746 -0.0453 -1.2471
   57MOL0     N 7409   9.531  11.287   7.966 -0.5175  0.0359  0.5057
   57MOL0     C 7410   9.513  11.395   8.049  0.1288  0.0073  0.4810
   57MOL0     C 7411   9.458  11.343   8.165 -0.8771  0.3127  0.3135
   57MOL0     C 7412   9.374  11.411   8.268 -0.2481 -0.0538  0.5931
   57MOL0     C 7413   9.473  11.503   8.347  0.6348 -0.7590 -0.9378
   57MOL0     C 7414   9.394  11.573   8.458  0.3000 -0.2343  0.7539
   57MOL0     C 7415   9.342  11.476   8.562 -0.7490  0.3211  0.3522
   57MOL0     O 7416   9.286  11.546   8.675  0.3527  0.1914  0.8580
   57MOL0     C 7417   9.298  11.479   8.791 -0.2546  0.3397  1.1573
   57MOL0     C 7418   9.320  11.558   8.904  0.3020 -0.2573 -0.2441
   57MOL0     C 7419   9.337  11.500   9.029  0.5050 -0.7296 -1.0806
   57MOL0     C 7420   9.316  11.367   9.048 -0.0760 -0.0408  0.0827
   57MOL0     C 7421   9.324  11.302   9.187  0.1744 -0.6919  0.1773
   57MOL0     O 7422   9.289  11.170   9.204 -0.1368  0.0040  0.3415
   57MOL0     C 7423   9.311  11.113   9.327 -0.3211 -0.4419  0.3381
   57MOL0     C 7424   9.213  11.046   9.398  0.4259 -0.4331 -0.5240
   57MOL0     C 7425   9.227  10.977   9.521  0.0282 -0.7055 -0.0559
   57MOL0     C 7426   9.358  10.975   9.580 -0.0768 -0.3241 -0.3918
   57MOL0     O 7427   9.373  10.910   9.698 -0.6072 -0.8465 -0.2982
   57MOL0     C 7428   9.503  10.902   9.762  0.6274  0.5641 -0.1348
   57MOL0     C 7429   9.487  10.812   9.889  0.5812 -0.0006  0.2809
   57MOL0     C 7430   9.456  10.661   9.853 -0.1684  0.3277 -0.0350
   57MOL0     C 7431   9.305  10.639   9.838  1.1222  1.0533  0.7179
   57MOL0     C 7432   9.268  10.515   9.739  0.0384 -1.2415  0.0540
   57MOL0     C 7433   9.252  10.547   9.596  0.0198 -0.6712 -0.2377
   57MOL0     C 7434   9.369  10.609   9.531 -0.3198 -0.0551  1.3063
   57MOL0     C 7435   9.331  10.628   9.385 -0.4166 -0.2029  0.4447
   57MOL0    Cl 7436   9.383  10.487   9.296 -0.1371 -0.1847 -0.0386
   57MOL0     C 7437   9.462  11.040   9.511 -0.0269  1.0875  0.2489
   57MOL0     C 7438   9.435  11.103   9.384  0.6128 -0.8699 -0.9789
   57MOL0     O 7439   9.374  11.374   9.275 -0.1947  0.3345  0.0203
   57MOL0     C 7440   9.277  11.290   8.940 -0.1713  0.9236 -0.2925
   57MOL0     C 7441   9.269  11.346   8.812 -0.6634  0.7755  0.0788
   57MOL0     N 7442   9.467  11.200   8.148 -0.6213  0.2061 -0.6709
   57MOL0     N 7443   9.500  11.164   8.030 -0.3740  0.0528  0.7989
   57MOL0     C 7444  10.477  11.612   8.315  0.2511 -0.0964  1.0910
   57MOL0     C 7445  10.511  11.541   8.426  0.3002 -0.0427  0.6879
   57MOL0     C 7446  10.585  11.155   8.672 -0.2519  0.3753 -0.6084
   57MOL0     C 7447  10.543  11.042   8.735 -0.7537 -0.5706 -0.5675
   57MOL0     C 7448  10.588  10.996   8.859  0.1366  0.0032  0.0042
   57MOL0     C 7449  10.674  11.074   8.935 -1.0401  0.4076  0.0462
   57MOL0     O 7450  10.711  11.030   9.059  0.3956 -0.3754 -0.7527
   57MOL0     C 7451  10.807  11.094   9.140 -0.7615 -0.2535  0.1573
   57MOL0     C 7452  10.786  11.075   9.297  0.2014  0.9579 -0.6471
   57MOL0     C 7453  10.643  11.088   9.338 -0.9875 -0.4412  0.4669
   57MOL0     C 7454  10.621  11.068   9.491  0.0280  0.0654 -0.2603
   57MOL0     C 7455  10.476  11.067   9.509 -0.0203  0.4919 -0.0135
   57MOL0     C 7456  10.357  11.086   9.516  0.0404 -0.3713 -0.0700
   57MOL0     C 7457  10.733  11.184   8.867 -0.2958 -0.0835  0.1448
   57MOL0     C 7458  10.683  11.224   8.743 -0.6179  0.8114  0.8685
   57MOL0     H 7459  10.546  11.243   8.252  1.4934 -0.8849  1.4165
   57MOL0     H 7460  10.433  11.372   8.080 -1.5580 -0.5085  1.5094
   57MOL0     H 7461  10.392  11.522   7.920  0.8395  1.2024  0.9587
   57MOL0     H 7462  10.307  11.671   7.909  0.1466 -1.8220 -1.3055
   57MOL0     H 7463  10.164  11.563   8.122 -1.0385 -3.4990  1.5538
   57MOL0     H 7464  10.228  11.410   8.058 -1.1646 -0.2006  2.4082
   57MOL0     H 7465  10.137  11.450   7.842 -1.5943  1.0909 -0.3638
   57MOL0     H 7466  10.044  11.582   7.900 -0.0170  0.1427 -0.8488
   57MOL0     H 7467  10.057  11.301   8.011 -0.2002 -0.1040  1.7065
   57MOL0     H 7468   9.943  11.430   8.065  0.8824  1.0701 -0.4222
   57MOL0     H 7469   9.966  11.324   7.782  1.1918 -0.0950  2.1348
   57MOL0     H 7470   9.843  11.431   7.840  1.4489  0.8199 -2.8911
   57MOL0     H 7471   9.801  11.248   8.009 -2.3414  5.6215 -1.6553
   57MOL0     H 7472   9.894  11.133   7.915 -1.1296  0.1318  1.8276
   57MOL0     H 7473   9.743  11.182   7.714  0.2860 -2.4876  0.5440
   57MOL0     H 7474   9.685  11.075   7.818  0.0330 -0.3887 -2.0797
   57MOL0     H 7475   9.508  11.258   7.776 -0.6901  0.3139  0.4089
   57MOL0     H 7476   9.638  11.379   7.827 -0.6107  0.8045  2.7639
   57MOL0     H 7477   9.516  11.502   8.031  0.0483 -0.3951 -2.3912
   57MOL0     H 7478   9.331  11.332   8.330 -1.7085 -1.1539 -1.7003
   57MOL0     H 7479   9.303  11.477   8.216  0.1363 -0.8510 -0.9663
   57MOL0     H 7480   9.516  11.570   8.272 -1.5784 -1.2040 -2.7268
   57MOL0     H 7481   9.546  11.434   8.391  2.3869  0.0296 -2.4931
   57MOL0     H 7482   9.476  11.625   8.508 -0.1947 -0.2187  1.5642
   57MOL0     H 7483   9.317  11.645   8.428 -1.3664 -1.7904  1.1479
   57MOL0     H 7484   9.427  11.410   8.579 -0.2071  0.7016 -0.7744
   57MOL0     H 7485   9.261  11.416   8.519  1.2597 -3.5792  1.5428
   57MOL0     H 7486   9.371  11.654   8.907  1.1272 -0.7023  2.2583
   57MOL0     H 7487   9.365  11.565   9.112  0.1409  0.5610 -1.9367
   57MOL0     H 7488   9.112  11.043   9.358  0.3037  3.2866 -0.8513
   57MOL0     H 7489   9.142  10.917   9.550 -0.3965  0.1280  0.4423
   57MOL0     H 7490   9.541  10.996   9.803 -0.4592  0.4957  1.0823
   57MOL0     H 7491   9.583  10.860   9.700  0.8237  2.0646 -0.9536
   57MOL0     H 7492   9.412  10.855   9.956  0.7168 -1.8251  1.6577
   57MOL0     H 7493   9.583  10.810   9.941 -1.3081  0.3558  4.0727
   57MOL0     H 7494   9.476  10.610   9.948  3.2984  3.5633  1.1959
   57MOL0     H 7495   9.518  10.630   9.768  0.6356 -0.2907  0.7548
   57MOL0     H 7496   9.272  10.609   9.938 -0.8661  0.8961  0.0580
   57MOL0     H 7497   9.269  10.736   9.801  3.2985  0.8028 -2.3789
   57MOL0     H 7498   9.174  10.484   9.786 -1.0224  0.8236 -0.5622
   57MOL0     H 7499   9.341  10.434   9.737  0.1488 -1.1558 -2.4522
   57MOL0     H 7500   9.172  10.618   9.574  2.0416  1.9476  0.3528
   57MOL0     H 7501   9.233  10.447   9.555 -2.1988 -0.2393 -0.4255
   57MOL0     H 7502   9.380  10.712   9.569  1.2024 -0.6637  2.6547
   57MOL0     H 7503   9.463  10.557   9.549 -0.7125 -0.7216  1.4564
   57MOL0     H 7504   9.375  10.722   9.349 -2.2937 -0.0726 -1.7052
   57MOL0     H 7505   9.224  10.636   9.365 -0.2972  2.6140  0.4324
   57MOL0     H 7506   9.556  11.019   9.560 -1.4642  0.1006  2.7976
   57MOL0     H 7507   9.513  11.153   9.327 -1.6083  2.8530 -1.0700
   57MOL0     H 7508   9.253  11.185   8.952 -0.4338  1.0722  0.5640
   57MOL0     H 7509   9.265  11.270   8.734 -0.8140 -0.8732  1.6506
   57MOL0     H 7510  10.452  11.717   8.326  1.3732  0.6049 -1.9822
   57MOL0     H 7511  10.515  11.582   8.526 -1.8003  1.6018  0.1569
   57MOL0     H 7512  10.471  10.974   8.690 -1.2250 -1.5389  1.5055
   57MOL0     H 7513  10.563  10.905   8.913 -1.0586  0.4838  0.2853
   57MOL0     H 7514  10.806  11.203   9.139 -1.2562 -0.2289  1.6476
   57MOL0     H 7515  10.909  11.068   9.110  0.1054 -0.6060  3.1524
   57MOL0     H 7516  10.814  10.970   9.314  0.2472  0.3560 -3.7904
   57MOL0     H 7517  10.847  11.136   9.364 -1.1375  3.1711 -1.3302
   57MOL0     H 7518  10.584  11.013   9.285 -2.9082 -0.5482  2.5922
   57MOL0     H 7519  10.609  11.189   9.314  1.0759  0.1535 -0.1332
   57MOL0     H 7520  10.668  10.978   9.531 -0.4722  0.4548  1.2711
   57MOL0     H 7521  10.663  11.144   9.557 -2.4742 -0.4315  2.0708
   57MOL0     H 7522  10.253  11.108   9.507 -0.0109 -0.6321 -0.1139
   57MOL0     H 7523  10.808  11.245   8.916 -0.6519 -0.2263  0.8718
   57MOL0     H 7524  10.737  11.308   8.700 -1.7705  0.2531 -1.8850
   58MOL0     O 7525   7.065  11.012   8.156 -0.1157 -0.6031  0.3841
   58MOL0     C 7526   7.089  10.930   8.243 -0.3393 -0.3412  1.0956
   58MOL0     O 7527   7.021  10.810   8.256  0.1362 -0.4914  0.4428
   58MOL0     C 7528   6.945  10.765   8.145 -0.9439 -0.5258 -0.6188
   58MOL0     C 7529   6.836  10.842   8.107 -0.0843  0.4598 -0.2444
   58MOL0     C 7530   6.732  10.782   8.029  0.3258  0.0085  0.9327
   58MOL0     C 7531   6.753  10.652   7.971 -0.6117 -0.8053  0.0214
   58MOL0     O 7532   6.663  10.589   7.892  0.1282  0.0420 -0.6001
   58MOL0     C 7533   6.643  10.637   7.767 -0.1518  0.0930 -0.0084
   58MOL0     C 7534   6.561  10.544   7.681  0.1459  0.0690 -0.5632
   58MOL0     C 7535   6.629  10.415   7.648  1.0848 -0.5082  0.2455
   58MOL0     C 7536   6.531  10.345   7.557  0.7868  0.0364 -0.4177
   58MOL0     C 7537   6.589  10.208   7.539  0.6426  0.6465  0.1544
   58MOL0     C 7538   6.511  10.113   7.438  0.2138  0.1316  0.5186
   58MOL0     C 7539   6.518  10.151   7.295  0.1831 -1.3281 -0.4573
   58MOL0     C 7540   6.652  10.107   7.230  0.4792 -0.0979  0.6924
   58MOL0     N 7541   6.651  10.140   7.091 -0.4840  0.1376  0.6491
   58MOL0     C 7542   6.586  10.076   6.979  0.1961  0.0459  0.1186
   58MOL0     C 7543   6.629  10.146   6.864  0.2032 -0.3062 -0.6550
   58MOL0     C 7544   6.581  10.130   6.723  0.4138  0.2888  0.3600
   58MOL0     C 7545   6.536   9.977   6.704  0.0311 -0.3219 -0.6596
   58MOL0     C 7546   6.477   9.953   6.559 -0.5218  0.5361 -0.4801
   58MOL0     C 7547   6.538   9.841   6.491  0.3708  0.1346  0.2671
   58MOL0     O 7548   6.501   9.719   6.552  0.3245 -0.3173 -0.4816
   58MOL0     C 7549   6.589   9.615   6.563 -0.2549 -0.5339  0.6262
   58MOL0     C 7550   6.688   9.590   6.472  0.0701 -0.3184  1.1735
   58MOL0     C 7551   6.782   9.488   6.489  0.9317  0.3418  0.0178
   58MOL0     C 7552   6.787   9.410   6.606 -0.0299 -0.1933 -0.4844
   58MOL0     C 7553   6.891   9.310   6.641 -0.0875 -0.2666 -0.7893
   58MOL0     O 7554   7.006   9.303   6.560  0.7593 -0.5590  0.5004
   58MOL0     C 7555   7.110   9.219   6.598  0.4657  0.7079  0.1376
   58MOL0     C 7556   7.185   9.249   6.705  0.0381 -0.7990  0.3026
   58MOL0     C 7557   7.283   9.160   6.754 -0.0844 -0.7282  0.1270
   58MOL0     C 7558   7.311   9.046   6.682 -0.0389 -0.0928 -0.6497
   58MOL0     O 7559   7.386   8.947   6.733  0.4935 -0.3207 -0.5990
   58MOL0     C 7560   7.505   8.985   6.805 -0.0723  0.6831  0.6249
   58MOL0     C 7561   7.597   8.858   6.817  0.0956  0.4573  0.1328
   58MOL0     C 7562   7.729   8.908   6.859 -0.2571 -0.9781  0.2686
   58MOL0     C 7563   7.800   8.799   6.934  0.0706  0.1044 -0.3400
   58MOL0     C 7564   7.947   8.815   6.920  0.3495 -0.7442  0.7520
   58MOL0     C 7565   8.012   8.696   6.973  1.0754  0.1344  0.0158
   58MOL0     C 7566   8.166   8.734   7.015 -0.0160  0.0359  0.1845
   58MOL0     C 7567   8.247   8.609   7.055  0.7938 -0.4525  0.4975
   58MOL0    Cl 7568   8.230   8.503   6.910  0.1963  0.6748  0.3763
   58MOL0     C 7569   7.239   9.025   6.569  0.7756 -0.3399  0.4949
   58MOL0     C 7570   7.135   9.101   6.530 -0.2797  0.6501 -1.0592
   58MOL0     O 7571   6.880   9.252   6.749  0.3444  0.0432 -0.6342
   58MOL0     C 7572   6.681   9.433   6.702 -0.1437 -0.7118 -0.5244
   58MOL0     C 7573   6.585   9.530   6.667 -0.9331 -0.6292 -0.7733
   58MOL0     N 7574   6.714  10.248   6.909 -0.2378 -0.4072 -0.1952
   58MOL0     N 7575   6.730  10.240   7.039  0.3538 -0.0532 -0.3506
   58MOL0     C 7576   6.877  10.592   7.999  0.3060 -0.1535  0.1306
   58MOL0     C 7577   6.973  10.633   8.092  0.1387 -0.8213  0.8769
   58MOL0     C 7578   7.194  10.961   8.335 -0.6714  0.0069  0.3697
   58MOL0     C 7579   7.195  11.095   8.386 -0.3937  0.6373 -0.2664
   58MOL0     C 7580   7.297  11.133   8.476  0.5728  0.1825  0.5651
   58MOL0     C 7581   7.401  11.049   8.514 -1.2857 -0.3849  0.1672
   58MOL0     O 7582   7.504  11.090   8.603 -0.6274 -0.3313 -0.0715
   58MOL0     C 7583   7.606  11.172   8.546  0.2567  0.5353  0.3462
   58MOL0     C 7584   7.684  11.247   8.658 -0.6091  0.1559 -1.0869
   58MOL0     C 7585   7.817  11.316   8.622  0.2331 -0.3291 -0.9949
   58MOL0     C 7586   7.925  11.302   8.720  0.0241 -0.0350  0.0789
   58MOL0     C 7587   7.899  11.389   8.835  0.7790 -0.2809 -1.0334
   58MOL0     C 7588   7.864  11.434   8.938  0.4132 -0.0359 -0.3893
   58MOL0     C 7589   7.398  10.917   8.453 -0.3513  1.0300  0.4363
   58MOL0     C 7590   7.303  10.879   8.366  0.2142  0.2538  0.1580
   58MOL0     H 7591   6.806  10.936   8.153 -0.8228 -0.2643  0.8157
   58MOL0     H 7592   6.645  10.843   8.007  1.4936  0.9955 -1.3229
   58MOL0     H 7593   6.734  10.667   7.714 -0.5646  0.4888 -0.5070
   58MOL0     H 7594   6.589  10.732   7.778 -1.9241 -1.0159  1.4404
   58MOL0     H 7595   6.529  10.593   7.589 -1.2107 -2.6961 -1.6916
   58MOL0     H 7596   6.474  10.526   7.744  1.2272  0.5168  1.1349
   58MOL0     H 7597   6.640  10.357   7.740 -1.7204 -1.2419  0.1954
   58MOL0     H 7598   6.719  10.441   7.591 -1.1406  1.3555 -2.7049
   58MOL0     H 7599   6.435  10.341   7.609  1.8288  0.4893  1.6188
   58MOL0     H 7600   6.515  10.408   7.468  2.0918  3.3612  1.5084
   58MOL0     H 7601   6.576  10.168   7.639 -4.5964 -1.1112 -0.9135
   58MOL0     H 7602   6.695  10.217   7.513  0.2665  3.4962 -0.7504
   58MOL0     H 7603   6.406  10.105   7.467 -0.8291 -0.7720 -2.9681
   58MOL0     H 7604   6.529  10.005   7.436 -1.8420 -0.2590  1.3952
   58MOL0     H 7605   6.427  10.125   7.239 -1.4607  4.3331 -1.0653
   58MOL0     H 7606   6.499  10.258   7.286  0.1302 -1.3130 -0.1871
   58MOL0     H 7607   6.648   9.999   7.248 -1.6636  0.0784  1.6502
   58MOL0     H 7608   6.741  10.144   7.283  0.0014 -1.5167  2.6213
   58MOL0     H 7609   6.502  10.007   6.984 -1.2336  1.6621 -0.6492
   58MOL0     H 7610   6.655  10.154   6.646 -1.0697 -2.3796 -2.1008
   58MOL0     H 7611   6.499  10.193   6.689 -2.1637 -2.6165  0.8085
   58MOL0     H 7612   6.450   9.953   6.766 -0.2636  0.5765 -0.7068
   58MOL0     H 7613   6.621   9.912   6.727 -1.0390 -0.8251  2.1888
   58MOL0     H 7614   6.368   9.941   6.563 -0.3122 -1.4018  2.1417
   58MOL0     H 7615   6.512  10.039   6.502  4.4683 -1.9672 -1.8089
   58MOL0     H 7616   6.648   9.845   6.491  0.8135 -4.8613  0.7818
   58MOL0     H 7617   6.501   9.843   6.388 -0.6956 -0.2707  0.6302
   58MOL0     H 7618   6.691   9.648   6.380 -1.1546  0.1730  1.4279
   58MOL0     H 7619   6.862   9.473   6.417  2.0290 -0.1439  1.2978
   58MOL0     H 7620   7.156   9.335   6.765 -1.5747 -1.2353  0.1801
   58MOL0     H 7621   7.346   9.192   6.836 -0.5191 -1.7918  0.8975
   58MOL0     H 7622   7.468   9.016   6.903  0.1835  1.7136  0.4136
   58MOL0     H 7623   7.553   9.075   6.764  1.8619  0.2647  1.8741
   58MOL0     H 7624   7.601   8.803   6.723 -1.4956  2.4428 -1.1831
   58MOL0     H 7625   7.560   8.791   6.895  2.6298 -0.7721  0.3837
   58MOL0     H 7626   7.716   8.993   6.927  0.0864 -0.1725 -0.6436
   58MOL0     H 7627   7.794   8.945   6.779  1.5958  1.8216  2.7979
   58MOL0     H 7628   7.769   8.786   7.038 -0.7589  1.6676 -0.3650
   58MOL0     H 7629   7.773   8.710   6.875 -0.1822 -0.0543  0.0111
   58MOL0     H 7630   7.978   8.907   6.971  2.9950  2.5691 -5.6838
   58MOL0     H 7631   7.979   8.822   6.816  1.0256  0.8028  1.0346
   58MOL0     H 7632   8.010   8.620   6.895  0.9810 -0.3963  0.5288
   58MOL0     H 7633   7.958   8.652   7.058 -2.3597 -2.7178 -3.2842
   58MOL0     H 7634   8.207   8.794   6.933 -3.5822  0.4315 -1.4902
   58MOL0     H 7635   8.154   8.804   7.098 -3.5624 -0.5637  0.3327
   58MOL0     H 7636   8.201   8.557   7.140 -0.6352  1.0276  0.6812
   58MOL0     H 7637   8.348   8.643   7.081  1.2857 -0.6101 -1.1368
   58MOL0     H 7638   7.253   8.940   6.502 -0.9628 -1.6415  1.7037
   58MOL0     H 7639   7.086   9.070   6.439 -1.2803 -0.2125 -0.2460
   58MOL0     H 7640   6.654   9.374   6.789  0.0843 -0.0240  0.0124
   58MOL0     H 7641   6.499   9.536   6.733  0.3211 -2.7924  1.2061
   58MOL0     H 7642   6.914  10.504   7.947  1.6205  1.4413 -1.7827
   58MOL0     H 7643   7.065  10.583   8.121 -0.0229 -0.7142  1.5863
   58MOL0     H 7644   7.115  11.167   8.377 -0.2121  0.8079 -0.5199
   58MOL0     H 7645   7.303  11.235   8.513 -1.9462  0.6813 -0.1945
   58MOL0     H 7646   7.554  11.246   8.485  0.3026  0.2965  0.0191
   58MOL0     H 7647   7.672  11.115   8.481  0.3524 -1.8504  2.4034
   58MOL0     H 7648   7.619  11.326   8.695  0.6920  2.3454 -3.1706
   58MOL0     H 7649   7.704  11.169   8.732  2.4747  1.9099  0.0908
   58MOL0     H 7650   7.807  11.424   8.607 -0.5556 -0.4117 -1.1030
   58MOL0     H 7651   7.838  11.268   8.526 -1.1063  0.6820 -1.8270
   58MOL0     H 7652   7.940  11.196   8.740 -0.7595  0.0224  1.0612
   58MOL0     H 7653   8.024  11.328   8.681  1.1430  0.1074  2.8023
   58MOL0     H 7654   7.828  11.457   9.036  0.2266 -1.1431 -0.1812
   58MOL0     H 7655   7.480  10.854   8.486  0.0838  2.1318  1.5090
   58MOL0     H 7656   7.319  10.777   8.332 -0.5284 -0.2212  1.1972
   59MOL0     O 7657   2.858   3.849   2.113 -0.1850 -0.5835  0.1750
   59MOL0     C 7658   2.770   3.782   2.168 -0.2943 -0.0015 -0.5248
   59MOL0     O 7659   2.639   3.789   2.140 -0.1334  0.5114 -0.2696
   59MOL0     C 7660   2.597   3.832   2.016  0.0381 -0.2036  0.0636
   59MOL0     C 7661   2.654   3.800   1.889 -0.9187  0.3117  0.9575
   59MOL0     C 7662   2.596   3.834   1.770  0.3517  0.6702 -0.1864
   59MOL0     C 7663   2.466   3.885   1.764 -0.6094 -0.1705 -0.3655
   59MOL0     O 7664   2.390   3.926   1.659  0.0113  0.1848 -0.0947
   59MOL0     C 7665   2.420   3.883   1.529  0.2589 -0.2428  0.2865
   59MOL0     C 7666   2.534   3.955   1.443  0.4219  0.2473  0.9222
   59MOL0     C 7667   2.569   3.860   1.323  0.4965 -0.0554  0.1432
   59MOL0     C 7668   2.680   3.921   1.237 -0.2865  0.2157 -0.3670
   59MOL0     C 7669   2.691   3.848   1.098  0.0768 -0.0586  0.7421
   59MOL0     C 7670   2.843   3.861   1.041  0.4560  0.4473  0.2050
   59MOL0     C 7671   2.842   3.990   0.954 -0.2561  0.2525  0.9798
   59MOL0     C 7672   2.974   3.978   0.878 -0.1820  0.3772 -0.5065
   59MOL0     N 7673   3.022   4.100   0.811 -0.4820 -0.9482  0.0291
   59MOL0     C 7674   3.133   4.112   0.719  1.0335 -0.1490 -0.1035
   59MOL0     C 7675   3.127   4.237   0.670  0.9862  0.6558  0.2172
   59MOL0     C 7676   3.218   4.280   0.557 -1.2256 -0.7816 -1.1338
   59MOL0     C 7677   3.287   4.421   0.596  0.0596  0.4282  0.3277
   59MOL0     C 7678   3.389   4.395   0.708 -0.0425 -0.1710 -0.1401
   59MOL0     C 7679   3.342   4.476   0.841 -0.1174  0.1524  0.1127
   59MOL0     O 7680   3.411   4.403   0.949  0.3589  0.1133  0.0460
   59MOL0     C 7681   3.328   4.364   1.046 -0.6767  0.2581  0.5993
   59MOL0     C 7682   3.240   4.260   1.042  1.0964 -0.0720 -0.3490
   59MOL0     C 7683   3.139   4.233   1.134 -0.5129  0.3631  0.0937
   59MOL0     C 7684   3.132   4.302   1.256  0.6692 -1.1225 -0.6839
   59MOL0     C 7685   3.033   4.275   1.362  0.3172 -0.2064  0.2400
   59MOL0     O 7686   3.015   4.371   1.461 -0.9512  0.4116  0.9464
   59MOL0     C 7687   2.940   4.351   1.561  1.1373  0.4492 -0.1354
   59MOL0     C 7688   2.982   4.399   1.686 -0.2349 -0.0166 -0.3165
   59MOL0     C 7689   2.891   4.394   1.794  0.7572  0.2558 -0.2670
   59MOL0     C 7690   2.766   4.337   1.784  0.1695  0.7689  0.5963
   59MOL0     O 7691   2.679   4.360   1.884  0.3922  0.5001  0.2292
   59MOL0     C 7692   2.599   4.253   1.919  0.5324  0.3071  0.7049
   59MOL0     C 7693   2.638   4.189   2.050  0.9121  0.6512 -0.6737
   59MOL0     C 7694   2.705   4.277   2.153 -0.1467 -0.7200 -0.0478
   59MOL0     C 7695   2.715   4.204   2.287 -1.1645  0.1720 -0.5533
   59MOL0     C 7696   2.809   4.257   2.384 -0.1666  0.0193 -0.5924
   59MOL0     C 7697   2.825   4.153   2.506 -0.2855 -0.5733 -0.2830
   59MOL0     C 7698   2.943   4.183   2.588  0.6340 -0.9542  0.2248
   59MOL0     C 7699   2.907   4.265   2.725  0.0078  0.6796  0.2882
   59MOL0    Cl 7700   2.774   4.388   2.705  0.1895  0.3587  0.1449
   59MOL0     C 7701   2.723   4.294   1.658  0.7360  0.1123  0.0305
   59MOL0     C 7702   2.804   4.300   1.550  0.4928 -0.2469  0.6025
   59MOL0     O 7703   2.955   4.182   1.340  0.0386  0.1280  0.2647
   59MOL0     C 7704   3.231   4.411   1.273 -0.3180 -0.3353  0.3610
   59MOL0     C 7705   3.322   4.438   1.170 -0.2823 -0.2033 -0.1989
   59MOL0     N 7706   3.015   4.300   0.727 -0.2246  0.2423  0.2736
   59MOL0     N 7707   2.962   4.229   0.813  0.1104  0.3354 -0.7865
   59MOL0     C 7708   2.411   3.922   1.888  0.2318  1.0958  0.2293
   59MOL0     C 7709   2.475   3.897   2.010 -0.4621  0.1014 -0.3874
   59MOL0     C 7710   2.820   3.676   2.264  0.1644 -0.3685  0.0145
   59MOL0     C 7711   2.726   3.583   2.308  0.8322  0.2782  0.6822
   59MOL0     C 7712   2.767   3.461   2.364  0.8321  1.0414  0.4810
   59MOL0     C 7713   2.897   3.444   2.394 -0.4930  0.3700  0.1611
   59MOL0     O 7714   2.940   3.316   2.445  0.2587 -0.1800 -0.6757
   59MOL0     C 7715   2.855   3.202   2.486 -0.6682 -0.0794 -0.1560
   59MOL0     C 7716   2.800   3.233   2.625  0.0744  0.1700  0.7618
   59MOL0     C 7717   2.899   3.269   2.738  0.3674 -0.0420 -1.0593
   59MOL0     C 7718   3.004   3.169   2.747  0.0608  1.5256 -0.7339
   59MOL0     C 7719   3.056   3.170   2.880 -0.8023  0.2810 -0.0659
   59MOL0     C 7720   3.121   3.176   2.981  0.1196  0.0929 -0.4402
   59MOL0     C 7721   2.987   3.530   2.360  0.2884  0.7686  0.4510
   59MOL0     C 7722   2.955   3.642   2.292  1.3111 -0.1702  0.5088
   59MOL0     H 7723   2.754   3.757   1.881 -1.1922 -0.0096 -1.1174
   59MOL0     H 7724   2.641   3.791   1.681 -1.6277  0.3286 -1.0672
   59MOL0     H 7725   2.331   3.890   1.466  0.1166 -1.5626  0.3200
   59MOL0     H 7726   2.439   3.776   1.536 -1.4521 -0.4790  1.7883
   59MOL0     H 7727   2.618   3.975   1.511  3.8780 -3.1044 -1.8701
   59MOL0     H 7728   2.490   4.047   1.403 -2.1817 -1.2912  0.0706
   59MOL0     H 7729   2.489   3.849   1.249  1.0036 -2.4151 -0.1455
   59MOL0     H 7730   2.582   3.758   1.361 -1.7179 -0.3357  0.2520
   59MOL0     H 7731   2.671   4.029   1.225 -0.6931  0.1078 -1.1290
   59MOL0     H 7732   2.770   3.899   1.295  0.1368 -0.1281 -1.1280
   59MOL0     H 7733   2.627   3.889   1.020 -0.6950 -2.1891  0.2016
   59MOL0     H 7734   2.666   3.745   1.123 -0.5684 -0.5018 -1.4827
   59MOL0     H 7735   2.851   3.769   0.981  1.5197  0.8831 -0.3466
   59MOL0     H 7736   2.926   3.846   1.110  2.6438 -0.5688 -2.4514
   59MOL0     H 7737   2.763   3.977   0.880  1.7131 -0.3467 -1.1068
   59MOL0     H 7738   2.825   4.078   1.017 -1.5275  1.5097 -1.0125
   59MOL0     H 7739   2.968   3.890   0.813 -0.6193 -0.2977  0.4297
   59MOL0     H 7740   3.050   3.959   0.954 -0.8132  1.9964  0.5866
   59MOL0     H 7741   3.186   4.026   0.680 -1.3514 -1.4617 -0.6512
   59MOL0     H 7742   3.167   4.298   0.462  2.7149  1.0900 -3.1570
   59MOL0     H 7743   3.303   4.212   0.542  1.8038  1.9514  1.8952
   59MOL0     H 7744   3.206   4.490   0.623 -1.7083  0.0401 -3.2743
   59MOL0     H 7745   3.330   4.454   0.501 -2.5973  0.2118 -1.0555
   59MOL0     H 7746   3.391   4.288   0.727  2.9271  0.0327  1.2483
   59MOL0     H 7747   3.489   4.429   0.678 -0.7879  1.1717 -1.2440
   59MOL0     H 7748   3.234   4.467   0.849  0.2081 -2.4672  4.1072
   59MOL0     H 7749   3.385   4.576   0.843  1.0284 -0.3300  1.6204
   59MOL0     H 7750   3.247   4.218   0.942  0.0228  2.1585 -1.4262
   59MOL0     H 7751   3.070   4.151   1.116  0.9470 -1.2751  1.5928
   59MOL0     H 7752   3.082   4.436   1.707 -0.2828 -0.4947  0.8061
   59MOL0     H 7753   2.911   4.446   1.887 -0.0806 -1.1549  0.7383
   59MOL0     H 7754   2.594   4.170   1.848 -4.7515  0.0985  0.9110
   59MOL0     H 7755   2.498   4.294   1.923 -0.1743 -1.0937 -1.4567
   59MOL0     H 7756   2.701   4.100   2.038  0.5259  0.3861 -0.7439
   59MOL0     H 7757   2.538   4.161   2.084  1.0154 -1.0492 -1.6190
   59MOL0     H 7758   2.645   4.369   2.159 -0.6913 -1.0663 -0.0955
   59MOL0     H 7759   2.800   4.311   2.111 -0.9228  2.3245  0.3619
   59MOL0     H 7760   2.623   4.187   2.343 -1.7722  0.7123 -1.3606
   59MOL0     H 7761   2.747   4.106   2.249 -2.7332  0.6267 -3.3224
   59MOL0     H 7762   2.769   4.353   2.415 -1.5615 -1.2394  1.7723
   59MOL0     H 7763   2.906   4.274   2.335 -0.0792  1.6009  0.0671
   59MOL0     H 7764   2.833   4.060   2.450 -2.1078  1.4467 -4.3135
   59MOL0     H 7765   2.736   4.159   2.571  0.6722  5.9529  1.2009
   59MOL0     H 7766   2.987   4.090   2.627  0.9911 -1.1503 -0.6253
   59MOL0     H 7767   3.019   4.231   2.526  2.0442 -0.9613  1.8442
   59MOL0     H 7768   2.997   4.309   2.769 -0.7339 -1.2969  4.1093
   59MOL0     H 7769   2.884   4.187   2.797  1.8060 -1.0084 -0.8262
   59MOL0     H 7770   2.624   4.254   1.638  1.3105 -2.6574  1.9883
   59MOL0     H 7771   2.764   4.267   1.455  0.1012  0.9950  0.3225
   59MOL0     H 7772   3.234   4.483   1.355  3.5886 -1.3663  1.3447
   59MOL0     H 7773   3.385   4.526   1.172  0.4749 -0.7231 -0.6329
   59MOL0     H 7774   2.315   3.971   1.895 -1.1119 -1.4065  0.1666
   59MOL0     H 7775   2.428   3.926   2.103  0.0035  1.8095 -0.6524
   59MOL0     H 7776   2.622   3.612   2.298  1.5331  3.1679  0.8008
   59MOL0     H 7777   2.697   3.384   2.395 -0.2617  1.4882 -0.7602
   59MOL0     H 7778   2.908   3.107   2.486 -0.5622 -0.0202 -0.4491
   59MOL0     H 7779   2.782   3.194   2.404 -0.2204  2.3103 -0.8765
   59MOL0     H 7780   2.726   3.313   2.617  0.1923  0.2283  0.2225
   59MOL0     H 7781   2.751   3.141   2.657  2.7482  0.1323  5.7675
   59MOL0     H 7782   2.841   3.291   2.828  0.0480 -1.3733 -0.9281
   59MOL0     H 7783   2.951   3.360   2.705 -1.3606  1.1969 -0.5358
   59MOL0     H 7784   2.969   3.068   2.724  2.7916  0.3062  0.0533
   59MOL0     H 7785   3.078   3.194   2.670 -0.0615 -0.9738 -1.7638
   59MOL0     H 7786   3.172   3.177   3.075 -0.6484  0.6332 -0.0260
   59MOL0     H 7787   3.093   3.509   2.368  1.0728  4.7084  5.0086
   59MOL0     H 7788   3.050   3.692   2.275  2.1909 -1.9914 -0.1818
   60MOL0     O 7789   9.970   9.474   6.679  0.4184 -0.0134  0.4250
   60MOL0     C 7790  10.018   9.413   6.583 -0.0635 -0.0911 -0.8781
   60MOL0     O 7791  10.039   9.475   6.459 -0.4692 -0.7755 -0.0854
   60MOL0     C 7792  10.014   9.604   6.453  0.6228 -0.4410 -0.0261
   60MOL0     C 7793  10.120   9.696   6.440  0.2042 -0.1687  0.8983
   60MOL0     C 7794  10.087   9.832   6.405 -0.1841  0.5320 -1.0893
   60MOL0     C 7795   9.959   9.876   6.377  0.7892  0.7690 -1.3386
   60MOL0     O 7796   9.922   9.999   6.340  1.4836 -0.2552  0.0366
   60MOL0     C 7797   9.975  10.120   6.400  1.1890  0.7762 -0.9595
   60MOL0     C 7798  10.063  10.206   6.309  0.1837 -0.1770  0.2540
   60MOL0     C 7799   9.987  10.233   6.179 -0.2294  0.6631 -0.5046
   60MOL0     C 7800   9.867  10.330   6.192 -0.7511 -0.2547 -0.5288
   60MOL0     C 7801   9.772  10.332   6.073  0.1526  0.3778  0.5048
   60MOL0     C 7802   9.652  10.441   6.057 -0.2374 -0.0122  0.3354
   60MOL0     C 7803   9.710  10.590   6.034  0.3183  0.4256 -0.4867
   60MOL0     C 7804   9.596  10.691   6.033  0.7557 -0.3189  0.3039
   60MOL0     N 7805   9.542  10.718   6.169 -0.2575  0.1969  0.5184
   60MOL0     C 7806   9.453  10.645   6.231  0.2301  0.9668 -0.4281
   60MOL0     C 7807   9.444  10.693   6.359 -0.0249  0.1872  0.6528
   60MOL0     C 7808   9.348  10.641   6.469  0.2376  0.4723 -0.0941
   60MOL0     C 7809   9.403  10.511   6.530 -0.6520  0.2723  0.6763
   60MOL0     C 7810   9.539  10.551   6.600  0.2637  0.5249 -0.3748
   60MOL0     C 7811   9.612  10.425   6.631 -0.0977  0.2161  0.9493
   60MOL0     O 7812   9.674  10.364   6.517  0.0682 -0.2874  0.7772
   60MOL0     C 7813   9.628  10.246   6.485 -0.0048  0.3482 -0.1183
   60MOL0     C 7814   9.652  10.141   6.570 -0.0546  0.2628  0.3703
   60MOL0     C 7815   9.582  10.015   6.551 -0.6341  0.1428 -0.0233
   60MOL0     C 7816   9.487   9.999   6.452 -0.2703 -1.5055 -0.4451
   60MOL0     C 7817   9.408   9.881   6.434 -0.3036  0.3729 -0.0907
   60MOL0     O 7818   9.307   9.889   6.346  0.0232 -0.9538 -0.3260
   60MOL0     C 7819   9.208   9.789   6.343 -1.0897 -0.0399 -0.2228
   60MOL0     C 7820   9.221   9.661   6.269  0.4568 -0.0208 -0.3396
   60MOL0     C 7821   9.124   9.560   6.282 -0.3003 -0.1296  0.1059
   60MOL0     C 7822   8.999   9.591   6.341 -0.1986 -0.3040 -0.1159
   60MOL0     O 7823   8.914   9.489   6.355 -0.3178 -0.9452  1.2573
   60MOL0     C 7824   8.936   9.407   6.469  0.8530  0.1893  0.0040
   60MOL0     C 7825   8.822   9.297   6.473 -0.0747 -1.0766 -0.4618
   60MOL0     C 7826   8.686   9.357   6.476  1.0892  0.4506  0.0034
   60MOL0     C 7827   8.566   9.265   6.498 -0.4735  0.2101  0.6037
   60MOL0     C 7828   8.430   9.335   6.507 -0.2021 -0.0411 -0.0019
   60MOL0     C 7829   8.409   9.433   6.394 -0.6293 -0.9658  0.2769
   60MOL0     C 7830   8.249   9.464   6.365  0.0103 -0.1985  0.0781
   60MOL0     C 7831   8.179   9.526   6.488  0.2597  0.2300  0.5694
   60MOL0    Cl 7832   8.016   9.609   6.442 -0.0680 -0.4422 -0.1801
   60MOL0     C 7833   8.978   9.719   6.394 -0.4802  0.4384  0.4403
   60MOL0     C 7834   9.083   9.808   6.404 -0.3113 -0.9986  0.5108
   60MOL0     O 7835   9.444   9.775   6.495 -1.2017  0.3814  0.1868
   60MOL0     C 7836   9.472  10.109   6.366  0.8749 -0.0814  0.4757
   60MOL0     C 7837   9.531  10.232   6.389  0.2751  0.8469  1.5988
   60MOL0     N 7838   9.533  10.794   6.373 -0.5890 -0.3454  0.3933
   60MOL0     N 7839   9.588  10.811   6.260  0.6635 -0.5076 -0.7934
   60MOL0     C 7840   9.860   9.777   6.389  0.0210  0.1101 -0.3338
   60MOL0     C 7841   9.886   9.650   6.425  0.1936 -0.3479 -0.7088
   60MOL0     C 7842  10.067   9.272   6.616  0.2141 -1.0218 -0.3984
   60MOL0     C 7843  10.029   9.207   6.734 -0.2070 -0.6454  1.4223
   60MOL0     C 7844  10.073   9.075   6.754 -0.5933 -0.7765 -0.2996
   60MOL0     C 7845  10.154   9.017   6.663 -0.9211 -0.3469 -0.2950
   60MOL0     O 7846  10.201   8.890   6.695 -0.2506 -0.2649 -0.0605
   60MOL0     C 7847  10.228   8.786   6.598  0.5922 -0.1884  0.1268
   60MOL0     C 7848  10.092   8.718   6.544 -0.1757  0.2414 -0.0687
   60MOL0     C 7849  10.022   8.659   6.669  0.3260  0.1404 -0.6430
   60MOL0     C 7850  10.072   8.527   6.708 -0.1553 -0.5362  0.3745
   60MOL0     C 7851   9.975   8.457   6.783  0.8429 -0.2097 -0.4969
   60MOL0     C 7852   9.907   8.390   6.857 -0.6368  0.4161 -0.2375
   60MOL0     C 7853  10.214   9.089   6.557  0.5220 -0.4955  0.5602
   60MOL0     C 7854  10.162   9.218   6.539 -0.3511 -0.0811  0.1653
   60MOL0     H 7855  10.223   9.670   6.464 -0.0919 -1.7125  0.6315
   60MOL0     H 7856  10.160   9.912   6.414 -0.2128  0.4569 -0.0752
   60MOL0     H 7857  10.033  10.099   6.490 -4.3418 -2.0971  2.5081
   60MOL0     H 7858   9.893  10.175   6.447  1.8799  1.1120 -0.1386
   60MOL0     H 7859  10.152  10.148   6.279 -0.5881 -0.4388 -1.7322
   60MOL0     H 7860  10.091  10.301   6.355  1.0365  1.3415 -3.0516
   60MOL0     H 7861   9.947  10.137   6.147  3.4933 -1.5986  0.9441
   60MOL0     H 7862  10.060  10.275   6.110  0.6520 -1.3434 -0.8326
   60MOL0     H 7863   9.813  10.294   6.280 -4.0239  0.4198 -2.1201
   60MOL0     H 7864   9.909  10.430   6.207  0.0230 -0.8232  1.3991
   60MOL0     H 7865   9.721  10.236   6.078  1.4045 -0.2655  1.4386
   60MOL0     H 7866   9.830  10.353   5.983 -3.0785  1.0646 -1.5978
   60MOL0     H 7867   9.591  10.435   6.147  0.1556  1.9541  0.7747
   60MOL0     H 7868   9.602  10.410   5.965 -0.7409 -0.4066  0.7396
   60MOL0     H 7869   9.759  10.630   6.124 -0.7879 -0.4525  0.5389
   60MOL0     H 7870   9.781  10.606   5.953  0.5707  0.6793 -0.2187
   60MOL0     H 7871   9.516  10.652   5.969  0.2910  0.3143  0.4990
   60MOL0     H 7872   9.633  10.790   6.008  1.3250 -0.2526  1.3639
   60MOL0     H 7873   9.405  10.552   6.200  1.6511  0.8424 -2.4956
   60MOL0     H 7874   9.249  10.605   6.438  0.1101  1.5404 -0.9772
   60MOL0     H 7875   9.346  10.714   6.550  1.6711  1.0526 -0.5519
   60MOL0     H 7876   9.410  10.445   6.444 -3.1019  1.1531 -0.2934
   60MOL0     H 7877   9.343  10.460   6.606 -1.2024 -2.3207 -1.3753
   60MOL0     H 7878   9.611  10.612   6.545  0.4743 -0.9821 -1.8500
   60MOL0     H 7879   9.514  10.602   6.694  2.9767 -0.4268  0.9714
   60MOL0     H 7880   9.534  10.371   6.684 -2.5285  5.7140  3.8168
   60MOL0     H 7881   9.684  10.457   6.707  1.1948  2.4378 -1.0777
   60MOL0     H 7882   9.719  10.165   6.652  1.6522  0.9417 -1.1638
   60MOL0     H 7883   9.584   9.927   6.614 -2.4322  0.3901  0.4120
   60MOL0     H 7884   9.309   9.639   6.211  1.6951  1.1945  0.9923
   60MOL0     H 7885   9.145   9.461   6.245 -0.5317  0.2474 -1.0711
   60MOL0     H 7886   8.935   9.470   6.559 -3.1367 -0.2116  0.4095
   60MOL0     H 7887   9.032   9.353   6.469 -0.2082 -1.8105  1.1417
   60MOL0     H 7888   8.839   9.227   6.556 -3.2995 -2.2085 -0.6209
   60MOL0     H 7889   8.837   9.233   6.385  1.2290 -1.0539 -0.2797
   60MOL0     H 7890   8.669   9.414   6.384 -1.8714  2.8821  1.8536
   60MOL0     H 7891   8.676   9.421   6.565 -4.7275 -0.5982  0.5075
   60MOL0     H 7892   8.562   9.199   6.411 -0.8367  0.3588  0.5079
   60MOL0     H 7893   8.586   9.211   6.591 -0.6411  0.8574  1.0217
   60MOL0     H 7894   8.405   9.400   6.591 -1.8950 -0.0960 -0.4264
   60MOL0     H 7895   8.346   9.266   6.517 -1.4849  1.3285 -0.8974
   60MOL0     H 7896   8.442   9.382   6.303 -1.0460  0.7781 -0.8885
   60MOL0     H 7897   8.472   9.521   6.406  0.8600 -1.9783  0.1477
   60MOL0     H 7898   8.227   9.526   6.277 -1.3046 -1.8044 -0.7692
   60MOL0     H 7899   8.213   9.364   6.341  0.2958 -0.5643  1.1021
   60MOL0     H 7900   8.246   9.600   6.533 -0.6601  2.7506 -1.8682
   60MOL0     H 7901   8.153   9.442   6.552  1.4620 -2.0286 -1.7082
   60MOL0     H 7902   8.890   9.746   6.452 -2.3960  1.4794 -2.6958
   60MOL0     H 7903   9.069   9.905   6.450 -3.5476 -1.3518  0.4801
   60MOL0     H 7904   9.400  10.102   6.285  1.0339  0.8615  0.2421
   60MOL0     H 7905   9.496  10.310   6.322  0.7624 -0.7737 -0.6302
   60MOL0     H 7906   9.761   9.812   6.359 -0.2878  3.1405  3.4735
   60MOL0     H 7907   9.808   9.576   6.442  3.1337 -2.8784  4.1092
   60MOL0     H 7908   9.961   9.252   6.806 -2.4503 -0.0769 -0.9002
   60MOL0     H 7909  10.046   9.014   6.839  2.5993 -0.0651  1.4063
   60MOL0     H 7910  10.288   8.709   6.646  0.6018 -0.3706 -0.1713
   60MOL0     H 7911  10.275   8.821   6.505 -3.6839  1.8992 -1.5511
   60MOL0     H 7912  10.045   8.802   6.493 -1.1441  1.1736  2.2029
   60MOL0     H 7913  10.114   8.641   6.470 -0.8805  1.1277 -1.2256
   60MOL0     H 7914   9.917   8.656   6.639  0.1175  2.3882 -0.3139
   60MOL0     H 7915  10.026   8.725   6.756  1.3818 -1.3874  0.5180
   60MOL0     H 7916  10.105   8.473   6.619  0.1137  3.5774 -2.3069
   60MOL0     H 7917  10.162   8.550   6.766 -0.1862  1.3816 -0.2658
   60MOL0     H 7918   9.855   8.336   6.933  2.3796 -0.9959  0.9884
   60MOL0     H 7919  10.287   9.052   6.486  1.0641 -1.2611  1.4960
   60MOL0     H 7920  10.210   9.284   6.467  2.0086 -0.3513  1.4019
   61MOL0     O 7921   4.953   4.534   5.552 -0.2011 -0.2140 -0.0088
   61MOL0     C 7922   4.859   4.555   5.477  0.2432 -0.5029 -0.3770
   61MOL0     O 7923   4.743   4.628   5.511  0.0776 -1.0423 -0.3552
   61MOL0     C 7924   4.723   4.686   5.635 -0.3256 -0.2089  0.5236
   61MOL0     C 7925   4.629   4.793   5.639 -0.5726 -0.4730 -0.6725
   61MOL0     C 7926   4.583   4.853   5.763  0.1208 -0.2724 -0.2049
   61MOL0     C 7927   4.650   4.820   5.889  0.8565  0.1647 -0.4860
   61MOL0     O 7928   4.628   4.897   6.002  0.1599 -0.1413 -0.6943
   61MOL0     C 7929   4.525   4.994   6.015 -0.3237  0.5860 -0.1211
   61MOL0     C 7930   4.510   5.028   6.162  0.2193 -0.0743 -0.1097
   61MOL0     C 7931   4.400   5.135   6.198  0.1694 -0.7822  0.3772
   61MOL0     C 7932   4.452   5.271   6.145 -0.4353  0.3930  0.1938
   61MOL0     C 7933   4.562   5.332   6.233  0.3174 -0.1928  0.2314
   61MOL0     C 7934   4.686   5.386   6.162  0.5098  0.6059 -0.5431
   61MOL0     C 7935   4.806   5.351   6.256  0.3507  0.0192  0.0714
   61MOL0     C 7936   4.940   5.362   6.175  0.4175  0.5637  0.3043
   61MOL0     N 7937   4.944   5.266   6.064  0.2666 -0.3227  0.0093
   61MOL0     C 7938   4.981   5.137   6.064  0.1199  0.5484 -1.0334
   61MOL0     C 7939   4.994   5.106   5.933  0.0024  0.4563 -0.0885
   61MOL0     C 7940   5.037   4.975   5.874 -0.1488 -0.4688  1.0014
   61MOL0     C 7941   5.167   4.915   5.937  1.4000 -0.2325  0.4848
   61MOL0     C 7942   5.291   5.001   5.957  0.6591 -0.5547  0.0464
   61MOL0     C 7943   5.412   4.930   6.015  0.7976 -0.6391  0.0023
   61MOL0     O 7944   5.511   5.027   6.048  0.2689  0.6302 -0.5534
   61MOL0     C 7945   5.639   4.995   6.074  0.0998 -0.3755 -0.0095
   61MOL0     C 7946   5.725   5.101   6.062  0.7149 -1.3829  0.1255
   61MOL0     C 7947   5.858   5.080   6.090  0.2106  0.0118 -0.9506
   61MOL0     C 7948   5.905   4.952   6.129  0.0696  0.0335 -0.2166
   61MOL0     C 7949   6.048   4.938   6.148 -0.6603  0.1020  0.1318
   61MOL0     O 7950   6.088   4.805   6.112  0.5013 -0.8197 -0.4168
   61MOL0     C 7951   6.218   4.765   6.142 -1.0654  0.5173  0.2374
   61MOL0     C 7952   6.312   4.772   6.039 -0.3356 -0.3697 -0.4494
   61MOL0     C 7953   6.446   4.737   6.055  0.1253 -0.2449 -0.1518
   61MOL0     C 7954   6.479   4.673   6.179  0.0809 -0.0153 -0.1749
   61MOL0     O 7955   6.598   4.615   6.205 -0.7477  0.0603  0.0966
   61MOL0     C 7956   6.693   4.606   6.098  0.0898 -0.3165 -0.5564
   61MOL0     C 7957   6.820   4.528   6.129  0.1165 -0.8933  0.3536
   61MOL0     C 7958   6.788   4.400   6.206  0.1888 -0.7454 -0.3928
   61MOL0     C 7959   6.895   4.303   6.171 -0.1979  0.4728  0.2478
   61MOL0     C 7960   6.873   4.158   6.223  0.4929  0.1789  0.1216
   61MOL0     C 7961   6.987   4.071   6.163 -0.5747 -0.4867 -0.3027
   61MOL0     C 7962   6.967   3.931   6.228  0.0812 -0.3513 -0.1098
   61MOL0     C 7963   7.083   3.837   6.173  0.8143  0.1261 -0.5009
   61MOL0    Cl 7964   7.061   3.680   6.251 -0.4657 -0.1991 -0.5306
   61MOL0     C 7965   6.383   4.667   6.280 -1.5494 -0.1239 -0.8717
   61MOL0     C 7966   6.255   4.711   6.259  0.0464 -0.2911  0.1706
   61MOL0     O 7967   6.119   5.032   6.173  0.2537 -0.3918 -0.1422
   61MOL0     C 7968   5.819   4.844   6.131  1.3743 -0.7364 -0.4942
   61MOL0     C 7969   5.682   4.869   6.104 -0.4979  1.0034  0.7554
   61MOL0     N 7970   4.960   5.213   5.854 -0.2225 -0.1298 -0.1358
   61MOL0     N 7971   4.916   5.307   5.934  0.4292 -0.3562  0.1196
   61MOL0     C 7972   4.746   4.715   5.889  0.3618 -0.2591  0.6376
   61MOL0     C 7973   4.779   4.652   5.760 -0.4460 -0.2953 -1.0088
   61MOL0     C 7974   4.872   4.528   5.330  0.3639 -0.5607 -0.0206
   61MOL0     C 7975   4.772   4.554   5.236 -0.1847  0.0594  0.8519
   61MOL0     C 7976   4.789   4.559   5.096 -0.7165  0.1096  0.3543
   61MOL0     C 7977   4.916   4.514   5.042 -0.3648 -0.3492 -0.9647
   61MOL0     O 7978   4.930   4.510   4.906 -0.2283  0.6053 -0.5518
   61MOL0     C 7979   5.029   4.416   4.846 -0.5596 -0.8079 -0.5092
   61MOL0     C 7980   4.968   4.271   4.840  0.4335  0.4203  0.0885
   61MOL0     C 7981   5.059   4.158   4.795 -1.1119  0.3656  0.9109
   61MOL0     C 7982   5.184   4.140   4.894 -0.0081 -0.5116 -0.0581
   61MOL0     C 7983   5.150   4.115   5.038  0.2745  0.9839 -0.0495
   61MOL0     C 7984   5.110   4.096   5.154 -0.1353  0.4124 -0.2563
   61MOL0     C 7985   5.030   4.493   5.133  1.4031  0.1698  0.0710
   61MOL0     C 7986   4.998   4.494   5.271  0.2734  0.0914 -1.0456
   61MOL0     H 7987   4.592   4.828   5.544  0.7908  0.4652 -0.8898
   61MOL0     H 7988   4.511   4.934   5.753  0.7315  0.5907  1.9242
   61MOL0     H 7989   4.433   4.948   5.977  0.9034 -0.0144 -2.6283
   61MOL0     H 7990   4.543   5.086   5.958 -0.3290 -0.7398 -2.3922
   61MOL0     H 7991   4.605   5.062   6.204 -0.8557  1.3132  1.3337
   61MOL0     H 7992   4.475   4.934   6.206 -1.6370  0.1603 -0.9829
   61MOL0     H 7993   4.385   5.141   6.306 -1.0943  0.6277  0.1472
   61MOL0     H 7994   4.304   5.102   6.157 -0.3502 -0.0013  0.9330
   61MOL0     H 7995   4.493   5.260   6.044 -0.6483  0.8841  0.0499
   61MOL0     H 7996   4.376   5.349   6.155  1.3922  1.9951  2.9667
   61MOL0     H 7997   4.589   5.251   6.301  1.3081 -0.5183 -0.5249
   61MOL0     H 7998   4.529   5.415   6.295  0.1967  1.5370 -2.0252
   61MOL0     H 7999   4.676   5.493   6.140  1.3716  0.8240  0.0918
   61MOL0     H 8000   4.689   5.351   6.059  0.1951  3.4790 -1.6256
   61MOL0     H 8001   4.800   5.422   6.339 -0.4366 -1.8477  1.6571
   61MOL0     H 8002   4.789   5.248   6.288 -1.4754  1.0757  2.7888
   61MOL0     H 8003   5.024   5.373   6.245  0.2202 -0.3939  0.7126
   61MOL0     H 8004   4.943   5.462   6.132  0.3269  0.2529 -0.4438
   61MOL0     H 8005   4.991   5.066   6.145 -0.9029  0.9414 -0.5513
   61MOL0     H 8006   5.054   4.986   5.767 -0.5975 -0.8006  0.8936
   61MOL0     H 8007   4.941   4.922   5.879 -0.4617  0.1848  3.3906
   61MOL0     H 8008   5.192   4.836   5.865 -0.7636 -0.9948  0.4699
   61MOL0     H 8009   5.139   4.876   6.035 -1.6733  1.1648  0.2930
   61MOL0     H 8010   5.329   5.056   5.870  2.3886 -0.4704  0.8048
   61MOL0     H 8011   5.266   5.074   6.035 -2.8808 -0.0655 -1.3320
   61MOL0     H 8012   5.467   4.862   5.949  2.3672  3.3843 -3.3312
   61MOL0     H 8013   5.371   4.878   6.102 -1.7199  0.2247 -0.5854
   61MOL0     H 8014   5.672   5.180   6.009 -0.1960 -3.0267 -1.5069
   61MOL0     H 8015   5.928   5.162   6.073  0.8922 -0.3143  0.2055
   61MOL0     H 8016   6.267   4.821   5.953 -2.6583  1.3045  1.5834
   61MOL0     H 8017   6.515   4.746   5.972 -0.1815  0.8642 -0.3044
   61MOL0     H 8018   6.707   4.708   6.060  3.8780 -1.3096 -2.3196
   61MOL0     H 8019   6.650   4.557   6.010 -0.9282 -1.9628  0.7886
   61MOL0     H 8020   6.900   4.581   6.180 -0.5340 -2.1595  2.8304
   61MOL0     H 8021   6.854   4.489   6.032 -0.1030 -3.1633  1.1188
   61MOL0     H 8022   6.697   4.352   6.169  0.4868 -2.8516  1.4085
   61MOL0     H 8023   6.781   4.424   6.313  0.0603 -2.9660  0.1369
   61MOL0     H 8024   6.897   4.302   6.062 -3.9111  1.9592  0.0094
   61MOL0     H 8025   6.981   4.351   6.218 -0.3438  0.1551  0.8483
   61MOL0     H 8026   6.775   4.127   6.188 -0.8338  4.2343 -0.2606
   61MOL0     H 8027   6.873   4.154   6.333  0.3886 -0.2299  0.1068
   61MOL0     H 8028   7.090   4.102   6.184 -0.1056 -0.6683 -2.1533
   61MOL0     H 8029   6.970   4.063   6.055  0.2108  1.3905 -0.6103
   61MOL0     H 8030   6.956   3.937   6.337  3.1127 -1.3087  0.3526
   61MOL0     H 8031   6.875   3.895   6.182 -0.6240 -1.4556  2.0210
   61MOL0     H 8032   7.183   3.875   6.200 -0.0963  0.4764  2.8077
   61MOL0     H 8033   7.064   3.832   6.065 -0.0840 -0.8145 -0.3060
   61MOL0     H 8034   6.413   4.622   6.375 -0.2157  2.0175 -0.2165
   61MOL0     H 8035   6.190   4.705   6.346 -0.1155  1.3871  0.1964
   61MOL0     H 8036   5.847   4.742   6.156 -3.5442 -2.2706 -0.2592
   61MOL0     H 8037   5.629   4.776   6.121  0.7207  0.4882  1.8394
   61MOL0     H 8038   4.780   4.690   5.989  2.5540 -2.6291 -0.5933
   61MOL0     H 8039   4.836   4.560   5.766  1.3789  0.9006  1.6032
   61MOL0     H 8040   4.670   4.578   5.263 -0.6667 -1.7875  0.7968
   61MOL0     H 8041   4.707   4.583   5.028  2.0090 -1.2644 -3.8095
   61MOL0     H 8042   5.126   4.416   4.896 -0.8975  3.8282  0.5283
   61MOL0     H 8043   5.052   4.446   4.743 -0.8363 -0.4560 -0.4677
   61MOL0     H 8044   4.918   4.249   4.935 -2.9843 -0.2242 -1.6710
   61MOL0     H 8045   4.883   4.263   4.772  1.0165  1.2285 -0.7608
   61MOL0     H 8046   5.110   4.179   4.701 -1.0149 -2.6066  0.2060
   61MOL0     H 8047   5.012   4.061   4.776  3.7386 -1.7315 -2.3692
   61MOL0     H 8048   5.259   4.071   4.854 -0.2435 -0.0026 -1.3975
   61MOL0     H 8049   5.244   4.232   4.890  3.7932 -2.6425  2.0849
   61MOL0     H 8050   5.073   4.075   5.252 -0.6851  3.6675  0.3632
   61MOL0     H 8051   5.130   4.473   5.097  1.3045  1.1408 -0.7878
   61MOL0     H 8052   5.082   4.488   5.339  0.0026 -1.5221 -0.8074
   62MOL0     O 8053   6.934   7.043   3.231 -0.3169  0.7937  0.9505
   62MOL0     C 8054   6.906   6.969   3.140 -0.3194  0.1221  0.3481
   62MOL0     O 8055   6.931   6.992   3.009 -0.4180  0.5112 -0.4037
   62MOL0     C 8056   6.930   7.120   2.962 -0.1040  0.4770 -0.3643
   62MOL0     C 8057   7.004   7.152   2.850 -0.3443  1.0362  0.1305
   62MOL0     C 8058   7.012   7.285   2.805  0.4706 -0.2588  0.5947
   62MOL0     C 8059   6.922   7.387   2.849 -0.5921  0.7567 -0.4260
   62MOL0     O 8060   6.911   7.510   2.780 -0.1365 -0.6831 -1.0690
   62MOL0     C 8061   7.029   7.598   2.779 -0.4031  0.0669  0.0048
   62MOL0     C 8062   7.000   7.708   2.874  0.1282  0.0467 -0.7153
   62MOL0     C 8063   7.100   7.820   2.850 -0.0835 -0.5334  0.6223
   62MOL0     C 8064   7.073   7.947   2.922  0.0493  0.1914 -0.0649
   62MOL0     C 8065   7.182   8.056   2.870 -0.1331  0.2078 -0.8428
   62MOL0     C 8066   7.135   8.211   2.870  0.4926  0.2408 -0.5538
   62MOL0     C 8067   7.248   8.306   2.824  0.8786 -0.3380  0.1363
   62MOL0     C 8068   7.240   8.347   2.668  0.1462 -0.1752 -0.9153
   62MOL0     N 8069   7.363   8.412   2.632  0.6428  0.3627  0.7508
   62MOL0     C 8070   7.360   8.530   2.569 -0.1689 -0.2363  0.6254
   62MOL0     C 8071   7.457   8.530   2.478  0.1855 -0.5833 -0.8535
   62MOL0     C 8072   7.467   8.622   2.359 -0.0381  0.5692 -0.0833
   62MOL0     C 8073   7.610   8.679   2.341  0.4627 -0.4720  0.8889
   62MOL0     C 8074   7.639   8.794   2.444 -1.4608  0.3463 -0.4499
   62MOL0     C 8075   7.787   8.838   2.445 -0.5760 -0.5218 -0.6633
   62MOL0     O 8076   7.848   8.869   2.314 -0.2020 -0.0096 -0.1148
   62MOL0     C 8077   7.915   8.769   2.254 -0.2023 -0.0855  0.0376
   62MOL0     C 8078   7.998   8.677   2.317 -1.3316 -0.7667  0.5470
   62MOL0     C 8079   8.052   8.574   2.240 -1.0359  0.3551 -0.8463
   62MOL0     C 8080   8.034   8.570   2.099 -0.3315  0.4045 -0.0404
   62MOL0     C 8081   8.085   8.457   2.016 -0.1881 -0.0762 -0.6427
   62MOL0     O 8082   8.104   8.481   1.878 -0.2023  0.2158  0.1812
   62MOL0     C 8083   8.168   8.380   1.798  0.4462  0.7047 -0.9854
   62MOL0     C 8084   8.133   8.376   1.664  0.2708 -0.0432 -1.2377
   62MOL0     C 8085   8.180   8.272   1.587  0.6955  0.9286 -0.7049
   62MOL0     C 8086   8.261   8.169   1.641  0.6043 -0.3117 -0.8986
   62MOL0     O 8087   8.318   8.056   1.582 -0.2268 -0.1982 -0.3494
   62MOL0     C 8088   8.263   8.014   1.454 -0.0195 -0.6737  0.0278
   62MOL0     C 8089   8.377   7.960   1.361  0.4743  0.1303 -0.3272
   62MOL0     C 8090   8.503   8.061   1.359  0.1714 -0.4945 -0.0256
   62MOL0     C 8091   8.626   8.002   1.291 -0.6798 -1.1098  0.0811
   62MOL0     C 8092   8.760   8.077   1.281  0.7026  0.7286  0.0538
   62MOL0     C 8093   8.824   8.116   1.414 -0.4382 -0.4187  0.0851
   62MOL0     C 8094   8.988   8.155   1.385  0.0006 -0.2697 -0.0376
   62MOL0     C 8095   9.017   8.249   1.258  0.5277 -0.4052 -0.4186
   62MOL0    Cl 8096   8.955   8.418   1.278 -0.3603  0.3937  0.0876
   62MOL0     C 8097   8.301   8.180   1.776 -0.3644 -0.1574  0.4840
   62MOL0     C 8098   8.267   8.294   1.845  0.7545  0.4345  0.4170
   62MOL0     O 8099   8.106   8.344   2.066 -0.1773 -0.6804  0.0978
   62MOL0     C 8100   7.953   8.665   2.039  0.0558  0.5607  0.3908
   62MOL0     C 8101   7.891   8.765   2.116  0.1289  0.6793  0.1071
   62MOL0     N 8102   7.527   8.414   2.493  0.0751  0.0379 -0.6087
   62MOL0     N 8103   7.463   8.341   2.580  0.1369  0.7577  0.2548
   62MOL0     C 8104   6.837   7.350   2.955  0.9231 -0.1642  0.8640
   62MOL0     C 8105   6.842   7.218   3.014  0.8770 -0.2503  0.3434
   62MOL0     C 8106   6.858   6.837   3.165  0.1283  1.1885  1.3954
   62MOL0     C 8107   6.784   6.803   3.276  0.6224 -1.0245  0.1736
   62MOL0     C 8108   6.747   6.675   3.311 -0.3621  0.1584  0.3290
   62MOL0     C 8109   6.756   6.577   3.213 -0.3097  0.4148  0.5888
   62MOL0     O 8110   6.725   6.440   3.221 -0.3193  0.1848 -0.3156
   62MOL0     C 8111   6.611   6.407   3.300 -0.1697 -0.5534  0.3503
   62MOL0     C 8112   6.566   6.265   3.285  0.4548 -0.3674 -0.0671
   62MOL0     C 8113   6.677   6.162   3.297  0.3336  0.7979  0.1118
   62MOL0     C 8114   6.623   6.020   3.321  0.5864  0.6763 -0.1324
   62MOL0     C 8115   6.720   5.908   3.332  0.4383  0.2508 -0.2582
   62MOL0     C 8116   6.803   5.815   3.348  0.6654  0.4111  0.2954
   62MOL0     C 8117   6.821   6.609   3.093 -0.1818 -0.2168 -0.4298
   62MOL0     C 8118   6.880   6.735   3.072 -0.2754 -1.0526  0.6678
   62MOL0     H 8119   7.073   7.073   2.825 -1.6950 -0.8744  2.1194
   62MOL0     H 8120   7.073   7.327   2.727 -2.5434  4.1202  0.2326
   62MOL0     H 8121   7.048   7.634   2.677 -1.9783 -2.1527 -1.1759
   62MOL0     H 8122   7.117   7.534   2.789 -1.0885 -1.3141 -1.9957
   62MOL0     H 8123   7.009   7.680   2.980 -0.5720  0.9793 -0.3922
   62MOL0     H 8124   6.896   7.742   2.866  0.5256  1.3387 -0.6401
   62MOL0     H 8125   7.102   7.838   2.741 -1.2259 -1.4267  0.4480
   62MOL0     H 8126   7.203   7.790   2.872  0.8527  1.4671 -0.6167
   62MOL0     H 8127   6.975   7.995   2.910  0.0192  0.3683  0.8020
   62MOL0     H 8128   7.083   7.919   3.028  0.1807 -1.0764 -0.3971
   62MOL0     H 8129   7.206   8.035   2.765 -2.0531  0.2084 -1.3130
   62MOL0     H 8130   7.268   8.046   2.937  0.5143 -0.4267 -1.7539
   62MOL0     H 8131   7.102   8.240   2.970  0.1475  1.4361 -1.0035
   62MOL0     H 8132   7.046   8.211   2.806 -0.5606 -1.2465  0.7888
   62MOL0     H 8133   7.243   8.402   2.875  0.5394  0.4750 -1.3753
   62MOL0     H 8134   7.347   8.261   2.835  0.5398 -0.8810  1.0498
   62MOL0     H 8135   7.150   8.408   2.662 -0.3132 -0.8833 -1.3089
   62MOL0     H 8136   7.235   8.259   2.603 -1.4036 -3.3267  2.9945
   62MOL0     H 8137   7.284   8.607   2.582 -1.7010 -1.6738  0.5495
   62MOL0     H 8138   7.388   8.695   2.376 -0.3426  0.3091 -0.3700
   62MOL0     H 8139   7.450   8.564   2.268  0.9220  2.3075 -1.4440
   62MOL0     H 8140   7.625   8.705   2.236 -1.7260 -2.2296  0.0374
   62MOL0     H 8141   7.683   8.602   2.365  0.8083 -0.0079  1.3373
   62MOL0     H 8142   7.592   8.887   2.409 -1.3616  0.1934 -0.9956
   62MOL0     H 8143   7.608   8.773   2.547 -1.0059 -1.2760 -0.6280
   62MOL0     H 8144   7.851   8.768   2.501  0.2778  1.8016  1.4221
   62MOL0     H 8145   7.801   8.927   2.507 -0.3715 -1.5590  0.8588
   62MOL0     H 8146   8.012   8.682   2.424  0.9096 -1.3410  0.3305
   62MOL0     H 8147   8.121   8.509   2.293 -3.4296 -0.9506  0.8993
   62MOL0     H 8148   8.064   8.453   1.630 -0.8095 -0.9108 -1.0557
   62MOL0     H 8149   8.140   8.265   1.487  0.3817 -1.5582 -0.4481
   62MOL0     H 8150   8.220   8.104   1.409 -2.5173  0.2381  3.7629
   62MOL0     H 8151   8.191   7.935   1.477 -1.3230  0.8622  1.4386
   62MOL0     H 8152   8.331   7.944   1.263 -2.2213 -0.4851  0.9552
   62MOL0     H 8153   8.410   7.865   1.406 -2.9102 -0.3344  1.4832
   62MOL0     H 8154   8.530   8.090   1.461 -1.5702  0.2698  0.2521
   62MOL0     H 8155   8.478   8.152   1.304 -2.8562  0.4432  2.5702
   62MOL0     H 8156   8.660   7.912   1.343 -1.3751 -0.1986  2.1982
   62MOL0     H 8157   8.599   7.994   1.185  0.7529  0.3255 -0.4208
   62MOL0     H 8158   8.726   8.158   1.216 -1.2892 -1.1662 -1.4077
   62MOL0     H 8159   8.824   8.010   1.222 -3.8625 -3.1343 -1.1278
   62MOL0     H 8160   8.818   8.021   1.468 -0.3752  0.2423  1.2791
   62MOL0     H 8161   8.767   8.198   1.457 -0.4434 -0.2939 -0.1586
   62MOL0     H 8162   9.034   8.190   1.477  1.3075  1.2284 -1.2122
   62MOL0     H 8163   9.043   8.065   1.355  0.6671  0.4313 -0.9886
   62MOL0     H 8164   8.966   8.195   1.178 -0.7898  0.6983 -0.3550
   62MOL0     H 8165   9.126   8.260   1.253  0.3684  1.9121  0.1889
   62MOL0     H 8166   8.358   8.107   1.833 -2.4726 -1.8847  0.4775
   62MOL0     H 8167   8.311   8.302   1.944  2.2790 -4.2035  0.3794
   62MOL0     H 8168   7.939   8.659   1.932  1.8883 -1.2245  0.1958
   62MOL0     H 8169   7.838   8.852   2.081  1.6204  2.7771  2.6511
   62MOL0     H 8170   6.763   7.415   3.000 -0.0262  2.5393 -3.8851
   62MOL0     H 8171   6.778   7.193   3.098  1.9724 -1.1222  0.9581
   62MOL0     H 8172   6.758   6.879   3.349  1.7384  0.5133 -0.9547
   62MOL0     H 8173   6.699   6.654   3.407  0.3361  0.5613  0.7743
   62MOL0     H 8174   6.531   6.475   3.270  0.9565  1.2817  1.3066
   62MOL0     H 8175   6.640   6.425   3.404 -0.3089 -1.3177  0.5226
   62MOL0     H 8176   6.490   6.252   3.362 -0.3717 -0.2381 -0.8488
   62MOL0     H 8177   6.514   6.262   3.189  0.4468 -5.3896 -0.1362
   62MOL0     H 8178   6.750   6.187   3.374  1.4490  1.9631 -1.2594
   62MOL0     H 8179   6.723   6.160   3.198 -0.4951  0.1739 -0.2768
   62MOL0     H 8180   6.544   6.017   3.396  1.3258  0.3976  0.6568
   62MOL0     H 8181   6.566   6.008   3.229 -0.4830 -0.3475  0.6299
   62MOL0     H 8182   6.878   5.739   3.363 -1.7109 -2.2274 -0.3955
   62MOL0     H 8183   6.846   6.536   3.016  0.4495  0.5908 -1.0154
   62MOL0     H 8184   6.940   6.759   2.985 -0.2084  0.4307  1.0852
   63MOL0     O 8185   7.762   2.456   6.636  0.2626  0.3859 -0.0648
   63MOL0     C 8186   7.838   2.551   6.661 -0.1782  0.8172  0.1958
   63MOL0     O 8187   7.928   2.551   6.761  0.1955  0.8287 -0.1859
   63MOL0     C 8188   7.945   2.439   6.840 -0.5013 -0.3458  0.0142
   63MOL0     C 8189   7.938   2.464   6.976  1.3223 -0.5360 -1.0255
   63MOL0     C 8190   7.931   2.357   7.069 -0.7384 -0.5211 -0.0007
   63MOL0     C 8191   7.945   2.224   7.035  0.1333 -0.7848 -0.5426
   63MOL0     O 8192   7.939   2.123   7.133  0.2187 -0.3128 -0.5377
   63MOL0     C 8193   7.948   1.986   7.098  0.7442  1.3699  0.1377
   63MOL0     C 8194   7.830   1.938   7.006  0.2700  0.2304  0.2977
   63MOL0     C 8195   7.838   1.789   6.971 -0.8399 -0.4237 -0.6830
   63MOL0     C 8196   7.715   1.739   6.888  1.2075 -0.6759  0.5439
   63MOL0     C 8197   7.716   1.578   6.893  0.3376 -0.5393 -0.6127
   63MOL0     C 8198   7.585   1.508   6.858  0.5118 -0.7394 -0.0734
   63MOL0     C 8199   7.598   1.364   6.806  0.0293  1.7074  1.1230
   63MOL0     C 8200   7.464   1.289   6.794 -0.1956 -1.1206  0.4620
   63MOL0     N 8201   7.492   1.157   6.733 -0.8331  0.8429 -0.1666
   63MOL0     C 8202   7.510   1.119   6.600 -0.0837  0.0519  0.6899
   63MOL0     C 8203   7.565   0.997   6.599  0.0414 -0.1111 -0.2169
   63MOL0     C 8204   7.642   0.936   6.486 -0.7660 -0.3269  0.2950
   63MOL0     C 8205   7.793   0.914   6.528  1.0368 -0.4134  0.3501
   63MOL0     C 8206   7.868   0.867   6.405 -0.4589  0.0033  0.8890
   63MOL0     C 8207   8.012   0.811   6.435 -0.9089  0.2941 -0.3629
   63MOL0     O 8208   8.099   0.925   6.422  0.2540  0.0325 -0.3961
   63MOL0     C 8209   8.179   0.959   6.314  0.4836 -0.5964  0.4512
   63MOL0     C 8210   8.277   1.064   6.324 -0.4828  0.5593  0.4189
   63MOL0     C 8211   8.362   1.088   6.218  0.1346 -0.6386  0.0313
   63MOL0     C 8212   8.359   1.006   6.101 -0.9230  0.9657 -1.3260
   63MOL0     C 8213   8.452   1.031   5.987 -0.3272 -0.2929  0.6188
   63MOL0     O 8214   8.490   1.156   5.957  0.4654  0.4295  0.3765
   63MOL0     C 8215   8.582   1.164   5.862 -0.5083  0.1500 -0.2306
   63MOL0     C 8216   8.569   1.263   5.760 -0.0734  0.3977 -0.2749
   63MOL0     C 8217   8.682   1.298   5.685  0.6328  0.5099  0.0764
   63MOL0     C 8218   8.805   1.237   5.706  0.2939 -0.0680 -0.9583
   63MOL0     O 8219   8.921   1.254   5.636  1.0603 -0.1195 -0.6829
   63MOL0     C 8220   8.921   1.360   5.540  0.2549  0.1134 -0.2045
   63MOL0     C 8221   8.928   1.507   5.591  0.3966  0.1754  0.3283
   63MOL0     C 8222   9.053   1.518   5.686 -0.2586  0.4624 -0.0286
   63MOL0     C 8223   9.121   1.648   5.638 -0.4792 -0.5353 -0.0965
   63MOL0     C 8224   9.264   1.673   5.700  0.7997  0.4340  0.0224
   63MOL0     C 8225   9.370   1.701   5.595  0.5670 -0.3840 -0.0763
   63MOL0     C 8226   9.335   1.827   5.512  0.2564 -0.0248 -0.4234
   63MOL0     C 8227   9.438   1.891   5.417  0.0461 -0.0983  0.0202
   63MOL0    Cl 8228   9.537   2.007   5.512 -0.4767  0.2751  0.2965
   63MOL0     C 8229   8.817   1.143   5.807 -0.5233 -0.1384 -0.6066
   63MOL0     C 8230   8.707   1.109   5.887  0.4818  0.8539  0.3657
   63MOL0     O 8231   8.476   0.930   5.914  0.1754  0.5692 -1.0534
   63MOL0     C 8232   8.261   0.900   6.091 -0.1442 -0.0612 -0.3483
   63MOL0     C 8233   8.174   0.884   6.191  0.5986  0.2533  0.7849
   63MOL0     N 8234   7.571   0.943   6.726  0.3840  0.1242 -0.0386
   63MOL0     N 8235   7.532   1.041   6.812  0.9915  0.1755  0.1246
   63MOL0     C 8236   7.963   2.193   6.895  0.2215  0.3426  0.5077
   63MOL0     C 8237   7.965   2.299   6.801  1.0335 -0.6531  0.2194
   63MOL0     C 8238   7.824   2.676   6.593 -1.6008  0.3782  0.7313
   63MOL0     C 8239   7.728   2.677   6.482 -0.3055 -0.1057 -0.1455
   63MOL0     C 8240   7.696   2.792   6.418  0.1812 -0.0773 -0.3201
   63MOL0     C 8241   7.767   2.905   6.448 -0.1058 -0.2508  0.7268
   63MOL0     O 8242   7.745   3.012   6.366  0.3374  0.5526  0.1952
   63MOL0     C 8243   7.837   3.111   6.342 -0.8187 -0.5419 -0.8856
   63MOL0     C 8244   7.794   3.210   6.235 -0.4661  1.2952 -0.2007
   63MOL0     C 8245   7.645   3.226   6.224  0.1914 -0.8705 -0.2982
   63MOL0     C 8246   7.608   3.353   6.133 -0.0268  0.5462  0.4048
   63MOL0     C 8247   7.614   3.319   5.989 -0.4093 -0.3939 -0.4515
   63MOL0     C 8248   7.613   3.308   5.872 -0.5145  0.1011 -1.3627
   63MOL0     C 8249   7.871   2.899   6.542 -0.8041  0.1886  0.7823
   63MOL0     C 8250   7.902   2.787   6.614 -0.0231  0.1241 -0.0011
   63MOL0     H 8251   7.936   2.568   7.007  1.0238 -1.0627  0.8081
   63MOL0     H 8252   7.935   2.393   7.171 -1.3285  1.8568 -0.7474
   63MOL0     H 8253   7.948   1.917   7.183  1.8159 -1.1870 -1.8112
   63MOL0     H 8254   8.046   1.966   7.054  1.0219  0.3063  1.1784
   63MOL0     H 8255   7.821   1.994   6.913 -1.9654  1.2483  1.0379
   63MOL0     H 8256   7.738   1.963   7.060 -0.4643  1.0657 -1.2818
   63MOL0     H 8257   7.840   1.724   7.059 -1.3602  1.3213  0.6749
   63MOL0     H 8258   7.931   1.767   6.918 -1.9090 -0.9664 -2.4143
   63MOL0     H 8259   7.624   1.782   6.931  1.0962 -1.1586  0.8051
   63MOL0     H 8260   7.709   1.787   6.791  0.0664  0.9898  1.3860
   63MOL0     H 8261   7.745   1.544   6.993  1.2217 -1.8034 -1.2729
   63MOL0     H 8262   7.799   1.543   6.831  1.5304 -1.0847  1.2130
   63MOL0     H 8263   7.533   1.566   6.781 -2.1267 -1.2794  1.1911
   63MOL0     H 8264   7.535   1.516   6.955 -3.2053 -2.0134 -1.7310
   63MOL0     H 8265   7.643   1.362   6.707 -5.7113 -1.6248 -1.9660
   63MOL0     H 8266   7.649   1.306   6.884 -0.1933 -0.6609 -0.4082
   63MOL0     H 8267   7.396   1.345   6.729 -1.4852 -0.7603  2.0560
   63MOL0     H 8268   7.427   1.282   6.896  2.4504  1.4804  1.7442
   63MOL0     H 8269   7.499   1.183   6.513  0.9070 -4.0381 -2.7614
   63MOL0     H 8270   7.636   1.000   6.398 -2.0917 -0.2231  0.4359
   63MOL0     H 8271   7.598   0.836   6.472 -3.3232  0.5464  1.5161
   63MOL0     H 8272   7.798   0.842   6.610  3.1301 -1.0411 -0.2775
   63MOL0     H 8273   7.832   1.013   6.552  1.7249 -1.0504  2.0050
   63MOL0     H 8274   7.805   0.792   6.359 -0.7820  0.5038  0.5037
   63MOL0     H 8275   7.873   0.951   6.335  0.6640 -1.2900 -0.6466
   63MOL0     H 8276   8.040   0.727   6.372  0.9198 -0.4026  1.2845
   63MOL0     H 8277   8.015   0.772   6.537 -2.5291 -1.4361 -0.9267
   63MOL0     H 8278   8.288   1.129   6.410  0.0877  0.8585  0.1263
   63MOL0     H 8279   8.426   1.176   6.212 -2.0653  0.9830 -1.2115
   63MOL0     H 8280   8.475   1.315   5.750  1.2473  3.6602  2.2607
   63MOL0     H 8281   8.686   1.371   5.605  2.2216 -0.3846 -0.6993
   63MOL0     H 8282   8.826   1.358   5.485  0.8029  0.1934 -1.1727
   63MOL0     H 8283   9.001   1.355   5.466 -0.9014  2.3343 -1.7191
   63MOL0     H 8284   8.838   1.536   5.645  0.4557  3.5247 -1.1595
   63MOL0     H 8285   8.939   1.565   5.499  1.4593 -0.5623 -0.0348
   63MOL0     H 8286   9.118   1.430   5.686 -1.3863 -0.3948 -0.4134
   63MOL0     H 8287   9.012   1.524   5.787 -3.7389 -1.5165 -1.1486
   63MOL0     H 8288   9.130   1.632   5.530 -1.6932 -0.0618 -0.2804
   63MOL0     H 8289   9.067   1.738   5.666  1.4906  0.1947  1.6166
   63MOL0     H 8290   9.295   1.581   5.749 -0.4241 -1.1939 -2.0860
   63MOL0     H 8291   9.267   1.759   5.768  2.1527  0.1643  0.3345
   63MOL0     H 8292   9.384   1.614   5.530  5.7232  1.2583 -1.6282
   63MOL0     H 8293   9.455   1.721   5.661  1.6059  2.6807 -2.1087
   63MOL0     H 8294   9.240   1.821   5.457 -0.3330  3.7271 -0.0832
   63MOL0     H 8295   9.313   1.905   5.586 -4.0939  0.0002 -1.4705
   63MOL0     H 8296   9.389   1.938   5.332  1.7672 -1.7460 -1.9716
   63MOL0     H 8297   9.499   1.815   5.368  1.0062  1.8592 -1.9583
   63MOL0     H 8298   8.912   1.096   5.833 -2.2089 -1.8522  3.0869
   63MOL0     H 8299   8.731   1.024   5.950 -0.4680 -1.8203 -2.6062
   63MOL0     H 8300   8.256   0.835   6.003  0.0471  0.6909 -0.9201
   63MOL0     H 8301   8.102   0.803   6.186  1.0020 -0.0475 -0.3448
   63MOL0     H 8302   8.008   2.099   6.865  1.9149  0.1673  3.2036
   63MOL0     H 8303   7.992   2.277   6.698 -0.1540 -1.5018  0.0709
   63MOL0     H 8304   7.669   2.590   6.455 -2.3197  0.8106  1.0798
   63MOL0     H 8305   7.612   2.789   6.349  0.0944 -2.7155 -0.1999
   63MOL0     H 8306   7.933   3.068   6.310 -0.1005  0.3856 -0.0187
   63MOL0     H 8307   7.850   3.169   6.433 -1.6101  2.7756 -2.7311
   63MOL0     H 8308   7.849   3.304   6.241 -0.3072  1.4488 -2.8050
   63MOL0     H 8309   7.826   3.163   6.141 -1.7742  0.9306 -0.4765
   63MOL0     H 8310   7.599   3.227   6.324  2.2712  1.2661  0.7140
   63MOL0     H 8311   7.580   3.144   6.192  0.2718 -2.0145  2.1753
   63MOL0     H 8312   7.503   3.381   6.148 -1.2506 -1.0073 -3.7447
   63MOL0     H 8313   7.669   3.440   6.160 -0.5281  0.6653  1.1806
   63MOL0     H 8314   7.616   3.287   5.767  2.3292 -2.9182 -0.8393
   63MOL0     H 8315   7.944   2.977   6.561 -0.3176  0.1137 -0.6723
   63MOL0     H 8316   7.979   2.780   6.690  1.9622 -1.7252 -2.0125
   64MOL0     O 8317  10.485   0.215   7.651  0.0638 -0.2835 -0.1099
   64MOL0     C 8318  10.465   0.191   7.530 -1.6673 -0.0261 -0.5693
   64MOL0     O 8319  10.419   0.070   7.475 -0.6453  0.0863 -0.7533
   64MOL0     C 8320  10.421  -0.042   7.554 -0.6125  1.0738 -0.1569
   64MOL0     C 8321  10.299  -0.102   7.580  0.0544 -0.3780  0.2460
   64MOL0     C 8322  10.289  -0.206   7.667 -0.2118  0.2164 -0.1038
   64MOL0     C 8323  10.400  -0.262   7.738 -0.2431  0.5989  0.9412
   64MOL0     O 8324  10.410  -0.343   7.846 -0.1119  0.4165  0.0348
   64MOL0     C 8325  10.301  -0.425   7.869  0.6499  0.2085  0.0673
   64MOL0     C 8326  10.223  -0.363   7.987 -0.8434  0.7483 -0.3824
   64MOL0     C 8327  10.153  -0.468   8.078  0.7580 -0.1510  0.0427
   64MOL0     C 8328  10.033  -0.413   8.174 -0.1645  0.3261 -0.2753
   64MOL0     C 8329  10.084  -0.344   8.304  0.8745 -0.2278 -0.8989
   64MOL0     C 8330   9.982  -0.362   8.426  0.3490 -0.3276  0.8149
   64MOL0     C 8331   9.836  -0.324   8.394 -0.3162 -0.0577  0.2962
   64MOL0     C 8332   9.760  -0.354   8.523  0.7457 -0.7471 -0.2880
   64MOL0     N 8333   9.614  -0.357   8.513 -0.2025  0.2578 -0.4354
   64MOL0     C 8334   9.530  -0.435   8.439  0.0352  0.2777  0.0996
   64MOL0     C 8335   9.405  -0.395   8.468 -0.4206  1.1545 -0.7991
   64MOL0     C 8336   9.267  -0.438   8.415 -0.2409  0.2739  0.8301
   64MOL0     C 8337   9.169  -0.512   8.496 -0.2886  0.7614 -0.2977
   64MOL0     C 8338   9.163  -0.453   8.637  0.8181 -1.0923  1.2601
   64MOL0     C 8339   9.048  -0.513   8.715  0.1493 -0.0467 -0.9963
   64MOL0     O 8340   8.933  -0.507   8.639  0.2968  0.4007 -0.1020
   64MOL0     C 8341   8.818  -0.549   8.697  0.0281  0.3888  0.0664
   64MOL0     C 8342   8.791  -0.572   8.829  0.5552 -0.4304 -0.2290
   64MOL0     C 8343   8.661  -0.616   8.868 -0.8086 -0.0856  0.7985
   64MOL0     C 8344   8.560  -0.642   8.779 -0.0446  0.6301  0.8306
   64MOL0     C 8345   8.429  -0.697   8.818 -0.4097 -0.2481 -0.6334
   64MOL0     O 8346   8.343  -0.750   8.724  0.2612 -0.1958 -0.0942
   64MOL0     C 8347   8.208  -0.742   8.755  0.5824  1.1816  0.5351
   64MOL0     C 8348   8.163  -0.839   8.848 -0.1208  0.1290  0.0216
   64MOL0     C 8349   8.023  -0.837   8.887  0.3198 -0.0688 -0.4091
   64MOL0     C 8350   7.931  -0.752   8.816  1.1227 -1.3342 -0.1664
   64MOL0     O 8351   7.791  -0.768   8.829 -0.2029  0.4925  0.4607
   64MOL0     C 8352   7.749  -0.897   8.872 -0.4091  0.1055  0.5441
   64MOL0     C 8353   7.599  -0.898   8.891 -0.3818 -0.1961 -0.1027
   64MOL0     C 8354   7.526  -0.824   8.778  0.3929  0.4154  0.9540
   64MOL0     C 8355   7.379  -0.856   8.791  0.6866  0.3702 -1.0608
   64MOL0     C 8356   7.294  -0.820   8.664 -0.8085 -0.0045  0.3320
   64MOL0     C 8357   7.153  -0.815   8.671  1.2387 -0.4025 -0.3279
   64MOL0     C 8358   7.090  -0.960   8.694  0.1570  0.3796 -0.1926
   64MOL0     C 8359   6.939  -0.953   8.722 -0.6344 -1.1583  0.1522
   64MOL0    Cl 8360   6.868  -0.890   8.568 -0.2474  0.0537 -0.1554
   64MOL0     C 8361   7.985  -0.660   8.714  0.5176 -0.0432 -0.4417
   64MOL0     C 8362   8.118  -0.659   8.681 -0.0530  0.6603  0.3747
   64MOL0     O 8363   8.412  -0.694   8.939 -0.0488  0.6024 -0.8491
   64MOL0     C 8364   8.579  -0.612   8.646 -0.1377 -0.0226 -0.1326
   64MOL0     C 8365   8.704  -0.565   8.611  0.4151 -1.1494  0.7565
   64MOL0     N 8366   9.419  -0.282   8.549 -1.2278  0.5083  0.4490
   64MOL0     N 8367   9.540  -0.263   8.584 -1.6001 -0.4869  0.2519
   64MOL0     C 8368  10.528  -0.211   7.693 -0.7513  0.1960  0.5944
   64MOL0     C 8369  10.540  -0.100   7.608 -0.0215  0.4665  1.0599
   64MOL0     C 8370  10.477   0.312   7.443 -1.3383 -0.4434  0.0751
   64MOL0     C 8371  10.415   0.317   7.314 -0.1999  0.2099  0.7238
   64MOL0     C 8372  10.418   0.433   7.238 -0.2103 -1.6360 -0.9718
   64MOL0     C 8373  10.487   0.550   7.279  0.2791  0.2738 -0.5901
   64MOL0     O 8374  10.462   0.654   7.205  0.1464  0.1291  0.9460
   64MOL0     C 8375  10.515   0.785   7.232 -0.0225 -0.3815  0.0154
   64MOL0     C 8376  10.496   0.895   7.126 -0.3970  0.7177 -0.6997
   64MOL0     C 8377  10.526   0.833   6.997  0.0648 -1.3616 -0.5345
   64MOL0     C 8378  10.519   0.954   6.890  0.7336  0.7205 -0.8752
   64MOL0     C 8379  10.386   0.993   6.841 -0.0158  0.2975  0.7327
   64MOL0     C 8380  10.281   1.030   6.800 -0.3074 -0.2990 -0.1509
   64MOL0     C 8381  10.545   0.553   7.403 -0.2853 -0.0171  0.2953
   64MOL0     C 8382  10.544   0.440   7.480  0.0525  0.8809  0.1680
   64MOL0     H 8383  10.210  -0.052   7.541 -0.8544 -2.9867 -1.3234
   64MOL0     H 8384  10.192  -0.246   7.696  0.0123  1.2717  2.2881
   64MOL0     H 8385  10.350  -0.519   7.898  4.9661  1.2574 -2.8100
   64MOL0     H 8386  10.239  -0.451   7.783 -1.4242 -4.5522  2.6231
   64MOL0     H 8387  10.137  -0.314   7.942 -1.4829 -0.3431 -0.3982
   64MOL0     H 8388  10.285  -0.310   8.060 -2.2144 -0.7888  2.0522
   64MOL0     H 8389  10.218  -0.527   8.144 -0.5467  1.8048  3.3463
   64MOL0     H 8390  10.113  -0.538   8.004  2.9302 -0.7174 -0.6827
   64MOL0     H 8391   9.959  -0.357   8.116 -3.0987 -2.1332  0.7749
   64MOL0     H 8392   9.967  -0.499   8.192 -4.7001  3.1111 -1.8119
   64MOL0     H 8393  10.107  -0.238   8.291 -1.3046  0.6081  1.2338
   64MOL0     H 8394  10.176  -0.388   8.341 -0.0165 -0.9286  0.5683
   64MOL0     H 8395  10.017  -0.304   8.512  2.9927 -0.2454 -0.2369
   64MOL0     H 8396   9.981  -0.470   8.447  1.9799 -0.4541  0.3295
   64MOL0     H 8397   9.827  -0.217   8.373  1.6680 -0.0913 -1.0221
   64MOL0     H 8398   9.800  -0.383   8.309  0.2713  0.2374 -0.1702
   64MOL0     H 8399   9.785  -0.276   8.594 -0.9895  0.8008 -1.2843
   64MOL0     H 8400   9.788  -0.447   8.574 -1.1575 -0.7653  0.8435
   64MOL0     H 8401   9.566  -0.512   8.372  0.9789  0.3606  0.4932
   64MOL0     H 8402   9.287  -0.501   8.327  2.0300 -1.4617  2.4865
   64MOL0     H 8403   9.220  -0.343   8.389 -1.1179 -0.4278 -0.2717
   64MOL0     H 8404   9.196  -0.618   8.505  1.8124  1.1536 -1.4206
   64MOL0     H 8405   9.076  -0.518   8.439  1.1631 -0.0005 -2.7787
   64MOL0     H 8406   9.254  -0.470   8.696  0.3709  0.1115  2.3377
   64MOL0     H 8407   9.149  -0.345   8.635  5.5706 -0.2664  0.6554
   64MOL0     H 8408   9.048  -0.452   8.806  0.0944 -3.2581  1.3572
   64MOL0     H 8409   9.060  -0.618   8.742 -1.1510 -0.8904 -3.3876
   64MOL0     H 8410   8.859  -0.565   8.913 -1.8235  2.8292  1.6821
   64MOL0     H 8411   8.624  -0.628   8.970 -0.7249 -0.2504  0.8103
   64MOL0     H 8412   8.234  -0.913   8.884 -2.2365 -1.8700  0.2723
   64MOL0     H 8413   8.003  -0.917   8.957 -0.1346 -2.1941 -2.8212
   64MOL0     H 8414   7.790  -0.938   8.964 -3.9730 -0.8440  1.8859
   64MOL0     H 8415   7.770  -0.969   8.792 -0.9033 -0.1978  0.6828
   64MOL0     H 8416   7.569  -0.843   8.980  2.1763  2.3111 -0.6500
   64MOL0     H 8417   7.567  -1.003   8.901  2.0961 -1.0203 -0.0496
   64MOL0     H 8418   7.559  -0.851   8.677  1.7083  4.0951  0.2550
   64MOL0     H 8419   7.546  -0.717   8.788  1.7172  0.4625 -1.4300
   64MOL0     H 8420   7.367  -0.965   8.793  0.4881  0.3384 -2.7006
   64MOL0     H 8421   7.333  -0.808   8.878  2.9265  2.6609 -1.0149
   64MOL0     H 8422   7.321  -0.891   8.584  0.6769  0.0661  0.7421
   64MOL0     H 8423   7.326  -0.719   8.636 -2.3354 -0.1524 -2.3667
   64MOL0     H 8424   7.119  -0.782   8.572  0.1136  4.2666  1.3497
   64MOL0     H 8425   7.117  -0.746   8.748 -0.1864 -1.8822  0.4108
   64MOL0     H 8426   7.115  -1.007   8.598  0.6346  0.5313 -0.1428
   64MOL0     H 8427   7.144  -1.004   8.778 -0.7802 -2.2726 -0.8655
   64MOL0     H 8428   6.900  -0.901   8.811 -0.2856 -1.7800  0.6771
   64MOL0     H 8429   6.905  -1.057   8.726 -2.2596 -0.6284  0.9207
   64MOL0     H 8430   7.907  -0.599   8.668  1.4245  3.7980  2.5607
   64MOL0     H 8431   8.169  -0.584   8.621  0.7162 -0.1828 -0.0465
   64MOL0     H 8432   8.502  -0.625   8.571 -0.0294 -0.7767 -0.1230
   64MOL0     H 8433   8.717  -0.538   8.506 -5.2816  1.2905  0.2979
   64MOL0     H 8434  10.626  -0.253   7.714 -0.6422 -0.1045 -0.4686
   64MOL0     H 8435  10.626  -0.046   7.568 -1.3876  0.2249 -2.6069
   64MOL0     H 8436  10.371   0.229   7.268  0.9796 -0.6395  1.1793
   64MOL0     H 8437  10.377   0.433   7.137  0.2628 -2.6510 -1.1776
   64MOL0     H 8438  10.620   0.778   7.262  1.0782  0.8904 -3.1538
   64MOL0     H 8439  10.465   0.829   7.319 -0.9827  0.6678 -1.0329
   64MOL0     H 8440  10.394   0.934   7.131 -0.2444  1.4138 -2.3353
   64MOL0     H 8441  10.562   0.978   7.151  2.9069 -2.2142  1.3042
   64MOL0     H 8442  10.452   0.754   6.979 -1.7261 -1.0889  4.0772
   64MOL0     H 8443  10.628   0.796   6.995  0.5040 -0.1595 -1.1190
   64MOL0     H 8444  10.567   1.040   6.937  2.6696 -1.0164  0.4998
   64MOL0     H 8445  10.571   0.903   6.808 -0.5166  0.0816 -1.3020
   64MOL0     H 8446  10.183   1.051   6.763  0.2176 -1.3240 -2.2569
   64MOL0     H 8447  10.594   0.634   7.456  0.8978 -2.7115  3.6251
   64MOL0     H 8448  10.584   0.442   7.581  3.4688  0.5944 -1.0131
   65MOL0     O 8449   7.502   4.326  10.023 -0.2926  0.0457 -0.4488
   65MOL0     C 8450   7.427   4.349  10.117 -0.5087 -0.0649 -0.2929
   65MOL0     O 8451   7.296   4.395  10.110 -0.6423 -0.3960  0.0845
   65MOL0     C 8452   7.235   4.438   9.993 -0.7927  0.2518  0.8107
   65MOL0     C 8453   7.104   4.389   9.965 -0.6516  0.4284 -0.4754
   65MOL0     C 8454   7.035   4.405   9.848 -0.4070 -0.6107 -0.5922
   65MOL0     C 8455   7.101   4.472   9.741 -0.9321 -0.2701 -0.0920
   65MOL0     O 8456   7.024   4.483   9.627 -0.1747  0.4135 -0.1861
   65MOL0     C 8457   7.072   4.538   9.504  0.1395  0.1277  0.0540
   65MOL0     C 8458   7.163   4.438   9.425  0.2235 -0.5574  0.4881
   65MOL0     C 8459   7.204   4.516   9.299 -0.3100 -0.1077  0.3357
   65MOL0     C 8460   7.308   4.446   9.222 -0.0797  0.1229  1.0424
   65MOL0     C 8461   7.242   4.373   9.100 -0.3232 -0.3378 -0.2544
   65MOL0     C 8462   7.352   4.282   9.032  0.4198  0.1787  0.4429
   65MOL0     C 8463   7.301   4.228   8.904  1.1856  0.1281  0.2745
   65MOL0     C 8464   7.363   4.100   8.841  0.8163 -1.0478 -0.4787
   65MOL0     N 8465   7.320   3.985   8.910 -0.2331  0.1642 -0.1438
   65MOL0     C 8466   7.209   3.914   8.897  0.4429  0.4803 -0.5403
   65MOL0     C 8467   7.204   3.819   8.995 -0.0536  0.1832 -0.8817
   65MOL0     C 8468   7.083   3.724   9.028  0.4283 -1.1353  0.9244
   65MOL0     C 8469   6.949   3.785   9.036  0.2664  0.1998  0.4006
   65MOL0     C 8470   6.945   3.901   9.145  0.6050  0.7359  0.3258
   65MOL0     C 8471   6.800   3.942   9.167 -0.0130  0.3922  0.5264
   65MOL0     O 8472   6.742   3.981   9.047  0.2123 -0.4061 -0.0719
   65MOL0     C 8473   6.604   3.960   9.043 -0.2496 -0.0422  0.1706
   65MOL0     C 8474   6.548   3.891   8.935 -0.9102 -0.7017  0.3657
   65MOL0     C 8475   6.413   3.879   8.928  0.8955  0.8001 -0.8056
   65MOL0     C 8476   6.325   3.939   9.022 -0.1680 -0.4966 -0.2153
   65MOL0     C 8477   6.176   3.920   9.022  0.2306  0.3906  0.1153
   65MOL0     O 8478   6.103   3.982   9.122  0.1860  0.8478  0.9552
   65MOL0     C 8479   5.967   4.000   9.112  0.4318 -0.6741 -0.2345
   65MOL0     C 8480   5.902   4.030   9.234 -0.0749 -0.3167 -0.4382
   65MOL0     C 8481   5.770   4.075   9.236 -0.3447  0.3718 -0.8277
   65MOL0     C 8482   5.696   4.082   9.117 -1.5086  0.4732 -0.4689
   65MOL0     O 8483   5.570   4.130   9.117  0.2960 -0.7318 -0.4613
   65MOL0     C 8484   5.493   4.166   9.230 -0.6565 -0.1614  0.1143
   65MOL0     C 8485   5.359   4.220   9.175 -1.1157 -0.0373  0.9660
   65MOL0     C 8486   5.269   4.283   9.289  0.7885  0.7876  0.3057
   65MOL0     C 8487   5.127   4.299   9.230  0.0418  0.4986 -0.8066
   65MOL0     C 8488   5.019   4.311   9.350 -0.3740  0.7865  0.4916
   65MOL0     C 8489   4.967   4.450   9.374 -0.2323  0.8827  0.5126
   65MOL0     C 8490   4.859   4.464   9.483 -0.5818 -0.0754  0.3217
   65MOL0     C 8491   4.762   4.573   9.449  0.8868  0.4455 -0.1593
   65MOL0    Cl 8492   4.833   4.733   9.390  0.1110 -0.7309 -0.1377
   65MOL0     C 8493   5.752   4.048   8.995  0.2275  0.1103 -0.5364
   65MOL0     C 8494   5.892   4.014   8.988  0.1430 -0.5004 -0.5634
   65MOL0     O 8495   6.129   3.847   8.932  0.9555  0.6918 -0.7437
   65MOL0     C 8496   6.390   4.014   9.125  1.0373  0.2428  0.2013
   65MOL0     C 8497   6.523   4.027   9.129  0.3376 -0.7938 -0.8880
   65MOL0     N 8498   7.330   3.823   9.057 -0.0977  0.0251 -0.0010
   65MOL0     N 8499   7.399   3.927   9.009  0.3271  0.3588 -0.8340
   65MOL0     C 8500   7.233   4.528   9.762  0.0817 -0.5059 -0.2354
   65MOL0     C 8501   7.299   4.511   9.889 -0.2956 -0.1236 -0.0626
   65MOL0     C 8502   7.475   4.307  10.250 -0.2881 -0.1856 -0.5570
   65MOL0     C 8503   7.601   4.242  10.274 -1.6374  0.2569  0.1394
   65MOL0     C 8504   7.650   4.200  10.402 -0.2477 -0.4655  0.2672
   65MOL0     C 8505   7.560   4.210  10.506  1.4940  0.5400 -0.2506
   65MOL0     O 8506   7.582   4.184  10.638  0.5022 -0.7630 -0.3916
   65MOL0     C 8507   7.706   4.116  10.667  0.2751  0.6109  0.3742
   65MOL0     C 8508   7.734   4.123  10.814 -0.3263  0.2530 -0.0947
   65MOL0     C 8509   7.646   4.050  10.920  0.5732 -0.5302 -0.0374
   65MOL0     C 8510   7.673   3.905  10.912  0.7677 -0.6000  0.1968
   65MOL0     C 8511   7.566   3.842  10.996  0.6824  0.5467 -0.9942
   65MOL0     C 8512   7.470   3.806  11.057 -0.7756  0.3826  0.0980
   65MOL0     C 8513   7.436   4.279  10.485  1.0270 -1.4987 -0.1787
   65MOL0     C 8514   7.389   4.326  10.361  0.4097  0.4399 -0.2718
   65MOL0     H 8515   7.048   4.336  10.042  2.0045  1.4626  2.4166
   65MOL0     H 8516   6.936   4.363   9.832  0.1854 -2.8501  1.1116
   65MOL0     H 8517   7.122   4.632   9.526 -2.5199  1.4586  0.8477
   65MOL0     H 8518   6.986   4.572   9.446  0.8124  2.3858  0.3193
   65MOL0     H 8519   7.100   4.354   9.394 -0.4375 -0.5583  1.7715
   65MOL0     H 8520   7.250   4.415   9.488 -1.7871 -1.0321  3.2915
   65MOL0     H 8521   7.258   4.604   9.336  0.6476 -2.0201  3.9434
   65MOL0     H 8522   7.123   4.571   9.250  0.0373  1.0135  0.9877
   65MOL0     H 8523   7.376   4.524   9.186  1.1610  0.4518  3.8516
   65MOL0     H 8524   7.362   4.369   9.278 -1.5933 -1.1967  0.7597
   65MOL0     H 8525   7.216   4.449   9.027  1.8277  0.1404 -0.5954
   65MOL0     H 8526   7.163   4.305   9.133  0.3227  0.2129  2.7214
   65MOL0     H 8527   7.382   4.201   9.099 -0.4920 -1.0028 -0.5382
   65MOL0     H 8528   7.437   4.344   9.003  2.0719 -3.0780 -2.4665
   65MOL0     H 8529   7.193   4.214   8.913  1.4618 -2.7201  0.0346
   65MOL0     H 8530   7.311   4.309   8.831 -1.0673 -0.5423 -0.8778
   65MOL0     H 8531   7.472   4.104   8.839  0.8870  0.2666  2.1765
   65MOL0     H 8532   7.332   4.088   8.736 -1.4503  1.7899 -0.2733
   65MOL0     H 8533   7.133   3.932   8.822  2.9675 -1.4231 -3.8352
   65MOL0     H 8534   7.101   3.689   9.130  1.6279  3.1659  2.4102
   65MOL0     H 8535   7.089   3.646   8.952  0.9684  1.3827 -1.8134
   65MOL0     H 8536   6.895   3.695   9.065 -0.2509  0.9492  1.8790
   65MOL0     H 8537   6.916   3.809   8.934 -0.4234 -1.9113  0.0911
   65MOL0     H 8538   6.998   3.877   9.237 -2.1416  0.2599  1.9140
   65MOL0     H 8539   6.995   3.993   9.112 -0.6665  1.3115 -0.0775
   65MOL0     H 8540   6.800   4.024   9.240 -0.1150 -1.9140  3.3179
   65MOL0     H 8541   6.750   3.863   9.224  1.5300 -0.6955  0.4261
   65MOL0     H 8542   6.611   3.830   8.871 -0.5823 -4.0231  3.5654
   65MOL0     H 8543   6.371   3.821   8.846 -0.2027 -1.8129  1.4364
   65MOL0     H 8544   5.959   4.005   9.323  0.4622 -2.0825 -1.2185
   65MOL0     H 8545   5.726   4.087   9.335  2.1442 -0.3610  0.4503
   65MOL0     H 8546   5.537   4.253   9.280 -1.8594  1.8124 -2.0528
   65MOL0     H 8547   5.491   4.085   9.302  0.5416  2.1458  2.9384
   65MOL0     H 8548   5.307   4.137   9.126 -0.6754  0.5310 -0.5284
   65MOL0     H 8549   5.377   4.294   9.097  1.1240  0.1927  1.6496
   65MOL0     H 8550   5.305   4.381   9.321  0.4038  1.8597 -2.3139
   65MOL0     H 8551   5.268   4.217   9.377 -0.3355  0.3919  0.0101
   65MOL0     H 8552   5.127   4.381   9.157 -0.0155 -0.4514 -1.9048
   65MOL0     H 8553   5.104   4.217   9.161 -0.8371  1.6364 -1.9344
   65MOL0     H 8554   5.069   4.282   9.443 -0.6213 -2.4772 -0.2568
   65MOL0     H 8555   4.950   4.229   9.325 -0.2072  1.3247 -2.0230
   65MOL0     H 8556   4.918   4.488   9.284  3.9226  3.8802 -0.7991
   65MOL0     H 8557   5.052   4.517   9.392  0.5069  0.1372 -0.1213
   65MOL0     H 8558   4.803   4.370   9.495  0.4478 -0.4422  2.9864
   65MOL0     H 8559   4.917   4.485   9.573  2.4369  0.8347 -1.7091
   65MOL0     H 8560   4.703   4.593   9.539 -0.1480 -1.9395 -0.2160
   65MOL0     H 8561   4.695   4.541   9.368  1.7133  0.5106 -0.8856
   65MOL0     H 8562   5.688   4.051   8.908 -0.4528  1.1366 -0.0260
   65MOL0     H 8563   5.950   4.006   8.897 -1.8117 -2.1548 -1.7526
   65MOL0     H 8564   6.333   4.071   9.198 -0.5624 -3.2406  1.8630
   65MOL0     H 8565   6.574   4.085   9.205  0.3439 -2.3111  0.3072
   65MOL0     H 8566   7.286   4.582   9.684  1.5220 -2.8349 -0.9993
   65MOL0     H 8567   7.406   4.531   9.897 -0.6032  1.5464  0.0907
   65MOL0     H 8568   7.667   4.223  10.190  1.2188 -2.6053  2.7464
   65MOL0     H 8569   7.752   4.163  10.413  0.5446  2.0516  2.4863
   65MOL0     H 8570   7.798   4.155  10.623  0.7306 -1.1780 -0.3793
   65MOL0     H 8571   7.704   4.013  10.630  1.1406  1.6774 -3.0015
   65MOL0     H 8572   7.840   4.096  10.826  0.2460  0.6959 -3.3300
   65MOL0     H 8573   7.728   4.229  10.838 -3.1992  0.5304 -1.6928
   65MOL0     H 8574   7.541   4.079  10.906  1.2105  1.3751 -1.1429
   65MOL0     H 8575   7.678   4.084  11.019 -0.1185 -1.1153  0.3981
   65MOL0     H 8576   7.664   3.859  10.813  0.4746 -1.7111  0.7247
   65MOL0     H 8577   7.774   3.897  10.952  0.6416 -2.1017  0.2663
   65MOL0     H 8578   7.383   3.777  11.113 -2.2145  2.4834 -0.9075
   65MOL0     H 8579   7.369   4.285  10.570 -1.9440  0.1169 -2.4227
   65MOL0     H 8580   7.292   4.373  10.353  0.8894  1.3633 -0.8458
   66MOL0     O 8581   9.037   3.733   0.058  0.0083  0.8451 -1.1808
   66MOL0     C 8582   9.100   3.822   0.003 -0.1322 -0.1614 -0.4035
   66MOL0     O 8583   9.224   3.813  -0.052 -0.2156 -0.3392 -0.2160
   66MOL0     C 8584   9.304   3.705  -0.021 -0.1903 -0.6000  0.2037
   66MOL0     C 8585   9.428   3.734   0.034  0.2090  0.4165 -0.0740
   66MOL0     C 8586   9.514   3.632   0.063 -1.1872  0.8604  0.5965
   66MOL0     C 8587   9.488   3.499   0.029 -0.3736  0.3066  0.8945
   66MOL0     O 8588   9.566   3.394   0.054 -0.7413  0.7031  0.9675
   66MOL0     C 8589   9.671   3.392   0.147 -1.4970 -0.5032 -0.2415
   66MOL0     C 8590   9.630   3.441   0.288 -0.5985 -0.2228 -0.1520
   66MOL0     C 8591   9.724   3.562   0.330  0.1626  0.2326 -0.3451
   66MOL0     C 8592   9.796   3.555   0.458 -0.0296  1.0553  0.5286
   66MOL0     C 8593   9.889   3.434   0.477 -0.4325  0.5660 -0.1956
   66MOL0     C 8594   9.951   3.412   0.622 -0.4259 -0.0433  0.3701
   66MOL0     C 8595  10.066   3.315   0.631 -0.1181  0.1424  0.1777
   66MOL0     C 8596  10.098   3.315   0.778  0.0747 -0.1074  0.6102
   66MOL0     N 8597  10.226   3.252   0.785  0.4274 -0.1329  0.0191
   66MOL0     C 8598  10.352   3.308   0.788  1.2306 -0.5501 -0.4395
   66MOL0     C 8599  10.443   3.217   0.830  0.3699 -1.1436  0.3618
   66MOL0     C 8600  10.582   3.238   0.848 -0.8459 -0.1136 -0.4425
   66MOL0     C 8601  10.677   3.118   0.852 -1.6587  1.1874 -1.3934
   66MOL0     C 8602  10.675   3.037   0.983 -0.4321  0.3225 -0.7332
   66MOL0     C 8603  10.717   3.124   1.110  0.1272  0.5796  0.4040
   66MOL0     O 8604  10.816   3.215   1.057 -0.0844 -0.2506 -0.1442
   66MOL0     C 8605  10.854   3.323   1.138  0.5350 -0.3219  0.1043
   66MOL0     C 8606  10.776   3.390   1.239  0.2743 -1.1247 -0.2590
   66MOL0     C 8607  10.830   3.497   1.319 -0.0052  0.3742  0.6958
   66MOL0     C 8608  10.955   3.543   1.279  0.6682 -0.5686 -0.7654
   66MOL0     C 8609  11.014   3.660   1.358  0.0874  0.0508  0.5282
   66MOL0     O 8610  11.117   3.741   1.302  0.0300  0.5311 -0.4164
   66MOL0     C 8611  11.141   3.870   1.343  0.7998 -0.0685  0.0261
   66MOL0     C 8612  11.036   3.954   1.391 -0.0717  0.4372  0.1720
   66MOL0     C 8613  11.054   4.091   1.424  0.1154  0.4319  0.7345
   66MOL0     C 8614  11.179   4.155   1.406 -0.3917 -0.0316 -0.5043
   66MOL0     O 8615  11.193   4.293   1.426 -0.4108  0.6054 -0.1277
   66MOL0     C 8616  11.328   4.344   1.428  0.8700 -0.3275  0.6374
   66MOL0     C 8617  11.324   4.498   1.429 -0.1257  0.2412  0.8477
   66MOL0     C 8618  11.464   4.568   1.446  0.8099 -1.2694 -0.0267
   66MOL0     C 8619  11.543   4.555   1.316 -0.0503  0.6674 -0.6471
   66MOL0     C 8620  11.683   4.619   1.340  0.1258  0.5604 -0.3082
   66MOL0     C 8621  11.764   4.650   1.213  0.3285 -0.5014 -0.3879
   66MOL0     C 8622  11.805   4.535   1.131  0.8057  0.5436  0.2259
   66MOL0     C 8623  11.938   4.575   1.044  0.5920 -0.3863  0.1727
   66MOL0    Cl 8624  12.074   4.619   1.140  0.2060 -0.1680 -0.2852
   66MOL0     C 8625  11.290   4.069   1.374  0.6811  0.2394 -0.2337
   66MOL0     C 8626  11.269   3.927   1.341 -0.4146 -0.5567 -0.0156
   66MOL0     O 8627  10.960   3.683   1.471  0.0972  0.9412  0.4213
   66MOL0     C 8628  11.023   3.487   1.172 -0.5577  0.2486 -0.3190
   66MOL0     C 8629  10.973   3.383   1.100 -0.8603  0.8499  0.6828
   66MOL0     N 8630  10.377   3.098   0.850 -0.3054  0.5164 -1.0447
   66MOL0     N 8631  10.247   3.124   0.832 -0.3833  0.6786  0.2560
   66MOL0     C 8632   9.360   3.471  -0.013  0.9811  0.7510 -0.1783
   66MOL0     C 8633   9.271   3.571  -0.045  0.9279  0.0127 -0.0790
   66MOL0     C 8634   9.042   3.954  -0.019  0.5662  0.7938 -0.0682
   66MOL0     C 8635   8.907   3.972   0.024  0.7971 -0.4197 -0.6268
   66MOL0     C 8636   8.852   4.093   0.000  0.6217 -0.3847  0.4126
   66MOL0     C 8637   8.909   4.191  -0.070 -0.4761  0.1878 -0.2405
   66MOL0     O 8638   8.825   4.295  -0.090  0.6529  0.3399 -1.1797
   66MOL0     C 8639   8.854   4.402  -0.179  0.1215  1.0418 -0.9232
   66MOL0     C 8640   8.725   4.447  -0.250  0.0830 -0.2595 -0.2323
   66MOL0     C 8641   8.618   4.493  -0.159  0.1549 -0.6822  0.0877
   66MOL0     C 8642   8.489   4.498  -0.242 -0.3714  0.6266 -0.7580
   66MOL0     C 8643   8.361   4.498  -0.155 -0.3006  0.2805 -0.2952
   66MOL0     C 8644   8.268   4.508  -0.084 -0.4137  0.6607 -0.5260
   66MOL0     C 8645   9.047   4.180  -0.113 -0.4567 -1.0349 -0.0238
   66MOL0     C 8646   9.119   4.060  -0.083  0.9308 -0.5177 -0.0746
   66MOL0     H 8647   9.464   3.836   0.046  2.4187  0.0609 -2.6756
   66MOL0     H 8648   9.617   3.642   0.096  0.4147  0.5322 -3.6969
   66MOL0     H 8649   9.755   3.449   0.107 -3.7864  1.6286 -2.3486
   66MOL0     H 8650   9.703   3.287   0.155 -2.5336 -0.8696 -0.7216
   66MOL0     H 8651   9.631   3.352   0.351 -1.0694 -0.7581 -0.8801
   66MOL0     H 8652   9.528   3.480   0.299 -0.9543 -1.4518  1.1976
   66MOL0     H 8653   9.675   3.660   0.326  0.0368  0.2815  1.5787
   66MOL0     H 8654   9.806   3.570   0.258 -0.8746 -1.7809 -1.8351
   66MOL0     H 8655   9.851   3.646   0.483 -1.6544  2.2594 -0.0534
   66MOL0     H 8656   9.717   3.539   0.533  2.1126 -3.4648  2.1401
   66MOL0     H 8657   9.972   3.433   0.405 -1.4563 -1.8786 -1.4593
   66MOL0     H 8658   9.839   3.339   0.454  3.1669 -1.5414 -0.1410
   66MOL0     H 8659   9.871   3.370   0.683  0.3411 -2.0483  0.0600
   66MOL0     H 8660   9.987   3.509   0.657  1.1680 -0.2251 -0.6832
   66MOL0     H 8661  10.028   3.218   0.598 -2.3063  1.7678 -2.4331
   66MOL0     H 8662  10.148   3.337   0.562 -0.2409  0.4302  0.1225
   66MOL0     H 8663  10.025   3.261   0.839 -1.2661  0.4449 -0.4795
   66MOL0     H 8664  10.100   3.417   0.816 -0.5010 -0.0361  0.4540
   66MOL0     H 8665  10.370   3.414   0.772 -0.5583  0.8794  4.9816
   66MOL0     H 8666  10.595   3.305   0.933  5.0758 -3.0482  1.5113
   66MOL0     H 8667  10.624   3.303   0.771  0.5885  0.0640  0.4607
   66MOL0     H 8668  10.780   3.154   0.836 -1.1454 -0.1440 -1.1903
   66MOL0     H 8669  10.653   3.041   0.779 -1.7952  1.0073 -1.1586
   66MOL0     H 8670  10.580   2.982   0.989 -0.5440  0.5061 -0.7980
   66MOL0     H 8671  10.746   2.954   0.982 -2.2464 -1.3334 -2.8137
   66MOL0     H 8672  10.761   3.065   1.192  0.2866  1.2256  0.7883
   66MOL0     H 8673  10.621   3.165   1.145  0.2307  0.4032  0.9058
   66MOL0     H 8674  10.670   3.364   1.238 -0.2318  0.5956  1.6940
   66MOL0     H 8675  10.765   3.539   1.395 -0.8645 -0.8128  0.6548
   66MOL0     H 8676  10.935   3.915   1.391 -1.4173  3.5145 -2.2675
   66MOL0     H 8677  10.970   4.153   1.453 -0.0007  3.3276 -4.5302
   66MOL0     H 8678  11.379   4.324   1.334  0.6880  2.0515 -0.0384
   66MOL0     H 8679  11.396   4.299   1.501 -0.5299 -0.4053  1.9616
   66MOL0     H 8680  11.261   4.536   1.510 -0.6847  1.6150 -0.1972
   66MOL0     H 8681  11.271   4.531   1.339  0.9502  0.6237  0.3411
   66MOL0     H 8682  11.518   4.521   1.529 -2.3405 -1.8082  1.8920
   66MOL0     H 8683  11.450   4.675   1.462 -2.1693 -1.6061  0.2461
   66MOL0     H 8684  11.562   4.450   1.292 -3.8350 -0.6550  1.3353
   66MOL0     H 8685  11.487   4.595   1.232 -0.5480 -1.9986 -1.6656
   66MOL0     H 8686  11.743   4.558   1.408  1.6519  0.9327 -1.2662
   66MOL0     H 8687  11.660   4.711   1.394  3.1653 -0.1001  2.4566
   66MOL0     H 8688  11.854   4.707   1.240 -0.6959 -0.1328  2.5963
   66MOL0     H 8689  11.709   4.716   1.146  1.0017 -1.3442 -1.8197
   66MOL0     H 8690  11.824   4.453   1.201  1.8837  0.7505  0.1843
   66MOL0     H 8691  11.724   4.502   1.064  0.3160 -1.6658  1.7888
   66MOL0     H 8692  11.921   4.654   0.970 -1.4041  0.9156  1.8884
   66MOL0     H 8693  11.968   4.491   0.981 -1.6684 -0.5125 -0.8249
   66MOL0     H 8694  11.394   4.101   1.373  1.1558 -0.9827  2.2580
   66MOL0     H 8695  11.350   3.870   1.295 -0.1591 -1.8118  1.8964
   66MOL0     H 8696  11.122   3.523   1.147 -0.6753  0.7360 -0.1008
   66MOL0     H 8697  11.029   3.334   1.021 -3.6957  1.0855 -1.6873
   66MOL0     H 8698   9.338   3.365  -0.007 -0.7270  1.1308  1.2362
   66MOL0     H 8699   9.171   3.549  -0.082  0.6325  0.6996  0.2949
   66MOL0     H 8700   8.843   3.907   0.083 -2.2032  1.3253 -1.7489
   66MOL0     H 8701   8.746   4.114   0.011  0.4738  0.1273 -1.6041
   66MOL0     H 8702   8.925   4.369  -0.255 -1.9234 -1.0261 -2.0743
   66MOL0     H 8703   8.898   4.477  -0.113  1.1060 -0.5211  0.2828
   66MOL0     H 8704   8.760   4.527  -0.316  2.6023  0.6102  1.9683
   66MOL0     H 8705   8.690   4.367  -0.316  1.3004 -0.0434 -1.1815
   66MOL0     H 8706   8.663   4.587  -0.125 -0.2883  0.0025 -1.1672
   66MOL0     H 8707   8.608   4.427  -0.072 -1.4569 -0.6121 -0.0189
   66MOL0     H 8708   8.482   4.582  -0.313 -0.7787 -0.6130 -2.2264
   66MOL0     H 8709   8.482   4.401  -0.292  1.6915 -0.2885  0.6065
   66MOL0     H 8710   8.189   4.514  -0.012 -0.0069  0.5861 -0.0685
   66MOL0     H 8711   9.104   4.263  -0.153  2.5521 -3.1206 -0.4757
   66MOL0     H 8712   9.225   4.055  -0.103  1.1125  1.7635  0.0495
   67MOL0     O 8713  11.315  10.452   3.840 -0.0882  0.3898  0.5492
   67MOL0     C 8714  11.195  10.453   3.861 -1.0619  0.7146 -1.2569
   67MOL0     O 8715  11.130  10.348   3.916 -0.0706 -0.5089  0.9076
   67MOL0     C 8716  11.186  10.240   3.972 -1.1581 -0.7505 -0.3033
   67MOL0     C 8717  11.125  10.112   3.944 -0.6731 -0.5377 -0.1994
   67MOL0     C 8718  11.183   9.987   3.971 -0.0077  0.3178 -0.1174
   67MOL0     C 8719  11.300   9.977   4.051  0.3923 -0.7679  0.6551
   67MOL0     O 8720  11.356   9.858   4.090 -1.3069 -0.9871 -0.0231
   67MOL0     C 8721  11.280   9.732   4.067 -0.8766  0.6674  0.1317
   67MOL0     C 8722  11.281   9.677   3.922 -0.4576 -0.1845 -0.1123
   67MOL0     C 8723  11.202   9.539   3.908 -0.3051  1.3742  0.0975
   67MOL0     C 8724  11.227   9.484   3.764  0.7257 -0.4580  0.2158
   67MOL0     C 8725  11.343   9.384   3.745  0.4475  0.2474 -0.2720
   67MOL0     C 8726  11.382   9.354   3.597 -0.4141  0.3482 -0.4813
   67MOL0     C 8727  11.450   9.478   3.533  0.6427  0.5747 -0.3695
   67MOL0     C 8728  11.513   9.427   3.406  0.1016  0.1907  0.5750
   67MOL0     N 8729  11.628   9.335   3.435 -0.5246 -1.0786 -0.5202
   67MOL0     C 8730  11.678   9.231   3.367 -0.5007  0.4942 -0.1797
   67MOL0     C 8731  11.766   9.173   3.452 -0.4781 -0.7879  0.1874
   67MOL0     C 8732  11.847   9.050   3.421  0.6584  0.1121 -0.6220
   67MOL0     C 8733  11.877   9.037   3.278  0.2968 -0.1936  0.0485
   67MOL0     C 8734  11.995   8.947   3.252 -1.1526  0.4563 -0.4981
   67MOL0     C 8735  11.966   8.800   3.282 -0.3334 -0.5969  0.7448
   67MOL0     O 8736  11.899   8.760   3.154  0.2841 -0.3610  0.0153
   67MOL0     C 8737  11.841   8.636   3.164  0.2842  0.6931  0.5939
   67MOL0     C 8738  11.881   8.528   3.247  0.5336 -0.3699 -0.3362
   67MOL0     C 8739  11.822   8.401   3.256  0.0360  0.6315  0.1194
   67MOL0     C 8740  11.715   8.379   3.174 -0.0251 -0.6049 -0.5413
   67MOL0     C 8741  11.649   8.246   3.174 -0.3549  0.0497 -0.4373
   67MOL0     O 8742  11.691   8.168   3.276  0.2398 -0.3683  0.2276
   67MOL0     C 8743  11.650   8.034   3.260  0.2393  0.3195 -0.3956
   67MOL0     C 8744  11.536   7.983   3.332  0.2738 -0.3057  0.7311
   67MOL0     C 8745  11.486   7.853   3.302  0.7921  0.2730 -0.1240
   67MOL0     C 8746  11.555   7.771   3.218  0.0539  0.3903 -0.5917
   67MOL0     O 8747  11.499   7.643   3.210  0.2359  0.3730  0.2124
   67MOL0     C 8748  11.593   7.544   3.160 -0.2572  0.1633 -0.3842
   67MOL0     C 8749  11.547   7.396   3.200 -0.5029 -1.4199  0.8172
   67MOL0     C 8750  11.419   7.363   3.126  0.6025  0.6182  0.3529
   67MOL0     C 8751  11.360   7.219   3.172  0.1645  0.4950  0.5229
   67MOL0     C 8752  11.214   7.197   3.139 -0.4379 -0.8910  0.1781
   67MOL0     C 8753  11.190   7.187   2.991  0.4791 -0.4244  0.7326
   67MOL0     C 8754  11.230   7.062   2.927 -0.6642  0.3305 -0.2435
   67MOL0     C 8755  11.102   6.970   2.926 -0.9495  0.5254  0.7282
   67MOL0    Cl 8756  11.159   6.800   2.894 -0.2726  0.1049 -0.0098
   67MOL0     C 8757  11.667   7.822   3.149 -0.3051  0.5260 -0.5381
   67MOL0     C 8758  11.720   7.952   3.175  0.5010  0.8527 -0.2200
   67MOL0     O 8759  11.577   8.210   3.085  0.6646 -0.0749  0.5764
   67MOL0     C 8760  11.680   8.476   3.077  0.1724 -0.4367 -0.8262
   67MOL0     C 8761  11.744   8.606   3.069 -0.2225 -0.9056  0.3978
   67MOL0     N 8762  11.781   9.249   3.562 -0.0495  0.3569 -0.2882
   67MOL0     N 8763  11.695   9.341   3.558  0.3587  0.2760  0.2692
   67MOL0     C 8764  11.374  10.091   4.082  0.2056  1.1150  0.0205
   67MOL0     C 8765  11.312  10.223   4.042 -0.3620 -0.0542  0.7525
   67MOL0     C 8766  11.135  10.586   3.852 -0.1043 -0.4746  0.3516
   67MOL0     C 8767  11.181  10.678   3.758 -0.6926 -0.7137  0.0749
   67MOL0     C 8768  11.127  10.806   3.753  0.6864  0.5675  0.8144
   67MOL0     C 8769  11.021  10.839   3.830 -0.1195 -0.8161 -0.3983
   67MOL0     O 8770  10.981  10.967   3.803  0.0786 -0.3819  0.2551
   67MOL0     C 8771  10.833  10.991   3.826 -0.2141 -0.2701  0.2820
   67MOL0     C 8772  10.818  11.131   3.772 -0.1714  1.1553  0.5217
   67MOL0     C 8773  10.681  11.173   3.743  0.2540 -0.1332  0.3234
   67MOL0     C 8774  10.670  11.313   3.669 -0.2744 -0.4935 -0.6585
   67MOL0     C 8775  10.687  11.427   3.760 -1.0442 -0.8500 -0.0210
   67MOL0     C 8776  10.707  11.531   3.827  0.8792 -0.7572  0.7899
   67MOL0     C 8777  10.968  10.745   3.921 -0.6729 -0.2567 -0.1856
   67MOL0     C 8778  11.023  10.612   3.927  0.1071 -0.7640  0.4867
   67MOL0     H 8779  11.029  10.125   3.896 -1.8340 -1.6806  1.6791
   67MOL0     H 8780  11.134   9.893   3.949  4.8462 -2.0667 -2.2804
   67MOL0     H 8781  11.175   9.738   4.095 -1.1501  0.6368 -0.8335
   67MOL0     H 8782  11.337   9.662   4.128 -0.2931  1.5358  0.5983
   67MOL0     H 8783  11.385   9.673   3.889  0.2807 -0.1153  2.0539
   67MOL0     H 8784  11.228   9.742   3.852  0.6582 -0.2546 -1.0589
   67MOL0     H 8785  11.097   9.563   3.924  0.2982  4.3046  0.3215
   67MOL0     H 8786  11.222   9.463   3.985 -0.3952  0.4891 -0.7435
   67MOL0     H 8787  11.134   9.441   3.726 -0.9578  0.4939  2.9820
   67MOL0     H 8788  11.249   9.570   3.700 -1.9707 -0.5299 -0.9357
   67MOL0     H 8789  11.316   9.289   3.792 -0.3934 -2.0176 -4.8683
   67MOL0     H 8790  11.427   9.429   3.800  0.0159  1.5055 -0.5935
   67MOL0     H 8791  11.291   9.328   3.542 -0.5908 -0.1894  0.0550
   67MOL0     H 8792  11.447   9.266   3.593  0.4494  0.9061  0.6568
   67MOL0     H 8793  11.382   9.562   3.515  1.2824  1.8084  2.4512
   67MOL0     H 8794  11.528   9.519   3.597  0.2491 -2.6364  2.4550
   67MOL0     H 8795  11.551   9.514   3.351 -2.6321  1.1780  0.0732
   67MOL0     H 8796  11.451   9.381   3.330  2.2817 -1.2757 -0.3996
   67MOL0     H 8797  11.635   9.197   3.274 -0.2838  1.6060 -0.6981
   67MOL0     H 8798  11.785   8.966   3.452  3.1470 -1.3953  0.6244
   67MOL0     H 8799  11.937   9.051   3.485  1.2551 -0.1285 -1.4473
   67MOL0     H 8800  11.902   9.136   3.237  1.9021  0.3260  2.0474
   67MOL0     H 8801  11.787   9.006   3.225  0.3995 -1.0937  0.3972
   67MOL0     H 8802  12.026   8.963   3.148  0.0377  1.7129  0.0275
   67MOL0     H 8803  12.080   8.981   3.312  0.8559  1.1956 -3.5283
   67MOL0     H 8804  11.908   8.778   3.373 -1.5180 -1.8234 -0.2692
   67MOL0     H 8805  12.060   8.746   3.295 -0.9627 -1.8840  0.0837
   67MOL0     H 8806  11.968   8.540   3.311  1.0381  2.0513 -1.3799
   67MOL0     H 8807  11.867   8.327   3.320  1.5108  1.1154 -0.2982
   67MOL0     H 8808  11.486   8.044   3.407 -0.2172  0.6176 -0.3072
   67MOL0     H 8809  11.394   7.821   3.352  0.4051  2.2658  0.5315
   67MOL0     H 8810  11.688   7.557   3.214 -0.4574 -1.9728  0.5869
   67MOL0     H 8811  11.607   7.540   3.051 -4.0879 -1.2131 -0.9707
   67MOL0     H 8812  11.544   7.395   3.310  1.2405 -3.9557  0.9289
   67MOL0     H 8813  11.629   7.328   3.175 -1.3839 -2.9814  2.0196
   67MOL0     H 8814  11.432   7.364   3.018 -4.9697  0.0008 -0.6262
   67MOL0     H 8815  11.348   7.443   3.152 -0.8709 -1.3721  2.9648
   67MOL0     H 8816  11.420   7.137   3.133 -1.2253 -0.1468 -0.3530
   67MOL0     H 8817  11.360   7.213   3.281 -1.8438  1.4981  0.6250
   67MOL0     H 8818  11.155   7.283   3.171  0.4228  1.2151 -3.3601
   67MOL0     H 8819  11.169   7.112   3.192 -1.1949  0.0430  1.0566
   67MOL0     H 8820  11.235   7.271   2.936 -1.5156 -0.4196 -1.0058
   67MOL0     H 8821  11.084   7.206   2.972  1.1458  2.0872 -0.9770
   67MOL0     H 8822  11.267   7.088   2.827 -0.0019 -0.8886 -0.3332
   67MOL0     H 8823  11.319   7.030   2.981  0.2573  2.1659 -0.6097
   67MOL0     H 8824  11.027   7.008   2.856 -0.7532  0.4859  0.4966
   67MOL0     H 8825  11.053   6.980   3.024 -3.7673  0.3482 -0.5577
   67MOL0     H 8826  11.731   7.760   3.087 -1.2329 -0.8751 -0.1497
   67MOL0     H 8827  11.805   7.998   3.127  0.5667 -0.4773 -1.4501
   67MOL0     H 8828  11.587   8.452   3.028 -0.6892 -1.1923  1.0929
   67MOL0     H 8829  11.718   8.683   2.997  0.1795  0.0637  1.2624
   67MOL0     H 8830  11.461  10.102   4.145 -0.2003 -1.6977  1.2408
   67MOL0     H 8831  11.372  10.309   4.067  0.2740 -0.7256  1.5663
   67MOL0     H 8832  11.263  10.659   3.690  0.0450  5.1620 -1.1731
   67MOL0     H 8833  11.160  10.873   3.674  0.1627 -1.0947 -0.8625
   67MOL0     H 8834  10.821  10.986   3.934  1.6723  0.1370  0.5478
   67MOL0     H 8835  10.777  10.918   3.767  0.0308  0.5911 -1.0727
   67MOL0     H 8836  10.867  11.203   3.839  0.1976  1.6538 -0.2647
   67MOL0     H 8837  10.869  11.130   3.675 -0.7193 -1.6776  0.1931
   67MOL0     H 8838  10.624  11.170   3.836 -3.2893 -0.2077 -1.6653
   67MOL0     H 8839  10.638  11.102   3.671 -2.2086 -1.1605  2.6588
   67MOL0     H 8840  10.750  11.318   3.595 -2.0333  0.3713 -2.5931
   67MOL0     H 8841  10.581  11.332   3.608 -1.1996  0.4494  0.8962
   67MOL0     H 8842  10.713  11.611   3.897  0.1792  0.1440 -0.1488
   67MOL0     H 8843  10.884  10.761   3.987  0.5354  1.2103  1.0641
   67MOL0     H 8844  10.977  10.550   4.003  0.5705  0.0258  1.4335
   68MOL0     O 8845   8.205   6.845   9.472  0.2198 -0.7123 -0.6822
   68MOL0     C 8846   8.219   6.913   9.573  0.1042  0.1480 -0.2529
   68MOL0     O 8847   8.182   7.043   9.589 -0.8311 -0.8781 -1.5042
   68MOL0     C 8848   8.123   7.125   9.496  0.1091  0.8928 -0.8697
   68MOL0     C 8849   8.169   7.246   9.475 -0.4648 -1.1446  0.1504
   68MOL0     C 8850   8.115   7.328   9.366 -0.0900 -0.2708  0.4933
   68MOL0     C 8851   8.010   7.281   9.283 -0.4828  0.0737 -0.4832
   68MOL0     O 8852   7.970   7.346   9.171 -0.0041  0.4553 -0.2745
   68MOL0     C 8853   7.911   7.478   9.202 -0.1055  0.5267  0.8471
   68MOL0     C 8854   7.946   7.576   9.093 -0.0664  0.2576 -0.7602
   68MOL0     C 8855   7.890   7.538   8.951 -0.0065  1.6262 -0.1227
   68MOL0     C 8856   7.878   7.658   8.865  0.4825 -0.2761  0.3244
   68MOL0     C 8857   7.781   7.644   8.747  0.1395 -0.0369 -0.1118
   68MOL0     C 8858   7.634   7.672   8.775  0.3682 -0.6014 -0.8741
   68MOL0     C 8859   7.579   7.723   8.908 -0.0394 -0.4312  0.7314
   68MOL0     C 8860   7.431   7.691   8.908  1.1203  0.6265  0.2082
   68MOL0     N 8861   7.351   7.765   8.812 -0.7197  0.0269  0.5717
   68MOL0     C 8862   7.313   7.710   8.691 -0.0570 -0.1754  0.7133
   68MOL0     C 8863   7.227   7.804   8.635  0.4390 -0.3320  0.4992
   68MOL0     C 8864   7.118   7.783   8.533 -0.3345  0.2050 -0.9460
   68MOL0     C 8865   7.135   7.871   8.406 -1.0000  0.0877 -1.1872
   68MOL0     C 8866   7.020   7.965   8.392 -0.6510 -0.2760  0.7035
   68MOL0     C 8867   6.877   7.910   8.410  0.0810  0.5263 -0.6180
   68MOL0     O 8868   6.862   7.796   8.327  0.5297 -0.1125  0.1868
   68MOL0     C 8869   6.744   7.717   8.328 -0.0010 -1.2830 -0.4896
   68MOL0     C 8870   6.633   7.734   8.427 -0.6842 -0.6958 -0.3077
   68MOL0     C 8871   6.531   7.644   8.426 -0.3312  0.0695 -0.6993
   68MOL0     C 8872   6.526   7.541   8.330  0.2724  0.4893  0.5664
   68MOL0     C 8873   6.426   7.437   8.321  0.8472 -0.5531  0.3683
   68MOL0     O 8874   6.331   7.443   8.428  0.5723  0.2055 -0.4906
   68MOL0     C 8875   6.225   7.359   8.434 -0.5117 -0.5901  1.5970
   68MOL0     C 8876   6.230   7.227   8.471 -0.0674  0.6628 -0.4173
   68MOL0     C 8877   6.117   7.149   8.490  0.5873  0.0356  0.8208
   68MOL0     C 8878   5.992   7.211   8.467  0.8465 -0.4982  0.7344
   68MOL0     O 8879   5.865   7.163   8.488 -0.1694  0.3113 -0.5701
   68MOL0     C 8880   5.857   7.022   8.534 -0.3039  0.1476  0.0868
   68MOL0     C 8881   5.706   6.981   8.553 -0.1489  0.1895  0.7139
   68MOL0     C 8882   5.694   6.831   8.540  0.4062  0.7483  0.3678
   68MOL0     C 8883   5.545   6.789   8.551  0.1261 -0.0057 -0.3912
   68MOL0     C 8884   5.542   6.641   8.570  0.0953  0.4607  0.9410
   68MOL0     C 8885   5.397   6.587   8.555  0.2422 -0.5345  0.4020
   68MOL0     C 8886   5.378   6.444   8.612 -0.4748  0.1716  0.8505
   68MOL0     C 8887   5.237   6.394   8.588  0.4102 -0.0849  0.2444
   68MOL0    Cl 8888   5.208   6.218   8.631 -0.0684 -0.2870  0.0208
   68MOL0     C 8889   5.990   7.343   8.408 -0.4777 -0.3624 -0.1604
   68MOL0     C 8890   6.107   7.423   8.394 -0.2038  0.1897  0.7149
   68MOL0     O 8891   6.422   7.353   8.225 -0.5788  0.4988 -0.7599
   68MOL0     C 8892   6.625   7.542   8.228  0.2951 -0.7488  0.7397
   68MOL0     C 8893   6.736   7.622   8.228 -0.3363 -0.7133 -0.1980
   68MOL0     N 8894   7.225   7.914   8.717  0.3312  0.3245 -0.4470
   68MOL0     N 8895   7.301   7.893   8.821  0.4204 -0.0431  0.9141
   68MOL0     C 8896   7.962   7.160   9.310  0.3828  1.5214 -0.9972
   68MOL0     C 8897   8.011   7.079   9.409 -0.0706  0.2744  0.6579
   68MOL0     C 8898   8.275   6.847   9.699 -0.1331 -0.3944  0.0191
   68MOL0     C 8899   8.343   6.935   9.784  0.0139 -0.0893 -0.0771
   68MOL0     C 8900   8.401   6.892   9.900 -1.4941  0.0808  0.1279
   68MOL0     C 8901   8.389   6.752   9.934 -0.0476  0.3749  0.5457
   68MOL0     O 8902   8.417   6.722  10.056  0.0369 -0.1814 -0.2884
   68MOL0     C 8903   8.497   6.601  10.069  0.4336 -0.0909  0.6455
   68MOL0     C 8904   8.556   6.604  10.211 -0.2370  0.3742 -0.3816
   68MOL0     C 8905   8.640   6.724  10.250 -0.5344  1.0376 -0.0214
   68MOL0     C 8906   8.562   6.839  10.321 -0.0306  1.4861  0.3928
   68MOL0     C 8907   8.496   6.807  10.446  0.4338  1.0872  0.1598
   68MOL0     C 8908   8.435   6.771  10.543 -0.4383 -0.5841 -0.3088
   68MOL0     C 8909   8.320   6.664   9.852  0.3863 -0.6050 -0.1408
   68MOL0     C 8910   8.261   6.711   9.734 -0.5914 -0.1077 -0.1174
   68MOL0     H 8911   8.252   7.280   9.535 -1.6819 -0.4379  1.4759
   68MOL0     H 8912   8.146   7.431   9.355 -3.2707  1.0582  2.4283
   68MOL0     H 8913   7.941   7.525   9.297 -3.4940  2.4143  1.1343
   68MOL0     H 8914   7.802   7.476   9.201 -0.1699  1.4736  2.4188
   68MOL0     H 8915   8.055   7.582   9.091  0.2445 -1.5873  2.5798
   68MOL0     H 8916   7.900   7.673   9.113 -1.0707 -0.3223 -0.1701
   68MOL0     H 8917   7.790   7.498   8.968  0.8471  0.0906  1.7301
   68MOL0     H 8918   7.943   7.457   8.900  0.1179  0.7406  1.3617
   68MOL0     H 8919   7.844   7.749   8.915  0.9243 -0.5274  1.0979
   68MOL0     H 8920   7.977   7.693   8.832  0.1968 -0.5549 -0.8799
   68MOL0     H 8921   7.786   7.539   8.716  4.6303  0.1078 -0.4578
   68MOL0     H 8922   7.817   7.692   8.655 -2.4835  1.5862 -0.3946
   68MOL0     H 8923   7.585   7.580   8.742 -2.8774  0.2143  1.2989
   68MOL0     H 8924   7.612   7.748   8.699  1.2304  3.0288  2.1904
   68MOL0     H 8925   7.628   7.671   8.990  0.4275 -1.1719  0.0002
   68MOL0     H 8926   7.601   7.830   8.913  0.9574 -0.2409 -3.4161
   68MOL0     H 8927   7.380   7.705   9.004 -0.8088 -2.4612 -0.2502
   68MOL0     H 8928   7.426   7.583   8.892  1.5121  0.4228  1.3079
   68MOL0     H 8929   7.332   7.613   8.646  2.2568 -0.6673  2.5599
   68MOL0     H 8930   7.020   7.798   8.580 -0.9587  0.4227 -2.2771
   68MOL0     H 8931   7.113   7.678   8.504 -0.8625  0.5013 -1.9717
   68MOL0     H 8932   7.156   7.799   8.326 -0.7495 -1.0446 -0.1387
   68MOL0     H 8933   7.232   7.920   8.416  0.6050 -2.4377 -3.0857
   68MOL0     H 8934   7.036   8.045   8.464  3.7767 -2.4590  2.5158
   68MOL0     H 8935   7.023   8.024   8.299  0.0429  3.9462  3.1642
   68MOL0     H 8936   6.796   7.982   8.395 -0.5591 -0.2301 -0.8105
   68MOL0     H 8937   6.860   7.880   8.514 -2.7682  1.8983 -0.5902
   68MOL0     H 8938   6.627   7.822   8.490 -1.2397 -1.8763  1.3695
   68MOL0     H 8939   6.447   7.650   8.495 -0.7113 -1.7826 -0.9588
   68MOL0     H 8940   6.325   7.174   8.476  0.6538  1.5105 -3.2751
   68MOL0     H 8941   6.117   7.045   8.520 -1.7053 -0.8062 -1.6674
   68MOL0     H 8942   5.913   7.027   8.628  0.5963  0.0822 -0.4342
   68MOL0     H 8943   5.901   6.960   8.455  0.3025 -2.1418  2.1256
   68MOL0     H 8944   5.647   7.036   8.479  0.4017 -2.0115 -1.5033
   68MOL0     H 8945   5.670   7.025   8.647 -0.2500  2.0210 -0.1281
   68MOL0     H 8946   5.742   6.791   8.629  0.4517 -0.1022 -0.0278
   68MOL0     H 8947   5.722   6.782   8.446 -0.8450 -3.2867  1.8967
   68MOL0     H 8948   5.498   6.849   8.630  2.3041  0.7211  0.4129
   68MOL0     H 8949   5.490   6.817   8.461 -1.5745  1.7814  1.0981
   68MOL0     H 8950   5.582   6.611   8.668  1.6244  0.8216  0.4464
   68MOL0     H 8951   5.607   6.583   8.504  1.1169  0.2365  2.0967
   68MOL0     H 8952   5.377   6.584   8.448  0.7608  3.3276  0.0457
   68MOL0     H 8953   5.325   6.661   8.592 -0.0175  0.3322 -1.7259
   68MOL0     H 8954   5.445   6.386   8.548 -0.8504  1.8685 -1.1935
   68MOL0     H 8955   5.405   6.437   8.718 -2.2906  2.5200  1.5627
   68MOL0     H 8956   5.199   6.403   8.486  2.7475  3.0355 -0.5305
   68MOL0     H 8957   5.161   6.442   8.650  1.5867  2.7166 -0.3001
   68MOL0     H 8958   5.896   7.393   8.386  1.4810  4.1889  0.8105
   68MOL0     H 8959   6.099   7.525   8.358  0.6154 -0.7693 -2.5053
   68MOL0     H 8960   6.603   7.472   8.147 -2.2776  0.8341 -0.0575
   68MOL0     H 8961   6.811   7.610   8.151 -0.9692 -2.1069 -0.6299
   68MOL0     H 8962   7.880   7.118   9.253  2.2064  0.6283 -3.1047
   68MOL0     H 8963   7.974   6.978   9.424 -0.1218  0.5197  2.4093
   68MOL0     H 8964   8.360   7.039   9.760 -3.4763  0.2198 -1.8337
   68MOL0     H 8965   8.463   6.954   9.964 -0.6093 -1.8468  1.1958
   68MOL0     H 8966   8.575   6.601   9.992  0.2891  0.7327  0.4878
   68MOL0     H 8967   8.433   6.512  10.061  0.0029  0.2491  0.2423
   68MOL0     H 8968   8.481   6.586  10.289  1.7651  2.5596  2.2402
   68MOL0     H 8969   8.621   6.516  10.215  1.7763  1.8149  0.1546
   68MOL0     H 8970   8.710   6.757  10.172 -0.3178 -0.6181 -0.5632
   68MOL0     H 8971   8.705   6.678  10.325 -2.8667  1.6273  2.5112
   68MOL0     H 8972   8.617   6.933  10.334 -0.3326  1.8433 -0.7442
   68MOL0     H 8973   8.487   6.867  10.246  2.6887  1.5449 -2.4873
   68MOL0     H 8974   8.378   6.730  10.624 -2.2359 -1.0575 -1.7743
   68MOL0     H 8975   8.305   6.559   9.872  0.0289 -0.6322 -0.5311
   68MOL0     H 8976   8.204   6.650   9.665 -1.9226 -0.1083  0.9447
   69MOL0     O 8977   7.591   1.433   3.649  0.1454  0.3938  0.5533
   69MOL0     C 8978   7.513   1.422   3.742  0.3953 -0.0557 -0.4884
   69MOL0     O 8979   7.409   1.331   3.753  0.3053 -0.2733 -1.1785
   69MOL0     C 8980   7.389   1.254   3.639 -0.3902  0.1466  0.1244
   69MOL0     C 8981   7.487   1.159   3.583  0.1649 -0.2928  0.0978
   69MOL0     C 8982   7.438   1.072   3.487 -0.7099 -0.5475 -0.4191
   69MOL0     C 8983   7.305   1.069   3.449  0.2867  0.3743  0.8747
   69MOL0     O 8984   7.274   0.972   3.358  0.5226 -0.0230 -0.0868
   69MOL0     C 8985   7.145   0.916   3.380 -0.2533  0.0804  0.3431
   69MOL0     C 8986   7.135   0.805   3.273 -0.0906 -0.0786 -0.9117
   69MOL0     C 8987   7.157   0.835   3.120 -0.8408  1.1452  0.0021
   69MOL0     C 8988   7.164   0.698   3.053 -0.3208 -0.5162 -0.4773
   69MOL0     C 8989   7.133   0.723   2.902  0.1073  0.5267 -0.3543
   69MOL0     C 8990   6.980   0.729   2.868  0.9865 -0.0541  0.3512
   69MOL0     C 8991   6.942   0.712   2.720  0.2063  0.1270 -0.3804
   69MOL0     C 8992   6.793   0.736   2.701  0.2865  0.9158  0.0742
   69MOL0     N 8993   6.747   0.694   2.570 -0.4527  0.7009  0.1904
   69MOL0     C 8994   6.713   0.778   2.460  0.1272  0.2018 -0.2064
   69MOL0     C 8995   6.692   0.692   2.363 -0.1273 -1.0190  0.2275
   69MOL0     C 8996   6.654   0.736   2.214 -1.3831  0.1691  0.3387
   69MOL0     C 8997   6.519   0.800   2.196 -0.0422 -0.5005 -0.0418
   69MOL0     C 8998   6.497   0.864   2.062  0.3276 -0.1298  0.6572
   69MOL0     C 8999   6.517   0.758   1.952 -1.7423  0.0690 -0.1412
   69MOL0     O 9000   6.417   0.659   1.962  0.0365 -0.2788  0.5853
   69MOL0     C 9001   6.412   0.578   1.850  0.0461  0.7115  0.5262
   69MOL0     C 9002   6.512   0.562   1.748 -0.0151 -0.2661  0.5709
   69MOL0     C 9003   6.476   0.487   1.641 -0.7409 -0.2609  0.2502
   69MOL0     C 9004   6.360   0.404   1.634  0.3997 -0.7426 -1.1384
   69MOL0     C 9005   6.325   0.330   1.517 -0.0094  0.3873  0.0467
   69MOL0     O 9006   6.204   0.259   1.520 -0.1245  0.1630 -0.1194
   69MOL0     C 9007   6.172   0.171   1.416  0.1816  0.8427  0.0487
   69MOL0     C 9008   6.196   0.191   1.280 -0.8527 -0.3513  0.2246
   69MOL0     C 9009   6.168   0.098   1.180 -0.3500  0.1376 -0.3958
   69MOL0     C 9010   6.109  -0.027   1.222 -0.9570 -0.4903 -0.3817
   69MOL0     O 9011   6.084  -0.136   1.152  0.2786  0.0242  0.3437
   69MOL0     C 9012   6.020  -0.106   1.023  0.4833  0.8684 -0.3557
   69MOL0     C 9013   5.899  -0.197   0.977  0.2439 -0.5563  0.1054
   69MOL0     C 9014   5.851  -0.162   0.831 -0.9788  0.1999 -0.5712
   69MOL0     C 9015   5.778  -0.288   0.790 -0.7526 -0.0157  0.8812
   69MOL0     C 9016   5.681  -0.248   0.679 -0.2799 -0.5077 -0.5939
   69MOL0     C 9017   5.745  -0.251   0.539  0.1874  0.6929 -0.4861
   69MOL0     C 9018   5.776  -0.389   0.486 -0.4856  0.0354  0.2069
   69MOL0     C 9019   5.671  -0.493   0.494 -0.1422  0.1355 -0.2252
   69MOL0    Cl 9020   5.696  -0.598   0.639 -0.0448 -0.1898  0.4462
   69MOL0     C 9021   6.095  -0.048   1.357  0.4899 -0.3051  0.3095
   69MOL0     C 9022   6.120   0.040   1.455 -0.2093 -0.4790 -0.3884
   69MOL0     O 9023   6.406   0.329   1.427 -0.3349 -0.1040 -0.1904
   69MOL0     C 9024   6.269   0.401   1.738 -0.4458 -0.4888 -0.8110
   69MOL0     C 9025   6.296   0.493   1.843 -0.2650 -0.9463  0.7575
   69MOL0     N 9026   6.707   0.557   2.404  0.7994 -0.3208  0.1931
   69MOL0     N 9027   6.731   0.563   2.529 -0.1289 -0.1567 -0.3857
   69MOL0     C 9028   7.211   1.169   3.493 -0.2922 -0.4538 -0.7771
   69MOL0     C 9029   7.259   1.252   3.589  0.1740  0.0427  0.5893
   69MOL0     C 9030   7.534   1.521   3.851 -0.4598  0.0714 -0.8360
   69MOL0     C 9031   7.658   1.575   3.878 -0.4625 -0.4202 -0.6889
   69MOL0     C 9032   7.676   1.658   3.994 -0.1145  1.4997 -0.8547
   69MOL0     C 9033   7.574   1.679   4.077  0.2748  0.2821  0.0059
   69MOL0     O 9034   7.589   1.750   4.200 -0.5004  0.5236  0.0661
   69MOL0     C 9035   7.508   1.704   4.309  0.6893  0.2257 -0.1474
   69MOL0     C 9036   7.553   1.771   4.440 -0.2788 -0.6596  1.1313
   69MOL0     C 9037   7.489   1.723   4.578  0.0860  0.5253  0.3275
   69MOL0     C 9038   7.334   1.717   4.583 -0.0649 -0.7549  0.4570
   69MOL0     C 9039   7.281   1.603   4.654 -0.2704  0.0572  0.5087
   69MOL0     C 9040   7.217   1.505   4.704  0.0991  0.4717  0.8605
   69MOL0     C 9041   7.452   1.622   4.047 -0.6845  0.1282 -0.2633
   69MOL0     C 9042   7.427   1.556   3.935 -0.1677  0.6245  0.2607
   69MOL0     H 9043   7.593   1.152   3.607 -0.0455  2.9273  2.6374
   69MOL0     H 9044   7.506   1.001   3.441 -1.3619 -0.2095 -1.9944
   69MOL0     H 9045   7.064   0.989   3.371 -1.4851 -1.1808  0.9998
   69MOL0     H 9046   7.140   0.866   3.477  1.7021  1.5844  1.2952
   69MOL0     H 9047   7.037   0.758   3.276  0.8182 -2.1075 -1.0763
   69MOL0     H 9048   7.195   0.722   3.313 -3.7586 -1.5699  2.0993
   69MOL0     H 9049   7.247   0.896   3.108 -0.1237  0.5554  2.0080
   69MOL0     H 9050   7.071   0.886   3.076 -0.4442  0.0536 -2.2040
   69MOL0     H 9051   7.260   0.647   3.065 -0.5260 -0.6962  0.4513
   69MOL0     H 9052   7.078   0.635   3.080 -0.2541  0.3259  1.9840
   69MOL0     H 9053   7.163   0.629   2.855  1.2382 -1.0198  3.1733
   69MOL0     H 9054   7.181   0.812   2.858 -0.9444 -0.2916 -3.3944
   69MOL0     H 9055   6.939   0.820   2.914  1.4439 -0.6110  1.9568
   69MOL0     H 9056   6.925   0.658   2.930  0.9852  1.1425  1.8099
   69MOL0     H 9057   6.999   0.786   2.661  1.8107 -0.1890  0.7237
   69MOL0     H 9058   6.972   0.613   2.684 -1.4047 -0.6616  0.3504
   69MOL0     H 9059   6.749   0.833   2.726 -3.6663 -0.4668 -0.7577
   69MOL0     H 9060   6.749   0.670   2.776  0.2312 -0.6794 -1.2873
   69MOL0     H 9061   6.691   0.884   2.454 -1.0243  0.1198  1.6490
   69MOL0     H 9062   6.674   0.648   2.153  1.4058 -1.4368  3.2590
   69MOL0     H 9063   6.726   0.818   2.207 -2.9574  1.6907  1.1593
   69MOL0     H 9064   6.496   0.880   2.266 -0.1246  2.2609 -3.0126
   69MOL0     H 9065   6.441   0.726   2.216 -2.4380  1.5959 -1.1373
   69MOL0     H 9066   6.393   0.898   2.055  0.7666  1.0210 -0.9404
   69MOL0     H 9067   6.561   0.951   2.043 -2.0550  1.1664 -2.3173
   69MOL0     H 9068   6.615   0.716   1.974 -2.3585 -0.7281  1.2091
   69MOL0     H 9069   6.533   0.802   1.852  1.3742 -0.2990  0.1165
   69MOL0     H 9070   6.594   0.633   1.741  0.7197 -0.6898  3.5771
   69MOL0     H 9071   6.543   0.486   1.556  2.0373  0.7131  2.2737
   69MOL0     H 9072   6.243   0.284   1.252 -2.7198  0.7653  0.6315
   69MOL0     H 9073   6.205   0.117   1.080 -0.2815 -1.8467 -0.7895
   69MOL0     H 9074   6.105  -0.114   0.955  0.1947 -1.4151 -0.5315
   69MOL0     H 9075   5.982  -0.004   1.013 -2.9794 -0.3682 -1.1753
   69MOL0     H 9076   5.821  -0.188   1.052  0.6765 -1.6813  0.7137
   69MOL0     H 9077   5.936  -0.300   0.984  1.6654  0.0069  1.4034
   69MOL0     H 9078   5.927  -0.135   0.757 -1.6104  2.7551 -0.3626
   69MOL0     H 9079   5.778  -0.082   0.847 -0.0707  0.9207  0.1466
   69MOL0     H 9080   5.860  -0.350   0.754  0.0105  1.2794  0.3395
   69MOL0     H 9081   5.720  -0.331   0.873  0.6876 -0.0113  1.9367
   69MOL0     H 9082   5.649  -0.143   0.682 -2.1808 -1.0794  0.3155
   69MOL0     H 9083   5.594  -0.313   0.687 -0.5094 -0.0980  0.3067
   69MOL0     H 9084   5.834  -0.189   0.535  0.7795 -0.1328 -0.4956
   69MOL0     H 9085   5.670  -0.199   0.479  0.1234  0.0045 -1.0209
   69MOL0     H 9086   5.796  -0.384   0.379  0.3516 -2.4143  0.1750
   69MOL0     H 9087   5.870  -0.430   0.524 -1.8090 -3.2028  0.3590
   69MOL0     H 9088   5.649  -0.546   0.401 -2.2221  0.7947 -0.1622
   69MOL0     H 9089   5.578  -0.439   0.515 -0.7347 -0.9457  0.0318
   69MOL0     H 9090   6.070  -0.152   1.378 -0.1131 -1.3289 -4.3162
   69MOL0     H 9091   6.110   0.023   1.562 -1.6734  4.8966  0.6213
   69MOL0     H 9092   6.190   0.329   1.751  0.3825 -1.3427 -0.3737
   69MOL0     H 9093   6.236   0.507   1.933 -0.9840  0.5511  0.0817
   69MOL0     H 9094   7.107   1.171   3.462 -0.2191 -3.7335 -1.5848
   69MOL0     H 9095   7.188   1.319   3.636 -0.4710 -1.3835  1.7265
   69MOL0     H 9096   7.749   1.562   3.820  0.4278  1.4712  0.1943
   69MOL0     H 9097   7.773   1.692   4.028 -0.1689 -0.9892  2.2334
   69MOL0     H 9098   7.520   1.595   4.315 -1.1784 -0.1746 -2.3572
   69MOL0     H 9099   7.403   1.707   4.279 -0.5020  4.0106  3.4544
   69MOL0     H 9100   7.662   1.767   4.448  0.3866  4.5396 -1.0056
   69MOL0     H 9101   7.543   1.877   4.411  2.6127 -0.7678 -0.6659
   69MOL0     H 9102   7.521   1.798   4.651 -2.8884  3.0503 -0.6976
   69MOL0     H 9103   7.534   1.626   4.601 -0.7329 -0.2361 -1.1098
   69MOL0     H 9104   7.292   1.801   4.638 -0.5313 -0.9223  0.3598
   69MOL0     H 9105   7.306   1.707   4.477 -0.1176 -1.1438  0.5048
   69MOL0     H 9106   7.174   1.413   4.739 -0.3747  0.6934  0.8700
   69MOL0     H 9107   7.367   1.636   4.112  0.6411 -1.6949  2.0526
   69MOL0     H 9108   7.327   1.513   3.933  0.7535 -2.0040  3.0794
   70MOL0     O 9109  10.841   8.576   0.782  0.1023  0.3961 -0.0194
   70MOL0     C 9110  10.945   8.511   0.770  0.0386 -0.9558  0.1238
   70MOL0     O 9111  11.050   8.548   0.699 -0.4780 -0.0200  0.3249
   70MOL0     C 9112  11.045   8.679   0.643 -0.4219  0.3113  0.2282
   70MOL0     C 9113  11.113   8.701   0.518 -0.8904 -0.6028 -0.0211
   70MOL0     C 9114  11.131   8.823   0.459 -0.6610  0.6833 -0.8926
   70MOL0     C 9115  11.072   8.935   0.507  0.1998 -0.5723 -0.9574
   70MOL0     O 9116  11.085   9.050   0.435  0.2608 -0.2046 -0.3101
   70MOL0     C 9117  11.016   9.174   0.466 -0.0644  0.1769  0.4916
   70MOL0     C 9118  10.881   9.163   0.387  0.1646 -0.2143 -0.0104
   70MOL0     C 9119  10.799   9.293   0.384  0.8358 -0.5964  0.2526
   70MOL0     C 9120  10.673   9.277   0.298  0.2588  0.3080 -0.8289
   70MOL0     C 9121  10.702   9.288   0.144  0.0769  0.4286 -0.1253
   70MOL0     C 9122  10.578   9.238   0.064 -0.8942  0.2776 -0.6499
   70MOL0     C 9123  10.585   9.261  -0.088  0.2556  0.7667 -1.2651
   70MOL0     C 9124  10.466   9.203  -0.154 -0.2274  1.3561  0.3894
   70MOL0     N 9125  10.345   9.285  -0.145  0.4671  0.4627 -0.1896
   70MOL0     C 9126  10.236   9.245  -0.066 -0.7056  0.1387  0.1829
   70MOL0     C 9127  10.146   9.347  -0.083  0.4365 -0.1237 -0.1913
   70MOL0     C 9128  10.002   9.349  -0.026  0.3214 -0.0062 -0.0160
   70MOL0     C 9129   9.881   9.387  -0.118 -0.9187  0.4929  0.5125
   70MOL0     C 9130   9.749   9.378  -0.050  1.3742 -0.3578 -0.0476
   70MOL0     C 9131   9.647   9.380  -0.168 -0.3227 -1.3347 -0.9233
   70MOL0     O 9132   9.612   9.260  -0.225  0.1742  0.3114  0.3230
   70MOL0     C 9133   9.595   9.259  -0.358 -0.1608 -0.3464 -0.8013
   70MOL0     C 9134   9.675   9.175  -0.435  0.4948 -0.0442  0.1059
   70MOL0     C 9135   9.631   9.143  -0.573  0.4289 -0.0298  0.1428
   70MOL0     C 9136   9.515   9.211  -0.618  0.6999 -0.0795  0.3290
   70MOL0     C 9137   9.459   9.172  -0.748 -0.3645 -0.2750  0.6835
   70MOL0     O 9138   9.340   9.232  -0.791  0.0395  0.2734  0.6971
   70MOL0     C 9139   9.248   9.159  -0.861  0.7084  0.3161  1.2258
   70MOL0     C 9140   9.227   9.206  -0.990  1.0511 -0.1414  0.4918
   70MOL0     C 9141   9.131   9.143  -1.070 -1.1625 -0.0368 -0.8750
   70MOL0     C 9142   9.080   9.028  -1.023  0.5748  0.5313 -0.2473
   70MOL0     O 9143   8.993   8.973  -1.109  0.2572 -0.0024  0.1678
   70MOL0     C 9144   8.993   8.828  -1.138  0.3916 -0.4609  0.6366
   70MOL0     C 9145   8.926   8.802  -1.266  0.0691 -0.2818 -0.2710
   70MOL0     C 9146   8.988   8.866  -1.387  0.6485 -0.0385 -0.6362
   70MOL0     C 9147   8.904   8.835  -1.523 -0.2723  0.8160 -0.1591
   70MOL0     C 9148   8.971   8.905  -1.639  0.6949  0.6670 -0.7099
   70MOL0     C 9149   9.077   8.814  -1.690 -0.3575  0.6151 -0.3396
   70MOL0     C 9150   9.142   8.876  -1.819  0.3674  0.7689 -0.1222
   70MOL0     C 9151   9.199   8.783  -1.919 -0.4216 -0.3929  0.2230
   70MOL0    Cl 9152   9.293   8.661  -1.834  0.1970 -0.3740 -0.5716
   70MOL0     C 9153   9.108   8.967  -0.891  0.6975 -0.6356  0.5854
   70MOL0     C 9154   9.197   9.038  -0.817  0.5934 -0.5034 -0.1111
   70MOL0     O 9155   9.506   9.074  -0.799  0.5360 -0.7092  0.5547
   70MOL0     C 9156   9.450   9.309  -0.540 -0.1012  0.2074 -0.6336
   70MOL0     C 9157   9.488   9.328  -0.412  0.3948  0.7260  0.1271
   70MOL0     N 9158  10.212   9.444  -0.159  0.5763 -0.1027 -0.6277
   70MOL0     N 9159  10.332   9.412  -0.191 -0.4958  0.0375  0.2255
   70MOL0     C 9160  11.006   8.922   0.638  0.2966 -0.1602 -0.4369
   70MOL0     C 9161  11.003   8.800   0.699 -0.4811 -0.1025  0.6150
   70MOL0     C 9162  10.940   8.378   0.828 -0.1593 -0.1080  0.1663
   70MOL0     C 9163  11.016   8.273   0.761 -0.8482 -0.0541 -0.3618
   70MOL0     C 9164  10.990   8.141   0.797 -0.4874  0.2774  0.1122
   70MOL0     C 9165  10.903   8.105   0.899 -0.0401  0.5856  0.6415
   70MOL0     O 9166  10.885   7.968   0.932 -0.0148 -0.8049 -0.3883
   70MOL0     C 9167  10.805   7.934   1.035  1.0739  0.0333  1.1976
   70MOL0     C 9168  10.820   7.779   1.046  0.1307 -0.1116 -0.0145
   70MOL0     C 9169  10.786   7.699   0.915  0.4176  0.3852  0.3227
   70MOL0     C 9170  10.662   7.738   0.844 -0.1602 -0.3684 -0.1548
   70MOL0     C 9171  10.542   7.689   0.901  0.3141  0.2554 -0.5256
   70MOL0     C 9172  10.453   7.636   0.949 -0.1809 -0.4149 -0.0780
   70MOL0     C 9173  10.843   8.206   0.964 -0.5651 -0.6199 -0.1740
   70MOL0     C 9174  10.862   8.343   0.933  0.1371  0.1066 -0.0763
   70MOL0     H 9175  11.149   8.604   0.486  0.1589 -0.3679  0.4056
   70MOL0     H 9176  11.180   8.819   0.363  1.2552 -0.2553  0.0679
   70MOL0     H 9177  11.058   9.268   0.428 -4.3406  2.1252  0.0266
   70MOL0     H 9178  10.996   9.188   0.573  2.6121  5.0607  0.6813
   70MOL0     H 9179  10.811   9.099   0.442 -3.5770  2.6535 -1.0117
   70MOL0     H 9180  10.897   9.122   0.287  0.7124 -1.2226  0.4740
   70MOL0     H 9181  10.863   9.373   0.345 -0.0069 -0.1163 -0.1488
   70MOL0     H 9182  10.770   9.317   0.487 -1.3933  0.3612 -0.5445
   70MOL0     H 9183  10.613   9.193   0.333 -0.7124  1.4179  0.3206
   70MOL0     H 9184  10.613   9.365   0.324 -0.2041 -0.5880  1.3741
   70MOL0     H 9185  10.776   9.213   0.116 -1.1945 -0.6243 -0.8140
   70MOL0     H 9186  10.739   9.382   0.103  3.9473 -1.0916 -0.5693
   70MOL0     H 9187  10.485   9.281   0.102 -0.2991  1.9885 -1.0225
   70MOL0     H 9188  10.577   9.135   0.099  2.1341  0.8344  1.4601
   70MOL0     H 9189  10.587   9.367  -0.117 -0.3906  0.6377 -1.8361
   70MOL0     H 9190  10.676   9.216  -0.128  0.3851 -2.3644  2.0949
   70MOL0     H 9191  10.453   9.099  -0.124  4.3567 -0.1119 -1.8821
   70MOL0     H 9192  10.496   9.190  -0.258  0.0392 -1.0214  0.7120
   70MOL0     H 9193  10.229   9.163   0.005  0.6636 -1.8186 -1.8312
   70MOL0     H 9194   9.988   9.417   0.059  0.1949 -0.3153  0.2118
   70MOL0     H 9195   9.972   9.248   0.001 -0.1803 -0.3985 -1.9403
   70MOL0     H 9196   9.892   9.323  -0.205  3.5468  0.9605  0.4880
   70MOL0     H 9197   9.902   9.488  -0.155  2.6774 -0.5697 -0.8448
   70MOL0     H 9198   9.723   9.293   0.014  1.1099  2.5007  4.0885
   70MOL0     H 9199   9.724   9.459   0.019 -1.0368 -1.2203  0.1979
   70MOL0     H 9200   9.679   9.451  -0.245  0.8164 -1.0880 -0.2456
   70MOL0     H 9201   9.560   9.422  -0.116  2.7069  1.6104  2.3048
   70MOL0     H 9202   9.765   9.122  -0.404 -1.2751 -3.7542 -0.5254
   70MOL0     H 9203   9.675   9.060  -0.629 -1.6292  1.0465 -3.3938
   70MOL0     H 9204   9.272   9.302  -1.011 -1.2055  0.7948 -0.4235
   70MOL0     H 9205   9.103   9.187  -1.165  1.3323  2.0967 -0.7338
   70MOL0     H 9206   8.940   8.782  -1.055  1.7124  1.4024  2.6006
   70MOL0     H 9207   9.095   8.792  -1.150  0.5571  0.5547 -1.7219
   70MOL0     H 9208   8.821   8.825  -1.247  0.7566  0.3453  3.6420
   70MOL0     H 9209   8.940   8.694  -1.280 -0.0307 -0.1425 -1.5815
   70MOL0     H 9210   9.095   8.845  -1.392  0.6937  0.5127 -3.5091
   70MOL0     H 9211   8.986   8.975  -1.371  1.5356 -0.0942 -0.0638
   70MOL0     H 9212   8.900   8.727  -1.540  0.2833  0.0469  3.6809
   70MOL0     H 9213   8.804   8.879  -1.520 -1.3801 -1.4467 -1.5811
   70MOL0     H 9214   9.006   9.001  -1.601  1.7270 -0.6981  2.0790
   70MOL0     H 9215   8.905   8.928  -1.722 -0.9410 -0.2661  0.2797
   70MOL0     H 9216   9.067   8.709  -1.720  0.5830  0.3539  0.2224
   70MOL0     H 9217   9.144   8.807  -1.604 -1.1071 -0.6415  0.1716
   70MOL0     H 9218   9.063   8.930  -1.873 -1.8066 -0.8265  1.2806
   70MOL0     H 9219   9.207   8.961  -1.799  0.6563  0.4105  0.4744
   70MOL0     H 9220   9.266   8.841  -1.984 -0.4893  0.8010  1.1611
   70MOL0     H 9221   9.127   8.737  -1.986 -1.5847  0.2064  1.0294
   70MOL0     H 9222   9.070   8.875  -0.849 -2.8367 -0.3284 -1.4675
   70MOL0     H 9223   9.218   9.005  -0.716 -0.9312  2.5686  1.3156
   70MOL0     H 9224   9.371   9.368  -0.585  1.2294 -0.4806 -4.1766
   70MOL0     H 9225   9.436   9.401  -0.351  2.8900  0.6845  2.5278
   70MOL0     H 9226  10.960   9.005   0.691 -1.2052 -1.0946 -0.2139
   70MOL0     H 9227  10.983   8.785   0.805  4.5329  0.8147  1.9439
   70MOL0     H 9228  11.082   8.282   0.675  1.0584  1.0956  1.1488
   70MOL0     H 9229  11.041   8.059   0.747 -2.3675 -1.4165  0.8407
   70MOL0     H 9230  10.701   7.963   1.018  1.6841  0.6009 -2.2303
   70MOL0     H 9231  10.836   7.977   1.131  0.9395 -0.2270  1.3598
   70MOL0     H 9232  10.924   7.762   1.072  0.0595  1.5014  1.4853
   70MOL0     H 9233  10.776   7.737   1.137  3.4532  0.1762  1.8618
   70MOL0     H 9234  10.775   7.594   0.941 -0.0544 -0.2584 -2.2005
   70MOL0     H 9235  10.868   7.703   0.843 -1.6405 -0.1629 -2.2265
   70MOL0     H 9236  10.663   7.846   0.823  1.7291 -0.8263 -3.1762
   70MOL0     H 9237  10.657   7.693   0.744  2.0480  1.8940 -1.4143
   70MOL0     H 9238  10.363   7.589   0.982 -1.4041 -0.8415 -3.5436
   70MOL0     H 9239  10.784   8.178   1.050  0.6747 -1.2693  0.4965
   70MOL0     H 9240  10.802   8.419   0.983  0.1862  0.8653 -1.1306
   71MOL0     O 9241   6.667   0.550   5.265  0.5722 -0.6592  0.1857
   71MOL0     C 9242   6.592   0.453   5.259  0.1076 -0.1373 -0.9142
   71MOL0     O 9243   6.465   0.451   5.308 -0.1883  0.0116  0.0448
   71MOL0     C 9244   6.414   0.563   5.375 -0.0048  0.8445 -0.4745
   71MOL0     C 9245   6.293   0.626   5.345  0.4686 -0.0245 -0.2823
   71MOL0     C 9246   6.236   0.732   5.425  0.1295  0.4629  0.5213
   71MOL0     C 9247   6.309   0.783   5.538 -0.3614 -0.0456 -0.1595
   71MOL0     O 9248   6.266   0.893   5.612  0.4813  0.1188 -0.5938
   71MOL0     C 9249   6.323   1.022   5.591 -0.4909  0.4766  0.5174
   71MOL0     C 9250   6.204   1.112   5.583  0.6850  0.7568 -0.4134
   71MOL0     C 9251   6.244   1.263   5.548  0.9283  1.0769 -0.4491
   71MOL0     C 9252   6.251   1.283   5.394  0.2917  1.4624 -0.5975
   71MOL0     C 9253   6.298   1.424   5.355  0.5148  1.3183 -0.6661
   71MOL0     C 9254   6.318   1.445   5.204 -0.6467  0.2454 -0.0032
   71MOL0     C 9255   6.456   1.384   5.169  0.6853 -0.4756 -0.0621
   71MOL0     C 9256   6.472   1.356   5.023 -0.6141 -0.1684 -0.3196
   71MOL0     N 9257   6.384   1.262   4.956  0.2782 -1.1243 -0.4644
   71MOL0     C 9258   6.408   1.125   4.951  0.3434  0.4150 -0.0555
   71MOL0     C 9259   6.322   1.078   4.862 -0.7747  0.7348 -0.2419
   71MOL0     C 9260   6.281   0.939   4.820  0.1263 -0.1068 -0.2043
   71MOL0     C 9261   6.269   0.832   4.930 -0.2761 -0.3058 -0.1567
   71MOL0     C 9262   6.148   0.852   5.026 -0.0428  0.4814 -0.7068
   71MOL0     C 9263   6.150   0.969   5.118  0.1351 -0.6069 -0.8263
   71MOL0     O 9264   6.051   0.953   5.222  0.7577  0.3256 -1.1606
   71MOL0     C 9265   5.922   0.994   5.184 -0.5505 -0.7244 -0.1160
   71MOL0     C 9266   5.897   1.126   5.158 -0.8110 -1.0605 -0.6454
   71MOL0     C 9267   5.769   1.187   5.148 -0.0031 -0.3433  0.4547
   71MOL0     C 9268   5.662   1.093   5.134  0.8651  0.9425 -0.4507
   71MOL0     C 9269   5.515   1.146   5.102  0.6786 -0.0716 -0.2352
   71MOL0     O 9270   5.410   1.060   5.102 -0.2043 -0.0690  0.4465
   71MOL0     C 9271   5.284   1.105   5.129  0.6486  0.1342  0.0764
   71MOL0     C 9272   5.259   1.187   5.242  0.0486  0.1462  0.4030
   71MOL0     C 9273   5.123   1.212   5.274 -0.2861 -0.0499  0.4605
   71MOL0     C 9274   5.026   1.197   5.186 -0.7127 -0.4346  0.2793
   71MOL0     O 9275   4.902   1.244   5.203 -0.3352 -0.8929  0.6999
   71MOL0     C 9276   4.896   1.382   5.179  0.2957 -0.3849 -0.5017
   71MOL0     C 9277   4.876   1.422   5.030 -0.5410  0.5349 -0.9821
   71MOL0     C 9278   4.738   1.395   4.969  0.5268 -0.0456 -0.4064
   71MOL0     C 9279   4.724   1.413   4.820  0.6960  0.0311 -0.3742
   71MOL0     C 9280   4.722   1.289   4.743  0.4814 -0.5053 -0.5218
   71MOL0     C 9281   4.857   1.216   4.744 -0.3913  0.7879 -0.4898
   71MOL0     C 9282   4.966   1.277   4.662  0.2178  0.2603 -0.3453
   71MOL0     C 9283   5.045   1.177   4.584 -0.3164 -0.6166  1.2217
   71MOL0    Cl 9284   5.094   1.039   4.673  0.2020 -0.4943 -0.0629
   71MOL0     C 9285   5.050   1.120   5.071 -0.3925  0.2069 -0.2716
   71MOL0     C 9286   5.177   1.071   5.045 -0.3114  0.0729 -0.7293
   71MOL0     O 9287   5.506   1.266   5.091 -0.7865 -0.6411  0.9311
   71MOL0     C 9288   5.690   0.954   5.165  0.2778 -0.6068 -0.3807
   71MOL0     C 9289   5.813   0.913   5.195  0.1698  0.3841 -0.1693
   71MOL0     N 9290   6.246   1.178   4.812 -0.3741 -0.4201  0.5343
   71MOL0     N 9291   6.278   1.288   4.874  0.4639 -0.4656  0.1497
   71MOL0     C 9292   6.425   0.716   5.569  1.5464 -0.1134  0.1413
   71MOL0     C 9293   6.474   0.607   5.495 -0.3586 -0.0082  0.1652
   71MOL0     C 9294   6.641   0.321   5.213 -0.2976  0.5450  1.1169
   71MOL0     C 9295   6.570   0.202   5.254 -0.6389 -0.2822 -0.0070
   71MOL0     C 9296   6.612   0.081   5.193 -0.3262  0.4577 -0.1524
   71MOL0     C 9297   6.731   0.065   5.120  0.3131 -0.0267  0.3632
   71MOL0     O 9298   6.742  -0.053   5.051  0.2831  0.4091 -0.1485
   71MOL0     C 9299   6.835  -0.066   4.937 -0.1768 -0.6229  1.3964
   71MOL0     C 9300   6.798  -0.196   4.854 -1.2207  0.2991 -1.0896
   71MOL0     C 9301   6.700  -0.163   4.744 -0.1805  0.6087 -0.0101
   71MOL0     C 9302   6.634  -0.295   4.704  0.2979 -0.4164 -0.6949
   71MOL0     C 9303   6.533  -0.352   4.791 -0.1817 -0.3881 -0.2897
   71MOL0     C 9304   6.455  -0.400   4.870  0.2928 -0.6809  0.3153
   71MOL0     C 9305   6.800   0.187   5.093 -0.0817  0.6520  0.2567
   71MOL0     C 9306   6.758   0.313   5.138 -0.0470  0.6722  0.3433
   71MOL0     H 9307   6.242   0.601   5.252 -2.3281 -1.4363  1.4992
   71MOL0     H 9308   6.149   0.777   5.379  2.8440  1.8073 -3.8670
   71MOL0     H 9309   6.388   1.015   5.503  1.4726 -1.0266  1.9881
   71MOL0     H 9310   6.384   1.054   5.677  0.4365 -2.8650  1.2886
   71MOL0     H 9311   6.145   1.115   5.675  0.4414 -0.0567 -0.5400
   71MOL0     H 9312   6.137   1.076   5.505 -1.7199  0.9385  1.4576
   71MOL0     H 9313   6.341   1.280   5.596  2.5825  1.1887 -3.5266
   71MOL0     H 9314   6.173   1.331   5.596 -1.1235 -0.1161 -1.6433
   71MOL0     H 9315   6.329   1.210   5.372  0.0991 -0.5094  4.1624
   71MOL0     H 9316   6.153   1.264   5.348 -0.2813 -0.8053  1.3706
   71MOL0     H 9317   6.386   1.451   5.415 -1.2205  1.6621  1.8721
   71MOL0     H 9318   6.224   1.495   5.394  0.5222 -0.7887  3.8456
   71MOL0     H 9319   6.312   1.554   5.196  0.8051  0.2502 -1.6350
   71MOL0     H 9320   6.230   1.411   5.149 -1.2485  3.2524 -1.1081
   71MOL0     H 9321   6.528   1.462   5.195 -1.7014  2.9941 -2.7861
   71MOL0     H 9322   6.473   1.296   5.232 -3.7847  0.6370  3.1947
   71MOL0     H 9323   6.571   1.312   5.009 -0.7517 -0.4997 -0.2641
   71MOL0     H 9324   6.464   1.453   4.974 -3.6113  1.0078  2.1863
   71MOL0     H 9325   6.471   1.067   5.017  1.3485 -0.7195 -1.9018
   71MOL0     H 9326   6.360   0.892   4.761  1.4952  0.7072  0.9327
   71MOL0     H 9327   6.187   0.937   4.765 -1.1158  0.0191  1.7938
   71MOL0     H 9328   6.355   0.821   4.997 -2.4475  0.2052  2.9296
   71MOL0     H 9329   6.272   0.746   4.863  4.9019 -0.9876  0.5180
   71MOL0     H 9330   6.059   0.869   4.964  0.1539  2.6312 -0.4699
   71MOL0     H 9331   6.142   0.754   5.073 -0.5557  0.4843 -0.7640
   71MOL0     H 9332   6.139   1.065   5.069  1.6136  0.6122  1.0602
   71MOL0     H 9333   6.240   0.958   5.180 -0.4201  0.1678  0.1410
   71MOL0     H 9334   5.984   1.189   5.170 -1.7948  0.2274  0.0252
   71MOL0     H 9335   5.753   1.291   5.124 -0.7103 -1.2545 -3.9230
   71MOL0     H 9336   5.342   1.228   5.299  0.5001  2.8399 -1.9561
   71MOL0     H 9337   5.109   1.279   5.359 -1.0370  0.9667 -0.4400
   71MOL0     H 9338   4.976   1.445   5.221  1.2988 -1.2350 -1.0940
   71MOL0     H 9339   4.804   1.414   5.229 -0.8289 -3.7354 -0.1830
   71MOL0     H 9340   4.959   1.366   4.987  0.7692 -0.1760  2.1958
   71MOL0     H 9341   4.895   1.528   5.012  0.6005  0.8368  1.6055
   71MOL0     H 9342   4.664   1.457   5.021 -0.9645  0.7622 -3.2533
   71MOL0     H 9343   4.703   1.293   4.988  2.1418 -0.7020 -0.8028
   71MOL0     H 9344   4.622   1.453   4.811  1.2718  1.8096  0.6403
   71MOL0     H 9345   4.800   1.480   4.778  3.9591 -1.9591  1.9197
   71MOL0     H 9346   4.696   1.312   4.639  0.0636  0.1284 -0.2809
   71MOL0     H 9347   4.643   1.224   4.782 -0.5105  1.6458  1.2814
   71MOL0     H 9348   4.835   1.115   4.708  1.2466 -0.8952  2.8171
   71MOL0     H 9349   4.900   1.205   4.844 -4.5564 -3.0330  1.2034
   71MOL0     H 9350   4.932   1.362   4.601 -0.9571  0.6102  0.7448
   71MOL0     H 9351   5.043   1.315   4.730 -1.5383  1.7792  0.9155
   71MOL0     H 9352   5.142   1.223   4.560 -1.0727  1.6113  2.1490
   71MOL0     H 9353   4.997   1.153   4.488  2.0035 -1.8894  0.2984
   71MOL0     H 9354   4.970   1.107   4.999 -0.0275  0.6498 -0.7589
   71MOL0     H 9355   5.193   0.987   4.977  2.4552  0.7250 -1.0248
   71MOL0     H 9356   5.607   0.888   5.187  1.3210 -1.5803  0.7474
   71MOL0     H 9357   5.834   0.812   5.229 -5.0466 -0.9208  0.1143
   71MOL0     H 9358   6.467   0.733   5.668  0.7912 -1.7801  0.7917
   71MOL0     H 9359   6.576   0.577   5.516  0.5156  1.0127 -2.3350
   71MOL0     H 9360   6.471   0.207   5.298 -0.4009  0.6446  0.4267
   71MOL0     H 9361   6.549  -0.007   5.202 -0.6232  0.6818 -0.0237
   71MOL0     H 9362   6.939  -0.081   4.968 -0.2370  0.1333  1.9901
   71MOL0     H 9363   6.812   0.016   4.868 -2.8253 -4.2342 -2.5094
   71MOL0     H 9364   6.888  -0.232   4.805 -1.0704  0.3955 -0.8856
   71MOL0     H 9365   6.761  -0.276   4.919  0.4287 -0.4008 -0.9719
   71MOL0     H 9366   6.753  -0.119   4.659 -1.8890  0.8223 -1.0114
   71MOL0     H 9367   6.620  -0.099   4.782 -0.8397  0.4590 -1.0872
   71MOL0     H 9368   6.579  -0.266   4.614  0.6345  6.0811  0.7090
   71MOL0     H 9369   6.713  -0.369   4.683  1.9291  1.5421 -1.7516
   71MOL0     H 9370   6.386  -0.454   4.931 -0.3550 -0.6016 -0.3220
   71MOL0     H 9371   6.888   0.184   5.029 -0.9629 -1.7470 -0.9700
   71MOL0     H 9372   6.823   0.390   5.096  1.4452 -1.7349 -2.0633
   72MOL0     O 9373   3.639   6.704   2.923 -0.5706  0.3535 -1.0287
   72MOL0     C 9374   3.521   6.697   2.949  1.1067  0.4597  0.0573
   72MOL0     O 9375   3.425   6.732   2.862 -0.7747 -0.6820  0.1884
   72MOL0     C 9376   3.476   6.789   2.741 -0.5652  0.4030  0.2934
   72MOL0     C 9377   3.544   6.910   2.748  0.2093 -0.6956 -0.0215
   72MOL0     C 9378   3.600   6.969   2.632  0.5487 -0.0075 -0.4164
   72MOL0     C 9379   3.595   6.901   2.511  0.5678 -0.6968  0.4681
   72MOL0     O 9380   3.657   6.946   2.397  0.2357  0.2842  0.1037
   72MOL0     C 9381   3.693   7.081   2.366  0.1787 -0.2093  0.1575
   72MOL0     C 9382   3.567   7.157   2.339 -0.4871 -0.1239 -0.4579
   72MOL0     C 9383   3.458   7.109   2.248 -1.0663 -0.0261  0.1272
   72MOL0     C 9384   3.500   7.101   2.095 -0.6944  0.0256  0.2665
   72MOL0     C 9385   3.598   6.984   2.045  0.0693  0.2846  0.1386
   72MOL0     C 9386   3.537   6.846   2.088  0.4615 -0.2422  0.9581
   72MOL0     C 9387   3.602   6.720   2.033 -0.6523  0.4036 -0.9529
   72MOL0     C 9388   3.588   6.699   1.881  0.2966  0.3688  0.7110
   72MOL0     N 9389   3.452   6.664   1.845 -0.2662 -0.7455  0.3827
   72MOL0     C 9390   3.352   6.745   1.804 -0.9790 -0.0634  0.2008
   72MOL0     C 9391   3.239   6.667   1.802 -0.5259  0.0647 -0.6452
   72MOL0     C 9392   3.104   6.706   1.774  0.4041  0.3670 -0.7883
   72MOL0     C 9393   3.096   6.771   1.634 -0.2472 -0.3124 -0.3356
   72MOL0     C 9394   3.119   6.668   1.526  0.4491  0.3002  0.1556
   72MOL0     C 9395   3.134   6.741   1.393  0.2437  0.6198 -0.7239
   72MOL0     O 9396   3.188   6.875   1.408 -0.2968  0.4117 -0.0686
   72MOL0     C 9397   3.146   6.968   1.316 -0.6422 -0.4401 -0.0668
   72MOL0     C 9398   3.166   6.975   1.181 -0.3017 -0.3744  0.1305
   72MOL0     C 9399   3.122   7.076   1.110 -0.5550 -1.0718 -0.0903
   72MOL0     C 9400   3.049   7.180   1.167 -0.5119 -0.1744 -0.6037
   72MOL0     C 9401   3.004   7.292   1.088 -0.1547 -0.1042  0.3026
   72MOL0     O 9402   2.952   7.400   1.159  0.4105 -0.7539  0.3660
   72MOL0     C 9403   2.893   7.511   1.103  0.0911  0.0827 -0.8010
   72MOL0     C 9404   2.910   7.632   1.172 -0.3367 -0.2133 -0.0860
   72MOL0     C 9405   2.842   7.744   1.139  1.0878  0.3992 -0.0948
   72MOL0     C 9406   2.768   7.745   1.020 -0.8539  0.0190 -0.6681
   72MOL0     O 9407   2.707   7.856   0.962  0.4121  0.0691 -0.0688
   72MOL0     C 9408   2.721   7.992   1.006  0.1137  0.8502  0.0937
   72MOL0     C 9409   2.637   8.085   0.927 -0.6648  1.1208  0.1778
   72MOL0     C 9410   2.657   8.229   0.969  0.9222 -0.0743 -0.1181
   72MOL0     C 9411   2.802   8.290   0.974  0.6229  0.7828  0.1726
   72MOL0     C 9412   2.798   8.440   0.945  0.6354  0.5512  0.2468
   72MOL0     C 9413   2.704   8.519   1.027  0.0933  1.4118  0.0513
   72MOL0     C 9414   2.721   8.650   0.979 -0.8697  0.5135  0.1263
   72MOL0     C 9415   2.608   8.738   1.048  0.0562  0.7939  0.1503
   72MOL0    Cl 9416   2.676   8.900   1.015 -0.2694  0.0742  0.3030
   72MOL0     C 9417   2.772   7.628   0.937  0.6420 -0.3941 -0.5145
   72MOL0     C 9418   2.835   7.513   0.979 -0.2429  0.6661  0.4631
   72MOL0     O 9419   3.018   7.287   0.964  1.0067 -1.2795  0.2227
   72MOL0     C 9420   3.022   7.179   1.297  0.4012  0.0957 -0.7409
   72MOL0     C 9421   3.067   7.074   1.370 -0.1318  0.4513 -0.1303
   72MOL0     N 9422   3.280   6.540   1.848  1.0516  0.5472  0.3789
   72MOL0     N 9423   3.405   6.537   1.851  0.6025 -1.1282 -0.5856
   72MOL0     C 9424   3.525   6.780   2.508 -0.2349 -0.8506  0.5827
   72MOL0     C 9425   3.468   6.719   2.625  0.8046  0.1412  0.5667
   72MOL0     C 9426   3.474   6.655   3.083  0.1595 -1.2165 -0.2803
   72MOL0     C 9427   3.553   6.601   3.175 -0.1868  0.4325  0.0062
   72MOL0     C 9428   3.520   6.570   3.310  0.3362 -0.1228 -0.4943
   72MOL0     C 9429   3.383   6.577   3.338 -0.6169  0.5054 -0.4596
   72MOL0     O 9430   3.340   6.530   3.451 -0.3993  0.4263  0.4508
   72MOL0     C 9431   3.417   6.425   3.520  0.2203 -0.3335  0.6221
   72MOL0     C 9432   3.329   6.353   3.620 -0.4206  0.3620  0.3370
   72MOL0     C 9433   3.266   6.457   3.723 -1.5622  1.1747  0.4596
   72MOL0     C 9434   3.169   6.545   3.651 -0.1476 -0.8816 -0.1609
   72MOL0     C 9435   3.043   6.573   3.733  0.4107  0.3973  0.3558
   72MOL0     C 9436   2.941   6.608   3.789  0.1021  0.1640  0.1210
   72MOL0     C 9437   3.295   6.624   3.240  0.0481 -0.6677  0.2630
   72MOL0     C 9438   3.334   6.678   3.112 -0.6644  0.3419 -0.5578
   72MOL0     H 9439   3.553   6.965   2.841 -1.3963  4.2685 -2.4872
   72MOL0     H 9440   3.655   7.058   2.659  0.8316 -0.1245 -0.5973
   72MOL0     H 9441   3.758   7.069   2.279  1.4497 -0.0181  1.0635
   72MOL0     H 9442   3.752   7.129   2.444  1.5059 -1.4417 -0.0489
   72MOL0     H 9443   3.601   7.258   2.317  0.0673  1.6406  6.3542
   72MOL0     H 9444   3.519   7.161   2.437 -2.4902 -0.3014 -1.3640
   72MOL0     H 9445   3.376   7.180   2.264 -2.6777 -1.3532 -1.7233
   72MOL0     H 9446   3.417   7.013   2.279 -1.5548  0.3483  0.6678
   72MOL0     H 9447   3.407   7.077   2.042  0.6410 -3.5804 -0.7191
   72MOL0     H 9448   3.535   7.202   2.070 -1.1883 -0.1788 -1.3704
   72MOL0     H 9449   3.701   7.000   2.079  0.8139 -1.4855 -1.1554
   72MOL0     H 9450   3.599   6.996   1.936  2.1046 -2.0893 -0.1948
   72MOL0     H 9451   3.431   6.848   2.063  0.3781  3.0573  1.0197
   72MOL0     H 9452   3.546   6.840   2.197  1.7611 -2.6563  0.7792
   72MOL0     H 9453   3.708   6.711   2.055 -0.2471  0.4516 -2.7024
   72MOL0     H 9454   3.541   6.637   2.069  1.0666 -1.1079 -1.4332
   72MOL0     H 9455   3.654   6.615   1.856 -0.7090  0.2406 -1.8672
   72MOL0     H 9456   3.615   6.783   1.816 -3.7022  2.0847  0.9873
   72MOL0     H 9457   3.368   6.850   1.781  4.7662 -1.2197 -2.7727
   72MOL0     H 9458   3.064   6.768   1.855 -1.4216 -1.1774 -0.4382
   72MOL0     H 9459   3.029   6.626   1.771  0.0458  0.6749 -0.3295
   72MOL0     H 9460   3.165   6.855   1.641  0.8558 -1.3060  4.9578
   72MOL0     H 9461   2.996   6.812   1.614  0.5107  1.1270 -1.3392
   72MOL0     H 9462   3.207   6.608   1.548  1.6550  3.7031  7.2056
   72MOL0     H 9463   3.039   6.593   1.522  0.3725  0.2295  2.1008
   72MOL0     H 9464   3.035   6.738   1.348 -0.4382  1.9391  0.6050
   72MOL0     H 9465   3.206   6.684   1.333  4.4955  1.0805  3.3552
   72MOL0     H 9466   3.226   6.903   1.127  1.0666  0.9855 -0.2379
   72MOL0     H 9467   3.130   7.067   1.002 -0.4219 -1.1593 -0.0734
   72MOL0     H 9468   2.959   7.626   1.268  0.6073 -0.5273 -0.5846
   72MOL0     H 9469   2.847   7.823   1.213  0.9181  1.9140 -1.6246
   72MOL0     H 9470   2.829   8.013   1.012  0.4336 -1.0489  2.1189
   72MOL0     H 9471   2.677   7.994   1.106 -0.6667 -1.1117 -0.1632
   72MOL0     H 9472   2.536   8.050   0.949 -1.4945  1.8772 -2.1668
   72MOL0     H 9473   2.659   8.074   0.820 -2.1634  1.3076 -0.1696
   72MOL0     H 9474   2.599   8.234   1.062  1.0579 -2.7652  0.2189
   72MOL0     H 9475   2.596   8.276   0.892 -1.0406  1.4501  2.2180
   72MOL0     H 9476   2.853   8.288   1.071  3.7353  2.9399 -1.2359
   72MOL0     H 9477   2.869   8.236   0.907 -0.3697  0.2528 -0.4015
   72MOL0     H 9478   2.774   8.443   0.838 -1.7235  0.7067  0.7148
   72MOL0     H 9479   2.903   8.466   0.959  0.5514  1.9886 -1.4928
   72MOL0     H 9480   2.731   8.512   1.133 -1.2264 -0.4362  0.2948
   72MOL0     H 9481   2.601   8.484   1.021  1.0828 -2.2102  1.4835
   72MOL0     H 9482   2.821   8.685   1.006 -1.7595  3.4290  0.0288
   72MOL0     H 9483   2.714   8.664   0.870  0.1457  3.0827  0.3257
   72MOL0     H 9484   2.597   8.717   1.155 -0.4363 -3.4449 -0.5458
   72MOL0     H 9485   2.518   8.705   0.995  0.7393 -0.6601 -0.1579
   72MOL0     H 9486   2.716   7.618   0.844 -1.0768 -2.6980  0.6647
   72MOL0     H 9487   2.823   7.421   0.922 -1.0483  1.3835 -0.5639
   72MOL0     H 9488   2.968   7.246   1.362  0.9860 -2.6504  2.9036
   72MOL0     H 9489   3.079   7.084   1.477 -1.4962 -3.5123  0.5448
   72MOL0     H 9490   3.523   6.729   2.412  0.2098  2.0592 -1.0836
   72MOL0     H 9491   3.420   6.622   2.614  0.6555  0.3126 -0.3567
   72MOL0     H 9492   3.650   6.584   3.129  0.3012  2.2683  0.2542
   72MOL0     H 9493   3.603   6.545   3.375 -1.3206  0.3445  1.9265
   72MOL0     H 9494   3.492   6.475   3.582 -0.8869  3.5871 -0.8809
   72MOL0     H 9495   3.467   6.364   3.444  2.9425  1.8422  0.5163
   72MOL0     H 9496   3.250   6.302   3.564  0.8578 -1.9389  0.5106
   72MOL0     H 9497   3.391   6.285   3.679 -1.0590  3.8499  5.7077
   72MOL0     H 9498   3.340   6.531   3.754 -0.9094  2.1801 -3.0113
   72MOL0     H 9499   3.226   6.397   3.805  1.9347 -0.4594  1.1620
   72MOL0     H 9500   3.201   6.644   3.617 -1.8606  0.7645  2.6142
   72MOL0     H 9501   3.138   6.489   3.562 -0.8194 -1.2995  0.3248
   72MOL0     H 9502   2.862   6.662   3.837 -1.7761 -1.0689 -1.4389
   72MOL0     H 9503   3.189   6.627   3.261  0.1169  0.7929  0.5317
   72MOL0     H 9504   3.264   6.730   3.048 -0.6594 -1.7440 -2.4010
   73MOL0     O 9505   4.929   0.639   8.887  0.1933  0.2967 -0.8340
   73MOL0     C 9506   4.982   0.724   8.815  1.2732 -0.5721 -0.7382
   73MOL0     O 9507   5.075   0.701   8.727 -0.1308 -0.6244  0.0056
   73MOL0     C 9508   5.147   0.590   8.730  0.3434 -0.2310 -0.5430
   73MOL0     C 9509   5.170   0.506   8.616 -0.0894  0.1855 -0.2216
   73MOL0     C 9510   5.270   0.405   8.619  1.5329  0.6703  0.0157
   73MOL0     C 9511   5.325   0.361   8.737 -0.1790 -0.2509 -1.3781
   73MOL0     O 9512   5.405   0.248   8.728  0.9903  0.5745  0.2188
   73MOL0     C 9513   5.425   0.155   8.834  0.3085 -0.7572 -0.7838
   73MOL0     C 9514   5.514   0.043   8.806 -0.2564 -0.4154 -0.3390
   73MOL0     C 9515   5.526  -0.051   8.924 -0.4573  0.8724 -0.4978
   73MOL0     C 9516   5.646  -0.147   8.908 -0.5130  0.3242  0.5122
   73MOL0     C 9517   5.647  -0.259   9.007 -0.6239 -0.1816  0.2662
   73MOL0     C 9518   5.519  -0.342   9.031  0.5041 -0.2930 -0.2162
   73MOL0     C 9519   5.569  -0.465   9.108 -0.3817  0.2167  0.4866
   73MOL0     C 9520   5.447  -0.552   9.140 -1.2914  0.7289  0.5201
   73MOL0     N 9521   5.473  -0.697   9.140  0.0513 -0.0654 -0.0674
   73MOL0     C 9522   5.449  -0.798   9.233  0.5298 -0.3223 -0.4065
   73MOL0     C 9523   5.516  -0.906   9.193  0.0688 -0.1838 -0.5205
   73MOL0     C 9524   5.521  -1.027   9.281  0.2093  0.0399  0.3458
   73MOL0     C 9525   5.610  -1.146   9.228  0.0908 -0.9410 -0.6265
   73MOL0     C 9526   5.615  -1.241   9.342  0.0141  0.2685  0.1323
   73MOL0     C 9527   5.673  -1.372   9.301 -0.2198 -0.5620 -1.2684
   73MOL0     O 9528   5.813  -1.347   9.266  0.3769  0.6915 -0.3464
   73MOL0     C 9529   5.896  -1.433   9.188  0.0218  0.0468  0.2990
   73MOL0     C 9530   6.015  -1.384   9.143  0.4825 -0.4422  0.1483
   73MOL0     C 9531   6.105  -1.473   9.084  0.8907 -0.5630  0.6203
   73MOL0     C 9532   6.072  -1.605   9.051 -0.7070 -0.3333  0.6802
   73MOL0     C 9533   6.158  -1.685   8.964  0.0438 -0.7141 -0.5162
   73MOL0     O 9534   6.106  -1.802   8.915 -0.5208 -0.1761 -0.9195
   73MOL0     C 9535   6.199  -1.883   8.855 -0.6711 -0.1959 -0.1698
   73MOL0     C 9536   6.182  -1.916   8.722 -0.2209  0.9517 -0.1229
   73MOL0     C 9537   6.270  -2.011   8.666 -0.0131 -0.2598  0.5508
   73MOL0     C 9538   6.379  -2.047   8.730 -0.3665  0.5822 -1.5126
   73MOL0     O 9539   6.463  -2.130   8.664  0.4301  1.1709 -0.3475
   73MOL0     C 9540   6.599  -2.124   8.712  0.5742 -0.7736 -0.3943
   73MOL0     C 9541   6.682  -2.166   8.599  0.2259 -0.5009 -0.0914
   73MOL0     C 9542   6.668  -2.111   8.453 -0.2090  0.2657  0.3235
   73MOL0     C 9543   6.692  -1.959   8.443  0.6655  0.2969  0.0311
   73MOL0     C 9544   6.840  -1.932   8.461  0.3193 -0.1374 -0.5883
   73MOL0     C 9545   6.865  -1.774   8.437  0.0554  0.0176  0.8224
   73MOL0     C 9546   6.847  -1.723   8.289  0.0884 -0.5690  0.2865
   73MOL0     C 9547   6.900  -1.817   8.176  0.5818 -0.4745 -0.7720
   73MOL0    Cl 9548   7.074  -1.809   8.206 -0.3425  0.3197 -0.0226
   73MOL0     C 9549   6.384  -2.016   8.874 -0.9377  0.5162  0.0056
   73MOL0     C 9550   6.298  -1.932   8.935 -0.5537  0.6251  0.7133
   73MOL0     O 9551   6.273  -1.649   8.952  0.1064 -0.9825 -0.4358
   73MOL0     C 9552   5.954  -1.649   9.096 -0.2419 -0.0045  0.0679
   73MOL0     C 9553   5.868  -1.568   9.165 -0.5016  1.0552  0.2936
   73MOL0     N 9554   5.562  -0.884   9.063 -0.6302  0.3967 -0.2159
   73MOL0     N 9555   5.524  -0.764   9.036 -0.5143  0.2394 -0.0593
   73MOL0     C 9556   5.299   0.439   8.855  0.0057 -0.6805  0.6576
   73MOL0     C 9557   5.217   0.556   8.852 -0.4452  0.0789  0.1752
   73MOL0     C 9558   4.948   0.877   8.822 -1.3824  0.6757  0.0093
   73MOL0     C 9559   5.050   0.976   8.794 -0.9553 -0.0051 -1.4860
   73MOL0     C 9560   5.026   1.112   8.809  0.5690 -0.3885  0.6315
   73MOL0     C 9561   4.893   1.157   8.863 -0.0975 -0.1492  0.9405
   73MOL0     O 9562   4.890   1.293   8.887  0.9013  0.3043  0.4624
   73MOL0     C 9563   4.796   1.351   8.971 -0.1590 -0.5042 -0.2311
   73MOL0     C 9564   4.827   1.302   9.112 -0.3591  0.1535 -0.0447
   73MOL0     C 9565   4.932   1.393   9.165 -0.5665 -0.6144 -0.3697
   73MOL0     C 9566   4.850   1.503   9.245  0.3816 -0.5740 -0.1942
   73MOL0     C 9567   4.946   1.602   9.307 -0.2924 -0.8571  0.0994
   73MOL0     C 9568   5.037   1.683   9.320  0.0541 -0.3154 -0.1099
   73MOL0     C 9569   4.792   1.066   8.877  0.6709 -0.5000  0.4945
   73MOL0     C 9570   4.821   0.936   8.858 -0.8881  0.5203 -0.0617
   73MOL0     H 9571   5.118   0.522   8.522 -0.6061  2.4701  0.3948
   73MOL0     H 9572   5.296   0.360   8.524  1.0107  0.5626 -0.0820
   73MOL0     H 9573   5.328   0.124   8.876 -0.1401  3.3145  1.7004
   73MOL0     H 9574   5.479   0.217   8.906  2.1798  1.5100 -3.9164
   73MOL0     H 9575   5.606   0.087   8.766  0.2971 -0.6234  0.6917
   73MOL0     H 9576   5.464  -0.014   8.727  2.0467  1.3491 -3.3300
   73MOL0     H 9577   5.429  -0.101   8.933  1.1261 -2.0311  2.2242
   73MOL0     H 9578   5.540   0.003   9.018  0.8190  0.8446 -0.6534
   73MOL0     H 9579   5.635  -0.186   8.806  1.3771  1.8583 -0.3363
   73MOL0     H 9580   5.741  -0.092   8.911 -0.1444 -0.1859 -0.8865
   73MOL0     H 9581   5.683  -0.220   9.103  2.2938  0.0383 -0.8114
   73MOL0     H 9582   5.727  -0.325   8.972  1.0856  0.4293  2.7465
   73MOL0     H 9583   5.481  -0.371   8.932 -1.3029 -1.9481  0.9011
   73MOL0     H 9584   5.428  -0.302   9.076 -0.9867 -3.8263  0.2508
   73MOL0     H 9585   5.652  -0.518   9.060  1.1188  1.4452  1.6473
   73MOL0     H 9586   5.606  -0.425   9.202 -0.2840 -1.8085  1.3610
   73MOL0     H 9587   5.367  -0.541   9.065  0.0656  1.8643 -0.8180
   73MOL0     H 9588   5.406  -0.517   9.235 -0.0161  1.9529  0.6492
   73MOL0     H 9589   5.393  -0.775   9.324  1.1399  1.6371 -0.4862
   73MOL0     H 9590   5.418  -1.059   9.300  0.1979  1.4296  3.2531
   73MOL0     H 9591   5.554  -0.979   9.374 -0.9655  1.2772  0.1722
   73MOL0     H 9592   5.709  -1.107   9.202 -0.6550  1.9893  0.4512
   73MOL0     H 9593   5.564  -1.192   9.140  1.3345 -2.7766 -0.3491
   73MOL0     H 9594   5.659  -1.206   9.436 -1.2328  0.0351  0.8359
   73MOL0     H 9595   5.510  -1.263   9.367 -1.1686 -0.9466 -4.7623
   73MOL0     H 9596   5.629  -1.414   9.210 -1.2207  1.2497 -1.6563
   73MOL0     H 9597   5.664  -1.439   9.387  0.5740  1.0594  0.1472
   73MOL0     H 9598   6.032  -1.277   9.158  5.0482 -0.7314 -1.3818
   73MOL0     H 9599   6.207  -1.443   9.063  0.2209  0.6708 -1.0655
   73MOL0     H 9600   6.099  -1.877   8.664 -1.4318 -0.3367  0.6681
   73MOL0     H 9601   6.268  -2.047   8.563  0.9351  0.8405  0.1310
   73MOL0     H 9602   6.618  -2.195   8.793 -0.9330  0.3630  1.0423
   73MOL0     H 9603   6.624  -2.024   8.751 -0.4089 -0.7690  0.2530
   73MOL0     H 9604   6.669  -2.274   8.586  2.1908 -0.5736 -2.2677
   73MOL0     H 9605   6.786  -2.154   8.631  0.6811  1.5458 -2.0948
   73MOL0     H 9606   6.565  -2.128   8.420 -0.8132 -1.7494  2.8954
   73MOL0     H 9607   6.734  -2.169   8.389 -2.2551  0.2837 -1.9497
   73MOL0     H 9608   6.653  -1.943   8.342  0.8184 -1.3564 -0.3270
   73MOL0     H 9609   6.638  -1.887   8.505  3.7623  2.8687  0.0270
   73MOL0     H 9610   6.906  -2.000   8.407 -0.9624 -1.3051 -0.7335
   73MOL0     H 9611   6.866  -1.943   8.567 -1.9621  1.9247  0.2611
   73MOL0     H 9612   6.973  -1.761   8.447  1.3523 -3.3095 -4.3666
   73MOL0     H 9613   6.795  -1.713   8.493  0.5964  1.7790 -0.3414
   73MOL0     H 9614   6.743  -1.704   8.258 -0.5230 -0.6869  2.1196
   73MOL0     H 9615   6.903  -1.630   8.280  0.2112 -0.5489  1.1781
   73MOL0     H 9616   6.867  -1.764   8.087  1.8228 -0.6590 -1.3584
   73MOL0     H 9617   6.857  -1.918   8.178  1.7250 -0.9883  1.5860
   73MOL0     H 9618   6.467  -2.051   8.934 -3.2987 -3.5618  1.2705
   73MOL0     H 9619   6.299  -1.917   9.042  0.4722 -1.6029  1.0659
   73MOL0     H 9620   5.921  -1.751   9.074  0.9070 -0.3917  0.0898
   73MOL0     H 9621   5.776  -1.615   9.198  0.9917 -1.6640  0.9120
   73MOL0     H 9622   5.352   0.423   8.949 -0.7186 -3.1915  0.7178
   73MOL0     H 9623   5.194   0.615   8.941  1.4004  1.2377 -0.0512
   73MOL0     H 9624   5.146   0.935   8.762 -0.8277  0.5763 -1.8491
   73MOL0     H 9625   5.102   1.185   8.785 -1.0936  0.8262 -1.3017
   73MOL0     H 9626   4.692   1.329   8.943 -0.7705  1.5601  0.2449
   73MOL0     H 9627   4.782   1.459   8.964 -1.7575 -0.3745  3.1098
   73MOL0     H 9628   4.736   1.309   9.172 -0.8775 -0.0395 -0.7975
   73MOL0     H 9629   4.863   1.199   9.103 -1.9328 -0.3740 -0.6017
   73MOL0     H 9630   5.000   1.433   9.089  2.4015 -0.9946  1.9165
   73MOL0     H 9631   4.991   1.329   9.231  1.4931  0.5447 -1.0212
   73MOL0     H 9632   4.797   1.572   9.178  1.5134  0.5905  0.0857
   73MOL0     H 9633   4.775   1.461   9.313  0.1209  1.2957  0.7269
   73MOL0     H 9634   5.120   1.749   9.333  1.7501 -2.6970  2.2429
   73MOL0     H 9635   4.695   1.100   8.912  1.4134  0.4335  1.7180
   73MOL0     H 9636   4.749   0.856   8.870  1.7786 -2.0971 -0.0867
   74MOL0     O 9637   3.945   8.192   6.128  0.0187 -0.4473 -0.0917
   74MOL0     C 9638   4.045   8.251   6.070  0.3914  0.2350 -0.9072
   74MOL0     O 9639   4.078   8.235   5.941 -0.6241  0.1920  0.7484
   74MOL0     C 9640   4.035   8.117   5.886 -0.2839 -0.3517  0.5508
   74MOL0     C 9641   3.896   8.088   5.883 -0.4255 -0.7008 -0.1057
   74MOL0     C 9642   3.856   7.974   5.804  0.0407 -0.1030 -0.4462
   74MOL0     C 9643   3.952   7.893   5.730  0.7220  0.1751 -0.3422
   74MOL0     O 9644   3.908   7.773   5.683  0.5181 -0.1360  0.0841
   74MOL0     C 9645   3.944   7.756   5.552 -0.1714 -0.4165 -0.0515
   74MOL0     C 9646   4.052   7.644   5.527 -0.2263  0.4316  0.7669
   74MOL0     C 9647   4.092   7.659   5.374  0.3219  0.5868  0.4814
   74MOL0     C 9648   4.171   7.541   5.328 -0.8836 -0.2577  1.2365
   74MOL0     C 9649   4.221   7.570   5.182 -0.5469  0.0139  0.7191
   74MOL0     C 9650   4.329   7.671   5.167  0.2540 -0.4469  0.5656
   74MOL0     C 9651   4.383   7.662   5.024 -0.3916 -0.0168 -0.9478
   74MOL0     C 9652   4.506   7.761   5.002 -0.5497  0.0173 -0.8102
   74MOL0     N 9653   4.462   7.902   5.016 -0.7676  0.1013  0.0755
   74MOL0     C 9654   4.368   7.954   4.932  0.5820 -0.0302 -1.0767
   74MOL0     C 9655   4.340   8.071   4.990  0.6056 -1.1827 -1.0211
   74MOL0     C 9656   4.268   8.176   4.920  0.0634  0.8995 -0.5701
   74MOL0     C 9657   4.167   8.232   5.022  0.0424 -0.7612  0.3274
   74MOL0     C 9658   4.191   8.383   5.065 -0.4849  1.1850 -0.4233
   74MOL0     C 9659   4.318   8.403   5.137 -0.6229 -0.1934 -1.1712
   74MOL0     O 9660   4.338   8.540   5.188  0.4328  0.3008  0.1877
   74MOL0     C 9661   4.458   8.555   5.249 -0.0735 -0.3527  1.1598
   74MOL0     C 9662   4.562   8.460   5.243  1.5914  0.3643 -0.4049
   74MOL0     C 9663   4.679   8.489   5.318  0.1321  0.8847 -0.4187
   74MOL0     C 9664   4.705   8.609   5.381 -0.3601  0.0087  1.3104
   74MOL0     C 9665   4.829   8.633   5.463  0.1959  0.9752 -0.2681
   74MOL0     O 9666   4.948   8.571   5.420 -0.1902  0.3378  1.3811
   74MOL0     C 9667   5.043   8.583   5.510 -0.1964 -0.0268 -1.3753
   74MOL0     C 9668   5.114   8.701   5.547 -0.3231 -1.3557  0.0539
   74MOL0     C 9669   5.210   8.703   5.645  0.7019  0.3968  0.5561
   74MOL0     C 9670   5.240   8.591   5.717 -0.1789  0.5784 -0.0381
   74MOL0     O 9671   5.336   8.588   5.831  0.4311  0.8238 -0.1248
   74MOL0     C 9672   5.406   8.711   5.840  0.3149 -0.2991 -0.2635
   74MOL0     C 9673   5.522   8.686   5.945  0.0093 -0.3362 -0.0248
   74MOL0     C 9674   5.647   8.634   5.875 -0.1302  0.0463 -0.1741
   74MOL0     C 9675   5.781   8.658   5.946  0.1798 -0.5846  0.2236
   74MOL0     C 9676   5.780   8.581   6.078 -0.4178 -0.6531  0.3273
   74MOL0     C 9677   5.749   8.428   6.068 -0.6172 -0.5636  0.3786
   74MOL0     C 9678   5.771   8.345   6.196  0.1829 -0.1212  0.0487
   74MOL0     C 9679   5.907   8.360   6.260  0.2389  0.0570  0.2556
   74MOL0    Cl 9680   5.919   8.218   6.368 -0.1103 -0.2891 -0.3661
   74MOL0     C 9681   5.170   8.465   5.679 -0.1453  0.0553  0.3722
   74MOL0     C 9682   5.071   8.470   5.580  0.2073 -0.2131 -0.1469
   74MOL0     O 9683   4.812   8.708   5.564 -0.7999  0.7711  0.2170
   74MOL0     C 9684   4.596   8.705   5.378  1.3464 -1.1639 -0.1601
   74MOL0     C 9685   4.477   8.681   5.309  0.0310  0.6302 -0.5570
   74MOL0     N 9686   4.403   8.088   5.116  0.6879 -0.4297  0.3488
   74MOL0     N 9687   4.482   7.982   5.122 -0.6235  1.0075 -0.4591
   74MOL0     C 9688   4.086   7.929   5.733  0.1486 -0.5085  0.3908
   74MOL0     C 9689   4.127   8.038   5.816  0.0179  0.1995  0.3030
   74MOL0     C 9690   4.120   8.350   6.150  0.5809  0.3096  0.4051
   74MOL0     C 9691   4.074   8.405   6.271  1.0217 -0.4962  0.1276
   74MOL0     C 9692   4.140   8.502   6.339 -0.0191 -0.5760 -0.1942
   74MOL0     C 9693   4.258   8.553   6.286  1.1459  0.4862 -0.0166
   74MOL0     O 9694   4.320   8.659   6.354 -0.4079  0.6739  0.5279
   74MOL0     C 9695   4.462   8.622   6.386 -0.7807  0.0334 -0.1087
   74MOL0     C 9696   4.554   8.733   6.450 -0.2190 -0.2994  0.2486
   74MOL0     C 9697   4.567   8.740   6.599 -0.1352  0.1005 -0.0812
   74MOL0     C 9698   4.448   8.781   6.677 -0.4816 -0.1529  0.7694
   74MOL0     C 9699   4.467   8.751   6.822  0.3998  0.0622 -0.0934
   74MOL0     C 9700   4.464   8.698   6.937  0.3922  0.8385  0.7290
   74MOL0     C 9701   4.298   8.510   6.157 -0.1799 -0.7014  0.1967
   74MOL0     C 9702   4.232   8.407   6.084 -0.5013 -0.0694 -0.2270
   74MOL0     H 9703   3.830   8.160   5.931 -0.1921 -0.1370 -0.6190
   74MOL0     H 9704   3.755   7.939   5.788  0.4274 -1.5222  0.0566
   74MOL0     H 9705   3.988   7.848   5.514 -2.3801 -0.0380 -1.8950
   74MOL0     H 9706   3.854   7.744   5.491 -0.5665 -0.3910  0.5177
   74MOL0     H 9707   4.005   7.546   5.539 -0.0209  0.2876  0.4246
   74MOL0     H 9708   4.133   7.665   5.597  0.4991  3.8392 -0.8654
   74MOL0     H 9709   4.131   7.757   5.345  1.2774 -0.5804 -2.4816
   74MOL0     H 9710   4.003   7.657   5.311 -0.3773  4.3699  1.0726
   74MOL0     H 9711   4.260   7.530   5.391 -0.6957 -1.7774  0.7387
   74MOL0     H 9712   4.109   7.451   5.339 -1.3538 -0.4902 -2.1797
   74MOL0     H 9713   4.139   7.610   5.123  0.9078 -0.7070 -1.9451
   74MOL0     H 9714   4.252   7.472   5.145  1.7891  0.8216  0.3266
   74MOL0     H 9715   4.409   7.657   5.240  1.5677 -2.0091 -1.0807
   74MOL0     H 9716   4.292   7.772   5.188 -2.9451 -1.8450  2.2829
   74MOL0     H 9717   4.418   7.559   5.008  6.1575  0.9493  3.1384
   74MOL0     H 9718   4.301   7.696   4.961  1.0320  2.7782 -1.4471
   74MOL0     H 9719   4.554   7.744   4.905  0.7486 -2.6452  0.1965
   74MOL0     H 9720   4.574   7.734   5.083 -1.6748 -1.6385 -0.3604
   74MOL0     H 9721   4.318   7.913   4.845  0.1222  0.8576 -1.2398
   74MOL0     H 9722   4.214   8.130   4.837 -1.7905 -0.1185  1.1188
   74MOL0     H 9723   4.343   8.251   4.894  1.1617  0.8874  2.1647
   74MOL0     H 9724   4.162   8.182   5.119 -1.2784 -0.0796  0.6340
   74MOL0     H 9725   4.064   8.220   4.988  0.1833 -1.2104  0.0493
   74MOL0     H 9726   4.197   8.433   4.968  0.2408 -1.2899 -1.7504
   74MOL0     H 9727   4.114   8.418   5.134 -0.0244  1.9330 -0.2717
   74MOL0     H 9728   4.400   8.369   5.072  1.1093  1.4117  0.0627
   74MOL0     H 9729   4.313   8.336   5.223  0.6877  1.8591  0.6080
   74MOL0     H 9730   4.571   8.383   5.168 -1.2453  2.2736 -2.9663
   74MOL0     H 9731   4.763   8.421   5.324  1.6590  2.3460 -2.9188
   74MOL0     H 9732   5.095   8.792   5.491 -0.6821  0.2985  2.6913
   74MOL0     H 9733   5.254   8.802   5.655 -1.2708  1.2359  1.3625
   74MOL0     H 9734   5.343   8.795   5.873 -0.0515  0.2764 -2.2830
   74MOL0     H 9735   5.451   8.747   5.748  1.5503  0.6453  0.6715
   74MOL0     H 9736   5.489   8.617   6.023 -0.7343 -1.0675 -0.9663
   74MOL0     H 9737   5.545   8.780   5.997  1.1635  0.0648 -1.1714
   74MOL0     H 9738   5.660   8.676   5.775  1.7980 -1.2108 -0.4932
   74MOL0     H 9739   5.613   8.532   5.859 -0.1791  0.0650 -0.1886
   74MOL0     H 9740   5.855   8.621   5.874  0.9975 -1.8836  1.6627
   74MOL0     H 9741   5.804   8.763   5.963  1.6312 -0.6465 -1.1682
   74MOL0     H 9742   5.710   8.633   6.144 -1.2709 -2.7818  1.1682
   74MOL0     H 9743   5.876   8.585   6.130 -0.0449  2.0753 -0.3880
   74MOL0     H 9744   5.801   8.383   5.983  0.9980 -2.1700  2.1242
   74MOL0     H 9745   5.645   8.416   6.036 -0.2336 -3.3981 -0.0724
   74MOL0     H 9746   5.694   8.371   6.269  0.5765 -0.9206  0.7594
   74MOL0     H 9747   5.759   8.242   6.163 -0.7545  0.2107 -0.7110
   74MOL0     H 9748   5.916   8.452   6.318  2.8188 -0.5270  0.9019
   74MOL0     H 9749   5.990   8.359   6.189 -0.6387  0.8418 -0.8299
   74MOL0     H 9750   5.195   8.374   5.732  0.0289  0.2237  0.5816
   74MOL0     H 9751   5.021   8.389   5.528 -1.0924  1.4722 -1.6746
   74MOL0     H 9752   4.588   8.796   5.436 -3.8743 -1.3921  0.0109
   74MOL0     H 9753   4.394   8.749   5.325  1.2769  1.4550  3.5472
   74MOL0     H 9754   4.171   7.882   5.686  2.1597  1.2884  2.0618
   74MOL0     H 9755   4.231   8.069   5.823  1.3703 -3.4387 -0.8624
   74MOL0     H 9756   3.979   8.376   6.316  0.6560  0.3227 -0.0965
   74MOL0     H 9757   4.096   8.536   6.432 -1.3120 -2.8964  0.1234
   74MOL0     H 9758   4.513   8.607   6.290 -0.2534 -1.0452  0.3234
   74MOL0     H 9759   4.455   8.524   6.434 -2.1662 -0.7477 -1.7915
   74MOL0     H 9760   4.659   8.716   6.424 -0.0970 -0.0066  0.5417
   74MOL0     H 9761   4.531   8.835   6.417  1.4449  0.1869  0.4489
   74MOL0     H 9762   4.649   8.809   6.624  2.8733 -3.3065  0.2332
   74MOL0     H 9763   4.594   8.642   6.637 -0.4067  0.9984  2.6203
   74MOL0     H 9764   4.442   8.890   6.669 -2.3698 -0.3858 -2.7729
   74MOL0     H 9765   4.355   8.736   6.642 -0.1877 -0.6128  0.5765
   74MOL0     H 9766   4.463   8.653   7.034 -2.1593  2.1370  1.3894
   74MOL0     H 9767   4.384   8.566   6.121 -2.1337  0.5721 -2.8658
   74MOL0     H 9768   4.274   8.379   5.988  0.6938  0.7202  0.0387
   75MOL0     O 9769   4.645   0.788   7.558 -0.2820  0.2780  0.5664
   75MOL0     C 9770   4.658   0.826   7.672  0.4577 -1.3273 -0.4422
   75MOL0     O 9771   4.702   0.949   7.695  0.3126 -0.2285 -0.2636
   75MOL0     C 9772   4.778   1.007   7.596  0.5366  0.0708  0.1308
   75MOL0     C 9773   4.919   1.016   7.606 -0.6741  0.4676  0.1967
   75MOL0     C 9774   4.994   1.088   7.504 -0.0547 -0.3854  0.4427
   75MOL0     C 9775   4.931   1.171   7.411  0.3322  0.3517  0.4783
   75MOL0     O 9776   5.000   1.259   7.326  1.3893 -1.1082 -0.2870
   75MOL0     C 9777   5.126   1.295   7.351  0.0752 -0.5499  0.6435
   75MOL0     C 9778   5.150   1.429   7.276  0.9249 -0.2545  0.3624
   75MOL0     C 9779   5.273   1.508   7.317 -0.4219  0.1800  0.3996
   75MOL0     C 9780   5.309   1.542   7.456 -0.1830  0.2637  0.3779
   75MOL0     C 9781   5.191   1.607   7.524  0.1700 -0.1568 -0.3335
   75MOL0     C 9782   5.229   1.691   7.648  0.1213  0.7759  0.4158
   75MOL0     C 9783   5.302   1.819   7.617 -0.1363  1.0454 -1.4729
   75MOL0     C 9784   5.264   1.914   7.738 -0.6728 -0.4647  0.0282
   75MOL0     N 9785   5.359   2.024   7.738  0.4773  0.8796  0.4740
   75MOL0     C 9786   5.330   2.149   7.695  0.0318 -0.3991 -0.4495
   75MOL0     C 9787   5.443   2.219   7.701  0.1944  0.2004  0.3605
   75MOL0     C 9788   5.453   2.368   7.671 -0.1797 -0.0508 -0.5009
   75MOL0     C 9789   5.537   2.399   7.545 -0.7430 -1.0440  0.5856
   75MOL0     C 9790   5.665   2.468   7.590  0.8014 -0.4510  0.5064
   75MOL0     C 9791   5.770   2.482   7.476  0.1719  0.4491 -0.7421
   75MOL0     O 9792   5.716   2.547   7.365  0.3184 -0.4242 -0.3424
   75MOL0     C 9793   5.708   2.673   7.379  0.5618 -0.6378  0.0945
   75MOL0     C 9794   5.814   2.751   7.342  0.0071 -0.0816 -0.3677
   75MOL0     C 9795   5.805   2.885   7.349  0.2683 -0.4218  0.2662
   75MOL0     C 9796   5.680   2.949   7.381 -0.2533  0.2342  0.0879
   75MOL0     C 9797   5.658   3.094   7.391 -0.5659 -1.1783  0.4577
   75MOL0     O 9798   5.775   3.169   7.385  0.3128 -0.7187  0.0304
   75MOL0     C 9799   5.767   3.305   7.348 -0.4568 -0.1827  0.1257
   75MOL0     C 9800   5.738   3.341   7.216 -0.0155  0.3728  0.3687
   75MOL0     C 9801   5.714   3.479   7.192 -0.1445  0.3868  0.6473
   75MOL0     C 9802   5.735   3.578   7.285 -0.2068 -0.7160 -1.2504
   75MOL0     O 9803   5.723   3.709   7.259  0.3174  0.0679 -0.0889
   75MOL0     C 9804   5.656   3.765   7.140  0.9795 -0.3144 -0.2665
   75MOL0     C 9805   5.653   3.921   7.140 -0.5320  1.5113  0.0474
   75MOL0     C 9806   5.770   3.972   7.061  0.0551  0.2956  0.5039
   75MOL0     C 9807   5.751   3.979   6.915 -0.4243  0.6762 -0.1000
   75MOL0     C 9808   5.882   3.996   6.835 -0.3344 -0.4275 -0.4304
   75MOL0     C 9809   5.970   4.105   6.899  0.3461 -0.2410  0.2593
   75MOL0     C 9810   6.097   4.118   6.816 -0.2763 -0.2688  0.6740
   75MOL0     C 9811   6.192   4.229   6.875  0.3959 -0.2810  0.1494
   75MOL0    Cl 9812   6.324   4.246   6.769 -0.3252  0.2711 -0.1603
   75MOL0     C 9813   5.781   3.532   7.413  0.4433  0.1117 -0.4640
   75MOL0     C 9814   5.800   3.396   7.449  0.0531 -0.5316  0.4870
   75MOL0     O 9815   5.541   3.141   7.389 -0.5317  0.4045  0.4102
   75MOL0     C 9816   5.570   2.865   7.403 -0.9261  0.2800 -0.5178
   75MOL0     C 9817   5.587   2.730   7.400 -0.7568  0.9874  0.8873
   75MOL0     N 9818   5.547   2.135   7.744  0.9402  0.2576  0.5018
   75MOL0     N 9819   5.493   2.014   7.759 -0.7313 -0.4828 -0.6842
   75MOL0     C 9820   4.791   1.161   7.411 -0.0048  0.1234  0.6833
   75MOL0     C 9821   4.717   1.083   7.499 -0.5550  0.1497 -0.2581
   75MOL0     C 9822   4.566   0.758   7.771 -0.8676  0.0292 -0.6984
   75MOL0     C 9823   4.550   0.808   7.902 -0.5132  0.0044  0.1809
   75MOL0     C 9824   4.486   0.727   7.997  0.3163  0.2777  0.4521
   75MOL0     C 9825   4.437   0.600   7.970  0.0563 -0.3397  0.1010
   75MOL0     O 9826   4.380   0.516   8.062  0.1290  0.7566 -0.0179
   75MOL0     C 9827   4.430   0.510   8.199  0.2277  0.9576 -0.4391
   75MOL0     C 9828   4.553   0.434   8.179  0.2228 -0.3586  1.0232
   75MOL0     C 9829   4.531   0.293   8.134 -0.1393  0.8090 -0.2249
   75MOL0     C 9830   4.669   0.231   8.122 -0.2196 -0.7508 -0.9697
   75MOL0     C 9831   4.651   0.091   8.083  0.4091  0.2818  0.7656
   75MOL0     C 9832   4.624  -0.019   8.070  0.5748  0.4692 -0.1407
   75MOL0     C 9833   4.438   0.567   7.838 -0.0100  0.5887  0.0445
   75MOL0     C 9834   4.505   0.638   7.740 -0.4450 -0.2017  0.0453
   75MOL0     H 9835   4.964   0.973   7.695  1.4890  1.7476 -0.2164
   75MOL0     H 9836   5.102   1.078   7.507 -0.0365 -0.0647  2.8548
   75MOL0     H 9837   5.193   1.221   7.306 -3.1385 -1.5844 -2.9549
   75MOL0     H 9838   5.144   1.310   7.458 -1.9091  2.4086  0.6635
   75MOL0     H 9839   5.067   1.497   7.293  0.6748  0.0514 -1.8414
   75MOL0     H 9840   5.152   1.414   7.168  0.2415 -0.1703  0.3378
   75MOL0     H 9841   5.265   1.604   7.264  1.9229  0.8455  1.1497
   75MOL0     H 9842   5.360   1.456   7.276 -0.1583  1.0319 -0.1537
   75MOL0     H 9843   5.338   1.450   7.508 -0.9360 -0.5118 -0.5413
   75MOL0     H 9844   5.393   1.610   7.446  0.2111 -0.1684  0.7132
   75MOL0     H 9845   5.117   1.528   7.543  0.4583 -0.5251 -0.7099
   75MOL0     H 9846   5.142   1.680   7.459  0.8727  1.5703  1.0140
   75MOL0     H 9847   5.297   1.636   7.715 -0.1663 -0.2295 -0.1037
   75MOL0     H 9848   5.135   1.716   7.697 -1.5295 -0.3352 -1.9900
   75MOL0     H 9849   5.409   1.814   7.596  0.1821  0.3303  0.1642
   75MOL0     H 9850   5.266   1.878   7.532  3.2685  6.0802  0.1099
   75MOL0     H 9851   5.271   1.868   7.837  1.8416  1.4572  0.8502
   75MOL0     H 9852   5.163   1.953   7.724  1.0854  3.9801 -2.0007
   75MOL0     H 9853   5.236   2.186   7.654 -0.2368  0.0734  0.5694
   75MOL0     H 9854   5.488   2.409   7.766 -3.2820  1.5381  0.0963
   75MOL0     H 9855   5.356   2.418   7.665 -1.6505 -2.6354  0.0154
   75MOL0     H 9856   5.470   2.465   7.488 -1.0867 -1.7552  0.1450
   75MOL0     H 9857   5.560   2.309   7.487  1.9796  1.0873 -1.9681
   75MOL0     H 9858   5.638   2.565   7.632  0.6702 -1.4213  2.8310
   75MOL0     H 9859   5.707   2.399   7.664 -0.6429 -0.5490  1.2493
   75MOL0     H 9860   5.829   2.397   7.441  0.3352  0.1794  0.1716
   75MOL0     H 9861   5.847   2.545   7.521 -0.4870  1.7901 -1.4510
   75MOL0     H 9862   5.909   2.717   7.301 -0.4749 -2.7866  0.5263
   75MOL0     H 9863   5.890   2.947   7.325 -0.2599 -0.8229 -3.2115
   75MOL0     H 9864   5.728   3.271   7.133 -2.5715  0.5873  0.4300
   75MOL0     H 9865   5.686   3.525   7.098  0.4705  2.0350  1.2403
   75MOL0     H 9866   5.555   3.731   7.119 -0.3442  3.1339 -0.1435
   75MOL0     H 9867   5.721   3.730   7.059  1.0014  2.1024 -1.3932
   75MOL0     H 9868   5.649   3.956   7.243  2.7431 -1.3207  1.3404
   75MOL0     H 9869   5.559   3.963   7.102 -1.3204  1.3586  1.7659
   75MOL0     H 9870   5.861   3.912   7.072  0.2204  0.8604  2.5795
   75MOL0     H 9871   5.790   4.073   7.098 -0.1272 -0.0220  1.4819
   75MOL0     H 9872   5.691   3.894   6.880 -2.1325  1.7392  0.1075
   75MOL0     H 9873   5.693   4.070   6.897 -1.4211 -0.1271 -1.1475
   75MOL0     H 9874   5.850   4.013   6.732  1.1030  0.9805 -0.6714
   75MOL0     H 9875   5.926   3.896   6.834 -1.1931 -0.8686  1.5057
   75MOL0     H 9876   5.993   4.077   7.002 -0.8246 -0.0561  0.5841
   75MOL0     H 9877   5.910   4.196   6.901 -1.4199 -1.3665  2.3245
   75MOL0     H 9878   6.151   4.023   6.813  0.3505  0.0983 -0.1498
   75MOL0     H 9879   6.063   4.153   6.718  0.5565 -0.1817  0.4083
   75MOL0     H 9880   6.231   4.195   6.972  1.2430 -0.6516 -0.3138
   75MOL0     H 9881   6.133   4.321   6.884  2.0548  0.9582 -1.0594
   75MOL0     H 9882   5.813   3.604   7.487  4.8103 -0.2765 -1.7035
   75MOL0     H 9883   5.850   3.357   7.538  0.5328 -3.8217 -1.0659
   75MOL0     H 9884   5.468   2.901   7.412 -1.7200 -1.7300 -0.9646
   75MOL0     H 9885   5.503   2.662   7.410  0.6548 -1.3758 -1.7523
   75MOL0     H 9886   4.744   1.209   7.325  4.4155  3.6719 -0.1408
   75MOL0     H 9887   4.609   1.093   7.495 -0.3918  1.6336 -2.1558
   75MOL0     H 9888   4.590   0.900   7.944 -2.0186 -0.1950  2.2003
   75MOL0     H 9889   4.492   0.777   8.093  0.2666  0.5303  0.3254
   75MOL0     H 9890   4.364   0.449   8.262  0.4608  1.7016  0.5603
   75MOL0     H 9891   4.441   0.606   8.250 -2.8895  1.8510 -1.2613
   75MOL0     H 9892   4.619   0.487   8.109 -1.5978  0.5279 -0.1102
   75MOL0     H 9893   4.612   0.435   8.271  1.7792  2.6309  0.1629
   75MOL0     H 9894   4.468   0.270   8.047 -0.5389 -1.3618  0.5605
   75MOL0     H 9895   4.475   0.241   8.212 -0.4979 -1.0794 -1.6642
   75MOL0     H 9896   4.732   0.277   8.045 -0.0873  0.5675 -0.0993
   75MOL0     H 9897   4.724   0.226   8.216 -0.1674 -0.9477 -1.0094
   75MOL0     H 9898   4.598  -0.122   8.057 -0.1340  0.5362  0.6100
   75MOL0     H 9899   4.393   0.472   7.811 -0.2820  1.0425 -1.1921
   75MOL0     H 9900   4.517   0.580   7.649  1.9724 -2.3718  1.5872
   76MOL0     O 9901   0.787   7.587  11.310 -0.2244 -0.6212  0.7604
   76MOL0     C 9902   0.741   7.503  11.389 -0.5720  0.7347  0.3836
   76MOL0     O 9903   0.820   7.441  11.481 -0.7654 -0.0321 -0.2826
   76MOL0     C 9904   0.920   7.527  11.528 -1.2665  0.7867 -0.4990
   76MOL0     C 9905   0.908   7.658  11.574  0.8105 -0.6906 -0.2328
   76MOL0     C 9906   1.014   7.720  11.652  0.4319 -0.1614 -0.5284
   76MOL0     C 9907   1.137   7.657  11.679 -0.0316 -0.0023 -0.9122
   76MOL0     O 9908   1.240   7.726  11.752  0.5724 -0.1569 -0.5513
   76MOL0     C 9909   1.364   7.717  11.682 -0.7420 -0.6901  0.5560
   76MOL0     C 9910   1.456   7.839  11.712  0.3992  0.3764  1.2892
   76MOL0     C 9911   1.484   7.847  11.862  0.1295  0.1639 -0.0363
   76MOL0     C 9912   1.563   7.727  11.929 -0.2669  0.5696 -0.4524
   76MOL0     C 9913   1.597   7.748  12.081  1.0454  0.7311 -0.3736
   76MOL0     C 9914   1.693   7.855  12.121 -0.1476  0.4774  1.0534
   76MOL0     C 9915   1.679   7.882  12.278 -0.5136  0.8167  0.2022
   76MOL0     C 9916   1.746   8.010  12.326 -0.7610 -0.2988 -0.7618
   76MOL0     N 9917   1.660   8.129  12.308  0.4511  0.4976 -0.1873
   76MOL0     C 9918   1.521   8.132  12.327  0.4295  0.6065 -0.3819
   76MOL0     C 9919   1.475   8.250  12.290 -0.0191 -0.1011 -0.2213
   76MOL0     C 9920   1.339   8.310  12.298 -0.1186 -0.3841  0.7659
   76MOL0     C 9921   1.279   8.376  12.167 -0.4302  0.0493 -1.2707
   76MOL0     C 9922   1.371   8.488  12.106  0.7335  0.5560  0.3640
   76MOL0     C 9923   1.324   8.552  11.971 -0.1553 -0.1699  0.1438
   76MOL0     O 9924   1.374   8.684  11.954 -0.3018 -1.3055  0.3017
   76MOL0     C 9925   1.503   8.707  11.901  0.2595  0.2150  0.3195
   76MOL0     C 9926   1.547   8.839  11.878 -0.2030 -1.5331  0.2498
   76MOL0     C 9927   1.669   8.868  11.818  0.5429 -0.1711  0.4057
   76MOL0     C 9928   1.757   8.768  11.789  0.5795  0.2529 -0.1758
   76MOL0     C 9929   1.884   8.806  11.726 -0.0765 -0.3182  1.1497
   76MOL0     O 9930   1.913   8.935  11.724 -0.3275  0.1525 -0.4856
   76MOL0     C 9931   2.022   8.992  11.659 -0.1105 -0.8090 -0.8821
   76MOL0     C 9932   2.101   8.939  11.556 -1.2199 -0.5724 -0.1030
   76MOL0     C 9933   2.214   8.999  11.514 -0.1365 -0.4624 -0.3053
   76MOL0     C 9934   2.251   9.131  11.557  0.4220  1.1597 -0.1799
   76MOL0     O 9935   2.355   9.184  11.496  0.4166 -0.7738 -0.8378
   76MOL0     C 9936   2.409   9.304  11.544 -0.7989 -0.3129  0.6107
   76MOL0     C 9937   2.553   9.308  11.499 -0.0493  0.4701 -0.2973
   76MOL0     C 9938   2.556   9.315  11.350  0.0127 -0.3760 -0.2320
   76MOL0     C 9939   2.708   9.319  11.309  0.1997 -1.4119  0.2330
   76MOL0     C 9940   2.765   9.455  11.313 -0.3560 -0.1228  0.2225
   76MOL0     C 9941   2.904   9.469  11.245  0.4946  0.1086 -0.5696
   76MOL0     C 9942   2.942   9.620  11.249 -0.5942 -0.1269 -0.8965
   76MOL0     C 9943   3.082   9.658  11.187  0.5095  0.0052  0.4058
   76MOL0    Cl 9944   3.091   9.836  11.178 -0.0832 -0.2532  0.1703
   76MOL0     C 9945   2.164   9.187  11.651  0.4372  1.1641 -0.8966
   76MOL0     C 9946   2.059   9.118  11.708  0.3287  0.8679  0.5955
   76MOL0     O 9947   1.953   8.714  11.691 -0.3294  0.5916  0.5096
   76MOL0     C 9948   1.726   8.635  11.818  0.8885  0.1962 -0.4322
   76MOL0     C 9949   1.600   8.603  11.872 -0.4338 -0.0060  0.5885
   76MOL0     N 9950   1.589   8.320  12.239  0.0174  0.2404  0.7176
   76MOL0     N 9951   1.694   8.246  12.245  0.2512  0.3034 -0.6062
   76MOL0     C 9952   1.148   7.516  11.645 -0.1272 -0.0824 -0.2673
   76MOL0     C 9953   1.043   7.455  11.570 -0.7370 -0.9837  0.6169
   76MOL0     C 9954   0.605   7.470  11.401 -0.3259  0.1055  0.0444
   76MOL0     C 9955   0.522   7.541  11.307 -0.8392 -0.2490 -0.3692
   76MOL0     C 9956   0.387   7.533  11.321 -1.0379  0.3284 -0.5656
   76MOL0     C 9957   0.326   7.450  11.407  0.1619  0.3970 -0.9360
   76MOL0     O 9958   0.187   7.432  11.411 -0.2147 -0.0174  0.0779
   76MOL0     C 9959   0.096   7.540  11.386 -0.2153  0.1457  0.2489
   76MOL0     C 9960   0.074   7.643  11.498  0.3648  0.4233  1.1278
   76MOL0     C 9961  -0.019   7.762  11.466 -0.4670 -0.3439  0.1843
   76MOL0     C 9962  -0.168   7.734  11.510  0.2070 -0.7939  0.2573
   76MOL0     C 9963  -0.243   7.653  11.416 -0.4013  1.2271 -0.1770
   76MOL0     C 9964  -0.286   7.573  11.339  0.0701 -1.0056  0.3269
   76MOL0     C 9965   0.396   7.374  11.489 -0.4498  0.1930 -0.6353
   76MOL0     C 9966   0.541   7.376  11.491  0.0420 -0.4125  0.7151
   76MOL0     H 9967   0.828   7.726  11.548 -0.0570 -0.5895  2.4566
   76MOL0     H 9968   0.991   7.823  11.678 -2.3801 -0.5879 -1.0457
   76MOL0     H 9969   1.349   7.741  11.577 -0.5030  1.6257  0.9956
   76MOL0     H 9970   1.410   7.619  11.699 -0.0834 -0.9105 -2.1144
   76MOL0     H 9971   1.408   7.936  11.691  1.2901  1.1112  2.5451
   76MOL0     H 9972   1.550   7.823  11.658  1.2160  0.5578  2.6224
   76MOL0     H 9973   1.390   7.851  11.917 -0.5387 -0.2217 -1.1275
   76MOL0     H 9974   1.538   7.941  11.878  1.9118 -0.8308  0.1300
   76MOL0     H 9975   1.509   7.634  11.913 -1.9629  1.5184 -0.4132
   76MOL0     H 9976   1.656   7.718  11.872  1.3171  1.8553  1.7729
   76MOL0     H 9977   1.620   7.654  12.133 -1.8182  1.5972  2.8613
   76MOL0     H 9978   1.501   7.772  12.128  2.1418  2.4138  1.1145
   76MOL0     H 9979   1.684   7.951  12.070  1.9691  0.8061  1.1933
   76MOL0     H 9980   1.792   7.811  12.103 -0.8676 -1.0862  0.7618
   76MOL0     H 9981   1.576   7.899  12.310 -0.3327  1.9232  0.2337
   76MOL0     H 9982   1.725   7.804  12.340  0.2602  1.0896 -0.0228
   76MOL0     H 9983   1.843   8.023  12.278  0.0381 -3.2387 -0.1485
   76MOL0     H 9984   1.766   7.990  12.431 -1.3963 -2.4702 -0.9986
   76MOL0     H 9985   1.459   8.053  12.369  0.8317 -0.3680 -1.5536
   76MOL0     H 9986   1.340   8.388  12.375 -1.9435 -0.0457  0.4986
   76MOL0     H 9987   1.262   8.235  12.317 -0.1058 -1.9275 -4.1154
   76MOL0     H 9988   1.177   8.412  12.180 -0.0945 -0.1647  3.7388
   76MOL0     H 9989   1.272   8.291  12.099 -0.2054  0.2248 -1.5172
   76MOL0     H 9990   1.393   8.568  12.178  1.7458  2.1497 -1.6134
   76MOL0     H 9991   1.461   8.429  12.089 -0.3430 -0.9560 -0.2655
   76MOL0     H 9992   1.217   8.567  11.956  0.1752  1.9705 -0.3781
   76MOL0     H 9993   1.354   8.489  11.887 -1.6513 -1.9223  0.8584
   76MOL0     H 9994   1.484   8.922  11.909  1.9161 -1.1184  3.9541
   76MOL0     H 9995   1.694   8.973  11.808  0.3045 -0.2189 -0.7571
   76MOL0     H 9996   2.066   8.849  11.506 -2.0543  0.6554 -1.8162
   76MOL0     H 9997   2.271   8.950  11.436 -1.3945 -2.1399 -0.2276
   76MOL0     H 9998   2.412   9.312  11.653 -0.8255 -1.7134  0.7370
   76MOL0     H 9999   2.362   9.392  11.501 -1.2499 -0.1849  1.3465
   76MOL0     H10000   2.605   9.217  11.531  0.7857  1.4053  1.0945
   76MOL0     H10001   2.596   9.392  11.554  0.0271 -0.9794  1.9652
   76MOL0     H10002   2.507   9.410  11.325  0.9834  0.6141  1.3732
   76MOL0     H10003   2.505   9.234  11.298 -0.1700 -0.5055  0.1455
   76MOL0     H10004   2.774   9.249  11.362 -0.7971 -3.6622 -1.3590
   76MOL0     H10005   2.700   9.295  11.202 -0.1527  2.8337 -0.8745
   76MOL0     H10006   2.779   9.492  11.415  4.7398  0.3532 -0.4180
   76MOL0     H10007   2.696   9.524  11.264  0.0785  1.0416  1.2189
   76MOL0     H10008   2.907   9.433  11.142 -0.4573 -1.7323 -0.0008
   76MOL0     H10009   2.969   9.412  11.311 -2.0269 -0.4265  1.6345
   76MOL0     H10010   2.859   9.667  11.195 -0.3194  1.3868 -0.0856
   76MOL0     H10011   2.930   9.664  11.348 -0.6338 -1.5442 -0.2508
   76MOL0     H10012   3.082   9.617  11.085 -0.8708  0.4767  0.1885
   76MOL0     H10013   3.166   9.618  11.243 -0.5733 -1.3877  1.0994
   76MOL0     H10014   2.186   9.285  11.692 -0.6491  1.8536 -1.9098
   76MOL0     H10015   1.994   9.172  11.777 -0.5600  0.2900  0.2269
   76MOL0     H10016   1.795   8.553  11.804  1.3087  0.7521 -1.7238
   76MOL0     H10017   1.572   8.499  11.891 -2.7517  0.5428  0.5000
   76MOL0     H10018   1.233   7.460  11.682  1.3660  2.7131  0.8007
   76MOL0     H10019   1.047   7.348  11.555 -0.2226 -0.8541 -0.2542
   76MOL0     H10020   0.561   7.606  11.229 -1.7041  0.9534  0.1905
   76MOL0     H10021   0.324   7.588  11.253 -0.4574  1.5937 -0.1219
   76MOL0     H10022  -0.000   7.498  11.355  0.1637  0.7528 -1.9216
   76MOL0     H10023   0.131   7.591  11.296 -0.1313 -0.0781  0.1548
   76MOL0     H10024   0.033   7.594  11.587  2.4147 -2.9985  0.3691
   76MOL0     H10025   0.172   7.678  11.532  0.3336 -1.8503  3.9570
   76MOL0     H10026  -0.013   7.794  11.362  1.4456 -2.0395 -0.2935
   76MOL0     H10027   0.018   7.843  11.530  2.8948 -1.8382  0.3949
   76MOL0     H10028  -0.181   7.711  11.616 -1.4404 -1.0924  0.0183
   76MOL0     H10029  -0.211   7.834  11.502  3.9579  0.8773 -1.5123
   76MOL0     H10030  -0.307   7.496  11.267  1.6254  0.6535 -2.0240
   76MOL0     H10031   0.335   7.316  11.557  0.0453  2.7765  2.2134
   76MOL0     H10032   0.602   7.318  11.559 -0.7798 -0.0047  1.8300
   77MOL0     O10033   7.576   0.470   3.871  0.3329 -0.6143  0.6714
   77MOL0     C10034   7.518   0.363   3.904 -0.6408 -0.8293  0.6197
   77MOL0     O10035   7.552   0.239   3.858  0.1035  0.5861  0.4445
   77MOL0     C10036   7.618   0.235   3.739  0.8624  0.1093 -0.7466
   77MOL0     C10037   7.535   0.230   3.625  0.8256  0.7048  0.1464
   77MOL0     C10038   7.597   0.215   3.503  0.1819 -1.2474 -0.8897
   77MOL0     C10039   7.739   0.208   3.495 -0.4270 -0.4267  0.6396
   77MOL0     O10040   7.787   0.189   3.366  0.0926 -0.1993  0.4212
   77MOL0     C10041   7.912   0.265   3.329  0.4241  0.3500  0.1951
   77MOL0     C10042   7.934   0.254   3.172  0.3921  0.8319 -0.0763
   77MOL0     C10043   8.057   0.320   3.127  0.3650 -0.6306  0.4608
   77MOL0     C10044   8.038   0.470   3.127 -0.1522 -0.3555  0.3985
   77MOL0     C10045   8.023   0.527   2.990 -0.1086 -0.6103  0.8440
   77MOL0     C10046   8.037   0.688   2.999  0.3992 -0.2970 -0.4286
   77MOL0     C10047   7.999   0.748   2.866  0.1284 -0.7099 -0.0447
   77MOL0     C10048   7.981   0.899   2.874  0.3290  0.2043  0.3481
   77MOL0     N10049   7.876   0.936   2.775  0.1913 -0.1902 -1.0699
   77MOL0     C10050   7.745   0.905   2.776  0.0481  0.4001 -0.4644
   77MOL0     C10051   7.698   0.963   2.667 -0.1195  0.3359  0.1261
   77MOL0     C10052   7.555   0.941   2.618 -0.2111  0.6412  0.0622
   77MOL0     C10053   7.435   0.962   2.710 -0.3619  0.6178  0.3115
   77MOL0     C10054   7.417   1.111   2.737  0.2500  0.5760  0.4508
   77MOL0     C10055   7.296   1.122   2.825  0.4058  0.5540  0.2102
   77MOL0     O10056   7.308   1.210   2.931 -0.0137 -0.2646 -0.8312
   77MOL0     C10057   7.204   1.237   3.010 -0.5022 -0.0300  0.2380
   77MOL0     C10058   7.082   1.171   3.008  0.3769  0.9989 -0.3843
   77MOL0     C10059   7.007   1.192   3.121 -0.4473  0.2503  0.1211
   77MOL0     C10060   7.026   1.282   3.221 -0.3282 -1.0015 -0.4467
   77MOL0     C10061   6.919   1.294   3.326 -0.5521  0.0842 -0.1262
   77MOL0     O10062   6.960   1.373   3.438 -0.5568 -0.0781 -0.7416
   77MOL0     C10063   6.888   1.402   3.557  1.2833  0.2998 -0.2108
   77MOL0     C10064   6.963   1.479   3.643  0.8921  0.1347  0.2100
   77MOL0     C10065   6.915   1.530   3.765 -0.0763  0.3707 -0.2550
   77MOL0     C10066   6.780   1.495   3.794 -0.8481  0.9030 -0.7703
   77MOL0     O10067   6.743   1.537   3.921 -0.1763 -0.2652  0.0305
   77MOL0     C10068   6.622   1.486   3.986  0.7350  0.9860 -0.3646
   77MOL0     C10069   6.614   1.545   4.128  1.0112 -0.1523  0.1900
   77MOL0     C10070   6.718   1.476   4.225  0.4197 -0.3669  1.0845
   77MOL0     C10071   6.656   1.351   4.275 -0.0805  0.3113  0.7640
   77MOL0     C10072   6.728   1.306   4.400  0.1055  0.0752 -0.5414
   77MOL0     C10073   6.670   1.180   4.470 -0.2419  0.2010  0.0305
   77MOL0     C10074   6.544   1.219   4.544 -0.1490  0.7567 -0.6202
   77MOL0     C10075   6.429   1.130   4.513  0.3372  0.1732 -0.0526
   77MOL0    Cl10076   6.370   1.123   4.352  0.0630 -0.0925  0.2691
   77MOL0     C10077   6.711   1.408   3.713 -0.2616  0.5603  0.2037
   77MOL0     C10078   6.759   1.361   3.595  0.8390  0.3457  0.3650
   77MOL0     O10079   6.805   1.244   3.310 -0.1228 -0.0786  0.1215
   77MOL0     C10080   7.134   1.370   3.212  0.0836  0.5785  0.1117
   77MOL0     C10081   7.224   1.348   3.100  0.4803 -0.8739 -0.4402
   77MOL0     N10082   7.793   1.048   2.617  0.1802 -0.4092 -0.0182
   77MOL0     N10083   7.906   1.024   2.677 -0.2848  0.3924  0.6731
   77MOL0     C10084   7.819   0.203   3.606 -0.2834 -0.4868  0.3979
   77MOL0     C10085   7.759   0.217   3.730  0.5682 -0.4293  0.1186
   77MOL0     C10086   7.410   0.372   4.007  0.3330  0.5406 -0.4100
   77MOL0     C10087   7.309   0.279   4.019  0.6482 -0.6332 -0.0103
   77MOL0     C10088   7.205   0.303   4.114  0.6458  0.3121 -0.3408
   77MOL0     C10089   7.204   0.413   4.198  0.5683 -0.0061 -0.1212
   77MOL0     O10090   7.099   0.440   4.285 -0.1889 -0.1924 -0.5033
   77MOL0     C10091   6.965   0.414   4.242 -1.1280  0.3290  0.0429
   77MOL0     C10092   6.884   0.344   4.362 -0.0298  0.1102 -0.6116
   77MOL0     C10093   6.895   0.193   4.378 -0.0547  0.9189  0.5269
   77MOL0     C10094   6.826   0.122   4.494  0.0295 -0.1591 -0.1104
   77MOL0     C10095   6.783   0.200   4.615 -1.1126 -0.2909  0.2960
   77MOL0     C10096   6.732   0.259   4.705  0.9558  0.1067 -0.7693
   77MOL0     C10097   7.312   0.507   4.189  0.1152  0.0774 -0.6578
   77MOL0     C10098   7.414   0.480   4.101 -0.9168 -0.3979 -1.0190
   77MOL0     H10099   7.426   0.229   3.627  0.8261  0.7938  0.2865
   77MOL0     H10100   7.544   0.206   3.409 -2.3055 -1.5532  0.4609
   77MOL0     H10101   8.001   0.216   3.370  0.1759  0.5888  1.0368
   77MOL0     H10102   7.891   0.366   3.367 -1.5677  0.3982 -0.9301
   77MOL0     H10103   7.859   0.318   3.124  0.1997  0.8523  0.2527
   77MOL0     H10104   7.939   0.149   3.139  3.8312  1.5073 -2.2368
   77MOL0     H10105   8.071   0.275   3.029 -0.8559  1.8758 -0.9741
   77MOL0     H10106   8.136   0.299   3.200  0.2178 -0.5473  0.6444
   77MOL0     H10107   7.946   0.506   3.174 -0.0829  3.2664 -1.9011
   77MOL0     H10108   8.122   0.518   3.179  0.0098  1.0848 -1.1369
   77MOL0     H10109   7.928   0.497   2.944 -0.7657 -0.9606  2.3863
   77MOL0     H10110   8.110   0.506   2.927  0.7983  2.5319  0.9083
   77MOL0     H10111   8.142   0.703   3.024  0.1647  1.8120 -0.5371
   77MOL0     H10112   7.984   0.743   3.078 -0.3680  1.1093 -1.8516
   77MOL0     H10113   8.078   0.743   2.789 -1.1288  0.6232 -1.4743
   77MOL0     H10114   7.911   0.696   2.828  0.0999 -1.2442  0.7217
   77MOL0     H10115   8.074   0.955   2.861 -1.2053  3.1082  1.0047
   77MOL0     H10116   7.949   0.934   2.972  2.8595  0.1109  1.2910
   77MOL0     H10117   7.698   0.835   2.845 -0.2839  1.6248  0.6026
   77MOL0     H10118   7.544   0.834   2.600 -1.6568  0.1208  3.3004
   77MOL0     H10119   7.534   1.001   2.529 -0.5235 -2.5161 -2.1824
   77MOL0     H10120   7.442   0.899   2.799 -3.6181 -1.8753 -1.0008
   77MOL0     H10121   7.364   0.915   2.642  0.7120 -1.8438  0.7712
   77MOL0     H10122   7.505   1.148   2.792 -0.7311  1.0333  1.7738
   77MOL0     H10123   7.396   1.163   2.643  3.7274  0.0452 -0.7537
   77MOL0     H10124   7.268   1.024   2.866 -0.8219  0.0589 -1.6783
   77MOL0     H10125   7.203   1.146   2.772  0.7410 -0.8525 -1.0667
   77MOL0     H10126   7.054   1.101   2.930  0.3412  2.3331 -1.5943
   77MOL0     H10127   6.914   1.137   3.130 -1.5999  2.3436  1.7871
   77MOL0     H10128   7.067   1.505   3.623  2.3395 -2.3945  3.4864
   77MOL0     H10129   6.986   1.592   3.818  1.8197  0.8279 -3.0697
   77MOL0     H10130   6.639   1.378   3.993  3.0999  1.3028 -0.3896
   77MOL0     H10131   6.533   1.518   3.931 -1.6903 -2.5441  1.2000
   77MOL0     H10132   6.513   1.541   4.169  0.5695 -0.8219 -0.9104
   77MOL0     H10133   6.640   1.651   4.117 -0.4704  0.4011  1.6025
   77MOL0     H10134   6.718   1.551   4.305 -3.4240  0.2651  0.6575
   77MOL0     H10135   6.818   1.473   4.182  0.5986  1.0060  1.3559
   77MOL0     H10136   6.549   1.356   4.299 -0.0389  2.0220  0.7155
   77MOL0     H10137   6.669   1.279   4.193  2.6022  1.8762 -0.3359
   77MOL0     H10138   6.731   1.388   4.472 -2.0890  0.2954 -0.6516
   77MOL0     H10139   6.831   1.279   4.374  0.5995  0.1976  1.1547
   77MOL0     H10140   6.742   1.135   4.539  0.8061  0.7357 -0.6805
   77MOL0     H10141   6.648   1.115   4.384  0.7601  3.3930 -2.8994
   77MOL0     H10142   6.559   1.222   4.653 -1.1711 -0.1291 -0.4442
   77MOL0     H10143   6.510   1.319   4.516 -0.6515  0.9734  0.7006
   77MOL0     H10144   6.348   1.170   4.574 -0.7258 -0.9257 -0.7090
   77MOL0     H10145   6.449   1.026   4.541  0.6880  0.9371  2.8315
   77MOL0     H10146   6.611   1.388   3.748 -0.4572  0.4932 -0.3867
   77MOL0     H10147   6.691   1.312   3.525  2.4545  0.7727 -1.6061
   77MOL0     H10148   7.152   1.440   3.293  4.0930  0.3164 -0.3473
   77MOL0     H10149   7.317   1.403   3.093 -0.4312  0.7826 -0.1977
   77MOL0     H10150   7.926   0.191   3.600 -0.0122  2.0403 -1.7222
   77MOL0     H10151   7.829   0.236   3.810  0.7174  4.0144 -0.7792
   77MOL0     H10152   7.303   0.194   3.951 -3.3366 -2.0176  1.7910
   77MOL0     H10153   7.131   0.223   4.117  1.3196 -0.3235  3.1506
   77MOL0     H10154   6.955   0.362   4.146  1.7331  2.1976 -1.3934
   77MOL0     H10155   6.918   0.510   4.218  0.4574  1.2890  0.6860
   77MOL0     H10156   6.908   0.401   4.453 -6.2582 -0.6545  2.0087
   77MOL0     H10157   6.778   0.369   4.355  0.0040  0.9260  1.1033
   77MOL0     H10158   7.001   0.170   4.388 -0.1743  0.2469  0.3057
   77MOL0     H10159   6.866   0.149   4.282  0.8675  0.0288  0.6330
   77MOL0     H10160   6.733   0.075   4.459 -0.8208  0.7583  0.8450
   77MOL0     H10161   6.901   0.048   4.524  1.9521  2.8125  3.2509
   77MOL0     H10162   6.686   0.305   4.791  1.4122 -0.8782  0.0225
   77MOL0     H10163   7.309   0.587   4.263  0.2828 -4.0840  4.4537
   77MOL0     H10164   7.489   0.558   4.091 -0.6313 -0.5409 -0.1523
   78MOL0     O10165   5.381   6.264   5.367 -0.5711 -0.1626 -0.0298
   78MOL0     C10166   5.477   6.334   5.337 -0.0781 -0.3997  0.6721
   78MOL0     O10167   5.509   6.458   5.379  0.3960 -0.3991  0.2212
   78MOL0     C10168   5.460   6.507   5.498  0.4832  0.3545  0.1876
   78MOL0     C10169   5.547   6.569   5.595 -0.3904  0.2855  0.4948
   78MOL0     C10170   5.505   6.631   5.706  0.5370  0.1000 -0.2769
   78MOL0     C10171   5.361   6.618   5.742 -0.2407  0.8112  0.8514
   78MOL0     O10172   5.324   6.652   5.872 -0.5794  0.1101  0.5372
   78MOL0     C10173   5.182   6.670   5.890  0.4389  1.3159 -0.2887
   78MOL0     C10174   5.164   6.654   6.042  0.1919 -0.5481 -0.5432
   78MOL0     C10175   5.206   6.516   6.102  0.3571 -1.0390  0.8533
   78MOL0     C10176   5.205   6.514   6.251  0.2774 -0.8904 -0.2032
   78MOL0     C10177   5.269   6.384   6.294  0.3905  0.1604  0.3523
   78MOL0     C10178   5.196   6.246   6.260  0.0872  0.4904 -0.5602
   78MOL0     C10179   5.074   6.208   6.337  0.2698 -1.3527 -0.0539
   78MOL0     C10180   4.990   6.083   6.282 -1.0341 -0.3001  0.6916
   78MOL0     N10181   4.855   6.072   6.346 -0.0503  0.3651  0.0615
   78MOL0     C10182   4.740   6.117   6.285 -0.2884 -0.3458  0.5637
   78MOL0     C10183   4.660   6.134   6.387  0.3885  0.2750 -0.8515
   78MOL0     C10184   4.511   6.175   6.387 -0.1823 -0.1367  0.8313
   78MOL0     C10185   4.476   6.243   6.517  0.0619 -0.4858 -0.9390
   78MOL0     C10186   4.331   6.308   6.527 -0.3741  0.3720 -0.6785
   78MOL0     C10187   4.199   6.242   6.485  0.2337 -0.4032  0.1927
   78MOL0     O10188   4.088   6.332   6.512 -0.4388 -0.4843  0.2889
   78MOL0     C10189   3.961   6.286   6.487  0.3594 -0.1525 -0.5750
   78MOL0     C10190   3.855   6.373   6.516 -0.1925 -0.6374  0.0340
   78MOL0     C10191   3.718   6.342   6.503 -0.2134 -0.7143 -0.9716
   78MOL0     C10192   3.690   6.211   6.465  0.2638  0.8027  0.8905
   78MOL0     C10193   3.546   6.169   6.444  0.2573  0.4506 -0.1868
   78MOL0     O10194   3.518   6.037   6.402  0.9298 -0.6016  0.1748
   78MOL0     C10195   3.390   6.034   6.348 -0.4715  0.2866 -0.5490
   78MOL0     C10196   3.370   6.103   6.227 -0.0855 -0.5942 -0.4002
   78MOL0     C10197   3.242   6.091   6.169  0.1724  0.1421 -0.5698
   78MOL0     C10198   3.156   5.990   6.212  1.1027 -0.4055 -0.9140
   78MOL0     O10199   3.028   5.989   6.155 -0.2691  0.1673 -0.2591
   78MOL0     C10200   2.972   5.858   6.128  0.4342 -0.4193 -0.1914
   78MOL0     C10201   2.849   5.879   6.038 -0.5442  0.2233  0.3350
   78MOL0     C10202   2.823   5.753   5.948  0.3367  0.1244  0.4761
   78MOL0     C10203   2.690   5.755   5.861 -0.4961  0.0789 -0.7905
   78MOL0     C10204   2.565   5.791   5.935 -0.2408  0.4279  0.4426
   78MOL0     C10205   2.500   5.680   6.008  0.6799  0.9116  0.7536
   78MOL0     C10206   2.444   5.580   5.906  0.4816 -0.0996 -0.2337
   78MOL0     C10207   2.348   5.474   5.961  0.0694 -0.3037  0.1545
   78MOL0    Cl10208   2.430   5.374   6.076 -0.1998 -0.4420 -0.2550
   78MOL0     C10209   3.188   5.907   6.316  0.1279  0.0796 -0.4049
   78MOL0     C10210   3.298   5.942   6.390  0.3510  0.5342 -0.3915
   78MOL0     O10211   3.457   6.250   6.483  0.3614  0.5042 -0.4869
   78MOL0     C10212   3.790   6.124   6.434  0.4953 -0.4190  0.2309
   78MOL0     C10213   3.933   6.159   6.448  0.4606  0.2870  0.4331
   78MOL0     N10214   4.715   6.091   6.505 -0.1084  0.1706 -1.1043
   78MOL0     N10215   4.836   6.061   6.483 -0.8619  0.6095 -0.5380
   78MOL0     C10216   5.270   6.581   5.637 -0.2480  0.0898 -0.0814
   78MOL0     C10217   5.324   6.519   5.526  0.3339 -0.1708 -0.9025
   78MOL0     C10218   5.559   6.270   5.234  0.0610 -0.6678  0.0251
   78MOL0     C10219   5.663   6.338   5.164 -0.3600 -0.3627 -0.5158
   78MOL0     C10220   5.762   6.271   5.085  1.1737  0.0551 -0.1890
   78MOL0     C10221   5.758   6.130   5.079 -0.2816  0.8789 -0.0650
   78MOL0     O10222   5.869   6.060   5.027 -0.4839 -0.8661  0.2100
   78MOL0     C10223   5.855   5.919   4.994  0.2401  0.5198  0.3185
   78MOL0     C10224   5.945   5.878   4.874  0.6027  0.5958 -1.0295
   78MOL0     C10225   5.928   5.957   4.749  0.4656  0.7311 -0.8372
   78MOL0     C10226   6.026   5.912   4.641  0.6767  0.1823  0.6361
   78MOL0     C10227   5.987   5.966   4.510  0.3904  0.0917  0.6844
   78MOL0     C10228   5.979   5.996   4.389  0.3172  0.6722 -0.1544
   78MOL0     C10229   5.651   6.055   5.141  1.0079  0.1332 -0.2432
   78MOL0     C10230   5.559   6.129   5.220  0.1022 -0.4257  0.1330
   78MOL0     H10231   5.654   6.572   5.575 -0.7393  0.0067 -1.5888
   78MOL0     H10232   5.570   6.669   5.784 -1.6379 -0.2222  1.8450
   78MOL0     H10233   5.135   6.578   5.855  0.3999  0.8999  0.8019
   78MOL0     H10234   5.131   6.760   5.855  0.3050  0.4683 -2.4037
   78MOL0     H10235   5.063   6.685   6.070 -0.7196 -1.0764 -2.9802
   78MOL0     H10236   5.224   6.727   6.096  0.5683 -1.5074  0.3801
   78MOL0     H10237   5.310   6.512   6.068  0.2701 -1.1797  0.6018
   78MOL0     H10238   5.135   6.445   6.059 -1.7599  0.3221  1.9033
   78MOL0     H10239   5.255   6.592   6.309  0.9572 -2.0733  0.8715
   78MOL0     H10240   5.100   6.510   6.285 -0.5328  0.9813 -2.2570
   78MOL0     H10241   5.269   6.375   6.403 -1.9860  1.3414  0.5241
   78MOL0     H10242   5.370   6.381   6.253  0.7958 -3.2456  1.3020
   78MOL0     H10243   5.263   6.162   6.278 -2.6885 -1.4389  1.7229
   78MOL0     H10244   5.170   6.239   6.154 -0.2139  1.9019 -0.5976
   78MOL0     H10245   5.089   6.193   6.444 -0.9912 -0.6701  0.2336
   78MOL0     H10246   5.007   6.291   6.314 -0.7874 -1.4527  2.3789
   78MOL0     H10247   5.048   5.992   6.303 -1.3001 -0.0120  2.9704
   78MOL0     H10248   4.965   6.090   6.176 -0.0290 -1.9422  0.3089
   78MOL0     H10249   4.731   6.140   6.179  0.0238  0.9565  0.7982
   78MOL0     H10250   4.442   6.091   6.374 -0.8211  0.5063 -0.0867
   78MOL0     H10251   4.495   6.239   6.299  0.2066 -0.6628  0.3678
   78MOL0     H10252   4.563   6.306   6.538  2.0638 -3.4644  0.4076
   78MOL0     H10253   4.495   6.171   6.597  0.3924  2.4267  1.8046
   78MOL0     H10254   4.319   6.344   6.629  0.3472 -1.2771  0.0349
   78MOL0     H10255   4.336   6.402   6.471  1.4467 -1.1863 -3.4215
   78MOL0     H10256   4.189   6.153   6.548 -1.5675 -0.0674  0.4315
   78MOL0     H10257   4.215   6.200   6.385  0.5789 -0.6233  0.3387
   78MOL0     H10258   3.885   6.475   6.536  0.1838 -0.6831 -0.2920
   78MOL0     H10259   3.655   6.421   6.543  1.9502  0.3264  0.5812
   78MOL0     H10260   3.446   6.164   6.180 -1.3226  0.7081 -0.7797
   78MOL0     H10261   3.218   6.138   6.074  2.4903 -0.3046 -1.4531
   78MOL0     H10262   2.938   5.807   6.218 -0.9545  1.8002  0.6134
   78MOL0     H10263   3.042   5.778   6.100  1.5220 -1.0502  3.7338
   78MOL0     H10264   2.864   5.965   5.971  0.0795  0.2254  0.4750
   78MOL0     H10265   2.761   5.906   6.096 -0.4921 -0.8677  0.9439
   78MOL0     H10266   2.822   5.665   6.012 -0.7661 -0.7059 -0.6425
   78MOL0     H10267   2.903   5.733   5.876  1.5712 -1.5290  2.2261
   78MOL0     H10268   2.702   5.840   5.793 -1.9747 -1.9292 -3.7760
   78MOL0     H10269   2.669   5.662   5.809 -0.1044 -1.9681  2.4228
   78MOL0     H10270   2.501   5.831   5.857  1.0793  1.6038 -0.0877
   78MOL0     H10271   2.589   5.876   6.000  4.8576 -1.9828  2.2518
   78MOL0     H10272   2.421   5.713   6.076 -2.9299 -0.6087 -2.2767
   78MOL0     H10273   2.569   5.619   6.066 -2.7935 -3.8116  0.6051
   78MOL0     H10274   2.412   5.631   5.814  1.4292 -0.5270 -0.8261
   78MOL0     H10275   2.530   5.518   5.880  0.5287  0.8680 -2.6516
   78MOL0     H10276   2.306   5.417   5.878 -4.0743  0.9237  1.1637
   78MOL0     H10277   2.272   5.525   6.021 -0.5269 -0.5323 -0.3869
   78MOL0     H10278   3.138   5.815   6.344 -1.6330  0.1638 -2.8846
   78MOL0     H10279   3.321   5.886   6.480  0.1237  0.2505 -0.5094
   78MOL0     H10280   3.763   6.031   6.385  4.0807 -2.0037  0.9177
   78MOL0     H10281   4.004   6.086   6.409  0.2302 -0.5134  1.4790
   78MOL0     H10282   5.161   6.583   5.639 -0.3601 -0.9614 -2.3318
   78MOL0     H10283   5.257   6.484   5.448  2.2138 -1.3710 -2.0603
   78MOL0     H10284   5.681   6.445   5.175 -1.4594 -0.3675  1.8723
   78MOL0     H10285   5.848   6.320   5.041  2.3904 -3.8235 -2.6193
   78MOL0     H10286   5.756   5.887   4.961  0.5168 -1.2827  1.1377
   78MOL0     H10287   5.879   5.866   5.087 -0.5247  1.3057  0.9872
   78MOL0     H10288   6.046   5.904   4.909  0.4010  0.3921 -0.2698
   78MOL0     H10289   5.949   5.771   4.855  0.6991 -0.2116  2.7260
   78MOL0     H10290   5.944   6.063   4.770 -0.7428  0.4059  2.2257
   78MOL0     H10291   5.828   5.924   4.717  1.3236 -1.8238 -1.1001
   78MOL0     H10292   6.124   5.957   4.658  0.8744 -0.2278  0.5855
   78MOL0     H10293   6.040   5.804   4.638  1.6325  0.3051 -1.5701
   78MOL0     H10294   5.965   6.037   4.291  0.6812  1.8445  0.2645
   78MOL0     H10295   5.640   5.948   5.134 -0.9516  0.2500  0.3046
   78MOL0     H10296   5.498   6.080   5.295  1.6483  1.7785  3.0391
   79MOL0     O10297  11.107   0.458   2.495  0.1840 -0.4613 -0.3999
   79MOL0     C10298  11.031   0.448   2.590 -1.1808 -0.7027 -0.3557
   79MOL0     O10299  10.930   0.538   2.622 -0.2110 -0.4223 -0.0529
   79MOL0     C10300  10.928   0.650   2.544 -1.1503  0.6818 -0.8569
   79MOL0     C10301  10.920   0.631   2.405 -0.2076  0.1695 -0.4460
   79MOL0     C10302  10.914   0.752   2.332 -0.8229 -0.4101 -0.2613
   79MOL0     C10303  10.913   0.884   2.396  0.5157 -0.4275  0.5762
   79MOL0     O10304  10.915   0.981   2.303 -0.5642 -0.0506 -0.1217
   79MOL0     C10305  10.928   1.124   2.335  0.4718  0.4227 -0.8024
   79MOL0     C10306  10.789   1.189   2.380 -0.3621  0.1154  0.9433
   79MOL0     C10307  10.801   1.328   2.451 -0.3493 -1.0743 -0.2100
   79MOL0     C10308  10.685   1.356   2.548 -0.5767 -0.8102 -0.2990
   79MOL0     C10309  10.551   1.415   2.489  0.0723  0.8171  0.5723
   79MOL0     C10310  10.447   1.408   2.596 -0.2165 -0.2521  0.0112
   79MOL0     C10311  10.304   1.393   2.539  0.4432 -0.2957 -0.9988
   79MOL0     C10312  10.183   1.415   2.631  0.6876 -0.7354  0.2228
   79MOL0     N10313  10.052   1.407   2.569 -1.0512  0.3410  0.0560
   79MOL0     C10314   9.939   1.464   2.626 -0.5147  1.0567  0.1796
   79MOL0     C10315   9.849   1.472   2.528  1.5707  0.0750  0.0197
   79MOL0     C10316   9.713   1.547   2.529 -0.7942 -0.0785 -0.1270
   79MOL0     C10317   9.594   1.454   2.523  0.9224  0.0823 -0.3520
   79MOL0     C10318   9.461   1.525   2.549 -0.4570  0.1720  0.2400
   79MOL0     C10319   9.338   1.441   2.567  0.4780  1.4256  0.2621
   79MOL0     O10320   9.216   1.501   2.616 -0.2730  0.0575  0.0372
   79MOL0     C10321   9.113   1.547   2.536  0.2868  0.8003  0.4296
   79MOL0     C10322   9.024   1.622   2.597  0.3803  0.4326  0.6254
   79MOL0     C10323   8.917   1.686   2.534  1.5780  0.3011 -0.4788
   79MOL0     C10324   8.888   1.659   2.398 -0.0835  0.1351 -0.3849
   79MOL0     C10325   8.788   1.735   2.320 -0.6234  0.1350  0.7197
   79MOL0     O10326   8.738   1.859   2.372  0.0834  0.1981  0.3649
   79MOL0     C10327   8.667   1.928   2.277 -0.6134 -0.1026  0.2786
   79MOL0     C10328   8.730   2.033   2.213 -0.5319  0.4585 -0.4018
   79MOL0     C10329   8.656   2.115   2.123  0.5866 -0.5821  0.9442
   79MOL0     C10330   8.517   2.098   2.103  0.1372  0.3015  0.0498
   79MOL0     O10331   8.437   2.185   2.035 -0.0913 -0.0394  0.0147
   79MOL0     C10332   8.455   2.322   2.064  1.0498 -0.1013  0.8967
   79MOL0     C10333   8.317   2.377   2.114 -0.5999  0.9110  0.4946
   79MOL0     C10334   8.325   2.362   2.263  0.2267 -0.4615  0.5690
   79MOL0     C10335   8.194   2.373   2.342  0.5606 -0.4528 -0.9463
   79MOL0     C10336   8.234   2.394   2.490 -0.5433 -0.8452 -1.0455
   79MOL0     C10337   8.108   2.430   2.574  1.3089 -0.3958 -0.1848
   79MOL0     C10338   8.131   2.463   2.721  0.0024 -0.0919  0.4771
   79MOL0     C10339   7.990   2.505   2.777 -0.2787 -0.0267 -0.6471
   79MOL0    Cl10340   8.003   2.576   2.937  0.6922 -0.1838  0.0144
   79MOL0     C10341   8.459   1.998   2.175 -0.0430 -0.7708 -0.7338
   79MOL0     C10342   8.530   1.911   2.264  0.8394  0.1723  0.5666
   79MOL0     O10343   8.781   1.702   2.200  0.6369  0.5432  0.0767
   79MOL0     C10344   8.968   1.561   2.342  1.3364  1.4142 -0.5782
   79MOL0     C10345   9.079   1.507   2.405  0.3620  0.5409  0.0438
   79MOL0     N10346   9.902   1.404   2.416 -0.3283  0.5544  0.1859
   79MOL0     N10347  10.027   1.363   2.440  0.1587 -0.5566  0.5733
   79MOL0     C10348  10.913   0.895   2.533  0.3248  0.6707 -0.8302
   79MOL0     C10349  10.926   0.776   2.610 -0.3221 -0.2196  0.0991
   79MOL0     C10350  11.058   0.329   2.684  0.2051 -0.1143 -0.5860
   79MOL0     C10351  11.172   0.239   2.687 -0.3117 -0.7795  0.7332
   79MOL0     C10352  11.183   0.152   2.792 -0.6039  0.1121  0.8693
   79MOL0     C10353  11.098   0.144   2.904  0.6871  0.5142  0.5725
   79MOL0     O10354  11.124   0.056   3.010 -0.3323  0.0497  0.8089
   79MOL0     C10355  11.023   0.039   3.110 -0.0913  0.4144  0.4368
   79MOL0     C10356  11.034   0.151   3.210 -0.9385  0.6972 -0.1246
   79MOL0     C10357  10.920   0.153   3.315  0.3322  0.1874  0.4114
   79MOL0     C10358  10.974   0.193   3.455  0.4510 -0.1148 -0.4722
   79MOL0     C10359  11.016   0.336   3.469  0.0496  1.1311  0.1182
   79MOL0     C10360  11.081   0.435   3.482  0.2495  0.1882  0.4398
   79MOL0     C10361  10.988   0.238   2.898 -0.1594  0.3717 -0.3128
   79MOL0     C10362  10.962   0.315   2.792  0.7373 -0.5748  0.1761
   79MOL0     H10363  10.932   0.535   2.356  1.9168  0.4503 -0.5979
   79MOL0     H10364  10.900   0.748   2.225  1.5806 -1.0223 -0.6252
   79MOL0     H10365  10.956   1.178   2.245  0.8466 -0.1064 -1.0078
   79MOL0     H10366  10.996   1.131   2.420  0.0625  1.0367 -0.5113
   79MOL0     H10367  10.743   1.114   2.444 -2.7450 -0.8877 -1.6911
   79MOL0     H10368  10.715   1.191   2.299  1.4705  0.5339 -0.8085
   79MOL0     H10369  10.805   1.413   2.382  0.6820  0.0152  1.1418
   79MOL0     H10370  10.894   1.338   2.509  0.1944 -2.5428 -0.7878
   79MOL0     H10371  10.668   1.258   2.594  0.5852 -0.2951  1.3440
   79MOL0     H10372  10.700   1.437   2.619 -2.3842 -0.4134 -0.3317
   79MOL0     H10373  10.516   1.359   2.401  3.9595  0.4909 -0.9847
   79MOL0     H10374  10.559   1.522   2.466 -2.6147  1.0992  0.6363
   79MOL0     H10375  10.437   1.496   2.659 -1.4476  0.3182 -0.9282
   79MOL0     H10376  10.461   1.322   2.662 -4.5678 -1.4152 -0.2467
   79MOL0     H10377  10.300   1.468   2.460  3.2749 -2.4456 -3.4030
   79MOL0     H10378  10.284   1.303   2.481 -3.2057  0.2559 -0.8781
   79MOL0     H10379  10.184   1.500   2.699 -2.9459 -0.3017 -0.0383
   79MOL0     H10380  10.190   1.330   2.699  1.2530  0.4121  1.6528
   79MOL0     H10381   9.931   1.502   2.727 -0.2088 -1.4346  1.2249
   79MOL0     H10382   9.706   1.617   2.445 -2.0955 -0.9132 -0.7562
   79MOL0     H10383   9.708   1.609   2.619  1.0754  0.7048 -0.5223
   79MOL0     H10384   9.603   1.384   2.607 -2.2964  1.4541  1.3101
   79MOL0     H10385   9.584   1.397   2.430 -2.2039  2.1648 -1.4346
   79MOL0     H10386   9.465   1.585   2.641  0.2288  0.4933  0.0084
   79MOL0     H10387   9.456   1.596   2.466  1.8723  2.0722  1.6063
   79MOL0     H10388   9.360   1.363   2.640 -1.7153 -2.3752 -2.7796
   79MOL0     H10389   9.315   1.387   2.475 -1.4532  1.2511  0.7880
   79MOL0     H10390   9.059   1.653   2.695  4.6545  2.8171 -1.4067
   79MOL0     H10391   8.862   1.767   2.581  0.6608  0.0255 -1.0379
   79MOL0     H10392   8.834   2.054   2.236 -0.0777 -0.0659 -1.8886
   79MOL0     H10393   8.699   2.188   2.055 -4.1260  0.2271 -1.6042
   79MOL0     H10394   8.439   2.374   1.969  0.9464  0.4143  1.1912
   79MOL0     H10395   8.545   2.349   2.121  1.5128 -1.1309  0.6761
   79MOL0     H10396   8.234   2.324   2.066 -0.3532  0.5605  0.4564
   79MOL0     H10397   8.302   2.481   2.084 -0.9225 -0.0245 -3.0347
   79MOL0     H10398   8.391   2.444   2.292  1.5927 -0.9483 -1.0089
   79MOL0     H10399   8.373   2.266   2.286 -0.7580 -0.4076  3.2316
   79MOL0     H10400   8.147   2.467   2.311  0.4293 -0.3181 -0.3642
   79MOL0     H10401   8.119   2.296   2.325 -1.2319  1.5576 -2.8226
   79MOL0     H10402   8.304   2.473   2.519 -3.0497  0.4775  1.8768
   79MOL0     H10403   8.279   2.297   2.514 -0.0027 -0.8802 -2.1514
   79MOL0     H10404   8.050   2.338   2.585 -1.2456  1.0991 -0.1997
   79MOL0     H10405   8.029   2.492   2.531  1.9928  2.6351  2.4987
   79MOL0     H10406   8.180   2.382   2.777  2.9766  0.7685 -0.6858
   79MOL0     H10407   8.205   2.543   2.730  0.8928 -0.6856 -1.1169
   79MOL0     H10408   7.913   2.428   2.779 -0.5992  0.2880 -0.6651
   79MOL0     H10409   7.951   2.584   2.711 -1.9820 -1.3051 -1.2377
   79MOL0     H10410   8.357   1.965   2.162 -0.1020 -0.8388 -0.0919
   79MOL0     H10411   8.472   1.841   2.324 -1.1156  1.3025  0.0944
   79MOL0     H10412   8.957   1.522   2.241  1.3003 -1.6274  0.5026
   79MOL0     H10413   9.132   1.425   2.359 -0.2115 -0.1131  0.5229
   79MOL0     H10414  10.906   0.991   2.585  2.9036  0.2437  0.4364
   79MOL0     H10415  10.930   0.785   2.718  2.4079  0.5735 -0.0026
   79MOL0     H10416  11.255   0.244   2.617  2.1080 -0.8442  3.4301
   79MOL0     H10417  11.261   0.077   2.800 -1.9075 -1.5241 -0.7857
   79MOL0     H10418  11.028  -0.059   3.159  1.4267 -0.4761 -1.3528
   79MOL0     H10419  10.924   0.044   3.064  0.3408 -2.1592 -0.9822
   79MOL0     H10420  11.132   0.146   3.258 -1.6315 -1.7690  1.2382
   79MOL0     H10421  11.037   0.251   3.167 -1.0140  1.2406  1.1056
   79MOL0     H10422  10.867   0.057   3.310 -1.1542  0.9805  0.3746
   79MOL0     H10423  10.857   0.233   3.276  2.1553  1.5958  0.1729
   79MOL0     H10424  10.900   0.158   3.527 -0.4421 -1.8047 -2.1341
   79MOL0     H10425  11.054   0.125   3.486  1.3808  0.7145 -0.9971
   79MOL0     H10426  11.162   0.498   3.515  3.3525 -2.7115 -0.9741
   79MOL0     H10427  10.913   0.248   2.976 -0.6269 -0.3125 -0.6656
   79MOL0     H10428  10.861   0.348   2.771  1.2605 -0.3229 -2.3282
   80MOL0     O10429   9.160   5.228   6.608  0.2882 -0.4068 -1.0393
   80MOL0     C10430   9.197   5.158   6.696 -0.2706  0.5995 -1.1877
   80MOL0     O10431   9.172   5.183   6.820 -0.6045  0.1704 -0.6033
   80MOL0     C10432   9.125   5.299   6.864  0.1256  0.1170 -0.1149
   80MOL0     C10433   9.003   5.329   6.919 -0.1662 -0.8552 -0.2729
   80MOL0     C10434   8.948   5.457   6.939 -0.2180 -0.3536 -0.2087
   80MOL0     C10435   9.035   5.569   6.917 -0.0173  0.4220  0.2159
   80MOL0     O10436   8.980   5.688   6.948  0.2527  0.3531 -0.2428
   80MOL0     C10437   9.006   5.797   6.862 -0.7216 -0.0333  0.2480
   80MOL0     C10438   9.007   5.745   6.708 -0.2829  0.4428 -0.5404
   80MOL0     C10439   9.005   5.853   6.600  1.0369  0.7885  0.4516
   80MOL0     C10440   9.019   5.793   6.455  0.0463  0.4900  0.0894
   80MOL0     C10441   9.137   5.827   6.370  0.6791  0.1391 -0.6927
   80MOL0     C10442   9.139   5.767   6.229  0.0610 -0.4134  0.1805
   80MOL0     C10443   9.264   5.784   6.146 -0.7462 -0.5226  0.0129
   80MOL0     C10444   9.218   5.831   6.007  0.8239  0.1111 -1.4320
   80MOL0     N10445   9.330   5.821   5.913 -0.1212  0.5602  0.0739
   80MOL0     C10446   9.393   5.707   5.878  0.5126  0.4213 -0.9385
   80MOL0     C10447   9.485   5.749   5.789 -0.6417 -0.9632  0.5778
   80MOL0     C10448   9.590   5.675   5.707  0.1341 -0.2950  0.0467
   80MOL0     C10449   9.523   5.553   5.657 -0.6714 -0.4656  0.0099
   80MOL0     C10450   9.403   5.581   5.569  0.7595 -0.2118  0.5634
   80MOL0     C10451   9.326   5.459   5.514  0.0875  0.0521 -0.5894
   80MOL0     O10452   9.275   5.401   5.633  0.4123  0.1433 -0.8627
   80MOL0     C10453   9.167   5.455   5.698  0.1317  0.1273  0.1601
   80MOL0     C10454   9.088   5.562   5.657  0.0113 -0.1769 -1.2159
   80MOL0     C10455   8.984   5.604   5.745 -0.0226 -0.2562 -0.1776
   80MOL0     C10456   8.954   5.533   5.864  0.2880  0.0418  0.4107
   80MOL0     C10457   8.860   5.573   5.977 -0.3929 -0.2866  0.4436
   80MOL0     O10458   8.841   5.708   6.001  0.4230  0.1607  0.8834
   80MOL0     C10459   8.756   5.740   6.103 -0.6932 -0.3033 -0.5089
   80MOL0     C10460   8.678   5.859   6.080 -1.3652 -0.2924  0.7717
   80MOL0     C10461   8.606   5.921   6.174 -0.5476  0.0128 -0.4867
   80MOL0     C10462   8.613   5.871   6.310  0.9403  0.4490 -0.2504
   80MOL0     O10463   8.537   5.939   6.409  0.1293  0.1147 -0.5429
   80MOL0     C10464   8.501   5.865   6.529  0.1153  0.7887  0.7665
   80MOL0     C10465   8.409   5.953   6.613 -0.1861 -0.5605  0.1749
   80MOL0     C10466   8.350   5.868   6.740  1.0276 -0.2704 -0.9216
   80MOL0     C10467   8.206   5.906   6.777 -0.7359 -0.5239  0.6837
   80MOL0     C10468   8.153   5.831   6.903  0.4476  0.3958  0.8554
   80MOL0     C10469   8.003   5.876   6.928 -0.1181 -0.6103  0.1969
   80MOL0     C10470   7.895   5.836   6.819  0.0236 -0.3809  0.1155
   80MOL0     C10471   7.910   5.702   6.764  0.4760  0.6704  0.4766
   80MOL0    Cl10472   7.773   5.680   6.651 -0.0168 -0.4160 -0.1950
   80MOL0     C10473   8.699   5.758   6.339  0.5342  0.1166 -0.0727
   80MOL0     C10474   8.777   5.700   6.235 -0.0128 -0.2415  0.2549
   80MOL0     O10475   8.822   5.483   6.050 -0.2560 -0.3103  0.2699
   80MOL0     C10476   9.038   5.426   5.892 -0.2141 -0.1452  0.7902
   80MOL0     C10477   9.137   5.381   5.806  0.0629 -0.2307 -0.1185
   80MOL0     N10478   9.486   5.886   5.781  1.4825  0.2176  0.3116
   80MOL0     N10479   9.388   5.930   5.856 -0.2774  1.2795  0.1212
   80MOL0     C10480   9.168   5.540   6.879  0.0022  0.0011 -1.0523
   80MOL0     C10481   9.209   5.411   6.853  0.2466  0.3988 -0.4127
   80MOL0     C10482   9.301   5.048   6.665  0.8610 -1.5459 -0.2351
   80MOL0     C10483   9.338   4.960   6.761  0.2200  0.2375 -0.7633
   80MOL0     C10484   9.446   4.866   6.732 -0.4641  0.3185  1.2750
   80MOL0     C10485   9.516   4.871   6.610 -0.2645 -0.2354  1.0058
   80MOL0     O10486   9.625   4.792   6.606  0.7797  0.6068  0.2099
   80MOL0     C10487   9.703   4.772   6.484  0.5556  0.9868 -0.1501
   80MOL0     C10488   9.635   4.672   6.400 -0.3130  0.0458 -1.0004
   80MOL0     C10489   9.714   4.641   6.273  0.3600 -0.1827  0.1957
   80MOL0     C10490   9.867   4.607   6.263 -0.0475  0.1108 -0.8896
   80MOL0     C10491   9.893   4.512   6.378 -0.2708 -0.1613  0.2243
   80MOL0     C10492   9.904   4.439   6.475 -0.1830  0.3442  0.7042
   80MOL0     C10493   9.467   4.967   6.509  0.1905  0.0672 -0.0938
   80MOL0     C10494   9.355   5.044   6.540 -0.3183 -0.4227  0.0223
   80MOL0     H10495   8.944   5.238   6.920 -1.1990 -0.2060  0.1725
   80MOL0     H10496   8.842   5.457   6.960 -0.8301 -0.6633 -2.9570
   80MOL0     H10497   9.105   5.836   6.886  0.2633 -1.9332 -0.5241
   80MOL0     H10498   8.932   5.874   6.884 -2.8848 -1.7460 -0.5934
   80MOL0     H10499   8.918   5.684   6.686 -0.4900  0.0196  1.2723
   80MOL0     H10500   9.099   5.692   6.682  2.1963  4.7314 -1.3117
   80MOL0     H10501   9.078   5.932   6.618  4.6914 -2.0088 -0.9857
   80MOL0     H10502   8.912   5.910   6.605  0.4558 -0.0584 -0.2206
   80MOL0     H10503   9.026   5.686   6.477  0.1583  0.4364 -0.2108
   80MOL0     H10504   8.930   5.809   6.393  1.5553  2.5438 -1.6497
   80MOL0     H10505   9.227   5.773   6.401  2.0042  0.6970 -3.2638
   80MOL0     H10506   9.152   5.936   6.370 -1.8390  0.5537 -0.7787
   80MOL0     H10507   9.057   5.808   6.169  0.4424 -2.6252 -2.0429
   80MOL0     H10508   9.119   5.659   6.231  2.0831 -0.9238 -1.9199
   80MOL0     H10509   9.325   5.862   6.191 -0.9668  1.8813 -3.5167
   80MOL0     H10510   9.325   5.694   6.133 -3.0315 -2.2810  0.7982
   80MOL0     H10511   9.198   5.938   6.017 -1.0521 -0.3467  0.5143
   80MOL0     H10512   9.136   5.776   5.962  0.1738  0.0543 -0.2195
   80MOL0     H10513   9.381   5.603   5.904  4.5290  0.1071  0.3872
   80MOL0     H10514   9.673   5.638   5.769  0.9750  2.2465  0.5646
   80MOL0     H10515   9.633   5.748   5.638  1.2746  0.6592  1.6887
   80MOL0     H10516   9.488   5.485   5.736 -1.3622  0.4222  0.4800
   80MOL0     H10517   9.593   5.494   5.596 -1.9505 -0.4233 -1.5609
   80MOL0     H10518   9.328   5.642   5.619 -0.1146 -0.7690 -0.0261
   80MOL0     H10519   9.431   5.646   5.486 -0.4460  0.8039  0.9277
   80MOL0     H10520   9.404   5.401   5.463 -0.9775 -1.1203 -0.9319
   80MOL0     H10521   9.246   5.497   5.451  0.4938 -0.6496 -1.5483
   80MOL0     H10522   9.107   5.619   5.567 -3.4314  3.9456  0.3016
   80MOL0     H10523   8.929   5.692   5.715  0.8233 -0.0942 -1.3288
   80MOL0     H10524   8.673   5.903   5.981 -3.8362 -3.5355 -0.7711
   80MOL0     H10525   8.542   6.005   6.150  0.0155  0.2127 -1.3249
   80MOL0     H10526   8.583   5.826   6.590 -0.4901 -1.6473  0.1234
   80MOL0     H10527   8.441   5.782   6.491 -0.6678  2.0906 -0.9956
   80MOL0     H10528   8.338   5.974   6.532 -1.1861  0.8349  1.3560
   80MOL0     H10529   8.451   6.047   6.650 -0.0567 -0.8187  0.6923
   80MOL0     H10530   8.419   5.885   6.823  3.2304  0.4069 -2.7923
   80MOL0     H10531   8.350   5.762   6.716  0.4324  0.2961 -3.9351
   80MOL0     H10532   8.214   6.014   6.796 -2.3757  0.2652 -2.4999
   80MOL0     H10533   8.139   5.884   6.695  0.2103 -1.6765  0.1938
   80MOL0     H10534   8.212   5.847   6.994 -0.2070  0.7121  1.2394
   80MOL0     H10535   8.155   5.723   6.888  2.5027  0.3510  1.1567
   80MOL0     H10536   7.990   5.983   6.945 -0.8339 -0.6871  0.1872
   80MOL0     H10537   7.978   5.826   7.022 -2.0992  0.8927  0.5388
   80MOL0     H10538   7.795   5.853   6.862  0.3336 -0.6812  0.9666
   80MOL0     H10539   7.911   5.910   6.741  0.1224  0.1171  0.6018
   80MOL0     H10540   7.924   5.627   6.843 -1.3518 -0.2497 -0.0157
   80MOL0     H10541   7.999   5.705   6.701  1.3505  0.3383  1.6411
   80MOL0     H10542   8.709   5.725   6.442 -0.8598 -1.4555 -0.4058
   80MOL0     H10543   8.840   5.613   6.250 -0.3984 -0.7417 -0.9848
   80MOL0     H10544   9.019   5.368   5.982 -0.4805 -1.4938 -0.1049
   80MOL0     H10545   9.193   5.297   5.845  1.8718  0.7644 -0.4528
   80MOL0     H10546   9.234   5.625   6.871 -1.7336  1.6702  0.9722
   80MOL0     H10547   9.315   5.402   6.837  0.9313  4.2982  0.8238
   80MOL0     H10548   9.292   4.967   6.859  1.2700 -1.0516 -0.1608
   80MOL0     H10549   9.485   4.799   6.808 -3.2518 -3.9821 -0.6542
   80MOL0     H10550   9.804   4.743   6.516  0.1743  3.3423  3.9567
   80MOL0     H10551   9.704   4.862   6.422 -0.9830  0.5489 -0.8583
   80MOL0     H10552   9.637   4.574   6.448 -1.6928 -0.8669 -2.6801
   80MOL0     H10553   9.530   4.691   6.375 -0.2915  0.1800 -0.9882
   80MOL0     H10554   9.685   4.723   6.208 -0.9362 -0.6275  0.1773
   80MOL0     H10555   9.661   4.550   6.242  0.4289  0.3857 -1.6807
   80MOL0     H10556   9.886   4.554   6.169 -1.5394  0.2019 -1.2612
   80MOL0     H10557   9.936   4.692   6.260  0.9101 -0.6192 -0.2488
   80MOL0     H10558   9.913   4.367   6.554  0.4845  0.4394  0.7236
   80MOL0     H10559   9.511   4.974   6.410 -2.7931  1.7939 -1.4444
   80MOL0     H10560   9.318   5.101   6.455  1.3833 -0.2156 -0.6181
   81MOL0     O10561   0.240   9.471   2.579 -0.0766 -0.6538  0.0657
   81MOL0     C10562   0.255   9.471   2.461 -1.1314 -0.1545  0.3349
   81MOL0     O10563   0.294   9.573   2.381  0.2097 -0.9271 -0.8876
   81MOL0     C10564   0.319   9.692   2.445 -0.1262  0.0542 -0.3326
   81MOL0     C10565   0.447   9.735   2.452  0.1306 -0.5952  0.7314
   81MOL0     C10566   0.477   9.853   2.518  0.3314 -0.1113  0.4493
   81MOL0     C10567   0.380   9.940   2.562 -0.3387 -0.7634 -0.0008
   81MOL0     O10568   0.426  10.057   2.615  0.4123 -0.5710  0.5661
   81MOL0     C10569   0.540  10.126   2.547  0.7095  0.0106  0.0424
   81MOL0     C10570   0.503  10.272   2.575  0.6858  0.2741  0.1959
   81MOL0     C10571   0.566  10.375   2.473 -0.0836  0.5628  0.3946
   81MOL0     C10572   0.499  10.511   2.486 -0.6305 -0.2864 -0.1510
   81MOL0     C10573   0.534  10.599   2.370 -0.7129 -0.6048 -0.0159
   81MOL0     C10574   0.511  10.749   2.409 -0.1345 -0.4070 -0.0820
   81MOL0     C10575   0.513  10.833   2.279  0.0179  0.9148 -0.7109
   81MOL0     C10576   0.520  10.983   2.309  0.2085  0.2065 -1.4667
   81MOL0     N10577   0.653  11.030   2.359  0.2486 -0.5092  0.8714
   81MOL0     C10578   0.672  11.065   2.487 -0.0997 -0.5690 -0.3667
   81MOL0     C10579   0.801  11.093   2.500 -0.4003  0.7662 -0.0418
   81MOL0     C10580   0.879  11.154   2.624 -0.0608  0.5037  0.9896
   81MOL0     C10581   0.830  11.098   2.759 -0.4181 -0.8278  0.1907
   81MOL0     C10582   0.914  10.986   2.811  0.2198  0.0943 -0.5488
   81MOL0     C10583   0.912  10.851   2.731 -0.2954 -0.2556 -0.6139
   81MOL0     O10584   0.794  10.773   2.774  0.3673 -0.0419  0.5064
   81MOL0     C10585   0.817  10.639   2.760 -0.2664  0.5183 -0.1686
   81MOL0     C10586   0.898  10.579   2.660  0.0458  0.0464  0.2721
   81MOL0     C10587   0.910  10.444   2.672  1.1998 -0.1902  0.4775
   81MOL0     C10588   0.840  10.368   2.765 -1.1736  0.0117 -0.5205
   81MOL0     C10589   0.843  10.219   2.757 -0.0173  0.0813 -0.8552
   81MOL0     O10590   0.806  10.157   2.864  0.2444 -0.2658  0.0759
   81MOL0     C10591   0.777  10.023   2.859  0.2549 -1.3486  0.5890
   81MOL0     C10592   0.642   9.983   2.844  0.0375  0.4942  0.3319
   81MOL0     C10593   0.609   9.849   2.828  0.2297 -1.1552  0.9507
   81MOL0     C10594   0.706   9.748   2.853  0.2063 -0.7910 -0.1903
   81MOL0     O10595   0.667   9.619   2.878  0.0074 -0.0656  0.7375
   81MOL0     C10596   0.558   9.568   2.803 -0.0671  0.7886  0.0577
   81MOL0     C10597   0.592   9.426   2.768 -0.3687 -0.0307  0.3813
   81MOL0     C10598   0.485   9.328   2.838 -0.0325  0.4796 -0.2257
   81MOL0     C10599   0.509   9.186   2.788  0.2466  0.1228 -0.5387
   81MOL0     C10600   0.428   9.087   2.874 -0.6562 -1.3291  0.6722
   81MOL0     C10601   0.442   8.941   2.837  0.5369  0.9233  0.1563
   81MOL0     C10602   0.347   8.891   2.730 -0.6125  0.0155 -0.3129
   81MOL0     C10603   0.363   8.759   2.660 -0.8192 -0.3220  0.7217
   81MOL0    Cl10604   0.514   8.755   2.562  0.3684 -0.7684 -0.4025
   81MOL0     C10605   0.838   9.791   2.863 -0.8787  0.5585  0.0424
   81MOL0     C10606   0.870   9.922   2.867  0.0411  0.3652 -0.0581
   81MOL0     O10607   0.894  10.162   2.655  0.7363  0.2966  0.3983
   81MOL0     C10608   0.763  10.429   2.861 -0.2917 -0.3041 -0.5272
   81MOL0     C10609   0.759  10.568   2.869 -0.2014 -0.2998  0.1109
   81MOL0     N10610   0.866  11.052   2.378 -0.1932  0.4119 -0.1956
   81MOL0     N10611   0.773  11.013   2.295 -0.6440  0.3677 -0.6873
   81MOL0     C10612   0.249   9.909   2.544  0.0767  0.2330  0.0729
   81MOL0     C10613   0.223   9.784   2.478 -0.2019 -0.0078  0.7079
   81MOL0     C10614   0.241   9.336   2.390  0.2095 -0.2735 -1.0251
   81MOL0     C10615   0.220   9.219   2.475  0.9846  0.1683 -0.2944
   81MOL0     C10616   0.219   9.090   2.411  1.0111  0.7396 -0.0409
   81MOL0     C10617   0.241   9.077   2.275 -0.6909  0.8473  0.7400
   81MOL0     O10618   0.239   8.947   2.223 -0.0941  0.4830 -0.6963
   81MOL0     C10619   0.259   8.927   2.087  0.2555 -0.3318 -0.2065
   81MOL0     C10620   0.148   8.975   2.003 -0.8741 -1.2251 -0.0405
   81MOL0     C10621   0.036   8.870   2.006  0.0355 -0.0489 -0.2008
   81MOL0     C10622  -0.083   8.898   1.909  0.1465 -0.2143  0.7209
   81MOL0     C10623  -0.156   8.774   1.866 -0.0471 -0.7029  0.7806
   81MOL0     C10624  -0.209   8.676   1.825  0.6400 -0.5128 -0.8138
   81MOL0     C10625   0.277   9.194   2.203  0.9115  0.5780 -0.9149
   81MOL0     C10626   0.268   9.321   2.258  0.0451  0.6834  0.0964
   81MOL0     H10627   0.530   9.667   2.433  0.8694 -0.1351  2.1648
   81MOL0     H10628   0.581   9.872   2.545 -0.0619 -0.0893  2.0723
   81MOL0     H10629   0.530  10.099   2.442  0.4075 -3.4761  0.8105
   81MOL0     H10630   0.641  10.098   2.578 -0.0440 -1.5125  1.3171
   81MOL0     H10631   0.538  10.295   2.676 -0.8222  0.1812  0.7582
   81MOL0     H10632   0.397  10.290   2.591  1.0390  1.8390  0.9832
   81MOL0     H10633   0.549  10.328   2.375  0.3990  1.1323  0.0312
   81MOL0     H10634   0.674  10.376   2.489  0.4158 -5.2953 -0.4872
   81MOL0     H10635   0.391  10.504   2.468 -0.9942  4.1024 -0.8128
   81MOL0     H10636   0.522  10.551   2.584 -1.3024 -1.4298  0.5017
   81MOL0     H10637   0.486  10.577   2.275 -1.7254  1.2611  0.0075
   81MOL0     H10638   0.643  10.595   2.358 -0.3765  3.9555 -0.2711
   81MOL0     H10639   0.589  10.771   2.482  0.7457 -2.8798 -0.2053
   81MOL0     H10640   0.413  10.758   2.458  1.2108 -0.1918  2.7501
   81MOL0     H10641   0.598  10.804   2.217  1.1699  1.3696  0.6216
   81MOL0     H10642   0.422  10.808   2.224  1.2630 -0.6332 -2.1580
   81MOL0     H10643   0.443  11.016   2.380  0.1659  1.5915 -2.1341
   81MOL0     H10644   0.512  11.036   2.214  3.4048  5.1862  0.5938
   81MOL0     H10645   0.591  11.075   2.559 -3.1821  1.1028 -3.6804
   81MOL0     H10646   0.859  11.261   2.615 -1.2476  0.3849  1.8943
   81MOL0     H10647   0.988  11.155   2.617 -0.1061  3.6395 -1.0842
   81MOL0     H10648   0.724  11.074   2.744 -0.4952 -0.3739 -0.0364
   81MOL0     H10649   0.819  11.187   2.822  0.8388  1.5197 -2.6330
   81MOL0     H10650   1.016  11.023   2.811 -0.2565  1.4727  0.1063
   81MOL0     H10651   0.876  10.979   2.913  2.0116  0.7675  0.1830
   81MOL0     H10652   1.007  10.804   2.757  2.3476  4.1609 -1.2539
   81MOL0     H10653   0.923  10.878   2.626 -1.1861  2.6738 -0.0638
   81MOL0     H10654   0.950  10.631   2.581 -0.0877  3.6067  2.2968
   81MOL0     H10655   0.957  10.387   2.592  1.0389  0.9613 -0.4850
   81MOL0     H10656   0.560  10.055   2.847  0.9522  2.1510  8.2911
   81MOL0     H10657   0.505   9.832   2.806 -1.1836  2.0132  4.0520
   81MOL0     H10658   0.556   9.619   2.706  1.8451 -0.6879 -0.8151
   81MOL0     H10659   0.467   9.566   2.864 -0.4614 -0.1061 -0.5492
   81MOL0     H10660   0.687   9.396   2.813 -1.4068  0.6156  3.2268
   81MOL0     H10661   0.584   9.402   2.661 -3.6392 -1.7799  0.8961
   81MOL0     H10662   0.385   9.361   2.808 -0.3493  0.7281  1.0813
   81MOL0     H10663   0.493   9.340   2.946 -3.2241  2.3990 -0.0725
   81MOL0     H10664   0.483   9.187   2.681 -0.6438  1.1009 -0.3308
   81MOL0     H10665   0.617   9.170   2.781  0.2147 -1.3239  1.5283
   81MOL0     H10666   0.322   9.114   2.872 -0.5422 -0.9094 -0.0312
   81MOL0     H10667   0.453   9.110   2.977  1.0793 -0.1027  0.0304
   81MOL0     H10668   0.425   8.879   2.925  0.9059 -0.2506 -0.5743
   81MOL0     H10669   0.544   8.917   2.805  0.1027 -3.1782  1.3108
   81MOL0     H10670   0.255   8.880   2.788  1.0288 -1.2892  2.2461
   81MOL0     H10671   0.329   8.968   2.655 -1.4444  1.5976  1.4320
   81MOL0     H10672   0.276   8.757   2.595  1.7538  0.1208 -3.0287
   81MOL0     H10673   0.374   8.680   2.735  0.3869 -0.1281  0.7762
   81MOL0     H10674   0.902   9.706   2.887 -2.6985 -0.9357 -0.2060
   81MOL0     H10675   0.973   9.955   2.874 -0.0157  0.3498  0.9353
   81MOL0     H10676   0.690  10.382   2.925 -0.0596 -0.0434 -0.0652
   81MOL0     H10677   0.697  10.612   2.947  0.6593  2.0568 -0.4641
   81MOL0     H10678   0.174   9.987   2.558 -1.0809 -0.7043 -0.6972
   81MOL0     H10679   0.122   9.758   2.447  0.5993 -0.5133 -1.7116
   81MOL0     H10680   0.211   9.232   2.582  0.9747 -0.8794 -0.1589
   81MOL0     H10681   0.191   9.006   2.474  0.8176  2.2674  1.9939
   81MOL0     H10682   0.284   8.823   2.064 -1.7524 -0.4424 -2.2148
   81MOL0     H10683   0.353   8.976   2.060 -0.6103  1.4084 -0.1693
   81MOL0     H10684   0.107   9.067   2.047  0.2709 -1.1908  1.0364
   81MOL0     H10685   0.188   8.985   1.902  0.9993 -0.1398  0.7516
   81MOL0     H10686  -0.013   8.878   2.103  0.2941 -1.2292  0.0442
   81MOL0     H10687   0.075   8.768   1.999  0.1696 -0.1892  2.0932
   81MOL0     H10688  -0.147   8.979   1.944 -0.8809 -0.7794  0.2172
   81MOL0     H10689  -0.045   8.944   1.817 -3.6316 -0.9638 -1.4497
   81MOL0     H10690  -0.252   8.583   1.793  1.4297 -0.2341 -2.8327
   81MOL0     H10691   0.296   9.193   2.096  1.5664  0.9298 -0.8062
   81MOL0     H10692   0.289   9.412   2.203 -1.0734  0.3650 -0.8947
   82MOL0     O10693   6.298  11.109   4.388  0.6183  0.9659 -0.0266
   82MOL0     C10694   6.375  11.019   4.368  0.1784  0.2998  0.0135
   82MOL0     O10695   6.341  10.889   4.379 -0.3040 -0.3848 -0.9916
   82MOL0     C10696   6.224  10.845   4.441  0.1615 -0.7725  0.2773
   82MOL0     C10697   6.167  10.726   4.395  0.5063 -0.4453  0.3514
   82MOL0     C10698   6.060  10.662   4.460 -0.3524 -0.0645 -0.3306
   82MOL0     C10699   5.997  10.731   4.564 -0.3758 -1.2847  0.4117
   82MOL0     O10700   5.889  10.658   4.616 -0.3537  0.3644 -0.5288
   82MOL0     C10701   5.807  10.705   4.729 -0.7846  0.9313 -0.3013
   82MOL0     C10702   5.712  10.803   4.692  0.6372 -0.2641 -0.5906
   82MOL0     C10703   5.600  10.809   4.797 -0.1337  0.0511  0.4725
   82MOL0     C10704   5.473  10.897   4.757 -0.4551  0.0355  0.0285
   82MOL0     C10705   5.360  10.877   4.853 -0.0425 -0.4838  1.0664
   82MOL0     C10706   5.257  11.002   4.833  0.3215  0.1661 -0.2441
   82MOL0     C10707   5.164  11.015   4.955  1.0841 -0.4563 -0.1740
   82MOL0     C10708   5.202  11.132   5.055  0.2714 -0.1192 -0.2792
   82MOL0     N10709   5.328  11.102   5.126 -0.5930 -0.6682  0.1629
   82MOL0     C10710   5.353  11.044   5.242 -0.3575 -0.3452 -0.1776
   82MOL0     C10711   5.486  11.045   5.254  0.0847 -0.4962  1.7710
   82MOL0     C10712   5.570  10.989   5.372 -0.1746  0.6039 -0.3331
   82MOL0     C10713   5.565  10.835   5.372  0.0027 -0.9232 -0.1690
   82MOL0     C10714   5.460  10.773   5.467 -0.1208  0.3952  0.2571
   82MOL0     C10715   5.429  10.630   5.443 -0.6460 -0.0529 -0.2147
   82MOL0     O10716   5.324  10.597   5.535 -0.1536  0.4206 -0.1740
   82MOL0     C10717   5.194  10.605   5.495  0.0612 -0.8502  0.6450
   82MOL0     C10718   5.105  10.535   5.574 -0.1124 -0.4188 -0.1063
   82MOL0     C10719   4.969  10.528   5.541 -0.5355 -0.4200 -0.3854
   82MOL0     C10720   4.918  10.601   5.424  0.0737  0.3120  0.0201
   82MOL0     C10721   4.773  10.597   5.398  0.2916 -0.3600  0.5593
   82MOL0     O10722   4.720  10.696   5.315  0.3431 -0.3032 -0.0122
   82MOL0     C10723   4.584  10.709   5.322 -0.3716 -1.1749  1.1250
   82MOL0     C10724   4.481  10.656   5.235 -1.2173 -0.1253  0.3379
   82MOL0     C10725   4.348  10.660   5.271 -0.8121  0.6953  0.3392
   82MOL0     C10726   4.316  10.734   5.383 -0.4062 -0.2073  0.3454
   82MOL0     O10727   4.184  10.757   5.403  0.6948  0.5842  0.4743
   82MOL0     C10728   4.148  10.890   5.365  0.5653 -0.0210 -0.0949
   82MOL0     C10729   3.995  10.895   5.404 -0.6330 -0.7869 -0.6530
   82MOL0     C10730   3.981  10.962   5.546  0.7050 -0.2028 -0.2874
   82MOL0     C10731   3.829  10.974   5.581 -0.2239 -0.1932  0.1880
   82MOL0     C10732   3.822  10.990   5.738  0.0450 -0.6699  0.2437
   82MOL0     C10733   3.672  10.998   5.784 -0.2353  0.1359  1.8439
   82MOL0     C10734   3.639  10.954   5.922  0.6725  0.1548 -1.0041
   82MOL0     C10735   3.706  11.034   6.032  0.1510 -0.0975 -0.7633
   82MOL0    Cl10736   3.653  10.990   6.194  0.7635 -0.5380  0.1961
   82MOL0     C10737   4.405  10.767   5.481 -0.8911 -0.6767  0.1988
   82MOL0     C10738   4.544  10.771   5.445 -0.1152 -0.6256 -0.1040
   82MOL0     O10739   4.712  10.494   5.436 -1.2812 -0.3794 -0.0195
   82MOL0     C10740   5.013  10.667   5.346 -0.2010 -0.4263 -0.1385
   82MOL0     C10741   5.150  10.674   5.383 -0.4648 -0.0781 -0.9294
   82MOL0     N10742   5.534  11.118   5.141  1.1140 -0.7164 -0.2824
   82MOL0     N10743   5.432  11.153   5.072 -0.7996  0.1703 -0.1976
   82MOL0     C10744   6.053  10.861   4.608  0.2294 -0.5006 -1.0387
   82MOL0     C10745   6.159  10.908   4.546 -0.6356 -0.9649 -0.2738
   82MOL0     C10746   6.517  11.043   4.348 -0.5480  0.2616 -0.4220
   82MOL0     C10747   6.618  10.942   4.366  0.4776 -0.8109 -0.4862
   82MOL0     C10748   6.755  10.972   4.354 -1.0103 -0.9560 -0.4074
   82MOL0     C10749   6.794  11.100   4.337 -0.7332  0.1424  0.0217
   82MOL0     O10750   6.927  11.140   4.328  0.6313 -0.9352  0.0117
   82MOL0     C10751   7.004  11.136   4.450  0.4326  0.6384 -0.7211
   82MOL0     C10752   7.112  11.236   4.453 -0.0249 -0.7280 -0.5611
   82MOL0     C10753   7.224  11.226   4.350  0.6771 -1.1483  0.8034
   82MOL0     C10754   7.320  11.119   4.361  0.1357  0.7641  0.0216
   82MOL0     C10755   7.428  11.129   4.263  0.5124  0.1546 -0.7648
   82MOL0     C10756   7.519  11.156   4.191  0.6716 -0.9355 -0.1993
   82MOL0     C10757   6.698  11.200   4.322 -0.6731 -0.1046 -0.0298
   82MOL0     C10758   6.560  11.174   4.312  0.0591  0.1580  0.0272
   82MOL0     H10759   6.201  10.677   4.304 -0.7043  2.3153 -1.7419
   82MOL0     H10760   6.018  10.566   4.434 -0.7009  0.0768 -0.2936
   82MOL0     H10761   5.867  10.750   4.809 -1.1654  0.7190  0.1041
   82MOL0     H10762   5.766  10.618   4.781  1.1914  0.6935  0.9898
   82MOL0     H10763   5.661  10.765   4.602  0.5640 -0.4463 -0.4710
   82MOL0     H10764   5.767  10.895   4.671 -0.3706  1.4149  3.2597
   82MOL0     H10765   5.649  10.856   4.883  1.2875  0.5876 -0.5931
   82MOL0     H10766   5.572  10.708   4.829  0.1194 -0.0890  0.2554
   82MOL0     H10767   5.503  11.002   4.753  0.4748 -0.1441  1.3912
   82MOL0     H10768   5.449  10.863   4.656  1.8625  1.9545 -1.2744
   82MOL0     H10769   5.397  10.878   4.956 -0.1549 -1.3972  1.1226
   82MOL0     H10770   5.318  10.778   4.832  0.3317 -0.3069 -0.6968
   82MOL0     H10771   5.200  10.974   4.743 -0.0051  0.5908 -0.1687
   82MOL0     H10772   5.321  11.089   4.818  1.1779 -0.4173 -0.0323
   82MOL0     H10773   5.063  11.030   4.916  0.1418 -0.5937  2.0313
   82MOL0     H10774   5.163  10.918   5.007 -1.3822 -0.3895  0.0619
   82MOL0     H10775   5.130  11.139   5.137 -0.2593  1.9916 -0.8540
   82MOL0     H10776   5.194  11.230   5.007  0.4649 -0.8563 -1.8747
   82MOL0     H10777   5.272  10.999   5.298 -0.3739  0.2694  0.3093
   82MOL0     H10778   5.534  11.034   5.466  0.2661  1.1898 -0.4392
   82MOL0     H10779   5.676  11.018   5.371  0.4019 -1.2695  0.8085
   82MOL0     H10780   5.666  10.801   5.397  0.8766  0.6361 -1.3864
   82MOL0     H10781   5.533  10.799   5.273  2.4366  0.4378 -1.5456
   82MOL0     H10782   5.501  10.779   5.569  1.0066  2.2451 -0.2619
   82MOL0     H10783   5.368  10.832   5.467 -0.0886  0.4570 -0.5118
   82MOL0     H10784   5.513  10.565   5.469  0.4443  0.7539 -1.5397
   82MOL0     H10785   5.391  10.616   5.341 -3.3458 -1.7600  0.9369
   82MOL0     H10786   5.150  10.487   5.660  3.2056 -1.8450 -2.4317
   82MOL0     H10787   4.906  10.458   5.594 -1.4292  1.2961  0.9323
   82MOL0     H10788   4.519  10.600   5.151 -0.8345  0.0799  0.3728
   82MOL0     H10789   4.268  10.629   5.205  1.1143 -0.1117 -1.7517
   82MOL0     H10790   4.143  10.910   5.257  2.3047  3.6440  0.3489
   82MOL0     H10791   4.208  10.967   5.413  1.4850 -0.7095 -0.1284
   82MOL0     H10792   3.951  10.796   5.389  0.8081 -1.4973 -0.3475
   82MOL0     H10793   3.948  10.967   5.337 -1.4770 -1.7974 -1.1808
   82MOL0     H10794   4.037  11.055   5.558 -0.1883  0.3057  0.0206
   82MOL0     H10795   4.037  10.890   5.607  0.9132 -0.3351 -0.6294
   82MOL0     H10796   3.783  11.059   5.530 -0.3501 -1.5461 -2.1016
   82MOL0     H10797   3.772  10.887   5.547 -0.0641 -1.3622  2.6954
   82MOL0     H10798   3.883  11.072   5.776 -0.6087 -0.3114  0.5318
   82MOL0     H10799   3.865  10.898   5.779  1.6417  0.3943  1.0813
   82MOL0     H10800   3.620  10.923   5.724  1.8112 -0.0771  0.2130
   82MOL0     H10801   3.628  11.097   5.767 -1.3264 -0.7062 -0.7442
   82MOL0     H10802   3.533  10.974   5.934 -0.1543 -3.3047 -1.5394
   82MOL0     H10803   3.652  10.846   5.930  1.7146  0.1292 -2.6128
   82MOL0     H10804   3.685  11.139   6.008 -0.8915 -0.5283 -1.8322
   82MOL0     H10805   3.815  11.031   6.041 -0.0229 -0.6501  2.1220
   82MOL0     H10806   4.372  10.817   5.572 -0.9062 -0.9367  0.3396
   82MOL0     H10807   4.621  10.787   5.520  0.7371  0.6437 -1.2033
   82MOL0     H10808   4.967  10.718   5.262 -1.6418 -2.3007 -0.5713
   82MOL0     H10809   5.214  10.732   5.318 -1.7808  1.4538 -0.9082
   82MOL0     H10810   6.000  10.930   4.673  0.6661  1.5437 -2.7726
   82MOL0     H10811   6.206  10.996   4.587  1.0478 -1.0823 -1.8053
   82MOL0     H10812   6.592  10.837   4.376  3.5697 -1.5124  1.9547
   82MOL0     H10813   6.837  10.900   4.351  1.1775  1.4184 -1.6212
   82MOL0     H10814   7.046  11.035   4.452  0.6816  0.7342 -1.0018
   82MOL0     H10815   6.942  11.150   4.539  0.5108 -2.5634 -0.0546
   82MOL0     H10816   7.074  11.334   4.421  0.1805 -0.2754  0.5437
   82MOL0     H10817   7.158  11.238   4.552 -1.1653  3.3321  0.0665
   82MOL0     H10818   7.277  11.322   4.361 -3.4743  1.0656  5.0953
   82MOL0     H10819   7.177  11.241   4.253  0.9069 -1.1559  0.6896
   82MOL0     H10820   7.356  11.100   4.463 -2.4203  2.6924  1.3839
   82MOL0     H10821   7.259  11.032   4.333 -0.8285  0.8632  1.6936
   82MOL0     H10822   7.604  11.181   4.131  0.6043  3.7378  1.2978
   82MOL0     H10823   6.747  11.295   4.304  1.1337 -1.3529 -2.2160
   82MOL0     H10824   6.489  11.255   4.298  0.3380  0.1448 -1.6659
   83MOL0     O10825   0.548   1.745  11.344 -0.7111  0.0413 -0.6226
   83MOL0     C10826   0.554   1.857  11.385  0.4174  0.0501  0.4531
   83MOL0     O10827   0.518   1.900  11.505  0.4914 -0.0013 -0.5419
   83MOL0     C10828   0.437   1.824  11.587  0.2448 -0.6960 -0.0756
   83MOL0     C10829   0.339   1.887  11.663 -0.7775 -0.8447 -0.4125
   83MOL0     C10830   0.256   1.822  11.745 -0.2407  0.0944 -0.6638
   83MOL0     C10831   0.261   1.678  11.772 -0.4906 -0.4866 -0.6487
   83MOL0     O10832   0.181   1.615  11.868 -0.1003 -0.6352 -0.4854
   83MOL0     C10833   0.135   1.478  11.849  0.1728 -0.3209 -0.2194
   83MOL0     C10834  -0.001   1.453  11.787  0.5219  1.1700  0.4805
   83MOL0     C10835  -0.027   1.306  11.766  0.7508 -1.1048  0.8609
   83MOL0     C10836   0.031   1.243  11.628  0.4257 -0.2759  0.6003
   83MOL0     C10837   0.004   1.091  11.625 -0.0980 -0.7431  0.5724
   83MOL0     C10838  -0.140   1.053  11.594 -0.3014  0.3524  0.4040
   83MOL0     C10839  -0.165   0.904  11.614  0.8678  0.5761  1.5881
   83MOL0     C10840  -0.067   0.812  11.539  0.0442  0.0778 -1.0533
   83MOL0     N10841  -0.130   0.676  11.536 -0.3479  0.2556  0.0511
   83MOL0     C10842  -0.187   0.600  11.645 -0.2512  0.8106  1.0791
   83MOL0     C10843  -0.268   0.504  11.584  1.0021 -0.7052  0.0351
   83MOL0     C10844  -0.371   0.420  11.675  0.1477  0.8859  0.0394
   83MOL0     C10845  -0.463   0.333  11.600 -0.5989  0.8356 -0.1195
   83MOL0     C10846  -0.581   0.259  11.682 -1.1323  0.2960  0.5857
   83MOL0     C10847  -0.581   0.103  11.676  0.7692  0.6600  0.3412
   83MOL0     O10848  -0.480   0.034  11.753  0.5118  0.3340 -0.1254
   83MOL0     C10849  -0.494  -0.105  11.774  0.5011 -1.0541 -0.2703
   83MOL0     C10850  -0.563  -0.186  11.682 -0.7425 -0.0821 -0.3980
   83MOL0     C10851  -0.590  -0.321  11.701  0.7783  0.9649  0.3325
   83MOL0     C10852  -0.521  -0.387  11.810 -0.1800  0.0975 -1.1074
   83MOL0     C10853  -0.515  -0.534  11.821 -0.1941 -0.3633  0.4744
   83MOL0     O10854  -0.453  -0.580  11.933  0.2116  0.0119 -0.2352
   83MOL0     C10855  -0.433  -0.716  11.952 -1.0705  0.4056 -0.7494
   83MOL0     C10856  -0.498  -0.781  12.061  0.2333  0.1533 -0.4380
   83MOL0     C10857  -0.470  -0.909  12.099  0.2649  0.4446  1.3838
   83MOL0     C10858  -0.391  -0.981  12.006 -0.7354 -0.3269  0.3570
   83MOL0     O10859  -0.353  -1.115  12.027  0.1971 -0.0911  0.6333
   83MOL0     C10860  -0.471  -1.198  12.031 -1.7637  0.0970  0.2451
   83MOL0     C10861  -0.468  -1.286  12.157  0.2441  0.3083 -0.6664
   83MOL0     C10862  -0.605  -1.338  12.195  0.4072 -0.1102 -0.3614
   83MOL0     C10863  -0.598  -1.423  12.324  0.3206 -0.1209  0.1806
   83MOL0     C10864  -0.731  -1.448  12.398 -0.9908  0.0738 -0.2822
   83MOL0     C10865  -0.796  -1.324  12.460  0.1075  0.1795  0.3292
   83MOL0     C10866  -0.941  -1.351  12.486  0.0336 -0.1135  0.6141
   83MOL0     C10867  -1.022  -1.263  12.574  0.9411  0.0721 -0.4866
   83MOL0    Cl10868  -1.184  -1.227  12.500  0.3125 -0.1447 -0.5113
   83MOL0     C10869  -0.334  -0.925  11.893  0.2936 -0.3197  0.1406
   83MOL0     C10870  -0.352  -0.788  11.865 -0.2957 -0.0697 -0.5202
   83MOL0     O10871  -0.557  -0.593  11.726  0.5581  0.6718  0.3858
   83MOL0     C10872  -0.453  -0.300  11.908  1.2733  0.2774 -0.1111
   83MOL0     C10873  -0.440  -0.164  11.888  0.0135  0.3719 -0.6587
   83MOL0     N10874  -0.250   0.504  11.454 -0.7122  0.2702  1.0020
   83MOL0     N10875  -0.165   0.607  11.422  0.1863  0.2271 -0.4979
   83MOL0     C10876   0.365   1.609  11.700  0.9546 -0.2402 -0.5451
   83MOL0     C10877   0.452   1.683  11.617 -0.2450 -0.2031 -0.6836
   83MOL0     C10878   0.607   1.947  11.285  0.1804  0.1568  0.1525
   83MOL0     C10879   0.677   2.062  11.332 -0.9993  0.0593  0.2720
   83MOL0     C10880   0.719   2.155  11.235  0.3331  0.6848 -0.0519
   83MOL0     C10881   0.680   2.146  11.105 -1.1113  1.1465  0.1539
   83MOL0     O10882   0.724   2.250  11.030 -0.7869  0.0438  0.1452
   83MOL0     C10883   0.713   2.247  10.887  0.3094 -0.2233  0.6493
   83MOL0     C10884   0.828   2.159  10.834  0.7176  0.8474 -0.3361
   83MOL0     C10885   0.849   2.177  10.677 -0.5563 -0.3649  0.0801
   83MOL0     C10886   0.723   2.189  10.586 -0.0547  0.0848 -0.9343
   83MOL0     C10887   0.650   2.064  10.607  0.4094  0.3912  0.0776
   83MOL0     C10888   0.579   1.964  10.608  0.4636 -1.1508 -0.1049
   83MOL0     C10889   0.615   2.029  11.058  0.5497  0.6884 -0.7836
   83MOL0     C10890   0.568   1.937  11.148 -0.8713  0.4048  0.3871
   83MOL0     H10891   0.320   1.993  11.653  3.5846 -0.0491 -2.3961
   83MOL0     H10892   0.185   1.879  11.804  2.5437 -1.0464  4.2730
   83MOL0     H10893   0.147   1.437  11.950 -2.3655  1.0256  0.7236
   83MOL0     H10894   0.207   1.424  11.787  0.6926  0.0348  0.0719
   83MOL0     H10895  -0.018   1.501  11.691  0.9023  0.7159  0.1775
   83MOL0     H10896  -0.070   1.493  11.861 -1.7527  0.5443 -1.2018
   83MOL0     H10897  -0.135   1.296  11.760  0.1567  3.4069  0.1566
   83MOL0     H10898   0.010   1.252  11.854 -0.7760  0.1120  2.3073
   83MOL0     H10899  -0.021   1.283  11.541  2.5441 -1.6504 -1.4301
   83MOL0     H10900   0.133   1.282  11.613 -1.2504  4.6736  0.2930
   83MOL0     H10901   0.034   1.048  11.721  1.4443 -0.3506  0.2993
   83MOL0     H10902   0.058   1.055  11.537 -2.7383 -0.5473 -1.2541
   83MOL0     H10903  -0.175   1.081  11.494  0.1920 -0.4818 -0.0106
   83MOL0     H10904  -0.202   1.106  11.667  0.0707  2.1094 -0.4904
   83MOL0     H10905  -0.140   0.880  11.718  0.2950  1.1734  1.8742
   83MOL0     H10906  -0.269   0.885  11.586  1.7233  0.5184 -1.9126
   83MOL0     H10907   0.026   0.796  11.595 -1.1386 -1.7964  0.4938
   83MOL0     H10908  -0.050   0.849  11.437 -0.9039 -1.4350 -1.8069
   83MOL0     H10909  -0.192   0.607  11.753  0.7547  2.7753  1.0435
   83MOL0     H10910  -0.435   0.490  11.729  0.7012  1.9436 -0.6512
   83MOL0     H10911  -0.331   0.354  11.754  1.2087 -3.6057 -3.7753
   83MOL0     H10912  -0.404   0.273  11.530 -2.3589  0.4935 -1.3950
   83MOL0     H10913  -0.518   0.401  11.534  0.3105  2.3100  0.5978
   83MOL0     H10914  -0.581   0.285  11.788 -3.8226 -0.0035  0.7270
   83MOL0     H10915  -0.681   0.283  11.642  0.1187 -0.3761 -3.4456
   83MOL0     H10916  -0.579   0.067  11.573  3.9880  1.8667 -0.1139
   83MOL0     H10917  -0.673   0.063  11.721 -1.0423  2.4431 -1.5380
   83MOL0     H10918  -0.604  -0.148  11.589  0.0298 -2.2104 -1.6683
   83MOL0     H10919  -0.652  -0.367  11.625  0.9304  1.7034 -0.2516
   83MOL0     H10920  -0.550  -0.716  12.131 -1.0826 -1.7559  0.4558
   83MOL0     H10921  -0.503  -0.956  12.191  1.3785  0.2348  1.6882
   83MOL0     H10922  -0.467  -1.270  11.949 -0.0894  0.7134 -0.2508
   83MOL0     H10923  -0.561  -1.137  12.019 -1.4541  0.7632  1.1354
   83MOL0     H10924  -0.438  -1.216  12.236 -0.2377 -2.0807  1.7865
   83MOL0     H10925  -0.396  -1.364  12.135  0.9975  0.5828  0.7020
   83MOL0     H10926  -0.639  -1.410  12.121  0.1721 -0.1671 -0.1997
   83MOL0     H10927  -0.676  -1.256  12.184 -0.2921 -0.9518 -2.5669
   83MOL0     H10928  -0.552  -1.518  12.298 -1.1759  0.1257 -4.2158
   83MOL0     H10929  -0.530  -1.379  12.397  2.4301  1.4477 -2.5164
   83MOL0     H10930  -0.698  -1.504  12.486 -0.1551  0.6741 -0.1958
   83MOL0     H10931  -0.800  -1.498  12.330  1.4995 -3.1879 -0.6354
   83MOL0     H10932  -0.771  -1.245  12.388  3.4858 -0.5618  0.5288
   83MOL0     H10933  -0.734  -1.308  12.549  0.4126  0.6477  0.0417
   83MOL0     H10934  -0.979  -1.349  12.383 -1.4479 -1.2537  1.0973
   83MOL0     H10935  -0.950  -1.455  12.520  2.2181 -0.3486  0.6525
   83MOL0     H10936  -0.963  -1.171  12.584 -1.1661  1.5070 -0.5629
   83MOL0     H10937  -1.037  -1.304  12.674  0.0843  0.5385 -0.4113
   83MOL0     H10938  -0.263  -0.969  11.823 -1.6917 -0.9897 -1.5370
   83MOL0     H10939  -0.308  -0.744  11.776 -2.0910  0.3198 -1.2591
   83MOL0     H10940  -0.409  -0.327  12.004  1.9333  1.2742 -0.1166
   83MOL0     H10941  -0.382  -0.105  11.959  2.3865  2.0426 -3.7117
   83MOL0     H10942   0.379   1.502  11.712 -0.0899 -0.1911  1.6521
   83MOL0     H10943   0.539   1.626  11.588  2.0566  2.0015  1.4001
   83MOL0     H10944   0.714   2.076  11.433 -1.7379 -0.1194  0.5720
   83MOL0     H10945   0.775   2.241  11.270 -0.1193  1.0215 -0.1502
   83MOL0     H10946   0.727   2.346  10.842  0.3211  0.9260  3.0264
   83MOL0     H10947   0.613   2.210  10.863  0.2154  0.5494 -0.2359
   83MOL0     H10948   0.924   2.176  10.883  0.7846 -0.8539  0.2008
   83MOL0     H10949   0.797   2.055  10.847 -0.1420  1.2254  0.8277
   83MOL0     H10950   0.909   2.096  10.635 -1.5840  0.1130 -2.5217
   83MOL0     H10951   0.904   2.271  10.671  0.3288 -0.6357  2.6656
   83MOL0     H10952   0.669   2.278  10.619 -1.4457 -1.5414  1.4813
   83MOL0     H10953   0.752   2.205  10.482 -2.1549 -0.2346 -1.5948
   83MOL0     H10954   0.513   1.881  10.599 -1.0039  0.0770 -1.1950
   83MOL0     H10955   0.609   2.027  10.949  1.6227  1.5140 -0.8649
   83MOL0     H10956   0.503   1.858  11.110  0.1671  0.3958 -1.4429
   84MOL0     O10957   1.272   4.610   5.975 -1.3727  0.0960  0.1712
   84MOL0     C10958   1.316   4.521   5.899 -0.0366 -0.2385  0.4146
   84MOL0     O10959   1.370   4.397   5.934 -0.6868 -0.2343 -0.5751
   84MOL0     C10960   1.373   4.359   6.068  0.7853 -0.2525  0.3373
   84MOL0     C10961   1.417   4.224   6.079 -0.3073  0.2043  0.8253
   84MOL0     C10962   1.431   4.166   6.204  0.2580  0.1330 -0.9307
   84MOL0     C10963   1.408   4.236   6.318  0.8617 -0.0695 -0.0885
   84MOL0     O10964   1.409   4.173   6.439 -0.6573 -0.4613 -0.0474
   84MOL0     C10965   1.287   4.143   6.495 -0.9682 -0.0886 -0.0913
   84MOL0     C10966   1.250   4.023   6.428  1.2768  0.2703 -0.2195
   84MOL0     C10967   1.125   3.948   6.474 -0.1087 -0.1317 -0.0230
   84MOL0     C10968   1.010   3.970   6.390  0.9796 -0.5456 -0.7348
   84MOL0     C10969   0.886   3.911   6.467  0.7138 -0.1215  0.3366
   84MOL0     C10970   0.763   3.932   6.375 -0.1806 -0.3480 -0.7544
   84MOL0     C10971   0.635   3.859   6.434 -0.2485 -0.1096  0.4382
   84MOL0     C10972   0.508   3.936   6.421 -0.0144 -0.1496 -0.8809
   84MOL0     N10973   0.452   3.937   6.280 -0.5450 -0.2365 -0.4220
   84MOL0     C10974   0.493   4.018   6.173  0.9744  0.0684  0.1950
   84MOL0     C10975   0.394   3.989   6.072 -0.0896 -1.5174 -0.2498
   84MOL0     C10976   0.400   4.057   5.936 -0.3687 -0.4367  0.3492
   84MOL0     C10977   0.505   3.993   5.847 -0.0460  1.1085  0.2133
   84MOL0     C10978   0.465   3.841   5.821  0.1281 -0.7861  0.7805
   84MOL0     C10979   0.578   3.789   5.729 -0.0602  0.2897 -0.1946
   84MOL0     O10980   0.536   3.819   5.596 -1.0575  0.5626 -0.6686
   84MOL0     C10981   0.633   3.851   5.500  0.0673 -0.2072  0.8001
   84MOL0     C10982   0.584   3.904   5.382 -0.5992  1.1540 -0.0249
   84MOL0     C10983   0.663   3.920   5.268 -0.1827 -0.2272 -0.7162
   84MOL0     C10984   0.806   3.892   5.284 -0.2940 -0.0358  0.3909
   84MOL0     C10985   0.899   3.889   5.164 -0.2070  0.2152 -0.4455
   84MOL0     O10986   0.854   3.939   5.046 -0.4231 -0.0014  0.2309
   84MOL0     C10987   0.942   3.954   4.944  0.1153 -0.0779 -1.3447
   84MOL0     C10988   0.893   3.915   4.819  0.2626  0.9632 -0.4395
   84MOL0     C10989   0.979   3.933   4.701 -0.1568 -0.4549  0.3437
   84MOL0     C10990   1.112   3.974   4.714  0.1187 -1.3478 -0.0364
   84MOL0     O10991   1.179   3.984   4.597  0.3042 -0.0317  0.1454
   84MOL0     C10992   1.311   4.040   4.582 -0.3317 -0.5240 -0.5108
   84MOL0     C10993   1.411   3.935   4.625 -0.0242 -0.2325  0.2035
   84MOL0     C10994   1.556   3.982   4.638 -0.4318  0.4326 -0.0194
   84MOL0     C10995   1.607   4.028   4.503  0.3670  0.1800 -0.7605
   84MOL0     C10996   1.761   4.033   4.505  0.4392 -0.3476 -0.3406
   84MOL0     C10997   1.834   3.896   4.496  0.3020  0.0437 -1.2287
   84MOL0     C10998   1.989   3.901   4.505  0.0979 -0.3852 -0.3032
   84MOL0     C10999   2.049   3.778   4.459  0.1474  0.5626 -0.3007
   84MOL0    Cl11000   2.224   3.775   4.425 -0.2891 -0.2861  0.2138
   84MOL0     C11001   1.148   4.018   4.844 -0.0881 -0.3868 -0.1787
   84MOL0     C11002   1.061   4.014   4.958 -0.1209  0.4871  0.3230
   84MOL0     O11003   1.005   3.824   5.176  0.0952 -0.5002 -0.5836
   84MOL0     C11004   0.862   3.868   5.413 -0.2400 -0.1379 -0.3534
   84MOL0     C11005   0.775   3.830   5.515 -0.6562 -0.2272 -0.4758
   84MOL0     N11006   0.320   3.889   6.120  0.3253  0.6534 -0.1127
   84MOL0     N11007   0.357   3.861   6.233 -0.4205 -0.0105 -0.2952
   84MOL0     C11008   1.365   4.370   6.310  1.0757  0.5020  0.0987
   84MOL0     C11009   1.359   4.439   6.185  0.2579  0.8427 -0.3566
   84MOL0     C11010   1.308   4.558   5.758  0.0177 -0.4551  0.0869
   84MOL0     C11011   1.242   4.668   5.703 -0.6428  0.0869 -0.9166
   84MOL0     C11012   1.263   4.703   5.562  1.0900  0.6803  0.0111
   84MOL0     C11013   1.350   4.626   5.482  0.2187  1.0633  1.0959
   84MOL0     O11014   1.377   4.674   5.355 -0.3377 -0.0748  0.5782
   84MOL0     C11015   1.510   4.651   5.298  0.0525 -0.3675 -0.0709
   84MOL0     C11016   1.573   4.766   5.206 -0.6437 -0.1785  1.0116
   84MOL0     C11017   1.587   4.886   5.300 -0.2286 -0.9248  0.4438
   84MOL0     C11018   1.618   5.018   5.231 -0.4263 -0.7714  0.2650
   84MOL0     C11019   1.764   5.022   5.189  0.2149  0.5910 -0.6275
   84MOL0     C11020   1.882   5.034   5.169 -0.1157  0.2839 -0.1927
   84MOL0     C11021   1.407   4.515   5.534 -0.4516 -0.2737 -0.3784
   84MOL0     C11022   1.385   4.483   5.665  0.3197  0.5065  0.6491
   84MOL0     H11023   1.426   4.166   5.988 -1.5803  1.8025 -0.3847
   84MOL0     H11024   1.475   4.069   6.225 -2.1270 -0.6239  1.0092
   84MOL0     H11025   1.206   4.215   6.477  1.1838  2.0012 -2.2314
   84MOL0     H11026   1.309   4.133   6.602  4.0269 -0.8896 -0.9436
   84MOL0     H11027   1.319   3.939   6.415 -0.0245 -0.6282 -1.6496
   84MOL0     H11028   1.221   4.057   6.328  1.8702 -1.2360 -0.9445
   84MOL0     H11029   1.097   3.987   6.572  1.8349  3.3358 -0.6717
   84MOL0     H11030   1.150   3.842   6.470  0.9640  0.1339 -1.0537
   84MOL0     H11031   0.992   4.077   6.385 -3.5642 -1.1657 -1.5011
   84MOL0     H11032   1.015   3.933   6.287 -2.1345  0.2497 -1.2650
   84MOL0     H11033   0.873   3.985   6.547  2.3115 -0.9483  1.4321
   84MOL0     H11034   0.894   3.806   6.496 -1.1565 -0.3346  0.2208
   84MOL0     H11035   0.785   3.886   6.278 -1.2797 -0.8471 -0.7749
   84MOL0     H11036   0.745   4.038   6.353  2.8647  0.6779  1.0786
   84MOL0     H11037   0.621   3.762   6.384 -2.3137  1.0950 -1.4567
   84MOL0     H11038   0.650   3.822   6.535 -0.7801 -1.2003  0.1386
   84MOL0     H11039   0.519   4.040   6.450 -0.7284 -0.0659 -0.8954
   84MOL0     H11040   0.437   3.883   6.486  1.3832 -1.6894 -0.5309
   84MOL0     H11041   0.569   4.096   6.173  1.9095 -0.6682 -3.5494
   84MOL0     H11042   0.435   4.161   5.937 -0.9591 -0.2353 -0.1375
   84MOL0     H11043   0.302   4.051   5.889  1.1431 -2.1006 -2.8963
   84MOL0     H11044   0.603   4.006   5.894  1.0157  0.1253 -1.6040
   84MOL0     H11045   0.503   4.048   5.753 -1.4455  1.7934  0.6286
   84MOL0     H11046   0.454   3.780   5.911 -1.6329 -1.9449 -0.1412
   84MOL0     H11047   0.372   3.839   5.762 -0.5233 -1.8115  1.7939
   84MOL0     H11048   0.588   3.681   5.744  1.4183 -0.0349 -2.9739
   84MOL0     H11049   0.673   3.834   5.761 -0.3377  1.4289 -0.9160
   84MOL0     H11050   0.482   3.932   5.361 -0.5702  0.2973 -1.4436
   84MOL0     H11051   0.630   3.942   5.168  0.8045 -2.7175 -1.6877
   84MOL0     H11052   0.794   3.869   4.822  0.4551  0.5394 -0.5260
   84MOL0     H11053   0.943   3.914   4.601 -1.0563  2.0908  0.1190
   84MOL0     H11054   1.329   4.133   4.637 -3.3616  0.0696 -0.3497
   84MOL0     H11055   1.327   4.076   4.480  2.9263 -1.5928 -0.4699
   84MOL0     H11056   1.404   3.851   4.555 -1.3994  1.3194 -1.6228
   84MOL0     H11057   1.375   3.905   4.724 -1.4345  0.5946 -0.0464
   84MOL0     H11058   1.609   3.891   4.670 -1.4577 -0.7047 -1.4131
   84MOL0     H11059   1.555   4.053   4.720 -3.2623 -1.1337  1.4493
   84MOL0     H11060   1.582   3.955   4.426 -1.6195  2.0871 -2.0538
   84MOL0     H11061   1.578   4.131   4.483  1.3387  0.2424 -1.9334
   84MOL0     H11062   1.786   4.088   4.596 -3.8276  1.7904 -0.2376
   84MOL0     H11063   1.787   4.099   4.421 -1.4299  1.2035  0.2162
   84MOL0     H11064   1.804   3.838   4.408  2.1406 -2.0242 -0.5882
   84MOL0     H11065   1.809   3.830   4.580  4.4511  0.3602  0.4677
   84MOL0     H11066   2.032   3.980   4.442  1.8877 -0.1343  1.1495
   84MOL0     H11067   1.997   3.929   4.610 -0.5586  3.6801 -1.1537
   84MOL0     H11068   2.003   3.731   4.372  3.0352 -1.1292 -1.0101
   84MOL0     H11069   2.020   3.711   4.541 -2.9551  0.0385 -1.6685
   84MOL0     H11070   1.249   4.057   4.853  0.4466 -1.4982 -1.0496
   84MOL0     H11071   1.084   4.066   5.051 -0.8982 -2.1552  2.0854
   84MOL0     H11072   0.970   3.858   5.412 -0.2036  0.2771 -0.4636
   84MOL0     H11073   0.810   3.787   5.608 -3.7073 -2.4945 -0.2073
   84MOL0     H11074   1.351   4.414   6.408 -1.1385 -3.1751  1.6396
   84MOL0     H11075   1.342   4.546   6.192 -1.2262  0.6437 -0.5138
   84MOL0     H11076   1.186   4.735   5.768 -0.1667  0.4828 -0.9046
   84MOL0     H11077   1.219   4.793   5.522 -0.2456 -0.0325 -0.1606
   84MOL0     H11078   1.508   4.565   5.230 -1.6103  2.1980 -3.5671
   84MOL0     H11079   1.584   4.645   5.378 -0.4754  0.2428  0.4723
   84MOL0     H11080   1.668   4.751   5.154  0.7157  1.5873  2.8302
   84MOL0     H11081   1.498   4.795   5.132 -0.1092  0.6799  0.7952
   84MOL0     H11082   1.659   4.892   5.383  0.1719  5.3849  0.1260
   84MOL0     H11083   1.488   4.908   5.343 -0.5820 -1.4430 -0.0969
   84MOL0     H11084   1.567   5.032   5.135  1.5629 -1.4917 -0.9573
   84MOL0     H11085   1.592   5.103   5.295  5.9925  0.6034  1.7764
   84MOL0     H11086   1.987   5.038   5.153 -0.3654 -0.4166 -2.3488
   84MOL0     H11087   1.472   4.463   5.465 -0.2498  1.9484 -1.9611
   84MOL0     H11088   1.438   4.401   5.711  0.4251 -0.0306 -0.3986
   85MOL0     O11089  10.400   2.573   7.744 -0.8928  0.2269  0.3374
   85MOL0     C11090  10.349   2.549   7.640  0.0078 -0.0773  0.9919
   85MOL0     O11091  10.270   2.640   7.571 -0.3045 -0.1468 -0.5527
   85MOL0     C11092  10.272   2.770   7.619  0.2141  0.5159 -0.1100
   85MOL0     C11093  10.175   2.805   7.712 -0.6411  0.3718  0.1280
   85MOL0     C11094  10.188   2.931   7.774  1.5989  0.0380 -0.0377
   85MOL0     C11095  10.301   3.014   7.749  0.4543 -0.3363  0.7643
   85MOL0     O11096  10.289   3.136   7.809  0.2377  1.0613 -0.5985
   85MOL0     C11097  10.361   3.245   7.765  0.9537 -0.4373  0.6758
   85MOL0     C11098  10.348   3.358   7.872  0.3611  0.0487 -0.9266
   85MOL0     C11099  10.409   3.500   7.835 -1.2918 -0.6815 -0.0142
   85MOL0     C11100  10.388   3.612   7.934  0.4723 -0.2037  0.4823
   85MOL0     C11101  10.491   3.729   7.926  0.3402 -0.0696  1.0673
   85MOL0     C11102  10.438   3.861   7.986 -0.5955 -0.6908  0.4327
   85MOL0     C11103  10.444   3.864   8.140 -0.2695  0.1591 -0.6895
   85MOL0     C11104  10.374   3.976   8.211 -0.8865 -0.1472  0.1500
   85MOL0     N11105  10.427   4.107   8.181  0.7990 -0.5087  0.4652
   85MOL0     C11106  10.534   4.168   8.227  0.4468  0.0323 -0.7388
   85MOL0     C11107  10.525   4.287   8.164  0.4234 -0.8876 -0.5948
   85MOL0     C11108  10.635   4.393   8.191  0.0080 -0.1854 -0.4579
   85MOL0     C11109  10.597   4.537   8.135 -0.1582 -1.0130  0.6878
   85MOL0     C11110  10.566   4.538   7.973 -0.1448 -0.5537 -0.4892
   85MOL0     C11111  10.670   4.471   7.885  0.4824 -0.0520 -0.0002
   85MOL0     O11112  10.806   4.494   7.937 -0.3813  0.1746  0.2759
   85MOL0     C11113  10.869   4.615   7.902  1.1365  0.2967  0.7549
   85MOL0     C11114  10.811   4.718   7.817 -0.5822  0.1734 -0.5563
   85MOL0     C11115  10.890   4.828   7.760  0.0191  0.7476 -1.0182
   85MOL0     C11116  11.020   4.841   7.818 -0.0603 -0.2139 -0.1571
   85MOL0     C11117  11.110   4.951   7.774  0.5671 -0.4958 -0.5305
   85MOL0     O11118  11.206   4.981   7.873 -0.2932  0.4999  0.5487
   85MOL0     C11119  11.313   5.058   7.825  0.0279  1.2943  0.5782
   85MOL0     C11120  11.407   5.010   7.740 -0.1026 -0.2264  1.4331
   85MOL0     C11121  11.507   5.104   7.692  0.6439 -0.2258  1.0917
   85MOL0     C11122  11.511   5.237   7.736  1.1285 -0.4269 -0.4422
   85MOL0     O11123  11.575   5.340   7.686  0.0953 -0.4665  0.6547
   85MOL0     C11124  11.665   5.325   7.568 -0.0857  0.5815 -0.0224
   85MOL0     C11125  11.804   5.274   7.602 -0.0979 -1.1129 -0.6760
   85MOL0     C11126  11.861   5.379   7.701  0.3540  0.0476 -1.0805
   85MOL0     C11127  12.016   5.330   7.727  1.1758 -0.2119  0.8394
   85MOL0     C11128  12.074   5.416   7.834 -0.1909 -0.1221 -0.0731
   85MOL0     C11129  12.217   5.457   7.807 -0.4331 -0.9021  0.3255
   85MOL0     C11130  12.301   5.335   7.821 -1.0059 -0.6586  0.2058
   85MOL0     C11131  12.442   5.382   7.783 -0.6067 -0.1441  0.2266
   85MOL0    Cl11132  12.449   5.441   7.612 -0.0973  0.3440  0.1320
   85MOL0     C11133  11.415   5.277   7.830  0.4196  0.0769  0.0425
   85MOL0     C11134  11.323   5.186   7.879 -0.7561  0.2575 -0.6155
   85MOL0     O11135  11.097   5.002   7.663  0.2686 -0.5098 -0.1241
   85MOL0     C11136  11.074   4.753   7.914 -0.3127  0.2916 -0.2562
   85MOL0     C11137  10.998   4.640   7.952  0.5252 -1.5368 -0.4055
   85MOL0     N11138  10.418   4.294   8.071  0.2419  0.0059 -0.0191
   85MOL0     N11139  10.352   4.187   8.097  0.6340 -0.3267  0.0438
   85MOL0     C11140  10.387   2.979   7.653 -0.4880  0.0109 -1.2959
   85MOL0     C11141  10.373   2.857   7.586 -0.0644  0.2371  0.5386
   85MOL0     C11142  10.388   2.428   7.574  0.2883  0.0268  0.3428
   85MOL0     C11143  10.338   2.404   7.445  1.0752  0.1112  0.1037
   85MOL0     C11144  10.385   2.301   7.362 -0.4358  1.2797 -0.1309
   85MOL0     C11145  10.463   2.198   7.420 -0.3266 -0.0052 -0.8531
   85MOL0     O11146  10.502   2.093   7.352 -0.8478 -0.0453  0.2229
   85MOL0     C11147  10.451   2.071   7.222  0.2170  0.1574 -0.8841
   85MOL0     C11148  10.477   1.932   7.190 -0.2000 -1.1080  0.5939
   85MOL0     C11149  10.368   1.837   7.245  0.4473  0.8619 -0.2509
   85MOL0     C11150  10.408   1.692   7.235 -0.0348  0.1699  0.7699
   85MOL0     C11151  10.482   1.648   7.352  0.5062  0.1596  0.4773
   85MOL0     C11152  10.547   1.625   7.446 -0.4135  0.1576 -0.1128
   85MOL0     C11153  10.502   2.212   7.553 -0.1833  0.9238  0.6613
   85MOL0     C11154  10.476   2.330   7.620  0.5633 -0.2501  0.4139
   85MOL0     H11155  10.097   2.732   7.730 -0.4797 -0.0089 -0.6893
   85MOL0     H11156  10.122   2.969   7.851  0.8465  0.5720 -0.9145
   85MOL0     H11157  10.318   3.276   7.669 -1.5543 -0.4867  1.7109
   85MOL0     H11158  10.464   3.220   7.738  1.3248  0.0345  1.6041
   85MOL0     H11159  10.396   3.309   7.957  1.9239  0.3065 -1.6309
   85MOL0     H11160  10.242   3.377   7.891  0.4185 -2.1730  2.5404
   85MOL0     H11161  10.379   3.542   7.738 -1.6315 -1.3796 -0.2167
   85MOL0     H11162  10.516   3.477   7.830 -1.0454 -0.2412  2.3274
   85MOL0     H11163  10.293   3.659   7.908  0.8154  0.2220 -0.0205
   85MOL0     H11164  10.381   3.559   8.029 -2.3262  0.4616  0.7318
   85MOL0     H11165  10.526   3.743   7.823 -0.8257 -0.1995  0.6389
   85MOL0     H11166  10.586   3.698   7.971  1.7886 -0.7151 -2.1569
   85MOL0     H11167  10.335   3.880   7.954 -1.7405 -2.7022  2.6233
   85MOL0     H11168  10.511   3.930   7.941 -1.2462 -1.3708 -1.7669
   85MOL0     H11169  10.393   3.772   8.171  0.7908  0.6271  2.9194
   85MOL0     H11170  10.547   3.859   8.178  0.5437  1.4558 -2.6076
   85MOL0     H11171  10.404   3.969   8.316 -0.0902  4.6982  0.5023
   85MOL0     H11172  10.266   3.960   8.205 -0.9922 -0.9385  2.7667
   85MOL0     H11173  10.602   4.125   8.300  2.4668  0.6549 -2.1561
   85MOL0     H11174  10.730   4.365   8.145  0.9492  0.8705  0.7773
   85MOL0     H11175  10.644   4.400   8.300  1.5927 -1.0548 -0.5046
   85MOL0     H11176  10.689   4.593   8.154 -1.3178  1.8900 -1.5297
   85MOL0     H11177  10.522   4.590   8.194 -0.2190  0.6974 -0.8401
   85MOL0     H11178  10.461   4.521   7.950 -0.5240 -0.2412  0.8991
   85MOL0     H11179  10.566   4.645   7.948  1.3146 -0.8217 -1.8098
   85MOL0     H11180  10.667   4.497   7.779 -1.5594  1.0255  0.2826
   85MOL0     H11181  10.644   4.365   7.881 -1.7066  0.4941 -2.0699
   85MOL0     H11182  10.706   4.726   7.792 -0.2367 -0.3829 -2.3951
   85MOL0     H11183  10.846   4.914   7.710 -1.0153  0.3624 -0.7920
   85MOL0     H11184  11.407   4.907   7.705 -1.5200 -0.1293  1.0886
   85MOL0     H11185  11.581   5.081   7.616 -0.1313  3.0427 -0.8436
   85MOL0     H11186  11.665   5.428   7.530 -1.5322  1.6333  2.5359
   85MOL0     H11187  11.619   5.258   7.494  1.7487 -2.1417  1.1599
   85MOL0     H11188  11.862   5.279   7.510  0.7054 -0.1026 -0.1303
   85MOL0     H11189  11.814   5.173   7.643 -1.7729 -0.7402  0.7603
   85MOL0     H11190  11.811   5.378   7.798 -0.7115 -0.3010 -1.6217
   85MOL0     H11191  11.841   5.476   7.655 -0.5848  0.1923 -0.3808
   85MOL0     H11192  12.020   5.222   7.744 -1.4728 -0.4363  0.4596
   85MOL0     H11193  12.065   5.335   7.629 -0.9759 -0.7685 -0.3367
   85MOL0     H11194  12.074   5.364   7.929  2.3283 -2.6434 -1.3069
   85MOL0     H11195  12.021   5.512   7.831 -0.4559 -0.2383  0.8341
   85MOL0     H11196  12.240   5.539   7.875 -2.1651 -1.9137  2.2363
   85MOL0     H11197  12.212   5.485   7.701  0.6681 -1.0497  0.2196
   85MOL0     H11198  12.275   5.305   7.923 -2.8149 -1.1515 -0.3521
   85MOL0     H11199  12.266   5.260   7.749  0.7878 -0.6284 -0.7460
   85MOL0     H11200  12.521   5.309   7.800  2.4005  2.7815 -0.1049
   85MOL0     H11201  12.470   5.474   7.835  2.9003  0.5216 -2.4132
   85MOL0     H11202  11.412   5.380   7.863  2.2717 -0.2561  1.4303
   85MOL0     H11203  11.266   5.222   7.964  0.5896 -0.4979  0.6531
   85MOL0     H11204  11.179   4.744   7.939 -0.0074  2.9311 -0.3292
   85MOL0     H11205  11.035   4.579   8.034  0.9036  0.2079  0.7831
   85MOL0     H11206  10.464   3.053   7.632 -0.6515  0.1429 -1.4370
   85MOL0     H11207  10.448   2.823   7.515  0.4546 -1.8818  1.9766
   85MOL0     H11208  10.278   2.479   7.394  1.8054  1.2866  0.9187
   85MOL0     H11209  10.371   2.302   7.255 -0.5110  3.6141 -0.1435
   85MOL0     H11210  10.504   2.141   7.157  2.4552 -0.9317 -0.3187
   85MOL0     H11211  10.345   2.096   7.214  0.0416 -0.5767 -1.0109
   85MOL0     H11212  10.496   1.917   7.083 -1.0448 -0.4849  0.3498
   85MOL0     H11213  10.570   1.911   7.244 -1.1393 -2.1795  1.8471
   85MOL0     H11214  10.272   1.854   7.197 -0.4063  1.4665  1.5841
   85MOL0     H11215  10.364   1.854   7.353 -0.9905  1.1035 -0.3336
   85MOL0     H11216  10.320   1.628   7.229 -1.7857  2.5488 -0.9346
   85MOL0     H11217  10.452   1.671   7.137 -1.0395 -0.4485  0.4375
   85MOL0     H11218  10.631   1.607   7.511  1.8618  0.5252 -2.7418
   85MOL0     H11219  10.557   2.139   7.612 -0.7607  1.3631  1.7744
   85MOL0     H11220  10.525   2.340   7.717 -0.0329  2.7744  0.4879
   86MOL0     O11221   0.137   0.473   3.850  0.4493  0.2089  0.1396
   86MOL0     C11222   0.171   0.398   3.757  0.2452  0.7418  0.4789
   86MOL0     O11223   0.215   0.440   3.635 -0.9310 -0.1542  0.7014
   86MOL0     C11224   0.247   0.577   3.628 -0.1689  0.2288 -0.9467
   86MOL0     C11225   0.154   0.660   3.582 -0.0613  0.5561 -0.3026
   86MOL0     C11226   0.191   0.787   3.543 -0.2241 -0.0753  0.1997
   86MOL0     C11227   0.320   0.838   3.576 -0.4172 -0.6045  0.3518
   86MOL0     O11228   0.365   0.962   3.572  1.0716 -0.5310  0.1334
   86MOL0     C11229   0.355   1.026   3.436 -0.1088 -0.6281 -0.3492
   86MOL0     C11230   0.389   1.170   3.445  0.4621  0.2313 -0.1519
   86MOL0     C11231   0.396   1.234   3.308 -0.0027  1.0123 -0.2083
   86MOL0     C11232   0.441   1.378   3.332  0.4227 -0.3807 -0.8812
   86MOL0     C11233   0.467   1.462   3.200  0.8660 -0.5758  0.1242
   86MOL0     C11234   0.519   1.599   3.245 -0.3211 -1.3498 -0.1796
   86MOL0     C11235   0.585   1.667   3.119 -0.8354  1.0614 -0.0933
   86MOL0     C11236   0.488   1.705   3.007  0.2610  0.2641  0.6678
   86MOL0     N11237   0.558   1.804   2.918 -0.9479  0.3468  0.5030
   86MOL0     C11238   0.607   1.921   2.954  0.2768 -0.3827 -0.3233
   86MOL0     C11239   0.655   1.976   2.842  0.1067 -0.6016  0.1679
   86MOL0     C11240   0.706   2.117   2.830 -0.3238 -0.8220  0.3214
   86MOL0     C11241   0.617   2.240   2.850  0.4686  0.6210  0.6576
   86MOL0     C11242   0.670   2.370   2.810  0.3042  0.0339 -0.1343
   86MOL0     C11243   0.608   2.507   2.851  0.5607 -0.0070 -0.8763
   86MOL0     O11244   0.704   2.605   2.804 -0.3435 -0.0446 -0.0461
   86MOL0     C11245   0.657   2.728   2.764 -0.2113 -0.5800  0.3600
   86MOL0     C11246   0.759   2.819   2.737 -0.1079 -0.0883 -0.5129
   86MOL0     C11247   0.739   2.953   2.704  0.0265  0.8562 -0.0636
   86MOL0     C11248   0.610   3.003   2.687  0.2690 -0.3886  0.4352
   86MOL0     C11249   0.594   3.146   2.639  0.1820  0.2497  0.2256
   86MOL0     O11250   0.698   3.193   2.563 -0.2055  0.0196 -0.0796
   86MOL0     C11251   0.696   3.302   2.488  0.5871 -0.0265 -0.7929
   86MOL0     C11252   0.767   3.286   2.363  0.2719  0.2266 -0.0435
   86MOL0     C11253   0.747   3.381   2.258  0.1635 -0.7397 -0.4851
   86MOL0     C11254   0.669   3.501   2.271  0.2142  0.3998  0.8087
   86MOL0     O11255   0.648   3.596   2.166  0.0344 -0.2905 -0.4382
   86MOL0     C11256   0.703   3.578   2.037  0.5246 -0.1974  0.2262
   86MOL0     C11257   0.681   3.704   1.963  0.5992 -1.6631  0.4504
   86MOL0     C11258   0.734   3.688   1.825  0.0000 -0.6671  0.0510
   86MOL0     C11259   0.676   3.796   1.735 -0.0015 -0.2960  0.7690
   86MOL0     C11260   0.728   3.775   1.597  1.8847  0.0333  0.7548
   86MOL0     C11261   0.645   3.658   1.534 -0.0837  0.1968  0.5262
   86MOL0     C11262   0.657   3.664   1.377  0.3846  0.2544 -0.6880
   86MOL0     C11263   0.613   3.540   1.306 -0.4833  0.2023 -0.2821
   86MOL0    Cl11264   0.438   3.537   1.331  0.0560  0.1246  0.2981
   86MOL0     C11265   0.614   3.512   2.401 -0.0977  0.3567 -0.3702
   86MOL0     C11266   0.614   3.414   2.503 -1.5202  0.0810  0.1720
   86MOL0     O11267   0.484   3.195   2.656 -0.9222 -0.1528 -0.0764
   86MOL0     C11268   0.508   2.915   2.721  1.0208  0.3576 -0.0836
   86MOL0     C11269   0.524   2.777   2.759 -0.1622  0.0454  0.3451
   86MOL0     N11270   0.617   1.907   2.733 -0.2206  0.2516  0.4779
   86MOL0     N11271   0.562   1.806   2.781  0.0263 -0.1230  0.1764
   86MOL0     C11272   0.414   0.751   3.638 -0.1674  0.7516  0.2035
   86MOL0     C11273   0.377   0.615   3.655  0.0250 -0.0035 -0.7065
   86MOL0     C11274   0.170   0.245   3.786 -0.9196 -0.2144 -0.0120
   86MOL0     C11275   0.202   0.189   3.919 -0.6849 -0.5914  0.6216
   86MOL0     C11276   0.189   0.054   3.937  0.2278  0.3950  0.0499
   86MOL0     C11277   0.178  -0.035   3.829  0.5649  0.5962  0.9554
   86MOL0     O11278   0.161  -0.168   3.854  0.2097 -0.0093 -0.6262
   86MOL0     C11279   0.025  -0.219   3.860  0.8053 -0.6017  0.0558
   86MOL0     C11280   0.045  -0.367   3.831 -0.2119 -0.8462  0.7411
   86MOL0     C11281   0.050  -0.454   3.958 -1.2207  0.2575 -0.2828
   86MOL0     C11282   0.189  -0.507   3.996 -0.6450  0.3390 -0.3456
   86MOL0     C11283   0.173  -0.588   4.119 -0.3870 -0.2473 -0.3936
   86MOL0     C11284   0.155  -0.641   4.229  0.2875 -0.1155 -0.3325
   86MOL0     C11285   0.161   0.017   3.700 -0.1338  0.8565  0.4913
   86MOL0     C11286   0.154   0.155   3.681 -0.2916  0.1964  0.4159
   86MOL0     H11287   0.060   0.616   3.548  2.1328 -1.3688 -4.7485
   86MOL0     H11288   0.109   0.851   3.512  1.7132  2.1017 -0.7202
   86MOL0     H11289   0.254   1.031   3.394 -0.0903  0.0180 -0.3363
   86MOL0     H11290   0.418   0.970   3.367  2.8955  1.0165  0.8735
   86MOL0     H11291   0.482   1.185   3.501  0.4068  3.6320 -0.7266
   86MOL0     H11292   0.313   1.223   3.503 -0.9421 -0.3099 -1.4545
   86MOL0     H11293   0.301   1.226   3.253  0.4130 -1.8795 -0.6770
   86MOL0     H11294   0.469   1.180   3.247 -1.8643 -0.0667 -1.5888
   86MOL0     H11295   0.356   1.425   3.382  2.1980  1.1503  0.8623
   86MOL0     H11296   0.527   1.384   3.399 -1.0015  3.2756  0.9094
   86MOL0     H11297   0.370   1.483   3.155  0.6653  2.7728  1.7935
   86MOL0     H11298   0.545   1.415   3.139 -1.4076 -1.5232 -2.2775
   86MOL0     H11299   0.597   1.584   3.320 -1.3170 -1.7829  0.8124
   86MOL0     H11300   0.440   1.652   3.300  0.3894  0.6752 -1.0077
   86MOL0     H11301   0.642   1.757   3.148  0.2347  0.5395 -0.5243
   86MOL0     H11302   0.653   1.596   3.073 -1.5037  1.0283 -1.0680
   86MOL0     H11303   0.396   1.754   3.041 -1.0316 -1.2788 -0.4227
   86MOL0     H11304   0.458   1.617   2.949 -0.7819  0.3951  0.9913
   86MOL0     H11305   0.601   1.976   3.048 -2.7930 -2.5638  0.9472
   86MOL0     H11306   0.745   2.125   2.728  3.3392  2.1272  1.7547
   86MOL0     H11307   0.795   2.124   2.893  0.4734 -0.7255 -0.7870
   86MOL0     H11308   0.608   2.248   2.959 -1.5956  2.2849  0.4300
   86MOL0     H11309   0.529   2.219   2.788  1.9067  1.6555 -1.9035
   86MOL0     H11310   0.773   2.368   2.845  0.5184 -0.5258 -0.8014
   86MOL0     H11311   0.686   2.387   2.703 -2.1248  2.5719 -0.2316
   86MOL0     H11312   0.585   2.507   2.958  3.2793 -2.2255 -0.1712
   86MOL0     H11313   0.509   2.527   2.809 -0.5601  1.7567  2.2927
   86MOL0     H11314   0.861   2.783   2.738 -0.8693 -2.4481 -0.3444
   86MOL0     H11315   0.833   3.005   2.691  1.1337 -0.3856  2.3632
   86MOL0     H11316   0.834   3.203   2.346  0.6884  0.1856  1.6208
   86MOL0     H11317   0.808   3.359   2.170  1.2870  2.6188 -0.7183
   86MOL0     H11318   0.655   3.496   1.983 -0.8512  2.6860 -3.3081
   86MOL0     H11319   0.809   3.556   2.050  0.2191 -1.3578  0.9377
   86MOL0     H11320   0.736   3.791   2.001  0.2376 -0.6165 -1.2650
   86MOL0     H11321   0.574   3.725   1.959  0.8917 -0.0850  0.0634
   86MOL0     H11322   0.712   3.589   1.785  4.3881 -1.0813 -1.8493
   86MOL0     H11323   0.842   3.706   1.826 -0.0466 -0.3807  0.3724
   86MOL0     H11324   0.567   3.805   1.737  0.0242  1.4225 -1.8215
   86MOL0     H11325   0.707   3.894   1.771  0.8945 -0.0455 -0.6214
   86MOL0     H11326   0.836   3.759   1.588  1.3222 -3.9236 -1.1488
   86MOL0     H11327   0.703   3.868   1.546 -0.3195 -1.3280 -0.8109
   86MOL0     H11328   0.538   3.653   1.556 -0.1754 -1.0647 -0.1347
   86MOL0     H11329   0.687   3.562   1.568  2.5358  0.4117 -1.7880
   86MOL0     H11330   0.617   3.755   1.333  1.2925  3.0017  3.5345
   86MOL0     H11331   0.765   3.664   1.358  0.5591  1.2734  0.1902
   86MOL0     H11332   0.665   3.457   1.355 -0.3121  1.1438  1.2007
   86MOL0     H11333   0.631   3.539   1.198 -1.0417 -0.9322 -0.3801
   86MOL0     H11334   0.549   3.598   2.414  0.8213  1.1255 -0.6866
   86MOL0     H11335   0.554   3.419   2.593 -1.2382  3.0315  0.2831
   86MOL0     H11336   0.409   2.957   2.715  1.0275  0.5178  0.8531
   86MOL0     H11337   0.432   2.721   2.765 -1.2815  1.6172 -1.0601
   86MOL0     H11338   0.513   0.791   3.660 -0.0035 -0.2870  1.5222
   86MOL0     H11339   0.448   0.541   3.692  0.8746  1.9296  1.8624
   86MOL0     H11340   0.208   0.256   4.004 -0.4715  1.8738 -1.2292
   86MOL0     H11341   0.189   0.014   4.039  0.1110  0.4239  0.0609
   86MOL0     H11342  -0.043  -0.165   3.795  0.3925 -0.3550  0.6789
   86MOL0     H11343  -0.030  -0.196   3.952  2.8023  1.5675  0.8107
   86MOL0     H11344  -0.037  -0.401   3.767  0.0039  1.9080 -1.1336
   86MOL0     H11345   0.133  -0.365   3.766  0.6889  0.8586  1.9524
   86MOL0     H11346  -0.013  -0.542   3.944  0.2238 -0.6753 -1.2167
   86MOL0     H11347   0.011  -0.391   4.039  1.4519 -0.9180  2.1167
   86MOL0     H11348   0.247  -0.566   3.925  0.5172 -0.8794  1.5266
   86MOL0     H11349   0.247  -0.417   4.018  0.5229  0.1227 -2.3065
   86MOL0     H11350   0.130  -0.693   4.319  1.8888  0.2508  0.3420
   86MOL0     H11351   0.145  -0.041   3.610 -1.4618 -0.0670  1.2723
   86MOL0     H11352   0.159   0.177   3.574  0.1676 -4.7377 -0.8030
   87MOL0     O11353   6.141   0.293   7.375 -0.4447  0.1946  1.0237
   87MOL0     C11354   6.086   0.402   7.368  0.9742 -0.3490  0.6000
   87MOL0     O11355   5.977   0.437   7.287  0.4470  0.2368 -0.8895
   87MOL0     C11356   5.916   0.337   7.221 -1.3861 -1.3806  0.7536
   87MOL0     C11357   5.867   0.224   7.278 -0.1320 -0.2559 -0.2737
   87MOL0     C11358   5.796   0.132   7.204 -0.2623  0.4677 -0.4048
   87MOL0     C11359   5.778   0.156   7.068  0.2792  0.0888  0.2087
   87MOL0     O11360   5.717   0.054   6.994  0.5499 -0.0964  0.5039
   87MOL0     C11361   5.648   0.094   6.877 -0.0559  0.3826  0.9238
   87MOL0     C11362   5.531   0.010   6.879  0.1697 -0.1594  0.0295
   87MOL0     C11363   5.432   0.053   6.778  0.2575 -0.2541  1.1906
   87MOL0     C11364   5.494   0.003   6.630  0.9304  0.0595 -0.2079
   87MOL0     C11365   5.541   0.124   6.539 -0.4383 -0.0237 -0.2278
   87MOL0     C11366   5.593   0.086   6.398  0.6746 -0.0090  0.4762
   87MOL0     C11367   5.583   0.194   6.295 -0.3707 -0.4226 -0.7014
   87MOL0     C11368   5.620   0.146   6.154  0.4489  0.1117 -0.6430
   87MOL0     N11369   5.768   0.106   6.145  0.5811 -0.3768 -0.6420
   87MOL0     C11370   5.864   0.195   6.125 -0.0085  1.0993 -0.2068
   87MOL0     C11371   5.980   0.117   6.109  0.1651  0.1338  1.1292
   87MOL0     C11372   6.099   0.175   6.029  0.0825 -0.6596  0.5155
   87MOL0     C11373   6.220   0.194   6.121  0.0373 -0.3295 -0.2846
   87MOL0     C11374   6.318   0.070   6.117  0.4373  0.9508 -0.1219
   87MOL0     C11375   6.436   0.069   6.222  0.1886  0.2799  0.6901
   87MOL0     O11376   6.386   0.024   6.354  0.0236  0.2252 -0.3876
   87MOL0     C11377   6.458   0.025   6.473  1.0216  0.2552  0.4973
   87MOL0     C11378   6.393  -0.029   6.576  0.7291  0.3580 -1.0633
   87MOL0     C11379   6.453  -0.069   6.696  0.1498  0.2153 -0.3189
   87MOL0     C11380   6.583  -0.032   6.718 -0.0022 -0.1854 -0.2582
   87MOL0     C11381   6.654  -0.051   6.844  0.1454  0.2036 -0.3716
   87MOL0     O11382   6.781  -0.008   6.863 -1.1653  0.4464 -0.0314
   87MOL0     C11383   6.840  -0.044   6.985 -0.1418  0.3039  0.0665
   87MOL0     C11384   6.927  -0.140   6.992  0.7102 -0.2982  0.1078
   87MOL0     C11385   6.998  -0.179   7.111  0.8483 -0.5790  1.3395
   87MOL0     C11386   6.968  -0.120   7.235 -0.6783 -0.1757 -0.5188
   87MOL0     O11387   7.014  -0.148   7.361  0.0584  0.0165 -0.1592
   87MOL0     C11388   7.120  -0.246   7.363 -0.2945  0.0174 -0.1205
   87MOL0     C11389   7.184  -0.233   7.489  1.0797  0.4834 -0.5232
   87MOL0     C11390   7.294  -0.117   7.496  0.3497 -0.0737 -0.4356
   87MOL0     C11391   7.401  -0.128   7.604 -0.1414 -1.1623  0.6302
   87MOL0     C11392   7.353  -0.096   7.753 -0.4537  0.5521  0.5281
   87MOL0     C11393   7.429   0.038   7.801 -0.0185  0.6887  1.0622
   87MOL0     C11394   7.579   0.011   7.836  0.0959 -0.1756  0.4937
   87MOL0     C11395   7.614  -0.087   7.949 -0.7375 -0.7275  1.0395
   87MOL0    Cl11396   7.567  -0.003   8.098 -0.0817 -0.1084 -0.3406
   87MOL0     C11397   6.885  -0.009   7.226 -0.2074  0.1398 -0.1533
   87MOL0     C11398   6.834   0.034   7.103  1.3701  0.2261  0.5970
   87MOL0     O11399   6.577  -0.088   6.934  0.1882 -0.5946 -0.1396
   87MOL0     C11400   6.650   0.026   6.615 -0.4307  0.5303  0.4118
   87MOL0     C11401   6.585   0.058   6.496 -0.3067  0.0676  0.0924
   87MOL0     N11402   5.949  -0.016   6.122 -0.0104 -0.7343  0.0114
   87MOL0     N11403   5.816  -0.024   6.147 -1.0041  0.1674  0.7277
   87MOL0     C11404   5.832   0.274   7.010  0.0002 -0.0078 -0.5138
   87MOL0     C11405   5.900   0.371   7.082  0.5157  0.0163 -0.3635
   87MOL0     C11406   6.132   0.508   7.462 -0.5976  0.2483  0.2084
   87MOL0     C11407   6.076   0.637   7.450 -0.4701 -0.3743  0.3446
   87MOL0     C11408   6.106   0.739   7.549 -0.1863  0.6564  0.0047
   87MOL0     C11409   6.193   0.716   7.660 -1.1199 -0.1361 -0.8723
   87MOL0     O11410   6.237   0.819   7.738 -0.4349 -1.3369  0.4896
   87MOL0     C11411   6.321   0.794   7.851 -0.1439 -1.2182  0.6805
   87MOL0     C11412   6.312   0.926   7.930 -0.1540 -0.5111  0.7811
   87MOL0     C11413   6.169   0.962   7.978  0.3219 -0.2833 -0.0449
   87MOL0     C11414   6.167   1.028   8.123  0.1225 -0.2027  0.1915
   87MOL0     C11415   6.254   1.147   8.132 -0.7162  0.1939  0.3791
   87MOL0     C11416   6.342   1.230   8.172 -0.1568  0.1162 -0.4980
   87MOL0     C11417   6.261   0.590   7.655  0.1407  0.0851 -0.0988
   87MOL0     C11418   6.231   0.485   7.561  0.7195  0.7182 -0.2065
   87MOL0     H11419   5.863   0.219   7.386 -0.1905  0.3713 -0.2468
   87MOL0     H11420   5.743   0.051   7.255  2.6979 -0.9491  0.6782
   87MOL0     H11421   5.706   0.089   6.785 -0.4948  1.4798  0.5665
   87MOL0     H11422   5.609   0.195   6.891 -1.5323 -0.2450  1.5814
   87MOL0     H11423   5.496   0.034   6.980  2.2886  1.6932  0.4060
   87MOL0     H11424   5.538  -0.099   6.866 -1.7582 -0.0137 -3.2269
   87MOL0     H11425   5.407   0.159   6.778 -1.8690 -0.6684 -0.4419
   87MOL0     H11426   5.336   0.004   6.798  0.4990 -2.0920 -1.4464
   87MOL0     H11427   5.573  -0.072   6.642  1.2581  0.6468  1.5100
   87MOL0     H11428   5.413  -0.060   6.592  2.7840 -5.1273  3.2681
   87MOL0     H11429   5.629   0.172   6.583 -0.0197  0.2583 -1.3356
   87MOL0     H11430   5.457   0.193   6.539 -1.3195 -0.8594  3.7949
   87MOL0     H11431   5.530   0.003   6.365 -0.6365 -0.2977  3.3771
   87MOL0     H11432   5.698   0.057   6.403  1.4615  2.6673  1.0163
   87MOL0     H11433   5.485   0.241   6.286 -2.0990 -2.9655  2.5799
   87MOL0     H11434   5.655   0.270   6.328  0.4081 -0.9783 -1.0903
   87MOL0     H11435   5.605   0.230   6.086 -3.3510  0.6897  0.6762
   87MOL0     H11436   5.559   0.065   6.113  0.2545 -1.1115  1.8680
   87MOL0     H11437   5.858   0.304   6.121  2.4380  1.6971  4.3251
   87MOL0     H11438   6.072   0.268   5.979 -1.4678 -1.0957  0.4785
   87MOL0     H11439   6.125   0.102   5.952  1.8485  0.9321 -0.4868
   87MOL0     H11440   6.192   0.219   6.223 -1.7652  1.9590 -1.2354
   87MOL0     H11441   6.274   0.284   6.088 -0.9939 -0.4664 -2.5379
   87MOL0     H11442   6.268  -0.026   6.136  2.2637 -0.8968 -3.7029
   87MOL0     H11443   6.368   0.074   6.020 -0.9530 -3.6822 -1.2928
   87MOL0     H11444   6.494   0.162   6.216  0.4002  0.0929 -0.4243
   87MOL0     H11445   6.498  -0.004   6.170  0.0883  1.8753 -1.8535
   87MOL0     H11446   6.287  -0.049   6.566  0.5238  1.8574 -2.2776
   87MOL0     H11447   6.398  -0.111   6.779  1.7541  1.0188  1.2248
   87MOL0     H11448   6.956  -0.181   6.896 -0.5984  2.3345 -1.5164
   87MOL0     H11449   7.065  -0.262   7.090  0.3201 -0.7989  0.4830
   87MOL0     H11450   7.194  -0.250   7.283  0.1865 -1.8336  0.3788
   87MOL0     H11451   7.069  -0.343   7.363  1.0899 -0.7568 -1.4531
   87MOL0     H11452   7.247  -0.321   7.508  1.4608  1.0991  1.2146
   87MOL0     H11453   7.113  -0.228   7.572  1.4657  0.1633 -0.1653
   87MOL0     H11454   7.254  -0.018   7.521  0.1347  0.2762 -2.0440
   87MOL0     H11455   7.333  -0.105   7.395  0.5801  4.1716 -0.0497
   87MOL0     H11456   7.448  -0.227   7.598 -1.1490 -1.6812  1.0709
   87MOL0     H11457   7.479  -0.053   7.586 -0.7040 -0.4234  1.2359
   87MOL0     H11458   7.363  -0.177   7.826 -0.3918  0.6188  0.5926
   87MOL0     H11459   7.247  -0.075   7.740 -0.2249  1.0238 -0.7350
   87MOL0     H11460   7.388   0.075   7.896 -1.4542  1.6320  0.1114
   87MOL0     H11461   7.431   0.111   7.720  0.5276 -1.1722 -0.6752
   87MOL0     H11462   7.629  -0.007   7.740 -0.0106  1.7237  0.0508
   87MOL0     H11463   7.624   0.108   7.859  0.8810 -0.2081 -0.7923
   87MOL0     H11464   7.723  -0.090   7.966 -0.2351  0.8937 -1.3738
   87MOL0     H11465   7.570  -0.186   7.935 -3.9704  0.6650  0.6695
   87MOL0     H11466   6.850   0.030   7.321 -0.5596  1.4355 -0.8030
   87MOL0     H11467   6.750   0.102   7.095 -0.1550 -1.3219  2.5592
   87MOL0     H11468   6.753   0.056   6.628 -0.1341 -0.3555  0.1398
   87MOL0     H11469   6.638   0.107   6.415 -0.2920 -1.6243 -0.9864
   87MOL0     H11470   5.832   0.272   6.902  0.6687 -2.2804 -0.5105
   87MOL0     H11471   5.952   0.455   7.037 -1.5741  1.2577 -0.5417
   87MOL0     H11472   6.012   0.658   7.365 -0.0640 -0.2661  0.0632
   87MOL0     H11473   6.056   0.831   7.520 -2.0706  1.1568  4.2313
   87MOL0     H11474   6.429   0.784   7.831  0.2094 -2.9767  2.9923
   87MOL0     H11475   6.295   0.701   7.901 -0.9063 -1.6806 -0.5428
   87MOL0     H11476   6.374   0.913   8.019  2.5412 -1.5548 -1.1249
   87MOL0     H11477   6.344   1.015   7.874  1.5258 -1.3477  0.3668
   87MOL0     H11478   6.099   0.878   7.980  0.5746 -0.6048 -2.4271
   87MOL0     H11479   6.129   1.039   7.911  0.3400  0.4881  0.7969
   87MOL0     H11480   6.067   1.056   8.156 -0.5360 -2.1623 -0.0134
   87MOL0     H11481   6.205   0.953   8.194  0.3513 -2.9794 -2.6344
   87MOL0     H11482   6.418   1.302   8.193  3.6682 -3.6612 -0.0290
   87MOL0     H11483   6.350   0.581   7.717  0.9119  3.5344 -0.5114
   87MOL0     H11484   6.276   0.386   7.567  1.0879  0.9314  0.6463
   88MOL0     O11485   7.494   7.781   7.590  0.2664 -0.7243 -0.2081
   88MOL0     C11486   7.610   7.829   7.575  0.1011  0.4630  0.3093
   88MOL0     O11487   7.643   7.958   7.537  0.2997 -0.3914  0.5781
   88MOL0     C11488   7.551   8.035   7.470  0.8002  0.3247 -0.4262
   88MOL0     C11489   7.452   7.990   7.375  0.4480 -0.8021 -0.0888
   88MOL0     C11490   7.370   8.079   7.304 -0.2590  0.3145  0.7286
   88MOL0     C11491   7.362   8.214   7.334  0.7912 -0.5334  0.2702
   88MOL0     O11492   7.272   8.286   7.260 -0.4790 -0.1197 -0.9187
   88MOL0     C11493   7.197   8.385   7.344  0.5415 -0.2427 -0.1774
   88MOL0     C11494   7.117   8.342   7.464 -1.1328 -0.4401  0.3853
   88MOL0     C11495   7.025   8.442   7.528  0.2659 -0.2468 -0.0978
   88MOL0     C11496   7.021   8.418   7.688 -0.2935  0.3012  0.6777
   88MOL0     C11497   6.914   8.507   7.753 -0.6584  0.0717 -0.6589
   88MOL0     C11498   6.910   8.492   7.900  0.4744  1.1060 -0.1505
   88MOL0     C11499   6.867   8.613   7.973 -0.2267  0.7429  0.0528
   88MOL0     C11500   6.722   8.626   7.954  0.3155 -0.3545  0.1524
   88MOL0     N11501   6.660   8.737   8.033 -0.2455  0.5192 -0.2426
   88MOL0     C11502   6.603   8.727   8.164  0.3970  0.4113  0.2521
   88MOL0     C11503   6.553   8.844   8.193  0.7182  0.1378 -0.7165
   88MOL0     C11504   6.466   8.893   8.309 -0.0333  1.1792  0.0045
   88MOL0     C11505   6.324   8.841   8.316 -0.1954 -0.0155 -0.2320
   88MOL0     C11506   6.264   8.929   8.428  0.3960  0.7124  0.1778
   88MOL0     C11507   6.127   8.873   8.469  1.0465  1.0361  0.8126
   88MOL0     O11508   6.156   8.755   8.553 -0.8088  0.1758 -0.7751
   88MOL0     C11509   6.055   8.703   8.636 -0.2682 -0.0675 -0.0782
   88MOL0     C11510   5.925   8.760   8.660  0.3330  0.4756 -0.0150
   88MOL0     C11511   5.838   8.705   8.755  0.5270  0.4704  0.6164
   88MOL0     C11512   5.880   8.603   8.837 -0.1410  0.4313 -1.1000
   88MOL0     C11513   5.791   8.564   8.942 -0.2488  0.2000 -1.0890
   88MOL0     O11514   5.656   8.538   8.916 -0.4222  0.1714 -0.3026
   88MOL0     C11515   5.578   8.510   9.029 -0.3966  0.9548  1.0373
   88MOL0     C11516   5.495   8.603   9.099 -0.4302 -0.2409  0.3354
   88MOL0     C11517   5.417   8.566   9.203  0.0874  0.7668  0.8507
   88MOL0     C11518   5.407   8.423   9.222 -0.0645  0.2672 -0.3773
   88MOL0     O11519   5.342   8.356   9.326  0.1952 -0.5671 -0.5397
   88MOL0     C11520   5.247   8.433   9.405 -0.1799 -0.2706 -0.3697
   88MOL0     C11521   5.195   8.349   9.518  0.0630  0.0828  0.5982
   88MOL0     C11522   5.303   8.308   9.618 -0.5996 -0.1511  0.1100
   88MOL0     C11523   5.252   8.183   9.691  0.0080 -0.6312 -0.0468
   88MOL0     C11524   5.333   8.150   9.820  0.0083  0.3687 -0.1850
   88MOL0     C11525   5.472   8.076   9.810 -0.1864 -0.0346  0.3247
   88MOL0     C11526   5.547   8.055   9.949 -0.6199 -0.4171  0.7386
   88MOL0     C11527   5.643   7.936   9.928  0.4454 -0.3531  0.6270
   88MOL0    Cl11528   5.561   7.782   9.870  0.7224 -0.1423 -0.5036
   88MOL0     C11529   5.469   8.342   9.138  0.4869  0.7911  0.5768
   88MOL0     C11530   5.574   8.370   9.048  0.9148 -0.8562 -0.6675
   88MOL0     O11531   5.851   8.537   9.049 -0.1387  0.5352  0.3857
   88MOL0     C11532   6.006   8.543   8.822  0.3185  0.1273 -0.2317
   88MOL0     C11533   6.082   8.589   8.712 -0.5147 -1.6227 -0.4593
   88MOL0     N11534   6.570   8.924   8.080  0.3949 -0.4162  0.0981
   88MOL0     N11535   6.639   8.856   7.987 -0.1036  0.6911 -0.2820
   88MOL0     C11536   7.453   8.264   7.433 -0.4344  0.7326 -0.5713
   88MOL0     C11537   7.550   8.181   7.493  0.3267  0.2245  0.0470
   88MOL0     C11538   7.735   7.739   7.599  0.3908 -0.0983 -0.7723
   88MOL0     C11539   7.714   7.616   7.654  0.1351 -0.2754  1.0235
   88MOL0     C11540   7.819   7.529   7.672 -0.2260 -0.7305 -0.3027
   88MOL0     C11541   7.950   7.569   7.661  0.0045  0.2337  0.5288
   88MOL0     O11542   8.041   7.475   7.700 -0.1337 -0.4477  0.1865
   88MOL0     C11543   8.157   7.527   7.773 -0.9033  0.0975  0.3859
   88MOL0     C11544   8.217   7.410   7.863  0.5545 -0.3224  0.5637
   88MOL0     C11545   8.360   7.441   7.918 -0.6524 -0.0203  0.9841
   88MOL0     C11546   8.423   7.342   8.019 -0.0003 -1.0128  0.4999
   88MOL0     C11547   8.443   7.210   7.959  0.6709 -0.8976 -0.0007
   88MOL0     C11548   8.448   7.114   7.892  0.5572  0.6945 -0.1854
   88MOL0     C11549   7.976   7.698   7.601 -0.1493  0.6574  0.1237
   88MOL0     C11550   7.870   7.774   7.569  1.0162  0.5095 -0.1502
   88MOL0     H11551   7.438   7.884   7.359 -1.4718 -0.6249  0.1660
   88MOL0     H11552   7.304   8.026   7.236 -0.7414  2.4822 -0.5848
   88MOL0     H11553   7.123   8.425   7.274 -0.5404 -3.0165 -0.7418
   88MOL0     H11554   7.263   8.468   7.371  0.5355  0.5450 -2.3764
   88MOL0     H11555   7.191   8.319   7.541 -1.6042 -3.4449  0.0318
   88MOL0     H11556   7.069   8.247   7.438 -0.1945 -0.9456  0.4540
   88MOL0     H11557   6.922   8.429   7.491  0.7460  0.9336 -1.9672
   88MOL0     H11558   7.052   8.545   7.506 -2.2890  0.1633 -1.7471
   88MOL0     H11559   6.994   8.314   7.705  1.4323 -0.0195  1.6622
   88MOL0     H11560   7.119   8.436   7.732 -1.0466  0.9105  2.2008
   88MOL0     H11561   6.824   8.466   7.706 -0.3679 -1.5173  0.1057
   88MOL0     H11562   6.937   8.605   7.709  1.8795 -0.2034 -0.0958
   88MOL0     H11563   7.011   8.467   7.931 -0.1789 -1.7110  0.0473
   88MOL0     H11564   6.853   8.400   7.919  1.2966  0.4629 -0.7086
   88MOL0     H11565   6.898   8.600   8.077  1.8310  1.4344 -0.4171
   88MOL0     H11566   6.917   8.707   7.950  5.5228 -2.0755 -0.7890
   88MOL0     H11567   6.665   8.535   7.975  0.1040 -0.5656 -1.2107
   88MOL0     H11568   6.698   8.649   7.849  2.7686 -0.4462 -0.4858
   88MOL0     H11569   6.606   8.641   8.230  0.1833  0.7173  0.6654
   88MOL0     H11570   6.452   8.998   8.282  0.8678  1.0930 -0.8284
   88MOL0     H11571   6.525   8.893   8.401  3.7397 -1.7000 -2.1713
   88MOL0     H11572   6.337   8.735   8.341  2.8575  0.6105  1.2271
   88MOL0     H11573   6.275   8.832   8.218 -0.3983  2.0392 -0.3600
   88MOL0     H11574   6.331   8.935   8.513  0.7395 -4.1528  0.5350
   88MOL0     H11575   6.257   9.033   8.395  0.2693  0.7961  0.4663
   88MOL0     H11576   6.073   8.832   8.383  2.0370 -0.7228  0.9746
   88MOL0     H11577   6.053   8.937   8.519 -5.2324 -4.0344 -0.5638
   88MOL0     H11578   5.891   8.835   8.588 -0.0812 -0.2386 -0.5905
   88MOL0     H11579   5.742   8.752   8.774 -1.5574 -1.5464 -3.5391
   88MOL0     H11580   5.488   8.706   9.067  1.7840 -0.8292 -2.4835
   88MOL0     H11581   5.357   8.638   9.259 -2.5733  0.5566 -1.4659
   88MOL0     H11582   5.165   8.465   9.339 -0.9613  0.1314  0.7662
   88MOL0     H11583   5.282   8.529   9.445 -3.8584  0.4667  1.4861
   88MOL0     H11584   5.144   8.261   9.477  0.2873  0.5146 -0.6827
   88MOL0     H11585   5.122   8.408   9.574 -2.8069  0.0521 -2.7467
   88MOL0     H11586   5.318   8.394   9.684  3.1089  2.9578 -4.1377
   88MOL0     H11587   5.398   8.279   9.572  0.6152 -0.4388  2.6217
   88MOL0     H11588   5.148   8.194   9.724 -0.2761 -1.5692 -0.6065
   88MOL0     H11589   5.247   8.098   9.623 -4.5691 -1.9075  1.5016
   88MOL0     H11590   5.274   8.079   9.879  2.4695 -1.5641  0.1186
   88MOL0     H11591   5.349   8.244   9.873  2.1938  0.9327 -1.7237
   88MOL0     H11592   5.530   8.136   9.739  1.2007 -0.0947  1.3466
   88MOL0     H11593   5.444   7.980   9.767 -1.2798 -0.1197  1.1715
   88MOL0     H11594   5.595   8.146   9.986 -2.6736  0.0520  2.4577
   88MOL0     H11595   5.467   8.027  10.018 -0.1409  0.5892  1.7337
   88MOL0     H11596   5.691   7.917  10.025  5.4175 -1.9101 -1.7608
   88MOL0     H11597   5.718   7.939   9.849 -0.9247 -3.5499 -1.0068
   88MOL0     H11598   5.447   8.238   9.160  2.0334  0.7455  2.1218
   88MOL0     H11599   5.635   8.301   8.990  1.0637  0.0307 -1.5884
   88MOL0     H11600   6.038   8.468   8.893  3.2847  2.2549  0.8602
   88MOL0     H11601   6.183   8.550   8.698  1.2207  1.0826  2.9114
   88MOL0     H11602   7.454   8.371   7.450  2.2872  0.7573 -0.5832
   88MOL0     H11603   7.622   8.223   7.562 -0.4082 -0.8879  1.5428
   88MOL0     H11604   7.611   7.584   7.660  0.3861 -1.5849 -0.6801
   88MOL0     H11605   7.795   7.433   7.717 -4.0742  1.4767  3.0451
   88MOL0     H11606   8.123   7.606   7.841 -2.1090 -0.1761  0.1207
   88MOL0     H11607   8.233   7.568   7.707 -1.8460  0.6312 -0.3898
   88MOL0     H11608   8.146   7.395   7.946 -0.3050  1.5647  0.2273
   88MOL0     H11609   8.228   7.322   7.801  2.9363  0.5898 -0.4316
   88MOL0     H11610   8.352   7.530   7.980  1.6809 -1.5752  3.7907
   88MOL0     H11611   8.427   7.468   7.835 -1.2192  2.0121  1.1307
   88MOL0     H11612   8.515   7.383   8.061  0.0259 -0.6348  0.0797
   88MOL0     H11613   8.349   7.328   8.098 -1.7601  0.7575 -0.7533
   88MOL0     H11614   8.453   7.013   7.855 -1.1566 -0.3970  2.1871
   88MOL0     H11615   8.081   7.721   7.586  0.7237 -2.9407 -0.1489
   88MOL0     H11616   7.876   7.866   7.511 -1.6210  2.5411  2.4602
   89MOL0     O11617   0.599   4.487   3.453  0.1252  0.7034  0.1358
   89MOL0     C11618   0.587   4.514   3.330  0.2733  0.2348  0.2061
   89MOL0     O11619   0.590   4.638   3.280  0.2961  0.2389  0.5491
   89MOL0     C11620   0.619   4.739   3.364  0.0901 -1.2064 -0.4600
   89MOL0     C11621   0.741   4.735   3.432  0.3762 -0.7058  1.2272
   89MOL0     C11622   0.762   4.839   3.525  0.0599  0.1143  0.2617
   89MOL0     C11623   0.675   4.948   3.536 -0.7200  0.1737  0.7126
   89MOL0     O11624   0.700   5.041   3.632 -0.4809 -0.0782 -0.7081
   89MOL0     C11625   0.613   5.012   3.745  0.2718  0.6733  0.2045
   89MOL0     C11626   0.671   5.076   3.870 -0.0482 -0.2791 -1.3525
   89MOL0     C11627   0.825   5.077   3.874 -0.9406 -0.8821 -0.2957
   89MOL0     C11628   0.874   5.142   4.007  0.1543 -0.7059  0.1162
   89MOL0     C11629   1.021   5.135   4.046 -0.8431 -0.4244  0.0954
   89MOL0     C11630   1.077   4.996   4.021  0.6050 -0.2114 -0.0992
   89MOL0     C11631   1.222   4.983   4.061  0.2075  1.2382 -0.3454
   89MOL0     C11632   1.275   4.842   4.045  0.1030 -0.2388 -0.9985
   89MOL0     N11633   1.410   4.841   4.098  0.8968 -0.2358  0.7274
   89MOL0     C11634   1.530   4.890   4.046 -1.1613 -0.0758  0.2454
   89MOL0     C11635   1.632   4.863   4.136  0.0779 -0.5355  0.0315
   89MOL0     C11636   1.777   4.905   4.127 -0.1594  0.1391  0.4841
   89MOL0     C11637   1.802   5.039   4.191 -0.0262  0.3976 -0.0007
   89MOL0     C11638   1.957   5.052   4.209  0.4670  1.7295  0.5014
   89MOL0     C11639   1.989   5.161   4.306  0.4507  0.4703 -0.8882
   89MOL0     O11640   1.924   5.279   4.256 -0.0355 -0.0728 -0.0269
   89MOL0     C11641   2.001   5.362   4.183  0.4922  0.4582 -0.5002
   89MOL0     C11642   1.963   5.394   4.055  1.1321  1.0716 -0.0944
   89MOL0     C11643   2.028   5.489   3.977  0.5865  0.9473 -1.0216
   89MOL0     C11644   2.137   5.550   4.027 -0.5349 -0.3005  0.1406
   89MOL0     C11645   2.201   5.652   3.955 -1.5755  0.5560 -1.2240
   89MOL0     O11646   2.332   5.669   3.986 -0.0195 -0.2613 -0.7925
   89MOL0     C11647   2.408   5.777   3.947  1.0768 -0.1792 -0.2195
   89MOL0     C11648   2.551   5.755   3.934 -0.5288  0.7221 -0.0116
   89MOL0     C11649   2.639   5.849   3.903 -0.0591  0.0394  0.5231
   89MOL0     C11650   2.598   5.986   3.903  0.6520  0.5720 -0.6510
   89MOL0     O11651   2.687   6.089   3.869  0.0589 -1.0015  0.2130
   89MOL0     C11652   2.656   6.226   3.845 -0.2638 -0.4458  0.2361
   89MOL0     C11653   2.780   6.309   3.848  0.7841 -0.7103  0.6427
   89MOL0     C11654   2.869   6.312   3.971  0.4492  0.3114 -0.3068
   89MOL0     C11655   2.814   6.371   4.099 -1.0858 -0.0651  0.5544
   89MOL0     C11656   2.924   6.438   4.180  0.0191 -0.0658  0.0590
   89MOL0     C11657   2.883   6.456   4.329  0.4512  0.4512  0.3655
   89MOL0     C11658   2.766   6.553   4.338  0.4547  0.5092 -0.9548
   89MOL0     C11659   2.717   6.553   4.489  1.0540  0.5396 -0.3595
   89MOL0    Cl11660   2.655   6.385   4.560 -0.3837  0.2281  0.7127
   89MOL0     C11661   2.466   6.011   3.940 -0.5299 -0.6175  0.1427
   89MOL0     C11662   2.372   5.908   3.967  0.3086 -0.4466 -0.1309
   89MOL0     O11663   2.142   5.710   3.874 -0.1573 -0.1068 -0.4177
   89MOL0     C11664   2.184   5.512   4.156 -0.3950 -1.0617  0.7172
   89MOL0     C11665   2.116   5.421   4.235  0.0246  0.6697  0.3149
   89MOL0     N11666   1.571   4.793   4.238  0.2020  0.1049 -0.3222
   89MOL0     N11667   1.444   4.796   4.223 -0.1523  0.1168 -0.0639
   89MOL0     C11668   0.561   4.955   3.460  0.9370 -0.5451  0.1137
   89MOL0     C11669   0.541   4.849   3.378  0.3583 -0.4371  0.4629
   89MOL0     C11670   0.564   4.397   3.236 -0.1139 -0.4530  0.7217
   89MOL0     C11671   0.641   4.275   3.242  0.3137  0.3927  0.7965
   89MOL0     C11672   0.633   4.183   3.133 -0.1806  0.2122  0.1475
   89MOL0     C11673   0.547   4.203   3.029 -0.3212 -0.3147  1.0606
   89MOL0     O11674   0.544   4.104   2.936 -0.6917  0.2265  0.1578
   89MOL0     C11675   0.478   4.126   2.816 -0.4935  0.1555  0.9165
   89MOL0     C11676   0.532   4.014   2.736 -0.5102  0.7860  0.4033
   89MOL0     C11677   0.480   3.995   2.598 -0.0134 -0.4012  0.5655
   89MOL0     C11678   0.578   3.932   2.506 -0.8206 -0.3947  0.5028
   89MOL0     C11679   0.519   3.903   2.380 -0.6635  0.1436  0.0336
   89MOL0     C11680   0.455   3.886   2.274  0.5242  0.5079  0.2961
   89MOL0     C11681   0.475   4.322   3.021  0.0328 -0.0915  0.0828
   89MOL0     C11682   0.481   4.415   3.125  0.6386 -0.7801  0.2950
   89MOL0     H11683   0.816   4.658   3.418  0.4453 -0.3453 -0.6896
   89MOL0     H11684   0.854   4.832   3.581 -0.5897 -3.1435  1.1477
   89MOL0     H11685   0.587   4.906   3.755  0.8217  0.6295  1.3385
   89MOL0     H11686   0.516   5.053   3.715 -2.2897 -4.6615  0.1880
   89MOL0     H11687   0.630   5.034   3.962  3.9359 -0.3504  0.5646
   89MOL0     H11688   0.636   5.179   3.866 -0.5867 -0.3894 -0.0039
   89MOL0     H11689   0.871   5.124   3.787 -0.4280  1.5985  1.2075
   89MOL0     H11690   0.855   4.972   3.866  1.9487 -0.0407 -2.3246
   89MOL0     H11691   0.836   5.245   4.009  1.6668 -0.0728  3.3727
   89MOL0     H11692   0.816   5.092   4.085  0.4239  0.8170  1.3310
   89MOL0     H11693   1.020   5.168   4.150 -0.8631  1.0187 -0.3427
   89MOL0     H11694   1.084   5.207   3.992  0.0203  2.5441  4.5656
   89MOL0     H11695   1.067   4.967   3.916 -0.3951 -3.8552  0.8330
   89MOL0     H11696   1.016   4.924   4.077  0.3660  1.2400  1.5924
   89MOL0     H11697   1.281   5.045   3.993  1.4055 -2.0226 -2.5488
   89MOL0     H11698   1.231   5.009   4.166  1.3285 -0.4477  0.0099
   89MOL0     H11699   1.276   4.811   3.940  0.1090  2.1931 -1.7718
   89MOL0     H11700   1.213   4.769   4.100 -0.7813  1.3627  0.2217
   89MOL0     H11701   1.538   4.949   3.956  0.0039 -2.4079 -1.2990
   89MOL0     H11702   1.807   4.906   4.021 -3.1161 -0.2626 -0.4416
   89MOL0     H11703   1.835   4.823   4.171  0.7270 -1.1772 -2.8080
   89MOL0     H11704   1.771   5.041   4.296  1.8725 -1.1361  0.6520
   89MOL0     H11705   1.754   5.110   4.124 -0.2673 -0.7009 -1.0183
   89MOL0     H11706   1.996   4.955   4.240 -3.1979  0.5521  1.9791
   89MOL0     H11707   1.998   5.083   4.113 -0.4144 -0.2339 -0.5483
   89MOL0     H11708   2.098   5.167   4.293  0.7574 -1.2302  0.4788
   89MOL0     H11709   1.960   5.142   4.410 -0.1894 -0.4704 -1.2240
   89MOL0     H11710   1.877   5.342   4.014 -1.0878  4.1128  0.4300
   89MOL0     H11711   1.982   5.509   3.881 -1.3813 -2.2346 -0.8890
   89MOL0     H11712   2.593   5.655   3.943 -2.0113  0.2677  3.7730
   89MOL0     H11713   2.742   5.826   3.875 -0.4849  0.3921 -1.5468
   89MOL0     H11714   2.593   6.270   3.923 -0.1541 -1.4050  0.8875
   89MOL0     H11715   2.602   6.241   3.751  1.6280  2.7686 -0.4700
   89MOL0     H11716   2.766   6.408   3.803 -2.0638 -1.8700 -1.3350
   89MOL0     H11717   2.849   6.262   3.777 -0.2940  0.1407 -1.0443
   89MOL0     H11718   2.964   6.363   3.953 -0.6375  2.0793 -1.2773
   89MOL0     H11719   2.893   6.206   3.985  2.3847  0.5420 -1.4772
   89MOL0     H11720   2.736   6.442   4.070  1.5741  2.1611 -1.7994
   89MOL0     H11721   2.769   6.288   4.155  1.3058 -1.3328  0.7277
   89MOL0     H11722   2.957   6.527   4.126 -3.4697 -0.1814 -2.6567
   89MOL0     H11723   3.009   6.369   4.180 -2.2368 -3.1135 -1.8144
   89MOL0     H11724   2.970   6.493   4.384  3.5706 -0.6288 -3.3776
   89MOL0     H11725   2.855   6.357   4.364 -0.7618  0.9913  0.9739
   89MOL0     H11726   2.814   6.646   4.307  1.0538 -0.4695 -3.1216
   89MOL0     H11727   2.673   6.526   4.286 -0.5139  0.8860  0.5048
   89MOL0     H11728   2.641   6.630   4.502  5.0805  4.8751  0.0186
   89MOL0     H11729   2.801   6.585   4.551  1.1171  1.7308 -1.0377
   89MOL0     H11730   2.425   6.111   3.953 -0.6421 -0.5640 -0.6062
   89MOL0     H11731   2.281   5.931   4.022  0.9733  0.0903  0.7809
   89MOL0     H11732   2.280   5.551   4.187 -0.7173 -0.2775  0.7579
   89MOL0     H11733   2.142   5.405   4.340 -2.4731  2.3855  1.3044
   89MOL0     H11734   0.495   5.040   3.459  3.6373  1.7014 -1.4426
   89MOL0     H11735   0.454   4.850   3.312  1.6457 -1.6837 -1.3439
   89MOL0     H11736   0.681   4.248   3.339 -0.9243  1.3772  1.6230
   89MOL0     H11737   0.691   4.092   3.144  3.4532  2.5084  1.8680
   89MOL0     H11738   0.499   4.218   2.760  0.3586 -1.6817 -2.0407
   89MOL0     H11739   0.370   4.115   2.828 -0.3980 -3.0463 -0.1853
   89MOL0     H11740   0.639   4.038   2.724  0.4809 -2.9779  0.2479
   89MOL0     H11741   0.539   3.920   2.792  0.4126  0.1464 -0.7149
   89MOL0     H11742   0.452   4.095   2.562 -0.5411 -0.5735  0.4848
   89MOL0     H11743   0.389   3.934   2.593  0.0495 -0.7123  2.5611
   89MOL0     H11744   0.649   4.012   2.481 -1.1342 -0.8856 -2.2955
   89MOL0     H11745   0.638   3.855   2.556  0.7802  1.5305  1.7060
   89MOL0     H11746   0.390   3.886   2.189 -0.1632 -2.9162  0.6788
   89MOL0     H11747   0.415   4.336   2.933  0.3833 -1.0617 -0.3330
   89MOL0     H11748   0.420   4.505   3.129  3.5915  1.3295  1.2770
   90MOL0     O11749   4.541   5.569   3.270 -0.2989 -0.1434 -0.3580
   90MOL0     C11750   4.437   5.553   3.332  0.5389 -0.5032  0.4535
   90MOL0     O11751   4.334   5.652   3.340  0.0712  0.8065 -0.3603
   90MOL0     C11752   4.374   5.782   3.317 -0.2619  0.8475 -0.6273
   90MOL0     C11753   4.475   5.844   3.391 -0.0234  0.4594  0.4424
   90MOL0     C11754   4.505   5.970   3.355 -0.4371 -0.6931  0.7562
   90MOL0     C11755   4.439   6.040   3.255  0.7435  0.3277  0.2601
   90MOL0     O11756   4.461   6.168   3.211  0.1434  1.1099 -0.1714
   90MOL0     C11757   4.602   6.207   3.227  0.7701  0.6324  0.5028
   90MOL0     C11758   4.616   6.318   3.118  0.1591 -0.1516  0.4433
   90MOL0     C11759   4.521   6.440   3.136  0.8799  0.0922  0.3097
   90MOL0     C11760   4.558   6.512   3.269 -1.4828 -0.1514 -0.2622
   90MOL0     C11761   4.536   6.668   3.266  0.8317 -0.7656 -0.1402
   90MOL0     C11762   4.394   6.717   3.303 -0.2973  0.2110 -1.0699
   90MOL0     C11763   4.372   6.867   3.331  0.2330 -0.1284  0.0035
   90MOL0     C11764   4.374   6.929   3.473 -0.2187 -0.8058 -0.2120
   90MOL0     N11765   4.514   6.972   3.512  0.3974 -0.2797 -0.4916
   90MOL0     C11766   4.603   7.048   3.434  0.8549 -0.1389  0.0864
   90MOL0     C11767   4.723   7.024   3.481 -0.9786 -0.0010  0.5151
   90MOL0     C11768   4.861   7.073   3.425  0.2164 -0.1205  0.4381
   90MOL0     C11769   4.852   7.043   3.274  0.1016 -0.4913  0.3786
   90MOL0     C11770   4.867   6.894   3.257  0.5555 -0.3629  0.1432
   90MOL0     C11771   4.882   6.853   3.104  0.4614 -0.0080 -0.6421
   90MOL0     O11772   4.979   6.948   3.035  1.0225  0.4073  0.5323
   90MOL0     C11773   5.117   6.920   3.035  0.4752 -0.1615 -0.0399
   90MOL0     C11774   5.205   7.011   2.969  0.3676  0.3583  0.0478
   90MOL0     C11775   5.336   6.985   2.969  0.1925  0.4687 -0.3566
   90MOL0     C11776   5.390   6.868   3.022 -0.4139 -0.1926  0.3080
   90MOL0     C11777   5.527   6.839   3.003 -0.7252 -0.0546  0.2154
   90MOL0     O11778   5.595   6.937   2.918  1.0361 -0.3964 -0.0516
   90MOL0     C11779   5.721   6.923   2.862  0.6956  0.1536 -0.1869
   90MOL0     C11780   5.788   6.797   2.855 -0.8708 -0.4024  0.2657
   90MOL0     C11781   5.925   6.794   2.821 -0.3794  0.9082  0.7910
   90MOL0     C11782   6.002   6.910   2.813  0.4415 -0.3243 -0.3238
   90MOL0     O11783   6.130   6.909   2.785 -1.0140 -0.2904  0.3433
   90MOL0     C11784   6.221   6.797   2.797 -0.3484 -0.3575 -0.5178
   90MOL0     C11785   6.336   6.795   2.692 -0.1206 -0.5254 -0.4276
   90MOL0     C11786   6.319   6.904   2.571 -0.4926  0.3519 -0.0924
   90MOL0     C11787   6.455   6.912   2.500 -0.1717  0.9278  0.7075
   90MOL0     C11788   6.450   6.993   2.368  0.5140  1.2291 -0.5139
   90MOL0     C11789   6.396   6.932   2.246  0.7796  0.7989  0.0421
   90MOL0     C11790   6.486   6.814   2.187  0.6869  0.7799  0.0376
   90MOL0     C11791   6.546   6.860   2.049 -0.0786  0.5414  0.2942
   90MOL0    Cl11792   6.647   6.728   2.002  0.0172 -0.3288  0.4821
   90MOL0     C11793   5.936   7.032   2.825 -0.4604  0.3501  0.1002
   90MOL0     C11794   5.795   7.039   2.844 -0.5398 -0.9850 -0.0378
   90MOL0     O11795   5.578   6.748   3.061 -0.6735  0.4885 -0.6155
   90MOL0     C11796   5.308   6.776   3.088  0.9117  0.0823  0.1505
   90MOL0     C11797   5.167   6.798   3.091 -1.0908  0.9769 -0.5989
   90MOL0     N11798   4.716   6.932   3.587 -0.4404 -0.2760  0.3147
   90MOL0     N11799   4.596   6.889   3.596  0.5837 -0.6831  0.7194
   90MOL0     C11800   4.335   5.982   3.196  0.5666 -0.6206  0.4629
   90MOL0     C11801   4.302   5.852   3.221 -0.2927  0.2264  0.3594
   90MOL0     C11802   4.414   5.419   3.386 -0.7728 -0.6677 -1.1297
   90MOL0     C11803   4.527   5.330   3.395 -0.2049  0.9319 -0.4951
   90MOL0     C11804   4.513   5.198   3.462  0.4255  0.0384 -0.4499
   90MOL0     C11805   4.383   5.165   3.518 -1.0347 -0.7919 -0.7562
   90MOL0     O11806   4.372   5.056   3.595  0.2731  0.9193  0.0548
   90MOL0     C11807   4.301   5.084   3.715 -0.4584 -0.0365 -0.6237
   90MOL0     C11808   4.368   4.996   3.816  0.9848  0.6077  0.0309
   90MOL0     C11809   4.312   5.029   3.960  0.1537 -0.3676 -1.5575
   90MOL0     C11810   4.161   4.993   3.980 -0.2372  0.1132  0.4874
   90MOL0     C11811   4.083   5.107   3.949 -0.4916  1.4706  0.2446
   90MOL0     C11812   4.032   5.205   3.910  0.4465 -0.1331 -0.4272
   90MOL0     C11813   4.278   5.257   3.504 -0.3098  1.2462 -0.4393
   90MOL0     C11814   4.289   5.384   3.445 -0.9988 -0.3634  0.4176
   90MOL0     H11815   4.546   5.798   3.459  0.5601 -1.0419 -1.0941
   90MOL0     H11816   4.592   6.013   3.404 -1.2886  0.8644  0.9536
   90MOL0     H11817   4.675   6.129   3.203 -0.2009  0.3898 -1.9950
   90MOL0     H11818   4.614   6.242   3.330  0.5048  1.5341  0.2388
   90MOL0     H11819   4.597   6.276   3.019 -1.9779 -1.8879  1.4877
   90MOL0     H11820   4.718   6.355   3.126  0.8383 -1.8704  0.1461
   90MOL0     H11821   4.414   6.417   3.148  1.0578 -0.1752  1.5599
   90MOL0     H11822   4.536   6.506   3.051  0.9090 -0.6307 -0.2525
   90MOL0     H11823   4.517   6.457   3.355 -3.2910 -0.6749 -1.4054
   90MOL0     H11824   4.666   6.503   3.285 -1.4935 -0.2381 -0.2359
   90MOL0     H11825   4.556   6.701   3.163 -1.4660 -0.4894 -0.5443
   90MOL0     H11826   4.602   6.728   3.329 -1.0112  0.6257  0.5616
   90MOL0     H11827   4.370   6.667   3.397  1.5015  2.7783  0.9363
   90MOL0     H11828   4.320   6.689   3.228 -0.9750  1.2712 -0.8156
   90MOL0     H11829   4.436   6.925   3.264 -0.4755 -0.8232 -1.3246
   90MOL0     H11830   4.275   6.885   3.285  0.0913 -0.3222  0.2252
   90MOL0     H11831   4.349   6.851   3.546  2.6275 -2.1082 -0.5118
   90MOL0     H11832   4.294   7.003   3.481 -1.1915 -1.5721 -1.9807
   90MOL0     H11833   4.586   7.118   3.352  0.1547 -1.7813 -1.2403
   90MOL0     H11834   4.942   7.026   3.482  0.1670 -0.5899  0.1309
   90MOL0     H11835   4.875   7.177   3.456 -2.5634  0.3840  0.2498
   90MOL0     H11836   4.946   7.088   3.241 -0.4004  0.7750  0.5977
   90MOL0     H11837   4.781   7.097   3.210  4.2645  0.0497 -4.5389
   90MOL0     H11838   4.959   6.857   3.303  1.5207  1.8779  0.1493
   90MOL0     H11839   4.790   6.834   3.305  1.8124  0.7049  3.8306
   90MOL0     H11840   4.788   6.858   3.048  0.0326 -1.6944 -0.1171
   90MOL0     H11841   4.904   6.747   3.094 -0.0096  0.0158 -2.3571
   90MOL0     H11842   5.171   7.094   2.908 -1.9498 -1.7476 -1.7303
   90MOL0     H11843   5.398   7.058   2.917  1.5648  1.5386  2.5836
   90MOL0     H11844   5.725   6.711   2.877  0.6184 -1.2268  1.6080
   90MOL0     H11845   5.979   6.700   2.821  1.0312  1.6667 -0.6812
   90MOL0     H11846   6.175   6.698   2.791 -1.2476 -0.1064  1.4160
   90MOL0     H11847   6.261   6.814   2.898 -2.3584 -1.1360  0.4733
   90MOL0     H11848   6.347   6.698   2.642 -2.3463 -2.8618  3.1239
   90MOL0     H11849   6.431   6.818   2.742  1.0436  1.9113 -3.3801
   90MOL0     H11850   6.295   7.004   2.608 -2.6037 -0.5566  1.1718
   90MOL0     H11851   6.244   6.863   2.504  1.3052  0.0295 -2.0102
   90MOL0     H11852   6.522   6.966   2.569  3.1358 -1.7945 -0.0972
   90MOL0     H11853   6.502   6.816   2.479  2.2808  2.8053 -3.9580
   90MOL0     H11854   6.555   7.004   2.338  0.6335  1.7400  0.0758
   90MOL0     H11855   6.408   7.093   2.367  0.0979  1.0549 -0.5379
   90MOL0     H11856   6.388   7.010   2.170  0.8385  0.0852 -0.7159
   90MOL0     H11857   6.295   6.890   2.251  1.1676 -0.0790  0.8170
   90MOL0     H11858   6.556   6.786   2.266  0.3054  0.2476  0.1919
   90MOL0     H11859   6.421   6.728   2.168 -0.4383  2.2248 -3.4406
   90MOL0     H11860   6.612   6.946   2.062 -0.5840  0.8510  0.8366
   90MOL0     H11861   6.465   6.877   1.977 -0.0824  1.9575  0.6072
   90MOL0     H11862   6.000   7.119   2.812 -0.6334  0.1230 -3.4183
   90MOL0     H11863   5.735   7.125   2.868  1.6695  0.3987  0.8916
   90MOL0     H11864   5.348   6.698   3.152 -1.2759  1.2238  3.1413
   90MOL0     H11865   5.113   6.713   3.130 -1.7168  1.9831  0.8107
   90MOL0     H11866   4.276   6.039   3.125  1.5801 -0.1864 -0.0389
   90MOL0     H11867   4.215   5.812   3.171 -0.6458  3.3479 -1.7472
   90MOL0     H11868   4.627   5.353   3.361  1.7401 -2.6123  2.1596
   90MOL0     H11869   4.600   5.138   3.486  0.0020  0.0515  1.2482
   90MOL0     H11870   4.196   5.058   3.703  0.2863 -2.7497 -1.9621
   90MOL0     H11871   4.295   5.184   3.759  2.0312  0.3655 -1.0463
   90MOL0     H11872   4.353   4.891   3.788 -2.3387  1.3669 -1.5438
   90MOL0     H11873   4.474   5.022   3.818  0.8930  1.0464  3.0805
   90MOL0     H11874   4.337   5.126   4.004 -1.0684 -1.8153  2.9621
   90MOL0     H11875   4.367   4.965   4.030  0.2867  2.0298  0.6956
   90MOL0     H11876   4.127   4.906   3.923 -2.4865  1.2251  0.0243
   90MOL0     H11877   4.143   4.965   4.084 -1.6978 -0.0186  0.2166
   90MOL0     H11878   3.967   5.281   3.870 -1.2529 -2.5218 -2.4938
   90MOL0     H11879   4.179   5.231   3.539  0.8742 -1.9925  0.8788
   90MOL0     H11880   4.205   5.452   3.444 -0.0734  0.8431  1.3114
   91MOL0     O11881   6.080   2.427   1.422  0.7078 -1.1543  0.1137
   91MOL0     C11882   5.981   2.384   1.362 -0.3359 -0.5048 -0.8230
   91MOL0     O11883   5.852   2.431   1.365  0.0795  0.2680  1.1228
   91MOL0     C11884   5.811   2.523   1.460  0.0286  0.8401 -1.1419
   91MOL0     C11885   5.702   2.599   1.439 -0.3261 -0.9123  1.2301
   91MOL0     C11886   5.645   2.681   1.536  0.0535 -0.0285 -0.3068
   91MOL0     C11887   5.700   2.680   1.676  0.1572 -0.2479 -0.6030
   91MOL0     O11888   5.668   2.770   1.780  0.1302 -0.1060 -0.2859
   91MOL0     C11889   5.687   2.913   1.747 -0.6695 -0.3955 -0.6320
   91MOL0     C11890   5.684   2.995   1.875 -0.1876  0.1937  0.2165
   91MOL0     C11891   5.792   2.945   1.968  0.6701 -0.7065  0.5654
   91MOL0     C11892   5.750   2.971   2.113  0.4910  0.9508  0.4862
   91MOL0     C11893   5.823   2.902   2.226  0.3573 -0.1328  0.6738
   91MOL0     C11894   5.816   2.745   2.202 -0.7909  0.4339 -0.9482
   91MOL0     C11895   5.879   2.648   2.300 -0.4424  0.6102 -0.4747
   91MOL0     C11896   5.812   2.630   2.434  0.3296 -0.2601 -0.8667
   91MOL0     N11897   5.852   2.502   2.495  0.4542 -0.2993 -0.5452
   91MOL0     C11898   5.771   2.384   2.506 -0.8523  0.1678  0.2933
   91MOL0     C11899   5.859   2.297   2.568 -0.3301 -0.1910 -0.4032
   91MOL0     C11900   5.846   2.149   2.587 -0.1458  0.6850 -0.6136
   91MOL0     C11901   5.970   2.063   2.551 -0.6840  0.1733  0.1994
   91MOL0     C11902   5.935   1.914   2.585  0.5398 -0.5350 -0.0674
   91MOL0     C11903   6.052   1.830   2.565  0.0953 -0.3198 -0.3664
   91MOL0     O11904   6.066   1.818   2.422 -0.3390 -0.2378  0.2575
   91MOL0     C11905   6.041   1.689   2.373  0.1403 -0.5758 -0.1764
   91MOL0     C11906   6.096   1.663   2.250  0.6550 -0.0379 -1.0496
   91MOL0     C11907   6.083   1.534   2.190 -0.7977  0.3170 -0.4732
   91MOL0     C11908   6.013   1.427   2.257  0.0821 -0.7536  0.2828
   91MOL0     C11909   5.980   1.311   2.179  0.5319 -0.1741 -0.4671
   91MOL0     O11910   6.015   1.315   2.048 -0.0099 -0.0259 -0.3675
   91MOL0     C11911   6.023   1.197   1.975  0.2370 -0.3881 -0.4890
   91MOL0     C11912   5.936   1.195   1.865  1.2099  0.4472 -0.0721
   91MOL0     C11913   5.939   1.093   1.768 -0.7887 -0.0858  0.7552
   91MOL0     C11914   6.028   0.989   1.783  0.0752 -0.8197  0.4817
   91MOL0     O11915   6.024   0.898   1.682 -0.5306  0.5043 -0.3314
   91MOL0     C11916   6.116   0.785   1.677 -1.4500  0.0028 -0.2116
   91MOL0     C11917   6.076   0.683   1.568  0.3747 -0.1827 -0.6150
   91MOL0     C11918   6.096   0.733   1.424  0.4152  0.9994 -0.7400
   91MOL0     C11919   6.085   0.619   1.312 -0.1413  0.4760  0.3210
   91MOL0     C11920   6.049   0.685   1.180 -0.0484  0.8322 -0.6043
   91MOL0     C11921   6.029   0.579   1.076 -1.2296 -0.2385 -0.6538
   91MOL0     C11922   6.018   0.636   0.929  0.3547  0.2663 -0.7290
   91MOL0     C11923   6.060   0.541   0.821  0.0022 -0.1700  0.7438
   91MOL0    Cl11924   6.055   0.625   0.668 -0.3684 -0.0010  0.1971
   91MOL0     C11925   6.116   0.991   1.893  0.4078 -0.0955 -0.6036
   91MOL0     C11926   6.109   1.088   1.994  0.2086 -0.8370  0.3820
   91MOL0     O11927   5.926   1.214   2.231 -0.4291  0.0893 -0.1176
   91MOL0     C11928   5.957   1.456   2.380  0.6556  0.9340 -0.8646
   91MOL0     C11929   5.978   1.580   2.447 -0.1555 -0.0164 -0.1957
   91MOL0     N11930   5.970   2.368   2.614 -0.1746  0.6476  0.8002
   91MOL0     N11931   5.968   2.490   2.569  0.2166  0.1555  0.4193
   91MOL0     C11932   5.809   2.597   1.701 -0.2640 -0.7716 -0.2583
   91MOL0     C11933   5.867   2.528   1.597  0.8845 -1.4589  0.2283
   91MOL0     C11934   6.007   2.261   1.287 -0.5746  0.5622  0.6105
   91MOL0     C11935   6.136   2.212   1.267  0.4350  0.0685  0.4304
   91MOL0     C11936   6.159   2.101   1.188  0.7546 -0.6357  0.5285
   91MOL0     C11937   6.049   2.042   1.126  0.9163 -0.0315  0.2643
   91MOL0     O11938   6.061   1.948   1.027  0.0363 -0.4712 -0.8035
   91MOL0     C11939   6.196   1.886   1.002 -0.1602  0.6883 -0.0684
   91MOL0     C11940   6.259   1.784   1.097 -0.2481 -0.4009 -0.1597
   91MOL0     C11941   6.150   1.682   1.117  0.2364  0.3339 -1.0777
   91MOL0     C11942   6.196   1.567   1.215  1.6091 -0.4815  0.3692
   91MOL0     C11943   6.209   1.625   1.353 -0.2745 -0.6323  0.5949
   91MOL0     C11944   6.215   1.684   1.464 -0.3116 -0.0896 -0.0847
   91MOL0     C11945   5.918   2.087   1.143  1.0664 -0.9485  0.2687
   91MOL0     C11946   5.901   2.196   1.226  0.4059 -0.4832 -0.6440
   91MOL0     H11947   5.645   2.591   1.347  0.2698  3.0510  0.3039
   91MOL0     H11948   5.572   2.757   1.511 -1.3775 -2.2177 -3.3707
   91MOL0     H11949   5.613   2.950   1.676 -1.9091 -2.1885 -0.3406
   91MOL0     H11950   5.782   2.929   1.695 -0.4439  4.5965  0.7618
   91MOL0     H11951   5.582   2.985   1.912 -0.6836  0.7654 -0.9476
   91MOL0     H11952   5.700   3.101   1.853 -2.8181  1.2964  2.9165
   91MOL0     H11953   5.889   2.993   1.951  0.0482  0.1718 -0.7044
   91MOL0     H11954   5.815   2.839   1.952  1.2849 -0.3965 -0.7330
   91MOL0     H11955   5.777   3.075   2.134  5.1046 -0.1886  1.1560
   91MOL0     H11956   5.643   2.947   2.124  1.1699 -3.4108 -0.6605
   91MOL0     H11957   5.777   2.919   2.324  1.3720 -0.8902  1.3071
   91MOL0     H11958   5.927   2.936   2.222  0.4319 -0.3793  0.4964
   91MOL0     H11959   5.848   2.705   2.105 -4.5216  1.7742 -2.9400
   91MOL0     H11960   5.707   2.731   2.198 -1.0097  1.6701  0.0464
   91MOL0     H11961   5.878   2.553   2.245  0.9965  1.5041 -2.1669
   91MOL0     H11962   5.987   2.665   2.302 -0.1237 -1.1902  2.2610
   91MOL0     H11963   5.703   2.639   2.429  0.0497 -2.8082 -0.6014
   91MOL0     H11964   5.850   2.699   2.510 -1.1841 -3.1258  2.8031
   91MOL0     H11965   5.670   2.371   2.467 -0.5987 -2.5611  0.3247
   91MOL0     H11966   5.768   2.107   2.522 -0.2474  1.2973 -0.8917
   91MOL0     H11967   5.822   2.142   2.694 -3.5302 -0.9768 -1.3430
   91MOL0     H11968   6.060   2.099   2.602 -1.0202  2.6234 -0.7924
   91MOL0     H11969   5.989   2.074   2.444 -1.5348  3.6336  0.2931
   91MOL0     H11970   5.904   1.901   2.689 -1.2002 -0.8726 -0.5933
   91MOL0     H11971   5.846   1.887   2.526  0.0134 -1.5197  1.1436
   91MOL0     H11972   6.037   1.735   2.617 -0.8630 -0.2736 -0.5376
   91MOL0     H11973   6.142   1.876   2.607  2.7969 -4.2597 -1.3144
   91MOL0     H11974   6.143   1.748   2.202  5.6331 -1.0970  1.3361
   91MOL0     H11975   6.119   1.535   2.088  1.8720 -0.6525  0.3503
   91MOL0     H11976   5.880   1.284   1.838  0.3608 -0.9676 -3.3082
   91MOL0     H11977   5.869   1.081   1.687 -1.1410 -1.0661  1.1859
   91MOL0     H11978   6.119   0.732   1.773 -0.1470  0.5893  0.1041
   91MOL0     H11979   6.217   0.822   1.658 -2.1850  1.3626 -1.6948
   91MOL0     H11980   5.974   0.645   1.579  1.0346 -1.8762 -0.0185
   91MOL0     H11981   6.134   0.590   1.569  0.9916  0.1045 -3.0475
   91MOL0     H11982   6.189   0.788   1.408  1.0721  0.6439  1.4736
   91MOL0     H11983   6.013   0.802   1.404 -3.0355 -2.1617  1.2806
   91MOL0     H11984   6.176   0.559   1.302 -0.2403  0.1257  1.3490
   91MOL0     H11985   6.013   0.539   1.329  0.1863  0.3054  0.9321
   91MOL0     H11986   6.123   0.750   1.133  0.6859 -1.4992 -2.9372
   91MOL0     H11987   5.953   0.735   1.193 -0.7785 -0.2001 -1.8690
   91MOL0     H11988   5.928   0.540   1.093 -2.5718  3.4817  0.7007
   91MOL0     H11989   6.106   0.501   1.074 -1.3404 -0.3368 -1.3657
   91MOL0     H11990   5.911   0.655   0.916  0.1702 -0.6163 -0.5730
   91MOL0     H11991   6.076   0.729   0.927 -0.8761  1.1279 -3.9853
   91MOL0     H11992   6.004   0.446   0.824 -0.0601 -0.1149  1.9234
   91MOL0     H11993   6.165   0.511   0.820 -0.4045 -2.2584 -3.5902
   91MOL0     H11994   6.184   0.907   1.905  0.6224  0.2623  0.8814
   91MOL0     H11995   6.166   1.075   2.085  1.7477 -1.1916 -0.6007
   91MOL0     H11996   5.912   1.371   2.430  1.5796  0.0023 -1.5434
   91MOL0     H11997   5.941   1.584   2.549  0.0993  1.2001 -0.1307
   91MOL0     H11998   5.860   2.589   1.796  1.5713  0.0725 -1.1158
   91MOL0     H11999   5.947   2.467   1.638  0.8219 -1.6860  0.0157
   91MOL0     H12000   6.215   2.266   1.318 -1.0213  2.5213  0.2035
   91MOL0     H12001   6.261   2.064   1.179  1.3943  1.4936 -2.5446
   91MOL0     H12002   6.282   1.952   0.990  1.2894 -0.9334  0.9303
   91MOL0     H12003   6.182   1.829   0.910 -0.0367 -0.6075  0.6894
   91MOL0     H12004   6.340   1.728   1.049 -0.5929 -0.0207 -1.2085
   91MOL0     H12005   6.299   1.823   1.191 -0.5819 -0.2916 -0.0610
   91MOL0     H12006   6.136   1.637   1.018 -0.4275  2.3382 -1.9378
   91MOL0     H12007   6.058   1.729   1.154  0.5683  2.1191 -2.3712
   91MOL0     H12008   6.124   1.484   1.217 -2.0523  2.4513  0.6608
   91MOL0     H12009   6.291   1.518   1.194  0.8575 -1.5829 -0.6414
   91MOL0     H12010   6.248   1.730   1.555  2.7337 -1.0439 -0.5574
   91MOL0     H12011   5.826   2.054   1.096  0.6251  2.5513 -1.6896
   91MOL0     H12012   5.796   2.219   1.243  1.0766  2.5779 -0.0021
   92MOL0     O12013   0.425   8.005   2.320 -0.7506 -0.2098 -0.5094
   92MOL0     C12014   0.506   7.961   2.402  0.0843  0.8619  1.0880
   92MOL0     O12015   0.490   7.966   2.535  0.1535  0.4081  0.3678
   92MOL0     C12016   0.363   7.966   2.592 -0.6927 -0.4873  0.2446
   92MOL0     C12017   0.341   8.020   2.720  0.4452 -0.1701 -0.4667
   92MOL0     C12018   0.211   8.021   2.781 -0.6606  0.4646  0.1700
   92MOL0     C12019   0.100   7.955   2.722 -0.8683  0.5166  0.2668
   92MOL0     O12020  -0.011   7.936   2.798  0.5892 -0.4646 -0.4192
   92MOL0     C12021  -0.124   7.872   2.732  0.2815  0.6843 -0.4988
   92MOL0     C12022  -0.258   7.868   2.808 -0.7849  0.7483 -0.2243
   92MOL0     C12023  -0.228   7.850   2.956  0.4716  0.0505  0.1361
   92MOL0     C12024  -0.359   7.842   3.033 -0.6410 -0.7458  0.1934
   92MOL0     C12025  -0.343   7.755   3.161 -0.1465 -0.3384  0.3972
   92MOL0     C12026  -0.487   7.702   3.195 -1.0617 -0.4927 -0.4120
   92MOL0     C12027  -0.490   7.628   3.328 -0.4749 -1.2428 -0.1208
   92MOL0     C12028  -0.626   7.563   3.366 -0.3832  0.7958  0.3858
   92MOL0     N12029  -0.675   7.474   3.256 -0.1916 -0.2456 -0.4808
   92MOL0     C12030  -0.759   7.523   3.157  1.2332  0.5386 -0.0382
   92MOL0     C12031  -0.732   7.442   3.047  0.7509 -0.5051  0.4950
   92MOL0     C12032  -0.795   7.445   2.911  0.1187  0.8056 -0.0772
   92MOL0     C12033  -0.710   7.527   2.807 -0.0642  0.2372 -0.3644
   92MOL0     C12034  -0.609   7.431   2.720 -0.5698 -0.1373 -0.5298
   92MOL0     C12035  -0.464   7.472   2.750  0.0874 -0.5379 -0.1487
   92MOL0     O12036  -0.375   7.390   2.678  0.1568 -0.4349 -0.3813
   92MOL0     C12037  -0.248   7.431   2.696 -0.2931 -0.7669  0.1835
   92MOL0     C12038  -0.168   7.402   2.592  0.0336  0.7294  1.2730
   92MOL0     C12039  -0.031   7.425   2.582 -0.1070 -0.3013 -0.3366
   92MOL0     C12040   0.035   7.485   2.694 -0.1656  0.9374  0.2626
   92MOL0     C12041   0.180   7.499   2.694 -0.3081 -0.2479  0.2285
   92MOL0     O12042   0.252   7.460   2.585  0.3631  0.2163  0.5465
   92MOL0     C12043   0.392   7.469   2.583  0.2181  1.2580 -0.5384
   92MOL0     C12044   0.467   7.359   2.537 -0.1474  0.0099  0.2379
   92MOL0     C12045   0.604   7.372   2.513 -0.2021 -0.6818 -0.6128
   92MOL0     C12046   0.665   7.490   2.558  0.0108 -0.9488  0.1974
   92MOL0     O12047   0.798   7.508   2.529  1.2373  0.3911  0.4816
   92MOL0     C12048   0.879   7.532   2.639 -0.7273 -0.6393 -0.5175
   92MOL0     C12049   0.901   7.399   2.713  0.6419 -0.5151  0.3629
   92MOL0     C12050   0.980   7.425   2.839  0.0209  0.1493 -0.3764
   92MOL0     C12051   1.009   7.303   2.928  0.0755  0.2628  0.3665
   92MOL0     C12052   1.085   7.339   3.057 -0.2179  0.3849 -0.8483
   92MOL0     C12053   1.020   7.439   3.150  0.0675 -0.1074  0.3865
   92MOL0     C12054   1.108   7.481   3.262  0.0063  0.2867  0.9987
   92MOL0     C12055   1.062   7.611   3.318 -0.0666 -0.1294  0.5653
   92MOL0    Cl12056   1.161   7.678   3.438  0.1294  0.0912  0.3954
   92MOL0     C12057   0.590   7.598   2.590 -0.2138  0.5525  0.1493
   92MOL0     C12058   0.450   7.588   2.602  0.7594 -0.5284 -0.2315
   92MOL0     O12059   0.230   7.518   2.805 -0.4319 -0.0193 -0.2881
   92MOL0     C12060  -0.048   7.522   2.804  1.2385 -0.9203 -0.7797
   92MOL0     C12061  -0.190   7.492   2.811 -0.4414 -1.7491 -0.3689
   92MOL0     N12062  -0.648   7.340   3.088 -0.2429  0.2165 -0.0173
   92MOL0     N12063  -0.609   7.362   3.207  0.6649 -0.5675  0.5391
   92MOL0     C12064   0.126   7.900   2.590 -0.3925  0.6137 -0.1493
   92MOL0     C12065   0.258   7.902   2.531 -0.2996  0.0147 -0.7315
   92MOL0     C12066   0.641   7.913   2.358 -0.4547 -0.5620 -0.2815
   92MOL0     C12067   0.754   7.903   2.440  0.9479 -1.1687 -0.1631
   92MOL0     C12068   0.869   7.850   2.387  0.5400  0.9736 -0.6126
   92MOL0     C12069   0.880   7.802   2.252 -0.3969  1.1660  0.0632
   92MOL0     O12070   0.987   7.742   2.203 -0.3484  0.4887  0.1971
   92MOL0     C12071   1.005   7.606   2.240  0.4470  0.0836  0.1633
   92MOL0     C12072   0.926   7.509   2.155  0.7045  0.0083 -0.7869
   92MOL0     C12073   0.778   7.530   2.146  0.6946  0.5446  0.0375
   92MOL0     C12074   0.707   7.396   2.106 -0.6196 -0.9570 -0.2159
   92MOL0     C12075   0.586   7.432   2.028  0.5328  0.5523 -0.0542
   92MOL0     C12076   0.489   7.464   1.969 -0.5317  0.2469 -0.0937
   92MOL0     C12077   0.775   7.840   2.169 -0.2352  0.3983  0.5773
   92MOL0     C12078   0.657   7.893   2.219 -0.2182  0.1437 -0.7814
   92MOL0     H12079   0.418   8.067   2.779 -1.9636  3.0140  0.4340
   92MOL0     H12080   0.208   8.072   2.876  0.0685 -0.4093  0.6796
   92MOL0     H12081  -0.106   7.768   2.703 -1.6714 -1.2045  4.1168
   92MOL0     H12082  -0.141   7.928   2.639  0.9042  0.2064 -0.9036
   92MOL0     H12083  -0.316   7.781   2.776 -0.3677 -0.1631  1.4036
   92MOL0     H12084  -0.309   7.960   2.778  2.9889  3.3350  0.6612
   92MOL0     H12085  -0.171   7.930   3.003  3.1587  0.5421 -3.5525
   92MOL0     H12086  -0.160   7.768   2.979 -0.5968  0.3943  5.9592
   92MOL0     H12087  -0.383   7.945   3.063 -3.3690 -1.2907  0.0939
   92MOL0     H12088  -0.442   7.811   2.969  0.3197  0.4351 -1.7267
   92MOL0     H12089  -0.298   7.807   3.246  0.3389 -0.4896  0.2324
   92MOL0     H12090  -0.281   7.668   3.139 -0.1234 -0.4076  0.7321
   92MOL0     H12091  -0.525   7.631   3.121 -4.6391  0.9299 -0.1479
   92MOL0     H12092  -0.556   7.786   3.209 -1.2618 -0.5506 -1.0095
   92MOL0     H12093  -0.422   7.543   3.329 -1.4073 -2.0761  2.5490
   92MOL0     H12094  -0.459   7.701   3.403  0.8836 -1.9393  0.0141
   92MOL0     H12095  -0.699   7.642   3.383  0.0122  0.6723  3.1231
   92MOL0     H12096  -0.614   7.512   3.462 -2.2638  0.3797  0.4266
   92MOL0     H12097  -0.824   7.609   3.171  0.9871  0.0710  2.0841
   92MOL0     H12098  -0.892   7.494   2.921  1.1885  2.4856  3.4102
   92MOL0     H12099  -0.796   7.339   2.882  3.2553  1.0834 -1.7128
   92MOL0     H12100  -0.650   7.611   2.844  0.9320  0.3594 -2.1531
   92MOL0     H12101  -0.782   7.573   2.739 -2.5286 -0.3154  1.6682
   92MOL0     H12102  -0.623   7.332   2.766 -2.3595 -0.4261 -1.6123
   92MOL0     H12103  -0.635   7.418   2.615  0.5586 -3.1905 -0.5531
   92MOL0     H12104  -0.452   7.479   2.858 -2.7899  3.1044  0.1442
   92MOL0     H12105  -0.454   7.575   2.713  1.2940 -0.5620  0.0909
   92MOL0     H12106  -0.221   7.360   2.506  1.3444 -0.1723  0.8743
   92MOL0     H12107   0.025   7.391   2.495 -3.1272  0.0344 -2.5616
   92MOL0     H12108   0.410   7.273   2.502 -0.7684  0.4893  0.0673
   92MOL0     H12109   0.661   7.285   2.484  1.7357 -0.0569  1.1035
   92MOL0     H12110   0.840   7.612   2.703  1.3200  1.6358 -1.9241
   92MOL0     H12111   0.969   7.567   2.587 -1.4554  0.3275 -1.1640
   92MOL0     H12112   0.945   7.318   2.654  0.6693 -0.7192  0.6584
   92MOL0     H12113   0.803   7.368   2.751 -1.1566  5.8362  2.2078
   92MOL0     H12114   0.930   7.506   2.892 -0.7207 -0.6357  0.1603
   92MOL0     H12115   1.081   7.456   2.810  1.0852 -3.2532 -0.8716
   92MOL0     H12116   0.920   7.246   2.954  0.2099 -0.4429 -0.6548
   92MOL0     H12117   1.061   7.223   2.873 -0.4247 -1.3874  2.1943
   92MOL0     H12118   1.182   7.379   3.028  0.5277  1.0119  2.1712
   92MOL0     H12119   1.103   7.249   3.117 -1.7614 -1.4846 -3.0194
   92MOL0     H12120   0.926   7.401   3.191 -2.5706  2.8813 -2.3585
   92MOL0     H12121   0.984   7.529   3.099 -1.8153 -1.5470 -0.9804
   92MOL0     H12122   1.111   7.401   3.337  1.2494 -2.7441 -1.9902
   92MOL0     H12123   1.207   7.509   3.226  0.2595 -1.6846  0.0177
   92MOL0     H12124   0.955   7.604   3.339 -0.2721 -0.4599 -0.5463
   92MOL0     H12125   1.063   7.683   3.236  0.2620 -1.7141 -0.8911
   92MOL0     H12126   0.639   7.694   2.603  0.9402 -0.1860  1.5232
   92MOL0     H12127   0.385   7.673   2.615  0.1101 -1.0691  0.1546
   92MOL0     H12128  -0.007   7.562   2.896  1.1720 -4.3798  0.8936
   92MOL0     H12129  -0.239   7.499   2.907  0.4303 -3.9070  0.3141
   92MOL0     H12130   0.046   7.843   2.544  0.4440  0.6899 -1.7608
   92MOL0     H12131   0.273   7.856   2.434 -3.8803  0.5810 -1.7067
   92MOL0     H12132   0.770   7.941   2.541  0.4064 -0.0465 -0.4890
   92MOL0     H12133   0.956   7.826   2.448 -1.1999 -2.3461  0.8748
   92MOL0     H12134   0.975   7.588   2.343  0.5409  0.0157  0.1792
   92MOL0     H12135   1.104   7.564   2.220  0.6148  0.7359 -0.4235
   92MOL0     H12136   0.977   7.499   2.059  3.0025 -2.3090  0.5217
   92MOL0     H12137   0.952   7.411   2.197  3.2495  1.1243  0.4588
   92MOL0     H12138   0.765   7.607   2.070 -3.9880 -1.4554 -1.5484
   92MOL0     H12139   0.744   7.559   2.246 -0.4557 -1.7641  0.3781
   92MOL0     H12140   0.778   7.324   2.065  0.6708  0.2732 -0.2309
   92MOL0     H12141   0.669   7.354   2.200 -3.7778  2.4333  0.2735
   92MOL0     H12142   0.407   7.497   1.909 -1.5824 -1.6490  0.2182
   92MOL0     H12143   0.795   7.821   2.064 -0.9175  1.2021  0.2960
   92MOL0     H12144   0.562   7.907   2.169 -2.7160 -4.0543  2.0741
   93MOL0     O12145   9.477   3.590   3.888  0.1511 -0.0049 -0.2002
   93MOL0     C12146   9.523   3.572   4.002  0.6310  0.0023  0.0181
   93MOL0     O12147   9.601   3.654   4.076 -0.3414  0.5776 -0.2641
   93MOL0     C12148   9.659   3.768   4.026 -0.7175  0.3673 -0.2481
   93MOL0     C12149   9.568   3.875   3.990  0.8046 -0.7372  0.2396
   93MOL0     C12150   9.621   3.991   3.927  0.1900 -0.4136  0.3523
   93MOL0     C12151   9.769   4.006   3.915  0.7638  0.6458  0.5408
   93MOL0     O12152   9.813   4.119   3.858 -1.0348 -0.4843  0.2060
   93MOL0     C12153   9.856   4.119   3.725  0.3925  0.2256  0.0262
   93MOL0     C12154   9.779   4.208   3.632  0.6133 -0.2113 -0.5895
   93MOL0     C12155   9.851   4.242   3.495  0.5047 -0.1648  1.3699
   93MOL0     C12156   9.796   4.156   3.375  0.2263  0.6851 -0.2626
   93MOL0     C12157   9.811   4.226   3.250  0.1510  0.4222  0.0674
   93MOL0     C12158   9.957   4.215   3.191 -0.5912  0.2419 -0.9289
   93MOL0     C12159   9.949   4.289   3.058  0.7352  0.3710  0.2668
   93MOL0     C12160  10.073   4.285   2.973 -0.0429  0.6844 -0.5874
   93MOL0     N12161  10.132   4.150   2.940 -0.6064  0.3709 -0.4083
   93MOL0     C12162  10.098   4.053   2.841  0.2378  0.6030  0.1565
   93MOL0     C12163  10.191   3.958   2.854 -0.1375  0.0033 -0.1703
   93MOL0     C12164  10.178   3.838   2.772 -0.6455  0.6968 -0.6831
   93MOL0     C12165  10.315   3.808   2.698 -0.0431 -0.3522  0.1345
   93MOL0     C12166  10.359   3.910   2.592  0.1633  0.6738  0.1255
   93MOL0     C12167  10.282   3.890   2.460 -0.4197  0.1885 -0.4684
   93MOL0     O12168  10.154   3.940   2.465  0.0404  0.0567  0.5222
   93MOL0     C12169  10.092   3.943   2.344 -0.3982  1.0394 -0.2947
   93MOL0     C12170  10.134   3.880   2.227  0.0682  0.0459  0.0699
   93MOL0     C12171  10.057   3.886   2.110 -0.2438  0.2183 -0.8783
   93MOL0     C12172   9.931   3.939   2.107  0.0266 -0.5385 -0.2479
   93MOL0     C12173   9.852   3.929   1.990  1.0206  0.5665  0.2240
   93MOL0     O12174   9.758   4.039   1.969 -0.8241  0.7361  0.3512
   93MOL0     C12175   9.663   4.018   1.878 -0.0064  1.5801 -0.4141
   93MOL0     C12176   9.542   3.946   1.907  0.2187  0.4497 -0.7381
   93MOL0     C12177   9.443   3.933   1.817 -0.2642  0.2252 -0.2345
   93MOL0     C12178   9.458   3.989   1.691  0.3050  1.2155  0.4702
   93MOL0     O12179   9.365   3.968   1.584  0.3111 -0.0150  0.3779
   93MOL0     C12180   9.227   3.935   1.608  0.0786 -0.1933 -0.2177
   93MOL0     C12181   9.146   3.963   1.475 -0.2115 -0.3201 -1.0588
   93MOL0     C12182   8.997   3.960   1.500  0.3174  0.0297 -0.0949
   93MOL0     C12183   8.895   3.927   1.387  0.2162 -0.6487 -0.9788
   93MOL0     C12184   8.763   3.890   1.444  0.2317 -0.1590 -0.0901
   93MOL0     C12185   8.692   4.013   1.507  0.2997  0.5528  0.1909
   93MOL0     C12186   8.653   4.123   1.408 -0.5180  0.2838  0.5889
   93MOL0     C12187   8.549   4.227   1.459  0.9850 -0.7263  0.2613
   93MOL0    Cl12188   8.407   4.146   1.535  0.0414 -0.2957 -0.5617
   93MOL0     C12189   9.575   4.061   1.659  0.6312  0.5253  0.4596
   93MOL0     C12190   9.689   4.064   1.745  0.8012  0.0643 -0.4920
   93MOL0     O12191   9.848   3.826   1.922  0.7842  0.6520 -0.1735
   93MOL0     C12192   9.900   4.018   2.222  0.1187  0.4727  0.3576
   93MOL0     C12193   9.968   4.004   2.338 -0.7212  1.5739 -1.3313
   93MOL0     N12194  10.286   3.996   2.948 -0.7131  0.0560  0.3988
   93MOL0     N12195  10.253   4.111   3.000  0.0470  0.1976  0.6794
   93MOL0     C12196   9.852   3.900   3.959  0.5014  0.0472 -0.2070
   93MOL0     C12197   9.796   3.777   4.005 -0.1467  0.6798  0.8116
   93MOL0     C12198   9.480   3.458   4.075 -0.9379 -0.0201 -0.2159
   93MOL0     C12199   9.565   3.406   4.180 -1.0574  0.7987  0.3697
   93MOL0     C12200   9.530   3.283   4.238  0.9693  0.3343  0.4416
   93MOL0     C12201   9.412   3.211   4.199  1.1925 -0.1010 -0.2686
   93MOL0     O12202   9.377   3.086   4.243 -0.5853  0.6023  0.5987
   93MOL0     C12203   9.485   2.989   4.245  0.4261 -0.8634  0.5550
   93MOL0     C12204   9.439   2.846   4.258 -0.3021  0.4844  0.7428
   93MOL0     C12205   9.368   2.794   4.138  0.1057  0.9636  1.6113
   93MOL0     C12206   9.225   2.854   4.110 -0.6346  0.1855 -0.0120
   93MOL0     C12207   9.158   2.762   4.021 -0.2112 -0.2736  0.8779
   93MOL0     C12208   9.090   2.683   3.955  0.5465 -0.8804  0.0037
   93MOL0     C12209   9.325   3.280   4.110 -0.7242  0.4796  0.2472
   93MOL0     C12210   9.364   3.397   4.035  0.3325 -0.0481  0.6964
   93MOL0     H12211   9.463   3.873   4.018  0.7563  1.2637  0.3237
   93MOL0     H12212   9.543   4.059   3.893 -2.1160 -0.9283  4.0184
   93MOL0     H12213   9.838   4.019   3.685  3.4797 -0.5904  0.4354
   93MOL0     H12214   9.964   4.140   3.728  0.3780  0.8042 -2.0413
   93MOL0     H12215   9.759   4.299   3.689 -1.8991 -2.0635  1.7548
   93MOL0     H12216   9.675   4.176   3.617  0.0843  0.1710  1.9039
   93MOL0     H12217   9.960   4.230   3.497  0.7360  0.2270 -2.0494
   93MOL0     H12218   9.833   4.348   3.476 -1.1833 -0.1988  2.5230
   93MOL0     H12219   9.840   4.057   3.365  0.5140  0.8350 -0.5064
   93MOL0     H12220   9.690   4.136   3.396  0.4129 -0.2159 -0.1503
   93MOL0     H12221   9.777   4.329   3.263 -0.4280  0.4351 -1.3601
   93MOL0     H12222   9.748   4.170   3.180  1.1358 -6.0592  3.5183
   93MOL0     H12223  10.002   4.115   3.190 -3.4893 -1.3680  3.0077
   93MOL0     H12224  10.027   4.271   3.254  0.8457 -1.0403 -1.3203
   93MOL0     H12225   9.880   4.234   2.994 -1.5029  0.2492  2.6505
   93MOL0     H12226   9.913   4.392   3.064  0.9003  0.8162 -3.6955
   93MOL0     H12227  10.140   4.347   3.034  2.2737  0.6281 -2.9197
   93MOL0     H12228  10.051   4.339   2.880 -0.0759  0.4676 -0.7056
   93MOL0     H12229  10.026   4.056   2.760  0.1390  1.7735  0.2626
   93MOL0     H12230  10.093   3.839   2.703 -1.8971  1.6822  0.8210
   93MOL0     H12231  10.158   3.754   2.838  2.3222 -1.7392 -2.6010
   93MOL0     H12232  10.308   3.711   2.648 -0.2149  0.4146 -1.3879
   93MOL0     H12233  10.405   3.811   2.761 -1.0541  2.1266  1.6091
   93MOL0     H12234  10.354   4.014   2.626 -1.8321  0.0622  1.8925
   93MOL0     H12235  10.465   3.898   2.565  0.9172 -0.1887  3.0903
   93MOL0     H12236  10.286   3.784   2.436  0.2020  0.4196 -1.4656
   93MOL0     H12237  10.341   3.937   2.380  3.3286 -0.3063  1.7644
   93MOL0     H12238  10.229   3.827   2.229 -0.4232 -0.9115 -0.8237
   93MOL0     H12239  10.104   3.834   2.027  1.0522 -1.5825  0.8681
   93MOL0     H12240   9.520   3.900   2.003 -0.7865  0.9071 -0.7385
   93MOL0     H12241   9.347   3.883   1.830 -0.2195  0.0663 -0.5176
   93MOL0     H12242   9.198   3.996   1.694  0.7760 -0.7426  0.4228
   93MOL0     H12243   9.208   3.831   1.639  1.4388 -0.0561  1.2330
   93MOL0     H12244   9.176   3.889   1.401 -1.1277 -1.4264 -0.3724
   93MOL0     H12245   9.158   4.064   1.435 -3.0190  0.1072 -1.0678
   93MOL0     H12246   8.971   4.059   1.539  0.1541  0.5199 -1.3899
   93MOL0     H12247   8.986   3.901   1.591  3.2469 -0.1025  0.2794
   93MOL0     H12248   8.880   4.008   1.315  1.0245 -1.4023 -2.0293
   93MOL0     H12249   8.943   3.844   1.332  0.3622 -0.9148 -0.4540
   93MOL0     H12250   8.776   3.808   1.514  1.4822  0.6472  0.6564
   93MOL0     H12251   8.699   3.854   1.363  1.5728 -0.7285 -0.9321
   93MOL0     H12252   8.759   4.046   1.587 -0.0666  2.3936 -0.1970
   93MOL0     H12253   8.593   3.980   1.538 -1.4952  5.5744  0.8632
   93MOL0     H12254   8.741   4.184   1.384  0.3221 -1.1635 -0.1656
   93MOL0     H12255   8.630   4.077   1.312 -2.3828 -1.6935  1.8859
   93MOL0     H12256   8.517   4.291   1.377  0.2859  2.1921  2.6338
   93MOL0     H12257   8.591   4.291   1.538 -0.2946 -1.9897  2.0530
   93MOL0     H12258   9.582   4.106   1.561  0.0218  2.9957  1.4648
   93MOL0     H12259   9.788   4.103   1.724  0.2983  2.6207  1.4207
   93MOL0     H12260   9.811   4.080   2.216  0.4504  0.8971 -0.2354
   93MOL0     H12261   9.931   4.049   2.430 -3.1578  0.6155 -1.7820
   93MOL0     H12262   9.957   3.927   3.964  0.1337  1.5773 -0.4505
   93MOL0     H12263   9.866   3.703   4.041  0.2369  1.2139  1.1878
   93MOL0     H12264   9.663   3.441   4.209 -0.3332 -1.5649  1.0376
   93MOL0     H12265   9.599   3.249   4.315  0.7853  1.5193  1.1604
   93MOL0     H12266   9.545   3.016   4.333 -2.4460 -0.3700  2.5018
   93MOL0     H12267   9.548   2.994   4.156  1.0574  0.1574  1.0430
   93MOL0     H12268   9.523   2.777   4.273 -0.3880  0.4612  1.1255
   93MOL0     H12269   9.368   2.848   4.341  0.2911  0.8821  1.2466
   93MOL0     H12270   9.371   2.685   4.130 -2.0996  0.9722 -2.9697
   93MOL0     H12271   9.436   2.817   4.055  2.1731 -0.1690  2.9069
   93MOL0     H12272   9.160   2.866   4.197  0.5417  1.6801  0.7066
   93MOL0     H12273   9.242   2.951   4.063  1.4037  0.7804  1.7557
   93MOL0     H12274   9.026   2.615   3.904  1.4118 -1.2321 -0.6491
   93MOL0     H12275   9.227   3.238   4.090 -0.3622 -0.7843  0.9939
   93MOL0     H12276   9.299   3.444   3.961 -0.5596 -2.5720 -0.2138
   94MOL0     O12277   3.294   4.532   4.154  0.1668  0.2753  0.7409
   94MOL0     C12278   3.236   4.531   4.262  0.8359 -0.2962  0.2414
   94MOL0     O12279   3.280   4.478   4.381  0.2874  0.7020 -0.7835
   94MOL0     C12280   3.394   4.404   4.380  0.1714 -0.9299  0.0515
   94MOL0     C12281   3.520   4.461   4.389  0.2683 -0.5696 -0.5077
   94MOL0     C12282   3.639   4.390   4.414 -0.1184 -0.2153 -1.0916
   94MOL0     C12283   3.640   4.252   4.428  1.0018  0.5288 -0.3721
   94MOL0     O12284   3.735   4.164   4.470  0.0912 -0.3557  0.5422
   94MOL0     C12285   3.873   4.203   4.461  1.3079 -0.3746  0.0438
   94MOL0     C12286   3.953   4.121   4.370 -0.6586 -0.0676  0.7004
   94MOL0     C12287   4.108   4.166   4.381 -0.1070 -0.1312 -0.3026
   94MOL0     C12288   4.186   4.089   4.266  0.4351 -0.9760 -0.6899
   94MOL0     C12289   4.337   4.129   4.260  0.2260 -0.6111 -0.4396
   94MOL0     C12290   4.402   4.085   4.395  0.9133  0.4052  0.6722
   94MOL0     C12291   4.543   4.061   4.378 -0.2223 -0.3437 -1.8648
   94MOL0     C12292   4.568   3.924   4.315  0.2987 -0.0449  0.3357
   94MOL0     N12293   4.715   3.890   4.308 -0.5879  0.0170 -0.6561
   94MOL0     C12294   4.789   3.826   4.404  0.6908 -0.5774  0.1879
   94MOL0     C12295   4.913   3.862   4.382  0.9146  0.6205  0.0054
   94MOL0     C12296   5.032   3.845   4.474 -0.1619 -0.0649 -0.6272
   94MOL0     C12297   5.118   3.723   4.422 -0.1579  0.3433 -0.5224
   94MOL0     C12298   5.169   3.645   4.537 -0.0773  0.1006  0.8699
   94MOL0     C12299   5.266   3.727   4.623 -0.1234 -0.1734 -0.8237
   94MOL0     O12300   5.309   3.642   4.737  0.2056 -0.1956  0.2732
   94MOL0     C12301   5.377   3.712   4.832 -0.4803  0.5361 -0.2273
   94MOL0     C12302   5.504   3.674   4.856  0.4302  0.4047 -0.0275
   94MOL0     C12303   5.577   3.714   4.965  0.4611 -0.4789  0.0195
   94MOL0     C12304   5.518   3.798   5.062  1.0495 -0.3689  0.5183
   94MOL0     C12305   5.601   3.826   5.176 -0.2459 -0.9750 -0.5173
   94MOL0     O12306   5.730   3.785   5.165  0.4081 -0.5808  0.4868
   94MOL0     C12307   5.791   3.806   5.284  0.5404 -0.4079  0.7195
   94MOL0     C12308   5.787   3.707   5.377  0.1213 -0.1203  0.1074
   94MOL0     C12309   5.844   3.735   5.497  0.0668  0.3597 -0.7551
   94MOL0     C12310   5.936   3.841   5.507  0.2119 -0.1498 -0.0094
   94MOL0     O12311   6.012   3.867   5.612 -0.4295  0.3621  0.5426
   94MOL0     C12312   6.118   3.770   5.649  0.1414 -0.4791  0.2207
   94MOL0     C12313   6.222   3.762   5.541 -0.2143 -0.2982  0.0270
   94MOL0     C12314   6.355   3.701   5.602  0.7523  0.3057 -0.1110
   94MOL0     C12315   6.461   3.639   5.501 -0.0040  0.4635  0.6165
   94MOL0     C12316   6.596   3.612   5.555 -0.0384 -1.0102  0.0788
   94MOL0     C12317   6.672   3.747   5.546 -0.1615  0.9848 -0.3028
   94MOL0     C12318   6.820   3.726   5.597  0.1507  0.2283  0.0152
   94MOL0     C12319   6.825   3.752   5.750  0.2091 -1.0722 -0.1840
   94MOL0    Cl12320   6.972   3.677   5.832  0.1062 -0.5995  0.1796
   94MOL0     C12321   5.954   3.929   5.398  0.6488  0.1789  0.0398
   94MOL0     C12322   5.875   3.917   5.290 -0.5044  0.3127  0.5293
   94MOL0     O12323   5.550   3.885   5.266  0.0746 -0.2473 -0.0456
   94MOL0     C12324   5.387   3.844   5.033 -0.2164  0.0896 -0.2477
   94MOL0     C12325   5.319   3.806   4.918  0.1268  0.3673 -0.4598
   94MOL0     N12326   4.921   3.945   4.271 -0.5717  0.0835 -0.4573
   94MOL0     N12327   4.805   3.952   4.225 -0.4656 -0.5506 -0.2318
   94MOL0     C12328   3.513   4.193   4.402 -0.2737  0.5686  0.0052
   94MOL0     C12329   3.397   4.264   4.375  0.0731 -0.4126 -0.7899
   94MOL0     C12330   3.108   4.603   4.270 -0.4391  0.3903 -1.0945
   94MOL0     C12331   3.012   4.579   4.365 -0.6923 -0.0271 -0.3467
   94MOL0     C12332   2.892   4.652   4.375 -0.2501  0.3798  0.7143
   94MOL0     C12333   2.859   4.736   4.273 -0.8458 -0.3446 -0.3534
   94MOL0     O12334   2.736   4.786   4.270  0.4320  0.2596 -0.4885
   94MOL0     C12335   2.697   4.879   4.171  1.4298 -0.0586  0.1831
   94MOL0     C12336   2.554   4.926   4.205 -0.3349  0.8301 -0.7877
   94MOL0     C12337   2.530   5.043   4.295  0.9408 -0.0708 -0.6829
   94MOL0     C12338   2.406   5.106   4.263 -0.3166 -0.3398  0.2281
   94MOL0     C12339   2.379   5.188   4.389  0.9198 -0.6740  0.0588
   94MOL0     C12340   2.328   5.233   4.487 -1.3428 -0.8038  0.7225
   94MOL0     C12341   2.957   4.767   4.172  0.2482 -0.3851  0.4114
   94MOL0     C12342   3.081   4.701   4.171  0.3603 -0.1461 -0.4562
   94MOL0     H12343   3.527   4.569   4.382  1.3663 -0.4565  1.3588
   94MOL0     H12344   3.732   4.447   4.418 -0.6391  0.5923  0.2270
   94MOL0     H12345   3.911   4.202   4.563  2.6313 -0.8378 -0.4278
   94MOL0     H12346   3.892   4.306   4.429 -1.2330 -0.5031 -2.3287
   94MOL0     H12347   3.923   4.136   4.267  0.7932  1.9469  0.5119
   94MOL0     H12348   3.939   4.014   4.390 -0.8255 -0.0811  0.5164
   94MOL0     H12349   4.142   4.147   4.483  2.2784 -0.2786 -1.0727
   94MOL0     H12350   4.132   4.272   4.371  2.1002 -0.6900 -1.4305
   94MOL0     H12351   4.188   3.979   4.272  1.2141 -1.2080 -3.6600
   94MOL0     H12352   4.144   4.111   4.168  0.6097  0.1576 -0.5219
   94MOL0     H12353   4.347   4.231   4.220  1.9141 -0.5827  0.0019
   94MOL0     H12354   4.370   4.061   4.181  1.0516  0.4104 -1.0015
   94MOL0     H12355   4.360   3.991   4.432  3.4614  0.0701  3.0764
   94MOL0     H12356   4.391   4.168   4.465  1.2496  2.1333 -1.2480
   94MOL0     H12357   4.584   4.149   4.327  0.9686 -1.6687 -3.2815
   94MOL0     H12358   4.599   4.059   4.472  0.6338 -1.7406 -2.3786
   94MOL0     H12359   4.527   3.921   4.214 -1.5916  0.9778  1.0337
   94MOL0     H12360   4.522   3.848   4.379  1.6657  0.3692  1.8972
   94MOL0     H12361   4.750   3.758   4.479  3.3941 -2.6309 -0.0995
   94MOL0     H12362   4.993   3.836   4.576 -0.6733 -0.6517 -0.8602
   94MOL0     H12363   5.091   3.936   4.470 -0.2972  0.0279 -0.5187
   94MOL0     H12364   5.208   3.757   4.369  1.2209 -0.5779  1.1516
   94MOL0     H12365   5.057   3.668   4.350 -2.3076  1.0529  0.6648
   94MOL0     H12366   5.085   3.615   4.600 -0.6150  2.5180  1.4075
   94MOL0     H12367   5.230   3.562   4.500 -1.2324 -1.0838  1.5185
   94MOL0     H12368   5.227   3.823   4.657  1.0057  0.0187 -0.0328
   94MOL0     H12369   5.359   3.756   4.573  1.0447  2.7734  2.6222
   94MOL0     H12370   5.556   3.609   4.786  1.9635  2.0757 -0.5285
   94MOL0     H12371   5.682   3.692   4.979  0.2080 -0.9351  1.3024
   94MOL0     H12372   5.730   3.617   5.354  0.4460  0.0513 -1.5021
   94MOL0     H12373   5.839   3.672   5.585 -1.2127  0.1554 -0.9519
   94MOL0     H12374   6.077   3.671   5.672  2.2114 -1.8706 -1.6974
   94MOL0     H12375   6.169   3.807   5.738 -0.1448  1.7600 -0.4748
   94MOL0     H12376   6.252   3.859   5.502 -2.9375 -0.3029 -2.4385
   94MOL0     H12377   6.180   3.702   5.459  0.7586  1.0598 -1.5262
   94MOL0     H12378   6.321   3.626   5.674 -1.7598 -2.3916 -3.7454
   94MOL0     H12379   6.409   3.777   5.660  2.1100  0.6921 -1.8162
   94MOL0     H12380   6.416   3.544   5.471 -0.2175  0.4259  1.0422
   94MOL0     H12381   6.462   3.700   5.410 -3.5245  0.4669  0.4485
   94MOL0     H12382   6.630   3.538   5.482  1.5600 -1.8061  1.5655
   94MOL0     H12383   6.594   3.559   5.650 -4.9522 -3.2310 -0.9503
   94MOL0     H12384   6.621   3.821   5.607  0.0460  1.1013 -0.2721
   94MOL0     H12385   6.676   3.788   5.445 -2.5943  1.7624 -0.1435
   94MOL0     H12386   6.846   3.620   5.582  1.8821  0.4636  1.1252
   94MOL0     H12387   6.893   3.790   5.548  0.6771 -1.0995 -1.0047
   94MOL0     H12388   6.739   3.711   5.804 -1.3591  4.1830  1.9386
   94MOL0     H12389   6.838   3.858   5.774  4.1308 -1.1815 -1.1660
   94MOL0     H12390   6.051   3.978   5.399  1.4606 -1.3541  1.2155
   94MOL0     H12391   5.882   3.980   5.201  1.4943 -0.3474  0.1665
   94MOL0     H12392   5.345   3.917   5.101  1.6629  0.4893  0.5485
   94MOL0     H12393   5.217   3.843   4.913  0.2040  0.3891 -2.7904
   94MOL0     H12394   3.508   4.085   4.406 -2.9910  0.6306  0.0506
   94MOL0     H12395   3.304   4.209   4.381 -0.8997  1.2913  0.4552
   94MOL0     H12396   3.032   4.501   4.438 -0.0086 -2.0119 -2.5325
   94MOL0     H12397   2.823   4.633   4.457  0.5837  3.1447  2.2112
   94MOL0     H12398   2.689   4.835   4.071 -4.5921  0.9853 -0.2136
   94MOL0     H12399   2.762   4.967   4.183  0.9274 -0.0415  4.0654
   94MOL0     H12400   2.507   4.961   4.112 -1.3231 -3.5940 -2.1923
   94MOL0     H12401   2.496   4.836   4.225  0.3822  0.2627 -1.2230
   94MOL0     H12402   2.607   5.120   4.286  0.1373  0.7128 -0.9477
   94MOL0     H12403   2.520   5.010   4.399 -0.3404  1.3786 -0.3076
   94MOL0     H12404   2.413   5.176   4.179 -0.7633 -0.9209 -0.3016
   94MOL0     H12405   2.330   5.033   4.236 -0.7660  0.0050  0.5331
   94MOL0     H12406   2.283   5.280   4.572  2.1985  0.1096  2.2939
   94MOL0     H12407   2.929   4.831   4.089 -1.2157 -2.3914 -0.7515
   94MOL0     H12408   3.141   4.710   4.081 -1.8138 -0.8458 -2.0562
   95MOL0     O12409   0.434  11.292   4.372 -0.2170 -0.6098 -0.2414
   95MOL0     C12410   0.485  11.184   4.370 -0.2121  0.7995  0.1271
   95MOL0     O12411   0.511  11.107   4.472 -0.2282  0.1311 -0.3425
   95MOL0     C12412   0.495  11.137   4.609  0.5866 -0.2871 -0.9396
   95MOL0     C12413   0.513  11.256   4.676 -0.7817 -0.2297  0.1613
   95MOL0     C12414   0.483  11.277   4.807 -0.9162  0.0766 -0.1589
   95MOL0     C12415   0.425  11.178   4.881  0.5452  0.2434 -0.0927
   95MOL0     O12416   0.390  11.204   5.015 -0.1348 -0.0542 -0.1412
   95MOL0     C12417   0.459  11.309   5.090 -0.0022 -0.2509 -0.3219
   95MOL0     C12418   0.471  11.276   5.241  0.8012 -0.1472 -0.1026
   95MOL0     C12419   0.463  11.408   5.334  0.0782  0.9678 -0.0412
   95MOL0     C12420   0.522  11.400   5.483 -0.4273  0.4117  0.2343
   95MOL0     C12421   0.475  11.515   5.563  0.3132 -0.8367  0.2231
   95MOL0     C12422   0.548  11.526   5.698  0.0617  0.6924 -0.3514
   95MOL0     C12423   0.492  11.426   5.794  0.0908 -0.8752  0.0726
   95MOL0     C12424   0.571  11.419   5.926 -1.1982 -0.0694  0.0513
   95MOL0     N12425   0.500  11.339   6.027  0.8971 -0.5138  0.5416
   95MOL0     C12426   0.491  11.200   6.028  0.0284  1.4191 -0.2048
   95MOL0     C12427   0.434  11.174   6.150  0.4220  0.5267 -0.0808
   95MOL0     C12428   0.412  11.036   6.195  0.6034 -0.3256 -0.5313
   95MOL0     C12429   0.441  11.024   6.341  1.1461  0.0772  0.0698
   95MOL0     C12430   0.397  10.879   6.393 -0.1339  1.2205  0.2363
   95MOL0     C12431   0.444  10.840   6.531  0.0351 -0.8566  0.2315
   95MOL0     O12432   0.557  10.919   6.578 -0.7300  0.7657  0.5314
   95MOL0     C12433   0.684  10.879   6.554 -0.0634 -1.1065  0.2298
   95MOL0     C12434   0.777  10.957   6.625 -0.3738  0.6092  0.6343
   95MOL0     C12435   0.913  10.931   6.596 -0.3567 -0.1546  0.9112
   95MOL0     C12436   0.950  10.815   6.517 -0.7173  0.5016 -0.2250
   95MOL0     C12437   1.105  10.790   6.494  0.4257 -1.0801 -0.3339
   95MOL0     O12438   1.199  10.850   6.578  0.8494  0.0818  0.1585
   95MOL0     C12439   1.324  10.797   6.597 -0.0178  0.0433 -0.0860
   95MOL0     C12440   1.353  10.667   6.633 -0.4550 -0.8713  0.0198
   95MOL0     C12441   1.491  10.638   6.662  0.1304  0.5945 -0.4051
   95MOL0     C12442   1.599  10.732   6.633  0.6162 -0.4750 -0.3494
   95MOL0     O12443   1.724  10.690   6.656 -0.6496 -0.1988 -0.0951
   95MOL0     C12444   1.830  10.719   6.562  0.0611 -0.1399  0.2199
   95MOL0     C12445   1.955  10.650   6.614  0.9792  0.5411  0.1360
   95MOL0     C12446   2.060  10.609   6.499 -0.0355  0.0673 -0.5286
   95MOL0     C12447   2.100  10.743   6.412 -0.1114  0.5484 -0.7518
   95MOL0     C12448   2.235  10.705   6.351 -0.6094 -0.0371 -0.4672
   95MOL0     C12449   2.252  10.805   6.228  0.8500  0.5403  0.1766
   95MOL0     C12450   2.380  10.775   6.151  0.4358 -0.7862 -0.6378
   95MOL0     C12451   2.383  10.826   6.003  0.2752 -0.1499 -0.3405
   95MOL0    Cl12452   2.401  11.007   6.006  0.0309  0.2025 -0.0626
   95MOL0     C12453   1.570  10.856   6.568 -1.0650  0.0444 -0.3521
   95MOL0     C12454   1.433  10.884   6.558  0.3946 -0.0764 -0.2989
   95MOL0     O12455   1.135  10.710   6.409  0.1662  0.0275  0.6752
   95MOL0     C12456   0.848  10.731   6.466 -1.5694 -0.3621  0.0211
   95MOL0     C12457   0.718  10.763   6.485  0.2882 -0.1433 -0.0530
   95MOL0     N12458   0.407  11.289   6.217  0.1252  0.1010  1.0371
   95MOL0     N12459   0.452  11.387   6.151  0.4234  0.4617  1.2022
   95MOL0     C12460   0.393  11.059   4.816  0.7292  0.3602  0.2132
   95MOL0     C12461   0.448  11.034   4.683  0.8407 -0.1429 -0.4177
   95MOL0     C12462   0.525  11.127   4.237  0.2663  0.3858 -1.0476
   95MOL0     C12463   0.523  11.205   4.119 -0.1007  0.4054 -0.2178
   95MOL0     C12464   0.569  11.153   3.997  0.7022  0.8543 -1.0007
   95MOL0     C12465   0.596  11.018   3.987 -0.4578  0.6398  0.0165
   95MOL0     O12466   0.624  10.951   3.868  0.0864 -0.4588  0.2688
   95MOL0     C12467   0.574  11.005   3.739  0.3038 -0.6913 -1.2227
   95MOL0     C12468   0.425  11.005   3.717  0.7161  0.5573 -0.2790
   95MOL0     C12469   0.364  10.873   3.670 -0.0207  0.3230  0.0978
   95MOL0     C12470   0.414  10.828   3.522  0.6769  0.6020 -0.3897
   95MOL0     C12471   0.370  10.696   3.478  0.7248  0.6382 -0.2105
   95MOL0     C12472   0.330  10.587   3.432  0.4058 -0.9079  0.4305
   95MOL0     C12473   0.612  10.941   4.104 -0.2318 -0.0617 -0.2918
   95MOL0     C12474   0.569  10.994   4.223  0.5667  0.0839 -0.1398
   95MOL0     H12475   0.561  11.328   4.611 -4.6953  0.7442 -1.9460
   95MOL0     H12476   0.516  11.370   4.852  0.1455  0.6326 -1.9913
   95MOL0     H12477   0.404  11.401   5.066 -0.6190 -0.6624 -0.5073
   95MOL0     H12478   0.564  11.318   5.063  0.4601 -3.7933 -0.0756
   95MOL0     H12479   0.568  11.233   5.265  1.9784  3.9487  4.0584
   95MOL0     H12480   0.396  11.202   5.271  0.2607  0.0144 -1.0315
   95MOL0     H12481   0.362  11.448   5.335 -1.2384 -2.0395  1.8871
   95MOL0     H12482   0.538  11.471   5.285  6.0654 -3.1334  2.5334
   95MOL0     H12483   0.505  11.303   5.531  2.5252  0.7493  2.2522
   95MOL0     H12484   0.631  11.409   5.474 -0.4465 -0.7984 -1.8338
   95MOL0     H12485   0.367  11.507   5.583  0.4884 -2.5062  0.6435
   95MOL0     H12486   0.497  11.606   5.505 -0.8992 -0.7415 -0.1235
   95MOL0     H12487   0.524  11.627   5.734 -1.0052 -0.4470  2.4167
   95MOL0     H12488   0.655  11.503   5.692 -0.2337 -1.6511  1.8406
   95MOL0     H12489   0.387  11.451   5.812 -0.2564 -2.0179 -0.2678
   95MOL0     H12490   0.498  11.322   5.761  1.1530 -1.5091  2.1110
   95MOL0     H12491   0.585  11.517   5.972  0.2713 -0.3998  0.3511
   95MOL0     H12492   0.669  11.377   5.904 -1.9142 -1.2976 -0.9489
   95MOL0     H12493   0.514  11.121   5.958 -0.9968 -0.3290  1.3459
   95MOL0     H12494   0.475  10.967   6.138  1.6721 -0.6856  1.0378
   95MOL0     H12495   0.306  11.012   6.177  0.0278  0.9715  0.8920
   95MOL0     H12496   0.391  11.095   6.407  2.4006  1.9244 -0.8777
   95MOL0     H12497   0.550  11.034   6.353  1.0806  2.5792 -0.9401
   95MOL0     H12498   0.289  10.864   6.387  0.1059 -1.5844  1.5632
   95MOL0     H12499   0.439  10.805   6.324  2.1936  3.8922 -1.4421
   95MOL0     H12500   0.457  10.731   6.534  1.8885 -0.6612  0.9068
   95MOL0     H12501   0.359  10.874   6.592  3.0049  3.3346  2.6091
   95MOL0     H12502   0.740  11.039   6.685  0.6634  0.4816  1.4773
   95MOL0     H12503   0.990  10.998   6.634  2.8116 -2.3506 -1.1334
   95MOL0     H12504   1.277  10.589   6.640  0.3043 -1.6282  0.0189
   95MOL0     H12505   1.514  10.547   6.716 -0.2148  2.1350  2.5542
   95MOL0     H12506   1.835  10.827   6.543  1.2634 -0.2797 -0.3722
   95MOL0     H12507   1.809  10.666   6.468  5.3727 -1.7536 -0.3913
   95MOL0     H12508   1.925  10.561   6.671 -1.6988  2.7168  2.4690
   95MOL0     H12509   1.997  10.711   6.694 -4.5058  3.7049  1.1454
   95MOL0     H12510   2.034  10.527   6.432  1.7021 -0.3758 -0.7009
   95MOL0     H12511   2.148  10.570   6.550 -0.9699 -0.5289  0.6729
   95MOL0     H12512   2.029  10.774   6.334  0.4519  1.5973 -0.8647
   95MOL0     H12513   2.114  10.829   6.479 -0.4106 -1.0675  1.5131
   95MOL0     H12514   2.235  10.603   6.313 -0.8231 -0.2158  0.0004
   95MOL0     H12515   2.316  10.707   6.425 -1.3032 -2.1521  0.4351
   95MOL0     H12516   2.263  10.906   6.267 -0.2057  0.3481  1.0305
   95MOL0     H12517   2.167  10.801   6.159  0.3710 -0.3841  0.7905
   95MOL0     H12518   2.460  10.827   6.206 -1.7398 -1.2380  3.3667
   95MOL0     H12519   2.407  10.669   6.149 -0.1441 -0.9330 -3.4595
   95MOL0     H12520   2.292  10.789   5.953 -1.0500 -0.2578  1.9762
   95MOL0     H12521   2.467  10.773   5.959  1.3850  0.2731  1.1982
   95MOL0     H12522   1.643  10.936   6.562 -0.6115 -0.2866  0.5845
   95MOL0     H12523   1.406  10.985   6.527 -1.1298 -0.2427  0.4138
   95MOL0     H12524   0.870  10.640   6.411  2.6016  0.0172  0.7583
   95MOL0     H12525   0.649  10.693   6.439  0.5217  0.8963 -2.1060
   95MOL0     H12526   0.340  10.983   4.873  1.5805 -3.2467 -3.2915
   95MOL0     H12527   0.433  10.937   4.637 -1.6727 -0.3576  0.7304
   95MOL0     H12528   0.500  11.310   4.130 -2.3884 -0.2605  3.7781
   95MOL0     H12529   0.558  11.222   3.913 -1.6946 -0.2709 -1.7025
   95MOL0     H12530   0.628  10.950   3.662  2.5954 -3.0523  1.8140
   95MOL0     H12531   0.597  11.111   3.727 -3.1166  0.2213 -0.6781
   95MOL0     H12532   0.380  11.034   3.813  0.8188 -0.4759  0.0999
   95MOL0     H12533   0.399  11.085   3.648 -2.2204  0.5607  0.6963
   95MOL0     H12534   0.256  10.890   3.669  0.1664  1.6331 -0.6343
   95MOL0     H12535   0.392  10.793   3.738  0.3489  0.9181  0.6592
   95MOL0     H12536   0.403  10.906   3.446 -0.4713 -0.0630 -0.9347
   95MOL0     H12537   0.522  10.818   3.540  0.5778  0.2627  0.0231
   95MOL0     H12538   0.295  10.500   3.380 -0.1709 -1.1909  1.2638
   95MOL0     H12539   0.648  10.839   4.094 -1.3538 -0.4422 -0.5779
   95MOL0     H12540   0.577  10.935   4.313  3.3145 -0.2668 -0.5012
   96MOL0     O12541   8.487   6.470   7.204 -0.3210  0.5460  1.0351
   96MOL0     C12542   8.506   6.591   7.206  0.5140  0.6949  0.2757
   96MOL0     O12543   8.527   6.678   7.314 -0.2410 -0.0404 -0.1274
   96MOL0     C12544   8.515   6.647   7.443 -0.3391 -0.4048  0.1017
   96MOL0     C12545   8.579   6.738   7.526 -0.4681 -0.5227 -0.2750
   96MOL0     C12546   8.558   6.740   7.660  0.2549 -0.5162  0.2946
   96MOL0     C12547   8.485   6.638   7.721 -0.0108 -1.0505  0.3282
   96MOL0     O12548   8.471   6.665   7.855  0.1739  1.0053  0.0611
   96MOL0     C12549   8.370   6.595   7.912  0.0774  0.8921 -1.5110
   96MOL0     C12550   8.323   6.659   8.041  0.6849  0.7204 -0.2725
   96MOL0     C12551   8.173   6.644   8.058 -0.5064 -0.1056 -0.0617
   96MOL0     C12552   8.134   6.696   8.200 -0.8311  0.2217  0.4791
   96MOL0     C12553   7.988   6.721   8.234 -0.0102  0.3837  0.4522
   96MOL0     C12554   7.898   6.596   8.207 -0.4512  0.1108  0.9767
   96MOL0     C12555   7.750   6.635   8.236 -0.0778  0.0663  0.4369
   96MOL0     C12556   7.725   6.686   8.383 -0.1909 -0.1470 -0.3852
   96MOL0     N12557   7.589   6.706   8.431 -0.0940  0.6267  0.0051
   96MOL0     C12558   7.505   6.616   8.496 -0.0576  0.1664  1.0753
   96MOL0     C12559   7.406   6.684   8.544 -0.4966  0.0226  0.6156
   96MOL0     C12560   7.286   6.623   8.627  0.7811  0.6723  0.6723
   96MOL0     C12561   7.312   6.625   8.775  0.8336  0.0720 -0.9340
   96MOL0     C12562   7.329   6.762   8.831  0.2090  0.3788  0.4355
   96MOL0     C12563   7.350   6.761   8.983  0.1459  0.0690 -0.4701
   96MOL0     O12564   7.484   6.753   9.026 -0.4427  0.4001 -0.4564
   96MOL0     C12565   7.474   6.698   9.152 -0.3147  0.9852 -0.7492
   96MOL0     C12566   7.484   6.554   9.164  0.3149  0.9605  0.2293
   96MOL0     C12567   7.488   6.508   9.298  0.8515 -0.4691  0.1304
   96MOL0     C12568   7.462   6.586   9.408  0.5256  0.1908 -0.9468
   96MOL0     C12569   7.448   6.524   9.546  0.4534 -0.3161  0.4480
   96MOL0     O12570   7.443   6.611   9.645 -0.1704 -0.4035  0.2942
   96MOL0     C12571   7.406   6.555   9.762  0.3974 -0.1877 -1.4693
   96MOL0     C12572   7.499   6.512   9.852 -0.1720 -0.1474 -0.2410
   96MOL0     C12573   7.464   6.455   9.977 -0.0255 -0.2914 -0.8173
   96MOL0     C12574   7.329   6.458  10.025 -0.0860  1.2938  0.3191
   96MOL0     O12575   7.301   6.409  10.146  0.3134  0.4379 -0.2201
   96MOL0     C12576   7.262   6.274  10.137  0.2565  0.1029 -0.6795
   96MOL0     C12577   7.210   6.209  10.264  0.1067 -0.5201 -0.2227
   96MOL0     C12578   7.192   6.059  10.234  0.2515  0.7687  0.3343
   96MOL0     C12579   7.313   5.970  10.281 -0.0974  0.0213  0.5863
   96MOL0     C12580   7.265   5.823  10.290 -0.3866 -0.9455  0.0499
   96MOL0     C12581   7.335   5.748  10.405  0.3319 -0.4440  0.4697
   96MOL0     C12582   7.486   5.765  10.382  0.2728 -0.2826  0.9426
   96MOL0     C12583   7.568   5.681  10.480 -0.2538 -0.6828 -1.0833
   96MOL0    Cl12584   7.549   5.750  10.642 -0.0369  0.4182  0.2731
   96MOL0     C12585   7.234   6.498   9.927 -0.3094 -0.3001  0.2999
   96MOL0     C12586   7.267   6.544   9.800 -0.1408  0.1328  0.2585
   96MOL0     O12587   7.419   6.401   9.555  0.6073  0.1665  0.0381
   96MOL0     C12588   7.438   6.724   9.384  0.2101 -1.0504 -0.2391
   96MOL0     C12589   7.461   6.784   9.256  0.2424 -0.1689 -0.1681
   96MOL0     N12590   7.423   6.824   8.504  0.3687 -0.7806 -1.1268
   96MOL0     N12591   7.535   6.834   8.440  0.2021  0.3981 -0.1599
   96MOL0     C12592   8.446   6.535   7.644  0.0330  0.6446 -1.3045
   96MOL0     C12593   8.447   6.539   7.505 -0.7352 -0.2940 -0.0474
   96MOL0     C12594   8.465   6.643   7.080  0.0196 -0.7310 -0.0416
   96MOL0     C12595   8.374   6.749   7.080  0.0744 -0.2657  1.2940
   96MOL0     C12596   8.320   6.808   6.965  0.8072  0.0409  0.8942
   96MOL0     C12597   8.360   6.757   6.843  0.1847  0.1396  0.8456
   96MOL0     O12598   8.287   6.799   6.735  0.0105 -0.1349 -0.7085
   96MOL0     C12599   8.313   6.751   6.608  0.2835 -0.0388 -0.8088
   96MOL0     C12600   8.225   6.841   6.521 -0.0969  0.1888  0.2145
   96MOL0     C12601   8.206   6.800   6.382 -0.0102 -0.5244 -0.4321
   96MOL0     C12602   8.156   6.655   6.360  0.0888 -0.7147 -0.1809
   96MOL0     C12603   8.104   6.631   6.234 -0.9926  0.0984  0.3334
   96MOL0     C12604   8.046   6.638   6.130 -0.2931  0.8935  0.1152
   96MOL0     C12605   8.456   6.650   6.843 -0.1591 -0.3445 -0.3343
   96MOL0     C12606   8.506   6.595   6.955 -1.1248 -0.6106 -0.4837
   96MOL0     H12607   8.631   6.824   7.484 -0.0978 -2.1319 -3.3726
   96MOL0     H12608   8.613   6.815   7.715  1.7001  0.5520 -2.4098
   96MOL0     H12609   8.389   6.489   7.926 -3.4915  0.0451 -2.1413
   96MOL0     H12610   8.283   6.607   7.847  0.5514  2.0312 -1.9603
   96MOL0     H12611   8.356   6.763   8.047 -1.4337  1.5645 -2.0084
   96MOL0     H12612   8.362   6.605   8.128  1.1028  1.1609 -0.1885
   96MOL0     H12613   8.148   6.538   8.049 -0.8069  0.0205 -0.7027
   96MOL0     H12614   8.113   6.692   7.981  0.1292 -1.1271 -1.2210
   96MOL0     H12615   8.176   6.624   8.270 -0.9273  1.8909  2.3489
   96MOL0     H12616   8.198   6.783   8.217  1.4172 -1.3024  0.0797
   96MOL0     H12617   7.941   6.811   8.193 -0.4106  0.2039  0.5081
   96MOL0     H12618   7.999   6.757   8.337  0.5332  2.8382 -0.4013
   96MOL0     H12619   7.926   6.513   8.273 -4.0738 -3.2895 -1.3065
   96MOL0     H12620   7.919   6.561   8.105 -2.8979 -2.0976  1.1378
   96MOL0     H12621   7.724   6.711   8.162  0.1639 -0.1433  0.1329
   96MOL0     H12622   7.694   6.543   8.215 -1.1921  0.7889  0.1666
   96MOL0     H12623   7.766   6.787   8.395 -0.1014 -0.2177 -0.1012
   96MOL0     H12624   7.770   6.623   8.461 -2.5602 -1.4052  0.0377
   96MOL0     H12625   7.520   6.514   8.529  2.2813  0.6883  1.7995
   96MOL0     H12626   7.274   6.516   8.604  3.8275  0.0474  1.5570
   96MOL0     H12627   7.191   6.676   8.613 -2.5458 -4.8416 -0.8858
   96MOL0     H12628   7.403   6.567   8.791  0.7831  0.7002  2.1628
   96MOL0     H12629   7.238   6.567   8.830  0.7394  0.0707 -1.0618
   96MOL0     H12630   7.410   6.815   8.780 -1.0863 -0.8622 -3.2359
   96MOL0     H12631   7.242   6.820   8.800  1.6174  1.7197 -1.1926
   96MOL0     H12632   7.298   6.670   9.015  2.0257 -0.6504  0.7763
   96MOL0     H12633   7.313   6.852   9.031 -0.8169 -0.3350 -0.4276
   96MOL0     H12634   7.496   6.493   9.076  2.9819  1.6076  0.0630
   96MOL0     H12635   7.489   6.402   9.319 -3.0492 -0.7621 -0.4205
   96MOL0     H12636   7.603   6.521   9.823  0.4429 -2.9854  0.8417
   96MOL0     H12637   7.531   6.428  10.058 -1.9845  0.1346  1.0562
   96MOL0     H12638   7.341   6.208  10.099  2.6816  1.1623  2.0686
   96MOL0     H12639   7.184   6.263  10.062  1.1369 -1.0653 -1.4711
   96MOL0     H12640   7.112   6.247  10.294 -1.9500 -5.1274 -0.2633
   96MOL0     H12641   7.282   6.219  10.346 -1.2021 -1.3635  1.0751
   96MOL0     H12642   7.172   6.039  10.129  4.1065 -0.1501 -0.3802
   96MOL0     H12643   7.101   6.028  10.286 -1.3674 -1.6628 -3.5740
   96MOL0     H12644   7.401   5.976  10.216  0.9922 -1.7423  1.8099
   96MOL0     H12645   7.348   6.011  10.377  1.9420 -2.0593  0.8259
   96MOL0     H12646   7.293   5.771  10.198  0.7360  1.2432 -0.9116
   96MOL0     H12647   7.156   5.814  10.291 -0.5042 -0.0312 -1.3870
   96MOL0     H12648   7.297   5.646  10.389 -0.8942 -0.1467  1.3189
   96MOL0     H12649   7.311   5.775  10.508  1.9820 -2.5060  1.4870
   96MOL0     H12650   7.516   5.737  10.281 -0.0152 -1.3572  1.1434
   96MOL0     H12651   7.516   5.870  10.393 -2.3501  1.1864 -3.3610
   96MOL0     H12652   7.676   5.683  10.458  0.3107 -1.5763  1.3078
   96MOL0     H12653   7.525   5.581  10.486 -1.7928  0.0309  1.1419
   96MOL0     H12654   7.131   6.512   9.958 -0.8644 -2.3368 -0.4398
   96MOL0     H12655   7.186   6.575   9.734 -3.2290 -4.1759  1.6185
   96MOL0     H12656   7.410   6.805   9.451 -0.6709  0.8142 -2.7054
   96MOL0     H12657   7.460   6.891   9.241 -1.5768 -0.3488 -1.7402
   96MOL0     H12658   8.413   6.438   7.680 -2.1481  1.4905 -0.8918
   96MOL0     H12659   8.401   6.455   7.455 -1.2321  1.1385 -2.1166
   96MOL0     H12660   8.342   6.780   7.179  1.0133  5.0823  0.2061
   96MOL0     H12661   8.256   6.895   6.974  2.4051  1.2740  0.5909
   96MOL0     H12662   8.283   6.646   6.608 -0.6982  0.0882  3.3049
   96MOL0     H12663   8.418   6.769   6.581  0.2699  3.5639  0.9447
   96MOL0     H12664   8.126   6.859   6.562 -0.5435 -2.0150  0.2038
   96MOL0     H12665   8.281   6.936   6.527  2.3350 -1.1636  0.3012
   96MOL0     H12666   8.296   6.823   6.325 -1.2956  0.6765 -2.0799
   96MOL0     H12667   8.130   6.872   6.347 -3.0444 -4.5813 -3.2000
   96MOL0     H12668   8.241   6.588   6.376 -0.8256 -1.2845  3.2396
   96MOL0     H12669   8.080   6.624   6.432  0.7486 -0.9139  0.4450
   96MOL0     H12670   7.991   6.631   6.038 -2.7985 -2.3892  1.6428
   96MOL0     H12671   8.493   6.607   6.751  1.1991 -1.3019  0.5970
   96MOL0     H12672   8.579   6.514   6.952 -1.6105 -1.0477 -0.7393
   97MOL0     O12673   5.936   0.730   3.504 -0.3092  0.2405  0.1136
   97MOL0     C12674   5.828   0.712   3.565  0.5774  0.5124 -0.0077
   97MOL0     O12675   5.705   0.757   3.531  0.8095 -0.7262 -0.6727
   97MOL0     C12676   5.684   0.796   3.402  0.5678  0.7342  0.5800
   97MOL0     C12677   5.732   0.915   3.362 -0.0672  0.1918  0.4544
   97MOL0     C12678   5.710   0.951   3.223 -0.4430  0.3140  0.2179
   97MOL0     C12679   5.639   0.878   3.132  0.4773  0.1804 -0.2607
   97MOL0     O12680   5.615   0.936   3.006  0.2643  0.3332 -0.6947
   97MOL0     C12681   5.493   0.906   2.934  0.8713 -0.1710 -0.7305
   97MOL0     C12682   5.505   0.794   2.822  0.5573  0.1034 -0.1716
   97MOL0     C12683   5.652   0.772   2.774 -0.2366 -0.5033 -0.6674
   97MOL0     C12684   5.641   0.670   2.661 -0.6241  0.3128  0.6720
   97MOL0     C12685   5.767   0.584   2.648  0.4712  0.0760  0.7085
   97MOL0     C12686   5.755   0.451   2.709 -0.1102  0.8294 -1.1189
   97MOL0     C12687   5.888   0.378   2.716 -0.6033  0.4207 -0.4438
   97MOL0     C12688   5.940   0.348   2.574  0.0375  0.5175 -0.1028
   97MOL0     N12689   6.065   0.271   2.577  0.1440 -0.7862 -0.1072
   97MOL0     C12690   6.179   0.299   2.638 -0.3788 -0.1531  0.0244
   97MOL0     C12691   6.250   0.184   2.646  0.1806  0.0650 -0.5109
   97MOL0     C12692   6.396   0.180   2.699  0.3038  0.8401  0.0633
   97MOL0     C12693   6.486   0.114   2.589  0.3149 -0.3026 -0.3761
   97MOL0     C12694   6.629   0.153   2.598 -1.0169  0.6363  0.1266
   97MOL0     C12695   6.724   0.057   2.507 -0.6211  0.5405  0.3687
   97MOL0     O12696   6.724  -0.075   2.544  0.5445 -0.2088 -0.1647
   97MOL0     C12697   6.807  -0.163   2.475  0.6632 -0.8955  0.0197
   97MOL0     C12698   6.898  -0.129   2.374  0.2498 -0.5422  1.0719
   97MOL0     C12699   6.976  -0.227   2.319 -0.2885  0.5207 -0.5338
   97MOL0     C12700   6.985  -0.355   2.378 -0.5624 -1.1031 -0.5158
   97MOL0     C12701   7.080  -0.449   2.319 -0.0583  0.3682 -1.6500
   97MOL0     O12702   7.181  -0.396   2.234  0.6514  0.6200  0.0846
   97MOL0     C12703   7.235  -0.485   2.151  0.0874 -0.8737  0.3374
   97MOL0     C12704   7.156  -0.564   2.073 -0.8668  0.0507  1.4259
   97MOL0     C12705   7.206  -0.639   1.974 -0.6615 -0.1275 -0.1360
   97MOL0     C12706   7.346  -0.633   1.948 -0.0845  0.1521 -0.3387
   97MOL0     O12707   7.405  -0.706   1.847  0.2680  0.2909  1.1619
   97MOL0     C12708   7.341  -0.832   1.804 -0.0281 -0.2138  0.0140
   97MOL0     C12709   7.444  -0.921   1.725 -0.0874  0.4620 -0.0932
   97MOL0     C12710   7.452  -1.067   1.764  0.4713  0.1563 -0.0684
   97MOL0     C12711   7.315  -1.130   1.740  0.7301 -0.5936  0.1707
   97MOL0     C12712   7.311  -1.281   1.729  0.1700  0.1666 -0.2627
   97MOL0     C12713   7.372  -1.349   1.843 -0.3597 -0.0669  0.5624
   97MOL0     C12714   7.361  -1.503   1.817 -0.0832 -0.3256 -1.1470
   97MOL0     C12715   7.343  -1.569   1.952  0.9276  0.2429 -0.1471
   97MOL0    Cl12716   7.182  -1.539   2.006  0.9944 -0.1078  0.3779
   97MOL0     C12717   7.429  -0.559   2.033  0.2845 -0.1169 -0.2542
   97MOL0     C12718   7.371  -0.479   2.136 -0.6721  1.6500 -1.0695
   97MOL0     O12719   7.076  -0.563   2.364 -0.7221  0.4690  0.9566
   97MOL0     C12720   6.898  -0.391   2.480  0.4371 -0.2759 -0.7279
   97MOL0     C12721   6.799  -0.301   2.510  0.0832 -0.4974  0.4382
   97MOL0     N12722   6.183   0.092   2.561  0.1921 -0.9866 -1.2652
   97MOL0     N12723   6.071   0.145   2.525  0.5547  0.2838  1.2821
   97MOL0     C12724   5.585   0.753   3.173 -0.3861 -0.8480 -0.6471
   97MOL0     C12725   5.607   0.716   3.313 -0.5390 -0.4638 -0.0283
   97MOL0     C12726   5.842   0.634   3.691  0.5470 -0.0682  0.2923
   97MOL0     C12727   5.737   0.551   3.734  0.2540 -0.7728 -0.1452
   97MOL0     C12728   5.753   0.472   3.849 -0.3173 -0.0460  0.5087
   97MOL0     C12729   5.876   0.474   3.926 -0.4353 -0.2186  0.0560
   97MOL0     O12730   5.865   0.403   4.041  0.4479  0.2461 -0.2049
   97MOL0     C12731   5.965   0.441   4.134 -0.1682 -0.0920  0.8484
   97MOL0     C12732   5.908   0.373   4.258  0.6537  0.5113 -0.2862
   97MOL0     C12733   6.011   0.361   4.368 -0.1797 -0.1863 -0.3682
   97MOL0     C12734   5.945   0.297   4.489  0.1972 -0.1807 -0.1473
   97MOL0     C12735   5.892   0.165   4.458 -0.2087  0.3419  0.0271
   97MOL0     C12736   5.842   0.055   4.432 -0.1587 -0.2897 -0.0294
   97MOL0     C12737   5.980   0.547   3.875 -0.0203 -0.3498  0.5902
   97MOL0     C12738   5.965   0.627   3.756  0.7299 -0.3967  0.0587
   97MOL0     H12739   5.777   0.968   3.445 -0.3532  1.3740 -0.1291
   97MOL0     H12740   5.756   1.047   3.203 -1.1258  0.5304 -0.3254
   97MOL0     H12741   5.455   0.997   2.888 -6.1066 -2.4283 -0.6299
   97MOL0     H12742   5.399   0.881   2.985  0.2702  2.0496 -0.6595
   97MOL0     H12743   5.447   0.824   2.734 -0.8749  2.4759  1.4650
   97MOL0     H12744   5.465   0.706   2.873  3.2505  0.1709  2.2835
   97MOL0     H12745   5.709   0.728   2.856  1.8456 -0.8149 -2.2067
   97MOL0     H12746   5.686   0.872   2.746  3.4013 -0.2623  3.5187
   97MOL0     H12747   5.550   0.611   2.660  0.8758 -2.2423  2.4941
   97MOL0     H12748   5.646   0.727   2.568 -0.0143 -1.3765 -0.3749
   97MOL0     H12749   5.850   0.644   2.684 -1.5898  3.6436 -0.0339
   97MOL0     H12750   5.779   0.574   2.539 -1.0672  2.0001  0.3142
   97MOL0     H12751   5.678   0.390   2.662 -1.2465  1.1072  0.2946
   97MOL0     H12752   5.733   0.482   2.812  0.5383  0.7651 -0.9563
   97MOL0     H12753   5.962   0.440   2.768  2.8139 -3.1915 -0.5405
   97MOL0     H12754   5.884   0.284   2.770 -0.9522  0.5056 -0.3196
   97MOL0     H12755   5.953   0.446   2.527 -1.3799  0.9812  0.4133
   97MOL0     H12756   5.863   0.301   2.512 -1.6756 -0.5230  2.6083
   97MOL0     H12757   6.204   0.396   2.679 -2.3009  0.0601  0.7819
   97MOL0     H12758   6.408   0.112   2.783  2.1577 -0.0511 -0.8428
   97MOL0     H12759   6.424   0.280   2.736 -0.1683  0.5251  1.3104
   97MOL0     H12760   6.451   0.162   2.497 -1.1372  1.9474  1.2408
   97MOL0     H12761   6.472   0.006   2.583  1.1590 -0.5092  0.9757
   97MOL0     H12762   6.654   0.257   2.578  1.0511  0.3082  0.7633
   97MOL0     H12763   6.661   0.133   2.701 -2.7189 -0.8723  0.4087
   97MOL0     H12764   6.828   0.090   2.514 -0.8447  0.9539  3.0574
   97MOL0     H12765   6.709   0.070   2.400  1.8556  1.5274  0.0765
   97MOL0     H12766   6.911  -0.029   2.333 -2.6261  0.6886  2.8669
   97MOL0     H12767   7.056  -0.197   2.253 -0.3195 -1.6516 -1.6660
   97MOL0     H12768   7.048  -0.550   2.079 -0.7280  1.0538  1.7638
   97MOL0     H12769   7.137  -0.685   1.903  0.2952 -0.8050 -0.6483
   97MOL0     H12770   7.253  -0.815   1.740  1.1746 -2.0674 -2.2690
   97MOL0     H12771   7.313  -0.896   1.888 -1.9794 -0.8844 -1.0710
   97MOL0     H12772   7.539  -0.876   1.755 -0.4959  2.7294 -1.8852
   97MOL0     H12773   7.433  -0.928   1.617  0.7176  1.8108 -0.2815
   97MOL0     H12774   7.477  -1.074   1.871  0.3774  1.6370  0.0728
   97MOL0     H12775   7.523  -1.124   1.703  0.1718  2.9874 -3.3734
   97MOL0     H12776   7.236  -1.092   1.805  0.3859 -1.4926  0.3001
   97MOL0     H12777   7.288  -1.101   1.638 -0.2814 -0.0502  0.5757
   97MOL0     H12778   7.360  -1.307   1.635  0.4028  2.7514 -0.9363
   97MOL0     H12779   7.206  -1.310   1.720  0.2753  0.2137 -1.9112
   97MOL0     H12780   7.334  -1.317   1.940 -0.1700 -0.2825  0.7091
   97MOL0     H12781   7.479  -1.326   1.837  0.1095 -2.2232 -0.7476
   97MOL0     H12782   7.290  -1.540   1.742  0.5592  1.4623 -2.7215
   97MOL0     H12783   7.457  -1.541   1.782  0.0939 -2.2224  1.2030
   97MOL0     H12784   7.409  -1.544   2.036  0.1298  0.7745  0.3376
   97MOL0     H12785   7.339  -1.679   1.948  0.1854  0.3001 -2.2455
   97MOL0     H12786   7.535  -0.552   2.012  0.2366 -1.4505 -0.9846
   97MOL0     H12787   7.416  -0.403   2.199  1.4462  1.7629 -2.6159
   97MOL0     H12788   6.905  -0.477   2.547  2.8367  1.9617  2.1746
   97MOL0     H12789   6.729  -0.324   2.590 -0.0345  0.7652  0.7124
   97MOL0     H12790   5.512   0.692   3.121  0.4905 -0.7471 -2.0397
   97MOL0     H12791   5.568   0.619   3.340 -4.5414  0.0946 -2.8845
   97MOL0     H12792   5.646   0.558   3.676  0.6142 -0.5676 -0.6963
   97MOL0     H12793   5.663   0.414   3.869  0.5123 -1.2010  1.0110
   97MOL0     H12794   5.976   0.550   4.144  1.5998 -0.3326  2.0656
   97MOL0     H12795   6.060   0.395   4.108  0.3564  2.6207 -2.8448
   97MOL0     H12796   5.824   0.438   4.284  1.3725  0.9736  0.9188
   97MOL0     H12797   5.872   0.272   4.237 -1.2933  0.8662  1.0238
   97MOL0     H12798   6.049   0.458   4.400  1.7208 -0.8040 -0.6394
   97MOL0     H12799   6.094   0.298   4.334 -1.2282 -2.3895  0.9270
   97MOL0     H12800   6.017   0.284   4.570 -0.7590  2.2193  1.2075
   97MOL0     H12801   5.864   0.361   4.527  2.5917  2.4613  0.8283
   97MOL0     H12802   5.794  -0.038   4.405 -0.3769  0.1777 -1.3358
   97MOL0     H12803   6.080   0.558   3.917 -0.5893  0.9611  1.6900
   97MOL0     H12804   6.054   0.675   3.718  1.3617 -1.0358  0.7080
   98MOL0     O12805   8.706  11.327   2.461  0.4140 -0.7270 -0.4496
   98MOL0     C12806   8.671  11.447   2.481 -0.2112 -0.5572 -0.2443
   98MOL0     O12807   8.763  11.552   2.510 -0.1267  0.1590 -0.2646
   98MOL0     C12808   8.881  11.510   2.559 -0.0345 -0.0188 -0.1895
   98MOL0     C12809   9.012  11.558   2.508 -0.5116 -0.7967 -0.0260
   98MOL0     C12810   9.128  11.501   2.566 -0.1069 -0.3962 -0.1214
   98MOL0     C12811   9.120  11.423   2.675 -0.4180  0.3621 -0.8779
   98MOL0     O12812   9.231  11.386   2.737 -0.9193  0.1558  0.0923
   98MOL0     C12813   9.243  11.352   2.880 -0.0283 -0.1095  0.0362
   98MOL0     C12814   9.393  11.370   2.918 -0.6475  0.0347  0.2965
   98MOL0     C12815   9.415  11.335   3.065 -0.3646 -0.1245  0.2796
   98MOL0     C12816   9.558  11.323   3.109 -0.3095  0.8207  0.0083
   98MOL0     C12817   9.568  11.290   3.261 -0.1142  0.4913  0.2967
   98MOL0     C12818   9.704  11.302   3.317 -0.7869  0.1959 -0.4493
   98MOL0     C12819   9.805  11.204   3.260 -0.9605  0.0107 -1.3266
   98MOL0     C12820   9.927  11.212   3.350  0.2474  0.0782  1.0082
   98MOL0     N12821  10.039  11.164   3.266 -0.1786  0.0558 -0.5255
   98MOL0     C12822  10.123  11.061   3.299  0.8075 -0.1623  0.2312
   98MOL0     C12823  10.187  11.030   3.188 -0.5966  0.6076 -0.4267
   98MOL0     C12824  10.295  10.927   3.176  0.1120 -0.2314  0.7417
   98MOL0     C12825  10.411  10.984   3.079 -0.2086  0.4646 -0.7899
   98MOL0     C12826  10.486  10.864   3.022 -0.9557  0.3504 -0.1213
   98MOL0     C12827  10.591  10.918   2.915 -0.1528 -0.1643 -1.0969
   98MOL0     O12828  10.533  10.887   2.783  0.3479  0.2094 -1.0024
   98MOL0     C12829  10.570  10.950   2.667 -0.9064 -0.0557 -0.7423
   98MOL0     C12830  10.481  11.035   2.606 -0.4284 -0.6263 -1.7317
   98MOL0     C12831  10.500  11.092   2.480  0.4960  0.3024  0.5856
   98MOL0     C12832  10.624  11.068   2.423  0.1220  0.0475 -0.2192
   98MOL0     C12833  10.652  11.126   2.286 -0.0961 -0.5469  0.7834
   98MOL0     O12834  10.755  11.063   2.208 -0.4015 -0.9435 -0.2325
   98MOL0     C12835  10.779  11.116   2.085 -0.1358 -0.7470 -0.2322
   98MOL0     C12836  10.804  11.025   1.981 -0.6588 -0.3208 -0.6128
   98MOL0     C12837  10.833  11.069   1.849 -0.3977 -0.0880 -0.7347
   98MOL0     C12838  10.842  11.210   1.820 -0.6626 -0.0728 -0.0290
   98MOL0     O12839  10.877  11.254   1.698 -0.5429 -0.0771  0.5710
   98MOL0     C12840  10.856  11.171   1.580  0.5804 -0.1040  0.6627
   98MOL0     C12841  10.880  11.243   1.449  0.1620 -0.1247 -0.3662
   98MOL0     C12842  10.844  11.148   1.324 -0.2547  0.8600 -0.0222
   98MOL0     C12843  10.814  11.248   1.207 -0.2021  0.0306 -0.0807
   98MOL0     C12844  10.854  11.206   1.069 -0.6449  1.2851  0.3134
   98MOL0     C12845  10.768  11.084   1.040 -0.9338  0.0310 -0.4288
   98MOL0     C12846  10.773  11.022   0.897  0.5722 -0.0251  0.3092
   98MOL0     C12847  10.651  10.931   0.899 -1.1296  0.2930 -0.7000
   98MOL0    Cl12848  10.650  10.867   0.727  0.0490 -0.2841 -0.5625
   98MOL0     C12849  10.814  11.293   1.925  0.2617  0.3892  0.2859
   98MOL0     C12850  10.779  11.245   2.052 -0.2464 -0.3023  0.4563
   98MOL0     O12851  10.563  11.203   2.247 -0.7224 -0.0672 -0.5633
   98MOL0     C12852  10.723  10.998   2.492  0.6263 -0.2395  1.5443
   98MOL0     C12853  10.697  10.935   2.613  0.2001 -0.1654  1.2750
   98MOL0     N12854  10.143  11.125   3.096 -0.9313  0.1655  0.0404
   98MOL0     N12855  10.064  11.206   3.148 -0.4156 -0.5279  0.1932
   98MOL0     C12856   8.999  11.386   2.734 -0.7163 -1.2187 -0.0125
   98MOL0     C12857   8.879  11.438   2.678  0.1293 -1.0499 -0.0878
   98MOL0     C12858   8.534  11.473   2.436  0.0716 -0.2014 -0.5057
   98MOL0     C12859   8.443  11.378   2.386  0.1614  0.3285 -0.9409
   98MOL0     C12860   8.325  11.417   2.327  0.0814  0.4418  0.5417
   98MOL0     C12861   8.294  11.556   2.317  0.3912  0.8491  0.5660
   98MOL0     O12862   8.179  11.587   2.257  0.3900 -0.6439 -0.5991
   98MOL0     C12863   8.179  11.688   2.157  0.0872  0.2395 -0.2246
   98MOL0     C12864   8.068  11.783   2.185  0.0546 -0.0660 -0.7190
   98MOL0     C12865   7.926  11.731   2.141 -0.4482  0.3233  0.3583
   98MOL0     C12866   7.913  11.694   1.994  0.3246  0.5515  0.7090
   98MOL0     C12867   7.939  11.809   1.902 -0.3343  0.2557  0.2381
   98MOL0     C12868   7.966  11.894   1.816  0.4094 -0.3530 -0.6185
   98MOL0     C12869   8.385  11.650   2.363 -0.5082  1.1033  1.0072
   98MOL0     C12870   8.500  11.607   2.424  0.3859  0.6268 -0.6631
   98MOL0     H12871   9.014  11.629   2.426 -1.9333 -1.0010 -0.2583
   98MOL0     H12872   9.228  11.536   2.540  0.0012 -2.0132 -2.0957
   98MOL0     H12873   9.217  11.247   2.895 -0.8477 -0.3813 -2.7813
   98MOL0     H12874   9.180  11.408   2.950  2.7778  0.3829  2.3499
   98MOL0     H12875   9.425  11.474   2.910 -0.9330  0.1662  0.8212
   98MOL0     H12876   9.457  11.314   2.848  0.4228  1.2286  0.2854
   98MOL0     H12877   9.361  11.242   3.086  0.5730 -0.9518 -0.8319
   98MOL0     H12878   9.376  11.412   3.133  0.8490  0.1963  0.6410
   98MOL0     H12879   9.596  11.244   3.044 -0.1461  0.7484  0.1896
   98MOL0     H12880   9.603  11.420   3.091  3.2284 -0.5100  0.9250
   98MOL0     H12881   9.537  11.189   3.291  1.2022  0.1930  0.7135
   98MOL0     H12882   9.500  11.357   3.315 -0.1825 -1.3568  2.6532
   98MOL0     H12883   9.696  11.288   3.425 -2.4483  0.2648 -0.5387
   98MOL0     H12884   9.741  11.403   3.294 -2.3955  0.9377  0.0616
   98MOL0     H12885   9.755  11.107   3.269  0.1107 -0.5039 -0.8318
   98MOL0     H12886   9.832  11.223   3.156  0.1715  3.3097 -0.5562
   98MOL0     H12887   9.907  11.149   3.437  2.3070  1.3319  2.4974
   98MOL0     H12888   9.964  11.307   3.389  0.5021 -0.0974  1.1950
   98MOL0     H12889  10.122  11.019   3.398 -2.0039  1.1462  0.8644
   98MOL0     H12890  10.241  10.843   3.131 -0.0088  0.2720 -0.0644
   98MOL0     H12891  10.343  10.891   3.268 -0.1566 -0.4186  0.8116
   98MOL0     H12892  10.481  11.048   3.132 -0.7061 -0.7660  1.4865
   98MOL0     H12893  10.355  11.030   2.997 -0.3368  0.4887 -0.6897
   98MOL0     H12894  10.533  10.822   3.112 -0.3112  0.5110 -0.3744
   98MOL0     H12895  10.413  10.795   2.979 -0.0901 -1.8334  1.6855
   98MOL0     H12896  10.680  10.855   2.921 -2.3388 -3.3404  1.2669
   98MOL0     H12897  10.606  11.025   2.933  0.5550 -0.2688 -1.0209
   98MOL0     H12898  10.390  11.058   2.662  1.2229 -3.6745  2.8598
   98MOL0     H12899  10.429  11.157   2.431  0.9626  0.3191 -0.0795
   98MOL0     H12900  10.790  10.919   2.004 -2.7294  0.6388  3.4157
   98MOL0     H12901  10.865  10.998   1.773  4.9846 -0.1656  1.1309
   98MOL0     H12902  10.753  11.135   1.594 -0.1250  1.3864 -0.4317
   98MOL0     H12903  10.918  11.082   1.592 -2.1476 -2.3330 -0.7513
   98MOL0     H12904  10.980  11.285   1.453 -0.6393  1.7108  2.2119
   98MOL0     H12905  10.808  11.325   1.457 -0.5700 -0.8619  0.9767
   98MOL0     H12906  10.753  11.091   1.344 -1.2452  2.6065  0.7879
   98MOL0     H12907  10.929  11.083   1.302  0.8526  1.1999  2.7809
   98MOL0     H12908  10.710  11.277   1.222  0.0714  1.0880 -0.1219
   98MOL0     H12909  10.866  11.343   1.221 -1.7024  1.0454 -1.1416
   98MOL0     H12910  10.962  11.197   1.061 -0.4386  3.7741 -0.8505
   98MOL0     H12911  10.832  11.286   0.997 -1.7204  0.5831 -0.1700
   98MOL0     H12912  10.668  11.112   1.076 -0.7662  0.6185 -0.4119
   98MOL0     H12913  10.814  11.016   1.112  0.2717  1.9922  0.7686
   98MOL0     H12914  10.770  11.096   0.816  1.8444 -0.8487 -0.5292
   98MOL0     H12915  10.869  10.972   0.881 -0.3773 -1.2168 -2.1074
   98MOL0     H12916  10.553  10.976   0.919 -1.1520  0.5077 -1.2780
   98MOL0     H12917  10.666  10.845   0.965 -0.2810  1.8422  1.2307
   98MOL0     H12918  10.815  11.399   1.903  1.7130  0.1013 -1.2490
   98MOL0     H12919  10.756  11.318   2.129  1.0321 -0.1190  0.6865
   98MOL0     H12920  10.824  10.993   2.452  0.1800  1.5023  0.0681
   98MOL0     H12921  10.767  10.861   2.651 -2.2793 -1.8904  2.8079
   98MOL0     H12922   8.971  11.340   2.828 -1.0700 -0.4763  0.2524
   98MOL0     H12923   8.786  11.416   2.730 -0.2079  1.6878  0.6205
   98MOL0     H12924   8.469  11.273   2.391  0.5676  0.4468 -0.4728
   98MOL0     H12925   8.246  11.358   2.280 -0.6148  0.8348  1.1938
   98MOL0     H12926   8.164  11.655   2.054  2.1714  1.7518 -1.0692
   98MOL0     H12927   8.274  11.741   2.156  0.6193 -0.7042 -0.3099
   98MOL0     H12928   8.064  11.809   2.291 -1.4885  4.5725 -1.6475
   98MOL0     H12929   8.080  11.880   2.136  1.5892  0.7386  1.1176
   98MOL0     H12930   7.866  11.822   2.152  1.1491  1.6735 -1.5524
   98MOL0     H12931   7.901  11.653   2.215  1.7009 -0.7074  0.0799
   98MOL0     H12932   7.987  11.615   1.977 -0.3868 -0.2431  1.2041
   98MOL0     H12933   7.810  11.662   1.971  0.3934 -0.4439  1.7131
   98MOL0     H12934   7.984  11.974   1.747  2.6612  1.2315  1.6354
   98MOL0     H12935   8.372  11.758   2.354 -1.3868  0.9002 -0.5233
   98MOL0     H12936   8.558  11.688   2.468 -2.2533  3.0201 -1.2729
   99MOL0     O12937   9.043   8.188   9.456  0.3916 -0.8866  0.5699
   99MOL0     C12938   8.936   8.246   9.424 -0.3608 -0.3237 -0.6002
   99MOL0     O12939   8.851   8.304   9.514 -0.1497  0.0874  0.0420
   99MOL0     C12940   8.889   8.308   9.648  0.2390 -0.5774  1.2167
   99MOL0     C12941   8.799   8.273   9.744  0.4540  0.8617 -0.6014
   99MOL0     C12942   8.826   8.287   9.882  0.5272  0.7124 -0.6737
   99MOL0     C12943   8.957   8.321   9.917  0.5345 -0.2790  0.3386
   99MOL0     O12944   8.983   8.325  10.051  0.3274 -0.1972 -0.7775
   99MOL0     C12945   9.055   8.209  10.096 -0.6763  0.3777  0.0833
   99MOL0     C12946   8.984   8.151  10.210 -0.1123  0.1085  0.3408
   99MOL0     C12947   9.017   8.248  10.328 -0.8027 -0.1949 -0.3275
   99MOL0     C12948   8.908   8.228  10.433  0.7480 -0.0074  0.5036
   99MOL0     C12949   8.948   8.314  10.552 -0.2878  0.3524 -0.0736
   99MOL0     C12950   8.831   8.366  10.632 -0.2062 -0.5260  0.4213
   99MOL0     C12951   8.889   8.472  10.738 -0.0161 -0.2968 -0.2180
   99MOL0     C12952   8.774   8.509  10.846  0.2401  0.3535  0.4180
   99MOL0     N12953   8.833   8.616  10.928  0.5208  0.1160  0.5099
   99MOL0     C12954   8.826   8.757  10.902  0.0051  0.8598  0.7342
   99MOL0     C12955   8.888   8.811  11.006  0.1597  0.1858 -0.1963
   99MOL0     C12956   8.951   8.947  11.025  0.8907  0.5909 -0.2829
   99MOL0     C12957   8.848   9.052  11.073  0.5449 -0.2313 -0.0573
   99MOL0     C12958   8.774   9.029  11.203  1.0279 -0.0915  0.6235
   99MOL0     C12959   8.866   9.062  11.317  0.1468  1.3493 -0.9387
   99MOL0     O12960   8.780   9.055  11.441  0.4224  0.2951  0.6912
   99MOL0     C12961   8.830   9.050  11.568  0.1429 -0.4221  0.2499
   99MOL0     C12962   8.744   9.016  11.673 -0.1343 -0.7218 -0.1449
   99MOL0     C12963   8.801   8.972  11.798  1.0446 -0.3656  0.2811
   99MOL0     C12964   8.935   8.995  11.831  0.0114 -0.0936  0.4685
   99MOL0     C12965   8.983   8.983  11.964 -0.8751 -0.3012  0.4187
   99MOL0     O12966   8.909   8.923  12.063 -0.6489  0.0934  0.6673
   99MOL0     C12967   8.946   8.923  12.192  0.4120 -0.4981  0.3125
   99MOL0     C12968   8.851   8.982  12.277  0.0973  0.3349  0.5477
   99MOL0     C12969   8.850   8.972  12.416  0.0324  0.2435 -0.3774
   99MOL0     C12970   8.951   8.888  12.475 -0.1017 -0.7648  1.4439
   99MOL0     O12971   8.944   8.881  12.613  0.4674  0.0673  0.4572
   99MOL0     C12972   8.846   8.791  12.655 -0.0421 -0.5210 -0.0191
   99MOL0     C12973   8.906   8.721  12.779  0.2833 -0.4434  0.0069
   99MOL0     C12974   8.924   8.823  12.888 -0.1257 -0.3233  0.3700
   99MOL0     C12975   8.951   8.766  13.025 -0.1792  1.0207  0.5155
   99MOL0     C12976   8.960   8.857  13.149 -0.8618  0.4384 -0.3886
   99MOL0     C12977   9.027   8.771  13.263  0.3133  1.2125 -0.0102
   99MOL0     C12978   8.998   8.838  13.396  0.1053 -1.0302 -0.4585
   99MOL0     C12979   9.090   8.955  13.431  0.9999  0.1432 -0.0991
   99MOL0    Cl12980   9.258   8.906  13.425 -0.4176  0.6658  0.0257
   99MOL0     C12981   9.056   8.827  12.386  0.1447 -0.7378  0.1247
   99MOL0     C12982   9.044   8.841  12.246 -0.1067  0.7019  0.0431
   99MOL0     O12983   9.092   9.041  11.984 -0.5656 -0.2050 -0.1335
   99MOL0     C12984   9.018   9.030  11.722 -0.2253  0.1102  0.5353
   99MOL0     C12985   8.968   9.061  11.594 -0.3595 -0.1729 -0.6748
   99MOL0     N12986   8.933   8.706  11.094  0.2215 -0.7575  0.6004
   99MOL0     N12987   8.894   8.598  11.046 -0.0621  0.5238  0.2952
   99MOL0     C12988   9.045   8.361   9.820 -1.4195 -0.7970 -0.3716
   99MOL0     C12989   9.014   8.366   9.684  0.3903  0.1441  0.0209
   99MOL0     C12990   8.895   8.237   9.289  0.6079  1.1858  0.1397
   99MOL0     C12991   8.752   8.239   9.265  0.5699  0.5242  0.2412
   99MOL0     C12992   8.701   8.209   9.133 -0.4392 -0.0572 -0.0408
   99MOL0     C12993   8.788   8.159   9.040 -0.6272  0.9043 -0.2961
   99MOL0     O12994   8.752   8.112   8.923  0.2088 -0.5281  0.0014
   99MOL0     C12995   8.631   8.156   8.855 -0.9557  0.5821  0.2393
   99MOL0     C12996   8.622   8.306   8.839  0.3846 -0.3068  0.3463
   99MOL0     C12997   8.716   8.352   8.745 -0.8766  0.1369 -0.0118
   99MOL0     C12998   8.643   8.425   8.630 -0.9758 -1.1111  0.8599
   99MOL0     C12999   8.741   8.449   8.529  0.8540 -0.5857 -0.4240
   99MOL0     C13000   8.833   8.469   8.455 -0.3885 -0.5431  1.2925
   99MOL0     C13001   8.930   8.140   9.075 -0.0050  0.4318 -0.0449
   99MOL0     C13002   8.985   8.174   9.190  0.7372  0.0147 -0.0701
   99MOL0     H13003   8.705   8.226   9.717 -0.0315 -2.2525  4.8923
   99MOL0     H13004   8.768   8.214   9.938  5.5988 -2.8890  0.6703
   99MOL0     H13005   9.149   8.251  10.132  0.2353  2.4238 -4.0687
   99MOL0     H13006   9.081   8.139  10.017 -1.7967  1.9067 -1.7126
   99MOL0     H13007   9.024   8.052  10.232  1.0112  0.7684  1.4185
   99MOL0     H13008   8.875   8.143  10.201 -0.6173  3.7941  1.4017
   99MOL0     H13009   9.027   8.356  10.310  1.5782  0.3179  3.1260
   99MOL0     H13010   9.108   8.218  10.381  0.1104  1.3398 -0.9369
   99MOL0     H13011   8.808   8.252  10.395  0.2589 -1.6256  0.6699
   99MOL0     H13012   8.906   8.126  10.473  1.2583 -0.7987 -1.3588
   99MOL0     H13013   9.010   8.396  10.515 -4.1732  3.6165  0.0210
   99MOL0     H13014   9.018   8.253  10.610 -1.6370  0.0849  1.3266
   99MOL0     H13015   8.777   8.295  10.696 -0.3063  0.9564  2.0662
   99MOL0     H13016   8.765   8.418  10.562 -0.7790  0.5188  1.6870
   99MOL0     H13017   8.980   8.456  10.797 -1.2951  2.5492  2.9015
   99MOL0     H13018   8.911   8.568  10.690  0.3417 -1.0975 -1.7080
   99MOL0     H13019   8.759   8.419  10.905 -0.6346  1.4000  1.8257
   99MOL0     H13020   8.697   8.549  10.780  1.1031 -1.7810 -2.0465
   99MOL0     H13021   8.788   8.812  10.816 -4.6867 -1.2138  1.1641
   99MOL0     H13022   8.989   8.986  10.930 -0.6338  1.1797 -0.6719
   99MOL0     H13023   9.029   8.931  11.100 -1.0267  0.4951  1.7733
   99MOL0     H13024   8.786   9.070  10.985 -0.0305  3.2523  0.8821
   99MOL0     H13025   8.901   9.148  11.076 -0.1179  0.1510 -0.3069
   99MOL0     H13026   8.674   9.074  11.199 -0.1228 -2.5150  0.4734
   99MOL0     H13027   8.754   8.922  11.206 -1.6964  0.2801 -0.7901
   99MOL0     H13028   8.925   9.153  11.303  1.1433  0.8887  0.1106
   99MOL0     H13029   8.937   8.982  11.341 -0.8172  1.3529  2.4294
   99MOL0     H13030   8.637   9.006  11.657 -0.2665  1.4171 -0.9313
   99MOL0     H13031   8.729   8.947  11.875 -1.7039  0.3300 -1.8913
   99MOL0     H13032   8.773   9.039  12.228 -2.2819 -2.5066  0.7525
   99MOL0     H13033   8.777   9.026  12.475 -1.4435  1.1003 -2.8721
   99MOL0     H13034   8.824   8.711  12.584  0.0862  0.1359 -0.8242
   99MOL0     H13035   8.752   8.845  12.673  0.3636  1.2094 -2.4790
   99MOL0     H13036   9.004   8.679  12.757 -0.4155 -3.1731  1.6246
   99MOL0     H13037   8.840   8.641  12.816  2.1101 -2.4817 -0.9389
   99MOL0     H13038   8.833   8.883  12.892  1.1943  1.7351  1.4532
   99MOL0     H13039   9.004   8.893  12.860 -0.6122  0.7495  1.5896
   99MOL0     H13040   8.883   8.682  13.042  2.7812 -1.8421 -0.8365
   99MOL0     H13041   9.046   8.713  13.015 -0.2718  0.1814  3.2891
   99MOL0     H13042   8.858   8.887  13.175 -0.1177  2.1538  0.6853
   99MOL0     H13043   9.012   8.951  13.129 -3.4791  1.9283 -0.5938
   99MOL0     H13044   9.134   8.763  13.243  0.6807 -0.6457  2.2519
   99MOL0     H13045   8.983   8.671  13.260  0.5592  1.0704  0.9129
   99MOL0     H13046   8.895   8.876  13.390  0.4333  1.2198  3.9793
   99MOL0     H13047   8.994   8.770  13.482  0.1066 -0.9510 -0.3952
   99MOL0     H13048   9.066   9.004  13.526 -0.1522 -0.5560 -0.0174
   99MOL0     H13049   9.069   9.033  13.357 -0.8659 -0.6316 -0.4284
   99MOL0     H13050   9.135   8.768  12.430  0.9945  1.0503  1.0975
   99MOL0     H13051   9.110   8.797  12.172 -3.7234 -3.3290 -1.1945
   99MOL0     H13052   9.125   9.044  11.733  0.4919 -4.8031  2.4723
   99MOL0     H13053   9.042   9.095  11.521  2.6306  0.8163  2.5367
   99MOL0     H13054   9.148   8.369   9.853 -2.8272  1.1212  4.3175
   99MOL0     H13055   9.084   8.410   9.614 -1.1390  0.6200 -1.2830
   99MOL0     H13056   8.685   8.257   9.348  1.8034  1.1349  1.1488
   99MOL0     H13057   8.593   8.213   9.120 -0.3608 -1.2653 -1.2540
   99MOL0     H13058   8.547   8.123   8.917 -0.6838 -2.9978 -1.0601
   99MOL0     H13059   8.619   8.098   8.763 -1.7577 -0.8740  1.2219
   99MOL0     H13060   8.517   8.318   8.810 -0.3775  0.1772  3.0190
   99MOL0     H13061   8.621   8.375   8.923  0.5007  2.2262 -1.6061
   99MOL0     H13062   8.785   8.277   8.705 -0.9511  0.0303  0.0600
   99MOL0     H13063   8.787   8.419   8.794 -1.4282  0.2942  0.5886
   99MOL0     H13064   8.574   8.360   8.576  1.8174 -2.4249 -1.3352
   99MOL0     H13065   8.598   8.520   8.660  2.0516  1.1248 -1.0676
   99MOL0     H13066   8.908   8.491   8.382 -2.4953 -1.7646 -1.4293
   99MOL0     H13067   8.974   8.071   9.004 -0.7051  0.2132 -0.2698
   99MOL0     H13068   9.084   8.137   9.215  0.8454  1.3418  1.6130
  100MOL0     O13069   4.776   7.101   1.655  0.4878 -0.2970  0.4446
  100MOL0     C13070   4.822   6.991   1.665  0.6254 -0.3986 -0.4644
  100MOL0     O13071   4.941   6.960   1.713 -1.2767  0.3584  0.3397
  100MOL0     C13072   5.015   7.057   1.785  0.0487  0.9998  0.2545
  100MOL0     C13073   5.062   7.036   1.916  0.6356  0.9661  0.3317
  100MOL0     C13074   5.165   7.114   1.974  0.3869  0.0808  0.2155
  100MOL0     C13075   5.203   7.226   1.905  0.7014  0.7838  1.2013
  100MOL0     O13076   5.288   7.324   1.948  0.5251 -0.1989  0.2664
  100MOL0     C13077   5.347   7.329   2.082 -0.2587  0.4333  0.8695
  100MOL0     C13078   5.386   7.474   2.105 -0.3837  0.2192 -0.1889
  100MOL0     C13079   5.461   7.481   2.235  0.7797  0.6966  0.0917
  100MOL0     C13080   5.428   7.604   2.314  0.4131 -0.4831  0.2811
  100MOL0     C13081   5.505   7.612   2.448  0.0739 -0.5072  0.3947
  100MOL0     C13082   5.459   7.740   2.523  1.0112  0.1561  0.1808
  100MOL0     C13083   5.521   7.759   2.658 -0.5112  0.0447  0.5697
  100MOL0     C13084   5.470   7.887   2.717 -0.2546  0.1992 -0.3307
  100MOL0     N13085   5.337   7.888   2.778  0.2129  0.3698  0.4353
  100MOL0     C13086   5.243   7.979   2.784 -0.4957 -0.3854  0.3484
  100MOL0     C13087   5.147   7.940   2.873 -0.5812  0.0484  0.0309
  100MOL0     C13088   5.024   8.014   2.899  0.0115 -0.4837  0.1296
  100MOL0     C13089   5.056   8.136   2.986  0.3475 -0.0126 -0.0376
  100MOL0     C13090   4.935   8.193   3.072 -0.1257  0.4479  0.5755
  100MOL0     C13091   4.904   8.105   3.198 -0.0371  0.3195  0.3951
  100MOL0     O13092   4.819   8.192   3.278 -0.8282 -0.4425  1.9247
  100MOL0     C13093   4.751   8.142   3.380 -0.9475  1.1102  0.0601
  100MOL0     C13094   4.803   8.031   3.446 -0.0324  0.4609  0.1948
  100MOL0     C13095   4.731   7.972   3.546  0.1749 -0.1616  0.1477
  100MOL0     C13096   4.606   8.029   3.588  0.7701 -0.1339  0.0225
  100MOL0     C13097   4.532   7.968   3.705  0.0344 -0.0182  0.2833
  100MOL0     O13098   4.592   7.874   3.777 -0.8037  0.5232  0.5450
  100MOL0     C13099   4.556   7.815   3.899 -0.3009  0.0830  0.1301
  100MOL0     C13100   4.435   7.865   3.965 -0.1122  0.2340  0.7439
  100MOL0     C13101   4.405   7.812   4.090  0.5616 -0.3927  1.0101
  100MOL0     C13102   4.489   7.722   4.153 -0.6663  0.3947  0.1339
  100MOL0     O13103   4.481   7.702   4.291  0.6513  0.4274  0.4152
  100MOL0     C13104   4.443   7.814   4.372  0.2353  0.6993  0.4888
  100MOL0     C13105   4.412   7.782   4.517 -0.5283 -0.1423  0.0884
  100MOL0     C13106   4.300   7.672   4.536  0.0887 -0.9765  0.1145
  100MOL0     C13107   4.289   7.636   4.679  0.0628  0.0659  0.3030
  100MOL0     C13108   4.176   7.540   4.694  0.1687 -0.3656 -0.0211
  100MOL0     C13109   4.153   7.512   4.842 -0.1842 -0.7813  0.8088
  100MOL0     C13110   4.054   7.400   4.849 -0.7924 -0.4587  0.0945
  100MOL0     C13111   4.014   7.361   4.991  0.5911 -0.5829  0.1961
  100MOL0    Cl13112   3.897   7.225   5.014  0.0257 -0.5424 -0.7305
  100MOL0     C13113   4.600   7.675   4.090  0.2430  0.6347 -0.8805
  100MOL0     C13114   4.634   7.717   3.964  0.8720  0.3687  0.0099
  100MOL0     O13115   4.417   8.009   3.716  0.2105 -0.8932  0.2565
  100MOL0     C13116   4.559   8.145   3.526 -0.2835 -0.0597  1.1808
  100MOL0     C13117   4.631   8.196   3.415 -0.6466  0.5663 -0.1841
  100MOL0     N13118   5.188   7.827   2.925 -0.0108  0.3238 -0.0928
  100MOL0     N13119   5.300   7.798   2.872 -0.5913  0.0013  0.6357
  100MOL0     C13120   5.140   7.259   1.785  1.0647  0.3899 -1.3266
  100MOL0     C13121   5.050   7.173   1.724  0.0045 -0.1850  0.2920
  100MOL0     C13122   4.730   6.880   1.622 -1.2643 -0.0805  0.8018
  100MOL0     C13123   4.596   6.904   1.588 -1.0589 -0.0412  0.5012
  100MOL0     C13124   4.512   6.805   1.546 -0.1454  1.0606  0.1886
  100MOL0     C13125   4.552   6.668   1.535 -0.4872  0.8154  0.5686
  100MOL0     O13126   4.455   6.574   1.501 -0.1768  0.8049  0.4193
  100MOL0     C13127   4.508   6.440   1.518 -0.5869  1.5723  0.4134
  100MOL0     C13128   4.417   6.334   1.451  0.3014 -0.7406 -0.5350
  100MOL0     C13129   4.449   6.189   1.483 -1.1585 -0.2238 -0.2364
  100MOL0     C13130   4.349   6.094   1.435 -0.3208 -0.2222 -0.5672
  100MOL0     C13131   4.362   6.070   1.292  0.2990 -0.9997  0.8988
  100MOL0     C13132   4.384   6.071   1.173 -0.8080 -0.2885  0.2525
  100MOL0     C13133   4.690   6.641   1.575 -0.3038 -1.3816  0.4338
  100MOL0     C13134   4.772   6.743   1.608  0.4391 -0.4010  0.3559
  100MOL0     H13135   5.024   6.964   1.988  0.1546 -1.0477 -1.7888
  100MOL0     H13136   5.215   7.088   2.067  0.0634  1.1714  0.7140
  100MOL0     H13137   5.440   7.272   2.094 -0.3849  0.4361  1.9692
  100MOL0     H13138   5.279   7.307   2.165 -0.1305  0.2657  0.9304
  100MOL0     H13139   5.302   7.545   2.103  1.0012  1.9550 -0.0623
  100MOL0     H13140   5.448   7.516   2.025 -2.3880 -0.1908 -2.0607
  100MOL0     H13141   5.565   7.475   2.202  0.9516 -1.7846  0.8963
  100MOL0     H13142   5.447   7.395   2.301  1.6456  0.8360  0.4650
  100MOL0     H13143   5.449   7.690   2.251  1.0367  0.8420  2.2050
  100MOL0     H13144   5.325   7.605   2.351 -0.5980  2.4690 -2.2746
  100MOL0     H13145   5.610   7.625   2.421 -0.4659 -0.6378 -1.9505
  100MOL0     H13146   5.504   7.522   2.511  1.7969 -0.2607  0.8502
  100MOL0     H13147   5.350   7.737   2.533  1.1595  0.1345  2.0205
  100MOL0     H13148   5.484   7.829   2.464  1.8826  0.1547  0.5326
  100MOL0     H13149   5.475   7.678   2.714 -0.2133 -2.4975 -2.5648
  100MOL0     H13150   5.630   7.750   2.657 -0.3774  1.4736  0.1322
  100MOL0     H13151   5.482   7.973   2.650  0.1957  0.5300  0.1670
  100MOL0     H13152   5.537   7.914   2.799  1.0532  0.4141 -1.4356
  100MOL0     H13153   5.230   8.071   2.728 -1.8477 -0.6310  0.2122
  100MOL0     H13154   4.954   7.939   2.937 -2.4761 -0.9817 -4.7453
  100MOL0     H13155   4.994   8.057   2.803  3.3737  1.6352 -0.1214
  100MOL0     H13156   5.098   8.220   2.929 -3.3217  0.3402 -2.5842
  100MOL0     H13157   5.121   8.106   3.069 -0.4105 -0.0308  0.5646
  100MOL0     H13158   4.961   8.289   3.117  0.5172  0.2781  0.5812
  100MOL0     H13159   4.842   8.202   3.015 -1.6336  1.3249  2.9882
  100MOL0     H13160   4.989   8.068   3.255 -1.8885 -0.0271  3.0874
  100MOL0     H13161   4.864   8.006   3.173  3.1409 -0.7262 -1.1198
  100MOL0     H13162   4.897   7.982   3.423 -0.6294 -1.1231  0.9476
  100MOL0     H13163   4.773   7.891   3.605  2.8743  0.7236 -0.4163
  100MOL0     H13164   4.356   7.922   3.916 -1.6301 -2.4778 -0.1995
  100MOL0     H13165   4.309   7.838   4.132  0.8172 -1.3968  2.2885
  100MOL0     H13166   4.361   7.871   4.326  1.0976  1.0317 -0.6856
  100MOL0     H13167   4.536   7.870   4.363  0.7804 -0.4593 -2.6137
  100MOL0     H13168   4.372   7.874   4.561  0.3487 -0.7942  2.4263
  100MOL0     H13169   4.502   7.762   4.576 -0.9800 -1.5731  0.3203
  100MOL0     H13170   4.326   7.580   4.483 -0.3678 -0.9740 -0.1229
  100MOL0     H13171   4.204   7.711   4.500  0.4516  0.4306  0.5916
  100MOL0     H13172   4.388   7.606   4.714  0.1890 -1.4178 -1.1976
  100MOL0     H13173   4.263   7.724   4.739 -1.9300  1.6311 -2.6126
  100MOL0     H13174   4.197   7.445   4.644  1.0060 -0.7759  1.0616
  100MOL0     H13175   4.083   7.591   4.670  0.5247 -0.6165 -2.1369
  100MOL0     H13176   4.112   7.594   4.902  3.0277 -1.2592  4.0357
  100MOL0     H13177   4.252   7.484   4.880  0.2666 -0.9229 -0.4450
  100MOL0     H13178   3.967   7.422   4.787 -0.1621 -2.9164 -1.8133
  100MOL0     H13179   4.097   7.314   4.797  0.1063  0.5381 -0.8505
  100MOL0     H13180   3.956   7.447   5.026 -3.5356 -2.6115 -1.0147
  100MOL0     H13181   4.098   7.349   5.060 -0.2245 -3.1272  0.8292
  100MOL0     H13182   4.665   7.605   4.141  1.8852  0.9450 -2.4685
  100MOL0     H13183   4.716   7.669   3.913  1.0180  1.0574 -0.4151
  100MOL0     H13184   4.472   8.201   3.558  1.3688  1.8090  2.6616
  100MOL0     H13185   4.593   8.282   3.362 -1.0313 -0.8787 -2.4073
  100MOL0     H13186   5.170   7.353   1.739  2.0097  1.2326  0.8547
  100MOL0     H13187   4.997   7.195   1.632 -0.9236 -1.2558  0.5642
  100MOL0     H13188   4.556   7.005   1.578 -1.3761 -0.3611 -2.7006
  100MOL0     H13189   4.415   6.842   1.513  0.1453 -1.9447 -5.1209
  100MOL0     H13190   4.512   6.410   1.623  1.3421  1.6051  0.3742
  100MOL0     H13191   4.609   6.429   1.479 -1.0823 -2.4852 -0.1549
  100MOL0     H13192   4.316   6.374   1.451  0.0180 -1.4409 -0.4268
  100MOL0     H13193   4.440   6.338   1.344  2.2476 -0.9252 -0.1692
  100MOL0     H13194   4.454   6.182   1.592  1.3293 -0.5346 -0.2983
  100MOL0     H13195   4.549   6.163   1.445  1.0758 -1.1582  5.3441
  100MOL0     H13196   4.362   6.003   1.494  0.7826  1.3986  1.8862
  100MOL0     H13197   4.253   6.133   1.470 -1.3899 -3.8564  1.0118
  100MOL0     H13198   4.384   6.058   1.067  0.1824  2.8140 -0.2435
  100MOL0     H13199   4.741   6.546   1.589  1.4437 -0.1767  2.8793
  100MOL0     H13200   4.872   6.718   1.642  0.7405 -1.3102 -1.0844
  101MOL0     O13201   6.229   9.740  10.794  0.6427  0.2761  0.2399
  101MOL0     C13202   6.109   9.746  10.791  0.3770 -0.6952  0.3207
  101MOL0     O13203   6.030   9.642  10.765 -0.2023  0.0678 -0.6642
  101MOL0     C13204   6.093   9.519  10.753  0.1451  0.1871  0.4533
  101MOL0     C13205   6.076   9.412  10.840  0.3447 -0.2386  0.1574
  101MOL0     C13206   6.118   9.279  10.806  0.6528  0.8567 -0.8655
  101MOL0     C13207   6.190   9.259  10.685 -0.1050  0.8790  0.3547
  101MOL0     O13208   6.231   9.134  10.639 -0.3864  0.0327  0.2137
  101MOL0     C13209   6.223   9.021  10.743  0.1362  0.1432  0.7725
  101MOL0     C13210   6.276   8.885  10.695  0.6482 -0.9561  0.3060
  101MOL0     C13211   6.424   8.868  10.667  0.3056  0.5316 -0.0221
  101MOL0     C13212   6.493   8.889  10.807 -0.1621  0.6087 -0.5280
  101MOL0     C13213   6.636   8.834  10.825 -0.1215  0.0333 -0.0951
  101MOL0     C13214   6.653   8.682  10.813  0.2620 -0.1840 -0.1269
  101MOL0     C13215   6.784   8.625  10.846 -0.7558  0.6342  0.1574
  101MOL0     C13216   6.777   8.518  10.964  0.4095 -0.2137  0.4561
  101MOL0     N13217   6.911   8.476  10.999  1.0459  1.1826  0.1675
  101MOL0     C13218   6.979   8.377  10.934  0.3295  0.8840  0.1031
  101MOL0     C13219   7.093   8.363  11.009  0.0308  0.3886  0.4974
  101MOL0     C13220   7.212   8.281  10.978  0.9155  0.4188 -0.7647
  101MOL0     C13221   7.178   8.130  11.013 -0.4631  0.3953  0.2714
  101MOL0     C13222   7.274   8.034  10.935  1.3522  0.9224  0.6819
  101MOL0     C13223   7.250   7.885  10.957  0.4780 -0.9813  1.5492
  101MOL0     O13224   7.113   7.846  10.962  1.0207 -0.1361  0.6698
  101MOL0     C13225   7.085   7.717  11.001 -0.0342  0.6069  0.5876
  101MOL0     C13226   6.951   7.680  10.980 -0.9413  0.5183 -0.2372
  101MOL0     C13227   6.909   7.554  11.009 -0.0017  0.9810 -0.6329
  101MOL0     C13228   6.995   7.452  11.064  0.9567 -0.6673  0.2677
  101MOL0     C13229   6.943   7.328  11.108  0.1524 -0.5025 -0.5836
  101MOL0     O13230   6.820   7.303  11.073 -0.6285 -0.5797 -0.2749
  101MOL0     C13231   6.752   7.183  11.091  0.6607  0.4871  0.5248
  101MOL0     C13232   6.791   7.068  11.164 -0.3710 -0.0208  0.1609
  101MOL0     C13233   6.706   6.962  11.180  0.2016  0.0400  0.3434
  101MOL0     C13234   6.580   6.950  11.109 -0.9687 -0.3278  0.2584
  101MOL0     O13235   6.498   6.837  11.128 -0.1657 -0.8376 -0.1478
  101MOL0     C13236   6.368   6.827  11.076 -1.0749 -0.1312 -1.3169
  101MOL0     C13237   6.328   6.682  11.115  0.2281 -0.4307 -0.1797
  101MOL0     C13238   6.412   6.570  11.051 -0.6765  0.0274 -0.4987
  101MOL0     C13239   6.512   6.523  11.160 -0.3048 -0.0535  0.1150
  101MOL0     C13240   6.591   6.390  11.114 -0.2087  0.1374 -0.3808
  101MOL0     C13241   6.732   6.388  11.155 -0.2174 -0.5461  0.1655
  101MOL0     C13242   6.785   6.240  11.146 -0.8468 -0.1113 -0.2229
  101MOL0     C13243   6.814   6.217  10.992  0.3851 -0.0463 -0.5289
  101MOL0    Cl13244   6.837   6.036  10.959 -0.2416 -0.3302  0.1956
  101MOL0     C13245   6.536   7.061  11.038  0.0106  0.0477  0.7231
  101MOL0     C13246   6.619   7.177  11.030  0.0547 -0.1417 -0.3902
  101MOL0     O13247   7.009   7.256  11.182  0.2648  0.5466  0.1436
  101MOL0     C13248   7.133   7.490  11.077  0.1611  0.3659  0.6838
  101MOL0     C13249   7.176   7.619  11.044  0.2681 -0.6348 -0.2766
  101MOL0     N13250   7.075   8.426  11.131  0.5264  0.1762  0.2455
  101MOL0     N13251   6.964   8.499  11.121  0.0776 -0.0118  0.0354
  101MOL0     C13252   6.201   9.363  10.593  0.9637 -0.4267 -0.7235
  101MOL0     C13253   6.150   9.492  10.624  0.6064  0.3009 -0.1316
  101MOL0     C13254   6.050   9.883  10.807  0.3840 -0.2735  0.4719
  101MOL0     C13255   6.129   9.998  10.779  0.5291  0.5246  0.6657
  101MOL0     C13256   6.070  10.119  10.810  0.4668 -0.5132  0.3752
  101MOL0     C13257   5.941  10.135  10.855 -0.9798 -0.4180  0.3533
  101MOL0     O13258   5.881  10.251  10.890 -0.1721 -0.3409 -0.3227
  101MOL0     C13259   5.847  10.336  10.781  0.0402  0.6034  0.7872
  101MOL0     C13260   5.795  10.471  10.826 -0.6906 -0.3486 -0.9457
  101MOL0     C13261   5.845  10.529  10.962 -0.5346 -0.9177 -0.0520
  101MOL0     C13262   6.002  10.550  10.966 -0.3392  0.1831  0.3429
  101MOL0     C13263   6.033  10.585  11.105  0.5155 -1.8914 -0.4711
  101MOL0     C13264   6.057  10.611  11.218  1.9273 -0.1325  0.3132
  101MOL0     C13265   5.865  10.027  10.882  0.5194 -0.6269  0.3830
  101MOL0     C13266   5.922   9.898  10.865 -0.5527  0.4001 -0.2993
  101MOL0     H13267   6.005   9.437  10.918 -1.6447 -0.8992 -1.3376
  101MOL0     H13268   6.084   9.206  10.879 -0.8657  1.0820 -1.3150
  101MOL0     H13269   6.120   9.001  10.773  0.2206 -0.3575  0.7233
  101MOL0     H13270   6.279   9.051  10.832 -1.2756 -0.5421  1.9341
  101MOL0     H13271   6.227   8.866  10.599  2.1382 -1.4020 -0.3923
  101MOL0     H13272   6.241   8.815  10.772 -0.1968  0.5378  1.3471
  101MOL0     H13273   6.463   8.935  10.590  0.6977  0.5912  0.2215
  101MOL0     H13274   6.445   8.764  10.640  0.1726  0.3014  0.7410
  101MOL0     H13275   6.495   8.991  10.845 -0.9601  1.0101 -1.5013
  101MOL0     H13276   6.444   8.832  10.886  0.8260  1.5253  0.7856
  101MOL0     H13277   6.666   8.856  10.928  2.8816  1.0259 -1.0913
  101MOL0     H13278   6.698   8.889  10.754 -2.4348  1.8312 -0.8544
  101MOL0     H13279   6.638   8.675  10.705  0.6187 -0.6745 -0.1474
  101MOL0     H13280   6.579   8.634  10.878 -0.0027 -2.6793 -2.1376
  101MOL0     H13281   6.823   8.574  10.758 -3.8587  1.6753 -2.0147
  101MOL0     H13282   6.848   8.713  10.860  0.0780  0.1273 -0.3901
  101MOL0     H13283   6.716   8.434  10.931  0.6077 -0.3929  0.5435
  101MOL0     H13284   6.742   8.567  11.055  1.2959 -0.7171  1.0874
  101MOL0     H13285   6.947   8.329  10.842  2.3280  2.4502 -1.5118
  101MOL0     H13286   7.300   8.310  11.036 -1.7974  0.2162  4.0171
  101MOL0     H13287   7.237   8.298  10.873 -2.0918  1.5825 -1.3749
  101MOL0     H13288   7.080   8.104  10.971  1.2518 -0.2912 -3.6812
  101MOL0     H13289   7.192   8.104  11.118  3.3532  0.0905 -0.1901
  101MOL0     H13290   7.261   8.042  10.826 -0.9559  1.0068  0.9340
  101MOL0     H13291   7.377   8.061  10.963  2.0309  1.2432 -1.8647
  101MOL0     H13292   7.293   7.873  11.057  4.3281  0.5449  0.2604
  101MOL0     H13293   7.311   7.834  10.882 -0.2147 -0.0473  0.3222
  101MOL0     H13294   6.880   7.746  10.930 -0.0286  0.8674 -1.0931
  101MOL0     H13295   6.804   7.537  10.987 -0.2340  0.3498  0.8483
  101MOL0     H13296   6.879   7.066  11.227  1.9187 -0.1347 -2.8318
  101MOL0     H13297   6.738   6.876  11.238 -1.7282 -0.1769  1.1575
  101MOL0     H13298   6.366   6.828  10.967  0.4273  0.1083 -1.3662
  101MOL0     H13299   6.302   6.905  11.115  0.5058  1.2082 -1.1878
  101MOL0     H13300   6.224   6.663  11.088  0.4307 -0.3562 -1.0151
  101MOL0     H13301   6.330   6.688  11.225  2.0540  1.0828 -0.2472
  101MOL0     H13302   6.474   6.606  10.968  4.5940  1.4956  3.4851
  101MOL0     H13303   6.350   6.484  11.023  2.1138 -2.2973 -0.1404
  101MOL0     H13304   6.583   6.606  11.164 -2.9873  2.4396  4.7355
  101MOL0     H13305   6.471   6.509  11.260  0.5074 -2.1706  0.2027
  101MOL0     H13306   6.595   6.383  11.005 -0.0220 -3.8068 -0.2720
  101MOL0     H13307   6.535   6.308  11.160  0.9023  0.5405  1.7827
  101MOL0     H13308   6.749   6.427  11.256  1.6839 -3.1919  0.9497
  101MOL0     H13309   6.783   6.461  11.091 -3.8744  2.2050 -0.0018
  101MOL0     H13310   6.880   6.234  11.201 -1.1793  0.0756  0.3854
  101MOL0     H13311   6.724   6.157  11.183 -0.4856  0.0107  0.6828
  101MOL0     H13312   6.907   6.267  10.964  1.3728 -1.3141  0.4438
  101MOL0     H13313   6.733   6.255  10.928 -0.6011 -0.3935  0.4829
  101MOL0     H13314   6.448   7.065  10.974  0.1968 -1.2656  0.3485
  101MOL0     H13315   6.587   7.268  10.979  2.7436  0.0155 -1.9869
  101MOL0     H13316   7.183   7.416  11.138 -4.8064 -2.3904  1.9162
  101MOL0     H13317   7.281   7.640  11.058  0.0125  0.2100  0.4930
  101MOL0     H13318   6.241   9.357  10.493  0.3605 -0.8550 -0.9477
  101MOL0     H13319   6.145   9.574  10.552 -1.7167  2.4247  2.2159
  101MOL0     H13320   6.231   9.982  10.744  0.8222 -1.0622  2.0910
  101MOL0     H13321   6.144  10.195  10.787 -0.3848  0.0793 -0.4867
  101MOL0     H13322   5.769  10.290  10.721  0.0799 -0.6271  1.6375
  101MOL0     H13323   5.933  10.346  10.714 -0.3439  2.5402  0.5154
  101MOL0     H13324   5.805  10.546  10.746  1.0743  0.3632 -0.1064
  101MOL0     H13325   5.686  10.468  10.837 -0.5952  2.9717  3.2854
  101MOL0     H13326   5.826  10.468  11.051  1.7534 -1.1755  0.3034
  101MOL0     H13327   5.784  10.619  10.973 -2.4319 -2.1103 -0.2944
  101MOL0     H13328   6.043  10.451  10.945  2.2879  1.0163  1.2173
  101MOL0     H13329   6.046  10.627  10.902  3.3679 -2.4950 -0.6501
  101MOL0     H13330   6.080  10.648  11.316 -0.2119 -0.0672  0.8316
  101MOL0     H13331   5.764  10.035  10.921  0.3401  0.3698 -0.2296
  101MOL0     H13332   5.864   9.809  10.887 -2.0956  1.3510 -0.3598
  102MOL0     O13333  10.707   5.504   2.082 -0.0744 -0.1020  0.0233
  102MOL0     C13334  10.792   5.433   2.118 -1.3117  0.8845  0.0620
  102MOL0     O13335  10.873   5.365   2.040  0.2802 -0.4621  0.2113
  102MOL0     C13336  10.862   5.375   1.904  0.1442 -0.1141  0.5101
  102MOL0     C13337  10.855   5.246   1.838 -0.3865 -0.5058  0.2657
  102MOL0     C13338  10.852   5.252   1.698 -0.0294 -0.8673  0.2370
  102MOL0     C13339  10.831   5.378   1.633  0.6729  0.2637 -0.3842
  102MOL0     O13340  10.821   5.396   1.501 -0.1728 -0.1965  0.0644
  102MOL0     C13341  10.848   5.284   1.417  0.1450  0.9691  0.9195
  102MOL0     C13342  10.915   5.334   1.292 -0.1456 -0.1518 -0.0203
  102MOL0     C13343  10.819   5.414   1.199 -0.8056  0.5321 -0.1862
  102MOL0     C13344  10.895   5.432   1.062  0.1123 -0.8100 -0.3494
  102MOL0     C13345  10.853   5.561   0.989 -0.1017 -0.3920  0.4311
  102MOL0     C13346  10.880   5.703   1.059 -0.3808 -0.8301 -0.4803
  102MOL0     C13347  10.800   5.819   1.000  0.2521  0.5920  0.2987
  102MOL0     C13348  10.885   5.907   0.913 -0.5754 -0.0668  0.9812
  102MOL0     N13349  10.994   5.971   0.980  1.0625 -0.2097 -0.3083
  102MOL0     C13350  10.997   6.044   1.090  0.5466 -0.0522 -1.2971
  102MOL0     C13351  11.118   6.087   1.115 -0.0781  0.5134  0.0955
  102MOL0     C13352  11.169   6.189   1.216 -0.0995  0.4229  0.2603
  102MOL0     C13353  11.191   6.142   1.367  0.2245 -0.0658 -0.3581
  102MOL0     C13354  11.218   5.996   1.379  0.5818 -0.7544  0.3910
  102MOL0     C13355  11.356   5.950   1.341 -0.0368  0.2843  0.5927
  102MOL0     O13356  11.369   5.810   1.365  0.7019 -0.3182 -0.3351
  102MOL0     C13357  11.362   5.770   1.499  0.1671  0.0872  0.1022
  102MOL0     C13358  11.253   5.683   1.527 -0.4793 -0.5172 -0.2163
  102MOL0     C13359  11.228   5.648   1.662 -0.8296 -0.1815  1.0956
  102MOL0     C13360  11.312   5.689   1.769 -0.1762  0.9808  0.4922
  102MOL0     C13361  11.272   5.650   1.905  0.2455  0.0407  0.7815
  102MOL0     O13362  11.362   5.642   1.995 -0.6866  0.0314 -0.9306
  102MOL0     C13363  11.342   5.599   2.127 -0.0904 -0.1325  0.0619
  102MOL0     C13364  11.457   5.620   2.218 -0.1444  0.1019  0.1597
  102MOL0     C13365  11.449   5.579   2.347  0.2958  1.2581  0.0948
  102MOL0     C13366  11.330   5.528   2.401  0.9522  0.1585 -0.5287
  102MOL0     O13367  11.330   5.501   2.534  0.5006  0.2653 -0.5616
  102MOL0     C13368  11.208   5.517   2.613 -1.0068  0.4040 -0.6428
  102MOL0     C13369  11.256   5.506   2.765 -1.0008 -0.3440  1.3620
  102MOL0     C13370  11.124   5.485   2.856 -0.2041 -0.8445  0.2348
  102MOL0     C13371  11.168   5.481   3.003 -0.5139 -0.4520 -0.6632
  102MOL0     C13372  11.065   5.440   3.094  0.1718  0.3381  0.0840
  102MOL0     C13373  11.107   5.466   3.237 -0.6742  0.1810 -0.1325
  102MOL0     C13374  10.991   5.435   3.336  0.7394  0.5966 -0.1437
  102MOL0     C13375  11.039   5.400   3.480  0.2936 -0.4570 -0.3832
  102MOL0    Cl13376  10.891   5.347   3.582 -0.2375  0.5975 -0.1529
  102MOL0     C13377  11.218   5.497   2.318  0.1961  0.1284  0.6651
  102MOL0     C13378  11.226   5.541   2.193  0.0005  0.0312  0.7852
  102MOL0     O13379  11.159   5.616   1.913  0.3016  0.2849 -0.8686
  102MOL0     C13380  11.415   5.776   1.742  0.8444 -0.2565 -0.4346
  102MOL0     C13381  11.449   5.816   1.610  0.5930  0.4580 -0.6296
  102MOL0     N13382  11.192   6.031   1.008  0.2175  0.0699 -0.3228
  102MOL0     N13383  11.114   5.957   0.934 -0.3431 -0.1384 -0.2933
  102MOL0     C13384  10.824   5.499   1.704 -0.9004  0.9432 -0.6140
  102MOL0     C13385  10.852   5.498   1.839 -0.1589  0.6063  0.1309
  102MOL0     C13386  10.817   5.404   2.259  0.1385 -0.0430 -0.1163
  102MOL0     C13387  10.883   5.283   2.294 -0.4148  0.8207  0.2259
  102MOL0     C13388  10.905   5.247   2.428 -1.0773 -0.7089 -0.2907
  102MOL0     C13389  10.854   5.326   2.532  0.3009  0.3903 -0.6527
  102MOL0     O13390  10.873   5.292   2.672 -0.0314 -0.6577  0.6720
  102MOL0     C13391  10.804   5.361   2.778  0.5938  0.1228  0.1913
  102MOL0     C13392  10.800   5.279   2.907  0.2905 -0.6671  0.2484
  102MOL0     C13393  10.709   5.151   2.897 -0.1954  0.2848  0.1220
  102MOL0     C13394  10.756   5.032   2.978  0.0017  0.9747 -0.1048
  102MOL0     C13395  10.757   5.070   3.117 -0.7715 -0.5055 -0.5795
  102MOL0     C13396  10.748   5.101   3.241  0.3922  0.0743  0.1794
  102MOL0     C13397  10.798   5.452   2.503 -0.1432 -0.0579  0.0189
  102MOL0     C13398  10.769   5.482   2.372  0.0832 -0.6001  1.1005
  102MOL0     H13399  10.853   5.150   1.888 -2.1990 -0.9830 -0.6508
  102MOL0     H13400  10.878   5.159   1.649  2.4499  1.0357 -2.4407
  102MOL0     H13401  10.749   5.240   1.404 -0.1555  2.2992 -1.8126
  102MOL0     H13402  10.909   5.203   1.459 -1.5394 -2.0065 -1.8915
  102MOL0     H13403  10.950   5.249   1.232 -0.8305 -0.7175  0.3645
  102MOL0     H13404  10.995   5.402   1.324 -0.0143 -1.7402  3.4340
  102MOL0     H13405  10.810   5.507   1.255  0.1331  0.2512  0.4638
  102MOL0     H13406  10.726   5.359   1.181  0.2285 -0.4792 -2.9850
  102MOL0     H13407  11.002   5.442   1.079 -0.5393  4.0011  2.6174
  102MOL0     H13408  10.874   5.346   0.997  0.5044 -0.2655 -1.2060
  102MOL0     H13409  10.750   5.548   0.956  0.9610  0.3231 -3.7923
  102MOL0     H13410  10.912   5.571   0.897 -1.4845 -1.1754 -0.5778
  102MOL0     H13411  10.988   5.717   1.065 -0.3391 -1.7304  2.6053
  102MOL0     H13412  10.857   5.709   1.166  1.3745 -0.0516 -0.1068
  102MOL0     H13413  10.713   5.765   0.962  0.8475 -1.1228  1.2317
  102MOL0     H13414  10.753   5.878   1.079 -1.5328 -1.6558  1.0228
  102MOL0     H13415  10.827   5.986   0.863  0.4382  0.4473  0.5921
  102MOL0     H13416  10.923   5.846   0.830 -0.2165 -2.4934  2.8190
  102MOL0     H13417  10.918   6.080   1.156  2.4284 -3.1088  3.1238
  102MOL0     H13418  11.100   6.274   1.214 -3.8519 -2.3657  0.1324
  102MOL0     H13419  11.272   6.204   1.183 -0.1695 -2.0176 -1.2665
  102MOL0     H13420  11.104   6.165   1.428  2.4143 -1.3756  3.5836
  102MOL0     H13421  11.276   6.196   1.408  0.0656  0.3405 -0.5545
  102MOL0     H13422  11.187   5.962   1.478 -1.0218  0.1476  0.2380
  102MOL0     H13423  11.141   5.940   1.325 -1.6081  0.6375  1.8965
  102MOL0     H13424  11.435   6.004   1.394 -1.0962 -1.4355  4.2071
  102MOL0     H13425  11.359   5.978   1.235 -1.6969  1.3452  0.7914
  102MOL0     H13426  11.201   5.654   1.437  1.8428 -1.6435 -1.2838
  102MOL0     H13427  11.154   5.569   1.672  2.6334 -3.7497  1.2438
  102MOL0     H13428  11.547   5.675   2.192  0.2527 -1.5924 -2.3806
  102MOL0     H13429  11.534   5.598   2.411  0.1394 -2.2374  1.5669
  102MOL0     H13430  11.133   5.439   2.597 -1.0297 -0.1048  1.6328
  102MOL0     H13431  11.155   5.612   2.602  0.2513  1.2073  0.0289
  102MOL0     H13432  11.307   5.596   2.800 -1.4610  0.6888 -0.4682
  102MOL0     H13433  11.317   5.415   2.763 -3.1997 -1.9319 -1.4777
  102MOL0     H13434  11.080   5.393   2.816  0.0063  0.3848 -3.1402
  102MOL0     H13435  11.051   5.563   2.833  2.0007  0.9482 -1.0310
  102MOL0     H13436  11.253   5.412   3.005 -0.1715 -0.0640 -1.3476
  102MOL0     H13437  11.202   5.581   3.033 -0.0793 -1.2153  1.5412
  102MOL0     H13438  11.032   5.336   3.087 -2.0224  0.9294  0.8814
  102MOL0     H13439  10.977   5.500   3.070 -0.7892 -0.6542  0.9566
  102MOL0     H13440  11.139   5.570   3.244 -0.8624  0.4112 -2.1891
  102MOL0     H13441  11.190   5.398   3.261 -0.5126 -0.8420 -3.2117
  102MOL0     H13442  10.911   5.509   3.333 -0.7948 -0.9496  0.9539
  102MOL0     H13443  10.936   5.348   3.300  2.3954 -1.1815  1.4270
  102MOL0     H13444  11.085   5.494   3.512  1.5178 -0.8864 -0.7902
  102MOL0     H13445  11.124   5.331   3.474 -1.4681 -2.7633 -0.2185
  102MOL0     H13446  11.124   5.455   2.354 -0.4375 -1.9730 -2.8778
  102MOL0     H13447  11.145   5.503   2.131  0.2243 -0.4990  0.8119
  102MOL0     H13448  11.475   5.816   1.823  0.4080 -1.2040  0.3863
  102MOL0     H13449  11.527   5.888   1.592 -2.0306  3.5609 -0.5348
  102MOL0     H13450  10.808   5.600   1.667  2.8503  1.9574  0.1861
  102MOL0     H13451  10.877   5.591   1.890  1.6515  0.7695 -0.9556
  102MOL0     H13452  10.919   5.216   2.217 -2.7346 -1.1237  0.7272
  102MOL0     H13453  10.967   5.162   2.451  0.4214 -0.0357 -1.6677
  102MOL0     H13454  10.704   5.385   2.742  0.2027 -0.7607  0.6591
  102MOL0     H13455  10.847   5.458   2.803  0.2792 -0.0617  1.5414
  102MOL0     H13456  10.907   5.271   2.928  1.1018  2.3771 -2.0695
  102MOL0     H13457  10.757   5.334   2.991 -2.8381  1.7930 -2.6900
  102MOL0     H13458  10.715   5.120   2.792  1.3276  0.0736  0.2500
  102MOL0     H13459  10.608   5.185   2.921 -0.7323  1.1095 -2.8181
  102MOL0     H13460  10.694   4.943   2.965  0.9696  0.5727 -2.5845
  102MOL0     H13461  10.856   5.005   2.942 -0.7352 -1.6873 -0.3528
  102MOL0     H13462  10.731   5.120   3.345 -1.0367 -1.8782  0.3516
  102MOL0     H13463  10.783   5.524   2.582  2.9968  3.0739 -1.9647
  102MOL0     H13464  10.718   5.576   2.357  2.7168  1.0426  1.7614
  103MOL0     O13465   1.494   9.067   9.851  0.5499 -0.2647 -0.0506
  103MOL0     C13466   1.396   9.031   9.921  0.3438  1.2454  0.0890
  103MOL0     O13467   1.398   9.005  10.055 -0.1600 -0.3058  0.0380
  103MOL0     C13468   1.506   9.043  10.123  1.1868  0.5163 -0.0365
  103MOL0     C13469   1.518   9.164  10.189  0.0703  1.0163  0.2041
  103MOL0     C13470   1.636   9.198  10.255  0.5710 -0.0388  0.1183
  103MOL0     C13471   1.747   9.110  10.255  0.3686 -0.8490  0.5351
  103MOL0     O13472   1.865   9.163  10.311 -0.1979 -0.1226 -0.1802
  103MOL0     C13473   1.979   9.077  10.296 -1.0021 -0.4638  0.6192
  103MOL0     C13474   2.101   9.132  10.380 -0.1520 -0.3766 -0.9171
  103MOL0     C13475   2.076   9.153  10.526  0.0420 -0.4221 -0.1480
  103MOL0     C13476   2.210   9.163  10.602 -0.3324 -0.5526  0.0861
  103MOL0     C13477   2.199   9.105  10.742  0.0731  0.2421 -0.5140
  103MOL0     C13478   2.344   9.083  10.796 -0.2753 -0.5263 -0.2801
  103MOL0     C13479   2.354   8.995  10.917  1.2644  0.0258  0.0648
  103MOL0     C13480   2.505   8.966  10.951 -0.5620  0.4491  0.1427
  103MOL0     N13481   2.523   8.866  11.064  1.2608 -0.5181  0.3774
  103MOL0     C13482   2.478   8.744  11.056  0.3461 -0.3552 -0.2342
  103MOL0     C13483   2.487   8.701  11.185  0.5328  0.2448  0.1849
  103MOL0     C13484   2.471   8.555  11.218  0.1376  0.0675  0.3404
  103MOL0     C13485   2.335   8.507  11.225  0.4580 -0.5361 -0.9278
  103MOL0     C13486   2.257   8.572  11.338  0.0385  0.6468  0.7222
  103MOL0     C13487   2.309   8.599  11.479 -0.2977 -0.6159 -0.0821
  103MOL0     O13488   2.311   8.473  11.551  0.2058  0.0113 -0.1208
  103MOL0     C13489   2.194   8.421  11.600 -0.4127  0.3581  0.0996
  103MOL0     C13490   2.203   8.303  11.669  0.8272 -0.0497  1.2568
  103MOL0     C13491   2.075   8.228  11.693 -0.7276 -0.1546  0.1423
  103MOL0     C13492   1.951   8.275  11.658  0.0154  0.6123  0.1818
  103MOL0     C13493   1.820   8.211  11.712 -0.2342  0.2395  0.4772
  103MOL0     O13494   1.704   8.280  11.670 -0.2050 -0.1498  0.0744
  103MOL0     C13495   1.580   8.250  11.733  0.0860  1.0607 -0.3895
  103MOL0     C13496   1.470   8.267  11.653 -0.1032  0.1882  1.1305
  103MOL0     C13497   1.342   8.226  11.691 -0.4194  0.0614 -0.5932
  103MOL0     C13498   1.316   8.187  11.825 -0.3103  0.9508 -0.3438
  103MOL0     O13499   1.190   8.151  11.864  0.2573  0.1188  0.6036
  103MOL0     C13500   1.160   8.033  11.935 -0.1120  0.4966 -0.6730
  103MOL0     C13501   1.011   8.016  11.965  0.4428  1.0534  0.0874
  103MOL0     C13502   0.982   8.082  12.101  0.2432 -0.4294 -0.7385
  103MOL0     C13503   0.827   8.093  12.108  0.2084  0.0511  0.4051
  103MOL0     C13504   0.767   7.946  12.125  0.0085  0.9383 -0.3947
  103MOL0     C13505   0.618   7.969  12.155 -0.3860 -1.1541  0.2275
  103MOL0     C13506   0.540   7.832  12.164 -0.0285 -0.3026 -0.6301
  103MOL0     C13507   0.609   7.737  12.259 -0.6836 -0.5894  0.5630
  103MOL0    Cl13508   0.643   7.814  12.429 -0.4897  0.1178 -0.2731
  103MOL0     C13509   1.426   8.179  11.904 -0.3841  1.2297  0.0095
  103MOL0     C13510   1.554   8.207  11.862  0.4866 -0.9968  0.7619
  103MOL0     O13511   1.817   8.105  11.771 -0.5438  0.1864 -0.2173
  103MOL0     C13512   1.949   8.401  11.583  0.0604  0.3738  0.2686
  103MOL0     C13513   2.066   8.471  11.569  0.3827 -0.7015  0.6582
  103MOL0     N13514   2.538   8.801  11.266 -0.0983  0.3217  0.0890
  103MOL0     N13515   2.546   8.906  11.188 -0.4335  0.0804  0.0160
  103MOL0     C13516   1.737   8.982  10.197 -0.3681 -0.0277  0.0769
  103MOL0     C13517   1.610   8.952  10.142  0.1423 -0.0254  1.0531
  103MOL0     C13518   1.260   9.006   9.859  0.8689  0.0381 -0.2082
  103MOL0     C13519   1.162   8.936   9.936 -0.0495  0.6876  0.5132
  103MOL0     C13520   1.042   8.893   9.870  0.1466 -0.0889  0.6914
  103MOL0     C13521   1.027   8.916   9.740 -0.9168 -0.3118  0.3423
  103MOL0     O13522   0.913   8.893   9.662 -0.2615 -0.4854 -0.9043
  103MOL0     C13523   0.795   8.826   9.714  0.2799  1.0010  0.5878
  103MOL0     C13524   0.734   8.746   9.592 -0.8983 -0.4553 -0.8252
  103MOL0     C13525   0.596   8.696   9.617  0.5516  0.0620  0.5489
  103MOL0     C13526   0.564   8.573   9.533 -0.2190 -0.2478  0.4864
  103MOL0     C13527   0.630   8.445   9.574  0.1881 -0.6638  0.1648
  103MOL0     C13528   0.695   8.368   9.639  0.2467  0.0370 -0.0345
  103MOL0     C13529   1.133   8.980   9.669  1.0169  0.0925 -0.2515
  103MOL0     C13530   1.242   9.027   9.723 -0.6549  0.0044 -1.1135
  103MOL0     H13531   1.437   9.236  10.180 -0.4554  0.2081 -1.9631
  103MOL0     H13532   1.629   9.295  10.303  2.2570  0.9328 -1.4615
  103MOL0     H13533   2.012   9.080  10.192 -3.2242  3.2592 -0.1809
  103MOL0     H13534   1.965   8.971  10.318 -4.7512 -0.3808 -0.5662
  103MOL0     H13535   2.132   9.228  10.338  2.3786 -2.1577 -3.5553
  103MOL0     H13536   2.184   9.065  10.359  1.6791  1.1750  0.9341
  103MOL0     H13537   2.025   9.067  10.569  0.3390 -0.7341 -0.4182
  103MOL0     H13538   2.010   9.239  10.539  1.0609  0.7624 -2.2749
  103MOL0     H13539   2.292   9.128  10.537 -0.4271  0.0988 -0.4009
  103MOL0     H13540   2.225   9.271  10.609 -0.0498 -0.3882 -2.1168
  103MOL0     H13541   2.153   9.006  10.743 -3.4177  1.7377 -0.9253
  103MOL0     H13542   2.129   9.170  10.795  0.6199  1.1990 -0.9164
  103MOL0     H13543   2.389   9.179  10.824 -1.9601 -0.4194  2.3856
  103MOL0     H13544   2.406   9.032  10.722 -0.6191 -0.7162 -0.4361
  103MOL0     H13545   2.303   9.036  11.005  0.3877 -3.8312  1.5748
  103MOL0     H13546   2.318   8.896  10.885  0.8242  0.1435  0.1940
  103MOL0     H13547   2.560   9.060  10.969 -2.1368  1.2952  0.7314
  103MOL0     H13548   2.523   8.913  10.857  2.6426  3.1523 -0.9765
  103MOL0     H13549   2.452   8.682  10.971 -3.4839  0.3110  0.2636
  103MOL0     H13550   2.525   8.529  11.309 -0.3975 -0.5497  0.4869
  103MOL0     H13551   2.521   8.500  11.138 -0.3394  0.4938 -0.2679
  103MOL0     H13552   2.329   8.400  11.247 -2.4982 -0.2093  0.3121
  103MOL0     H13553   2.275   8.516  11.134 -1.1335 -1.1241  0.0257
  103MOL0     H13554   2.229   8.670  11.298  0.3373  1.0267  1.4170
  103MOL0     H13555   2.165   8.514  11.353 -0.3515  0.4558 -1.9219
  103MOL0     H13556   2.241   8.658  11.541 -0.0585 -0.3816 -0.0410
  103MOL0     H13557   2.406   8.650  11.474 -0.6134  0.1690  1.3924
  103MOL0     H13558   2.301   8.270  11.702  2.0112  1.1719 -0.8291
  103MOL0     H13559   2.097   8.150  11.766  2.6348 -0.1920 -0.7507
  103MOL0     H13560   1.468   8.315  11.555  1.4499 -0.3967  0.7846
  103MOL0     H13561   1.246   8.240  11.643 -0.9578  0.0656  0.4409
  103MOL0     H13562   1.217   8.022  12.028 -0.4065  3.7252  0.0183
  103MOL0     H13563   1.195   7.949  11.875 -3.7539  0.8106 -3.6084
  103MOL0     H13564   0.989   7.910  11.970 -0.0143  1.1819  0.9757
  103MOL0     H13565   0.951   8.064  11.887 -0.8768  0.8618  0.9530
  103MOL0     H13566   1.029   8.181  12.101 -0.7138  0.0413 -0.3320
  103MOL0     H13567   1.029   8.020  12.178 -0.1889 -2.9386 -2.3668
  103MOL0     H13568   0.807   8.154  12.196  0.7300 -2.0070  2.0463
  103MOL0     H13569   0.774   8.143  12.027 -2.5120 -3.9783 -0.6256
  103MOL0     H13570   0.817   7.897  12.209 -0.2133 -0.8473 -1.2609
  103MOL0     H13571   0.787   7.877  12.043 -0.5209 -1.2790  1.2759
  103MOL0     H13572   0.579   8.023  12.069 -0.1270 -1.1312  0.1251
  103MOL0     H13573   0.604   8.017  12.252  2.4964  1.5383 -0.5368
  103MOL0     H13574   0.443   7.849  12.211  0.7384 -0.3954  1.1055
  103MOL0     H13575   0.533   7.787  12.065 -0.6379 -2.2022  0.2250
  103MOL0     H13576   0.701   7.706  12.208 -1.8685 -0.9454 -1.4779
  103MOL0     H13577   0.534   7.658  12.260 -3.1311  1.5036 -2.2578
  103MOL0     H13578   1.402   8.158  12.007  1.8313 -0.5423  0.2490
  103MOL0     H13579   1.636   8.207  11.932  1.9633 -1.5502 -0.8907
  103MOL0     H13580   1.853   8.444  11.556 -0.6489  0.6764  2.9446
  103MOL0     H13581   2.054   8.568  11.521  0.3321 -1.5350 -1.0966
  103MOL0     H13582   1.809   8.902  10.211 -1.6043 -1.5977 -2.0061
  103MOL0     H13583   1.586   8.854  10.102  0.6658 -1.4898  4.0100
  103MOL0     H13584   1.156   8.913  10.042 -0.5918 -4.9247 -0.4304
  103MOL0     H13585   0.957   8.853   9.925 -0.0104  0.8213  1.1252
  103MOL0     H13586   0.720   8.903   9.732 -3.2420 -2.2355  0.8467
  103MOL0     H13587   0.819   8.759   9.797  0.8124 -1.0955 -1.1480
  103MOL0     H13588   0.734   8.819   9.510  2.7009 -1.7528 -2.1769
  103MOL0     H13589   0.808   8.668   9.570  2.5452  2.4810 -0.6984
  103MOL0     H13590   0.524   8.774   9.589  2.0246  1.1680 -0.3670
  103MOL0     H13591   0.581   8.677   9.723 -0.6656  2.4456  0.8746
  103MOL0     H13592   0.455   8.563   9.533 -0.4466  1.8989  0.8461
  103MOL0     H13593   0.582   8.600   9.428 -3.1675 -0.0318 -0.0516
  103MOL0     H13594   0.756   8.316   9.710  0.2246 -0.9349 -0.7040
  103MOL0     H13595   1.111   8.995   9.563 -3.5315 -1.0654  0.2831
  103MOL0     H13596   1.315   9.081   9.664 -1.0022  1.2488 -0.4405
  104MOL0     O13597   3.280   4.791   1.280 -0.5726  0.0486 -0.3008
  104MOL0     C13598   3.285   4.912   1.257 -0.0442 -0.5716 -0.3023
  104MOL0     O13599   3.180   4.998   1.280 -0.1860 -0.4519  0.0555
  104MOL0     C13600   3.070   4.946   1.346  0.7291  0.8185 -0.3828
  104MOL0     C13601   2.941   4.979   1.304 -0.1185  0.0206 -0.8095
  104MOL0     C13602   2.823   4.940   1.374  0.1662  0.0582 -0.1682
  104MOL0     C13603   2.831   4.839   1.473  0.1521  0.1254  0.1902
  104MOL0     O13604   2.725   4.787   1.544  0.5606  0.2816  0.4715
  104MOL0     C13605   2.718   4.667   1.630 -0.0880  0.1415 -0.5354
  104MOL0     C13606   2.584   4.602   1.620  0.3877  0.3109  1.5642
  104MOL0     C13607   2.453   4.692   1.623  0.5557 -0.4549  0.5452
  104MOL0     C13608   2.424   4.773   1.497  0.5686  0.5214 -0.2846
  104MOL0     C13609   2.281   4.789   1.467  0.6609  0.0338 -0.0218
  104MOL0     C13610   2.268   4.857   1.328  0.4261 -0.4599 -0.4670
  104MOL0     C13611   2.292   5.005   1.354 -0.4936 -0.0503 -0.2387
  104MOL0     C13612   2.219   5.093   1.258 -0.1493 -0.4855  0.2484
  104MOL0     N13613   2.074   5.101   1.281  0.4730  0.0760  0.1584
  104MOL0     C13614   2.006   5.142   1.389 -0.5093  0.3389  0.2941
  104MOL0     C13615   1.876   5.139   1.351 -0.3138  0.4746  0.1216
  104MOL0     C13616   1.766   5.193   1.440  1.7248 -0.2129 -0.3339
  104MOL0     C13617   1.771   5.347   1.474  0.1538 -0.3734 -0.2051
  104MOL0     C13618   1.889   5.382   1.571 -1.2083 -0.3113  0.1224
  104MOL0     C13619   1.862   5.339   1.717 -0.3186 -1.5620 -0.1368
  104MOL0     O13620   1.946   5.425   1.800  0.6494 -0.3762 -0.2459
  104MOL0     C13621   1.906   5.466   1.921  0.6347 -0.2972 -0.2841
  104MOL0     C13622   1.788   5.428   1.994 -0.1324 -0.1628  0.5256
  104MOL0     C13623   1.765   5.492   2.122 -0.0413 -0.3656  0.5433
  104MOL0     C13624   1.839   5.603   2.170  0.3641  0.8193 -0.5109
  104MOL0     C13625   1.805   5.657   2.305 -0.3965 -0.2010 -0.1434
  104MOL0     O13626   1.856   5.781   2.321  0.2264  0.0064  0.0611
  104MOL0     C13627   1.836   5.850   2.436 -0.9192 -0.7177 -0.6196
  104MOL0     C13628   1.707   5.887   2.475  0.4170 -0.1896 -0.5048
  104MOL0     C13629   1.684   5.948   2.600  0.0033  0.2321 -0.0841
  104MOL0     C13630   1.795   5.979   2.686  0.5535  0.2654 -0.6906
  104MOL0     O13631   1.782   6.023   2.814  0.4053  0.3637  0.5877
  104MOL0     C13632   1.671   6.113   2.844 -1.4117 -0.2679 -0.2444
  104MOL0     C13633   1.651   6.121   2.993  0.0585 -0.4706 -0.1594
  104MOL0     C13634   1.755   6.202   3.056 -0.0025 -0.0370 -0.1889
  104MOL0     C13635   1.729   6.350   3.052 -0.1327  0.2477 -0.0162
  104MOL0     C13636   1.845   6.426   3.115 -0.0532 -0.0638 -0.8324
  104MOL0     C13637   1.806   6.564   3.175 -0.4470  1.2031 -0.3960
  104MOL0     C13638   1.920   6.623   3.268  0.3498 -0.2620 -0.2203
  104MOL0     C13639   2.052   6.643   3.185  0.0514  0.0503 -0.3952
  104MOL0    Cl13640   2.153   6.752   3.273 -0.0404  0.2001  0.2441
  104MOL0     C13641   1.921   5.962   2.636 -0.2429 -0.5555 -0.6474
  104MOL0     C13642   1.937   5.893   2.517  0.2590  0.1004  0.6138
  104MOL0     O13643   1.735   5.598   2.387  0.1414 -0.1758 -0.5403
  104MOL0     C13644   1.945   5.639   2.090  0.0831 -0.0417  0.2222
  104MOL0     C13645   1.980   5.572   1.968 -0.8246  0.3822 -0.1240
  104MOL0     N13646   1.865   5.078   1.233  0.0472  0.5043 -1.0505
  104MOL0     N13647   1.985   5.055   1.191  0.3245  0.3374  0.2793
  104MOL0     C13648   2.961   4.801   1.512 -0.4915 -0.2820 -0.6858
  104MOL0     C13649   3.075   4.859   1.456  0.9513 -0.1102 -0.9072
  104MOL0     C13650   3.405   4.956   1.180  0.1341  0.5315 -1.4180
  104MOL0     C13651   3.494   4.860   1.111  0.1735 -1.0348 -0.0238
  104MOL0     C13652   3.590   4.901   1.023 -0.1693 -0.3461  2.3752
  104MOL0     C13653   3.616   5.037   0.999  0.1276  0.7939 -0.6701
  104MOL0     O13654   3.713   5.071   0.896  0.1033  0.1235 -0.4105
  104MOL0     C13655   3.843   5.073   0.942 -0.9782 -0.9544 -0.0225
  104MOL0     C13656   3.872   5.173   1.058 -1.2235 -0.6016 -1.2217
  104MOL0     C13657   3.913   5.313   1.005 -0.4656 -0.4636 -0.6791
  104MOL0     C13658   3.792   5.404   0.966  0.4310 -0.5886 -0.4479
  104MOL0     C13659   3.744   5.486   1.084 -0.0866 -0.3187  0.1119
  104MOL0     C13660   3.701   5.559   1.168 -0.2714 -0.6893 -0.0798
  104MOL0     C13661   3.539   5.125   1.068 -0.1284 -0.0297 -0.7379
  104MOL0     C13662   3.435   5.087   1.157 -0.7365 -0.7404  1.1631
  104MOL0     H13663   2.942   5.030   1.208  1.9627 -1.7492 -1.8067
  104MOL0     H13664   2.721   4.973   1.359  0.8079  2.0311 -0.4422
  104MOL0     H13665   2.733   4.706   1.731  0.3299  2.4864 -1.4303
  104MOL0     H13666   2.795   4.594   1.604 -1.0427 -1.0274 -0.1317
  104MOL0     H13667   2.574   4.543   1.711 -0.4260 -3.7216 -0.8916
  104MOL0     H13668   2.584   4.534   1.535  0.3848  1.6182  0.4703
  104MOL0     H13669   2.445   4.767   1.701 -1.1612  1.4287 -1.3016
  104MOL0     H13670   2.371   4.626   1.654  0.5936  0.6315  3.1913
  104MOL0     H13671   2.448   4.879   1.512 -1.1562  0.5487  2.9795
  104MOL0     H13672   2.482   4.744   1.408 -0.8423  1.7053 -1.6436
  104MOL0     H13673   2.230   4.837   1.551 -1.1134  0.5774 -1.3364
  104MOL0     H13674   2.243   4.686   1.464  0.5781  0.0710 -0.2697
  104MOL0     H13675   2.179   4.821   1.276  2.1447 -0.3990 -3.7834
  104MOL0     H13676   2.347   4.830   1.257  2.1610  1.8048  0.4631
  104MOL0     H13677   2.252   5.029   1.454 -0.6771  2.1725 -0.7792
  104MOL0     H13678   2.400   5.017   1.345 -0.3989 -0.8762 -0.2369
  104MOL0     H13679   2.256   5.061   1.160  2.3048  0.2902  0.8582
  104MOL0     H13680   2.269   5.190   1.272 -0.0524 -0.7082  1.5532
  104MOL0     H13681   2.042   5.171   1.488  0.0536  1.6769 -0.2752
  104MOL0     H13682   1.740   5.139   1.531 -4.6268  1.3227 -0.7651
  104MOL0     H13683   1.669   5.184   1.391  0.9966  3.9569 -0.0080
  104MOL0     H13684   1.673   5.389   1.499 -0.4234 -0.6685 -1.8268
  104MOL0     H13685   1.805   5.398   1.384  2.2788 -0.4539  0.4826
  104MOL0     H13686   1.987   5.346   1.539  0.2053  0.9261  2.7406
  104MOL0     H13687   1.900   5.490   1.562  2.2940 -0.5079  0.5664
  104MOL0     H13688   1.880   5.232   1.731  0.5397 -1.4210 -0.0744
  104MOL0     H13689   1.757   5.357   1.740  0.8876  0.4418  5.3870
  104MOL0     H13690   1.719   5.354   1.953 -2.2835  1.1813  1.5279
  104MOL0     H13691   1.688   5.442   2.180  1.0659 -1.2867  1.2716
  104MOL0     H13692   1.628   5.866   2.403 -1.0269  1.7822  0.3916
  104MOL0     H13693   1.578   5.960   2.616  0.0130 -0.5852  0.6713
  104MOL0     H13694   1.572   6.090   2.802 -0.4310  2.6828 -5.0182
  104MOL0     H13695   1.700   6.213   2.811 -2.0555 -0.1003 -0.3247
  104MOL0     H13696   1.645   6.023   3.042  1.8204 -1.6574 -2.1946
  104MOL0     H13697   1.553   6.165   3.017 -0.8316 -1.6582 -1.5042
  104MOL0     H13698   1.852   6.175   3.013  0.1260 -5.7202  2.7789
  104MOL0     H13699   1.763   6.166   3.159 -2.0420  0.7127  0.2728
  104MOL0     H13700   1.726   6.382   2.947  3.3391 -0.7170 -0.5390
  104MOL0     H13701   1.639   6.381   3.106  0.8012  0.7273  1.3283
  104MOL0     H13702   1.920   6.451   3.040 -0.3656  3.4617 -0.1105
  104MOL0     H13703   1.898   6.365   3.189 -1.1896 -0.2623 -0.1591
  104MOL0     H13704   1.711   6.557   3.229 -0.6755 -1.2561 -1.0087
  104MOL0     H13705   1.783   6.633   3.093 -1.8986  1.0444 -0.1400
  104MOL0     H13706   1.885   6.716   3.315  1.5967  1.1938 -2.0158
  104MOL0     H13707   1.938   6.557   3.354 -2.5597  0.2640  0.9110
  104MOL0     H13708   2.024   6.670   3.082  0.4179 -0.0073 -0.5098
  104MOL0     H13709   2.102   6.547   3.175  0.2152  0.2022 -1.0660
  104MOL0     H13710   2.016   6.000   2.672 -0.1437  0.8772 -2.2981
  104MOL0     H13711   2.036   5.866   2.480 -0.0220  1.9384 -1.7338
  104MOL0     H13712   2.009   5.720   2.121  2.1010 -0.9193 -1.3609
  104MOL0     H13713   2.063   5.609   1.908 -1.1408 -0.2246 -0.9482
  104MOL0     H13714   2.970   4.733   1.595  0.5514 -0.2037 -0.7269
  104MOL0     H13715   3.170   4.826   1.495  0.5241 -2.3981 -1.6459
  104MOL0     H13716   3.475   4.753   1.118  0.1429 -1.1258 -1.2660
  104MOL0     H13717   3.645   4.834   0.957 -1.4189  0.5292  0.3318
  104MOL0     H13718   3.899   5.093   0.850  0.3313  1.9439  1.2869
  104MOL0     H13719   3.851   4.968   0.974 -1.4946 -0.2359  2.7081
  104MOL0     H13720   3.777   5.179   1.111 -1.7334 -2.1441 -1.9147
  104MOL0     H13721   3.958   5.140   1.118 -2.3840 -0.5113  0.5410
  104MOL0     H13722   3.968   5.293   0.913  2.8120  0.8005  0.8669
  104MOL0     H13723   3.980   5.364   1.074  1.5259 -4.6258  0.7797
  104MOL0     H13724   3.830   5.477   0.893  1.1670  2.4704  2.7010
  104MOL0     H13725   3.709   5.343   0.931 -0.3894 -0.6962  1.5692
  104MOL0     H13726   3.645   5.609   1.244  1.8722 -1.1878  1.9573
  104MOL0     H13727   3.557   5.231   1.055  2.3496 -0.2652  0.2990
  104MOL0     H13728   3.387   5.171   1.206  0.6228 -0.3975  1.9952
  105MOL0     O13729   9.197   0.654   8.371 -0.3456 -0.1120 -0.0757
  105MOL0     C13730   9.242   0.581   8.459 -0.6296  0.9982  0.1499
  105MOL0     O13731   9.323   0.470   8.438  0.2735 -0.0531 -0.1183
  105MOL0     C13732   9.347   0.429   8.310  0.0483  0.7332  0.8084
  105MOL0     C13733   9.478   0.441   8.267 -0.0333 -0.1436 -0.1921
  105MOL0     C13734   9.514   0.388   8.141 -0.3325 -0.0364  0.1194
  105MOL0     C13735   9.422   0.347   8.045 -0.1557 -0.6926  0.0168
  105MOL0     O13736   9.460   0.285   7.928 -0.1980 -1.0112  0.1154
  105MOL0     C13737   9.570   0.343   7.857 -0.7008 -0.7551 -0.1255
  105MOL0     C13738   9.617   0.250   7.744  0.9898 -1.2880  0.2662
  105MOL0     C13739   9.721   0.306   7.652 -0.0121  0.3423  0.6026
  105MOL0     C13740   9.779   0.196   7.555 -1.1334  0.7822  0.2726
  105MOL0     C13741   9.895   0.245   7.469 -0.5997  0.8502 -0.0487
  105MOL0     C13742   9.970   0.123   7.400  0.2494 -0.8047  0.4038
  105MOL0     C13743  10.062   0.153   7.279 -0.1187 -0.7079 -0.4498
  105MOL0     C13744  10.153   0.050   7.247  0.6389  0.5325 -0.3809
  105MOL0     N13745  10.094  -0.048   7.162 -0.5803 -0.4016  0.5766
  105MOL0     C13746  10.059  -0.024   7.028 -0.1859  0.5269  0.1058
  105MOL0     C13747  10.003  -0.146   6.988  0.3087  0.1283  0.1592
  105MOL0     C13748   9.952  -0.190   6.853 -1.1054 -0.5620  0.9994
  105MOL0     C13749  10.044  -0.152   6.730  0.0251 -0.6681 -0.5828
  105MOL0     C13750   9.975  -0.106   6.601 -0.4423 -0.8579 -0.4602
  105MOL0     C13751  10.081  -0.127   6.493 -0.1640  0.2758  0.7783
  105MOL0     O13752  10.026  -0.081   6.368  0.4367 -0.3375  0.3221
  105MOL0     C13753  10.108  -0.113   6.266 -0.0610  0.1428 -0.5324
  105MOL0     C13754  10.224  -0.188   6.276 -0.7292  0.5271  0.7824
  105MOL0     C13755  10.299  -0.228   6.166 -0.3143 -0.2112 -0.3846
  105MOL0     C13756  10.263  -0.167   6.037 -1.1771 -0.5497 -0.4531
  105MOL0     C13757  10.326  -0.203   5.905  1.2873 -0.3587 -0.4391
  105MOL0     O13758  10.289  -0.131   5.788 -0.0770 -0.2846  0.0059
  105MOL0     C13759  10.306  -0.178   5.661 -0.7413  0.4809  0.4224
  105MOL0     C13760  10.313  -0.321   5.623  0.0939  0.0546 -0.8671
  105MOL0     C13761  10.330  -0.357   5.492 -0.4860  0.2860  0.1521
  105MOL0     C13762  10.376  -0.263   5.394  0.1085  0.9426  0.5081
  105MOL0     O13763  10.407  -0.301   5.262 -0.0996  0.1088 -0.2698
  105MOL0     C13764  10.354  -0.423   5.212 -0.3043  0.6324  0.8803
  105MOL0     C13765  10.416  -0.458   5.076  0.6809 -0.6121  0.8971
  105MOL0     C13766  10.559  -0.472   5.076 -0.7071 -0.4821  0.7065
  105MOL0     C13767  10.607  -0.491   4.933 -0.3678  0.9050 -0.7288
  105MOL0     C13768  10.674  -0.376   4.879 -0.6944 -0.0087 -0.7289
  105MOL0     C13769  10.730  -0.392   4.738 -0.3167 -0.8245 -0.6666
  105MOL0     C13770  10.616  -0.378   4.641 -0.8139  0.4827  0.7682
  105MOL0     C13771  10.636  -0.457   4.509  0.4787  0.0281 -0.3586
  105MOL0    Cl13772  10.598  -0.625   4.552  0.1304  0.4355  0.0954
  105MOL0     C13773  10.370  -0.127   5.428 -0.8771 -0.3141 -0.2451
  105MOL0     C13774  10.322  -0.084   5.558  0.1530  0.6817  0.7759
  105MOL0     O13775  10.375  -0.310   5.906  0.0060  0.6478  0.0695
  105MOL0     C13776  10.159  -0.065   6.038 -1.0789  0.1695 -0.3861
  105MOL0     C13777  10.082  -0.040   6.152  0.2590  0.9514 -0.5363
  105MOL0     N13778  10.006  -0.241   7.084 -0.0495 -0.0302  0.1777
  105MOL0     N13779  10.058  -0.178   7.182 -0.5770  0.1781 -0.4277
  105MOL0     C13780   9.291   0.356   8.088 -0.0202  0.5250  0.4715
  105MOL0     C13781   9.254   0.380   8.219 -0.2427 -0.9579 -0.0370
  105MOL0     C13782   9.221   0.624   8.599  0.5446  0.1859 -0.1571
  105MOL0     C13783   9.284   0.556   8.703 -0.5188 -0.3560  0.0666
  105MOL0     C13784   9.261   0.587   8.833 -0.4684 -0.5205  0.6242
  105MOL0     C13785   9.195   0.705   8.875 -0.2612 -0.2513  0.0621
  105MOL0     O13786   9.188   0.727   9.016  0.8756  0.2173  0.1348
  105MOL0     C13787   9.066   0.809   9.039  0.9274  0.3345 -0.8200
  105MOL0     C13788   9.019   0.782   9.185  0.1975 -0.1027 -1.2570
  105MOL0     C13789   8.912   0.880   9.253  0.2097  0.0169 -0.8279
  105MOL0     C13790   8.865   0.836   9.389  0.5230  0.3062  0.5285
  105MOL0     C13791   8.771   0.943   9.444 -0.3101  0.0934  1.2618
  105MOL0     C13792   8.717   1.039   9.489 -0.4105 -0.3681 -0.0490
  105MOL0     C13793   9.139   0.778   8.771  0.8464 -0.6594  0.1363
  105MOL0     C13794   9.142   0.731   8.635 -0.4240 -0.3341 -0.5744
  105MOL0     H13795   9.553   0.497   8.323  0.6141  0.1888 -1.3410
  105MOL0     H13796   9.617   0.372   8.112 -0.7207  1.1434 -2.1531
  105MOL0     H13797   9.655   0.382   7.913 -1.0107 -0.0530 -0.1326
  105MOL0     H13798   9.523   0.427   7.806  2.5834  1.2289 -0.1349
  105MOL0     H13799   9.535   0.211   7.683  1.5371  1.4436 -2.4834
  105MOL0     H13800   9.652   0.166   7.804 -1.1751 -0.8621  2.3039
  105MOL0     H13801   9.804   0.340   7.715  0.6329 -0.1210  0.0213
  105MOL0     H13802   9.674   0.387   7.595  0.2227  0.1307  0.0982
  105MOL0     H13803   9.803   0.096   7.594 -0.5149 -1.0593 -4.2346
  105MOL0     H13804   9.704   0.164   7.483  0.7705 -3.4012 -0.1843
  105MOL0     H13805   9.966   0.304   7.527 -1.7307 -0.5494  2.9828
  105MOL0     H13806   9.848   0.311   7.395  2.4894  1.7372 -1.3867
  105MOL0     H13807   9.891   0.062   7.354 -0.6768  0.4730  0.2476
  105MOL0     H13808  10.022   0.061   7.473  1.9678  1.4777  1.2326
  105MOL0     H13809  10.015   0.188   7.187  3.0207  1.3079 -1.4375
  105MOL0     H13810  10.127   0.237   7.305  1.1961 -1.1224 -2.2099
  105MOL0     H13811  10.212   0.004   7.327  3.1393  1.7745 -1.3923
  105MOL0     H13812  10.227   0.109   7.192 -0.7364  0.2803 -2.5899
  105MOL0     H13813  10.073   0.063   6.965  1.3828  1.1487  1.2429
  105MOL0     H13814   9.852  -0.145   6.849 -1.2367 -0.8609  0.8584
  105MOL0     H13815   9.939  -0.299   6.857  0.9445 -0.9275 -0.7922
  105MOL0     H13816  10.120  -0.230   6.718  0.4780 -0.3256  0.0023
  105MOL0     H13817  10.100  -0.065   6.768  0.6006 -1.5293  0.5975
  105MOL0     H13818   9.877  -0.150   6.579 -0.1822 -2.3188  1.1024
  105MOL0     H13819   9.946  -0.001   6.591  0.1698 -0.7705 -1.4771
  105MOL0     H13820  10.100  -0.235   6.488 -0.9324  0.1777 -0.1299
  105MOL0     H13821  10.169  -0.065   6.517  0.5409 -0.4402  0.1150
  105MOL0     H13822  10.265  -0.237   6.364 -0.5586 -0.8905 -0.0491
  105MOL0     H13823  10.372  -0.307   6.177  0.5365  0.9663  4.5714
  105MOL0     H13824  10.283  -0.401   5.690  2.4212  1.3180  1.8823
  105MOL0     H13825  10.327  -0.461   5.459 -0.2505 -0.0474  1.1497
  105MOL0     H13826  10.247  -0.410   5.195 -0.5340 -0.8636  1.0116
  105MOL0     H13827  10.376  -0.507   5.279  3.2665 -0.5599 -1.4447
  105MOL0     H13828  10.393  -0.377   5.006  3.1317 -0.0425  0.6652
  105MOL0     H13829  10.368  -0.550   5.041  3.2062 -1.4628 -0.5676
  105MOL0     H13830  10.599  -0.556   5.134 -2.0846 -1.2860  0.5236
  105MOL0     H13831  10.606  -0.378   5.109 -0.3042  1.0601 -3.5650
  105MOL0     H13832  10.684  -0.567   4.947  1.4335  2.8749  0.6679
  105MOL0     H13833  10.526  -0.522   4.866  0.6251  3.5664 -3.3872
  105MOL0     H13834  10.750  -0.339   4.947  0.4380 -0.0138 -1.9489
  105MOL0     H13835  10.609  -0.288   4.873  1.5739  1.6864 -1.5864
  105MOL0     H13836  10.805  -0.470   4.721  0.9481  0.5588 -1.7400
  105MOL0     H13837  10.792  -0.303   4.724 -1.0046 -0.1554  0.4020
  105MOL0     H13838  10.515  -0.408   4.670 -1.0462  0.4896 -0.0069
  105MOL0     H13839  10.617  -0.274   4.608 -5.8934  0.7216  0.5726
  105MOL0     H13840  10.738  -0.455   4.471  0.5104  1.6769 -0.2728
  105MOL0     H13841  10.576  -0.413   4.429 -0.6682 -1.4877 -0.3697
  105MOL0     H13842  10.386  -0.041   5.365 -2.0057  2.3787  2.8810
  105MOL0     H13843  10.320   0.021   5.585 -1.0526  0.4773  1.5592
  105MOL0     H13844  10.131  -0.014   5.947 -0.6944 -1.0153 -1.1981
  105MOL0     H13845  10.005   0.036   6.160 -1.3759 -0.6303 -0.6182
  105MOL0     H13846   9.227   0.326   8.006  1.2375 -0.8744 -0.0386
  105MOL0     H13847   9.155   0.370   8.263 -1.7356  2.5579 -2.1097
  105MOL0     H13848   9.341   0.467   8.677 -2.4970 -2.1069  1.4118
  105MOL0     H13849   9.283   0.512   8.908 -0.9486  1.0304  2.4027
  105MOL0     H13850   8.980   0.783   8.976 -2.4450 -2.6936  4.1788
  105MOL0     H13851   9.094   0.914   9.037  1.8417  0.1820  1.0824
  105MOL0     H13852   8.981   0.680   9.187  1.6025 -0.6484  0.7618
  105MOL0     H13853   9.111   0.789   9.243  0.2988 -1.7143 -1.1791
  105MOL0     H13854   8.823   0.884   9.190 -0.5106  1.7383  0.2343
  105MOL0     H13855   8.951   0.982   9.251 -0.6865  0.4233  0.7563
  105MOL0     H13856   8.814   0.740   9.378  4.9056 -2.0292 -1.9918
  105MOL0     H13857   8.961   0.819   9.439 -0.1562  1.2104  2.2418
  105MOL0     H13858   8.688   1.133   9.531 -0.9642 -0.4592 -0.2160
  105MOL0     H13859   9.092   0.875   8.782  3.0585  0.4372  0.3810
  105MOL0     H13860   9.103   0.797   8.558 -3.7026 -1.2496  0.1692
  106MOL0     O13861   1.854   9.652   3.669 -0.1167  1.0622 -0.0535
  106MOL0     C13862   1.782   9.692   3.763 -0.7632  0.9175  0.9840
  106MOL0     O13863   1.774   9.832   3.786  0.6892  0.4905 -0.3749
  106MOL0     C13864   1.871   9.912   3.742  0.7589 -0.4897 -0.2827
  106MOL0     C13865   1.971   9.962   3.830  1.3214  0.9693 -0.1655
  106MOL0     C13866   2.083  10.031   3.793  1.1430  0.3424  0.4928
  106MOL0     C13867   2.097  10.074   3.656  0.7190 -0.8796 -0.2520
  106MOL0     O13868   2.199  10.156   3.619 -0.4170  0.2519 -0.1146
  106MOL0     C13869   2.303  10.088   3.555 -0.3960 -0.2478  0.4171
  106MOL0     C13870   2.419  10.179   3.502  0.1764  0.0162  0.7033
  106MOL0     C13871   2.490  10.118   3.374 -0.5121 -0.8993 -0.4008
  106MOL0     C13872   2.601  10.022   3.413  1.4044 -0.0551 -0.0678
  106MOL0     C13873   2.568   9.875   3.412 -0.3116 -0.8091 -0.0918
  106MOL0     C13874   2.699   9.786   3.415  0.1233 -0.5013  1.2789
  106MOL0     C13875   2.767   9.784   3.555  0.3594 -0.8937  0.1111
  106MOL0     C13876   2.850   9.660   3.571 -0.3442  1.0199 -0.8662
  106MOL0     N13877   2.915   9.666   3.704 -1.2499 -0.0938  0.3886
  106MOL0     C13878   2.881   9.581   3.809 -0.3639 -0.1970 -0.2832
  106MOL0     C13879   2.960   9.631   3.911  1.3150 -0.0471  0.3346
  106MOL0     C13880   2.960   9.599   4.059  1.0930  0.3528  1.1968
  106MOL0     C13881   3.032   9.472   4.088 -0.1587  0.7676  1.0492
  106MOL0     C13882   3.023   9.439   4.233 -0.0772  0.8310 -0.5383
  106MOL0     C13883   3.131   9.336   4.279 -0.6081 -0.2268  0.6664
  106MOL0     O13884   3.133   9.227   4.180 -0.0292  0.3874 -0.8014
  106MOL0     C13885   3.036   9.121   4.203  0.0545 -0.6269  0.1646
  106MOL0     C13886   2.951   9.069   4.104  0.3919 -0.8757 -0.0823
  106MOL0     C13887   2.848   8.981   4.132 -0.4635  0.9524 -0.2745
  106MOL0     C13888   2.830   8.932   4.264  0.1432  0.4193  0.2989
  106MOL0     C13889   2.736   8.828   4.288  0.0856 -1.2079  0.2483
  106MOL0     O13890   2.769   8.736   4.386 -0.1480  0.1308  0.0192
  106MOL0     C13891   2.675   8.638   4.411 -1.1754 -0.6661  0.3284
  106MOL0     C13892   2.712   8.505   4.415 -0.1429 -0.5083 -0.8535
  106MOL0     C13893   2.613   8.403   4.435 -0.7706 -0.6183 -0.7572
  106MOL0     C13894   2.493   8.441   4.478  0.0008  0.2065  0.0237
  106MOL0     O13895   2.407   8.344   4.507  0.5720  0.1645 -0.4153
  106MOL0     C13896   2.288   8.330   4.419  0.4480  0.4682 -0.6762
  106MOL0     C13897   2.309   8.245   4.296 -0.3329  1.3047 -0.0367
  106MOL0     C13898   2.351   8.097   4.331 -0.0632 -0.2708 -0.7052
  106MOL0     C13899   2.356   7.985   4.223  0.8333 -0.9235  0.1339
  106MOL0     C13900   2.418   7.844   4.249  0.2441 -0.6070 -0.0813
  106MOL0     C13901   2.351   7.753   4.348 -0.7261  0.2882 -0.1866
  106MOL0     C13902   2.216   7.692   4.305  0.2170 -0.4615  0.4911
  106MOL0     C13903   2.230   7.538   4.280  0.1633 -0.7420 -0.4887
  106MOL0    Cl13904   2.077   7.484   4.223 -0.1471  0.3601 -0.0752
  106MOL0     C13905   2.455   8.574   4.475 -0.0427 -0.9240 -0.0173
  106MOL0     C13906   2.540   8.677   4.436  0.1842  0.2406  0.4194
  106MOL0     O13907   2.641   8.827   4.208  0.2002 -0.4286  0.3370
  106MOL0     C13908   2.923   8.969   4.363 -0.2417  0.3544 -0.7649
  106MOL0     C13909   3.024   9.063   4.333 -0.0984  1.1468  0.6479
  106MOL0     N13910   3.035   9.741   3.871 -0.2354  0.3342  0.3032
  106MOL0     N13911   3.008   9.757   3.746  0.1534  0.1167 -0.0961
  106MOL0     C13912   1.988  10.037   3.564  0.7311  1.0984 -0.3711
  106MOL0     C13913   1.887   9.947   3.611 -0.4156 -0.2353  0.3515
  106MOL0     C13914   1.692   9.591   3.821 -0.9151 -0.4693  0.2160
  106MOL0     C13915   1.563   9.637   3.859  0.4411  0.1804 -1.8318
  106MOL0     C13916   1.466   9.541   3.903 -0.4466 -0.3451 -0.2047
  106MOL0     C13917   1.496   9.408   3.907 -0.9397  1.1464 -0.6191
  106MOL0     O13918   1.416   9.307   3.949 -0.1601  0.3629 -0.1398
  106MOL0     C13919   1.294   9.320   4.025 -0.0684  0.3369  0.3422
  106MOL0     C13920   1.329   9.346   4.165  0.3951 -0.6188 -0.7678
  106MOL0     C13921   1.193   9.350   4.247 -0.4499 -0.5477  0.0145
  106MOL0     C13922   1.160   9.479   4.302  0.2664 -0.2623  0.1620
  106MOL0     C13923   1.141   9.574   4.190  0.5383 -0.0763  0.2720
  106MOL0     C13924   1.129   9.657   4.099 -0.0485 -0.3408  0.5007
  106MOL0     C13925   1.627   9.363   3.862 -0.7743 -0.4640  0.3595
  106MOL0     C13926   1.720   9.458   3.825 -0.5987 -0.2493 -0.2876
  106MOL0     H13927   1.955   9.931   3.932 -1.6980 -2.4814 -1.4647
  106MOL0     H13928   2.148  10.045   3.878 -0.2491 -0.3554  1.7015
  106MOL0     H13929   2.265  10.023   3.476  1.4425 -3.4815  1.9572
  106MOL0     H13930   2.358  10.016   3.617  0.1583  0.7555  1.1142
  106MOL0     H13931   2.493  10.193   3.582  1.9113  0.9658 -0.9665
  106MOL0     H13932   2.380  10.278   3.477 -2.4332 -0.8834  0.9910
  106MOL0     H13933   2.543  10.198   3.322 -1.9960 -1.0924 -2.3026
  106MOL0     H13934   2.425  10.063   3.305 -1.1634  0.5602 -0.9703
  106MOL0     H13935   2.687  10.043   3.349  0.3327 -0.3719 -1.6673
  106MOL0     H13936   2.628  10.050   3.516  2.0122 -1.4728  0.1819
  106MOL0     H13937   2.501   9.854   3.329  0.9896 -1.2860 -1.0622
  106MOL0     H13938   2.510   9.859   3.504  2.1975 -1.0559  1.5569
  106MOL0     H13939   2.770   9.817   3.338 -1.9717  1.7230  0.1038
  106MOL0     H13940   2.668   9.685   3.388  0.9572 -0.7882  1.3720
  106MOL0     H13941   2.826   9.876   3.546 -0.5014 -0.3479 -0.0133
  106MOL0     H13942   2.710   9.779   3.648  2.4453 -2.6470  1.3946
  106MOL0     H13943   2.922   9.654   3.489 -0.2624 -3.8515 -0.7112
  106MOL0     H13944   2.786   9.572   3.569 -0.3513  1.0298 -2.0873
  106MOL0     H13945   2.809   9.499   3.809  1.4997 -2.1678  4.2012
  106MOL0     H13946   2.855   9.594   4.091 -0.1713  4.3838 -1.5005
  106MOL0     H13947   3.003   9.682   4.115  0.4373  0.1928  1.9537
  106MOL0     H13948   3.138   9.485   4.065 -0.6316  3.9091  0.2198
  106MOL0     H13949   3.003   9.386   4.027 -1.0389  2.6842 -1.4133
  106MOL0     H13950   3.043   9.526   4.296  1.9122  0.3036 -0.3839
  106MOL0     H13951   2.929   9.388   4.257  1.1007 -1.7678 -1.1517
  106MOL0     H13952   3.108   9.310   4.382  1.4109  5.8327  3.0670
  106MOL0     H13953   3.229   9.383   4.275  1.1430 -3.3792  3.0568
  106MOL0     H13954   2.962   9.121   4.009 -0.7475  3.0374  1.7610
  106MOL0     H13955   2.779   8.951   4.053 -0.9214 -1.3861  0.9137
  106MOL0     H13956   2.809   8.492   4.369 -0.4122  0.7174 -1.8280
  106MOL0     H13957   2.647   8.303   4.410  0.6350 -0.2328 -0.4714
  106MOL0     H13958   2.253   8.428   4.383 -1.2478  0.0497 -0.2857
  106MOL0     H13959   2.208   8.279   4.475  1.5910  0.7460  1.3024
  106MOL0     H13960   2.380   8.287   4.224  0.1143  2.7729  1.1971
  106MOL0     H13961   2.209   8.238   4.254 -0.7713  0.8286  1.0400
  106MOL0     H13962   2.283   8.053   4.405  0.2754 -0.0831 -0.2798
  106MOL0     H13963   2.451   8.102   4.375  0.8573 -0.2098 -2.7007
  106MOL0     H13964   2.251   7.984   4.191  0.4968  1.1449  1.0504
  106MOL0     H13965   2.416   8.026   4.142  2.6246 -0.8174  1.4656
  106MOL0     H13966   2.517   7.871   4.289  0.2909  2.8840 -2.1064
  106MOL0     H13967   2.448   7.797   4.155 -0.9277  0.7432 -1.1778
  106MOL0     H13968   2.333   7.797   4.446 -1.9510 -1.2562  0.3127
  106MOL0     H13969   2.418   7.671   4.376  1.2683  2.6068  2.3026
  106MOL0     H13970   2.146   7.735   4.377  3.2581  4.7290  0.8334
  106MOL0     H13971   2.175   7.725   4.209 -1.2726 -0.6184  1.0498
  106MOL0     H13972   2.255   7.476   4.367  0.8877 -0.3262 -0.3942
  106MOL0     H13973   2.307   7.512   4.207 -1.6880 -1.0418 -2.4566
  106MOL0     H13974   2.357   8.608   4.509 -0.4362  0.1007 -2.0103
  106MOL0     H13975   2.508   8.781   4.434  0.7076  0.4164  0.8597
  106MOL0     H13976   2.931   8.944   4.469  0.9255  0.9797 -0.6825
  106MOL0     H13977   3.087   9.081   4.419  1.6721 -2.0486  0.2007
  106MOL0     H13978   1.979  10.076   3.463  1.4760  0.2990 -0.7559
  106MOL0     H13979   1.834   9.907   3.525  0.6326  1.1806 -1.0285
  106MOL0     H13980   1.533   9.742   3.861 -0.1581  0.0934 -3.8372
  106MOL0     H13981   1.367   9.569   3.938 -0.5801 -1.8292  0.6636
  106MOL0     H13982   1.236   9.227   4.026 -1.4232  1.1318  3.0033
  106MOL0     H13983   1.230   9.401   3.986  0.4567  1.3935  1.6210
  106MOL0     H13984   1.403   9.276   4.205 -1.7015 -0.5116  4.1120
  106MOL0     H13985   1.376   9.445   4.171 -0.1797 -0.2669 -1.8525
  106MOL0     H13986   1.216   9.279   4.327 -0.2056 -1.1414 -0.5781
  106MOL0     H13987   1.112   9.297   4.197 -2.8787 -0.5301  3.5372
  106MOL0     H13988   1.062   9.476   4.352 -0.2178 -1.3037 -0.7822
  106MOL0     H13989   1.232   9.510   4.378 -2.3209 -1.1342  3.2001
  106MOL0     H13990   1.112   9.735   4.028  2.0339  0.2655  0.5878
  106MOL0     H13991   1.659   9.260   3.845  4.0550  0.9198 -0.5234
  106MOL0     H13992   1.812   9.401   3.815 -1.1983 -1.1825 -0.6307
  107MOL0     O13993   5.888   6.421   5.548  0.1628  0.2870  0.0260
  107MOL0     C13994   5.951   6.328   5.489 -0.1488 -0.6494 -0.2700
  107MOL0     O13995   6.070   6.345   5.412  0.0296  0.6480  0.3775
  107MOL0     C13996   6.137   6.467   5.415  0.6207 -0.7411 -0.1700
  107MOL0     C13997   6.216   6.505   5.306  0.0782  0.4284 -0.4085
  107MOL0     C13998   6.308   6.607   5.310 -0.3646 -0.4168 -0.3448
  107MOL0     C13999   6.336   6.678   5.434 -0.1513  0.4198  0.2425
  107MOL0     O14000   6.432   6.772   5.449 -0.2497  0.2027  1.0004
  107MOL0     C14001   6.543   6.755   5.354  0.2070  0.1415 -0.3052
  107MOL0     C14002   6.666   6.819   5.415 -0.4111  0.2900 -0.1145
  107MOL0     C14003   6.639   6.971   5.440 -0.1255  0.2358 -0.0274
  107MOL0     C14004   6.743   7.026   5.519  0.2154 -0.1901 -1.1654
  107MOL0     C14005   6.729   7.177   5.538 -0.0860 -1.0591 -0.3935
  107MOL0     C14006   6.846   7.229   5.625 -0.1882 -0.6688 -0.0812
  107MOL0     C14007   6.836   7.382   5.621  0.3997  0.9409 -0.5660
  107MOL0     C14008   6.959   7.444   5.692 -0.2556 -0.6772  1.0886
  107MOL0     N14009   6.952   7.429   5.838 -0.2678  0.0236 -0.6548
  107MOL0     C14010   6.884   7.511   5.922  0.4707 -0.2228  0.1272
  107MOL0     C14011   6.937   7.496   6.050 -0.7294 -0.2768  1.2642
  107MOL0     C14012   6.910   7.566   6.175 -0.2116  0.1641 -1.4567
  107MOL0     C14013   6.761   7.534   6.220  0.1096  0.8307  0.0674
  107MOL0     C14014   6.742   7.397   6.299  0.0326  0.7028 -1.3418
  107MOL0     C14015   6.849   7.372   6.405 -0.4015 -0.7061 -0.0751
  107MOL0     O14016   6.856   7.498   6.484 -0.1193  0.6693  0.5208
  107MOL0     C14017   6.963   7.508   6.566  0.4001  0.1182  0.3025
  107MOL0     C14018   7.020   7.627   6.578 -0.2404 -0.0348  0.0938
  107MOL0     C14019   7.140   7.652   6.647  0.1029  0.5117 -0.8718
  107MOL0     C14020   7.208   7.540   6.696  0.1405 -0.1998  0.1376
  107MOL0     C14021   7.341   7.557   6.759  0.8163 -0.0901 -0.0032
  107MOL0     O14022   7.387   7.689   6.769  0.4367 -0.0059 -0.7920
  107MOL0     C14023   7.507   7.721   6.827  0.2980  0.8042 -0.1861
  107MOL0     C14024   7.519   7.716   6.967 -0.4029  0.0292 -1.1694
  107MOL0     C14025   7.639   7.743   7.036 -0.1243 -0.0545  0.2595
  107MOL0     C14026   7.759   7.764   6.963  0.5660  0.5104 -0.0015
  107MOL0     O14027   7.876   7.790   7.026 -0.2705  0.2451  0.0964
  107MOL0     C14028   7.999   7.816   6.955 -0.2532  0.1132  0.5301
  107MOL0     C14029   8.005   7.958   6.897 -0.5985  0.3645 -0.5972
  107MOL0     C14030   8.122   7.974   6.805  0.0896  0.2664  0.1650
  107MOL0     C14031   8.142   8.129   6.783 -1.3983  0.1733  0.3271
  107MOL0     C14032   8.283   8.136   6.721 -0.1938  0.5973 -0.1775
  107MOL0     C14033   8.307   8.262   6.640 -0.0576 -0.1445 -0.3369
  107MOL0     C14034   8.436   8.258   6.551  0.1088  0.9179  0.0404
  107MOL0     C14035   8.457   8.374   6.455 -0.2478 -0.6929 -0.1240
  107MOL0    Cl14036   8.433   8.527   6.538 -0.3042  0.0176  0.3901
  107MOL0     C14037   7.749   7.764   6.826 -0.3472 -0.4793  0.0998
  107MOL0     C14038   7.626   7.755   6.759  0.2504  1.6721  0.2340
  107MOL0     O14039   7.390   7.455   6.811  0.1908 -0.4082  0.6955
  107MOL0     C14040   7.147   7.411   6.694  0.1302 -0.2161 -0.3819
  107MOL0     C14041   7.031   7.402   6.624 -0.3215 -0.3286 -0.0803
  107MOL0     N14042   7.035   7.387   6.038 -0.2317 -0.4951 -0.8369
  107MOL0     N14043   7.046   7.358   5.910 -0.4840  0.5227 -0.1768
  107MOL0     C14044   6.258   6.643   5.542 -0.2792  0.5390 -0.3096
  107MOL0     C14045   6.161   6.544   5.540  0.4356 -0.9860 -0.8353
  107MOL0     C14046   5.889   6.195   5.478  0.7314 -0.4565  0.6916
  107MOL0     C14047   5.955   6.097   5.398  0.2435  0.2546  0.8136
  107MOL0     C14048   5.902   5.970   5.382 -0.2964  0.6543  0.2507
  107MOL0     C14049   5.781   5.934   5.440 -0.5274 -1.1258  0.9739
  107MOL0     O14050   5.741   5.805   5.453 -0.0246  0.6076  0.8271
  107MOL0     C14051   5.746   5.719   5.337  0.1845  0.3930  0.2078
  107MOL0     C14052   5.628   5.637   5.342 -0.2285 -0.1198  0.7124
  107MOL0     C14053   5.497   5.718   5.305  0.2490 -0.6695  0.3553
  107MOL0     C14054   5.377   5.627   5.334 -0.4522 -1.0606  0.3980
  107MOL0     C14055   5.255   5.696   5.294  0.0819 -0.4849 -0.7300
  107MOL0     C14056   5.155   5.754   5.248  0.4061  0.0549 -0.3495
  107MOL0     C14057   5.721   6.032   5.524  0.5003  0.9173  0.0895
  107MOL0     C14058   5.765   6.161   5.536  0.0990  0.2299 -0.7094
  107MOL0     H14059   6.220   6.446   5.216  0.7542 -1.8223  1.0140
  107MOL0     H14060   6.368   6.601   5.220  2.8660 -1.1198  1.6967
  107MOL0     H14061   6.527   6.803   5.257  1.7453 -0.5786 -0.9468
  107MOL0     H14062   6.555   6.647   5.338 -1.5695 -0.6600  3.0081
  107MOL0     H14063   6.752   6.804   5.349 -0.7016 -1.8729 -0.0881
  107MOL0     H14064   6.683   6.766   5.509  0.9429  1.3137  0.2536
  107MOL0     H14065   6.541   6.992   5.485 -0.3307  0.7239 -0.6825
  107MOL0     H14066   6.637   7.025   5.345  0.3252  1.0779  0.4264
  107MOL0     H14067   6.746   6.978   5.617 -2.8928  1.9951  0.1165
  107MOL0     H14068   6.834   7.004   5.461  0.3517 -1.3165 -0.5605
  107MOL0     H14069   6.632   7.202   5.582  0.2966  1.6470 -0.9220
  107MOL0     H14070   6.724   7.236   5.446 -0.6235  0.0241  0.3144
  107MOL0     H14071   6.932   7.211   5.560  1.7206  1.2793  1.7632
  107MOL0     H14072   6.856   7.182   5.723 -1.6589 -0.7386  0.0626
  107MOL0     H14073   6.841   7.406   5.515 -0.4579 -2.5914 -1.5134
  107MOL0     H14074   6.740   7.423   5.654 -0.8707 -2.3795  0.2406
  107MOL0     H14075   6.973   7.549   5.666  2.4438 -1.1905  0.0917
  107MOL0     H14076   7.049   7.398   5.648 -1.0707  0.4651 -1.9935
  107MOL0     H14077   6.801   7.575   5.895  0.6218 -0.6196 -1.3511
  107MOL0     H14078   6.929   7.673   6.160  1.2453  0.5264  2.0171
  107MOL0     H14079   6.978   7.541   6.257 -2.3060  2.7673  1.2949
  107MOL0     H14080   6.701   7.521   6.130  0.7598  1.0843 -0.4101
  107MOL0     H14081   6.726   7.621   6.276  1.3334  1.6818 -0.4442
  107MOL0     H14082   6.646   7.399   6.350  0.2065 -0.8826 -0.8956
  107MOL0     H14083   6.743   7.310   6.233 -1.1104  0.8475 -1.5558
  107MOL0     H14084   6.942   7.341   6.356  1.2759  1.2129  1.6929
  107MOL0     H14085   6.818   7.285   6.462 -1.1397 -0.0749  0.5169
  107MOL0     H14086   6.971   7.707   6.524 -0.3374 -0.2362 -0.1128
  107MOL0     H14087   7.159   7.756   6.670  1.3242  0.4063 -1.3452
  107MOL0     H14088   7.445   7.698   7.044  1.5088  0.1874  0.8140
  107MOL0     H14089   7.645   7.760   7.143 -0.0869 -0.2039  0.2807
  107MOL0     H14090   8.006   7.743   6.875 -0.2744  2.0510 -1.3398
  107MOL0     H14091   8.086   7.798   7.018  0.7152 -0.7921 -1.0030
  107MOL0     H14092   8.013   8.024   6.984 -1.1867 -0.4364  0.0823
  107MOL0     H14093   7.916   7.992   6.844  0.3847 -0.4966 -2.9293
  107MOL0     H14094   8.092   7.930   6.709  2.2130  0.2334 -0.5411
  107MOL0     H14095   8.217   7.932   6.839  0.4465  0.6601 -0.3274
  107MOL0     H14096   8.067   8.165   6.712 -1.3608  0.0378  0.2180
  107MOL0     H14097   8.143   8.189   6.874 -0.3608  0.8120 -0.0854
  107MOL0     H14098   8.292   8.050   6.654  2.2012  0.6610 -0.0106
  107MOL0     H14099   8.365   8.126   6.792  0.4554  0.4818 -0.9319
  107MOL0     H14100   8.315   8.343   6.713 -1.0795 -0.2782 -0.0608
  107MOL0     H14101   8.220   8.280   6.576 -0.0393 -0.3851 -0.4314
  107MOL0     H14102   8.523   8.250   6.617  1.4464  2.7608 -1.3871
  107MOL0     H14103   8.429   8.173   6.483 -0.6426  1.4293 -0.5411
  107MOL0     H14104   8.385   8.359   6.374 -2.4349  0.9397  1.4080
  107MOL0     H14105   8.557   8.370   6.410  0.6484 -0.8844  1.8177
  107MOL0     H14106   7.839   7.771   6.765  0.6987 -1.6833  1.4307
  107MOL0     H14107   7.619   7.732   6.653  1.4910 -2.8282  0.9046
  107MOL0     H14108   7.198   7.324   6.735  1.7591  0.4781 -0.8554
  107MOL0     H14109   7.010   7.298   6.600  1.5846 -0.9374  0.7112
  107MOL0     H14110   6.275   6.698   5.634 -0.0744  0.1536 -0.1131
  107MOL0     H14111   6.119   6.500   5.630 -2.9703 -0.6167 -2.1047
  107MOL0     H14112   6.054   6.118   5.360  1.5294 -0.0132  3.7417
  107MOL0     H14113   5.968   5.899   5.334  0.4383  2.5940 -1.7966
  107MOL0     H14114   5.832   5.654   5.355 -1.8241 -1.9508  2.0495
  107MOL0     H14115   5.745   5.771   5.241 -2.1829 -2.6898 -1.5981
  107MOL0     H14116   5.640   5.569   5.257  0.8366  3.3624 -2.1436
  107MOL0     H14117   5.639   5.571   5.428  3.6275  0.7231  1.0612
  107MOL0     H14118   5.494   5.741   5.198  1.5545 -3.3331 -0.3489
  107MOL0     H14119   5.503   5.809   5.366 -0.8899 -0.6118  0.4058
  107MOL0     H14120   5.375   5.531   5.282 -1.1505 -1.3097  0.8567
  107MOL0     H14121   5.364   5.609   5.441 -5.7410 -1.3985 -0.0063
  107MOL0     H14122   5.066   5.789   5.199 -0.6829 -2.8192 -0.6346
  107MOL0     H14123   5.631   6.010   5.581  2.2121  0.0736  2.6543
  107MOL0     H14124   5.715   6.238   5.595  0.9005 -0.3136  0.7343
  108MOL0     O14125   6.087   9.704   2.028  0.0504 -0.3081 -0.4177
  108MOL0     C14126   6.127   9.791   2.110  2.0159 -0.2044  0.1730
  108MOL0     O14127   6.133   9.779   2.249  0.4239  0.4681 -0.1598
  108MOL0     C14128   6.106   9.656   2.303 -0.0326  0.4919  0.0022
  108MOL0     C14129   6.223   9.580   2.335 -1.2517 -0.2022  0.2800
  108MOL0     C14130   6.224   9.463   2.405 -0.3215 -0.3862 -0.2787
  108MOL0     C14131   6.095   9.419   2.442 -0.2290 -0.1786  1.3254
  108MOL0     O14132   6.090   9.306   2.522  0.7205 -0.5020 -0.1094
  108MOL0     C14133   6.110   9.337   2.658  0.9458 -1.3347  0.5739
  108MOL0     C14134   6.151   9.204   2.732  1.2903  0.7028  0.4979
  108MOL0     C14135   6.228   9.097   2.660 -0.3728 -0.4224  0.1847
  108MOL0     C14136   6.373   9.119   2.668  0.1007 -0.3257 -0.4611
  108MOL0     C14137   6.451   9.007   2.584  0.6066 -0.0837  0.6088
  108MOL0     C14138   6.606   8.979   2.600  0.9669  0.4131  0.7755
  108MOL0     C14139   6.691   9.109   2.595  0.0763  0.0717 -0.1944
  108MOL0     C14140   6.690   9.175   2.457  0.0957 -0.3085  0.4377
  108MOL0     N14141   6.788   9.284   2.436 -0.0795  0.0121 -0.5653
  108MOL0     C14142   6.781   9.347   2.316  0.2465  0.9660 -0.0811
  108MOL0     C14143   6.862   9.453   2.345 -0.0512  0.0765  1.1981
  108MOL0     C14144   6.913   9.566   2.262 -0.5958  0.2347 -0.6409
  108MOL0     C14145   6.794   9.659   2.230  0.3794  0.7939 -0.2314
  108MOL0     C14146   6.804   9.786   2.308  0.1014 -0.6821 -0.5076
  108MOL0     C14147   6.914   9.884   2.252 -0.0911 -0.4630  0.9650
  108MOL0     O14148   6.931  10.009   2.317  0.6345  0.7261  0.6839
  108MOL0     C14149   6.934  10.008   2.457 -1.0490 -0.3620  0.1380
  108MOL0     C14150   7.018   9.928   2.536  0.8795 -0.1598  0.2409
  108MOL0     C14151   7.023   9.943   2.672 -0.5854  0.6024 -1.2189
  108MOL0     C14152   6.942  10.028   2.745  1.3309 -0.0252 -0.2017
  108MOL0     C14153   6.948  10.034   2.892 -1.3132  0.0538 -0.1702
  108MOL0     O14154   6.993   9.926   2.957  0.2259  0.0797  0.5284
  108MOL0     C14155   6.993   9.922   3.089  0.0318  0.6016 -0.3955
  108MOL0     C14156   7.089   9.993   3.164 -0.2007  0.2967  0.8086
  108MOL0     C14157   7.078   9.988   3.302 -0.5545 -0.2409 -0.0304
  108MOL0     C14158   6.987   9.897   3.367  0.0272 -0.4453 -1.1223
  108MOL0     O14159   6.966   9.905   3.500  0.2250  0.3811  0.9920
  108MOL0     C14160   6.926  10.044   3.535  0.1531 -1.3844 -1.1405
  108MOL0     C14161   6.901  10.065   3.687 -0.4169  1.1024  0.1295
  108MOL0     C14162   6.813   9.957   3.742  0.2880  0.0267  0.3475
  108MOL0     C14163   6.791   9.996   3.884  0.1167 -0.3133 -0.4038
  108MOL0     C14164   6.911   9.966   3.982 -0.2559  0.1663 -0.0272
  108MOL0     C14165   6.868   9.939   4.131 -0.0934 -0.4267 -0.3698
  108MOL0     C14166   6.774  10.058   4.172 -0.2709  0.0374 -0.2977
  108MOL0     C14167   6.739  10.034   4.318  0.6895  0.6365 -0.6376
  108MOL0    Cl14168   6.858  10.120   4.416 -0.1468 -0.3798  0.1897
  108MOL0     C14169   6.894   9.831   3.289  0.1864  0.1648  0.0230
  108MOL0     C14170   6.893   9.844   3.149 -0.0544  0.0872  0.4641
  108MOL0     O14171   6.887  10.124   2.946  0.4884  0.0481  0.6220
  108MOL0     C14172   6.866  10.121   2.669  0.2551 -1.1367  0.8373
  108MOL0     C14173   6.865  10.114   2.525 -0.8016 -0.1887 -0.0220
  108MOL0     N14174   6.896   9.455   2.482 -0.2708 -0.7147  0.7530
  108MOL0     N14175   6.864   9.346   2.533  0.2190 -0.4894  0.2638
  108MOL0     C14176   5.982   9.495   2.421  0.2904 -0.1402 -0.3557
  108MOL0     C14177   5.977   9.618   2.346 -0.6837  0.3303 -0.1180
  108MOL0     C14178   6.136   9.931   2.066  0.3392 -0.2794  0.0404
  108MOL0     C14179   6.142  10.046   2.148 -0.4630  0.3669  0.3719
  108MOL0     C14180   6.149  10.174   2.096 -0.6095 -0.5145  0.4057
  108MOL0     C14181   6.154  10.196   1.955 -0.4050  0.4092 -0.4856
  108MOL0     O14182   6.176  10.318   1.914 -0.2734  0.0971  0.1378
  108MOL0     C14183   6.231  10.344   1.783 -0.1627  0.1357  1.0133
  108MOL0     C14184   6.253  10.500   1.773  0.4388  0.5806  1.2041
  108MOL0     C14185   6.336  10.525   1.638  0.3372 -0.8876  0.4363
  108MOL0     C14186   6.377  10.674   1.626  0.3953 -0.2555  1.3720
  108MOL0     C14187   6.460  10.693   1.511  0.6904 -0.1217 -0.7421
  108MOL0     C14188   6.510  10.717   1.407  1.2212  0.2640  0.5187
  108MOL0     C14189   6.122  10.087   1.871  0.4068 -0.2856 -0.8186
  108MOL0     C14190   6.107   9.960   1.924  0.3175  0.0881 -1.4957
  108MOL0     H14191   6.313   9.630   2.300 -0.7146 -2.1407 -1.2989
  108MOL0     H14192   6.316   9.406   2.416 -0.9067 -0.9059  2.6868
  108MOL0     H14193   6.014   9.374   2.693 -0.5615 -1.3861 -3.0809
  108MOL0     H14194   6.192   9.410   2.665  0.1118  0.1029 -2.8243
  108MOL0     H14195   6.059   9.157   2.768  0.9824  0.9750  0.0874
  108MOL0     H14196   6.203   9.237   2.822  5.2553 -1.0359 -0.9478
  108MOL0     H14197   6.204   9.084   2.554  3.8631 -1.1232 -0.8908
  108MOL0     H14198   6.209   8.998   2.702 -2.3059 -1.0296 -1.9061
  108MOL0     H14199   6.397   9.223   2.642 -3.1138  0.9623  1.2125
  108MOL0     H14200   6.408   9.114   2.771  0.0830  1.8059 -0.2982
  108MOL0     H14201   6.418   9.012   2.480 -0.6445  2.1316  1.0438
  108MOL0     H14202   6.412   8.912   2.621 -2.0633  0.8752  0.4706
  108MOL0     H14203   6.644   8.897   2.539 -0.3148  0.1932  0.2298
  108MOL0     H14204   6.636   8.936   2.696 -0.3305  0.3598  1.1867
  108MOL0     H14205   6.653   9.179   2.670 -0.3221 -0.7896  0.4257
  108MOL0     H14206   6.795   9.082   2.614 -0.4246 -2.0242 -0.1709
  108MOL0     H14207   6.588   9.202   2.429  0.1027 -0.7427 -0.0215
  108MOL0     H14208   6.728   9.102   2.384 -1.8371  2.0628 -3.2463
  108MOL0     H14209   6.723   9.325   2.227  0.0600 -0.9778  0.4705
  108MOL0     H14210   6.965   9.533   2.172  1.5060  1.8622 -0.0946
  108MOL0     H14211   6.981   9.624   2.324 -2.1271 -0.8979  2.2802
  108MOL0     H14212   6.699   9.611   2.254 -2.4745  5.5987 -0.5758
  108MOL0     H14213   6.791   9.681   2.122  4.0135  1.4082 -0.3254
  108MOL0     H14214   6.708   9.839   2.307 -1.0160 -2.5926  0.8948
  108MOL0     H14215   6.830   9.785   2.414 -0.3588  3.4632 -0.1861
  108MOL0     H14216   6.900   9.900   2.145  2.6223 -0.6505  0.5325
  108MOL0     H14217   7.012   9.836   2.259  1.2627  2.0632  0.3150
  108MOL0     H14218   7.083   9.856   2.486  1.4120  0.5074 -0.0387
  108MOL0     H14219   7.097   9.885   2.726  0.4652  3.0241  0.0916
  108MOL0     H14220   7.150  10.063   3.107 -0.3665  0.3516  0.6983
  108MOL0     H14221   7.143  10.035   3.375 -0.9415 -0.3541  0.3934
  108MOL0     H14222   6.827  10.070   3.495 -0.4846 -1.2246  0.4522
  108MOL0     H14223   7.012  10.108   3.513  1.2171 -1.1212  2.9146
  108MOL0     H14224   6.852  10.161   3.701 -1.0784  0.6439  1.0784
  108MOL0     H14225   7.000  10.063   3.735 -0.3839  0.8957  0.0559
  108MOL0     H14226   6.857   9.857   3.737  0.8978  0.3525 -2.1734
  108MOL0     H14227   6.724   9.951   3.678  0.5831  0.5365 -0.1176
  108MOL0     H14228   6.750  10.096   3.900 -3.8460 -2.1204  2.2280
  108MOL0     H14229   6.726   9.915   3.917  1.0683  0.1800  3.0707
  108MOL0     H14230   6.988  10.041   3.959  0.6610 -0.2053  1.6621
  108MOL0     H14231   6.961   9.875   3.948  2.1852  1.0372  0.9983
  108MOL0     H14232   6.946   9.920   4.205 -1.5491  1.3452  1.7549
  108MOL0     H14233   6.803   9.851   4.130 -3.2373  1.6741  1.6126
  108MOL0     H14234   6.815  10.158   4.156  1.2545 -0.2921  1.2352
  108MOL0     H14235   6.680  10.057   4.116  1.6434  0.4240 -3.8159
  108MOL0     H14236   6.739   9.926   4.335 -2.9732  0.8952  2.3634
  108MOL0     H14237   6.635  10.065   4.335  0.1706 -0.6106 -1.4458
  108MOL0     H14238   6.822   9.759   3.329 -0.2875  1.6600  2.0290
  108MOL0     H14239   6.811   9.807   3.089 -0.7696  0.5231  1.1566
  108MOL0     H14240   6.806  10.191   2.726 -0.5590 -0.4842 -0.7650
  108MOL0     H14241   6.799  10.191   2.486 -1.7736 -0.3947  1.1255
  108MOL0     H14242   5.885   9.463   2.458 -0.2121  0.9642 -0.6504
  108MOL0     H14243   5.887   9.675   2.327  0.2016  3.3387  3.5850
  108MOL0     H14244   6.149  10.033   2.256 -1.7934  0.4866  0.4886
  108MOL0     H14245   6.150  10.267   2.151  2.3541  0.9409 -1.8103
  108MOL0     H14246   6.168  10.310   1.701 -1.0765  0.9225  1.3710
  108MOL0     H14247   6.328  10.293   1.778 -1.5585 -3.0250  2.9722
  108MOL0     H14248   6.158  10.549   1.754  1.2594  1.1883 -1.9646
  108MOL0     H14249   6.304  10.537   1.863  1.8378 -2.9356  2.0400
  108MOL0     H14250   6.270  10.489   1.558 -1.7206  0.9695  1.1929
  108MOL0     H14251   6.421  10.458   1.653  0.1110 -1.1930  0.3662
  108MOL0     H14252   6.288  10.736   1.616  1.5762  1.0605 -3.8492
  108MOL0     H14253   6.440  10.699   1.712 -0.9884  0.5232  2.1927
  108MOL0     H14254   6.535  10.744   1.307 -1.3020  0.0418 -0.2526
  108MOL0     H14255   6.116  10.118   1.768  2.3321  5.1032  0.3449
  108MOL0     H14256   6.081   9.875   1.862  0.2418 -0.5710 -0.5687
  109MOL0     O14257   3.307   7.300   7.247 -1.0473 -0.1342 -0.4503
  109MOL0     C14258   3.200   7.276   7.190 -0.0355 -0.1165 -0.0436
  109MOL0     O14259   3.087   7.341   7.215  0.6207 -0.0544 -0.5842
  109MOL0     C14260   3.075   7.425   7.325 -0.1689  0.5496 -1.0741
  109MOL0     C14261   2.999   7.393   7.442 -0.7126  0.3240  0.0779
  109MOL0     C14262   2.985   7.491   7.548  0.7092  1.1072 -0.2579
  109MOL0     C14263   3.039   7.616   7.529 -0.0846  0.7221  0.6767
  109MOL0     O14264   3.020   7.700   7.636  0.3847  0.5875 -0.1076
  109MOL0     C14265   3.100   7.822   7.643  0.3691  0.7604 -0.0625
  109MOL0     C14266   3.099   7.887   7.779  0.0931 -0.2587  0.9494
  109MOL0     C14267   3.229   7.982   7.784 -0.1216 -0.4311  0.8245
  109MOL0     C14268   3.235   8.053   7.926  0.1079  0.8392  0.4825
  109MOL0     C14269   3.124   8.160   7.949 -0.2182 -0.7325  0.8188
  109MOL0     C14270   3.078   8.189   8.093 -0.8472  0.0194  0.2770
  109MOL0     C14271   2.973   8.301   8.096 -0.2607  0.0199 -0.1114
  109MOL0     C14272   2.935   8.325   8.239  0.4206  0.0462  0.5706
  109MOL0     N14273   2.833   8.431   8.250 -0.0045  0.0982 -0.2726
  109MOL0     C14274   2.731   8.424   8.334  0.9636  1.0096  0.5042
  109MOL0     C14275   2.666   8.542   8.326  0.1525  0.5905 -1.0798
  109MOL0     C14276   2.538   8.573   8.405  1.1599 -0.4175 -0.2082
  109MOL0     C14277   2.584   8.635   8.543 -0.3156 -0.2884 -0.4643
  109MOL0     C14278   2.468   8.684   8.628 -0.1771  0.6973  0.5843
  109MOL0     C14279   2.366   8.578   8.660  0.2552  0.5361  0.0267
  109MOL0     O14280   2.285   8.573   8.540 -0.5291  0.1434 -0.0884
  109MOL0     C14281   2.168   8.506   8.544 -0.2338  0.1474 -0.6744
  109MOL0     C14282   2.118   8.436   8.663  0.1718 -1.1687 -0.8006
  109MOL0     C14283   1.998   8.364   8.660 -1.2778 -0.3872 -0.2495
  109MOL0     C14284   1.916   8.372   8.547  0.1188 -0.1678 -0.2556
  109MOL0     C14285   1.784   8.308   8.550  0.1866  0.3532  0.9114
  109MOL0     O14286   1.712   8.321   8.429  1.1287 -0.0047  0.3116
  109MOL0     C14287   1.602   8.243   8.413 -0.0270 -0.3054  0.4713
  109MOL0     C14288   1.475   8.297   8.431 -1.0180  0.3223  0.0198
  109MOL0     C14289   1.361   8.209   8.439 -1.0554  0.0829 -1.2086
  109MOL0     C14290   1.378   8.070   8.405 -0.2186  0.7039  1.0133
  109MOL0     O14291   1.278   7.972   8.392 -0.1896 -0.2726  0.1149
  109MOL0     C14292   1.145   8.021   8.437  0.2377 -0.2193 -0.4532
  109MOL0     C14293   1.032   7.916   8.430 -0.6819  1.1438  0.2518
  109MOL0     C14294   1.005   7.884   8.284 -0.0015 -0.1271 -0.1659
  109MOL0     C14295   0.879   7.797   8.268  0.3533  0.5408 -0.0826
  109MOL0     C14296   0.873   7.664   8.353  0.5191 -0.5507  0.0691
  109MOL0     C14297   0.739   7.591   8.333  0.4485 -0.3575 -0.0567
  109MOL0     C14298   0.736   7.521   8.198 -0.8753 -0.0212 -0.7290
  109MOL0     C14299   0.660   7.390   8.176  1.2579  0.6488 -0.8662
  109MOL0    Cl14300   0.755   7.253   8.238  0.0305 -0.3683  0.1640
  109MOL0     C14301   1.499   8.018   8.355  0.0353  0.9056  0.4116
  109MOL0     C14302   1.615   8.110   8.370 -0.1321 -0.1250  0.2461
  109MOL0     O14303   1.757   8.230   8.647  0.1921  1.0021  0.4624
  109MOL0     C14304   1.959   8.444   8.436  0.1758 -0.9251  0.9929
  109MOL0     C14305   2.081   8.501   8.434 -0.0187  0.9037  0.0849
  109MOL0     N14306   2.720   8.618   8.228 -0.2940  0.1434  0.3843
  109MOL0     N14307   2.829   8.553   8.184 -0.1004  0.2476  0.3248
  109MOL0     C14308   3.105   7.648   7.412 -0.5514 -0.8357  0.0301
  109MOL0     C14309   3.118   7.561   7.305 -0.5062  0.4750  0.9859
  109MOL0     C14310   3.201   7.171   7.076  0.3364  0.1646  1.3893
  109MOL0     C14311   3.307   7.078   7.066  0.2154  0.1557 -0.0614
  109MOL0     C14312   3.313   6.989   6.955 -0.0811  0.2776 -0.7217
  109MOL0     C14313   3.211   6.969   6.864 -0.0126 -0.0125  0.8437
  109MOL0     O14314   3.223   6.857   6.775 -0.5649 -0.1752 -0.3604
  109MOL0     C14315   3.126   6.842   6.678  0.6491  0.0151  0.2372
  109MOL0     C14316   3.003   6.775   6.726  0.0558  0.2720  0.3863
  109MOL0     C14317   2.969   6.647   6.648 -0.0725  0.2310 -0.2578
  109MOL0     C14318   2.821   6.602   6.680 -0.1213 -1.0941 -0.7666
  109MOL0     C14319   2.731   6.680   6.604 -0.9735  0.5286 -0.6000
  109MOL0     C14320   2.658   6.759   6.545  0.7449 -0.4961 -0.3674
  109MOL0     C14321   3.103   7.062   6.880 -0.2268  1.3202 -0.1144
  109MOL0     C14322   3.098   7.158   6.978  1.0466 -0.3758 -0.4810
  109MOL0     H14323   2.980   7.287   7.459 -0.3435 -0.1695 -2.2873
  109MOL0     H14324   2.923   7.463   7.633 -1.1542  0.3577 -1.7822
  109MOL0     H14325   3.053   7.901   7.584 -2.0231 -0.0438  0.6422
  109MOL0     H14326   3.204   7.791   7.628  1.0935  1.0721  3.3951
  109MOL0     H14327   3.118   7.818   7.862  2.9572 -0.8127 -0.0840
  109MOL0     H14328   3.003   7.938   7.791 -0.3664 -0.5447 -1.1154
  109MOL0     H14329   3.221   8.062   7.709  0.2076  1.7822  3.0381
  109MOL0     H14330   3.322   7.927   7.766  1.0649  2.1148 -1.5614
  109MOL0     H14331   3.234   7.976   8.003 -4.8413 -3.6855 -3.2984
  109MOL0     H14332   3.335   8.098   7.929  0.6205  0.2872 -3.3050
  109MOL0     H14333   3.029   8.126   7.908 -1.2242 -0.2105  2.6148
  109MOL0     H14334   3.149   8.253   7.898 -0.8130  0.4122  2.5190
  109MOL0     H14335   3.171   8.217   8.143  0.7289  1.4753 -3.1338
  109MOL0     H14336   3.036   8.096   8.134  1.7570 -1.0523  0.6749
  109MOL0     H14337   3.001   8.396   8.049 -0.3647  0.6529  1.0575
  109MOL0     H14338   2.881   8.275   8.044  0.7400 -0.0418 -1.9334
  109MOL0     H14339   3.024   8.364   8.290  1.9045  0.7127 -2.3139
  109MOL0     H14340   2.914   8.225   8.280  3.6110 -1.0098 -0.0795
  109MOL0     H14341   2.695   8.334   8.382  1.6307 -0.1609 -1.0621
  109MOL0     H14342   2.487   8.479   8.429 -1.5921  1.4037  1.6462
  109MOL0     H14343   2.477   8.648   8.354  1.8277  1.5519  1.7578
  109MOL0     H14344   2.658   8.715   8.531 -1.0488  0.8243  1.7407
  109MOL0     H14345   2.641   8.566   8.606 -0.1977 -0.2198 -0.4957
  109MOL0     H14346   2.517   8.725   8.716  1.2114  1.1752 -0.3657
  109MOL0     H14347   2.411   8.763   8.578 -0.9844  1.2671  2.3218
  109MOL0     H14348   2.304   8.614   8.742  0.0512 -1.1273  0.6433
  109MOL0     H14349   2.417   8.485   8.688 -2.4410 -1.4281 -1.1288
  109MOL0     H14350   2.165   8.429   8.760 -1.4780 -1.6745 -0.0110
  109MOL0     H14351   1.972   8.321   8.756 -2.8640 -1.3306 -1.0682
  109MOL0     H14352   1.456   8.403   8.447  0.7687  0.4045  2.0677
  109MOL0     H14353   1.263   8.244   8.469 -1.8960 -0.6752 -2.9418
  109MOL0     H14354   1.112   8.107   8.378  2.5622  1.2077  0.2120
  109MOL0     H14355   1.158   8.056   8.539 -2.1098 -1.9713  0.5407
  109MOL0     H14356   0.945   7.947   8.489 -0.4026  2.7015 -0.0849
  109MOL0     H14357   1.074   7.828   8.480 -0.1069  1.3647  0.1722
  109MOL0     H14358   1.090   7.824   8.250 -0.1645  0.2573 -1.2980
  109MOL0     H14359   0.996   7.968   8.214 -3.6833  0.0492  0.3392
  109MOL0     H14360   0.791   7.855   8.297 -2.5024 -3.2060 -0.5295
  109MOL0     H14361   0.866   7.766   8.164 -1.2394  1.8989 -0.3230
  109MOL0     H14362   0.875   7.688   8.460 -0.3029  0.6780 -0.1686
  109MOL0     H14363   0.957   7.600   8.325  1.2551  1.6327 -3.2771
  109MOL0     H14364   0.658   7.661   8.354  1.7612  0.7684  1.5290
  109MOL0     H14365   0.741   7.514   8.411  0.3899  1.4225  1.7933
  109MOL0     H14366   0.677   7.592   8.140  0.8913  1.0784 -1.2586
  109MOL0     H14367   0.828   7.511   8.140 -1.2728 -5.4464 -1.0040
  109MOL0     H14368   0.622   7.378   8.074  0.7182 -2.0070 -0.4303
  109MOL0     H14369   0.571   7.384   8.240  1.3223 -0.7311 -0.8652
  109MOL0     H14370   1.513   7.912   8.333 -1.4393 -0.0534  3.5498
  109MOL0     H14371   1.714   8.075   8.340  0.0081  1.1987 -0.9769
  109MOL0     H14372   1.894   8.459   8.350  0.7482  4.1069  1.1349
  109MOL0     H14373   2.097   8.557   8.343 -3.2595  3.0662  0.6884
  109MOL0     H14374   3.141   7.750   7.410 -1.0573 -0.6621 -1.4524
  109MOL0     H14375   3.171   7.584   7.213 -2.4906  4.0427  0.5743
  109MOL0     H14376   3.389   7.060   7.135  0.3007 -3.5525 -0.9158
  109MOL0     H14377   3.400   6.927   6.933 -1.3441 -1.0056 -2.3963
  109MOL0     H14378   3.176   6.786   6.597  1.3544 -0.6707  1.1211
  109MOL0     H14379   3.099   6.933   6.624  0.5978 -0.3830 -0.4292
  109MOL0     H14380   3.003   6.757   6.834 -2.7252 -1.6518  0.1556
  109MOL0     H14381   2.921   6.847   6.729  0.5750  1.1093 -2.4242
  109MOL0     H14382   3.049   6.575   6.668 -1.5686 -1.8344 -1.3277
  109MOL0     H14383   2.971   6.668   6.541 -0.0809 -0.3376 -0.3694
  109MOL0     H14384   2.812   6.498   6.649  4.5237 -2.1840  0.6668
  109MOL0     H14385   2.796   6.611   6.786  0.8972  1.8421 -0.6645
  109MOL0     H14386   2.598   6.822   6.483 -5.0239 -2.9119  2.0115
  109MOL0     H14387   3.033   7.061   6.797  0.3751 -1.2258 -0.6645
  109MOL0     H14388   3.000   7.206   6.982  3.1243  4.3823  1.6534
  110MOL0     O14389   7.770  11.156   6.692  1.2165  1.3553  0.7435
  110MOL0     C14390   7.814  11.092   6.787  1.1784 -0.0753  0.6418
  110MOL0     O14391   7.783  11.121   6.926  0.2223 -0.2260  0.2142
  110MOL0     C14392   7.683  11.203   6.955 -1.0595 -0.5878  0.9078
  110MOL0     C14393   7.552  11.177   6.910  0.4486  0.2937  0.6931
  110MOL0     C14394   7.444  11.257   6.938  0.1989  1.2628 -0.9690
  110MOL0     C14395   7.467  11.366   7.030 -0.0695 -0.2076 -0.0280
  110MOL0     O14396   7.359  11.448   7.075 -0.3576 -0.1160  0.8449
  110MOL0     C14397   7.370  11.593   7.028 -0.5731 -0.0449 -0.3069
  110MOL0     C14398   7.289  11.676   7.123 -0.4626 -0.4721  0.2540
  110MOL0     C14399   7.295  11.827   7.124  0.0911 -0.1211  0.0192
  110MOL0     C14400   7.270  11.898   6.998  0.7509  0.6588  0.2387
  110MOL0     C14401   7.251  12.051   6.997  0.1173 -0.0074  0.5778
  110MOL0     C14402   7.189  12.100   6.861 -0.7346 -0.6415 -0.5954
  110MOL0     C14403   7.168  12.252   6.867  0.0449 -0.3007  0.4443
  110MOL0     C14404   7.188  12.326   6.725  0.8672  0.0230  0.0666
  110MOL0     N14405   7.163  12.468   6.722 -0.5068 -0.1377  0.3318
  110MOL0     C14406   7.206  12.547   6.828 -0.1568  0.4442 -0.3017
  110MOL0     C14407   7.149  12.665   6.819 -0.2872 -0.1601  0.9610
  110MOL0     C14408   7.131  12.772   6.925  0.6467  0.7920 -0.3270
  110MOL0     C14409   7.012  12.757   7.032 -0.2378  0.3499  0.9651
  110MOL0     C14410   7.038  12.847   7.151  0.2906 -0.7846  0.8535
  110MOL0     C14411   6.928  12.819   7.254 -0.7439  0.2090 -0.5054
  110MOL0     O14412   6.892  12.924   7.355  0.6467 -0.0186 -0.1720
  110MOL0     C14413   6.856  13.052   7.317 -0.2329  0.4203 -0.4877
  110MOL0     C14414   6.861  13.153   7.412  0.1164 -0.7003 -0.8329
  110MOL0     C14415   6.813  13.278   7.377 -0.1461 -0.1577  0.4976
  110MOL0     C14416   6.761  13.314   7.246  0.3689 -0.0768 -0.4777
  110MOL0     C14417   6.697  13.451   7.222  0.0129  1.1780 -0.1410
  110MOL0     O14418   6.699  13.552   7.314 -0.0009 -0.7123  0.9693
  110MOL0     C14419   6.607  13.659   7.323 -0.1671  0.2974 -0.2696
  110MOL0     C14420   6.469  13.657   7.292 -0.0042  0.0770  0.0802
  110MOL0     C14421   6.396  13.773   7.315  0.4358  0.6261 -0.1227
  110MOL0     C14422   6.449  13.895   7.371  0.2829  0.0209 -0.0840
  110MOL0     O14423   6.358  13.997   7.397 -0.8219 -0.2131 -0.5013
  110MOL0     C14424   6.282  13.990   7.522 -0.7341  0.9999 -0.8522
  110MOL0     C14425   6.139  14.040   7.496 -0.3389  0.2394 -0.0715
  110MOL0     C14426   6.130  14.195   7.528  0.0949 -0.9374 -0.4998
  110MOL0     C14427   6.233  14.280   7.446  0.9221 -0.3088  0.5744
  110MOL0     C14428   6.205  14.432   7.446  0.8437 -0.3059  0.0748
  110MOL0     C14429   6.187  14.505   7.578 -0.6922 -0.6080  0.2849
  110MOL0     C14430   6.135  14.648   7.566  0.6286  0.1091 -0.5635
  110MOL0     C14431   6.169  14.743   7.680  0.1760  0.0197 -0.5006
  110MOL0    Cl14432   6.069  14.722   7.836 -0.0876  0.0214  0.4050
  110MOL0     C14433   6.588  13.904   7.386 -0.2842  0.1193  0.4544
  110MOL0     C14434   6.668  13.782   7.365  0.4481  0.8372  0.1981
  110MOL0     O14435   6.634  13.456   7.116  0.7319  0.1199 -0.0604
  110MOL0     C14436   6.759  13.208   7.158  1.0978 -0.0624 -0.2234
  110MOL0     C14437   6.807  13.083   7.183 -0.4381  0.0258  0.1247
  110MOL0     N14438   7.078  12.663   6.696 -0.2438 -0.4667 -0.1313
  110MOL0     N14439   7.085  12.540   6.643 -0.0128 -0.3904 -0.6883
  110MOL0     C14440   7.600  11.393   7.072  0.2707  1.2076  0.2344
  110MOL0     C14441   7.711  11.312   7.034 -0.3393  0.5583  0.2664
  110MOL0     C14442   7.919  10.991   6.773  0.1406  0.3954  0.0438
  110MOL0     C14443   7.943  10.904   6.882 -0.3292 -0.1789  0.6255
  110MOL0     C14444   8.031  10.793   6.877  0.1571 -0.4148  0.1679
  110MOL0     C14445   8.116  10.764   6.764 -0.2374  0.7980  0.1578
  110MOL0     O14446   8.204  10.668   6.760 -0.4085  0.2631  0.0432
  110MOL0     C14447   8.248  10.607   6.888  0.4339 -0.7235 -0.8611
  110MOL0     C14448   8.319  10.708   6.986 -0.2152  0.8224 -0.3303
  110MOL0     C14449   8.408  10.796   6.904 -0.4998  1.3117  0.0768
  110MOL0     C14450   8.432  10.925   6.979  0.6095 -0.5621  0.4663
  110MOL0     C14451   8.301  11.004   6.965  0.0002  0.5586 -0.6299
  110MOL0     C14452   8.202  11.065   6.943  1.0125 -0.7315  0.3583
  110MOL0     C14453   8.087  10.843   6.648 -0.4291 -0.4054 -0.1104
  110MOL0     C14454   7.992  10.950   6.653  0.6314  0.2825  0.0637
  110MOL0     H14455   7.546  11.083   6.856  0.3238 -0.4485  1.9593
  110MOL0     H14456   7.362  11.217   6.880  0.7317  0.9121 -1.4858
  110MOL0     H14457   7.328  11.592   6.928  0.6826 -1.1854 -0.8536
  110MOL0     H14458   7.470  11.638   7.034 -0.5223 -0.0739 -0.9590
  110MOL0     H14459   7.322  11.652   7.225 -0.9206  1.6622  0.9575
  110MOL0     H14460   7.184  11.647   7.127 -0.5822 -0.4488 -1.7823
  110MOL0     H14461   7.392  11.864   7.159  0.6374  0.4985 -1.9999
  110MOL0     H14462   7.221  11.866   7.194 -0.1996 -2.2383  0.9839
  110MOL0     H14463   7.350  11.872   6.928 -0.7489 -2.5181 -0.4729
  110MOL0     H14464   7.192  11.848   6.940  0.0175  3.4252 -1.3793
  110MOL0     H14465   7.352  12.090   7.008 -0.1233  0.6887  0.3640
  110MOL0     H14466   7.200  12.092   7.085 -0.6538 -0.0485  0.1655
  110MOL0     H14467   7.100  12.040   6.842 -0.7152 -1.0105  0.4041
  110MOL0     H14468   7.255  12.082   6.776 -0.9179 -0.8272 -0.7005
  110MOL0     H14469   7.071  12.278   6.909  0.3713  0.4767  0.7569
  110MOL0     H14470   7.247  12.295   6.931  1.9728  0.1530 -2.0717
  110MOL0     H14471   7.108  12.294   6.657 -0.2415  2.7565 -0.0626
  110MOL0     H14472   7.288  12.313   6.682  1.3933  4.0869 -0.3695
  110MOL0     H14473   7.247  12.506   6.920 -0.4229  1.5099  0.2996
  110MOL0     H14474   7.123  12.866   6.870 -0.9486  0.3891 -0.8272
  110MOL0     H14475   7.222  12.777   6.986  0.0396  0.0041  0.6872
  110MOL0     H14476   7.013  12.652   7.064 -2.2092 -0.3390 -1.0564
  110MOL0     H14477   6.915  12.777   6.987 -0.9109  1.0103  2.6463
  110MOL0     H14478   7.135  12.838   7.203  0.5166 -4.2368  0.0918
  110MOL0     H14479   7.039  12.951   7.117 -1.0472 -1.5188 -1.6295
  110MOL0     H14480   6.976  12.735   7.305  2.1238  0.3025 -2.7921
  110MOL0     H14481   6.831  12.792   7.213 -0.5059 -0.9819 -0.3192
  110MOL0     H14482   6.904  13.134   7.510 -0.5104 -1.6531 -0.7295
  110MOL0     H14483   6.806  13.356   7.452  2.2318 -1.0058  1.7154
  110MOL0     H14484   6.424  13.564   7.260 -0.3691  0.1167  0.4774
  110MOL0     H14485   6.292  13.774   7.285  0.7431  2.3416 -1.2814
  110MOL0     H14486   6.324  14.047   7.604  2.5604 -3.4144  0.9386
  110MOL0     H14487   6.272  13.889   7.564  4.9360  1.5342  2.7877
  110MOL0     H14488   6.064  13.974   7.539 -3.5115  0.1907 -4.9398
  110MOL0     H14489   6.111  14.020   7.392  0.2221  0.3886 -0.2591
  110MOL0     H14490   6.149  14.206   7.635  1.1071 -3.1583 -0.3956
  110MOL0     H14491   6.027  14.224   7.505 -0.6316 -2.1998  0.9535
  110MOL0     H14492   6.335  14.266   7.483  2.3008  3.1762 -1.3914
  110MOL0     H14493   6.227  14.233   7.347  0.3862 -0.7126  0.7930
  110MOL0     H14494   6.118  14.458   7.386  0.8808 -0.0896  0.1132
  110MOL0     H14495   6.290  14.475   7.392 -1.2520 -0.1268 -3.3532
  110MOL0     H14496   6.282  14.498   7.631 -0.5547  2.0603  0.5089
  110MOL0     H14497   6.122  14.448   7.645  0.5760 -1.0286  1.1855
  110MOL0     H14498   6.173  14.675   7.467  1.2515 -3.8776 -1.6168
  110MOL0     H14499   6.028  14.653   7.547  0.5934  2.6015 -0.0578
  110MOL0     H14500   6.153  14.846   7.648 -0.9332  0.0422  0.0988
  110MOL0     H14501   6.273  14.738   7.715 -0.1103  1.2132  0.5797
  110MOL0     H14502   6.630  13.994   7.431 -2.3421  1.9629 -1.0815
  110MOL0     H14503   6.776  13.794   7.366  0.4105  1.2481 -0.4899
  110MOL0     H14504   6.706  13.223   7.064 -2.0437 -0.2329  1.3982
  110MOL0     H14505   6.806  13.008   7.104  3.9182  1.2145 -1.3606
  110MOL0     H14506   7.636  11.476   7.132  3.8352  0.8167 -1.0836
  110MOL0     H14507   7.815  11.323   7.062 -0.1515 -0.7624  0.1433
  110MOL0     H14508   7.889  10.918   6.976  1.7569  0.9891  1.7214
  110MOL0     H14509   8.045  10.727   6.961  2.5016 -0.7680 -0.4251
  110MOL0     H14510   8.328  10.538   6.861  3.0055  0.5068  2.8017
  110MOL0     H14511   8.168  10.551   6.938  0.1246  2.0170  1.9679
  110MOL0     H14512   8.248  10.778   7.030  0.7605  3.8982 -3.2625
  110MOL0     H14513   8.379  10.664   7.067  0.2557  1.4069 -0.3560
  110MOL0     H14514   8.363  10.823   6.808 -2.0222 -1.5362 -0.0961
  110MOL0     H14515   8.501  10.744   6.879 -0.8553  1.5106 -1.7951
  110MOL0     H14516   8.459  10.911   7.084  3.2538  0.5380  0.0071
  110MOL0     H14517   8.510  10.983   6.930  0.9974 -1.2859  0.2197
  110MOL0     H14518   8.114  11.116   6.909 -0.8646 -2.6016  2.0940
  110MOL0     H14519   8.155  10.835   6.563 -0.6545  3.2521 -0.8056
  110MOL0     H14520   7.971  10.998   6.558  2.5213  1.1675  0.0254
  111MOL0     O14521   0.408   4.964   6.393  0.2289 -0.3043 -0.3382
  111MOL0     C14522   0.448   4.909   6.495 -0.6976  0.9565 -0.2791
  111MOL0     O14523   0.577   4.927   6.547 -0.1347  0.1336  0.6335
  111MOL0     C14524   0.651   5.032   6.506  0.5514 -0.2303  0.2021
  111MOL0     C14525   0.787   5.001   6.502 -0.3121  0.3946 -0.4000
  111MOL0     C14526   0.872   5.092   6.434 -0.2292 -0.3481  0.0562
  111MOL0     C14527   0.819   5.211   6.379 -0.6526 -0.0873  0.3632
  111MOL0     O14528   0.897   5.304   6.317 -0.1921  0.2607  0.8819
  111MOL0     C14529   1.041   5.307   6.339  0.2046  0.0302  0.5136
  111MOL0     C14530   1.078   5.451   6.311  0.6725 -0.0859  0.1134
  111MOL0     C14531   1.113   5.496   6.166 -0.0853  0.6529 -0.9311
  111MOL0     C14532   1.196   5.394   6.080  0.3609 -0.5238 -0.3456
  111MOL0     C14533   1.260   5.476   5.965 -0.1266  0.2464  0.4223
  111MOL0     C14534   1.301   5.379   5.858 -0.0229  1.0593  0.6985
  111MOL0     C14535   1.366   5.458   5.752 -0.4254 -0.1742 -0.8238
  111MOL0     C14536   1.339   5.401   5.613  0.5823  0.1302 -0.3657
  111MOL0     N14537   1.458   5.394   5.530 -0.1204 -0.1045  1.1980
  111MOL0     C14538   1.499   5.495   5.450 -0.2008 -0.7192 -0.0851
  111MOL0     C14539   1.630   5.454   5.411  0.5839 -0.1223  1.2368
  111MOL0     C14540   1.713   5.511   5.298 -0.6370  0.9913  0.5752
  111MOL0     C14541   1.666   5.486   5.161 -0.5135  0.4661  0.6862
  111MOL0     C14542   1.775   5.462   5.047 -0.0485 -0.2004 -0.0484
  111MOL0     C14543   1.858   5.578   5.018 -0.7840  0.6625 -1.4450
  111MOL0     O14544   1.962   5.569   5.119  0.4416  0.2349 -0.5207
  111MOL0     C14545   2.055   5.664   5.094  0.5535 -0.0607  0.0488
  111MOL0     C14546   2.158   5.631   5.016  0.5329 -0.5900  0.1908
  111MOL0     C14547   2.259   5.729   5.007  0.6222  1.3136  0.1354
  111MOL0     C14548   2.252   5.853   5.067  0.2141  0.6805 -0.3760
  111MOL0     C14549   2.355   5.957   5.041  0.2252 -0.1464  0.1297
  111MOL0     O14550   2.327   6.081   5.089  0.5541 -0.4578  0.1776
  111MOL0     C14551   2.411   6.195   5.085  0.5247  0.7971  0.5990
  111MOL0     C14552   2.366   6.312   5.148 -0.2750 -0.0676  0.0756
  111MOL0     C14553   2.456   6.425   5.155  1.1856  0.8388  0.5162
  111MOL0     C14554   2.576   6.428   5.089  0.1318 -0.9372 -0.2525
  111MOL0     O14555   2.653   6.548   5.113 -0.3318 -0.2891 -0.7426
  111MOL0     C14556   2.731   6.603   5.009 -0.0218 -0.0486  0.5409
  111MOL0     C14557   2.669   6.731   4.955  0.1454 -1.8410  0.2126
  111MOL0     C14558   2.738   6.786   4.837 -0.1597 -0.2435  0.6669
  111MOL0     C14559   2.712   6.929   4.789  0.5062  0.4480  0.7720
  111MOL0     C14560   2.784   6.952   4.649  0.2433 -0.0938  0.5374
  111MOL0     C14561   2.714   7.070   4.570  0.7191  0.9796  0.0398
  111MOL0     C14562   2.669   7.191   4.656 -0.4147 -0.7861  0.0857
  111MOL0     C14563   2.635   7.315   4.566  0.1009  0.0177 -0.0129
  111MOL0    Cl14564   2.525   7.433   4.641 -0.6043  0.1362  0.2111
  111MOL0     C14565   2.620   6.319   5.018 -0.1791 -0.3266  0.6916
  111MOL0     C14566   2.542   6.204   5.014 -0.7825 -0.2468 -0.0244
  111MOL0     O14567   2.452   5.921   4.972 -0.4206 -0.3427  0.3638
  111MOL0     C14568   2.142   5.881   5.154  0.0505  0.0666  1.1580
  111MOL0     C14569   2.044   5.790   5.165  1.0121  0.1082  0.4291
  111MOL0     N14570   1.648   5.329   5.461 -0.9598 -0.0074 -0.2494
  111MOL0     N14571   1.549   5.292   5.539  0.4451 -0.3841  0.1479
  111MOL0     C14572   0.682   5.240   6.401  0.0467  0.2300 -0.6233
  111MOL0     C14573   0.599   5.152   6.462 -0.6829  0.6478  1.2044
  111MOL0     C14574   0.360   4.822   6.580  0.0296  0.4349  0.4475
  111MOL0     C14575   0.424   4.717   6.659  0.0686 -0.0434 -0.9724
  111MOL0     C14576   0.345   4.659   6.764  1.0023  1.0310  1.2201
  111MOL0     C14577   0.212   4.688   6.778  0.2787 -0.2596  0.4523
  111MOL0     O14578   0.137   4.635   6.873  0.0930 -0.3011 -0.4253
  111MOL0     C14579   0.138   4.693   7.008  0.5834  0.0495 -1.6320
  111MOL0     C14580   0.111   4.584   7.123  0.4273 -0.9605  0.4211
  111MOL0     C14581   0.220   4.485   7.147  0.1088 -0.3934  0.6712
  111MOL0     C14582   0.172   4.371   7.243 -0.5736 -0.1575  0.7674
  111MOL0     C14583   0.255   4.256   7.240 -0.7674  0.5364  1.0122
  111MOL0     C14584   0.331   4.157   7.222  0.5839  0.4146 -0.0268
  111MOL0     C14585   0.154   4.790   6.694  0.0708 -0.1707 -0.2044
  111MOL0     C14586   0.224   4.846   6.591 -0.8672 -0.4907 -0.0765
  111MOL0     H14587   0.830   4.913   6.548  1.9007  1.4086 -0.3731
  111MOL0     H14588   0.976   5.061   6.430 -0.4052 -1.5179  2.6840
  111MOL0     H14589   1.088   5.235   6.272  0.0317 -0.2994  0.7442
  111MOL0     H14590   1.079   5.284   6.438  2.5123 -1.3936 -0.6201
  111MOL0     H14591   1.173   5.462   6.365  1.3399 -0.3301 -0.9792
  111MOL0     H14592   1.013   5.528   6.354  0.0917 -0.8231  0.5710
  111MOL0     H14593   1.178   5.584   6.160  0.8658 -0.1273 -3.1355
  111MOL0     H14594   1.026   5.534   6.112  1.4457 -0.0821 -4.1671
  111MOL0     H14595   1.260   5.331   6.142 -1.1345 -1.1046  0.6710
  111MOL0     H14596   1.127   5.324   6.031  2.1711 -1.6291 -1.4566
  111MOL0     H14597   1.348   5.537   5.989 -0.3981  0.6676  0.3660
  111MOL0     H14598   1.193   5.548   5.916  1.1412  0.5551 -0.9794
  111MOL0     H14599   1.216   5.329   5.812  2.6441 -2.6262 -0.7385
  111MOL0     H14600   1.374   5.304   5.892 -0.0046  0.2903 -0.9617
  111MOL0     H14601   1.314   5.554   5.752 -2.5373 -1.2237  0.7646
  111MOL0     H14602   1.474   5.474   5.768 -0.9548  1.9911  1.1381
  111MOL0     H14603   1.268   5.465   5.561  0.2951  0.8371  0.8461
  111MOL0     H14604   1.296   5.301   5.627 -1.7494  0.8547 -1.8429
  111MOL0     H14605   1.438   5.572   5.403  0.8220  0.4570  0.4459
  111MOL0     H14606   1.796   5.440   5.305  1.0295  2.4259 -2.4447
  111MOL0     H14607   1.738   5.618   5.299  0.3047  0.9083 -2.5267
  111MOL0     H14608   1.596   5.560   5.120  1.2755  1.9965  0.2683
  111MOL0     H14609   1.617   5.390   5.182  2.6321 -1.1159  1.4603
  111MOL0     H14610   1.838   5.379   5.078  0.6143 -0.2438 -1.4507
  111MOL0     H14611   1.712   5.436   4.961 -1.7742 -0.0570  1.1101
  111MOL0     H14612   1.801   5.672   5.015  1.3027  2.3253  2.7259
  111MOL0     H14613   1.900   5.573   4.917 -1.9160  0.8327 -1.9492
  111MOL0     H14614   2.157   5.540   4.958 -0.8916  0.2543 -1.1822
  111MOL0     H14615   2.345   5.712   4.943  0.8780 -2.1335  1.2289
  111MOL0     H14616   2.274   6.325   5.204  2.1007  3.4947  3.7777
  111MOL0     H14617   2.427   6.512   5.213  0.9065  0.7454  0.5178
  111MOL0     H14618   2.733   6.537   4.922 -2.7765 -0.3693  0.6383
  111MOL0     H14619   2.831   6.611   5.053  0.7574 -4.0207 -0.1620
  111MOL0     H14620   2.686   6.804   5.034 -0.0801  1.6045 -2.7046
  111MOL0     H14621   2.565   6.704   4.934  0.8835 -1.5619 -4.8189
  111MOL0     H14622   2.703   6.724   4.754  0.1139 -1.0350  1.1295
  111MOL0     H14623   2.846   6.776   4.854  0.0538  1.8179  0.7643
  111MOL0     H14624   2.607   6.956   4.777  1.1907  2.6350 -0.7390
  111MOL0     H14625   2.749   6.995   4.868 -2.2914  0.5723  2.1022
  111MOL0     H14626   2.782   6.855   4.599  2.1494  1.3329 -2.6002
  111MOL0     H14627   2.887   6.983   4.665  0.5042  1.2580 -2.9829
  111MOL0     H14628   2.635   7.035   4.503  1.9226 -0.8421 -0.4948
  111MOL0     H14629   2.794   7.108   4.506  1.3152  1.4289  1.0361
  111MOL0     H14630   2.577   7.152   4.701 -0.9394 -0.0904 -0.3573
  111MOL0     H14631   2.740   7.208   4.737  1.2584  2.8190 -1.9241
  111MOL0     H14632   2.580   7.276   4.480 -0.7671  4.0722 -1.5436
  111MOL0     H14633   2.725   7.368   4.533 -0.1255  0.8004  0.5882
  111MOL0     H14634   2.708   6.337   4.958 -1.2087  0.5927 -0.6113
  111MOL0     H14635   2.573   6.120   4.952 -1.0151 -1.4312  1.4183
  111MOL0     H14636   2.123   5.970   5.214 -0.2612  1.5842 -1.0784
  111MOL0     H14637   1.966   5.802   5.239 -0.2991  2.0337 -1.1721
  111MOL0     H14638   0.633   5.334   6.379  0.0287  0.5568  0.6933
  111MOL0     H14639   0.495   5.184   6.460 -0.2064  2.4087  2.7666
  111MOL0     H14640   0.532   4.707   6.668 -0.0410  0.1347  0.8890
  111MOL0     H14641   0.384   4.569   6.809 -0.0826 -1.0230 -1.6763
  111MOL0     H14642   0.071   4.779   7.012  1.5048  0.7503 -0.6012
  111MOL0     H14643   0.242   4.722   7.027  0.8114 -0.9458 -1.2887
  111MOL0     H14644   0.092   4.642   7.214  0.0929 -0.2110 -0.1187
  111MOL0     H14645   0.019   4.532   7.094 -0.5720  1.2031 -0.4895
  111MOL0     H14646   0.306   4.545   7.180 -2.2675  2.5055  2.0077
  111MOL0     H14647   0.246   4.435   7.053  1.3760  1.1252  0.1676
  111MOL0     H14648   0.165   4.427   7.337  2.5351  2.7639 -0.5096
  111MOL0     H14649   0.068   4.338   7.237 -1.3313  1.9033  1.5290
  111MOL0     H14650   0.395   4.072   7.209  0.3331  0.1354  0.5232
  111MOL0     H14651   0.053   4.830   6.702 -0.5068 -0.2853 -4.2989
  111MOL0     H14652   0.172   4.930   6.547  0.7728  1.1392  0.9503
  112MOL0     O14653   6.170   8.117   8.531 -0.3712  0.3663  0.8631
  112MOL0     C14654   6.069   8.068   8.476 -0.5174  0.9598 -0.1943
  112MOL0     O14655   6.065   8.005   8.357  0.1665 -0.6287 -0.0970
  112MOL0     C14656   6.183   8.013   8.287  0.3189 -0.7147  0.4832
  112MOL0     C14657   6.188   8.103   8.176 -0.0637 -0.1291  0.0828
  112MOL0     C14658   6.302   8.114   8.097 -0.4389 -1.2668 -0.2680
  112MOL0     C14659   6.416   8.038   8.137 -0.2457 -0.0558 -0.0085
  112MOL0     O14660   6.535   8.026   8.070  0.1328 -0.5375 -0.2538
  112MOL0     C14661   6.593   8.143   8.014 -0.6027  0.6572  0.5935
  112MOL0     C14662   6.703   8.084   7.918  0.4098  0.0220  0.7357
  112MOL0     C14663   6.820   8.018   7.995  0.5776 -0.1121  0.2839
  112MOL0     C14664   6.923   7.944   7.907  0.3189  1.0482 -0.7401
  112MOL0     C14665   7.041   7.905   8.001 -0.5790 -0.5769  0.7825
  112MOL0     C14666   7.173   7.884   7.931 -0.4586 -0.5740 -0.0245
  112MOL0     C14667   7.194   7.818   7.785 -0.2065  0.0641 -0.3684
  112MOL0     C14668   7.196   7.663   7.789  0.2129  0.7292  1.0699
  112MOL0     N14669   7.067   7.598   7.842 -0.0139 -0.3230 -0.6400
  112MOL0     C14670   6.946   7.630   7.783 -0.6490 -0.1113 -0.2666
  112MOL0     C14671   6.846   7.569   7.864 -0.5549 -1.0877 -0.9659
  112MOL0     C14672   6.704   7.599   7.870  0.3034  0.0955 -0.3415
  112MOL0     C14673   6.622   7.470   7.834  0.0616  0.3984 -0.9690
  112MOL0     C14674   6.489   7.487   7.765 -0.1132  0.9938 -0.0938
  112MOL0     C14675   6.403   7.572   7.860 -0.1982 -0.1621  0.3672
  112MOL0     O14676   6.269   7.577   7.810  0.1154  0.7159 -0.5741
  112MOL0     C14677   6.178   7.599   7.914  0.3677  0.0459  0.5710
  112MOL0     C14678   6.212   7.654   8.045  0.2693 -0.0302 -0.0038
  112MOL0     C14679   6.103   7.666   8.131 -0.6161  0.0620  1.1152
  112MOL0     C14680   5.972   7.632   8.100 -0.3155  0.1606 -0.7855
  112MOL0     C14681   5.873   7.654   8.204 -0.1854 -0.2745  0.8549
  112MOL0     O14682   5.747   7.647   8.169  0.8706  0.0365 -0.7476
  112MOL0     C14683   5.656   7.700   8.259 -0.7290  1.0136  1.0055
  112MOL0     C14684   5.615   7.618   8.373 -0.8155  0.1006 -0.4652
  112MOL0     C14685   5.515   7.667   8.457 -0.5704 -0.9438 -0.5857
  112MOL0     C14686   5.483   7.799   8.436 -0.6269  0.1248  0.2410
  112MOL0     O14687   5.396   7.843   8.534  0.4401 -0.0332 -0.2479
  112MOL0     C14688   5.323   7.964   8.531 -1.0053  0.5350 -0.0873
  112MOL0     C14689   5.189   7.960   8.453 -0.5022  0.5476  0.7902
  112MOL0     C14690   5.103   7.837   8.505 -0.6074  0.5828  0.8704
  112MOL0     C14691   4.952   7.872   8.490  0.0319 -0.0456  0.5390
  112MOL0     C14692   4.867   7.749   8.509 -0.8585  0.4377  1.0051
  112MOL0     C14693   4.723   7.760   8.515  0.5182 -0.3118 -0.4054
  112MOL0     C14694   4.660   7.867   8.611  0.1721  0.4191 -0.0374
  112MOL0     C14695   4.622   8.004   8.553 -0.8104  0.4285  0.4973
  112MOL0    Cl14696   4.512   7.984   8.414 -0.1394  0.3683 -0.2680
  112MOL0     C14697   5.530   7.876   8.328 -0.6194  0.0209 -0.0218
  112MOL0     C14698   5.626   7.829   8.242  0.3547 -1.1900 -0.8356
  112MOL0     O14699   5.909   7.680   8.320 -0.5600  0.6148 -0.8967
  112MOL0     C14700   5.941   7.557   7.983  0.0510 -0.1464 -0.3981
  112MOL0     C14701   6.048   7.548   7.885  0.2847  0.1456 -0.2680
  112MOL0     N14702   6.928   7.505   7.958  0.1846 -0.5658  0.1238
  112MOL0     N14703   7.052   7.524   7.950  0.3984 -0.0536  0.1070
  112MOL0     C14704   6.409   7.951   8.246  0.3998 -0.6097 -0.1072
  112MOL0     C14705   6.295   7.929   8.319 -0.2684 -0.9801  0.0365
  112MOL0     C14706   5.953   8.061   8.573 -0.0578  0.6733  0.7263
  112MOL0     C14707   5.944   8.148   8.682 -0.3140  0.3903  0.0122
  112MOL0     C14708   5.851   8.131   8.779  0.5342  0.3726  0.0515
  112MOL0     C14709   5.752   8.026   8.758 -0.5135  0.2416 -0.6572
  112MOL0     O14710   5.664   8.001   8.857  0.2934 -0.0361  0.2096
  112MOL0     C14711   5.532   7.960   8.826  0.2902  0.1711 -0.7415
  112MOL0     C14712   5.460   7.871   8.927 -0.4536 -0.2008  0.6516
  112MOL0     C14713   5.347   7.802   8.852  0.5506  0.0394  0.4100
  112MOL0     C14714   5.279   7.683   8.919  1.3056 -0.1881 -0.3120
  112MOL0     C14715   5.379   7.575   8.957  0.4274 -0.5729  0.3977
  112MOL0     C14716   5.479   7.508   8.974 -0.1526 -0.2001 -0.1877
  112MOL0     C14717   5.763   7.942   8.649 -0.2104  0.6410  0.1569
  112MOL0     C14718   5.863   7.957   8.555 -0.0157 -0.5862 -1.0571
  112MOL0     H14719   6.097   8.157   8.155  0.7933 -0.0861 -4.7044
  112MOL0     H14720   6.304   8.189   8.018  2.0236 -0.5564  0.4025
  112MOL0     H14721   6.631   8.202   8.099 -2.5935  2.4977  0.2875
  112MOL0     H14722   6.522   8.208   7.964  1.3450 -0.2327 -3.7559
  112MOL0     H14723   6.756   8.175   7.889 -0.7882  1.1605  1.9362
  112MOL0     H14724   6.661   8.021   7.839  1.3921 -2.0837  1.8083
  112MOL0     H14725   6.780   7.953   8.073  0.0223  0.6082  0.6046
  112MOL0     H14726   6.873   8.092   8.055  2.8478 -1.6977  0.4015
  112MOL0     H14727   6.874   7.852   7.874  0.3048  0.9324 -0.3952
  112MOL0     H14728   6.944   8.008   7.820  1.4699 -1.0024 -2.0641
  112MOL0     H14729   7.019   7.827   8.075 -2.8434  0.6825  1.5695
  112MOL0     H14730   7.060   7.993   8.064  2.0759  0.1371 -0.8750
  112MOL0     H14731   7.244   7.857   8.009 -0.3022 -0.5714 -0.1636
  112MOL0     H14732   7.219   7.983   7.918  0.8718 -0.8443  2.1251
  112MOL0     H14733   7.127   7.853   7.706  0.0930 -0.8544 -1.0518
  112MOL0     H14734   7.286   7.860   7.744 -0.9341  0.4576 -1.6859
  112MOL0     H14735   7.289   7.629   7.837 -1.1258 -5.0694  0.2976
  112MOL0     H14736   7.208   7.629   7.686  2.3969 -1.7459  2.0111
  112MOL0     H14737   6.920   7.699   7.703  1.2455 -1.6255 -2.3434
  112MOL0     H14738   6.664   7.678   7.805 -3.2210  0.5466  2.0835
  112MOL0     H14739   6.674   7.639   7.968 -0.3729  1.8536 -1.2301
  112MOL0     H14740   6.599   7.408   7.921 -0.2667  1.5348 -0.2179
  112MOL0     H14741   6.684   7.397   7.784  2.3055  0.2648  1.7706
  112MOL0     H14742   6.502   7.538   7.669  2.8822 -0.0075 -0.3333
  112MOL0     H14743   6.436   7.394   7.747 -2.3230  1.9625  0.9778
  112MOL0     H14744   6.448   7.672   7.863 -0.6834  0.0607  0.3940
  112MOL0     H14745   6.404   7.526   7.958 -0.4899  1.6013  1.2470
  112MOL0     H14746   6.311   7.668   8.088  1.5963 -1.0418 -2.4972
  112MOL0     H14747   6.122   7.701   8.232  2.7973  0.5890  0.4305
  112MOL0     H14748   5.647   7.515   8.387  0.3264  0.5627  0.3853
  112MOL0     H14749   5.485   7.612   8.546  0.9352  0.6942  1.0105
  112MOL0     H14750   5.397   8.034   8.492 -0.6676  0.0102 -0.3936
  112MOL0     H14751   5.289   7.992   8.632 -1.8938  1.0315 -0.5163
  112MOL0     H14752   5.207   7.949   8.346  3.9889  0.6397  1.3541
  112MOL0     H14753   5.141   8.058   8.461 -0.4416  0.6763 -0.2451
  112MOL0     H14754   5.118   7.821   8.613 -2.2156  2.6081  1.4633
  112MOL0     H14755   5.116   7.745   8.448  0.7368 -0.0698  2.1442
  112MOL0     H14756   4.922   7.951   8.561 -1.7789  1.4627 -1.7276
  112MOL0     H14757   4.926   7.906   8.389 -0.7296  0.1661  0.7985
  112MOL0     H14758   4.904   7.708   8.604  1.6140 -0.1615 -0.1393
  112MOL0     H14759   4.892   7.676   8.431 -2.0774  0.0371  0.9750
  112MOL0     H14760   4.703   7.662   8.559  1.1088  0.4059  1.5714
  112MOL0     H14761   4.667   7.774   8.422 -0.8013  0.4096  0.4713
  112MOL0     H14762   4.569   7.817   8.646 -0.3934  3.0457  2.6473
  112MOL0     H14763   4.719   7.885   8.701 -1.2617  1.2903  0.7579
  112MOL0     H14764   4.718   8.046   8.522 -1.4804  0.9112 -0.9783
  112MOL0     H14765   4.561   8.063   8.622 -1.0897  4.1208 -2.5737
  112MOL0     H14766   5.505   7.981   8.313 -0.8730  0.1955  1.4473
  112MOL0     H14767   5.659   7.895   8.163 -0.3873 -1.1911 -1.1628
  112MOL0     H14768   5.837   7.528   7.970 -0.1279 -0.8876  2.2597
  112MOL0     H14769   6.035   7.513   7.783 -0.4075 -0.7675  0.1228
  112MOL0     H14770   6.496   7.896   8.279  1.8256  1.8687  0.5378
  112MOL0     H14771   6.294   7.852   8.396 -1.8692  0.6316  1.7114
  112MOL0     H14772   6.015   8.230   8.689 -0.1466  0.1113  2.2922
  112MOL0     H14773   5.831   8.201   8.860  2.0936  2.2430 -1.1043
  112MOL0     H14774   5.527   7.913   8.728  0.5829  3.9858 -2.7995
  112MOL0     H14775   5.484   8.058   8.820  0.9028  0.5168 -0.1662
  112MOL0     H14776   5.530   7.796   8.966 -1.4240 -1.1864  0.5502
  112MOL0     H14777   5.422   7.931   9.010 -0.3696  0.1903  0.4113
  112MOL0     H14778   5.382   7.762   8.757 -1.3148  1.5181 -0.9970
  112MOL0     H14779   5.271   7.874   8.820 -0.6634 -1.8635 -1.2433
  112MOL0     H14780   5.219   7.719   9.004  0.0379  2.3402 -2.1538
  112MOL0     H14781   5.211   7.632   8.851 -1.9231  1.1839  1.6219
  112MOL0     H14782   5.568   7.449   8.980  1.2233  1.6905 -1.2519
  112MOL0     H14783   5.707   7.849   8.647  2.8407 -1.3339 -2.1376
  112MOL0     H14784   5.873   7.880   8.479  0.6634 -3.2121  1.4770
  113MOL0     O14785   2.550  10.220   6.443  0.7802  0.3014 -0.1095
  113MOL0     C14786   2.568  10.131   6.360  0.4375 -0.0702  0.5322
  113MOL0     O14787   2.689  10.070   6.334  0.2029 -0.2148  0.3759
  113MOL0     C14788   2.799  10.088   6.412 -0.7652  0.2771 -0.1509
  113MOL0     C14789   2.914  10.109   6.340 -0.8238  0.4005 -0.0519
  113MOL0     C14790   3.043  10.114   6.403 -1.0350 -0.2620  0.8732
  113MOL0     C14791   3.049  10.097   6.542 -0.6859  0.1741 -0.7692
  113MOL0     O14792   3.178  10.091   6.592 -0.4597 -0.3078 -0.5750
  113MOL0     C14793   3.200  10.148   6.728 -0.1684 -0.5997  0.8204
  113MOL0     C14794   3.352  10.159   6.743  0.0680 -0.7696  0.0689
  113MOL0     C14795   3.390  10.233   6.876  0.2893  0.2932 -0.0719
  113MOL0     C14796   3.375  10.389   6.860 -0.5741  0.6897  0.4314
  113MOL0     C14797   3.389  10.450   7.002 -0.1112  0.7228 -0.0697
  113MOL0     C14798   3.319  10.588   6.990 -0.1997 -0.2270  0.7172
  113MOL0     C14799   3.342  10.651   7.133  0.4140  0.8941  0.1615
  113MOL0     C14800   3.221  10.624   7.228  0.2178  0.3092  0.0223
  113MOL0     N14801   3.256  10.666   7.365 -0.6114  0.4786 -0.3481
  113MOL0     C14802   3.369  10.627   7.426 -0.4977  0.2725 -0.0935
  113MOL0     C14803   3.355  10.681   7.550  0.2174  0.1054 -0.4522
  113MOL0     C14804   3.427  10.655   7.671 -0.0890  0.4788 -0.2075
  113MOL0     C14805   3.389  10.554   7.768 -0.2402 -0.2116  0.8020
  113MOL0     C14806   3.404  10.402   7.726 -0.3287  0.0257  0.8815
  113MOL0     C14807   3.390  10.322   7.857  0.0107  0.9010  0.3966
  113MOL0     O14808   3.257  10.331   7.918  0.0563  0.9493  0.6105
  113MOL0     C14809   3.154  10.266   7.851 -0.4131  0.2864  0.3380
  113MOL0     C14810   3.031  10.330   7.851  0.7477 -0.1836 -0.5853
  113MOL0     C14811   2.924  10.273   7.783  0.5303 -0.0071 -0.3450
  113MOL0     C14812   2.922  10.143   7.735  0.2150 -0.0180  0.3558
  113MOL0     C14813   2.802  10.069   7.666  0.1404  0.1223  0.4308
  113MOL0     O14814   2.701  10.153   7.637  0.1406  0.3077  0.3408
  113MOL0     C14815   2.606  10.103   7.555  0.4113  0.6718 -0.5578
  113MOL0     C14816   2.583  10.146   7.425 -0.2235 -0.1976 -1.2652
  113MOL0     C14817   2.487  10.092   7.341  0.3415 -0.1214 -0.4649
  113MOL0     C14818   2.416   9.975   7.375  0.3861  0.0825  0.2515
  113MOL0     O14819   2.333   9.906   7.290 -0.2402  0.0959  0.2319
  113MOL0     C14820   2.267   9.979   7.183  0.4658  0.2031 -0.2615
  113MOL0     C14821   2.368   9.983   7.055  0.9078  0.4442 -0.6704
  113MOL0     C14822   2.308  10.048   6.934  0.0481 -0.2108  0.2202
  113MOL0     C14823   2.381  10.033   6.801 -0.3767  0.2083  0.3386
  113MOL0     C14824   2.451  10.159   6.761 -0.1243  0.6360 -0.4811
  113MOL0     C14825   2.575  10.167   6.849  0.4946 -0.0373 -0.4664
  113MOL0     C14826   2.665  10.290   6.812  0.0957 -0.2520  0.3889
  113MOL0     C14827   2.762  10.352   6.921  0.3858 -0.3043  0.0345
  113MOL0    Cl14828   2.892  10.223   6.939 -0.0574 -0.0591 -0.0838
  113MOL0     C14829   2.436   9.926   7.507 -0.2641 -0.3087  0.4146
  113MOL0     C14830   2.531   9.987   7.595 -0.1271  0.1724 -0.3700
  113MOL0     O14831   2.807   9.949   7.655 -0.1609  0.1145  1.6214
  113MOL0     C14832   3.044  10.078   7.744  0.2839  0.2923  0.5492
  113MOL0     C14833   3.158  10.129   7.798 -0.2850 -0.4876  0.2298
  113MOL0     N14834   3.240  10.750   7.559  0.3857 -0.1774 -0.4055
  113MOL0     N14835   3.183  10.745   7.444 -0.0384  0.0033 -0.6424
  113MOL0     C14836   2.932  10.087   6.617 -0.1348  1.3935  0.3758
  113MOL0     C14837   2.804  10.079   6.552  0.2145  0.2882  0.3496
  113MOL0     C14838   2.457  10.114   6.272  0.2552 -0.6490  0.3508
  113MOL0     C14839   2.430   9.990   6.205  0.5018  0.1546 -0.8842
  113MOL0     C14840   2.325   9.981   6.113 -0.2617  0.5485 -0.7063
  113MOL0     C14841   2.233  10.085   6.087  0.2214 -0.0704 -0.2964
  113MOL0     O14842   2.122  10.086   6.009 -0.2856  0.8795 -0.0101
  113MOL0     C14843   2.112   9.966   5.925  1.0045 -0.8903  0.0656
  113MOL0     C14844   1.981   9.989   5.842  0.3812  0.6027  0.9954
  113MOL0     C14845   1.842   9.992   5.920 -0.3254  0.1734 -0.7009
  113MOL0     C14846   1.825  10.103   6.020 -0.4348 -0.0396 -0.0829
  113MOL0     C14847   1.692  10.106   6.074 -0.7636 -0.1742  0.3185
  113MOL0     C14848   1.584  10.097   6.112 -0.5201 -0.0892 -0.5186
  113MOL0     C14849   2.258  10.206   6.157  0.0111 -0.8579  0.1557
  113MOL0     C14850   2.364  10.220   6.250  0.1964  0.5039 -0.7837
  113MOL0     H14851   2.899  10.108   6.233  0.8820 -0.3402 -0.3242
  113MOL0     H14852   3.136  10.140   6.353 -1.8174  1.4024  0.1870
  113MOL0     H14853   3.165  10.074   6.800 -1.9742 -1.3041 -0.6877
  113MOL0     H14854   3.135  10.233   6.751  0.3088  0.0259 -0.0537
  113MOL0     H14855   3.387  10.221   6.659  1.1242 -1.8534 -0.3062
  113MOL0     H14856   3.407  10.065   6.736  2.2953  0.4402  0.3446
  113MOL0     H14857   3.495  10.216   6.901  1.1937  0.9987 -3.0104
  113MOL0     H14858   3.326  10.200   6.959 -0.2049 -2.4372 -1.4350
  113MOL0     H14859   3.452  10.446   6.807  1.9433 -1.3423  1.6636
  113MOL0     H14860   3.281  10.415   6.812  0.3044  1.7123 -0.8031
  113MOL0     H14861   3.495  10.461   7.024 -0.4550  1.4035  1.3800
  113MOL0     H14862   3.338  10.395   7.082 -3.1916  0.3057 -2.1514
  113MOL0     H14863   3.215  10.586   6.955 -0.2224  0.6302  0.7087
  113MOL0     H14864   3.369  10.645   6.911  0.6337 -2.4640 -0.4740
  113MOL0     H14865   3.432  10.609   7.179 -0.5390  0.6874  1.9505
  113MOL0     H14866   3.351  10.759   7.118  0.5495  0.8499 -0.0912
  113MOL0     H14867   3.204  10.516   7.232 -0.1743  0.3181 -1.1800
  113MOL0     H14868   3.127  10.678   7.212  0.5609  0.6219 -1.0054
  113MOL0     H14869   3.443  10.556   7.389  1.0206  1.8811 -0.2533
  113MOL0     H14870   3.436  10.747   7.729 -2.2000  0.4096  0.3209
  113MOL0     H14871   3.531  10.632   7.644  0.1035  2.0147 -0.8640
  113MOL0     H14872   3.287  10.567   7.805  0.2819  2.7058  1.5056
  113MOL0     H14873   3.458  10.569   7.852 -0.1289 -4.7314  1.7864
  113MOL0     H14874   3.343  10.351   7.652 -0.4949 -0.0475  1.0671
  113MOL0     H14875   3.502  10.388   7.679 -1.6123  0.3977 -2.1118
  113MOL0     H14876   3.459  10.337   7.941 -2.8381 -1.4946  3.4515
  113MOL0     H14877   3.410  10.218   7.832  1.6512  1.0185  1.1023
  113MOL0     H14878   3.013  10.427   7.896 -2.2795 -0.3379 -1.2560
  113MOL0     H14879   2.832  10.331   7.774 -0.2988 -1.2170  0.0371
  113MOL0     H14880   2.640  10.228   7.381 -1.7707  1.1984 -0.7877
  113MOL0     H14881   2.473  10.134   7.242 -1.1051  0.1433 -0.1677
  113MOL0     H14882   2.254  10.083   7.216  2.8083  1.0997 -1.8824
  113MOL0     H14883   2.163   9.947   7.171 -0.8103  2.3276  3.5895
  113MOL0     H14884   2.383   9.877   7.034  2.4182 -0.0669  2.4597
  113MOL0     H14885   2.469  10.011   7.085  0.7315 -1.4245  1.9711
  113MOL0     H14886   2.302  10.154   6.961  0.9234  0.6083 -2.4306
  113MOL0     H14887   2.207  10.011   6.918  1.2840 -2.1393 -5.4951
  113MOL0     H14888   2.457   9.956   6.815 -1.1646 -0.6633 -0.1020
  113MOL0     H14889   2.321   9.988   6.722 -1.5438 -1.9040  2.3082
  113MOL0     H14890   2.389  10.248   6.775 -1.1762  0.0183 -1.0734
  113MOL0     H14891   2.469  10.153   6.653 -4.4065  1.6540 -1.4453
  113MOL0     H14892   2.638  10.079   6.836  1.4207  0.5285  0.0709
  113MOL0     H14893   2.549  10.190   6.953 -1.2927 -2.0627 -0.4064
  113MOL0     H14894   2.723  10.274   6.721  0.0921 -1.6111  0.6062
  113MOL0     H14895   2.593  10.367   6.781  0.1380 -0.3983 -0.0675
  113MOL0     H14896   2.713  10.368   7.018  0.5250 -0.7918  0.1865
  113MOL0     H14897   2.794  10.452   6.892 -1.9602  0.6967  0.6164
  113MOL0     H14898   2.369   9.850   7.545  0.0020 -0.2894  0.9377
  113MOL0     H14899   2.544   9.942   7.693  0.4426 -0.8391 -0.8815
  113MOL0     H14900   3.054   9.971   7.728 -0.1972  0.3167  0.0544
  113MOL0     H14901   3.230  10.048   7.807 -0.5316 -0.7926 -0.5126
  113MOL0     H14902   2.944  10.072   6.723  1.0670  3.8050  0.6579
  113MOL0     H14903   2.716  10.064   6.614 -1.6016 -1.4497 -2.4053
  113MOL0     H14904   2.476   9.896   6.231 -0.3932  0.1599  0.8655
  113MOL0     H14905   2.302   9.889   6.060  2.9839 -1.0976  0.5126
  113MOL0     H14906   2.100   9.876   5.987 -0.5182 -0.2691  0.7411
  113MOL0     H14907   2.191   9.939   5.854 -0.4768  0.3206 -2.1436
  113MOL0     H14908   1.998  10.090   5.803 -2.1762 -0.2687 -2.8507
  113MOL0     H14909   1.975   9.917   5.760  0.3795  0.0384  1.4815
  113MOL0     H14910   1.830   9.887   5.949  5.6655 -0.1322  2.1734
  113MOL0     H14911   1.775  10.014   5.837  1.6819 -1.1496 -2.7978
  113MOL0     H14912   1.898  10.087   6.099 -1.5654 -1.2273  0.7566
  113MOL0     H14913   1.849  10.200   5.975  0.1892 -2.3402 -5.5403
  113MOL0     H14914   1.478  10.098   6.127 -0.5206  2.2069 -0.4094
  113MOL0     H14915   2.193  10.289   6.130  1.4853 -0.0207 -0.9861
  113MOL0     H14916   2.373  10.306   6.315 -0.0063  0.5039 -0.7563
  114MOL0     O14917   7.776   9.083   0.466  0.3599 -0.5382 -0.7362
  114MOL0     C14918   7.706   9.033   0.382  1.4895 -0.2006  0.4452
  114MOL0     O14919   7.740   8.981   0.255 -0.0729  0.8284  0.0295
  114MOL0     C14920   7.874   8.951   0.217  0.0372  0.8156  0.2469
  114MOL0     C14921   7.903   8.857   0.111 -0.2486 -0.3853 -0.1257
  114MOL0     C14922   8.036   8.837   0.070 -0.4310  0.2987 -0.6530
  114MOL0     C14923   8.143   8.900   0.130  0.0775 -0.5055 -0.2682
  114MOL0     O14924   8.270   8.887   0.088  0.7200  0.0511  0.1593
  114MOL0     C14925   8.311   8.939  -0.031 -0.2764 -0.9486  0.2355
  114MOL0     C14926   8.281   9.086  -0.048  0.1778  0.2333 -0.1445
  114MOL0     C14927   8.145   9.110  -0.122  0.6659  0.2278  0.2598
  114MOL0     C14928   8.131   9.257  -0.146 -0.5785 -0.2496 -0.6690
  114MOL0     C14929   7.988   9.298  -0.195 -0.4800  0.5284  0.1041
  114MOL0     C14930   7.959   9.439  -0.245 -0.3532 -0.4153  0.0145
  114MOL0     C14931   8.001   9.458  -0.385  0.0719  0.1139  0.0360
  114MOL0     C14932   7.900   9.405  -0.491  0.5918  0.9659 -0.1270
  114MOL0     N14933   7.973   9.370  -0.613 -0.5738 -0.0720  0.0388
  114MOL0     C14934   7.987   9.454  -0.725 -0.0607  0.4734  0.5707
  114MOL0     C14935   8.073   9.382  -0.813  0.5404  0.6413  0.1955
  114MOL0     C14936   8.092   9.434  -0.956 -0.1460 -0.1028  0.5392
  114MOL0     C14937   8.046   9.341  -1.072 -0.7416  0.1040  0.5731
  114MOL0     C14938   7.986   9.418  -1.187  1.3213  0.5699  1.5257
  114MOL0     C14939   7.940   9.322  -1.294  0.6354 -0.0703 -0.3611
  114MOL0     O14940   8.062   9.271  -1.353  0.9984  0.2798  0.4038
  114MOL0     C14941   8.141   9.337  -1.442  0.9296  0.4435 -0.5714
  114MOL0     C14942   8.080   9.451  -1.511 -0.9578  0.1585 -0.7426
  114MOL0     C14943   8.162   9.534  -1.593  0.4935  0.3471  0.7627
  114MOL0     C14944   8.299   9.508  -1.602  0.1874  0.1362 -0.3601
  114MOL0     C14945   8.385   9.589  -1.686  0.1424 -0.1903 -0.0444
  114MOL0     O14946   8.324   9.705  -1.729 -0.0732  0.1804  0.1269
  114MOL0     C14947   8.380   9.776  -1.834  0.2021  0.9052 -0.0766
  114MOL0     C14948   8.318   9.776  -1.955 -0.0946  0.3503  0.5398
  114MOL0     C14949   8.365   9.855  -2.065 -0.1011 -0.0270 -0.5666
  114MOL0     C14950   8.480   9.941  -2.052 -0.6324  0.6114 -0.1221
  114MOL0     O14951   8.523  10.015  -2.164 -0.4872  0.2622 -0.5824
  114MOL0     C14952   8.648   9.965  -2.210  0.1242 -1.5078  0.0912
  114MOL0     C14953   8.637   9.968  -2.360  1.1342 -0.6017 -0.6126
  114MOL0     C14954   8.780   9.952  -2.416  0.7349  0.1372  0.4312
  114MOL0     C14955   8.877  10.058  -2.376  0.2503 -0.3300 -0.4087
  114MOL0     C14956   8.997  10.050  -2.463 -0.7040  0.4341  0.7777
  114MOL0     C14957   9.096  10.150  -2.410  0.5316 -0.1759  1.2117
  114MOL0     C14958   9.211  10.175  -2.515  0.2969  0.4506 -0.0265
  114MOL0     C14959   9.324  10.197  -2.427 -0.4784  0.8101  1.0456
  114MOL0    Cl14960   9.396  10.031  -2.401 -0.6087  0.3082  0.2302
  114MOL0     C14961   8.542   9.932  -1.923 -0.5170 -0.8445 -0.1464
  114MOL0     C14962   8.497   9.853  -1.810 -0.6240 -0.3616 -0.7607
  114MOL0     O14963   8.487   9.535  -1.728  0.3897 -0.2388 -0.0060
  114MOL0     C14964   8.351   9.391  -1.543 -0.6191  0.3742 -0.8248
  114MOL0     C14965   8.278   9.316  -1.458  0.7706 -0.1621  0.0549
  114MOL0     N14966   8.117   9.272  -0.749 -0.5181 -0.5386  0.3720
  114MOL0     N14967   8.050   9.255  -0.635 -0.2775  0.6084  0.7418
  114MOL0     C14968   8.117   8.973   0.248 -0.8277 -0.1882 -0.4032
  114MOL0     C14969   7.986   9.006   0.271  0.2107 -1.4375  0.3550
  114MOL0     C14970   7.557   9.042   0.390  0.4017 -0.6235  0.6197
  114MOL0     C14971   7.475   8.981   0.290 -0.3294  0.8267  0.6465
  114MOL0     C14972   7.338   9.000   0.287 -1.0063  0.0579  0.7622
  114MOL0     C14973   7.279   9.081   0.385 -1.2343  0.5493  0.2946
  114MOL0     O14974   7.151   9.107   0.366  0.6259 -0.3991 -0.0112
  114MOL0     C14975   7.067   9.043   0.463 -0.3587  0.4615 -0.6405
  114MOL0     C14976   6.915   9.056   0.443 -0.0308 -0.7222  0.4753
  114MOL0     C14977   6.877   8.992   0.302 -0.4042  0.1686 -0.5321
  114MOL0     C14978   6.882   8.835   0.291  0.5232  0.1965 -0.4660
  114MOL0     C14979   6.869   8.785   0.152  0.7395 -0.5537 -0.7761
  114MOL0     C14980   6.858   8.771   0.032  0.1802  0.1469 -0.0477
  114MOL0     C14981   7.353   9.142   0.485 -0.0080  0.0476 -1.0987
  114MOL0     C14982   7.494   9.118   0.488 -0.0205 -1.0662 -0.2455
  114MOL0     H14983   7.805   8.826   0.077 -1.4376  0.2336  2.5165
  114MOL0     H14984   8.053   8.783  -0.023 -2.2365  0.3551 -1.0706
  114MOL0     H14985   8.272   8.879  -0.114  2.0387 -1.7135 -0.3800
  114MOL0     H14986   8.419   8.926  -0.029  0.2582  2.1269 -1.9917
  114MOL0     H14987   8.372   9.135  -0.084  0.9018 -0.9037  0.0601
  114MOL0     H14988   8.269   9.131   0.051  0.1589 -3.6776  1.8186
  114MOL0     H14989   8.065   9.066  -0.062  1.7193 -1.4650  0.4893
  114MOL0     H14990   8.158   9.065  -0.220  0.4241 -0.3117  0.4694
  114MOL0     H14991   8.157   9.309  -0.054 -0.1447  2.2154 -2.1091
  114MOL0     H14992   8.204   9.292  -0.219  2.7977  3.1586  3.8102
  114MOL0     H14993   7.917   9.290  -0.112 -1.4671  2.4573 -0.4856
  114MOL0     H14994   7.964   9.227  -0.274  2.0593  0.9166 -1.0972
  114MOL0     H14995   7.999   9.508  -0.170  0.0463 -1.6396  0.9771
  114MOL0     H14996   7.854   9.464  -0.233  0.2279  1.6450  1.3560
  114MOL0     H14997   8.005   9.565  -0.405 -1.1928  0.1615 -0.0770
  114MOL0     H14998   8.103   9.419  -0.393  1.0109  2.3513  0.5561
  114MOL0     H14999   7.832   9.487  -0.515  1.2969  1.8228  0.6699
  114MOL0     H15000   7.841   9.320  -0.458 -0.2396  2.4469  2.5502
  114MOL0     H15001   7.935   9.546  -0.751 -2.8584 -2.0558 -3.9837
  114MOL0     H15002   8.199   9.453  -0.974 -0.5581  0.2327 -1.9709
  114MOL0     H15003   8.040   9.528  -0.975 -1.0482 -1.3812 -5.3266
  114MOL0     H15004   7.967   9.273  -1.039  0.3022 -1.8509 -0.7471
  114MOL0     H15005   8.128   9.286  -1.119 -2.0335 -0.2703 -1.3495
  114MOL0     H15006   7.902   9.481  -1.155  0.1940  0.7697 -1.4620
  114MOL0     H15007   8.056   9.490  -1.232 -0.7680  2.2613  0.8079
  114MOL0     H15008   7.872   9.368  -1.366 -1.9161 -1.0676  1.2630
  114MOL0     H15009   7.876   9.242  -1.255 -0.1225  0.8182  0.2609
  114MOL0     H15010   7.977   9.485  -1.503 -1.4081 -0.9445 -1.4866
  114MOL0     H15011   8.110   9.608  -1.653 -0.1977 -0.7273 -0.0041
  114MOL0     H15012   8.232   9.713  -1.973  0.4438 -0.9539  2.2935
  114MOL0     H15013   8.326   9.834  -2.164  0.0367 -2.6136 -0.1305
  114MOL0     H15014   8.682   9.861  -2.200 -2.4785 -2.6916 -2.1486
  114MOL0     H15015   8.711  10.039  -2.160 -1.9575  0.6697 -0.3422
  114MOL0     H15016   8.608  10.070  -2.389  1.3864  0.0223  1.1560
  114MOL0     H15017   8.563   9.902  -2.406  0.8693 -0.3029 -0.6196
  114MOL0     H15018   8.781   9.952  -2.525  3.2364  0.5351  0.4001
  114MOL0     H15019   8.812   9.851  -2.389 -2.4999 -2.3890 -3.9055
  114MOL0     H15020   8.824  10.153  -2.387 -1.1764 -0.8567  1.3981
  114MOL0     H15021   8.917  10.037  -2.277 -1.6582 -5.8875 -0.4624
  114MOL0     H15022   8.979  10.075  -2.568  1.9622  0.1500  0.1912
  114MOL0     H15023   9.039   9.950  -2.462 -2.2859 -0.2575  1.4915
  114MOL0     H15024   9.123  10.118  -2.310 -4.0562  3.2635  3.9480
  114MOL0     H15025   9.040  10.242  -2.395 -1.3134 -0.9523 -0.3497
  114MOL0     H15026   9.216  10.095  -2.589  1.0162  2.8519 -2.7468
  114MOL0     H15027   9.183  10.261  -2.576  0.0411  0.3397 -0.0708
  114MOL0     H15028   9.297  10.245  -2.332  2.0302 -1.2721  2.9544
  114MOL0     H15029   9.401  10.260  -2.474 -1.5198  0.8483 -0.6570
  114MOL0     H15030   8.634   9.986  -1.902 -2.1023  1.7723  0.5143
  114MOL0     H15031   8.548   9.864  -1.714  1.1161 -0.2131 -1.6586
  114MOL0     H15032   8.452   9.354  -1.553 -0.9287 -0.4258 -1.0775
  114MOL0     H15033   8.338   9.239  -1.412  3.8199  2.2987  0.5086
  114MOL0     H15034   8.197   9.001   0.316  1.0424 -0.6591 -2.3333
  114MOL0     H15035   7.972   9.079   0.350  1.3149  0.2969 -0.9603
  114MOL0     H15036   7.508   8.940   0.196 -1.1194 -0.7146  1.0113
  114MOL0     H15037   7.271   8.961   0.211 -0.1543 -2.4926  1.2279
  114MOL0     H15038   7.084   9.087   0.562 -1.0175  0.6488 -0.6058
  114MOL0     H15039   7.091   8.938   0.483 -0.7137  0.3014 -1.0533
  114MOL0     H15040   6.864   9.008   0.527 -2.8761  0.2761 -0.5344
  114MOL0     H15041   6.885   9.161   0.448  2.8762  0.4421 -2.4452
  114MOL0     H15042   6.943   9.039   0.229 -1.0806  1.4815 -0.3309
  114MOL0     H15043   6.776   9.026   0.274 -0.5465 -0.9603 -1.4768
  114MOL0     H15044   6.978   8.798   0.328 -1.1921 -3.3185  0.9630
  114MOL0     H15045   6.809   8.781   0.353 -0.8231 -0.1161 -2.2632
  114MOL0     H15046   6.838   8.735  -0.067 -1.0741  1.1841 -0.1840
  114MOL0     H15047   7.319   9.223   0.547  1.4180  1.2702 -1.8590
  114MOL0     H15048   7.559   9.148   0.570  2.5815 -1.8169 -1.9206
  115MOL0     O15049   6.245   6.007   6.690  1.2076 -0.5077 -0.1642
  115MOL0     C15050   6.211   6.043   6.802 -0.2874 -0.0914 -0.9033
  115MOL0     O15051   6.081   6.057   6.844 -0.0926  0.0782  0.6657
  115MOL0     C15052   5.980   6.002   6.772  0.7876  0.5087  0.5228
  115MOL0     C15053   5.978   5.878   6.710 -0.0756  0.5396  0.2567
  115MOL0     C15054   5.891   5.831   6.611  0.1724 -1.2843 -0.9101
  115MOL0     C15055   5.779   5.911   6.565  0.8318  0.7766  0.0001
  115MOL0     O15056   5.693   5.852   6.477  0.2298  1.0030 -0.5782
  115MOL0     C15057   5.608   5.752   6.546 -0.2599 -0.3700 -0.6512
  115MOL0     C15058   5.484   5.727   6.479  0.6440  0.3968  0.4703
  115MOL0     C15059   5.421   5.844   6.398 -0.7713  0.1806 -0.6527
  115MOL0     C15060   5.389   5.965   6.481  0.3123  0.5145 -0.4432
  115MOL0     C15061   5.253   5.947   6.554 -0.0217  0.0972 -0.4817
  115MOL0     C15062   5.237   6.061   6.659 -0.8807 -0.0701 -0.3695
  115MOL0     C15063   5.105   6.049   6.717  0.2524  0.5852  0.8190
  115MOL0     C15064   5.075   6.126   6.843  1.1924  0.1730 -0.5917
  115MOL0     N15065   4.981   6.072   6.931 -0.7451 -0.1866 -1.3367
  115MOL0     C15066   4.852   6.059   6.916 -0.1539  0.4489 -1.0171
  115MOL0     C15067   4.812   5.966   7.024 -0.6675 -0.7280  1.4105
  115MOL0     C15068   4.666   5.950   7.054  0.6404  1.1574 -0.7972
  115MOL0     C15069   4.584   5.907   6.937  0.6107 -0.6636 -0.7177
  115MOL0     C15070   4.442   5.934   6.963  1.3102  0.0714  0.3108
  115MOL0     C15071   4.347   5.871   6.859 -0.0548 -0.1961  0.5235
  115MOL0     O15072   4.218   5.900   6.903  0.0473  0.6182  0.8290
  115MOL0     C15073   4.109   5.860   6.826  0.0051 -0.2713  0.3975
  115MOL0     C15074   4.110   5.828   6.684  0.3413 -0.8953  0.3473
  115MOL0     C15075   3.983   5.803   6.621 -0.0167 -0.0968  0.5591
  115MOL0     C15076   3.863   5.811   6.681 -0.0908  0.0143 -0.1615
  115MOL0     C15077   3.736   5.797   6.604 -0.2954  0.8426  0.8409
  115MOL0     O15078   3.745   5.759   6.473 -0.5405 -0.0193 -0.0362
  115MOL0     C15079   3.657   5.696   6.387 -0.4362  0.5118  0.0944
  115MOL0     C15080   3.527   5.653   6.430  0.6057  0.9655 -0.9336
  115MOL0     C15081   3.440   5.588   6.344  0.3212 -0.2751 -0.1315
  115MOL0     C15082   3.479   5.590   6.206 -0.9814  0.6398 -0.0643
  115MOL0     O15083   3.412   5.532   6.104  0.0889 -0.1877 -0.3846
  115MOL0     C15084   3.273   5.508   6.132  0.1562 -0.0551  0.9291
  115MOL0     C15085   3.191   5.431   6.022 -0.7746 -0.9170 -1.3161
  115MOL0     C15086   3.252   5.298   5.987 -0.7942  0.5432 -0.4290
  115MOL0     C15087   3.163   5.226   5.887 -0.0771  0.2439 -0.1935
  115MOL0     C15088   3.241   5.112   5.822  1.9398 -0.8194  0.1907
  115MOL0     C15089   3.147   4.990   5.808  0.2479  0.8509 -0.2150
  115MOL0     C15090   3.102   4.925   5.941 -0.6321 -0.7316  0.1064
  115MOL0     C15091   3.197   4.863   6.042 -0.4396 -0.6158  0.0686
  115MOL0    Cl15092   3.297   4.738   5.958  0.3498  0.2820  0.2883
  115MOL0     C15093   3.598   5.656   6.165 -0.3718  0.2196 -0.4287
  115MOL0     C15094   3.693   5.709   6.257  0.6898  0.8834  0.4555
  115MOL0     O15095   3.633   5.804   6.664  0.7970  0.0443  0.2915
  115MOL0     C15096   3.862   5.834   6.822 -0.6444 -0.5225  0.2791
  115MOL0     C15097   3.988   5.855   6.895  0.2527  0.5568 -0.2877
  115MOL0     N15098   4.927   5.936   7.087  1.2573 -0.1393 -1.1635
  115MOL0     N15099   5.027   5.999   7.032 -0.6726  0.2101  1.3029
  115MOL0     C15100   5.778   6.040   6.628 -0.4576  0.0252 -0.8559
  115MOL0     C15101   5.877   6.083   6.729 -0.1481 -0.6852  0.0924
  115MOL0     C15102   6.311   6.088   6.905  0.7010 -0.4815  0.3200
  115MOL0     C15103   6.448   6.112   6.871 -0.1772  0.3788  0.0091
  115MOL0     C15104   6.550   6.158   6.958  0.2518  0.1704 -0.2763
  115MOL0     C15105   6.505   6.201   7.086 -0.4433  0.2133 -0.7027
  115MOL0     O15106   6.598   6.257   7.172 -0.0241  1.0075 -1.0644
  115MOL0     C15107   6.554   6.376   7.244 -0.2830  0.0363 -0.3310
  115MOL0     C15108   6.647   6.488   7.232 -0.2529 -0.3504 -0.7158
  115MOL0     C15109   6.702   6.509   7.100  0.3186 -0.5263  0.4517
  115MOL0     C15110   6.591   6.573   7.016  0.9047 -0.7254 -0.0495
  115MOL0     C15111   6.601   6.551   6.872 -1.7883  0.4663 -0.2961
  115MOL0     C15112   6.605   6.541   6.752  0.2161 -0.4034 -0.5766
  115MOL0     C15113   6.368   6.177   7.125 -0.8409  0.8348 -0.9966
  115MOL0     C15114   6.277   6.111   7.040  0.2777 -0.0755  0.6407
  115MOL0     H15115   6.066   5.815   6.721 -2.3982 -3.1148 -0.2717
  115MOL0     H15116   5.927   5.740   6.564  0.1536 -1.3453 -0.8075
  115MOL0     H15117   5.584   5.787   6.647 -1.1064  2.5543 -1.7841
  115MOL0     H15118   5.660   5.656   6.554 -2.0305 -1.3883 -0.8205
  115MOL0     H15119   5.410   5.696   6.554 -1.2986 -1.9522 -2.2168
  115MOL0     H15120   5.490   5.640   6.413 -0.3018 -0.1664  1.0936
  115MOL0     H15121   5.327   5.798   6.365 -0.7958 -0.2639  0.0253
  115MOL0     H15122   5.480   5.878   6.313  0.4198  2.8107  1.0769
  115MOL0     H15123   5.468   5.975   6.557 -1.8415 -1.8154  2.3294
  115MOL0     H15124   5.370   6.053   6.419 -4.3005  0.2392  0.2144
  115MOL0     H15125   5.250   5.854   6.611  3.2064 -0.7308 -1.4641
  115MOL0     H15126   5.172   5.931   6.483 -0.6476  0.7296  0.0740
  115MOL0     H15127   5.240   6.161   6.614  1.0414  0.1562  0.1568
  115MOL0     H15128   5.313   6.054   6.738  0.0296 -0.5195 -1.2619
  115MOL0     H15129   5.043   6.086   6.635  1.0006  1.2942  0.5541
  115MOL0     H15130   5.087   5.942   6.728  1.6095  0.0219 -1.6382
  115MOL0     H15131   5.053   6.232   6.826  1.6939  0.2771 -0.5897
  115MOL0     H15132   5.162   6.121   6.908 -1.7959  1.6831  4.0121
  115MOL0     H15133   4.801   6.110   6.835 -0.6733  2.0942  0.3081
  115MOL0     H15134   4.623   6.043   7.092 -1.9674 -0.6481  1.0383
  115MOL0     H15135   4.645   5.867   7.123  0.0837  0.5146 -1.7108
  115MOL0     H15136   4.603   5.801   6.920 -1.9628 -1.4886  0.9035
  115MOL0     H15137   4.611   5.958   6.844 -3.6250 -1.6442 -2.7695
  115MOL0     H15138   4.411   5.898   7.061 -0.5200  1.1591  0.1796
  115MOL0     H15139   4.432   6.042   6.977  0.2951 -0.2987  3.2760
  115MOL0     H15140   4.375   5.765   6.861 -1.7533 -0.6660  2.3835
  115MOL0     H15141   4.371   5.909   6.759 -0.5771 -1.0712  0.0483
  115MOL0     H15142   4.200   5.811   6.627 -0.2987 -1.8540 -0.3907
  115MOL0     H15143   3.984   5.788   6.513 -0.0405  3.6239 -0.1001
  115MOL0     H15144   3.510   5.662   6.537  4.4652 -1.1516  0.0678
  115MOL0     H15145   3.345   5.558   6.386  0.7277  0.6268  1.5076
  115MOL0     H15146   3.224   5.600   6.164 -0.4439  0.0199 -0.1769
  115MOL0     H15147   3.249   5.447   6.220 -2.5927 -0.3764  0.0360
  115MOL0     H15148   3.187   5.493   5.932  1.2826  1.2165 -0.0458
  115MOL0     H15149   3.088   5.425   6.060 -1.1609 -0.8683 -2.3224
  115MOL0     H15150   3.274   5.241   6.078  3.1248  1.3639 -0.6985
  115MOL0     H15151   3.349   5.303   5.938 -0.4218 -1.9231 -0.0565
  115MOL0     H15152   3.073   5.193   5.940  1.9405 -1.6694  2.2453
  115MOL0     H15153   3.139   5.291   5.802 -2.7857  0.7902  0.8795
  115MOL0     H15154   3.326   5.097   5.890  0.9736  0.8813  1.8651
  115MOL0     H15155   3.281   5.144   5.725 -1.0472 -1.9932 -1.5841
  115MOL0     H15156   3.197   4.919   5.741 -3.1013  0.0378 -2.1221
  115MOL0     H15157   3.068   5.024   5.740 -0.9667  1.0344  1.2192
  115MOL0     H15158   3.030   4.996   5.983 -1.3662 -0.8942 -0.8433
  115MOL0     H15159   3.042   4.839   5.911 -3.7567  1.9167 -2.0409
  115MOL0     H15160   3.140   4.818   6.123  2.3295 -0.6301  2.1739
  115MOL0     H15161   3.262   4.944   6.076 -2.7420  0.8176  1.2610
  115MOL0     H15162   3.621   5.648   6.060  0.8628 -1.3281 -0.0667
  115MOL0     H15163   3.793   5.746   6.235  2.7253 -3.8461  0.3805
  115MOL0     H15164   3.772   5.822   6.882  0.3605  1.0485  2.2300
  115MOL0     H15165   3.988   5.877   7.001  1.5505  2.1568 -0.5825
  115MOL0     H15166   5.693   6.102   6.600 -1.0098  0.3544  1.3627
  115MOL0     H15167   5.869   6.186   6.762 -1.0327 -0.6718 -0.1441
  115MOL0     H15168   6.475   6.080   6.771 -0.0914 -1.2191  0.5167
  115MOL0     H15169   6.655   6.158   6.929 -0.0607  0.8349 -1.4922
  115MOL0     H15170   6.546   6.358   7.351  0.7931  0.0882 -0.2311
  115MOL0     H15171   6.459   6.421   7.212 -1.3151  0.5335  3.0423
  115MOL0     H15172   6.604   6.582   7.267  1.2058 -0.4323  1.5211
  115MOL0     H15173   6.729   6.473   7.303 -1.0737  6.1631  2.3029
  115MOL0     H15174   6.737   6.412   7.063 -0.6781 -0.8513  0.3235
  115MOL0     H15175   6.779   6.586   7.098 -2.9012  3.1819 -4.4880
  115MOL0     H15176   6.489   6.541   7.038  0.0545  0.3568 -2.1183
  115MOL0     H15177   6.582   6.679   7.041 -1.3967 -1.4232  2.5102
  115MOL0     H15178   6.623   6.536   6.647  2.6158  0.2902 -0.2622
  115MOL0     H15179   6.343   6.216   7.223  1.7934 -0.5613  0.3628
  115MOL0     H15180   6.176   6.088   7.073 -2.1749  3.0365 -3.5700
  116MOL0     O15181   4.065   6.966  10.653  0.3568 -0.5204 -0.0363
  116MOL0     C15182   3.946   6.962  10.626  0.6603  0.1937  0.1852
  116MOL0     O15183   3.853   7.056  10.659  0.3914 -0.2457  0.0610
  116MOL0     C15184   3.901   7.175  10.716 -0.6469  0.4822 -0.6047
  116MOL0     C15185   3.861   7.301  10.667 -0.0728 -0.0559 -0.3606
  116MOL0     C15186   3.911   7.424  10.728  1.0486  0.2281 -0.1325
  116MOL0     C15187   3.995   7.419  10.834 -0.5067 -0.5442 -0.8947
  116MOL0     O15188   4.036   7.533  10.897  0.1679 -0.3921 -0.4290
  116MOL0     C15189   4.146   7.529  10.997 -0.2401  0.0498  0.3109
  116MOL0     C15190   4.177   7.669  11.040 -0.4440 -0.6095  0.2100
  116MOL0     C15191   4.183   7.776  10.930  0.5815  0.3926 -1.4075
  116MOL0     C15192   4.265   7.728  10.817 -0.4960  0.0855 -0.1571
  116MOL0     C15193   4.267   7.838  10.717 -0.7498 -0.2920 -0.7037
  116MOL0     C15194   4.331   7.779  10.597 -0.3138  0.3156 -0.2183
  116MOL0     C15195   4.337   7.867  10.466  0.8848 -0.8443  0.2450
  116MOL0     C15196   4.457   7.960  10.439  0.5351  0.4101 -0.1888
  116MOL0     N15197   4.499   8.032  10.565 -1.4511 -0.1727  0.0425
  116MOL0     C15198   4.584   7.967  10.656  0.0989 -0.5794 -0.3575
  116MOL0     C15199   4.611   8.049  10.757  0.3093  0.7569 -0.2936
  116MOL0     C15200   4.698   8.027  10.886 -0.2227  0.3670  0.5022
  116MOL0     C15201   4.686   8.147  10.993 -0.3262 -0.3344  0.8392
  116MOL0     C15202   4.747   8.104  11.128 -0.3745 -0.4083  0.2217
  116MOL0     C15203   4.897   8.105  11.122 -0.5053 -0.4016 -0.6875
  116MOL0     O15204   4.962   8.003  11.049  0.3137 -0.0546  0.3049
  116MOL0     C15205   4.980   7.871  11.101 -0.3431 -0.4094 -0.1823
  116MOL0     C15206   5.061   7.780  11.034  0.2027  0.5405  0.1656
  116MOL0     C15207   5.068   7.648  11.083 -0.6516  0.1955 -0.7360
  116MOL0     C15208   5.013   7.612  11.211  0.1203 -0.3151  0.2667
  116MOL0     C15209   5.023   7.473  11.263  0.1389 -0.3496  0.1464
  116MOL0     O15210   5.122   7.382  11.230  0.3460  0.3872 -0.3888
  116MOL0     C15211   5.135   7.266  11.296  0.2131 -0.2216  0.5940
  116MOL0     C15212   5.119   7.144  11.227 -1.0109  0.2621 -0.1148
  116MOL0     C15213   5.122   7.027  11.295 -0.6789  0.4317  0.2931
  116MOL0     C15214   5.154   7.024  11.427 -1.0811 -0.4775  0.1987
  116MOL0     O15215   5.165   6.906  11.496  0.7681  0.0381 -0.5705
  116MOL0     C15216   5.055   6.816  11.493  0.1946 -0.4817 -0.4247
  116MOL0     C15217   5.097   6.701  11.580  0.1005 -0.2031 -1.3292
  116MOL0     C15218   5.058   6.722  11.727  0.8020 -0.0218 -0.4169
  116MOL0     C15219   5.098   6.840  11.802  0.5928 -1.1505  0.1413
  116MOL0     C15220   5.242   6.839  11.859 -0.1278 -0.3705  0.2544
  116MOL0     C15221   5.313   6.970  11.843  0.3077  0.3572 -0.0963
  116MOL0     C15222   5.457   6.980  11.879 -0.8069  0.4021  0.3225
  116MOL0     C15223   5.533   7.097  11.826  0.0872  0.3514  0.0947
  116MOL0    Cl15224   5.487   7.247  11.932  0.5256 -0.1776  0.3527
  116MOL0     C15225   5.203   7.141  11.492  0.1791 -0.9364 -0.2780
  116MOL0     C15226   5.179   7.266  11.432 -0.2881  0.2202  0.6649
  116MOL0     O15227   4.933   7.449  11.340 -0.5373  0.3791 -0.0767
  116MOL0     C15228   4.935   7.706  11.269  0.5502  0.6820  0.5332
  116MOL0     C15229   4.916   7.829  11.217  0.0752  1.2297 -0.0176
  116MOL0     N15230   4.530   8.164  10.731 -0.7249 -1.2623 -0.7567
  116MOL0     N15231   4.469   8.151  10.614 -0.7068 -0.9940 -0.3210
  116MOL0     C15232   4.035   7.291  10.885  0.8923 -0.2691  0.1993
  116MOL0     C15233   3.982   7.177  10.833 -0.1531  0.3758  0.1215
  116MOL0     C15234   3.905   6.831  10.583 -0.9283  0.6887 -0.0472
  116MOL0     C15235   3.988   6.754  10.498 -0.5419  0.3025  0.2227
  116MOL0     C15236   3.946   6.625  10.462  0.3985 -0.9736 -0.2204
  116MOL0     C15237   3.812   6.580  10.488 -0.9156  0.5008  0.1979
  116MOL0     O15238   3.782   6.452  10.447 -0.4989  0.0456 -0.1220
  116MOL0     C15239   3.654   6.399  10.487 -0.5766  0.0979  0.5091
  116MOL0     C15240   3.645   6.251  10.468 -0.5601  0.3984  0.3750
  116MOL0     C15241   3.641   6.207  10.322 -0.0588  0.0070  0.0967
  116MOL0     C15242   3.601   6.054  10.302 -0.7165 -0.2995 -0.8198
  116MOL0     C15243   3.711   5.960  10.339  0.5422  0.2600  0.1724
  116MOL0     C15244   3.788   5.870  10.377  0.4737  1.3978  0.5652
  116MOL0     C15245   3.732   6.664  10.562 -0.6136 -0.3751 -1.2058
  116MOL0     C15246   3.780   6.781  10.615 -0.7430  1.0653 -0.1098
  116MOL0     H15247   3.787   7.296  10.589  0.1289 -1.4675 -0.4879
  116MOL0     H15248   3.867   7.515  10.688  0.5132 -0.3616 -0.9275
  116MOL0     H15249   4.233   7.485  10.948 -0.9453 -3.4368  1.8423
  116MOL0     H15250   4.100   7.472  11.079 -1.6409 -0.4416 -0.7743
  116MOL0     H15251   4.276   7.678  11.086  0.5061  3.7813 -2.0788
  116MOL0     H15252   4.114   7.705  11.121  1.8359  0.4172  1.6313
  116MOL0     H15253   4.241   7.857  10.974  4.0060 -1.0107 -2.9381
  116MOL0     H15254   4.080   7.804  10.904 -1.1683 -1.8124  2.3241
  116MOL0     H15255   4.361   7.705  10.864 -0.2276  1.0062 -0.2382
  116MOL0     H15256   4.218   7.638  10.774  0.3643 -1.1607  1.3844
  116MOL0     H15257   4.316   7.926  10.760  1.5228 -2.3982  1.3571
  116MOL0     H15258   4.163   7.868  10.707 -1.1815 -0.6681  1.7997
  116MOL0     H15259   4.263   7.699  10.567 -0.2706 -0.0954  0.7345
  116MOL0     H15260   4.427   7.735  10.625  1.5567  3.4924 -1.0688
  116MOL0     H15261   4.329   7.809  10.373  0.7385 -2.6856  1.3755
  116MOL0     H15262   4.245   7.926  10.463 -0.8098 -3.3209  0.7234
  116MOL0     H15263   4.443   8.038  10.364  2.4189 -0.4048 -1.4462
  116MOL0     H15264   4.536   7.893  10.404  1.4780  2.3687 -2.0595
  116MOL0     H15265   4.624   7.868  10.639  1.0404 -0.0896 -1.1042
  116MOL0     H15266   4.802   8.012  10.857 -0.0172  1.3648  0.7028
  116MOL0     H15267   4.660   7.939  10.938  0.8763 -0.3397  0.1412
  116MOL0     H15268   4.579   8.169  11.003 -0.3875 -0.9905  1.7232
  116MOL0     H15269   4.727   8.244  10.964  0.2624  0.7501  4.7401
  116MOL0     H15270   4.725   8.184  11.199 -0.2303 -0.1946  0.0256
  116MOL0     H15271   4.709   8.006  11.158 -1.3446 -0.1807 -0.2322
  116MOL0     H15272   4.939   8.110  11.223 -1.3441  0.9329 -0.3784
  116MOL0     H15273   4.931   8.201  11.081  1.5621 -0.3323  1.0190
  116MOL0     H15274   5.119   7.808  10.947 -0.0767 -1.6414 -0.7970
  116MOL0     H15275   5.121   7.576  11.021 -0.7640  0.9796 -1.7740
  116MOL0     H15276   5.095   7.137  11.121  0.7732 -0.6431 -0.5012
  116MOL0     H15277   5.116   6.930  11.245  1.7361 -0.1210  0.9058
  116MOL0     H15278   5.032   6.777  11.394  0.2547 -5.5856  1.2730
  116MOL0     H15279   4.969   6.869  11.536  0.1816  0.3805 -1.4727
  116MOL0     H15280   5.202   6.669  11.576  0.2062 -0.8234  2.5058
  116MOL0     H15281   5.046   6.612  11.541 -2.6469  1.1914 -1.1008
  116MOL0     H15282   5.083   6.635  11.788 -0.0106  0.0604  0.0506
  116MOL0     H15283   4.949   6.718  11.722  0.8050  0.9717 -3.3821
  116MOL0     H15284   5.085   6.934  11.746  3.6531 -1.2769 -1.0175
  116MOL0     H15285   5.037   6.838  11.893 -1.7725 -3.5958 -1.3638
  116MOL0     H15286   5.303   6.759  11.817  1.1362  0.7500 -0.1431
  116MOL0     H15287   5.229   6.831  11.967 -0.1062  1.4419  0.4344
  116MOL0     H15288   5.263   7.033  11.916  1.4463 -0.6897  1.6553
  116MOL0     H15289   5.300   6.999  11.738 -0.6273 -0.6131 -0.2615
  116MOL0     H15290   5.457   6.969  11.988  1.8127 -3.3626  0.1595
  116MOL0     H15291   5.516   6.896  11.840 -3.3432 -0.6754 -1.4483
  116MOL0     H15292   5.522   7.104  11.717 -1.9906  0.3558  0.2580
  116MOL0     H15293   5.642   7.092  11.834  0.0912  2.6420  4.6445
  116MOL0     H15294   5.242   7.137  11.594 -1.0261  0.2938  0.2609
  116MOL0     H15295   5.195   7.355  11.491 -0.2022  0.5141  0.2017
  116MOL0     H15296   4.872   7.694  11.357 -1.5743  0.5237 -0.9277
  116MOL0     H15297   4.862   7.906  11.271 -2.3631 -0.4358  0.1175
  116MOL0     H15298   4.099   7.285  10.973  0.1896 -0.5228  0.6999
  116MOL0     H15299   4.005   7.077  10.868 -1.2080 -0.0932 -0.4734
  116MOL0     H15300   4.089   6.791  10.480 -1.8148  4.4927  0.8601
  116MOL0     H15301   4.009   6.558  10.404  2.4733  0.5129  0.1738
  116MOL0     H15302   3.572   6.457  10.444 -2.0332 -1.6054  0.8617
  116MOL0     H15303   3.642   6.410  10.596  1.6573 -0.5389  0.8713
  116MOL0     H15304   3.734   6.206  10.513 -1.3798 -1.7030 -0.0160
  116MOL0     H15305   3.548   6.217  10.504 -2.6635  2.5979 -2.6538
  116MOL0     H15306   3.744   6.224  10.291  1.3466 -0.7513  3.7825
  116MOL0     H15307   3.591   6.275  10.252  3.5553 -0.2562 -3.0974
  116MOL0     H15308   3.513   6.015  10.355  0.2889 -1.0816  0.3339
  116MOL0     H15309   3.591   6.051  10.193 -0.2664 -1.5900 -0.8429
  116MOL0     H15310   3.866   5.797  10.388  0.7625  1.2456 -1.9113
  116MOL0     H15311   3.633   6.627  10.586 -0.6254  0.0500 -0.5891
  116MOL0     H15312   3.710   6.841  10.673  0.0122  0.0351  1.9594
  117MOL0     O15313   7.680   4.346   7.028  0.2807 -0.3379  0.3586
  117MOL0     C15314   7.657   4.440   7.101 -0.1131  1.1368  0.6406
  117MOL0     O15315   7.750   4.503   7.181  0.3828  0.0375 -0.3017
  117MOL0     C15316   7.883   4.465   7.204 -0.1436 -0.3344 -0.2312
  117MOL0     C15317   7.944   4.334   7.175  0.2335  0.1514 -0.4637
  117MOL0     C15318   8.076   4.307   7.198  0.1209 -0.9706  0.9090
  117MOL0     C15319   8.149   4.397   7.270  0.0351  0.2130 -0.4644
  117MOL0     O15320   8.287   4.396   7.289  0.1870 -0.0751  0.1510
  117MOL0     C15321   8.367   4.293   7.230  0.2677 -0.1413  1.3042
  117MOL0     C15322   8.351   4.146   7.281  0.3455 -0.0339  0.2437
  117MOL0     C15323   8.440   4.052   7.192 -0.3654 -0.0770 -0.2846
  117MOL0     C15324   8.342   3.961   7.110 -0.0574 -0.7347 -0.5006
  117MOL0     C15325   8.393   3.908   6.974 -0.6597 -0.4350  0.3632
  117MOL0     C15326   8.317   3.790   6.919 -0.5809  0.0579  0.0130
  117MOL0     C15327   8.170   3.836   6.881 -0.0377 -0.2272  0.5321
  117MOL0     C15328   8.152   3.929   6.762  0.3853 -0.9881 -0.2152
  117MOL0     N15329   8.251   3.906   6.646  0.7390 -0.6314 -0.5330
  117MOL0     C15330   8.392   3.912   6.637 -1.3674  0.0223 -1.2729
  117MOL0     C15331   8.420   3.878   6.508  0.0172  0.7017 -0.3728
  117MOL0     C15332   8.562   3.874   6.445 -0.7973 -0.3697 -0.6321
  117MOL0     C15333   8.585   3.761   6.344 -0.0957  0.3481  0.2390
  117MOL0     C15334   8.592   3.632   6.428  0.3129 -0.0156 -0.4749
  117MOL0     C15335   8.642   3.515   6.341  0.7475  0.0090 -0.4037
  117MOL0     O15336   8.640   3.389   6.410  0.8072  0.3363  0.5884
  117MOL0     C15337   8.631   3.275   6.338 -0.1455  0.5713  0.2889
  117MOL0     C15338   8.585   3.166   6.409 -0.5507  0.0914  0.0457
  117MOL0     C15339   8.576   3.039   6.347 -0.1867 -0.0664 -1.3526
  117MOL0     C15340   8.623   3.022   6.219  0.1312 -0.0376  0.7120
  117MOL0     C15341   8.630   2.883   6.161  1.3789 -0.7704  0.8109
  117MOL0     O15342   8.680   2.871   6.038  0.8905 -0.3711  0.5271
  117MOL0     C15343   8.692   2.745   5.992  0.1365  0.6853 -0.3147
  117MOL0     C15344   8.663   2.719   5.859  1.1474  0.1600 -0.2071
  117MOL0     C15345   8.702   2.604   5.782 -0.4415  0.2855 -1.1883
  117MOL0     C15346   8.784   2.508   5.850 -0.6434 -0.4692  0.4579
  117MOL0     O15347   8.828   2.385   5.801 -0.0796 -0.2410 -0.2334
  117MOL0     C15348   8.727   2.315   5.723  0.4109  0.2133 -0.0178
  117MOL0     C15349   8.639   2.243   5.814  0.4505 -0.2860 -0.1760
  117MOL0     C15350   8.551   2.142   5.747 -0.1902 -0.3274 -0.2543
  117MOL0     C15351   8.638   2.028   5.688 -0.6226  0.2985  0.3132
  117MOL0     C15352   8.570   1.901   5.664 -0.0474  0.3318  0.3121
  117MOL0     C15353   8.441   1.914   5.580 -0.3791 -0.7344 -0.0762
  117MOL0     C15354   8.363   1.788   5.528 -1.7344  0.7583 -0.2550
  117MOL0     C15355   8.214   1.820   5.493 -0.3447 -0.3563  0.4909
  117MOL0    Cl15356   8.096   1.795   5.630 -0.2267 -0.0261 -0.0650
  117MOL0     C15357   8.832   2.546   5.977  1.1482 -0.7331  0.2255
  117MOL0     C15358   8.783   2.655   6.053  0.7229 -0.6247  0.2260
  117MOL0     O15359   8.573   2.799   6.221  0.3337  0.9433 -0.8904
  117MOL0     C15360   8.654   3.134   6.138 -0.0164  0.0267 -0.2937
  117MOL0     C15361   8.667   3.251   6.200  0.6604 -0.8092  0.2400
  117MOL0     N15362   8.300   3.824   6.464 -0.0694 -0.7389 -0.1419
  117MOL0     N15363   8.204   3.855   6.537 -0.6761  0.5147 -0.0648
  117MOL0     C15364   8.085   4.510   7.321  0.1942 -0.0712  0.6143
  117MOL0     C15365   7.958   4.544   7.286  0.0506 -0.4109 -0.2177
  117MOL0     C15366   7.532   4.507   7.091  0.3416  0.0016 -0.4764
  117MOL0     C15367   7.503   4.637   7.150  0.6510  1.1531 -0.5542
  117MOL0     C15368   7.377   4.695   7.142 -0.6025 -0.2209  0.2626
  117MOL0     C15369   7.271   4.634   7.060 -0.8263 -0.1228 -0.1081
  117MOL0     O15370   7.144   4.697   7.038 -0.8461  0.5694 -0.0205
  117MOL0     C15371   7.145   4.838   7.062  0.5745  0.0832 -0.3555
  117MOL0     C15372   7.011   4.902   7.023  0.0397 -0.0417  0.5589
  117MOL0     C15373   7.017   5.040   7.086  0.6068 -1.1613 -0.0122
  117MOL0     C15374   7.120   5.149   7.033 -0.4269  0.6969  0.1382
  117MOL0     C15375   7.109   5.278   7.110 -0.2397  0.6135  1.1038
  117MOL0     C15376   7.107   5.376   7.190  0.5143 -0.6252 -0.4008
  117MOL0     C15377   7.298   4.512   6.994  0.8711  0.1935  0.5152
  117MOL0     C15378   7.420   4.453   7.020 -0.7668 -0.4878  0.3492
  117MOL0     H15379   7.879   4.262   7.126 -1.7411  0.1097  2.0367
  117MOL0     H15380   8.119   4.216   7.157  0.1706 -0.9849  0.9924
  117MOL0     H15381   8.470   4.327   7.245 -0.5543  3.6922 -0.4555
  117MOL0     H15382   8.354   4.302   7.121  1.8221 -2.9347  0.8068
  117MOL0     H15383   8.247   4.113   7.282  0.7805 -1.4394  0.8231
  117MOL0     H15384   8.383   4.147   7.385 -0.8138 -1.5345  0.6361
  117MOL0     H15385   8.489   3.979   7.257 -0.9881 -1.9421 -1.7881
  117MOL0     H15386   8.517   4.097   7.129 -0.0440 -2.0534 -1.4109
  117MOL0     H15387   8.310   3.881   7.176 -0.6827 -0.3895 -0.3802
  117MOL0     H15388   8.258   4.026   7.086 -1.0248 -1.6474  0.3665
  117MOL0     H15389   8.498   3.876   6.977 -1.2764 -2.7628 -0.4153
  117MOL0     H15390   8.407   3.976   6.890 -0.6409 -0.5823  0.2450
  117MOL0     H15391   8.310   3.714   6.996 -2.2194  0.1387 -0.0303
  117MOL0     H15392   8.359   3.738   6.832 -3.1274 -0.8474 -0.7562
  117MOL0     H15393   8.122   3.745   6.843  0.2928  1.0582 -3.3678
  117MOL0     H15394   8.119   3.869   6.972  0.7116  1.4981  0.3505
  117MOL0     H15395   8.174   4.030   6.798 -2.7823 -0.3121  0.0863
  117MOL0     H15396   8.051   3.919   6.722  1.0558 -5.5851 -1.3037
  117MOL0     H15397   8.476   3.946   6.697  2.8327 -3.3858 -4.5303
  117MOL0     H15398   8.640   3.863   6.520 -1.0177 -1.9950 -0.6167
  117MOL0     H15399   8.579   3.966   6.387  1.7668  1.4578  2.6390
  117MOL0     H15400   8.678   3.791   6.296  0.5878  3.3932  3.1238
  117MOL0     H15401   8.504   3.757   6.270  1.2390 -1.2527 -1.2162
  117MOL0     H15402   8.643   3.647   6.523 -2.0233 -0.6420  0.9557
  117MOL0     H15403   8.491   3.604   6.459  1.8964 -2.0178  3.6240
  117MOL0     H15404   8.748   3.538   6.328  0.6217 -0.6575 -3.3079
  117MOL0     H15405   8.597   3.522   6.242  2.2598  1.9924 -1.0228
  117MOL0     H15406   8.557   3.169   6.514 -3.1964  1.0607 -0.6062
  117MOL0     H15407   8.540   2.954   6.404  1.9249 -0.8708 -1.1407
  117MOL0     H15408   8.604   2.794   5.807 -1.7109 -1.7789  0.0179
  117MOL0     H15409   8.672   2.590   5.679 -0.6859  0.5735 -1.1579
  117MOL0     H15410   8.783   2.241   5.664 -2.2470 -2.5740  0.6679
  117MOL0     H15411   8.669   2.379   5.658  0.5437  0.0511 -0.2982
  117MOL0     H15412   8.571   2.311   5.867  0.8676 -1.0446  1.4040
  117MOL0     H15413   8.702   2.197   5.891  0.4776  2.7086  1.7504
  117MOL0     H15414   8.499   2.191   5.664  0.5576 -1.4544 -1.4138
  117MOL0     H15415   8.486   2.099   5.823  0.0605 -2.3675 -1.1478
  117MOL0     H15416   8.682   2.064   5.595 -0.0062  0.1288  0.5323
  117MOL0     H15417   8.712   2.002   5.765 -0.0109  2.3830  0.4817
  117MOL0     H15418   8.562   1.850   5.761  1.6399 -1.0464 -0.2019
  117MOL0     H15419   8.644   1.838   5.613 -0.0275 -0.0392  0.7859
  117MOL0     H15420   8.465   1.974   5.492 -1.6246  3.1595  2.0221
  117MOL0     H15421   8.372   1.976   5.637  0.1255 -0.7174  0.5336
  117MOL0     H15422   8.409   1.751   5.436  0.2695 -3.8401  2.2741
  117MOL0     H15423   8.375   1.703   5.595 -1.5987  0.7747 -0.2579
  117MOL0     H15424   8.187   1.766   5.402  0.9007  4.0067 -2.7811
  117MOL0     H15425   8.206   1.927   5.469  0.1550 -0.5131 -0.4228
  117MOL0     H15426   8.905   2.480   6.022  0.4269 -0.6700  1.5349
  117MOL0     H15427   8.819   2.659   6.155  0.2250 -5.2949  0.8335
  117MOL0     H15428   8.673   3.119   6.032 -2.6207  0.6562 -0.9206
  117MOL0     H15429   8.686   3.341   6.141 -1.8891 -0.0399  0.4525
  117MOL0     H15430   8.134   4.587   7.379  1.7080  0.7676 -1.6068
  117MOL0     H15431   7.920   4.640   7.318 -0.0826 -0.3265 -0.6208
  117MOL0     H15432   7.571   4.697   7.210  0.5349 -1.0903  2.0244
  117MOL0     H15433   7.361   4.792   7.189 -1.2600 -1.4010  2.6215
  117MOL0     H15434   7.228   4.885   7.009  1.0813 -0.5497 -0.1291
  117MOL0     H15435   7.166   4.857   7.168  0.2669 -0.7444 -0.1398
  117MOL0     H15436   7.009   4.903   6.913 -0.4365 -2.0646  0.5065
  117MOL0     H15437   6.929   4.839   7.058 -0.3852 -0.1270 -0.5238
  117MOL0     H15438   7.031   5.034   7.194  0.4341  0.4763  0.1392
  117MOL0     H15439   6.918   5.086   7.076 -0.0112 -2.5364 -0.4170
  117MOL0     H15440   7.219   5.102   7.036 -1.7972 -2.4189  0.7497
  117MOL0     H15441   7.099   5.161   6.926 -0.4739 -0.5621 -0.0035
  117MOL0     H15442   7.094   5.461   7.253  0.4703 -2.6618  2.5052
  117MOL0     H15443   7.227   4.463   6.929  0.6045  3.0978 -1.5568
  117MOL0     H15444   7.435   4.356   6.973 -0.0743 -0.4997  0.5854
  118MOL0     O15445  10.883   9.523   2.841 -0.2487  0.0420 -0.1663
  118MOL0     C15446  10.927   9.578   2.742  0.5695 -0.4318 -0.7630
  118MOL0     O15447  10.913   9.540   2.619 -0.2675  0.2662  0.5070
  118MOL0     C15448  10.797   9.481   2.586  0.1745  0.2525 -0.2096
  118MOL0     C15449  10.680   9.564   2.594 -0.2137 -0.4090  0.5285
  118MOL0     C15450  10.554   9.515   2.560  0.8704 -0.0342 -0.1328
  118MOL0     C15451  10.542   9.379   2.525 -0.4762 -0.3826 -0.2065
  118MOL0     O15452  10.425   9.314   2.511 -0.4140  0.0355 -1.4124
  118MOL0     C15453  10.310   9.374   2.580  0.5592  0.8361  1.6616
  118MOL0     C15454  10.231   9.458   2.486  0.3256 -0.8720  0.4034
  118MOL0     C15455  10.171   9.387   2.370 -0.3534  0.0536 -0.0688
  118MOL0     C15456  10.060   9.297   2.408 -0.0789  0.6010 -0.4853
  118MOL0     C15457   9.989   9.233   2.282  0.2249 -0.2639 -0.4645
  118MOL0     C15458  10.074   9.142   2.201  0.5633 -0.0834  0.0285
  118MOL0     C15459  10.013   9.124   2.064  0.1860  0.1845  0.6235
  118MOL0     C15460  10.094   9.024   1.978  0.6561 -1.1501 -1.1647
  118MOL0     N15461  10.015   8.981   1.857  0.3273 -0.5104  0.3250
  118MOL0     C15462  10.036   9.028   1.732  0.2407  0.0378  0.6211
  118MOL0     C15463   9.987   8.936   1.642 -0.4695 -0.1502  0.0916
  118MOL0     C15464   9.999   8.938   1.496  0.8858  0.3592 -0.3441
  118MOL0     C15465   9.892   8.840   1.424 -0.5974 -0.7101 -0.0641
  118MOL0     C15466   9.964   8.705   1.403  0.8369  0.0653  0.3137
  118MOL0     C15467   9.877   8.616   1.314  1.2180  0.3144  0.8078
  118MOL0     O15468   9.931   8.483   1.284 -0.1682 -0.3720  0.3339
  118MOL0     C15469   9.854   8.422   1.190 -0.4243  0.2364 -0.1351
  118MOL0     C15470   9.893   8.429   1.050  0.5094 -0.6517  0.2222
  118MOL0     C15471   9.837   8.344   0.959 -0.4686  0.7264 -0.5861
  118MOL0     C15472   9.735   8.257   0.989  0.7615  0.6522  0.0030
  118MOL0     C15473   9.677   8.170   0.882 -0.2411  0.0745 -0.1881
  118MOL0     O15474   9.727   8.166   0.748 -0.5075  0.9724 -0.4482
  118MOL0     C15475   9.662   8.115   0.630 -0.4379 -0.4037 -0.1608
  118MOL0     C15476   9.527   8.089   0.616  1.0435  0.3842  0.4860
  118MOL0     C15477   9.472   8.047   0.493 -0.7180  0.4395 -0.0387
  118MOL0     C15478   9.550   8.016   0.375  0.5598  0.8332 -0.2754
  118MOL0     O15479   9.503   7.976   0.250  0.0801 -0.0055 -0.2106
  118MOL0     C15480   9.362   7.941   0.234  1.3798 -0.2036 -0.2184
  118MOL0     C15481   9.354   7.883   0.093  0.4097  0.3596  0.0195
  118MOL0     C15482   9.307   7.970  -0.031 -0.1254  1.1019 -0.6967
  118MOL0     C15483   9.409   8.073  -0.067 -0.3818  0.0130 -0.4227
  118MOL0     C15484   9.368   8.170  -0.182 -1.1741 -0.2804 -0.7642
  118MOL0     C15485   9.494   8.245  -0.230  0.7361  0.3416  0.0637
  118MOL0     C15486   9.589   8.319  -0.144 -0.4134  0.5502  0.4329
  118MOL0     C15487   9.544   8.465  -0.112 -0.2959  0.6804  0.0642
  118MOL0    Cl15488   9.647   8.503   0.029  0.0826  0.0630  0.3603
  118MOL0     C15489   9.686   8.045   0.393 -0.8378 -0.6147  0.0070
  118MOL0     C15490   9.738   8.095   0.518 -0.1457 -0.3375  0.4903
  118MOL0     O15491   9.591   8.103   0.930  0.5639  0.0292  0.1386
  118MOL0     C15492   9.690   8.250   1.123  0.6601 -0.3077  0.1688
  118MOL0     C15493   9.753   8.335   1.218  0.4198  0.2688  0.1208
  118MOL0     N15494   9.956   8.827   1.725  0.1539  0.0984  0.0975
  118MOL0     N15495   9.971   8.857   1.848  0.2115  0.9162 -0.0731
  118MOL0     C15496  10.654   9.308   2.501  0.5338  0.6916  0.0909
  118MOL0     C15497  10.778   9.352   2.551  0.6746  0.2985  1.0745
  118MOL0     C15498  10.985   9.709   2.770  0.3708  0.1804 -0.2395
  118MOL0     C15499  11.004   9.759   2.905  0.7527 -0.2326 -0.0687
  118MOL0     C15500  11.074   9.872   2.929 -0.7863  0.1149  0.8489
  118MOL0     C15501  11.126   9.942   2.819  0.2354 -0.1430  0.4077
  118MOL0     O15502  11.196  10.062   2.835  0.6766 -0.1997 -0.1349
  118MOL0     C15503  11.210  10.115   2.970  1.2443  0.9215 -0.0487
  118MOL0     C15504  11.253  10.264   2.965 -0.5149  0.2835 -0.3613
  118MOL0     C15505  11.368  10.284   2.866 -0.1630 -0.2697 -0.7518
  118MOL0     C15506  11.453  10.399   2.917 -0.4722  0.6638  0.4926
  118MOL0     C15507  11.389  10.532   2.907  0.2315 -0.8329 -0.3323
  118MOL0     C15508  11.343  10.642   2.926  0.9900  0.4547  0.0989
  118MOL0     C15509  11.102   9.899   2.694  0.6148 -0.6766  0.3904
  118MOL0     C15510  11.033   9.778   2.657 -0.2864  0.8746 -0.0829
  118MOL0     H15511  10.696   9.670   2.615  0.2918  0.1179 -2.1123
  118MOL0     H15512  10.463   9.573   2.557  0.1583 -1.1753 -1.8612
  118MOL0     H15513  10.343   9.435   2.664  2.1238  3.8221 -0.9254
  118MOL0     H15514  10.238   9.306   2.626  2.4100 -1.3969  1.4367
  118MOL0     H15515  10.286   9.545   2.450 -2.9818  1.8007  1.2838
  118MOL0     H15516  10.158   9.512   2.548 -0.7770 -0.2010 -1.3757
  118MOL0     H15517  10.257   9.328   2.339  1.0386  0.5991  2.4755
  118MOL0     H15518  10.139   9.449   2.285 -0.1325 -0.6826 -0.6983
  118MOL0     H15519  10.104   9.213   2.462 -1.7747 -1.8794 -2.7262
  118MOL0     H15520   9.987   9.347   2.472  1.6808 -3.9155  6.0789
  118MOL0     H15521   9.956   9.323   2.229  1.0460  0.0749 -0.4217
  118MOL0     H15522   9.890   9.200   2.313  0.6650 -0.2888  0.9825
  118MOL0     H15523  10.076   9.051   2.261  1.6649 -0.5263 -0.6486
  118MOL0     H15524  10.172   9.192   2.203 -1.3326  4.1215  1.7560
  118MOL0     H15525   9.909   9.092   2.079  0.6305 -1.1129  1.0685
  118MOL0     H15526  10.009   9.223   2.020  4.2833  1.0071  1.7200
  118MOL0     H15527  10.129   8.935   2.031 -3.3611 -1.9547  0.5233
  118MOL0     H15528  10.175   9.081   1.933  0.6962 -2.1316 -2.3986
  118MOL0     H15529  10.091   9.121   1.718  1.6008 -0.6420  1.2770
  118MOL0     H15530  10.106   8.928   1.477  1.3884  2.1786  1.2356
  118MOL0     H15531   9.959   9.034   1.464  2.0512  0.2292 -2.3352
  118MOL0     H15532   9.887   8.873   1.320  2.8145 -2.7909 -1.0590
  118MOL0     H15533   9.803   8.822   1.484 -1.9728 -1.0158 -2.0794
  118MOL0     H15534  10.063   8.715   1.358  1.7365 -1.7941  1.7549
  118MOL0     H15535   9.987   8.652   1.496 -1.5915 -0.0622  0.9283
  118MOL0     H15536   9.841   8.668   1.225  1.2534  0.5895  0.9523
  118MOL0     H15537   9.791   8.589   1.377 -0.6665  0.0149 -1.7353
  118MOL0     H15538   9.969   8.498   1.014 -0.2858 -0.9835 -2.2589
  118MOL0     H15539   9.868   8.365   0.858 -0.7695  2.2202 -0.3860
  118MOL0     H15540   9.464   8.106   0.704  2.1814  2.2555  0.9879
  118MOL0     H15541   9.366   8.034   0.476  0.0571 -1.0003 -5.4146
  118MOL0     H15542   9.289   8.018   0.259  2.0259  0.5680 -0.6606
  118MOL0     H15543   9.336   7.851   0.291  2.5379 -1.6120 -1.8076
  118MOL0     H15544   9.273   7.809   0.094 -0.9594  1.8106  0.6714
  118MOL0     H15545   9.453   7.852   0.059 -0.0247  0.8964 -1.8752
  118MOL0     H15546   9.212   8.016  -0.003 -0.3326  0.8803 -1.0296
  118MOL0     H15547   9.293   7.905  -0.117 -0.2266  0.5681 -0.2796
  118MOL0     H15548   9.424   8.130   0.025  2.9397  1.2323 -1.5475
  118MOL0     H15549   9.501   8.020  -0.093 -1.0546 -0.8873 -1.0025
  118MOL0     H15550   9.293   8.241  -0.147  1.1737  1.1966  1.5853
  118MOL0     H15551   9.316   8.113  -0.260 -3.8003 -0.0765  0.7248
  118MOL0     H15552   9.456   8.316  -0.305  2.7179  3.1959  1.5807
  118MOL0     H15553   9.550   8.177  -0.295  1.5084  1.7847 -0.8553
  118MOL0     H15554   9.600   8.260  -0.052  1.0795  1.0041  0.5723
  118MOL0     H15555   9.687   8.327  -0.192 -0.5951  1.4108  0.1909
  118MOL0     H15556   9.438   8.470  -0.087 -0.8568  1.6380 -2.2662
  118MOL0     H15557   9.566   8.514  -0.207  1.5983 -2.0297 -1.0428
  118MOL0     H15558   9.754   8.036   0.310  0.1058  0.7487  0.5877
  118MOL0     H15559   9.837   8.136   0.528 -1.0660  2.4186 -0.8104
  118MOL0     H15560   9.614   8.177   1.151 -1.9630  1.9603 -0.5720
  118MOL0     H15561   9.726   8.336   1.323  0.0681  0.3367  0.0317
  118MOL0     H15562  10.650   9.204   2.471  1.0825  0.7973 -0.3564
  118MOL0     H15563  10.862   9.284   2.540 -2.0007 -2.7899 -3.0241
  118MOL0     H15564  10.971   9.698   2.989  0.9645 -2.0294 -1.2375
  118MOL0     H15565  11.103   9.896   3.031 -0.2484 -1.1334  1.0050
  118MOL0     H15566  11.295  10.057   3.009 -1.0515 -0.7668  2.8386
  118MOL0     H15567  11.125  10.103   3.037 -0.9409  0.9968 -2.6379
  118MOL0     H15568  11.169  10.327   2.934  0.3006  0.6489 -1.9266
  118MOL0     H15569  11.273  10.307   3.063  1.7266  1.2332 -1.1651
  118MOL0     H15570  11.340  10.292   2.760  1.5507  0.3120 -1.1890
  118MOL0     H15571  11.425  10.191   2.862  0.6596 -0.0606  2.8785
  118MOL0     H15572  11.484  10.384   3.021 -2.1564  1.1123  1.0846
  118MOL0     H15573  11.542  10.402   2.853 -0.7501 -2.1074 -0.1542
  118MOL0     H15574  11.311  10.742   2.946 -1.4194 -0.3636  0.8005
  118MOL0     H15575  11.161   9.948   2.617  3.4287  0.5465  3.0793
  118MOL0     H15576  11.023   9.746   2.553  0.1344  3.5429 -1.0278
  119MOL0     O15577   9.763   3.448   3.796  0.1643  0.4107  0.4438
  119MOL0     C15578   9.829   3.344   3.782 -0.1125  0.8040 -0.6040
  119MOL0     O15579   9.955   3.330   3.744  0.4101 -0.1962  0.6848
  119MOL0     C15580  10.038   3.434   3.784 -0.4277  0.3160  0.6973
  119MOL0     C15581  10.126   3.497   3.697 -0.0263  0.3112  0.5173
  119MOL0     C15582  10.199   3.614   3.730 -0.8772 -0.4650 -0.9755
  119MOL0     C15583  10.186   3.667   3.855  0.8552 -0.2438  1.3193
  119MOL0     O15584  10.252   3.773   3.899  0.9451  0.1430 -0.2432
  119MOL0     C15585  10.370   3.816   3.834  0.1081 -0.8334  0.2116
  119MOL0     C15586  10.420   3.927   3.920 -1.0227 -0.3425  0.0398
  119MOL0     C15587  10.551   3.968   3.866  0.1043  0.3349  0.3951
  119MOL0     C15588  10.594   4.095   3.937  0.3255 -0.1448 -0.6223
  119MOL0     C15589  10.712   4.155   3.876 -0.3199 -0.2658 -0.1151
  119MOL0     C15590  10.765   4.279   3.956 -0.4536 -1.2569 -0.2161
  119MOL0     C15591  10.661   4.393   3.939  1.0719  0.5727 -0.1367
  119MOL0     C15592  10.709   4.531   3.977 -0.1619 -0.3148  0.7262
  119MOL0     N15593  10.797   4.587   3.872 -0.0572 -0.2842  0.7569
  119MOL0     C15594  10.938   4.581   3.856 -0.1304  0.3282  0.1930
  119MOL0     C15595  10.966   4.674   3.761 -0.4129  0.2341  0.3038
  119MOL0     C15596  11.105   4.703   3.708  0.1208  0.0256  0.3882
  119MOL0     C15597  11.177   4.808   3.791  0.5381  0.6691 -0.5831
  119MOL0     C15598  11.220   4.944   3.718  0.6483 -0.4245 -0.3729
  119MOL0     C15599  11.346   4.924   3.632 -0.1427  0.5219  0.5084
  119MOL0     O15600  11.386   5.034   3.540  1.0075 -0.1696 -0.2845
  119MOL0     C15601  11.331   5.018   3.413  0.0739 -0.3399  0.1434
  119MOL0     C15602  11.397   5.071   3.308 -1.1421 -0.1948 -0.5959
  119MOL0     C15603  11.359   5.065   3.170  0.5340  0.2248 -0.5355
  119MOL0     C15604  11.240   4.986   3.129 -0.0027  1.1809  0.5868
  119MOL0     C15605  11.211   4.967   2.985 -0.0184  0.2164  0.1790
  119MOL0     O15606  11.283   5.030   2.890  0.3900 -0.4208 -0.2660
  119MOL0     C15607  11.257   5.008   2.758  0.6185  0.9736 -0.1161
  119MOL0     C15608  11.238   4.878   2.708  0.6308  0.3093 -0.6668
  119MOL0     C15609  11.219   4.860   2.574 -0.3181  0.8226  0.1852
  119MOL0     C15610  11.212   4.969   2.487 -0.8557 -0.8099  0.1076
  119MOL0     O15611  11.168   4.940   2.353 -0.3606  0.6923 -0.1722
  119MOL0     C15612  11.210   5.025   2.245  0.3832 -0.3244 -0.5209
  119MOL0     C15613  11.240   4.968   2.104  0.3964  0.3984 -0.6667
  119MOL0     C15614  11.137   4.992   2.010  0.0643  0.0788 -0.0273
  119MOL0     C15615  11.178   4.936   1.872  0.4751  0.0070 -0.2875
  119MOL0     C15616  11.058   4.924   1.777  0.4020 -0.9990  0.2992
  119MOL0     C15617  10.979   4.794   1.805  0.8167 -1.3734 -0.0661
  119MOL0     C15618  11.046   4.672   1.759 -0.4967  0.1899  0.2000
  119MOL0     C15619  10.947   4.557   1.750 -0.0881  0.4251  0.3876
  119MOL0    Cl15620  10.844   4.580   1.615  0.2674  0.0371  0.3423
  119MOL0     C15621  11.250   5.096   2.532  0.5413 -0.4240  0.0812
  119MOL0     C15622  11.268   5.110   2.666  0.0962  1.2937 -0.8461
  119MOL0     O15623  11.118   4.888   2.958  0.1199 -0.4298 -0.5239
  119MOL0     C15624  11.176   4.927   3.243 -0.3919 -0.0547  0.4200
  119MOL0     C15625  11.214   4.954   3.377  1.1606  0.3811  0.7833
  119MOL0     N15626  10.850   4.742   3.731 -0.2094 -0.2086  0.4366
  119MOL0     N15627  10.753   4.693   3.798 -0.4453  0.3865  0.3114
  119MOL0     C15628  10.104   3.604   3.947 -0.3618 -0.2290 -0.4588
  119MOL0     C15629  10.025   3.492   3.914 -0.7415 -0.3151  0.0353
  119MOL0     C15630   9.759   3.212   3.794 -0.6396 -0.8720 -1.4359
  119MOL0     C15631   9.634   3.205   3.865  0.7455 -0.7694  0.1846
  119MOL0     C15632   9.558   3.084   3.883 -0.3167 -0.6513  0.3928
  119MOL0     C15633   9.602   2.965   3.824 -0.6212 -0.4987 -0.5066
  119MOL0     O15634   9.527   2.850   3.825  0.2502 -0.2149 -0.3066
  119MOL0     C15635   9.584   2.719   3.790  0.3522 -0.3095  0.3307
  119MOL0     C15636   9.471   2.612   3.821 -0.3399 -0.3089 -0.3407
  119MOL0     C15637   9.486   2.505   3.706  0.4530 -0.7517 -0.2521
  119MOL0     C15638   9.430   2.364   3.738  0.7057 -0.1944 -0.7418
  119MOL0     C15639   9.301   2.363   3.803  0.5490 -0.0125 -0.8162
  119MOL0     C15640   9.192   2.357   3.847  0.3586  0.0518  0.6257
  119MOL0     C15641   9.734   2.971   3.760  1.4279  0.5500 -0.1980
  119MOL0     C15642   9.804   3.093   3.745 -1.1111  0.7006 -0.8752
  119MOL0     H15643  10.138   3.452   3.598  2.4785  1.4347  0.2313
  119MOL0     H15644  10.266   3.668   3.664 -0.7941  0.2367 -0.3223
  119MOL0     H15645  10.367   3.843   3.728  5.0072  2.4418  0.5925
  119MOL0     H15646  10.443   3.735   3.839  2.0741  0.6307 -2.3743
  119MOL0     H15647  10.437   3.882   4.019 -1.8341 -2.3106 -0.6510
  119MOL0     H15648  10.345   4.006   3.929  1.6225  2.4127 -0.7753
  119MOL0     H15649  10.544   3.991   3.759  0.4357  1.0869  0.5299
  119MOL0     H15650  10.623   3.886   3.881 -3.1027 -2.5253  1.4053
  119MOL0     H15651  10.516   4.170   3.919  0.9480  0.4194 -1.0270
  119MOL0     H15652  10.605   4.070   4.043 -3.4160 -0.9645 -0.2914
  119MOL0     H15653  10.682   4.186   3.775 -2.0097  1.1364  0.7445
  119MOL0     H15654  10.795   4.084   3.870  1.2555  1.3735  1.1139
  119MOL0     H15655  10.859   4.310   3.909 -2.1094  2.0246 -1.6382
  119MOL0     H15656  10.785   4.258   4.062  1.0263  2.1766  0.3210
  119MOL0     H15657  10.633   4.409   3.835  0.6687  3.0868  0.3029
  119MOL0     H15658  10.568   4.377   3.995  0.8278  1.2020 -0.3616
  119MOL0     H15659  10.766   4.510   4.068 -0.4411 -1.1428  0.7104
  119MOL0     H15660  10.628   4.602   3.999 -1.1553 -0.6713 -1.5322
  119MOL0     H15661  11.000   4.506   3.904 -0.1124 -0.8471 -1.5739
  119MOL0     H15662  11.087   4.746   3.609 -1.0798 -2.0824 -0.3806
  119MOL0     H15663  11.169   4.615   3.704 -1.5174 -1.1695 -2.1285
  119MOL0     H15664  11.267   4.772   3.843 -0.5747 -1.1940  0.1472
  119MOL0     H15665  11.104   4.837   3.867  2.9664  1.1994  1.7054
  119MOL0     H15666  11.136   4.985   3.660 -0.5759 -0.0882  1.5280
  119MOL0     H15667  11.245   5.023   3.790  3.0351 -2.4182  1.1096
  119MOL0     H15668  11.345   4.833   3.571  1.4500  0.7753  0.0452
  119MOL0     H15669  11.430   4.907   3.700  0.8720  4.9988  0.6612
  119MOL0     H15670  11.490   5.119   3.340 -0.6855  0.0917 -2.2859
  119MOL0     H15671  11.422   5.116   3.097 -0.0618  3.1300  0.8294
  119MOL0     H15672  11.236   4.783   2.762 -2.7733 -1.0816 -2.9174
  119MOL0     H15673  11.187   4.761   2.545  0.1083  0.4995  0.7930
  119MOL0     H15674  11.297   5.085   2.274  0.4972 -1.4734  1.7445
  119MOL0     H15675  11.136   5.104   2.228  4.4391  4.3491  1.1794
  119MOL0     H15676  11.252   4.860   2.116  2.2290  0.5203 -1.2042
  119MOL0     H15677  11.336   5.006   2.068  1.8867 -1.2958  1.2601
  119MOL0     H15678  11.120   5.100   2.004  2.0161  0.3627 -4.8277
  119MOL0     H15679  11.040   4.946   2.034  0.5417 -0.0322  1.8829
  119MOL0     H15680  11.263   4.997   1.837  1.2617 -1.8266 -1.7161
  119MOL0     H15681  11.217   4.836   1.893  1.7356  0.9038  1.9584
  119MOL0     H15682  11.094   4.934   1.674 -1.2693  1.2087 -0.1401
  119MOL0     H15683  10.980   5.000   1.788 -0.8337 -1.5603 -3.2621
  119MOL0     H15684  10.896   4.803   1.735  0.0024  1.9570  1.1305
  119MOL0     H15685  10.951   4.784   1.911  1.0478 -0.3330  0.1051
  119MOL0     H15686  11.079   4.680   1.655  0.7287 -0.9313  0.4734
  119MOL0     H15687  11.133   4.647   1.820  3.6827  2.0637 -4.3443
  119MOL0     H15688  10.894   4.568   1.845 -1.6649 -1.3324 -0.2177
  119MOL0     H15689  11.007   4.467   1.737  2.0365  1.9183 -0.9941
  119MOL0     H15690  11.239   5.183   2.468 -0.1289  1.0304  2.0617
  119MOL0     H15691  11.301   5.203   2.712  1.5939 -1.1185  3.5166
  119MOL0     H15692  11.088   4.863   3.244  0.5120 -1.4077  3.0777
  119MOL0     H15693  11.152   4.910   3.455 -0.3646  1.4706  0.2500
  119MOL0     H15694  10.093   3.650   4.045  0.3958  1.0306 -0.9425
  119MOL0     H15695   9.967   3.450   3.996  0.2250  1.5830  1.7630
  119MOL0     H15696   9.606   3.294   3.921  5.4832  1.1966 -0.0784
  119MOL0     H15697   9.466   3.081   3.941  0.7443 -2.0629  2.0984
  119MOL0     H15698   9.678   2.693   3.839  2.1297  0.1115 -2.6632
  119MOL0     H15699   9.612   2.724   3.685  1.6911 -1.1749  0.6251
  119MOL0     H15700   9.488   2.574   3.922  5.9915  1.3148 -0.3700
  119MOL0     H15701   9.372   2.656   3.806 -0.6567 -1.5750 -2.2999
  119MOL0     H15702   9.587   2.499   3.665 -0.2517  2.1305 -2.6819
  119MOL0     H15703   9.429   2.546   3.622  0.8114 -0.4891 -0.3639
  119MOL0     H15704   9.414   2.311   3.643  0.1921 -0.4676 -0.5067
  119MOL0     H15705   9.499   2.314   3.806 -0.1501  1.9217  1.8776
  119MOL0     H15706   9.089   2.350   3.877  0.1426 -2.7734 -0.4609
  119MOL0     H15707   9.781   2.877   3.734 -0.8042 -0.3680 -1.1458
  119MOL0     H15708   9.903   3.085   3.703  0.1343  0.4043  1.8922
  120MOL0     O15709   2.356   7.017   0.049  0.0901  0.1180  0.6650
  120MOL0     C15710   2.367   6.948  -0.051  0.7127 -0.8892  0.6303
  120MOL0     O15711   2.265   6.876  -0.103 -0.6154  0.2830 -0.1428
  120MOL0     C15712   2.140   6.868  -0.049  0.1916  0.2529  0.2056
  120MOL0     C15713   2.073   6.746  -0.054  0.3085 -0.2953  0.3124
  120MOL0     C15714   1.969   6.719   0.027 -0.1819 -0.6718  0.3059
  120MOL0     C15715   1.909   6.820   0.110 -0.1946 -0.4794  0.4728
  120MOL0     O15716   1.805   6.797   0.201 -0.5917  0.1388  0.3248
  120MOL0     C15717   1.842   6.698   0.304 -0.5174  0.6489  0.6837
  120MOL0     C15718   1.726   6.694   0.397  0.1883 -0.0832  0.0644
  120MOL0     C15719   1.774   6.737   0.536 -0.5525  0.2246 -0.6427
  120MOL0     C15720   1.667   6.714   0.649 -0.2721  0.5676  0.3093
  120MOL0     C15721   1.708   6.778   0.786  0.3575 -0.0076  0.4381
  120MOL0     C15722   1.621   6.751   0.896 -0.9082 -0.4326 -0.2805
  120MOL0     C15723   1.708   6.776   1.023  0.3267  0.2826 -0.3839
  120MOL0     C15724   1.627   6.769   1.151  0.3842  0.7871  0.2508
  120MOL0     N15725   1.584   6.634   1.173  1.0678  0.0539  0.1107
  120MOL0     C15726   1.453   6.585   1.152 -0.2934  0.0166 -0.0164
  120MOL0     C15727   1.453   6.462   1.205  0.2228 -1.0253  0.3664
  120MOL0     C15728   1.327   6.377   1.202  0.3423 -0.2706 -0.1722
  120MOL0     C15729   1.304   6.326   1.340 -0.3602  0.2698 -0.0040
  120MOL0     C15730   1.267   6.417   1.451  0.0948 -0.5969 -0.5609
  120MOL0     C15731   1.126   6.480   1.442  0.0095  0.1663  0.6093
  120MOL0     O15732   1.126   6.590   1.527 -1.1757 -0.2048  0.3834
  120MOL0     C15733   1.011   6.624   1.585 -0.0258  0.1224 -0.4431
  120MOL0     C15734   0.884   6.588   1.542  0.4980  0.0237  1.3068
  120MOL0     C15735   0.765   6.621   1.615 -0.4174  1.0608  0.2715
  120MOL0     C15736   0.778   6.685   1.738 -0.5204 -0.3604 -0.0129
  120MOL0     C15737   0.658   6.699   1.821 -0.9553 -1.0653 -0.0526
  120MOL0     O15738   0.561   6.608   1.796 -0.4975  0.0397  0.7556
  120MOL0     C15739   0.437   6.626   1.855 -0.6841 -0.4164 -0.0046
  120MOL0     C15740   0.332   6.610   1.770  1.2985  0.9674 -0.9404
  120MOL0     C15741   0.200   6.618   1.823  0.0645 -0.0377  1.1665
  120MOL0     C15742   0.177   6.637   1.958  0.5141 -0.3880  0.6620
  120MOL0     O15743   0.046   6.646   2.008  0.2340  0.6253  0.2423
  120MOL0     C15744   0.019   6.639   2.146  0.9631  0.4966  0.2343
  120MOL0     C15745   0.032   6.490   2.194  0.4276  0.1366 -0.2127
  120MOL0     C15746  -0.011   6.452   2.335 -0.0676 -0.1186 -0.9528
  120MOL0     C15747   0.013   6.557   2.443  1.3570  0.2508 -0.2322
  120MOL0     C15748   0.002   6.490   2.588  0.8154  0.8528 -1.1885
  120MOL0     C15749   0.011   6.601   2.679 -0.6458  0.5407 -0.4272
  120MOL0     C15750  -0.036   6.560   2.816 -0.2100  0.9493 -1.1554
  120MOL0     C15751   0.039   6.441   2.885  0.0708 -0.2234 -0.2016
  120MOL0    Cl15752   0.196   6.492   2.949  0.0150  0.2772 -0.1555
  120MOL0     C15753   0.291   6.632   2.047  1.2445 -0.3554 -0.5633
  120MOL0     C15754   0.424   6.636   1.994 -0.2790 -0.1107 -0.5919
  120MOL0     O15755   0.649   6.810   1.876  0.3610 -0.0194  0.7723
  120MOL0     C15756   0.903   6.730   1.783 -1.1010  0.2248  0.3622
  120MOL0     C15757   1.017   6.696   1.711 -0.1800 -0.0974 -0.3471
  120MOL0     N15758   1.585   6.424   1.227 -0.7391  0.1017 -0.1043
  120MOL0     N15759   1.658   6.533   1.230 -0.6171 -0.1439  0.7792
  120MOL0     C15760   1.968   6.946   0.113  1.0753  0.4996  0.4211
  120MOL0     C15761   2.089   6.970   0.036  0.2136  0.8795  0.5223
  120MOL0     C15762   2.506   6.946  -0.103  0.5031  0.5102 -0.7311
  120MOL0     C15763   2.546   6.829  -0.177 -0.4639 -0.4942  0.6821
  120MOL0     C15764   2.685   6.828  -0.229 -0.4515 -0.2682 -0.3309
  120MOL0     C15765   2.782   6.921  -0.198  0.1181  0.7331  0.3680
  120MOL0     O15766   2.908   6.898  -0.252  0.0695  0.4785 -0.1259
  120MOL0     C15767   3.006   6.999  -0.233  0.5273 -0.3561 -0.8761
  120MOL0     C15768   3.057   6.998  -0.085 -0.0126  0.8249 -0.0975
  120MOL0     C15769   3.130   7.122  -0.059 -0.6734 -0.5737 -0.5896
  120MOL0     C15770   3.195   7.129   0.076  0.7084  0.0869 -0.5649
  120MOL0     C15771   3.257   7.257   0.119 -0.0425  0.1117 -0.0873
  120MOL0     C15772   3.302   7.361   0.168 -0.6032 -0.4955  0.2877
  120MOL0     C15773   2.742   7.029  -0.119  0.2372  0.6482  1.2591
  120MOL0     C15774   2.605   7.046  -0.072  0.5033  0.7140 -0.3422
  120MOL0     H15775   2.097   6.662  -0.119  3.1458 -0.6658  1.6918
  120MOL0     H15776   1.928   6.619   0.025  2.6745 -1.9879  1.9925
  120MOL0     H15777   1.938   6.730   0.346 -0.4687 -3.1768  4.0985
  120MOL0     H15778   1.854   6.597   0.264  1.7404  1.5980 -1.3334
  120MOL0     H15779   1.666   6.602   0.403  1.6905 -1.1924 -1.1946
  120MOL0     H15780   1.651   6.768   0.366  2.6205  1.6857 -1.9215
  120MOL0     H15781   1.793   6.844   0.524  1.8195 -0.3239 -2.3749
  120MOL0     H15782   1.869   6.699   0.574 -0.3484  0.7257 -0.6381
  120MOL0     H15783   1.576   6.760   0.609  2.0118  3.4593 -1.9614
  120MOL0     H15784   1.645   6.607   0.661 -3.9422  1.0548 -0.5981
  120MOL0     H15785   1.727   6.884   0.765  2.3202 -0.8115 -2.5472
  120MOL0     H15786   1.802   6.725   0.801 -1.2135 -3.1153  0.1037
  120MOL0     H15787   1.592   6.646   0.895  0.2519 -0.7689 -0.8379
  120MOL0     H15788   1.527   6.805   0.885 -1.0832 -0.4707  0.9223
  120MOL0     H15789   1.800   6.715   1.022  0.6173  0.4175  3.4914
  120MOL0     H15790   1.757   6.874   1.019  0.0591  0.3952 -1.0576
  120MOL0     H15791   1.535   6.829   1.150  0.2622  0.6456  1.4702
  120MOL0     H15792   1.690   6.805   1.232 -1.2011  2.0712  0.9618
  120MOL0     H15793   1.363   6.633   1.116 -0.1085  1.3122  1.1543
  120MOL0     H15794   1.349   6.294   1.134 -3.4250 -1.6145 -0.0284
  120MOL0     H15795   1.246   6.430   1.150 -2.2280 -4.9520 -1.6546
  120MOL0     H15796   1.395   6.268   1.357  0.9026  2.4151  1.0063
  120MOL0     H15797   1.231   6.245   1.332 -0.7033  0.5500  0.2582
  120MOL0     H15798   1.283   6.380   1.552  0.9853  2.3424  0.4521
  120MOL0     H15799   1.345   6.493   1.447 -0.4322 -0.0227 -0.0754
  120MOL0     H15800   1.053   6.405   1.474  0.5857 -0.9480 -0.6042
  120MOL0     H15801   1.112   6.519   1.342 -4.0620  1.3454  1.4768
  120MOL0     H15802   0.877   6.541   1.445 -1.2734  0.6312  1.1025
  120MOL0     H15803   0.670   6.595   1.570  1.1052 -0.2861 -2.4553
  120MOL0     H15804   0.338   6.608   1.662 -0.6814  0.5966 -1.0734
  120MOL0     H15805   0.117   6.607   1.753  1.4723  0.9211 -0.7262
  120MOL0     H15806  -0.084   6.673   2.161 -0.0556 -2.0052 -0.5270
  120MOL0     H15807   0.092   6.699   2.202  1.0312 -0.2103  0.9167
  120MOL0     H15808   0.135   6.460   2.174  1.3239  4.2587 -3.3503
  120MOL0     H15809  -0.026   6.426   2.128  3.9634 -2.5903 -0.9638
  120MOL0     H15810   0.058   6.372   2.365  0.5244  1.1385  1.2316
  120MOL0     H15811  -0.117   6.429   2.324 -0.0849  0.7098 -3.1720
  120MOL0     H15812   0.106   6.609   2.423  1.7644 -1.4949 -3.6534
  120MOL0     H15813  -0.066   6.633   2.440  0.6166 -0.5031 -0.4944
  120MOL0     H15814   0.084   6.419   2.597  0.7990  0.4572 -3.5297
  120MOL0     H15815  -0.097   6.444   2.601  2.0268 -1.7022 -0.4302
  120MOL0     H15816  -0.040   6.686   2.633  1.1544  0.3706 -3.0119
  120MOL0     H15817   0.111   6.645   2.690 -0.8250  0.3607  2.8659
  120MOL0     H15818  -0.017   6.634   2.894 -2.1386 -2.0501  2.4521
  120MOL0     H15819  -0.140   6.525   2.816  0.8887 -2.7344 -0.9111
  120MOL0     H15820   0.043   6.348   2.828 -3.0462 -1.8372  1.9281
  120MOL0     H15821  -0.022   6.419   2.973  2.6323 -0.3084  1.6954
  120MOL0     H15822   0.270   6.656   2.150  1.4554 -0.2835 -0.5375
  120MOL0     H15823   0.521   6.640   2.043  0.1409 -1.3888 -1.2600
  120MOL0     H15824   0.918   6.774   1.881  0.7276 -2.1404  1.2499
  120MOL0     H15825   1.116   6.727   1.739 -0.2612  0.3636 -0.5720
  120MOL0     H15826   1.926   7.026   0.173 -1.2251  1.9383 -2.8207
  120MOL0     H15827   2.126   7.065   0.073 -1.8470  2.1994 -0.6269
  120MOL0     H15828   2.480   6.751  -0.212 -1.2640  1.3233 -2.1979
  120MOL0     H15829   2.724   6.761  -0.305  1.6831  2.5232 -1.8717
  120MOL0     H15830   2.948   7.088  -0.256  0.8368  0.0716 -0.0449
  120MOL0     H15831   3.092   6.991  -0.300  0.2712 -0.1396 -1.2344
  120MOL0     H15832   2.978   6.983  -0.010  0.3317  3.4241  0.8782
  120MOL0     H15833   3.124   6.912  -0.083 -0.3284  0.5779  0.0287
  120MOL0     H15834   3.065   7.210  -0.058 -0.4086 -0.3781  0.5469
  120MOL0     H15835   3.213   7.135  -0.129 -0.8334  0.4872 -0.5957
  120MOL0     H15836   3.124   7.094   0.152  1.9744 -0.5184  0.3708
  120MOL0     H15837   3.274   7.053   0.072  0.3211 -0.2816 -2.0565
  120MOL0     H15838   3.335   7.447   0.223 -2.2604 -0.5938  1.5263
  120MOL0     H15839   2.813   7.107  -0.090 -0.3486  1.8882 -0.4998
  120MOL0     H15840   2.573   7.124  -0.004  0.1779 -1.7154  2.4636
  121MOL0     O15841   7.539   9.276   7.299 -0.1690 -0.8547 -0.3291
  121MOL0     C15842   7.578   9.300   7.189 -1.5217 -0.3478 -0.5011
  121MOL0     O15843   7.709   9.271   7.140 -0.2349  0.0798 -0.1254
  121MOL0     C15844   7.785   9.184   7.208 -0.1149  0.7404 -0.8798
  121MOL0     C15845   7.923   9.206   7.221  0.9559 -0.5475  0.1885
  121MOL0     C15846   8.008   9.131   7.295 -0.3721 -0.1455  0.2854
  121MOL0     C15847   7.958   9.026   7.362  0.1731  0.5892  0.3188
  121MOL0     O15848   8.051   8.968   7.443 -0.4297  0.8725 -0.4594
  121MOL0     C15849   8.003   8.879   7.548  0.2541 -0.1593 -0.3336
  121MOL0     C15850   8.128   8.843   7.620 -0.4178 -0.2997  0.1763
  121MOL0     C15851   8.097   8.731   7.716 -0.7363  0.3773 -0.4842
  121MOL0     C15852   8.226   8.684   7.774  0.3312  0.1866  0.8362
  121MOL0     C15853   8.212   8.575   7.879 -0.2001 -0.1781  0.3403
  121MOL0     C15854   8.336   8.509   7.902 -0.0580  0.2382 -1.1649
  121MOL0     C15855   8.314   8.394   8.008 -0.1636 -0.0865  1.5143
  121MOL0     C15856   8.443   8.326   8.043  0.0508  0.8674 -0.5452
  121MOL0     N15857   8.416   8.227   8.148  0.0449 -0.1446  1.1273
  121MOL0     C15858   8.487   8.212   8.268 -0.0428  0.1112  1.4831
  121MOL0     C15859   8.428   8.105   8.333 -0.4626  0.0639  0.3890
  121MOL0     C15860   8.453   8.061   8.470  0.0836  0.4023 -0.0162
  121MOL0     C15861   8.568   7.959   8.469 -0.3500  0.2442 -0.2452
  121MOL0     C15862   8.501   7.824   8.439  0.2888 -0.6186 -0.5084
  121MOL0     C15863   8.426   7.765   8.569  0.7446  0.4370  0.5165
  121MOL0     O15864   8.524   7.739   8.673 -0.2825  0.5512  0.7125
  121MOL0     C15865   8.487   7.737   8.803  0.5490 -0.4109 -0.0707
  121MOL0     C15866   8.394   7.645   8.846  0.7305  0.6074 -0.4560
  121MOL0     C15867   8.371   7.630   8.982 -0.1096  0.3208 -0.7410
  121MOL0     C15868   8.441   7.698   9.079 -0.6231 -0.2265  0.2430
  121MOL0     C15869   8.416   7.686   9.219 -1.0178 -0.2518 -0.5712
  121MOL0     O15870   8.524   7.716   9.304  0.8765 -0.1635 -0.4391
  121MOL0     C15871   8.508   7.699   9.441 -0.2554 -0.4800 -0.1048
  121MOL0     C15872   8.458   7.590   9.497  0.2492 -0.2052 -0.6359
  121MOL0     C15873   8.438   7.577   9.636  0.0419  0.3329  0.2197
  121MOL0     C15874   8.466   7.681   9.715 -0.2559  0.0275  0.2080
  121MOL0     O15875   8.419   7.677   9.847  0.0649  0.8886  0.6151
  121MOL0     C15876   8.491   7.590   9.935  0.0836 -0.0590  0.3499
  121MOL0     C15877   8.427   7.617  10.066 -0.2786  0.2635  0.1286
  121MOL0     C15878   8.287   7.552  10.082 -1.2524  0.1950  0.0665
  121MOL0     C15879   8.225   7.605  10.214 -0.4624  0.1977  0.8626
  121MOL0     C15880   8.090   7.531  10.232  0.4273 -0.2739  0.4665
  121MOL0     C15881   7.992   7.541  10.101 -0.0337 -0.5299  0.2219
  121MOL0     C15882   7.855   7.501  10.154 -0.1654  1.1429 -0.0494
  121MOL0     C15883   7.791   7.610  10.238 -0.2428  0.3743  0.4841
  121MOL0    Cl15884   7.791   7.772  10.155  0.1513  0.4167  0.2467
  121MOL0     C15885   8.525   7.799   9.654  0.6218 -0.2176 -0.6679
  121MOL0     C15886   8.544   7.799   9.525  0.6987  0.1994  0.8066
  121MOL0     O15887   8.304   7.657   9.260  0.3109  0.6713  0.5896
  121MOL0     C15888   8.543   7.778   9.033  0.0542  0.2215  0.1782
  121MOL0     C15889   8.569   7.799   8.896  0.2377 -1.0430 -0.4431
  121MOL0     N15890   8.327   8.060   8.259 -0.2693 -0.5467  0.4544
  121MOL0     N15891   8.319   8.135   8.150 -0.5314  0.1543 -0.0617
  121MOL0     C15892   7.826   8.994   7.345 -0.1535 -0.1154 -0.2358
  121MOL0     C15893   7.734   9.075   7.272 -0.0781  0.3783  0.8921
  121MOL0     C15894   7.488   9.373   7.108  0.5364 -0.6759  0.8185
  121MOL0     C15895   7.525   9.388   6.975 -0.0685  0.4756  0.8153
  121MOL0     C15896   7.445   9.469   6.896 -0.6209 -0.1822 -0.2854
  121MOL0     C15897   7.325   9.527   6.927  0.0232  0.6082 -0.0745
  121MOL0     O15898   7.267   9.589   6.822  0.3194  0.1260  0.4616
  121MOL0     C15899   7.186   9.706   6.868  0.2418  0.4746  0.4912
  121MOL0     C15900   7.291   9.822   6.900 -0.1198  0.0984 -0.4166
  121MOL0     C15901   7.401   9.854   6.797  0.5235 -1.6921  1.0241
  121MOL0     C15902   7.535   9.849   6.849  0.0188  0.1351  0.0441
  121MOL0     C15903   7.557   9.947   6.961 -0.3824  0.2997 -0.5640
  121MOL0     C15904   7.552  10.006   7.065  0.1988  0.1511 -0.6968
  121MOL0     C15905   7.285   9.519   7.064 -0.4059 -0.5196  0.0021
  121MOL0     C15906   7.366   9.442   7.157 -0.4010 -1.0136 -0.7975
  121MOL0     H15907   7.963   9.299   7.180  0.1907  0.2506  1.2032
  121MOL0     H15908   8.114   9.149   7.313 -0.0771 -1.1365 -0.3953
  121MOL0     H15909   7.960   8.784   7.515  0.9123 -1.3382  1.9952
  121MOL0     H15910   7.923   8.925   7.608 -0.4456  0.4579 -1.6889
  121MOL0     H15911   8.170   8.934   7.664  0.1208 -0.2370 -0.4402
  121MOL0     H15912   8.206   8.827   7.544 -0.6948 -1.8877  0.1914
  121MOL0     H15913   8.048   8.652   7.659 -1.6987 -2.3179  3.6375
  121MOL0     H15914   8.037   8.759   7.803  0.7639  1.4412  0.2536
  121MOL0     H15915   8.288   8.661   7.687  2.1365  5.2443  0.4398
  121MOL0     H15916   8.282   8.760   7.830  0.8919  1.0605 -0.8388
  121MOL0     H15917   8.137   8.505   7.840 -2.7763  0.0090  4.4602
  121MOL0     H15918   8.186   8.617   7.976  1.4889  2.0293 -0.0878
  121MOL0     H15919   8.410   8.581   7.938  1.5100 -1.9070  0.1383
  121MOL0     H15920   8.379   8.458   7.815  0.9141 -2.5434  0.7983
  121MOL0     H15921   8.275   8.444   8.097  1.0655 -0.2260  2.1560
  121MOL0     H15922   8.251   8.321   7.955  0.9658  0.2604 -0.3835
  121MOL0     H15923   8.513   8.406   8.068 -0.4419  1.3845 -0.8075
  121MOL0     H15924   8.483   8.287   7.948 -0.3814  1.3992 -0.9501
  121MOL0     H15925   8.569   8.265   8.314  0.4720 -2.5636  3.9273
  121MOL0     H15926   8.358   8.034   8.517 -1.2776  2.5045 -1.3736
  121MOL0     H15927   8.492   8.140   8.536  0.0170 -1.2204  2.0447
  121MOL0     H15928   8.624   7.959   8.564  0.3361 -0.3511 -0.6397
  121MOL0     H15929   8.647   7.979   8.397 -1.1683  2.9127 -0.4958
  121MOL0     H15930   8.431   7.832   8.355  1.1933 -1.7425 -1.4137
  121MOL0     H15931   8.579   7.752   8.412  2.0967  0.3437  1.9070
  121MOL0     H15932   8.380   7.668   8.547  0.9852  0.4004  0.1648
  121MOL0     H15933   8.338   7.823   8.599 -0.3968 -1.2560  0.5931
  121MOL0     H15934   8.353   7.570   8.779  0.7794  1.2966 -1.2826
  121MOL0     H15935   8.290   7.565   9.015 -1.4725  2.5800  0.6096
  121MOL0     H15936   8.423   7.513   9.429 -1.1459 -0.7095  0.6030
  121MOL0     H15937   8.403   7.484   9.681  2.2720 -0.0872  1.2192
  121MOL0     H15938   8.590   7.632   9.919  0.5418 -1.2449 -0.0606
  121MOL0     H15939   8.486   7.483   9.913 -0.3575 -0.1972  1.0958
  121MOL0     H15940   8.430   7.724  10.089 -0.0378  0.6302 -1.5130
  121MOL0     H15941   8.497   7.593  10.147 -0.0299 -0.4272 -0.2903
  121MOL0     H15942   8.307   7.445  10.081  0.7709  0.4728 -3.4729
  121MOL0     H15943   8.236   7.589   9.993  0.3560  0.8680 -0.6320
  121MOL0     H15944   8.297   7.595  10.296  0.6640  3.9036  0.4993
  121MOL0     H15945   8.193   7.709  10.216  0.4849  0.4941  1.0530
  121MOL0     H15946   8.034   7.579  10.314 -0.2362  0.3993 -0.3528
  121MOL0     H15947   8.111   7.428  10.259  1.9774 -0.0300  0.2366
  121MOL0     H15948   8.037   7.489  10.015  1.8602  1.2488  0.0697
  121MOL0     H15949   7.987   7.639  10.054 -0.8954 -1.5384 -1.9690
  121MOL0     H15950   7.781   7.483  10.075  0.8846  1.5875 -1.1610
  121MOL0     H15951   7.867   7.404  10.203 -0.3344 -0.4436 -2.9286
  121MOL0     H15952   7.836   7.623  10.337  0.4487 -0.0939  0.2450
  121MOL0     H15953   7.686   7.586  10.254 -0.5550  1.7865  0.6483
  121MOL0     H15954   8.543   7.878   9.726  1.4784 -1.0776  0.0854
  121MOL0     H15955   8.579   7.888   9.474 -0.4802 -0.2246 -0.8481
  121MOL0     H15956   8.596   7.838   9.106 -0.7090 -2.0500  2.8054
  121MOL0     H15957   8.653   7.865   8.874 -0.3002 -0.9929 -2.5825
  121MOL0     H15958   7.783   8.923   7.414 -0.5288  3.5001  3.6830
  121MOL0     H15959   7.629   9.049   7.284 -0.5126  1.5756 -0.0980
  121MOL0     H15960   7.620   9.354   6.936 -0.7074  0.0364 -0.4291
  121MOL0     H15961   7.480   9.478   6.793 -0.4964  3.4224 -0.0319
  121MOL0     H15962   7.131   9.676   6.958 -0.8288 -0.0635 -0.3148
  121MOL0     H15963   7.117   9.738   6.789 -0.7406 -3.3316 -0.3953
  121MOL0     H15964   7.232   9.906   6.937  0.1084  0.3414 -0.6100
  121MOL0     H15965   7.351   9.791   6.987  0.4379 -0.1130 -0.8677
  121MOL0     H15966   7.384   9.952   6.750  0.3496 -2.2757 -0.1828
  121MOL0     H15967   7.386   9.788   6.711 -1.3182  0.9741 -0.8972
  121MOL0     H15968   7.547   9.747   6.889 -0.8722 -0.9947 -2.3803
  121MOL0     H15969   7.612   9.858   6.772 -0.4788 -0.8688 -0.5898
  121MOL0     H15970   7.556  10.069   7.152  0.4695 -1.7637  0.7374
  121MOL0     H15971   7.189   9.554   7.099 -0.2259 -0.2169  0.1990
  121MOL0     H15972   7.339   9.448   7.261  0.4204 -0.0483 -0.6218
  122MOL0     O15973   3.613   3.670   8.260 -0.3239  0.4251 -0.0042
  122MOL0     C15974   3.549   3.742   8.186  0.2111 -0.0379  0.2311
  122MOL0     O15975   3.446   3.697   8.109  0.2375 -0.3542  0.5429
  122MOL0     C15976   3.394   3.571   8.123  0.1665 -0.6378  0.6579
  122MOL0     C15977   3.264   3.562   8.085  0.0829  0.4894  0.1095
  122MOL0     C15978   3.202   3.435   8.064 -0.5886  0.0539 -0.1236
  122MOL0     C15979   3.270   3.324   8.091 -0.0318  0.5352 -0.5799
  122MOL0     O15980   3.200   3.215   8.051  0.0582  0.3847 -0.1750
  122MOL0     C15981   3.274   3.089   8.022  0.0595 -0.3772  0.1862
  122MOL0     C15982   3.177   3.002   7.937  0.7806  0.4794  0.0726
  122MOL0     C15983   3.093   2.908   8.029  0.7489  0.0539  0.9160
  122MOL0     C15984   2.993   2.837   7.932  0.0696  0.4024  0.2541
  122MOL0     C15985   2.909   2.728   8.007  1.5484  0.3559  0.8942
  122MOL0     C15986   2.833   2.625   7.913  0.2523  0.4712 -0.4153
  122MOL0     C15987   2.721   2.680   7.826  1.0765 -0.0377  0.3304
  122MOL0     C15988   2.593   2.719   7.896  0.4802  0.4930  0.2195
  122MOL0     N15989   2.484   2.734   7.793 -0.5087  0.3912 -0.1864
  122MOL0     C15990   2.405   2.637   7.733 -0.2663  0.0506  0.6552
  122MOL0     C15991   2.316   2.698   7.650 -0.5756 -0.8090  0.5483
  122MOL0     C15992   2.234   2.630   7.544 -0.4317 -0.0830  0.6944
  122MOL0     C15993   2.109   2.591   7.627  0.1596  0.0132  0.6184
  122MOL0     C15994   2.035   2.484   7.545  0.2985 -0.1923  0.4533
  122MOL0     C15995   1.887   2.531   7.499 -0.3028  1.3422  1.1950
  122MOL0     O15996   1.876   2.486   7.364 -0.2866 -0.6516 -0.2048
  122MOL0     C15997   1.947   2.553   7.269 -1.4006 -0.3538 -0.0378
  122MOL0     C15998   1.964   2.481   7.147 -0.2330 -1.6624  0.0093
  122MOL0     C15999   2.065   2.515   7.054 -0.3173 -0.1574  0.6833
  122MOL0     C16000   2.144   2.627   7.077  0.0039 -0.0762  0.5517
  122MOL0     C16001   2.256   2.665   6.986 -0.4309 -0.6661  0.4475
  122MOL0     O16002   2.284   2.593   6.879  0.6019 -0.9222  0.0910
  122MOL0     C16003   2.373   2.632   6.793  0.3365 -0.9546  0.2602
  122MOL0     C16004   2.508   2.641   6.822 -0.3702  0.0968 -0.7372
  122MOL0     C16005   2.605   2.689   6.738 -0.6871  0.8329 -0.1580
  122MOL0     C16006   2.563   2.716   6.607  0.1174 -0.4995 -0.2662
  122MOL0     O16007   2.659   2.751   6.513  0.2571 -0.6845  0.5777
  122MOL0     C16008   2.631   2.826   6.397  0.7122  0.0694  0.2774
  122MOL0     C16009   2.566   2.735   6.287 -0.1003 -0.7165  0.2396
  122MOL0     C16010   2.446   2.799   6.214 -0.1502 -0.2737  1.0094
  122MOL0     C16011   2.404   2.733   6.085 -0.4776  1.5009  0.0955
  122MOL0     C16012   2.265   2.799   6.061 -0.2658  0.3071 -0.1153
  122MOL0     C16013   2.238   2.773   5.914  0.9768  0.0301 -0.2126
  122MOL0     C16014   2.242   2.623   5.865  0.2749 -0.4015  0.6872
  122MOL0     C16015   2.153   2.523   5.947  0.0029 -0.1043  0.4567
  122MOL0    Cl16016   1.986   2.567   5.939  0.1731 -0.1104 -0.1573
  122MOL0     C16017   2.426   2.715   6.580  1.3405  0.2750  1.4021
  122MOL0     C16018   2.332   2.683   6.672 -0.0107 -0.7752 -0.1316
  122MOL0     O16019   2.322   2.766   7.019 -0.7624  0.2173 -1.3418
  122MOL0     C16020   2.115   2.706   7.192  0.4367 -0.3507 -0.6225
  122MOL0     C16021   2.028   2.667   7.287 -0.1268 -0.4909 -0.4162
  122MOL0     N16022   2.355   2.834   7.645 -0.7497  0.7896  0.2363
  122MOL0     N16023   2.452   2.851   7.730  0.1768  0.2932 -0.2255
  122MOL0     C16024   3.397   3.326   8.154  0.2438  0.7238 -0.1607
  122MOL0     C16025   3.457   3.450   8.167  0.0713  0.1262 -0.3530
  122MOL0     C16026   3.604   3.870   8.156  0.0717 -0.5319  0.3625
  122MOL0     C16027   3.571   3.919   8.024  0.8031  0.8200 -0.2606
  122MOL0     C16028   3.633   4.041   7.990 -0.9502  0.0082 -0.6774
  122MOL0     C16029   3.734   4.105   8.066  0.9781 -0.6005 -0.1902
  122MOL0     O16030   3.794   4.218   8.020  0.5112 -0.1584  0.3454
  122MOL0     C16031   3.872   4.302   8.099  0.1716 -0.6116 -1.2078
  122MOL0     C16032   3.903   4.432   8.023  0.4935 -0.5237 -0.0954
  122MOL0     C16033   3.771   4.496   8.005 -0.0293  0.5042  0.6613
  122MOL0     C16034   3.737   4.546   7.862 -0.6757  0.0785  1.3744
  122MOL0     C16035   3.684   4.430   7.798  1.0307  0.1624  0.4243
  122MOL0     C16036   3.633   4.331   7.752  0.0699 -1.0839  0.0591
  122MOL0     C16037   3.768   4.056   8.186  0.1799  1.1720  0.3877
  122MOL0     C16038   3.702   3.939   8.232 -0.1014  0.3961  0.2652
  122MOL0     H16039   3.212   3.654   8.061 -0.8341 -0.0952 -0.2000
  122MOL0     H16040   3.106   3.418   8.016  0.5146 -0.5561 -2.2310
  122MOL0     H16041   3.311   3.047   8.117 -1.5677 -0.4398  0.8239
  122MOL0     H16042   3.367   3.114   7.971 -0.3466  0.8017  0.0019
  122MOL0     H16043   3.229   2.935   7.869  0.1456 -1.2361  1.1986
  122MOL0     H16044   3.114   3.073   7.883  1.4707  0.3228 -0.9563
  122MOL0     H16045   3.028   2.961   8.099 -0.2028  0.6098 -0.3684
  122MOL0     H16046   3.153   2.837   8.088  2.8440  1.3851  0.4834
  122MOL0     H16047   2.939   2.910   7.871  1.3697  1.9129  0.8482
  122MOL0     H16048   3.058   2.792   7.857 -0.0443 -0.2649  0.5494
  122MOL0     H16049   2.834   2.779   8.069  0.4754  1.7082 -1.3791
  122MOL0     H16050   2.969   2.665   8.073  2.4597 -0.1988 -0.4337
  122MOL0     H16051   2.802   2.547   7.983  1.1880  1.5708  1.3097
  122MOL0     H16052   2.909   2.587   7.844 -0.4739 -1.9960  0.0550
  122MOL0     H16053   2.753   2.772   7.777  0.8552  0.3778  0.9523
  122MOL0     H16054   2.696   2.600   7.756  2.7983 -1.3888  1.1903
  122MOL0     H16055   2.601   2.810   7.956 -0.6870  0.6010  0.2290
  122MOL0     H16056   2.558   2.642   7.965  0.9688  0.1414  0.0858
  122MOL0     H16057   2.431   2.532   7.736  0.6217  0.2392  0.0236
  122MOL0     H16058   2.280   2.538   7.507 -2.9120 -0.5821 -1.4061
  122MOL0     H16059   2.203   2.687   7.456  0.0179  0.5779  0.9566
  122MOL0     H16060   2.041   2.676   7.640  0.6867  1.0732 -2.5988
  122MOL0     H16061   2.123   2.543   7.724 -1.7532 -1.3034  0.2957
  122MOL0     H16062   2.092   2.436   7.465  1.7534  1.7586  0.2402
  122MOL0     H16063   2.013   2.402   7.613  0.0387  0.4870  1.1976
  122MOL0     H16064   1.857   2.634   7.520 -1.8402  0.8931  1.2860
  122MOL0     H16065   1.815   2.474   7.558  1.1545 -3.2421 -1.0124
  122MOL0     H16066   1.913   2.389   7.120  0.9220 -2.9759  2.0274
  122MOL0     H16067   2.060   2.456   6.963 -1.7110  2.3138 -0.9616
  122MOL0     H16068   2.542   2.606   6.919 -1.7387 -2.1307 -0.9825
  122MOL0     H16069   2.712   2.694   6.749  0.1355  1.2788 -5.5821
  122MOL0     H16070   2.724   2.871   6.361  1.2142 -1.9961 -1.2111
  122MOL0     H16071   2.569   2.911   6.426  1.3816  0.4634  0.5964
  122MOL0     H16072   2.535   2.644   6.340  2.2352 -1.7524 -0.0765
  122MOL0     H16073   2.644   2.711   6.214  1.1529  1.8475  0.6235
  122MOL0     H16074   2.490   2.895   6.183 -0.1651 -1.1802 -2.1405
  122MOL0     H16075   2.359   2.821   6.277 -0.3686  0.5047  0.4570
  122MOL0     H16076   2.474   2.770   6.009  0.3878  2.1425  1.1745
  122MOL0     H16077   2.399   2.624   6.096  0.1482  1.4598  0.0089
  122MOL0     H16078   2.277   2.905   6.084  1.9086 -0.1909  1.2614
  122MOL0     H16079   2.186   2.741   6.110  2.0285 -1.5885  1.5615
  122MOL0     H16080   2.319   2.832   5.870  2.1328 -1.2186  0.1477
  122MOL0     H16081   2.143   2.821   5.889  1.0061  0.7103  0.9575
  122MOL0     H16082   2.211   2.610   5.761 -1.5844  0.5807  1.0805
  122MOL0     H16083   2.348   2.598   5.863  0.7681  1.5525 -1.2454
  122MOL0     H16084   2.171   2.528   6.055 -1.0376 -0.2812  0.6523
  122MOL0     H16085   2.159   2.416   5.923  1.6105  0.3816 -1.6226
  122MOL0     H16086   2.386   2.742   6.483 -2.1178  0.1600  2.6418
  122MOL0     H16087   2.229   2.666   6.641 -0.1719 -1.0734  0.5539
  122MOL0     H16088   2.180   2.790   7.214 -1.9674  2.1450 -2.3446
  122MOL0     H16089   2.009   2.725   7.377 -0.3160  1.3592 -1.5957
  122MOL0     H16090   3.449   3.239   8.194 -1.4113 -0.6831 -0.9121
  122MOL0     H16091   3.559   3.439   8.202 -0.3836  0.4728  1.1456
  122MOL0     H16092   3.523   3.865   7.943 -3.3516  1.5138  1.4429
  122MOL0     H16093   3.601   4.089   7.898 -1.7031 -1.3568 -1.1505
  122MOL0     H16094   3.964   4.265   8.145 -0.5837 -2.2879 -0.9679
  122MOL0     H16095   3.811   4.327   8.186 -0.3855  1.8715 -2.2210
  122MOL0     H16096   3.972   4.494   8.080  0.8547 -1.5427  0.6177
  122MOL0     H16097   3.938   4.416   7.921 -0.2966  0.2307 -0.4966
  122MOL0     H16098   3.774   4.572   8.084  1.8058 -0.2923  1.4196
  122MOL0     H16099   3.686   4.432   8.029  0.4106 -1.7453 -3.0012
  122MOL0     H16100   3.671   4.634   7.863  0.0479  0.8816 -2.7738
  122MOL0     H16101   3.829   4.587   7.822 -1.3164  0.8391  0.6447
  122MOL0     H16102   3.573   4.246   7.725  0.4804 -1.1074 -0.7985
  122MOL0     H16103   3.842   4.108   8.245  3.1433 -1.2798 -0.9186
  122MOL0     H16104   3.745   3.906   8.326 -0.6086 -0.6585  0.1503
  123MOL0     O16105   1.445  11.175   7.991  0.3797  0.1656 -0.3409
  123MOL0     C16106   1.442  11.087   7.900  0.3801 -0.0981 -0.0061
  123MOL0     O16107   1.530  11.085   7.797  0.2678  0.2801  0.6423
  123MOL0     C16108   1.623  11.183   7.783 -0.1633  0.6894 -0.1297
  123MOL0     C16109   1.759  11.155   7.806 -0.2796  0.2887 -0.0410
  123MOL0     C16110   1.851  11.257   7.794  0.3717 -0.2931  0.5715
  123MOL0     C16111   1.819  11.398   7.764  0.0978  0.3152  0.3062
  123MOL0     O16112   1.919  11.492   7.771 -0.1972  0.5644  0.2152
  123MOL0     C16113   1.928  11.584   7.664  1.0317  0.5311  0.7449
  123MOL0     C16114   2.024  11.696   7.694 -0.7276 -0.5156  1.1624
  123MOL0     C16115   2.032  11.806   7.588  0.9363 -0.3806 -0.2289
  123MOL0     C16116   1.903  11.891   7.598  0.4222  0.3298  0.4939
  123MOL0     C16117   1.943  12.027   7.544 -0.4000 -0.2248  0.5813
  123MOL0     C16118   1.839  12.129   7.570  0.1712 -0.2868 -0.3768
  123MOL0     C16119   1.706  12.131   7.492  0.2302 -0.2624 -0.1554
  123MOL0     C16120   1.579  12.060   7.557 -0.6417  0.5185  0.4313
  123MOL0     N16121   1.561  11.921   7.513 -0.7462 -0.0349  0.2450
  123MOL0     C16122   1.577  11.871   7.387 -0.7874  0.0977 -0.6161
  123MOL0     C16123   1.560  11.737   7.396  0.2925 -0.7840 -1.3540
  123MOL0     C16124   1.539  11.644   7.274 -0.5946  0.1152  0.9197
  123MOL0     C16125   1.427  11.539   7.286  0.1194  0.3641 -0.8876
  123MOL0     C16126   1.472  11.416   7.369  0.3245  0.1612 -1.0961
  123MOL0     C16127   1.357  11.319   7.402 -0.0531  0.4894 -0.7951
  123MOL0     O16128   1.345  11.221   7.302  0.5561 -0.0782 -0.6743
  123MOL0     C16129   1.247  11.134   7.315 -0.4742 -0.4751 -0.0162
  123MOL0     C16130   1.104  11.168   7.317  0.7456  0.5434  0.5966
  123MOL0     C16131   1.008  11.079   7.366 -0.1770 -0.5238 -0.0089
  123MOL0     C16132   1.058  10.960   7.421  0.6573 -0.0612 -1.7317
  123MOL0     C16133   0.964  10.859   7.466 -0.0558  1.0670  0.2134
  123MOL0     O16134   0.993  10.723   7.442  0.5073 -0.3515  0.1109
  123MOL0     C16135   0.913  10.635   7.512  0.7756 -0.2698 -0.0399
  123MOL0     C16136   0.767  10.617   7.482 -0.0314 -0.2024 -0.3205
  123MOL0     C16137   0.703  10.511   7.548  0.0338  0.5434 -0.3479
  123MOL0     C16138   0.760  10.433   7.641 -0.9808 -0.5961 -0.5081
  123MOL0     O16139   0.702  10.333   7.703 -0.0180  0.1898 -0.8751
  123MOL0     C16140   0.658  10.364   7.840 -0.1820 -0.0102  1.2152
  123MOL0     C16141   0.731  10.291   7.953 -0.7819  0.1929  0.8593
  123MOL0     C16142   0.770  10.147   7.906  0.9607  0.5063  1.1361
  123MOL0     C16143   0.815  10.076   8.040  0.3069  0.3101  0.8324
  123MOL0     C16144   0.886   9.941   8.029 -0.3460  0.2984 -0.3938
  123MOL0     C16145   0.931   9.895   8.169  0.8289 -1.3882  0.7109
  123MOL0     C16146   0.971   9.755   8.168  0.2761 -0.3897  0.1547
  123MOL0     C16147   1.112   9.739   8.100  0.0606  0.2846  0.3104
  123MOL0    Cl16148   1.160   9.574   8.102 -0.0564  0.3552  0.8756
  123MOL0     C16149   0.895  10.448   7.660  0.5214  0.4625 -0.3892
  123MOL0     C16150   0.966  10.546   7.597 -0.9237 -1.3302  0.2229
  123MOL0     O16151   0.865  10.904   7.517  0.2234 -0.8247  0.5145
  123MOL0     C16152   1.191  10.925   7.429  0.4827  0.5126  0.4829
  123MOL0     C16153   1.290  11.017   7.381 -0.2445 -0.3070  0.4765
  123MOL0     N16154   1.545  11.710   7.532  0.7172  0.3222 -0.1391
  123MOL0     N16155   1.546  11.818   7.599 -0.6065 -0.1504  0.1429
  123MOL0     C16156   1.682  11.423   7.734 -0.9971 -0.0259 -0.4237
  123MOL0     C16157   1.590  11.311   7.732  1.0915  0.1421  0.0645
  123MOL0     C16158   1.349  10.973   7.904  0.9849  0.2543  0.3054
  123MOL0     C16159   1.227  10.987   7.973  0.2125 -0.1597 -0.0230
  123MOL0     C16160   1.141  10.877   7.975 -0.1570  0.1992 -0.8491
  123MOL0     C16161   1.161  10.758   7.894 -0.4059  0.3157  0.2302
  123MOL0     O16162   1.071  10.648   7.883  0.1135  0.2564 -0.4014
  123MOL0     C16163   0.983  10.622   7.992 -0.0120 -0.2479 -0.5955
  123MOL0     C16164   1.053  10.541   8.103  0.2812 -0.7409 -0.3255
  123MOL0     C16165   0.965  10.524   8.222 -0.0414 -1.4155 -0.9807
  123MOL0     C16166   0.930  10.670   8.282  0.8336  0.0081 -1.0980
  123MOL0     C16167   0.880  10.659   8.423  0.1644 -0.0658 -0.2637
  123MOL0     C16168   0.831  10.682   8.534 -0.2620 -0.0005 -0.3057
  123MOL0     C16169   1.269  10.760   7.799  0.4761  0.3893  0.0906
  123MOL0     C16170   1.356  10.864   7.811  0.3123 -0.6211  0.7844
  123MOL0     H16171   1.782  11.052   7.830 -1.8773 -0.3901 -1.2200
  123MOL0     H16172   1.955  11.226   7.799 -0.6414 -3.9788  1.3894
  123MOL0     H16173   1.826  11.618   7.640  0.3036 -1.4674  0.8121
  123MOL0     H16174   1.982  11.520   7.593  0.7244  1.3132 -0.2272
  123MOL0     H16175   2.126  11.659   7.705 -0.5486 -0.7432 -0.9460
  123MOL0     H16176   1.980  11.734   7.787 -2.9945  2.9943 -1.0974
  123MOL0     H16177   2.045  11.759   7.491  1.3852  1.0222 -0.8750
  123MOL0     H16178   2.117  11.871   7.612  0.2620 -0.3113  2.2625
  123MOL0     H16179   1.826  11.832   7.549  2.6283 -2.1888 -0.1776
  123MOL0     H16180   1.858  11.892   7.698 -2.4870 -2.2092 -0.6326
  123MOL0     H16181   1.956  12.024   7.435 -2.9396 -0.7547  0.2404
  123MOL0     H16182   2.034  12.063   7.592 -0.4060 -1.3617  1.4846
  123MOL0     H16183   1.884  12.225   7.543  3.9938 -1.8899 -0.3053
  123MOL0     H16184   1.815  12.135   7.677 -0.1218 -1.9036 -0.3283
  123MOL0     H16185   1.681  12.238   7.485 -2.3382 -0.8017 -0.2574
  123MOL0     H16186   1.720  12.096   7.389  1.1119  1.6359 -0.7433
  123MOL0     H16187   1.490  12.117   7.526  0.1228  0.7542 -1.4733
  123MOL0     H16188   1.569  12.074   7.665 -0.6050  4.2331  0.0725
  123MOL0     H16189   1.588  11.930   7.296  0.3095 -1.4322 -1.5282
  123MOL0     H16190   1.641  11.613   7.252 -0.6908  0.4101  0.0143
  123MOL0     H16191   1.508  11.693   7.181  1.7838 -0.1995 -0.1171
  123MOL0     H16192   1.396  11.497   7.190  1.1335  0.1418 -1.1336
  123MOL0     H16193   1.340  11.586   7.334  0.8328 -0.7672  1.6863
  123MOL0     H16194   1.539  11.365   7.299  1.5767 -0.9474  0.8097
  123MOL0     H16195   1.518  11.442   7.465 -1.2878 -4.0005  1.0320
  123MOL0     H16196   1.261  11.370   7.408 -1.0567 -1.1749 -1.9179
  123MOL0     H16197   1.358  11.281   7.505 -1.8651  1.8458 -0.2152
  123MOL0     H16198   1.073  11.266   7.283  0.8755  0.3883  0.0262
  123MOL0     H16199   0.901  11.089   7.350  0.0450 -0.5755 -1.6987
  123MOL0     H16200   0.711  10.676   7.410  1.1866 -1.4031 -2.3337
  123MOL0     H16201   0.597  10.501   7.528  0.7272 -3.3462 -3.4666
  123MOL0     H16202   0.557  10.321   7.846  1.7306 -5.4556 -0.1314
  123MOL0     H16203   0.649  10.472   7.858  0.5268  0.1397  0.7038
  123MOL0     H16204   0.686  10.291   8.053  0.9414 -0.2246  1.6759
  123MOL0     H16205   0.820  10.345   7.988 -0.6261 -1.2329  2.8318
  123MOL0     H16206   0.840  10.153   7.823  0.4933 -2.1649  0.4213
  123MOL0     H16207   0.683  10.094   7.865  3.1668 -0.6630 -2.4609
  123MOL0     H16208   0.874  10.147   8.098 -1.6512  2.6236  0.1243
  123MOL0     H16209   0.728  10.065   8.105  0.7569  2.3756  1.8674
  123MOL0     H16210   0.968   9.949   7.957  0.3126 -0.3306  0.2556
  123MOL0     H16211   0.810   9.874   7.988  0.7469 -2.4423  1.7478
  123MOL0     H16212   0.841   9.909   8.230  0.7398  0.1713  0.2828
  123MOL0     H16213   1.015   9.950   8.213  2.0508 -3.3943  1.0241
  123MOL0     H16214   0.996   9.719   8.269  3.2229 -1.6198 -0.9081
  123MOL0     H16215   0.902   9.683   8.123  0.9265 -1.4554  0.8078
  123MOL0     H16216   1.179   9.800   8.161  0.7877 -0.5643  0.3772
  123MOL0     H16217   1.111   9.783   8.000  0.0533 -2.2826 -0.9066
  123MOL0     H16218   0.951  10.393   7.736 -1.5424 -2.2565 -0.7140
  123MOL0     H16219   1.072  10.561   7.615 -0.9358 -0.9201 -0.0493
  123MOL0     H16220   1.233  10.833   7.468  3.2096  1.0657 -0.8856
  123MOL0     H16221   1.395  10.990   7.390 -0.0339 -0.0000 -0.9044
  123MOL0     H16222   1.649  11.525   7.714  0.7521  0.8538  0.9108
  123MOL0     H16223   1.490  11.320   7.689  0.1879 -2.3417  1.4487
  123MOL0     H16224   1.209  11.082   8.022 -0.5719  0.4097 -1.3652
  123MOL0     H16225   1.052  10.881   8.036 -0.9894 -1.2785 -1.8960
  123MOL0     H16226   0.892  10.579   7.948  0.6016 -0.9613 -1.2036
  123MOL0     H16227   0.944  10.712   8.039  1.2795 -1.0197  2.1878
  123MOL0     H16228   1.077  10.439   8.071  0.9030 -1.3695  1.9522
  123MOL0     H16229   1.145  10.579   8.149 -0.4967 -2.0513  2.5864
  123MOL0     H16230   1.014  10.474   8.307  1.1249  0.6321 -0.3686
  123MOL0     H16231   0.871  10.476   8.195 -0.6479 -1.3393  0.8664
  123MOL0     H16232   1.009  10.746   8.289 -0.3536  1.2723 -1.0053
  123MOL0     H16233   0.845  10.711   8.227 -1.2516 -1.0659  1.1431
  123MOL0     H16234   0.786  10.691   8.631  1.9056 -0.6049  0.8261
  123MOL0     H16235   1.283  10.681   7.726 -1.0506 -0.4398  0.6607
  123MOL0     H16236   1.450  10.867   7.756 -0.3391  2.5010 -0.4093
  124MOL0     O16237   3.711   3.597   5.578 -0.0197 -0.0030 -0.1752
  124MOL0     C16238   3.698   3.712   5.549  0.3502  0.2183  0.3611
  124MOL0     O16239   3.604   3.796   5.607 -0.5757  0.4219  1.1622
  124MOL0     C16240   3.493   3.754   5.668  0.4939 -0.4699  0.3301
  124MOL0     C16241   3.398   3.858   5.683 -0.5206  0.4165  1.1056
  124MOL0     C16242   3.275   3.848   5.745 -0.7583 -0.6385 -0.2147
  124MOL0     C16243   3.231   3.719   5.781  0.5569  0.0617  0.0333
  124MOL0     O16244   3.104   3.695   5.809  0.5987 -0.6537 -0.7331
  124MOL0     C16245   3.023   3.798   5.863 -0.2442  0.0559  0.4092
  124MOL0     C16246   2.901   3.714   5.910  0.6713 -0.8453  0.5487
  124MOL0     C16247   2.810   3.797   6.015  0.7049 -0.1382 -1.2590
  124MOL0     C16248   2.888   3.825   6.152  0.7069  0.2887 -0.2666
  124MOL0     C16249   2.831   3.938   6.234 -0.2339  0.3217 -0.6316
  124MOL0     C16250   2.867   3.943   6.385 -0.7822  0.6163 -0.4306
  124MOL0     C16251   2.783   4.035   6.464 -0.5775  0.1650 -0.5233
  124MOL0     C16252   2.830   4.050   6.609 -0.3405 -0.5054  0.6985
  124MOL0     N16253   2.780   4.168   6.685  0.1410  0.6775  0.5278
  124MOL0     C16254   2.718   4.147   6.808 -1.1026  0.0215 -0.3018
  124MOL0     C16255   2.697   4.270   6.844  0.0696 -0.5131 -0.6454
  124MOL0     C16256   2.638   4.331   6.973  0.1846 -0.0366 -0.0531
  124MOL0     C16257   2.500   4.278   7.012  0.0719 -0.3196  0.5215
  124MOL0     C16258   2.447   4.368   7.124  0.3792 -0.4408  0.4847
  124MOL0     C16259   2.506   4.339   7.269 -0.7863  0.1224 -0.4329
  124MOL0     O16260   2.445   4.215   7.308  0.4862 -0.6092  0.8314
  124MOL0     C16261   2.469   4.162   7.432 -0.5489 -0.2087  0.1416
  124MOL0     C16262   2.382   4.050   7.474 -0.2324 -0.2719  0.5989
  124MOL0     C16263   2.407   3.977   7.590 -0.8994  0.5974  0.2046
  124MOL0     C16264   2.530   4.000   7.654 -1.5805  0.2816  0.2351
  124MOL0     C16265   2.557   3.922   7.773  1.6037  0.3936 -0.2214
  124MOL0     O16266   2.462   3.823   7.813 -0.1315 -0.4195  1.0429
  124MOL0     C16267   2.486   3.760   7.932  0.4278  0.7835 -1.0375
  124MOL0     C16268   2.485   3.835   8.049 -0.6698 -1.5072 -0.1980
  124MOL0     C16269   2.496   3.772   8.173 -0.1203  0.3288  0.1089
  124MOL0     C16270   2.521   3.638   8.184 -0.1950  1.4185 -0.0159
  124MOL0     O16271   2.522   3.581   8.312 -0.5637  0.4742 -0.0514
  124MOL0     C16272   2.547   3.442   8.346  0.3290  0.0034  0.2718
  124MOL0     C16273   2.460   3.399   8.461  0.4413 -0.1925  0.2395
  124MOL0     C16274   2.523   3.451   8.587 -0.3000 -0.0548 -0.5167
  124MOL0     C16275   2.447   3.400   8.715  0.4174  0.9327 -0.7925
  124MOL0     C16276   2.536   3.369   8.839  0.7724 -0.5025 -0.2036
  124MOL0     C16277   2.483   3.256   8.936 -0.3336  0.5957  0.2662
  124MOL0     C16278   2.332   3.243   8.963 -0.2915  0.6078  0.0744
  124MOL0     C16279   2.319   3.149   9.085  0.1880  0.4435 -0.2916
  124MOL0    Cl16280   2.365   3.238   9.227  0.2670 -0.3780  0.1030
  124MOL0     C16281   2.528   3.563   8.068  0.6936  0.2173  0.9182
  124MOL0     C16282   2.498   3.622   7.940 -1.5009 -0.1161 -0.3458
  124MOL0     O16283   2.655   3.960   7.847 -0.2521  0.2737  0.2606
  124MOL0     C16284   2.604   4.117   7.625 -0.3237  0.2314  1.3362
  124MOL0     C16285   2.580   4.199   7.511  0.7516  0.3481 -0.4575
  124MOL0     N16286   2.736   4.359   6.744  0.0407  0.3388 -1.1383
  124MOL0     N16287   2.777   4.296   6.637 -0.1206 -0.0336  0.1152
  124MOL0     C16288   3.318   3.615   5.777 -0.0998  0.1410  0.2401
  124MOL0     C16289   3.446   3.631   5.717  0.2388 -0.8777  0.5217
  124MOL0     C16290   3.806   3.769   5.464 -1.1021 -0.8311  0.0766
  124MOL0     C16291   3.801   3.894   5.412 -0.0084  0.2824  0.4715
  124MOL0     C16292   3.910   3.937   5.333 -0.6909 -0.0066  0.6362
  124MOL0     C16293   4.022   3.856   5.314  0.5368 -0.0802 -0.2856
  124MOL0     O16294   4.128   3.895   5.235  0.6197  0.8325 -0.5183
  124MOL0     C16295   4.118   4.023   5.168 -0.6660  0.6070 -0.4922
  124MOL0     C16296   4.252   4.070   5.111  0.6913 -0.2499  1.1427
  124MOL0     C16297   4.301   3.980   4.996 -0.0348  0.4817 -0.1393
  124MOL0     C16298   4.387   4.044   4.892 -0.3713 -0.3604 -0.3419
  124MOL0     C16299   4.387   3.964   4.772  0.0131 -0.0818  0.2164
  124MOL0     C16300   4.385   3.884   4.671 -0.2497  0.0149  0.0672
  124MOL0     C16301   4.020   3.726   5.356  0.3495  0.6011  0.1665
  124MOL0     C16302   3.913   3.680   5.437 -0.2255  0.0991  0.5446
  124MOL0     H16303   3.433   3.956   5.651 -2.7488  0.0129 -3.3232
  124MOL0     H16304   3.209   3.934   5.741  1.3917  1.0856 -2.8527
  124MOL0     H16305   3.008   3.877   5.788 -1.1822  0.1095  0.6429
  124MOL0     H16306   3.070   3.857   5.942  0.9246  2.8672 -2.1772
  124MOL0     H16307   2.920   3.623   5.968  2.8274 -0.9842 -0.2956
  124MOL0     H16308   2.835   3.696   5.824  1.1542  2.3674 -0.6618
  124MOL0     H16309   2.724   3.730   6.024  0.4874  0.3802  1.6124
  124MOL0     H16310   2.775   3.892   5.974  1.9442 -0.3037 -2.8256
  124MOL0     H16311   2.879   3.733   6.211 -0.4693 -1.7220 -3.3140
  124MOL0     H16312   2.994   3.842   6.132  1.5551 -1.9076  1.9412
  124MOL0     H16313   2.724   3.916   6.231  0.3171 -2.7754 -0.7293
  124MOL0     H16314   2.855   4.034   6.186  0.4146  0.2284 -0.5069
  124MOL0     H16315   2.974   3.967   6.389 -0.6509  1.4329 -4.5914
  124MOL0     H16316   2.846   3.845   6.430  0.0735  0.3597 -0.5625
  124MOL0     H16317   2.774   4.127   6.405 -0.2219  1.1056  0.8558
  124MOL0     H16318   2.682   3.994   6.470 -1.2419  1.8876  3.2718
  124MOL0     H16319   2.939   4.060   6.614 -0.2341  0.8598 -2.3797
  124MOL0     H16320   2.804   3.956   6.658 -0.5069 -1.0455 -0.4205
  124MOL0     H16321   2.693   4.048   6.843  0.4709 -1.1981 -2.3917
  124MOL0     H16322   2.618   4.438   6.964 -1.0444 -0.1594  0.9544
  124MOL0     H16323   2.708   4.317   7.056  1.2883  2.5192 -0.4594
  124MOL0     H16324   2.503   4.175   7.047 -1.8523 -0.6030 -0.0064
  124MOL0     H16325   2.433   4.275   6.925  0.5396 -0.3208  0.1571
  124MOL0     H16326   2.450   4.472   7.090  0.5774 -0.0379  1.7087
  124MOL0     H16327   2.340   4.353   7.139  0.7640 -1.0134  3.0567
  124MOL0     H16328   2.470   4.410   7.344 -0.1286 -0.6654  0.6552
  124MOL0     H16329   2.613   4.319   7.269 -1.3059 -3.3671 -1.4344
  124MOL0     H16330   2.304   4.024   7.403  0.8847 -1.2760 -0.2933
  124MOL0     H16331   2.338   3.898   7.618 -0.8968 -0.1613 -1.7550
  124MOL0     H16332   2.463   3.941   8.043  0.6752 -0.7282  4.4738
  124MOL0     H16333   2.483   3.835   8.261  0.5247  1.4921 -0.5999
  124MOL0     H16334   2.652   3.419   8.366 -0.2847 -5.5752 -1.1659
  124MOL0     H16335   2.537   3.376   8.259 -1.8158 -0.4229  0.7816
  124MOL0     H16336   2.445   3.291   8.450  0.8355 -0.1187 -1.2501
  124MOL0     H16337   2.360   3.440   8.450  0.6958  0.8242  1.5177
  124MOL0     H16338   2.506   3.559   8.594 -3.7974 -0.5135 -0.0190
  124MOL0     H16339   2.628   3.423   8.592  0.2306  1.8003 -0.5214
  124MOL0     H16340   2.375   3.478   8.743  0.3174  1.5425 -2.5918
  124MOL0     H16341   2.386   3.312   8.694 -0.7674  2.0983 -2.4823
  124MOL0     H16342   2.541   3.464   8.893 -1.4540 -0.8625  0.7788
  124MOL0     H16343   2.641   3.352   8.815  1.9458  1.3515  2.9687
  124MOL0     H16344   2.549   3.248   9.024  1.5714 -0.1232 -1.1543
  124MOL0     H16345   2.497   3.163   8.882 -0.6757  0.2855  0.7058
  124MOL0     H16346   2.280   3.339   8.976  2.7066  2.6320 -1.5742
  124MOL0     H16347   2.288   3.175   8.889 -1.3803 -1.7473  2.7047
  124MOL0     H16348   2.372   3.057   9.061  1.1389  0.1966  2.4771
  124MOL0     H16349   2.213   3.124   9.099 -0.0397  2.0649  1.1331
  124MOL0     H16350   2.546   3.456   8.062 -0.4430  0.1223 -2.1433
  124MOL0     H16351   2.508   3.563   7.850 -0.8146  1.0066 -1.0318
  124MOL0     H16352   2.693   4.144   7.682 -0.2596  3.3975 -0.0220
  124MOL0     H16353   2.648   4.276   7.476  2.3193 -0.4685  0.7064
  124MOL0     H16354   3.291   3.523   5.827 -1.2674 -0.4458 -1.3998
  124MOL0     H16355   3.525   3.557   5.721  0.5515 -0.6335 -0.6633
  124MOL0     H16356   3.720   3.962   5.434  1.1497  1.3991  1.4015
  124MOL0     H16357   3.913   4.042   5.305  2.9163 -0.5301 -1.6304
  124MOL0     H16358   4.115   4.094   5.250 -1.6653 -0.5688  0.5296
  124MOL0     H16359   4.032   4.023   5.101 -2.8512  0.1650  2.1455
  124MOL0     H16360   4.237   4.170   5.070 -0.6522 -0.1717  1.7597
  124MOL0     H16361   4.334   4.084   5.182  1.0562 -0.0500  0.6880
  124MOL0     H16362   4.213   3.928   4.957 -0.5365  0.3443  1.1328
  124MOL0     H16363   4.352   3.889   5.030 -0.2061  0.2477 -0.4922
  124MOL0     H16364   4.358   4.148   4.875  3.1515  0.7108 -0.6013
  124MOL0     H16365   4.488   4.043   4.935 -0.6554  0.7386  0.3858
  124MOL0     H16366   4.371   3.813   4.592 -0.1143  1.2952 -1.1480
  124MOL0     H16367   4.110   3.670   5.333  0.7320  1.2755 -0.0124
  124MOL0     H16368   3.909   3.579   5.478 -1.0561  0.2650  0.8992
  125MOL0     O16369   3.887   5.548   1.737  0.2461  0.4249  0.2272
  125MOL0     C16370   3.787   5.533   1.665 -0.1231 -0.3674 -0.4149
  125MOL0     O16371   3.677   5.615   1.655 -0.1202 -0.4105  0.5989
  125MOL0     C16372   3.675   5.727   1.734 -0.4890  0.7003  0.5377
  125MOL0     C16373   3.632   5.850   1.674 -0.3956  0.5043  0.2290
  125MOL0     C16374   3.634   5.973   1.739 -0.0057  0.1201  0.4399
  125MOL0     C16375   3.686   5.976   1.867  0.5991  0.6938 -0.5563
  125MOL0     O16376   3.693   6.087   1.942 -0.9268 -0.6030 -0.1872
  125MOL0     C16377   3.586   6.183   1.941  0.3940  0.3424  0.5495
  125MOL0     C16378   3.602   6.267   2.069  0.9784  0.2853  0.6038
  125MOL0     C16379   3.749   6.328   2.071 -0.3982 -1.3523  0.4051
  125MOL0     C16380   3.749   6.410   2.206 -0.0575 -0.4269  0.5079
  125MOL0     C16381   3.874   6.505   2.206  0.7270 -0.7492  0.6523
  125MOL0     C16382   3.915   6.535   2.348 -0.3533  0.6134 -0.2254
  125MOL0     C16383   3.803   6.593   2.434  0.6933 -0.4044 -0.1977
  125MOL0     C16384   3.838   6.640   2.576 -0.4089 -0.4962 -0.7430
  125MOL0     N16385   3.843   6.529   2.662 -0.3801 -0.2515  0.3557
  125MOL0     C16386   3.742   6.453   2.711 -0.1177  0.3854  0.1277
  125MOL0     C16387   3.805   6.364   2.791  0.6961 -0.4832  1.0826
  125MOL0     C16388   3.743   6.249   2.858 -0.0299  0.5418  0.0001
  125MOL0     C16389   3.791   6.248   3.003 -0.0512 -1.2663  0.5082
  125MOL0     C16390   3.745   6.121   3.065  1.4516 -0.8569  0.4972
  125MOL0     C16391   3.793   6.109   3.211 -0.5743 -0.4066 -0.0173
  125MOL0     O16392   3.685   6.106   3.308 -0.7569 -0.5773 -0.5018
  125MOL0     C16393   3.622   5.984   3.349  0.8703 -0.4545  0.2181
  125MOL0     C16394   3.697   5.871   3.361  0.3529  0.8521  0.4468
  125MOL0     C16395   3.633   5.757   3.404 -0.1629 -0.0760  0.6879
  125MOL0     C16396   3.506   5.755   3.446 -0.8979 -0.0650 -1.3401
  125MOL0     C16397   3.449   5.632   3.516  0.3456 -0.3317 -0.4538
  125MOL0     O16398   3.514   5.515   3.532  0.1351  0.4065 -0.9782
  125MOL0     C16399   3.441   5.403   3.566 -0.2937  0.9701  0.6163
  125MOL0     C16400   3.354   5.340   3.479  0.1777  0.1292  0.2812
  125MOL0     C16401   3.282   5.231   3.526 -0.2519  0.0285 -0.3040
  125MOL0     C16402   3.299   5.175   3.653 -0.2927  0.6694  0.1120
  125MOL0     O16403   3.234   5.058   3.693 -0.3994 -0.3790 -0.5001
  125MOL0     C16404   3.166   4.969   3.611  0.4029  0.5344 -0.3431
  125MOL0     C16405   3.136   4.838   3.690  0.5570 -0.0277  0.3979
  125MOL0     C16406   3.096   4.724   3.596 -0.1206  0.3097  0.6037
  125MOL0     C16407   3.078   4.594   3.667  0.4570  0.0090  1.0335
  125MOL0     C16408   3.098   4.482   3.560 -0.1336  0.1149 -0.2932
  125MOL0     C16409   3.051   4.348   3.614  0.7292  0.0006 -0.3637
  125MOL0     C16410   3.086   4.229   3.529 -0.6443  0.2479  0.1157
  125MOL0     C16411   3.044   4.091   3.582 -0.2698  0.1046 -0.0633
  125MOL0    Cl16412   2.881   4.084   3.641  0.4652 -0.3802 -0.3205
  125MOL0     C16413   3.394   5.230   3.736 -0.2227  0.0402  0.0410
  125MOL0     C16414   3.466   5.349   3.691  0.5643  0.8682  0.5668
  125MOL0     O16415   3.329   5.640   3.550 -0.2739 -0.4922 -0.2897
  125MOL0     C16416   3.428   5.869   3.428 -0.2717 -0.1373 -0.1986
  125MOL0     C16417   3.490   5.985   3.379  0.0024  0.1325 -1.1644
  125MOL0     N16418   3.936   6.391   2.790 -1.2253 -0.3589  0.0017
  125MOL0     N16419   3.961   6.485   2.707  0.5411 -0.0755 -0.8225
  125MOL0     C16420   3.731   5.858   1.924 -0.3725  0.0950  0.3177
  125MOL0     C16421   3.723   5.736   1.866  0.4472 -0.7926  0.3779
  125MOL0     C16422   3.774   5.410   1.592 -0.6380 -0.3318 -0.3575
  125MOL0     C16423   3.869   5.302   1.626 -0.5877  0.0908 -0.4550
  125MOL0     C16424   3.854   5.177   1.556  0.2183  0.1820 -0.5237
  125MOL0     C16425   3.756   5.165   1.452 -0.7681  0.1420  0.6000
  125MOL0     O16426   3.745   5.055   1.372 -0.0147  0.1632  0.5958
  125MOL0     C16427   3.860   4.961   1.360 -0.4522 -0.4486 -0.3146
  125MOL0     C16428   3.819   4.835   1.282  0.6320 -0.7888 -1.0295
  125MOL0     C16429   3.926   4.724   1.292  0.3857  0.4876 -1.2670
  125MOL0     C16430   3.934   4.638   1.165 -0.4868 -0.4811  0.3160
  125MOL0     C16431   3.814   4.607   1.091  0.6402 -0.3950  1.3633
  125MOL0     C16432   3.718   4.573   1.024 -0.1276  0.9983  0.7904
  125MOL0     C16433   3.662   5.263   1.439  0.5705 -1.0794  0.6620
  125MOL0     C16434   3.663   5.381   1.514 -0.2062 -0.5464  0.2823
  125MOL0     H16435   3.600   5.849   1.570  3.0159  1.1352 -0.9571
  125MOL0     H16436   3.590   6.057   1.686  0.3995  0.8064  1.1653
  125MOL0     H16437   3.482   6.148   1.948 -0.6535  3.2216  0.5932
  125MOL0     H16438   3.595   6.259   1.863 -0.5084  0.1517  0.2472
  125MOL0     H16439   3.582   6.199   2.152  1.1901  0.1352  0.5307
  125MOL0     H16440   3.527   6.347   2.067  0.8287  0.1304 -0.6685
  125MOL0     H16441   3.769   6.411   2.003  1.3464  0.3906  2.8689
  125MOL0     H16442   3.826   6.251   2.080  0.9707 -0.1724 -0.7552
  125MOL0     H16443   3.658   6.468   2.223 -0.6165 -0.8619 -0.8397
  125MOL0     H16444   3.754   6.332   2.282 -0.5096  0.0095  0.9869
  125MOL0     H16445   3.858   6.602   2.159  1.6878 -1.7426 -1.8624
  125MOL0     H16446   3.958   6.462   2.151  0.4681  1.1737 -1.3560
  125MOL0     H16447   3.999   6.605   2.346  0.2796 -0.1300 -0.4565
  125MOL0     H16448   3.958   6.444   2.392  2.9944  1.0513 -2.2677
  125MOL0     H16449   3.771   6.688   2.391 -3.7691 -1.8647 -0.7014
  125MOL0     H16450   3.715   6.527   2.426  1.9315 -2.1864  0.2398
  125MOL0     H16451   3.769   6.710   2.624  1.2243  1.0867 -0.5759
  125MOL0     H16452   3.930   6.700   2.583 -3.5689  4.7193  2.0436
  125MOL0     H16453   3.638   6.455   2.680 -0.2287 -3.5871 -0.2808
  125MOL0     H16454   3.780   6.160   2.806  0.7999  0.8247  0.0921
  125MOL0     H16455   3.635   6.243   2.843 -0.1256 -0.5855  1.0463
  125MOL0     H16456   3.773   6.342   3.056  0.8838 -0.3403 -0.7449
  125MOL0     H16457   3.901   6.250   2.998  0.0588 -3.3282  1.1649
  125MOL0     H16458   3.636   6.131   3.064  1.4913 -0.3457 -0.8259
  125MOL0     H16459   3.771   6.034   3.004  3.5182 -2.6144  3.6070
  125MOL0     H16460   3.859   6.195   3.227  2.0696 -1.8787 -2.2589
  125MOL0     H16461   3.864   6.029   3.230  0.8947  1.1602  1.4885
  125MOL0     H16462   3.804   5.865   3.347  0.0813  2.3643 -3.5023
  125MOL0     H16463   3.686   5.665   3.429 -2.1937 -0.5872  3.6192
  125MOL0     H16464   3.351   5.392   3.384  1.7690 -1.7957 -0.8787
  125MOL0     H16465   3.202   5.183   3.470 -0.1454  0.3813 -0.7648
  125MOL0     H16466   3.234   4.938   3.531 -0.6300  0.7662 -1.3358
  125MOL0     H16467   3.076   5.008   3.564 -0.0533 -1.7795 -1.5710
  125MOL0     H16468   3.061   4.856   3.767  1.7994 -0.6320  1.8184
  125MOL0     H16469   3.231   4.797   3.726  1.1664  0.7400 -0.2937
  125MOL0     H16470   3.165   4.703   3.514 -1.4118 -4.4397  0.3920
  125MOL0     H16471   3.002   4.755   3.551  0.0519  0.1613  0.1359
  125MOL0     H16472   3.147   4.568   3.748  1.3645 -1.1719 -0.0688
  125MOL0     H16473   2.978   4.594   3.710 -0.2092  1.7410 -0.3923
  125MOL0     H16474   3.205   4.486   3.538 -0.3044 -0.4896 -1.3191
  125MOL0     H16475   3.047   4.501   3.465 -0.9881  1.1674  0.3652
  125MOL0     H16476   2.941   4.343   3.617  0.7226 -0.3821 -1.0714
  125MOL0     H16477   3.075   4.331   3.719  2.5680  0.4732 -0.6819
  125MOL0     H16478   3.053   4.223   3.425  4.5333  0.3112 -1.8344
  125MOL0     H16479   3.195   4.234   3.524 -0.5220 -0.8688  1.1310
  125MOL0     H16480   3.121   4.067   3.656  0.5922 -1.7183 -1.4712
  125MOL0     H16481   3.040   4.015   3.503  0.5677 -0.0763  0.0538
  125MOL0     H16482   3.417   5.175   3.827 -1.3881  1.4117  1.2134
  125MOL0     H16483   3.541   5.395   3.755  1.7298 -0.8092  0.4833
  125MOL0     H16484   3.321   5.870   3.444 -0.4536  1.5381 -1.3005
  125MOL0     H16485   3.429   6.074   3.367 -1.1564 -0.5252 -0.3886
  125MOL0     H16486   3.772   5.854   2.024 -1.9415  0.2234  0.9988
  125MOL0     H16487   3.770   5.655   1.921  2.1681  1.2065  2.0225
  125MOL0     H16488   3.955   5.310   1.692 -1.1686 -1.9168  0.6186
  125MOL0     H16489   3.923   5.095   1.571  0.0155  0.2853  1.1401
  125MOL0     H16490   3.884   4.926   1.462 -3.5005 -1.6243  0.0871
  125MOL0     H16491   3.952   5.000   1.316 -2.0575  1.1073 -2.4708
  125MOL0     H16492   3.727   4.789   1.320 -0.0531 -0.5432 -2.3388
  125MOL0     H16493   3.806   4.873   1.180  0.5467  0.7329 -0.4775
  125MOL0     H16494   3.909   4.648   1.370  1.4356 -0.2515 -1.7411
  125MOL0     H16495   4.023   4.764   1.322  0.4494 -2.0637  2.8818
  125MOL0     H16496   3.991   4.698   1.092 -1.0670  0.5093  0.6507
  125MOL0     H16497   3.989   4.547   1.189  3.3493  0.8007 -2.4767
  125MOL0     H16498   3.638   4.543   0.958 -0.2002  2.2243  0.3046
  125MOL0     H16499   3.588   5.255   1.361  1.7820  0.9388 -0.7925
  125MOL0     H16500   3.583   5.455   1.507  0.2118 -0.1623 -0.5710
  126MOL0     O16501  10.667   7.856   9.604  0.3895 -0.0987  0.1071
  126MOL0     C16502  10.680   7.835   9.726 -0.1740 -1.1027 -0.2865
  126MOL0     O16503  10.774   7.749   9.773  0.1604  0.0485 -1.1796
  126MOL0     C16504  10.872   7.687   9.700  0.3663 -0.4340  0.7131
  126MOL0     C16505  10.910   7.713   9.568  0.1332 -0.1677 -0.9906
  126MOL0     C16506  11.010   7.651   9.504  0.3380  1.4448  0.1047
  126MOL0     C16507  11.073   7.540   9.567 -0.1405  0.3940  0.3183
  126MOL0     O16508  11.174   7.464   9.508  0.6750  0.3018 -0.0689
  126MOL0     C16509  11.190   7.472   9.364 -0.6347 -0.4963 -0.1299
  126MOL0     C16510  11.251   7.336   9.326  0.9034 -0.5148 -0.7108
  126MOL0     C16511  11.237   7.288   9.181 -0.9699 -0.6824  0.2433
  126MOL0     C16512  11.332   7.180   9.124 -0.5772  0.2456 -0.2039
  126MOL0     C16513  11.318   7.157   8.972  0.0446  0.5823  0.0139
  126MOL0     C16514  11.445   7.068   8.935 -0.1999 -0.2137  0.3636
  126MOL0     C16515  11.445   7.031   8.785  0.7790  0.1683  1.1471
  126MOL0     C16516  11.338   6.924   8.738  0.7556 -0.2566  1.2799
  126MOL0     N16517  11.329   6.917   8.589  0.2377 -0.1970 -0.4563
  126MOL0     C16518  11.421   6.883   8.493  0.1756 -0.7163 -0.3031
  126MOL0     C16519  11.362   6.924   8.383 -1.9218  0.0348 -0.2515
  126MOL0     C16520  11.408   6.879   8.237  0.7382  0.5711 -0.3966
  126MOL0     C16521  11.301   6.784   8.182 -0.1094 -0.0423 -0.4731
  126MOL0     C16522  11.285   6.655   8.266 -0.1771  0.7285  0.0462
  126MOL0     C16523  11.158   6.577   8.222  0.4077 -0.1319  0.2258
  126MOL0     O16524  11.150   6.467   8.318 -0.5446  0.2452 -0.4126
  126MOL0     C16525  11.042   6.378   8.341 -1.4460 -0.4739  0.8205
  126MOL0     C16526  11.052   6.277   8.435 -0.2965 -0.0066 -0.3204
  126MOL0     C16527  10.938   6.190   8.456 -0.6364 -0.2853 -0.1121
  126MOL0     C16528  10.823   6.208   8.377  0.1085 -0.0622  1.7521
  126MOL0     C16529  10.694   6.142   8.401  0.4426  0.2860 -0.0310
  126MOL0     O16530  10.595   6.161   8.304 -0.3994 -0.2611 -0.7828
  126MOL0     C16531  10.483   6.081   8.327  0.0848 -0.0359  0.4925
  126MOL0     C16532  10.473   5.956   8.265  0.9667 -0.1604 -0.9773
  126MOL0     C16533  10.370   5.863   8.285 -0.5449 -0.7376 -0.0517
  126MOL0     C16534  10.288   5.883   8.398  1.2913 -0.6727  0.0953
  126MOL0     O16535  10.188   5.796   8.438  0.9401  0.1160 -1.0334
  126MOL0     C16536  10.194   5.665   8.386  1.1401 -0.5075  0.0962
  126MOL0     C16537  10.076   5.581   8.447  0.0284  0.0921  0.7328
  126MOL0     C16538  10.080   5.584   8.595 -1.1120  1.2994 -0.2608
  126MOL0     C16539  10.033   5.445   8.655 -0.0981 -0.0164  0.3890
  126MOL0     C16540   9.886   5.437   8.676 -0.0261 -0.0210 -0.7123
  126MOL0     C16541   9.852   5.319   8.773 -0.5319  0.1815  0.2773
  126MOL0     C16542   9.905   5.186   8.727  0.4951  0.1523  0.2957
  126MOL0     C16543   9.867   5.069   8.826  0.0949 -0.3991  1.1795
  126MOL0    Cl16544   9.946   4.922   8.775  0.3318 -0.2329  0.0690
  126MOL0     C16545  10.291   6.007   8.469 -0.0775 -0.0297  0.7290
  126MOL0     C16546  10.391   6.101   8.432 -0.3272 -0.0820  0.3681
  126MOL0     O16547  10.683   6.066   8.500  0.2362 -0.1482 -0.6632
  126MOL0     C16548  10.824   6.319   8.286  0.4193 -1.1505 -0.8778
  126MOL0     C16549  10.932   6.398   8.269 -0.2747 -0.2255 -0.1557
  126MOL0     N16550  11.244   6.999   8.407 -0.5272  0.0652  0.3344
  126MOL0     N16551  11.233   6.998   8.536  0.2693 -0.2467 -0.5278
  126MOL0     C16552  11.036   7.500   9.692  0.4063  0.3254 -0.2802
  126MOL0     C16553  10.931   7.574   9.757 -1.1636  0.5228 -1.1884
  126MOL0     C16554  10.576   7.902   9.814 -0.0850  0.6774 -0.2045
  126MOL0     C16555  10.449   7.940   9.761 -0.4637  0.9540 -0.9820
  126MOL0     C16556  10.355   7.980   9.858 -0.6024 -0.0248 -0.6110
  126MOL0     C16557  10.385   7.973   9.998  0.2197 -0.3546  0.3003
  126MOL0     O16558  10.311   8.033  10.096 -0.0711  0.0118 -0.2653
  126MOL0     C16559  10.171   8.039  10.093  0.1122 -0.1349 -0.6492
  126MOL0     C16560  10.106   7.907  10.125 -0.0656 -0.2601  0.0479
  126MOL0     C16561  10.116   7.849  10.271  0.7068  0.0803 -1.0119
  126MOL0     C16562  10.265   7.800  10.299 -0.0098  0.0254 -0.2166
  126MOL0     C16563  10.276   7.717  10.421 -0.0512  0.6372  0.8567
  126MOL0     C16564  10.278   7.635  10.513 -0.0619 -0.3562  0.1314
  126MOL0     C16565  10.507   7.929  10.042  0.0670  0.8294 -0.5663
  126MOL0     C16566  10.603   7.899   9.958  0.2780  0.1362  0.7679
  126MOL0     H16567  10.867   7.795   9.512  1.3688 -0.6538 -2.7160
  126MOL0     H16568  11.051   7.668   9.405 -0.7690 -1.1057 -0.8912
  126MOL0     H16569  11.262   7.552   9.343  2.2370 -2.7075  0.6625
  126MOL0     H16570  11.090   7.476   9.321 -1.2047 -1.1498  1.0863
  126MOL0     H16571  11.194   7.271   9.392  1.0679  0.4664  0.4332
  126MOL0     H16572  11.358   7.346   9.348  0.9107  1.2344 -1.3908
  126MOL0     H16573  11.258   7.379   9.124  1.7192 -1.3790 -0.0207
  126MOL0     H16574  11.133   7.263   9.160 -0.7650 -2.7109  1.3615
  126MOL0     H16575  11.433   7.217   9.143  0.8632 -2.6832 -1.5959
  126MOL0     H16576  11.297   7.086   9.167 -3.2873  0.8187 -0.9152
  126MOL0     H16577  11.318   7.248   8.910 -0.1418  1.0547  0.6969
  126MOL0     H16578  11.226   7.102   8.950  0.4881  0.7170 -2.5165
  126MOL0     H16579  11.438   6.969   8.982  3.1072 -0.5189  0.4552
  126MOL0     H16580  11.541   7.111   8.964  0.5229 -1.0570 -0.6595
  126MOL0     H16581  11.427   7.122   8.727 -1.3710 -0.8976  0.0661
  126MOL0     H16582  11.549   7.004   8.762  2.1499  4.0801  1.9619
  126MOL0     H16583  11.243   6.951   8.786 -1.9887 -2.0764 -2.5359
  126MOL0     H16584  11.377   6.830   8.778  0.5755 -1.1217 -0.4740
  126MOL0     H16585  11.512   6.826   8.507  0.9798  0.0248 -2.2188
  126MOL0     H16586  11.512   6.843   8.231  0.1615 -0.9683 -3.3945
  126MOL0     H16587  11.414   6.963   8.167  1.3486 -0.8610 -2.1596
  126MOL0     H16588  11.322   6.764   8.077  0.2592 -0.8617 -0.2549
  126MOL0     H16589  11.206   6.837   8.196 -2.1812 -3.8067  1.5447
  126MOL0     H16590  11.369   6.587   8.250 -1.4341 -1.3754  1.8221
  126MOL0     H16591  11.286   6.682   8.372  2.1402  0.5611  0.1150
  126MOL0     H16592  11.160   6.540   8.120  3.4047  2.8162 -0.9950
  126MOL0     H16593  11.076   6.647   8.243  1.8256  1.3412  1.1761
  126MOL0     H16594  11.140   6.289   8.498 -0.8583  0.9231  0.3139
  126MOL0     H16595  10.947   6.100   8.517  2.8342 -0.3040 -0.4707
  126MOL0     H16596  10.558   5.931   8.202  2.2748 -1.7257  1.2193
  126MOL0     H16597  10.349   5.778   8.221 -0.4164 -0.1431 -0.8960
  126MOL0     H16598  10.283   5.605   8.406 -0.9101 -3.8391  0.0070
  126MOL0     H16599  10.195   5.662   8.276 -0.2321 -1.1238  0.0806
  126MOL0     H16600  10.089   5.481   8.406  1.6879  0.6662 -0.2670
  126MOL0     H16601   9.987   5.616   8.393  2.4532  2.9914 -1.8139
  126MOL0     H16602  10.013   5.662   8.631  0.2188  2.7533 -0.8035
  126MOL0     H16603  10.183   5.592   8.633 -1.3529 -0.5685  0.8774
  126MOL0     H16604  10.071   5.366   8.589 -1.6857 -0.6012  0.1326
  126MOL0     H16605  10.088   5.423   8.747  1.8046  0.2650 -0.6364
  126MOL0     H16606   9.841   5.429   8.577  2.3835  1.2800 -2.0088
  126MOL0     H16607   9.856   5.532   8.722 -1.5284  0.5038 -2.6504
  126MOL0     H16608   9.744   5.325   8.762 -0.3743  1.8311 -0.8181
  126MOL0     H16609   9.890   5.337   8.874  0.8116 -1.8983  0.1825
  126MOL0     H16610   9.848   5.161   8.636  3.7298 -0.7231 -1.6480
  126MOL0     H16611  10.014   5.194   8.718  0.3813  2.0633  0.3093
  126MOL0     H16612   9.758   5.067   8.821  0.0429  1.0739  1.4014
  126MOL0     H16613   9.890   5.093   8.930  1.6948 -1.0949  1.0092
  126MOL0     H16614  10.214   6.019   8.545 -1.6212  1.9994 -1.0147
  126MOL0     H16615  10.417   6.196   8.476  2.6740 -0.4988 -0.2981
  126MOL0     H16616  10.732   6.339   8.232  1.1507 -2.2457 -2.6151
  126MOL0     H16617  10.920   6.473   8.192 -1.2519  1.2818  1.4067
  126MOL0     H16618  11.094   7.418   9.733  1.1783  2.1436  2.5104
  126MOL0     H16619  10.904   7.525   9.851  1.4103  0.9243 -0.1408
  126MOL0     H16620  10.434   7.943   9.653  0.7306 -5.2877 -1.7316
  126MOL0     H16621  10.262   8.016   9.817 -2.0571  0.2294  2.6654
  126MOL0     H16622  10.135   8.076   9.997  4.1569  1.8340 -1.6280
  126MOL0     H16623  10.138   8.111  10.169 -2.2111  1.8752 -3.3585
  126MOL0     H16624   9.998   7.919  10.115 -0.6377 -1.9339  3.1627
  126MOL0     H16625  10.137   7.836  10.048  3.8803 -0.1137  1.2916
  126MOL0     H16626  10.059   7.757  10.279  3.1825 -1.4277  0.6144
  126MOL0     H16627  10.078   7.908  10.355 -0.9814 -2.4852  0.1498
  126MOL0     H16628  10.296   7.735  10.217 -0.7286 -1.4656  0.6454
  126MOL0     H16629  10.330   7.883  10.325  1.6070 -0.7687 -1.5430
  126MOL0     H16630  10.288   7.559  10.588  0.6924  1.4302  1.9381
  126MOL0     H16631  10.517   7.934  10.150 -1.3788  2.7643 -0.4752
  126MOL0     H16632  10.705   7.895   9.996  0.0610  5.2501  2.5761
  127MOL0     O16633   9.002   6.282   3.925 -0.4588 -0.4852 -0.3172
  127MOL0     C16634   8.888   6.234   3.941  0.3342 -0.0142  0.1929
  127MOL0     O16635   8.771   6.306   3.917 -0.2926  0.5407 -0.4091
  127MOL0     C16636   8.783   6.432   3.859  0.6484 -1.0406  0.0925
  127MOL0     C16637   8.721   6.541   3.924  0.0200  0.4012  0.3969
  127MOL0     C16638   8.692   6.661   3.856 -0.2229  0.6705 -0.1329
  127MOL0     C16639   8.721   6.676   3.722  0.1402  0.5302  0.2623
  127MOL0     O16640   8.683   6.794   3.659 -1.0975 -0.0811 -0.8227
  127MOL0     C16641   8.726   6.817   3.526  0.4760 -0.2293 -0.0342
  127MOL0     C16642   8.679   6.953   3.472  0.6934 -0.5732  0.7264
  127MOL0     C16643   8.717   6.985   3.320 -1.1596  1.3115  0.5986
  127MOL0     C16644   8.637   7.090   3.251 -0.0032 -0.4642  0.4798
  127MOL0     C16645   8.672   7.087   3.093  0.3720 -1.1635  0.2215
  127MOL0     C16646   8.771   7.213   3.060  0.6349  0.2987 -0.9165
  127MOL0     C16647   8.798   7.202   2.902 -0.0582 -0.3050  0.1902
  127MOL0     C16648   8.886   7.324   2.845  0.3713 -0.5957 -0.2728
  127MOL0     N16649   8.876   7.331   2.698 -0.3393  0.1368  0.1758
  127MOL0     C16650   8.969   7.283   2.617  0.5686 -1.0105 -0.0132
  127MOL0     C16651   8.938   7.306   2.480 -0.2057  0.7221 -0.5504
  127MOL0     C16652   9.026   7.265   2.358  0.6145  1.0100 -0.0367
  127MOL0     C16653   8.963   7.302   2.226 -0.3598  0.3420  0.1810
  127MOL0     C16654   8.991   7.456   2.205  0.3575 -0.3743 -0.2020
  127MOL0     C16655   8.872   7.519   2.121 -0.2346 -0.3113  0.0872
  127MOL0     O16656   8.869   7.473   1.984 -0.3125  0.4569 -0.7999
  127MOL0     C16657   8.968   7.495   1.903 -0.6309  0.4100 -0.3542
  127MOL0     C16658   8.981   7.387   1.805 -0.2731  0.1943 -0.6775
  127MOL0     C16659   9.083   7.408   1.712 -0.3181  0.2784 -0.1230
  127MOL0     C16660   9.180   7.523   1.707  0.3894  0.9187 -0.2322
  127MOL0     C16661   9.279   7.522   1.604  0.4674 -0.0582  0.9062
  127MOL0     O16662   9.284   7.425   1.502 -0.9789  0.2921  0.1181
  127MOL0     C16663   9.348   7.460   1.384 -0.2777 -0.2940  0.2404
  127MOL0     C16664   9.476   7.431   1.357  0.5154 -0.0939 -0.1274
  127MOL0     C16665   9.536   7.448   1.229  0.2782  0.9551 -0.2991
  127MOL0     C16666   9.470   7.523   1.138 -0.4183 -1.1655  0.3448
  127MOL0     O16667   9.528   7.556   1.017 -0.0863 -0.7321 -0.2679
  127MOL0     C16668   9.672   7.589   1.019 -0.2455  0.4220 -1.6942
  127MOL0     C16669   9.704   7.673   0.900 -0.4393 -0.5000  1.2660
  127MOL0     C16670   9.847   7.662   0.853  0.1441 -0.0832 -1.1670
  127MOL0     C16671   9.866   7.722   0.716 -0.5499 -0.1777  0.0853
  127MOL0     C16672  10.019   7.755   0.696 -0.0333  0.2921 -0.5351
  127MOL0     C16673  10.054   7.848   0.582  1.3033  0.1551 -0.2618
  127MOL0     C16674  10.202   7.884   0.588 -1.2713 -0.7533  1.0538
  127MOL0     C16675  10.231   7.982   0.470 -0.3326  0.3130 -0.1962
  127MOL0    Cl16676  10.215   8.160   0.477 -0.3005 -0.2132  0.3437
  127MOL0     C16677   9.349   7.572   1.173  0.1349  0.0132 -0.1609
  127MOL0     C16678   9.281   7.533   1.293  1.1251  0.3671  1.8009
  127MOL0     O16679   9.368   7.608   1.617 -0.0728  0.0991  0.8722
  127MOL0     C16680   9.156   7.615   1.812  0.4367  0.7942  0.3106
  127MOL0     C16681   9.055   7.603   1.908 -0.4481  1.1948  0.4500
  127MOL0     N16682   8.811   7.363   2.486 -0.2913  0.1579  0.0385
  127MOL0     N16683   8.770   7.372   2.615  0.5061 -0.1325 -0.0614
  127MOL0     C16684   8.778   6.563   3.655 -0.4634  0.4541  0.3472
  127MOL0     C16685   8.810   6.450   3.720 -0.1786  0.4862 -0.3539
  127MOL0     C16686   8.879   6.105   4.006  0.2299  1.0297 -0.0530
  127MOL0     C16687   8.750   6.043   4.006  0.5446  0.3364  0.5821
  127MOL0     C16688   8.727   5.918   4.059 -1.1666  1.4504 -1.2123
  127MOL0     C16689   8.834   5.853   4.127  0.3471 -0.5102  0.2786
  127MOL0     O16690   8.827   5.735   4.199  0.3542  0.1184  0.5350
  127MOL0     C16691   8.722   5.653   4.166  0.3787  1.3383 -0.4492
  127MOL0     C16692   8.744   5.521   4.237  0.1715 -0.1222 -0.1070
  127MOL0     C16693   8.890   5.462   4.216  0.4168  0.7584  0.2579
  127MOL0     C16694   8.901   5.314   4.221  0.0925  0.5163 -1.4298
  127MOL0     C16695   8.805   5.248   4.127 -0.1780 -0.3205 -0.5200
  127MOL0     C16696   8.705   5.217   4.072  0.5946 -0.6022 -0.2547
  127MOL0     C16697   8.957   5.925   4.131 -0.2805  0.2706  0.2196
  127MOL0     C16698   8.990   6.048   4.069  0.3573  0.0270 -0.0654
  127MOL0     H16699   8.693   6.515   4.025 -0.2901  0.0480  0.2241
  127MOL0     H16700   8.653   6.749   3.907  1.1216  0.3100  1.6222
  127MOL0     H16701   8.677   6.742   3.462 -0.2708  1.9505 -2.2218
  127MOL0     H16702   8.831   6.810   3.498  0.0944 -0.0797 -1.6667
  127MOL0     H16703   8.727   7.030   3.533  5.4797 -1.0057 -1.9929
  127MOL0     H16704   8.570   6.955   3.481  0.6083  1.0315 -0.2660
  127MOL0     H16705   8.721   6.899   3.253  0.5791  0.7570  1.3568
  127MOL0     H16706   8.822   7.014   3.322 -0.8519  0.3588 -0.6724
  127MOL0     H16707   8.532   7.060   3.252 -0.6458  1.2796 -2.3561
  127MOL0     H16708   8.646   7.185   3.305  2.1439  0.8780 -1.9697
  127MOL0     H16709   8.581   7.106   3.035  1.1756  1.0267 -0.4123
  127MOL0     H16710   8.704   6.990   3.055 -2.6922 -2.1235 -0.1888
  127MOL0     H16711   8.862   7.199   3.120 -0.1822  1.3389  0.6492
  127MOL0     H16712   8.729   7.309   3.091  1.7952  1.2492 -2.1519
  127MOL0     H16713   8.845   7.104   2.892  0.8100  0.0402  0.7695
  127MOL0     H16714   8.704   7.205   2.847  1.8570 -0.8530 -3.4729
  127MOL0     H16715   8.985   7.304   2.887  0.2093  1.2830  1.1400
  127MOL0     H16716   8.846   7.411   2.898  0.6741 -1.7918  2.0559
  127MOL0     H16717   9.064   7.240   2.648  0.2659 -1.5626  0.1552
  127MOL0     H16718   9.030   7.156   2.353 -1.1627  0.9616 -2.9150
  127MOL0     H16719   9.128   7.302   2.374  0.0303  2.2871  0.8201
  127MOL0     H16720   8.855   7.285   2.224 -1.0500  3.9244 -1.0818
  127MOL0     H16721   9.005   7.238   2.148 -0.5673 -0.7844  0.9716
  127MOL0     H16722   8.981   7.503   2.304 -2.9702  0.6133 -0.8569
  127MOL0     H16723   9.087   7.469   2.154  1.0893 -1.9974  0.6904
  127MOL0     H16724   8.886   7.627   2.132 -1.7928 -0.1392  0.7130
  127MOL0     H16725   8.775   7.507   2.170 -0.9494 -3.2435 -1.8263
  127MOL0     H16726   8.915   7.301   1.795 -0.6738  0.2563  1.0359
  127MOL0     H16727   9.096   7.326   1.642  2.9866 -2.2461  3.0784
  127MOL0     H16728   9.513   7.378   1.444 -1.0938 -1.1113 -0.0262
  127MOL0     H16729   9.624   7.393   1.199  0.0505  0.1106  0.5364
  127MOL0     H16730   9.732   7.498   1.012  1.3204  1.3111 -0.5591
  127MOL0     H16731   9.702   7.639   1.111 -1.9506 -2.4389  0.6108
  127MOL0     H16732   9.672   7.776   0.920  2.0828 -0.1193  3.9526
  127MOL0     H16733   9.650   7.634   0.813  2.6330  0.0127 -1.0203
  127MOL0     H16734   9.882   7.559   0.856  1.7487  0.4576  0.4112
  127MOL0     H16735   9.899   7.721   0.929  0.3768 -0.9936 -0.6045
  127MOL0     H16736   9.834   7.647   0.644 -0.2216 -0.7863  0.5620
  127MOL0     H16737   9.810   7.815   0.697  2.4857  2.0796  1.2844
  127MOL0     H16738  10.058   7.653   0.682 -2.4507 -0.8372  0.4445
  127MOL0     H16739  10.063   7.807   0.781 -1.5406  2.2295 -0.8710
  127MOL0     H16740   9.992   7.936   0.604  2.3140  0.1605  3.0545
  127MOL0     H16741  10.025   7.796   0.491  2.4614  0.8514 -1.0477
  127MOL0     H16742  10.234   7.923   0.686 -2.1418 -0.9722  1.4377
  127MOL0     H16743  10.253   7.790   0.567 -0.2172  0.0936 -0.3610
  127MOL0     H16744  10.157   7.948   0.396 -0.5197 -2.4827  1.1235
  127MOL0     H16745  10.329   7.959   0.429 -0.1644 -0.2236  0.4889
  127MOL0     H16746   9.305   7.622   1.087 -0.5583 -3.1777 -1.8380
  127MOL0     H16747   9.179   7.565   1.309  1.0369 -0.2235  2.4721
  127MOL0     H16748   9.215   7.706   1.824  0.8290  0.4990  0.6479
  127MOL0     H16749   9.046   7.678   1.985 -4.0220 -0.7246  2.1121
  127MOL0     H16750   8.805   6.580   3.552  1.1765 -0.9099  0.5169
  127MOL0     H16751   8.830   6.367   3.653 -0.1964 -0.1444  0.4172
  127MOL0     H16752   8.659   6.077   3.957  2.1879  1.9663 -1.5661
  127MOL0     H16753   8.634   5.864   4.046  0.0035 -1.7549  2.1059
  127MOL0     H16754   8.714   5.640   4.057 -0.7349  1.2694 -0.3710
  127MOL0     H16755   8.627   5.698   4.197 -0.1421  1.3474 -1.9327
  127MOL0     H16756   8.738   5.556   4.341 -0.7475  0.8951 -0.4784
  127MOL0     H16757   8.665   5.448   4.221  0.7885 -0.4967 -1.5562
  127MOL0     H16758   8.956   5.508   4.290 -0.6781  3.6498 -0.4288
  127MOL0     H16759   8.938   5.487   4.121  0.7346 -0.7102  0.0184
  127MOL0     H16760   9.003   5.279   4.200 -0.6211 -1.4486 -1.8029
  127MOL0     H16761   8.876   5.287   4.323  1.6388 -0.0101 -1.1702
  127MOL0     H16762   8.622   5.176   4.017  3.3648 -1.2026 -4.4038
  127MOL0     H16763   9.039   5.873   4.179 -0.0170  0.4592 -0.0293
  127MOL0     H16764   9.090   6.089   4.064 -0.3435  1.7026 -2.9176
  128MOL0     O16765   5.524   8.133   1.309 -0.3213 -0.6318  0.3918
  128MOL0     C16766   5.445   8.097   1.400 -0.7258  0.1575 -0.4361
  128MOL0     O16767   5.426   7.971   1.452 -0.5724 -0.6851 -0.4479
  128MOL0     C16768   5.499   7.865   1.413  1.3107  0.1058 -0.4854
  128MOL0     C16769   5.632   7.871   1.388 -0.7459 -0.0852  0.2950
  128MOL0     C16770   5.716   7.766   1.341 -0.1378 -1.0611  0.5646
  128MOL0     C16771   5.658   7.640   1.321 -0.6136  0.7539 -0.5626
  128MOL0     O16772   5.726   7.535   1.265 -0.4292  0.1158  0.8535
  128MOL0     C16773   5.657   7.419   1.220 -0.5259 -0.5679 -0.6489
  128MOL0     C16774   5.735   7.293   1.185 -0.3752  0.5328 -0.3831
  128MOL0     C16775   5.627   7.193   1.133  1.0331  0.2749  0.8418
  128MOL0     C16776   5.702   7.065   1.087  0.0139  0.1551  0.0336
  128MOL0     C16777   5.623   6.981   0.993 -0.3763  0.5458 -0.5460
  128MOL0     C16778   5.687   6.858   0.933 -0.3282 -0.1178 -1.2762
  128MOL0     C16779   5.802   6.891   0.836  0.2543  0.0228  0.3988
  128MOL0     C16780   5.742   6.892   0.700 -0.2073  0.3488  0.4204
  128MOL0     N16781   5.822   6.961   0.598  0.1935  0.0688  0.0623
  128MOL0     C16782   5.863   7.089   0.614 -0.1631 -1.2394  0.8868
  128MOL0     C16783   5.935   7.112   0.495  0.9296 -0.1418 -0.9472
  128MOL0     C16784   6.000   7.242   0.451  0.6138  0.0855 -0.0722
  128MOL0     C16785   6.100   7.294   0.554 -0.0268 -0.1318 -0.3218
  128MOL0     C16786   6.136   7.435   0.512 -1.0154  0.2981 -0.0524
  128MOL0     C16787   6.234   7.504   0.608  0.0207 -0.0419 -0.6195
  128MOL0     O16788   6.335   7.417   0.647 -0.1119  0.7568 -0.1889
  128MOL0     C16789   6.422   7.456   0.749 -0.2444  0.0694 -0.4164
  128MOL0     C16790   6.452   7.377   0.861 -0.0090 -0.2659 -0.5779
  128MOL0     C16791   6.539   7.423   0.959 -0.2069  0.4655  0.5035
  128MOL0     C16792   6.594   7.556   0.953  0.6293  0.0640 -0.5523
  128MOL0     C16793   6.681   7.609   1.061 -0.7641  0.4166  0.2185
  128MOL0     O16794   6.690   7.548   1.181 -0.1311 -0.0610  0.0111
  128MOL0     C16795   6.745   7.631   1.282  0.1998  0.0326  0.4131
  128MOL0     C16796   6.878   7.626   1.327  0.8913  0.0017  0.2233
  128MOL0     C16797   6.922   7.713   1.425 -0.0463 -0.3103 -0.6669
  128MOL0     C16798   6.842   7.809   1.481 -0.8457 -0.8818 -0.2214
  128MOL0     O16799   6.915   7.888   1.577 -0.5591 -0.1206  1.3239
  128MOL0     C16800   6.844   7.960   1.678  0.2376 -0.9017  0.2004
  128MOL0     C16801   6.890   7.911   1.807 -0.2163  0.4650  0.2171
  128MOL0     C16802   6.819   8.003   1.908  0.8900 -0.4400 -0.9701
  128MOL0     C16803   6.870   7.941   2.044 -0.3598 -0.2968  0.8934
  128MOL0     C16804   6.813   8.003   2.170  0.2554 -0.0536  0.2354
  128MOL0     C16805   6.894   7.954   2.296  0.3635 -0.1125  0.9973
  128MOL0     C16806   6.871   8.055   2.409  0.5134 -0.2643  0.7485
  128MOL0     C16807   6.918   7.999   2.547  0.5030  0.9194  0.3383
  128MOL0    Cl16808   6.815   7.870   2.599  0.4290  0.5118  0.1836
  128MOL0     C16809   6.710   7.822   1.438  0.3022  0.0692 -0.2545
  128MOL0     C16810   6.659   7.723   1.344 -0.4793 -0.7822 -0.4042
  128MOL0     O16811   6.745   7.712   1.029  0.7323  0.3685 -0.1124
  128MOL0     C16812   6.555   7.632   0.837  0.2519 -1.1424 -0.6974
  128MOL0     C16813   6.469   7.588   0.742 -0.4922 -0.1714  0.1892
  128MOL0     N16814   5.931   6.998   0.420  0.0601  0.5123  0.3194
  128MOL0     N16815   5.877   6.903   0.485 -0.0204 -0.5373 -0.1807
  128MOL0     C16816   5.520   7.628   1.352 -0.4555  0.3828  0.2206
  128MOL0     C16817   5.441   7.738   1.401  0.1085  1.2378  0.5731
  128MOL0     C16818   5.372   8.211   1.462  0.7724 -0.0275  0.5463
  128MOL0     C16819   5.421   8.343   1.456 -1.1817 -0.0820 -0.4869
  128MOL0     C16820   5.355   8.443   1.528 -0.3815 -0.0003 -0.9919
  128MOL0     C16821   5.234   8.423   1.596 -0.4397  0.3352 -0.4993
  128MOL0     O16822   5.165   8.525   1.657 -0.8679 -0.1866 -0.5049
  128MOL0     C16823   5.181   8.662   1.604  0.1518  0.9510 -0.4719
  128MOL0     C16824   5.075   8.764   1.657  1.1672 -0.3572 -0.3863
  128MOL0     C16825   5.104   8.834   1.787  0.2806  0.2867  1.1870
  128MOL0     C16826   5.016   8.780   1.900  0.2040 -0.2328 -1.0992
  128MOL0     C16827   5.080   8.824   2.027 -0.3921 -0.9085  0.2063
  128MOL0     C16828   5.143   8.882   2.113 -0.5568  0.1737  0.2942
  128MOL0     C16829   5.186   8.292   1.603  1.4530  0.5005  0.6708
  128MOL0     C16830   5.254   8.182   1.537  0.1265  0.0521  0.9371
  128MOL0     H16831   5.668   7.969   1.417 -3.8217  0.7701  1.6370
  128MOL0     H16832   5.821   7.792   1.341  0.0290 -1.5126  2.7768
  128MOL0     H16833   5.594   7.443   1.134 -2.1768 -1.7409  0.1699
  128MOL0     H16834   5.593   7.390   1.304 -1.1749  2.2902 -0.0438
  128MOL0     H16835   5.786   7.253   1.274 -1.6123 -1.1124 -0.3534
  128MOL0     H16836   5.812   7.320   1.112  0.3114  2.9692  1.1022
  128MOL0     H16837   5.569   7.239   1.053 -0.0137 -0.3946  1.2037
  128MOL0     H16838   5.563   7.172   1.219  1.3550 -0.7523  0.8506
  128MOL0     H16839   5.792   7.093   1.031  1.9056 -3.0553  1.1739
  128MOL0     H16840   5.746   7.013   1.172  2.9483 -0.8069 -1.9242
  128MOL0     H16841   5.584   7.046   0.914 -0.9702 -0.0955 -0.7863
  128MOL0     H16842   5.546   6.941   1.060  1.7259 -0.9245  1.1455
  128MOL0     H16843   5.607   6.806   0.879 -2.0247  1.2054 -0.1336
  128MOL0     H16844   5.728   6.799   1.016 -0.3813  2.6751  0.8928
  128MOL0     H16845   5.833   6.996   0.845  4.9137 -0.6298 -3.5962
  128MOL0     H16846   5.884   6.820   0.849 -0.4404 -0.4771  2.3494
  128MOL0     H16847   5.648   6.947   0.707  1.1213  2.9461 -0.9690
  128MOL0     H16848   5.721   6.791   0.664 -2.3713  1.1165 -0.6302
  128MOL0     H16849   5.829   7.147   0.700  1.1323 -1.4435  1.5530
  128MOL0     H16850   5.915   7.311   0.442 -0.2528 -1.0524 -0.8427
  128MOL0     H16851   6.035   7.235   0.348  1.1593 -2.9729  0.2414
  128MOL0     H16852   6.185   7.226   0.560 -1.1178 -1.7167 -1.9198
  128MOL0     H16853   6.059   7.280   0.654  0.9533 -2.0282 -0.1397
  128MOL0     H16854   6.178   7.427   0.411  0.2011 -0.1554  0.4740
  128MOL0     H16855   6.043   7.492   0.502  0.7747  2.9960 -4.4751
  128MOL0     H16856   6.173   7.538   0.692 -2.3546 -3.8784 -0.5225
  128MOL0     H16857   6.286   7.586   0.559  1.2242 -2.4161 -3.6168
  128MOL0     H16858   6.422   7.274   0.881 -0.4246  0.1135  0.9354
  128MOL0     H16859   6.558   7.374   1.054 -0.1289 -0.0035  0.2476
  128MOL0     H16860   6.955   7.557   1.293  0.1190 -2.2710  2.7134
  128MOL0     H16861   7.025   7.701   1.456  0.1083  0.3563 -0.9159
  128MOL0     H16862   6.734   7.954   1.681  0.1817 -0.0528  0.0589
  128MOL0     H16863   6.866   8.064   1.654  1.9178 -1.0264  1.0629
  128MOL0     H16864   6.995   7.938   1.816 -0.2663  1.0668 -0.8418
  128MOL0     H16865   6.855   7.809   1.826 -0.2441  0.6563  1.2411
  128MOL0     H16866   6.710   7.996   1.911  0.7944  1.1051  1.1338
  128MOL0     H16867   6.834   8.111   1.897  2.1689 -0.5652 -0.6948
  128MOL0     H16868   6.851   7.833   2.050  1.5236 -0.8740 -1.7251
  128MOL0     H16869   6.978   7.947   2.060 -0.6753  0.6010  3.0190
  128MOL0     H16870   6.708   7.977   2.186  0.1096 -1.9675 -2.9461
  128MOL0     H16871   6.817   8.112   2.169 -4.9560  0.4303 -2.4562
  128MOL0     H16872   7.000   7.937   2.276  0.3581  0.6071  0.3320
  128MOL0     H16873   6.852   7.860   2.332 -0.0004  0.3701  1.8666
  128MOL0     H16874   6.927   8.144   2.381 -0.7235  0.3062  0.0052
  128MOL0     H16875   6.763   8.070   2.415  0.6459  0.3396  1.8655
  128MOL0     H16876   6.928   8.081   2.619 -1.0089  1.1182  0.3577
  128MOL0     H16877   7.013   7.948   2.528 -0.5444 -0.2058 -2.3687
  128MOL0     H16878   6.636   7.894   1.473 -3.7993 -4.4230  1.4669
  128MOL0     H16879   6.556   7.736   1.313  0.0162  1.9149 -1.1232
  128MOL0     H16880   6.591   7.734   0.836  0.0246 -1.0600 -0.5682
  128MOL0     H16881   6.466   7.650   0.653  2.1733  0.0066  0.1538
  128MOL0     H16882   5.458   7.541   1.332 -2.0002  1.3675  0.5024
  128MOL0     H16883   5.339   7.742   1.437 -1.3333  1.8885 -3.1969
  128MOL0     H16884   5.518   8.354   1.408 -2.2980  0.2597 -2.8220
  128MOL0     H16885   5.394   8.544   1.526  0.2915 -0.1528  1.5858
  128MOL0     H16886   5.163   8.652   1.497 -1.5307 -1.2409 -0.0438
  128MOL0     H16887   5.276   8.709   1.629 -0.3504  0.8328  1.9530
  128MOL0     H16888   5.075   8.840   1.578  1.1894  0.0315 -0.0165
  128MOL0     H16889   4.976   8.717   1.658  1.0088 -0.0192  0.9580
  128MOL0     H16890   5.075   8.938   1.768 -0.1535 -0.2128 -1.2173
  128MOL0     H16891   5.211   8.824   1.807  0.5744 -1.4055 -0.9011
  128MOL0     H16892   4.919   8.825   1.919  1.1028  0.9025  1.1572
  128MOL0     H16893   5.000   8.671   1.903 -0.1769 -0.2575  3.4096
  128MOL0     H16894   5.208   8.948   2.168  0.6448  0.6864 -1.6269
  128MOL0     H16895   5.096   8.279   1.663  1.7550  1.3474  1.3267
  128MOL0     H16896   5.217   8.080   1.540  1.0593 -0.2943  1.1129
  129MOL0     O16897   9.266   0.439   9.906  0.9705  0.2172 -0.1822
  129MOL0     C16898   9.297   0.407  10.021  0.5019 -0.3683 -0.1167
  129MOL0     O16899   9.210   0.370  10.120  0.1410  0.0371  0.6697
  129MOL0     C16900   9.072   0.361  10.109 -0.1689 -0.4289  0.3399
  129MOL0     C16901   9.003   0.277  10.197 -0.6459  0.5959  0.5961
  129MOL0     C16902   8.865   0.269  10.195  0.2794 -0.0034 -0.1248
  129MOL0     C16903   8.780   0.346  10.111 -0.5221  0.4860 -0.2039
  129MOL0     O16904   8.639   0.339  10.122 -1.1471  0.1290  0.2143
  129MOL0     C16905   8.561   0.391  10.023 -0.1121  0.3741  0.2395
  129MOL0     C16906   8.411   0.354  10.033  0.1087  0.1690  0.2559
  129MOL0     C16907   8.353   0.389  10.168 -0.0886 -0.1891  0.5275
  129MOL0     C16908   8.201   0.353  10.170  0.0216 -0.4992 -0.0294
  129MOL0     C16909   8.149   0.365  10.322  0.1618  0.3326  0.8764
  129MOL0     C16910   8.011   0.296  10.328 -0.2667 -1.0287 -0.0642
  129MOL0     C16911   8.006   0.148  10.293  0.2658 -0.3948 -0.3424
  129MOL0     C16912   7.884   0.086  10.350  0.5525  0.1248  0.3231
  129MOL0     N16913   7.767   0.067  10.265  0.2716  0.2758 -0.5454
  129MOL0     C16914   7.774   0.010  10.141  0.0236 -1.2096  0.1122
  129MOL0     C16915   7.648   0.011  10.090 -0.3598 -0.2298 -0.5299
  129MOL0     C16916   7.592  -0.044   9.957  0.4119 -0.4992 -0.3263
  129MOL0     C16917   7.579  -0.206   9.961 -0.8274 -0.2853  0.2833
  129MOL0     C16918   7.474  -0.261   9.861 -0.3295 -0.6496  0.0599
  129MOL0     C16919   7.467  -0.411   9.861  1.2777 -0.5281 -0.5199
  129MOL0     O16920   7.400  -0.469   9.972  0.1253  0.1758 -0.0812
  129MOL0     C16921   7.424  -0.599   9.979  0.5275  0.0716  0.1754
  129MOL0     C16922   7.518  -0.652  10.058 -0.6737  0.0861 -0.0098
  129MOL0     C16923   7.533  -0.785  10.079  0.0506 -0.4154  0.7057
  129MOL0     C16924   7.467  -0.887  10.007  0.3838 -1.3507  0.3115
  129MOL0     C16925   7.492  -1.023  10.018 -0.0627  0.8251  0.6617
  129MOL0     O16926   7.412  -1.093   9.941 -0.6492 -0.3791 -0.3426
  129MOL0     C16927   7.423  -1.222   9.939 -0.4803 -0.0678 -0.1937
  129MOL0     C16928   7.459  -1.279   9.818 -0.2526  0.4455  0.3240
  129MOL0     C16929   7.493  -1.414   9.809  0.1081  0.4343  0.6544
  129MOL0     C16930   7.489  -1.494   9.923  0.9093 -0.9350  0.2735
  129MOL0     O16931   7.506  -1.622   9.918 -0.0750  0.4346 -1.1572
  129MOL0     C16932   7.514  -1.702   9.804 -0.8158  0.1321  0.3931
  129MOL0     C16933   7.548  -1.849   9.844 -0.9037 -0.1690  0.5548
  129MOL0     C16934   7.499  -1.940   9.734 -0.5629 -0.1352  0.7233
  129MOL0     C16935   7.551  -2.084   9.764 -0.0621 -1.0883  0.5257
  129MOL0     C16936   7.445  -2.189   9.708 -0.1568 -0.7628 -1.4905
  129MOL0     C16937   7.409  -2.187   9.559  0.0576  0.3310  1.1731
  129MOL0     C16938   7.531  -2.173   9.470  0.6351 -0.0810  0.2972
  129MOL0     C16939   7.632  -2.286   9.479 -1.2979  0.0022  0.5893
  129MOL0    Cl16940   7.550  -2.452   9.479 -0.3767 -0.1056 -0.4384
  129MOL0     C16941   7.456  -1.438  10.046  0.1731 -0.0672 -0.1925
  129MOL0     C16942   7.425  -1.301  10.054  0.0611  0.1679 -1.0460
  129MOL0     O16943   7.576  -1.062  10.100 -0.7955  0.7571 -0.3886
  129MOL0     C16944   7.370  -0.827   9.928 -0.4341 -0.1315  0.4788
  129MOL0     C16945   7.356  -0.692   9.903  0.0495  0.1291 -0.2950
  129MOL0     N16946   7.570   0.076  10.175  0.0678  0.3144 -0.1938
  129MOL0     N16947   7.638   0.110  10.281  0.0475  0.4969  0.3113
  129MOL0     C16948   8.851   0.431  10.025 -0.3147  0.2615 -0.4826
  129MOL0     C16949   8.998   0.445  10.021  0.6073  1.0948 -0.2307
  129MOL0     C16950   9.439   0.403  10.054 -0.8656 -0.0785  0.6948
  129MOL0     C16951   9.489   0.325  10.170 -0.6105  0.3679 -0.4467
  129MOL0     C16952   9.622   0.340  10.202  0.9074  0.0129 -0.1750
  129MOL0     C16953   9.706   0.415  10.125  0.1227 -0.3313 -0.7597
  129MOL0     O16954   9.836   0.425  10.148 -0.0461  0.0715 -0.1212
  129MOL0     C16955   9.918   0.317  10.100  0.3197 -0.4585 -0.2872
  129MOL0     C16956   9.937   0.334   9.947  0.2799 -0.0087 -0.1929
  129MOL0     C16957  10.052   0.245   9.898  0.3637  0.3517  0.5937
  129MOL0     C16958  10.132   0.281   9.777 -1.0172 -1.1412 -0.4755
  129MOL0     C16959  10.225   0.387   9.810 -0.5150  0.0459 -0.0219
  129MOL0     C16960  10.323   0.465   9.822  0.1044 -0.0115  0.7993
  129MOL0     C16961   9.668   0.488  10.019  0.9647  0.1545 -0.4714
  129MOL0     C16962   9.530   0.481   9.983 -1.0290  0.0983  0.1853
  129MOL0     H16963   9.064   0.221  10.267  0.5535  3.9210  2.4368
  129MOL0     H16964   8.828   0.199  10.269  1.2417  1.8360  2.2004
  129MOL0     H16965   8.595   0.353   9.925  2.9086  0.1019  1.3055
  129MOL0     H16966   8.556   0.500  10.024 -1.2421  0.3612 -0.8261
  129MOL0     H16967   8.401   0.247  10.012 -0.0951 -0.0269  1.3291
  129MOL0     H16968   8.361   0.424   9.965 -1.4182  1.8682  2.9313
  129MOL0     H16969   8.369   0.497  10.174  2.2262 -0.1782 -2.9065
  129MOL0     H16970   8.421   0.349  10.244  3.9965  3.3530 -0.8165
  129MOL0     H16971   8.146   0.427  10.112  0.9359  0.5070  0.3639
  129MOL0     H16972   8.182   0.256  10.124 -4.5733  1.3627 -2.6963
  129MOL0     H16973   8.128   0.469  10.344  2.4653  1.5356 -1.8383
  129MOL0     H16974   8.229   0.324  10.386  0.4931 -1.2174 -0.4404
  129MOL0     H16975   7.940   0.351  10.265  2.2812  0.9930 -1.3997
  129MOL0     H16976   7.968   0.310  10.427 -1.5951 -0.4971 -0.6854
  129MOL0     H16977   8.019   0.132  10.186  0.2966 -0.3084 -0.3517
  129MOL0     H16978   8.088   0.098  10.344  0.1726 -2.9761 -2.5269
  129MOL0     H16979   7.847   0.131  10.443 -2.5493  1.2853 -1.3092
  129MOL0     H16980   7.922  -0.005  10.396 -1.5641  0.5831  3.2765
  129MOL0     H16981   7.863  -0.028  10.091  0.7816  2.0006 -1.2865
  129MOL0     H16982   7.646  -0.015   9.866 -1.2609 -0.0261 -1.2033
  129MOL0     H16983   7.492  -0.002   9.947 -0.3261 -1.1307  3.3288
  129MOL0     H16984   7.551  -0.231  10.063 -0.3660  1.4041  0.8561
  129MOL0     H16985   7.677  -0.251   9.941  0.3663  1.1810  2.4567
  129MOL0     H16986   7.380  -0.216   9.896  0.1255 -1.8492  3.2229
  129MOL0     H16987   7.482  -0.219   9.761  1.1586  2.0999  1.2074
  129MOL0     H16988   7.570  -0.445   9.873  1.8223  0.5715 -1.8228
  129MOL0     H16989   7.418  -0.458   9.775 -1.3231 -0.0865  0.6193
  129MOL0     H16990   7.578  -0.595  10.128  0.9218  0.8726 -1.9047
  129MOL0     H16991   7.603  -0.804  10.159  0.2184  1.0651  0.9259
  129MOL0     H16992   7.442  -1.225   9.725  0.4834  0.4063  0.1605
  129MOL0     H16993   7.499  -1.463   9.712 -1.1034  1.1042  0.2174
  129MOL0     H16994   7.582  -1.665   9.726  0.4817 -1.0594  0.9244
  129MOL0     H16995   7.416  -1.700   9.754 -0.2381 -2.1474 -0.9424
  129MOL0     H16996   7.500  -1.871   9.940 -3.7189 -3.5963 -1.4169
  129MOL0     H16997   7.656  -1.855   9.861 -0.9366 -2.2462  0.3186
  129MOL0     H16998   7.531  -1.912   9.634  2.2491 -0.3286  1.4809
  129MOL0     H16999   7.390  -1.934   9.743 -0.8511 -0.1337 -1.9812
  129MOL0     H17000   7.651  -2.111   9.729 -1.2467 -3.5691 -1.2635
  129MOL0     H17001   7.557  -2.100   9.872  1.6745 -2.9597  0.2173
  129MOL0     H17002   7.350  -2.186   9.761 -1.3444 -1.9161 -3.4135
  129MOL0     H17003   7.484  -2.286   9.742  4.4936  1.9064  2.1045
  129MOL0     H17004   7.341  -2.103   9.542  1.5441  1.5433  0.9675
  129MOL0     H17005   7.356  -2.278   9.531  0.8931  0.3275 -0.5301
  129MOL0     H17006   7.487  -2.152   9.372 -1.6574  1.9212  1.6448
  129MOL0     H17007   7.577  -2.076   9.490 -1.1046  1.1617 -1.3738
  129MOL0     H17008   7.700  -2.261   9.561 -0.1811 -1.4525  0.1465
  129MOL0     H17009   7.699  -2.284   9.393 -0.9503  0.0238  0.8572
  129MOL0     H17010   7.465  -1.496  10.138 -1.4052 -2.3718 -1.3697
  129MOL0     H17011   7.405  -1.269  10.156 -0.3220 -0.9953 -0.7448
  129MOL0     H17012   7.303  -0.886   9.867  0.0435  1.8525 -2.1500
  129MOL0     H17013   7.273  -0.650   9.847  0.6388  4.3177  1.6642
  129MOL0     H17014   8.793   0.491   9.956 -0.9610  0.4329  0.1979
  129MOL0     H17015   9.045   0.521   9.960  1.5371  2.1584  1.7026
  129MOL0     H17016   9.420   0.262  10.226 -1.1560 -3.1133 -4.5343
  129MOL0     H17017   9.667   0.293  10.289 -0.4860 -0.7363  0.1723
  129MOL0     H17018   9.873   0.221  10.126  2.2694 -1.3326  0.0016
  129MOL0     H17019  10.014   0.325  10.151 -0.9088  1.6650  1.9342
  129MOL0     H17020   9.848   0.307   9.890  0.0815  0.5624 -0.1623
  129MOL0     H17021   9.963   0.437   9.923 -1.6756  0.0690 -2.3220
  129MOL0     H17022  10.010   0.145   9.887 -0.4171  0.7703 -0.3884
  129MOL0     H17023  10.127   0.230   9.976 -0.3099 -0.9822  1.0207
  129MOL0     H17024  10.198   0.197   9.751  1.7464  0.3758  1.1878
  129MOL0     H17025  10.052   0.306   9.707 -0.9936 -0.6887 -0.3414
  129MOL0     H17026  10.413   0.522   9.814  1.0948 -1.7547 -1.5231
  129MOL0     H17027   9.730   0.544   9.950  1.2569  0.2770 -0.1128
  129MOL0     H17028   9.502   0.543   9.899 -2.5737  0.0572  0.6325
  130MOL0     O17029   8.063   8.340  10.147 -0.0706  0.5742  0.2667
  130MOL0     C17030   7.976   8.253  10.166  0.1316 -0.3529 -0.7652
  130MOL0     O17031   7.856   8.243  10.107 -0.1052 -0.4027 -0.0278
  130MOL0     C17032   7.852   8.316   9.987 -0.0425 -0.4620  0.8342
  130MOL0     C17033   7.812   8.450   9.974  0.2374 -0.3729  0.4523
  130MOL0     C17034   7.810   8.528   9.854 -1.0105  0.3403 -0.6340
  130MOL0     C17035   7.844   8.457   9.731 -0.0387 -0.8640  0.1144
  130MOL0     O17036   7.845   8.514   9.606  0.7943  0.2421 -0.2833
  130MOL0     C17037   7.792   8.648   9.582 -0.3400 -0.0655  0.3396
  130MOL0     C17038   7.906   8.755   9.591  0.2488 -0.5417  0.1870
  130MOL0     C17039   7.994   8.747   9.469  1.3988  0.2353 -0.5324
  130MOL0     C17040   7.932   8.796   9.341 -0.9538  1.3508 -0.6390
  130MOL0     C17041   8.033   8.791   9.218 -0.3071  0.9862 -0.1412
  130MOL0     C17042   7.966   8.745   9.085  0.8400 -0.0691  0.6533
  130MOL0     C17043   7.933   8.598   9.057  0.3909 -0.0517  0.0060
  130MOL0     C17044   7.935   8.559   8.911  0.1967 -0.4101 -0.0969
  130MOL0     N17045   7.826   8.625   8.829 -0.1091 -0.5424  0.1053
  130MOL0     C17046   7.691   8.641   8.856  0.2214 -0.4395 -0.1015
  130MOL0     C17047   7.649   8.733   8.764 -0.4944  0.3866 -0.2032
  130MOL0     C17048   7.502   8.770   8.731 -0.3857  0.1721  0.3663
  130MOL0     C17049   7.448   8.680   8.614  0.2069  0.3220  0.3780
  130MOL0     C17050   7.325   8.598   8.644  0.0717  0.1942 -0.3946
  130MOL0     C17051   7.188   8.673   8.645  0.5125 -0.3644  0.4952
  130MOL0     O17052   7.182   8.743   8.772 -0.1381 -1.1695  0.0387
  130MOL0     C17053   7.061   8.806   8.802  0.4504 -0.5885 -1.1785
  130MOL0     C17054   7.049   8.862   8.930 -0.4547 -0.0690  0.3444
  130MOL0     C17055   6.934   8.917   8.972  0.9017 -0.8782  0.1877
  130MOL0     C17056   6.810   8.907   8.896 -0.0525 -0.1614 -0.4327
  130MOL0     C17057   6.673   8.953   8.942 -0.0636  0.0754  0.1244
  130MOL0     O17058   6.557   8.906   8.881  0.2012 -0.2453  0.2956
  130MOL0     C17059   6.432   8.947   8.932 -1.2775  0.2200  0.3234
  130MOL0     C17060   6.393   9.075   8.953 -0.6216 -0.2670  0.5065
  130MOL0     C17061   6.261   9.108   8.968  0.6771  0.3960 -0.5367
  130MOL0     C17062   6.157   9.011   8.974 -0.2423  0.4837  0.8436
  130MOL0     O17063   6.029   9.052   8.972  0.7097  0.7385 -0.4591
  130MOL0     C17064   5.949   8.996   9.079  0.5033  0.4918  1.2613
  130MOL0     C17065   5.816   8.909   9.039 -0.6172  0.8535 -0.0137
  130MOL0     C17066   5.739   8.869   9.166 -0.0445 -0.7829  0.6716
  130MOL0     C17067   5.684   8.990   9.241 -0.4449  0.1848  0.0420
  130MOL0     C17068   5.586   8.953   9.345  0.9745 -0.6967  0.0139
  130MOL0     C17069   5.538   9.071   9.426 -0.6208 -0.5754  0.2955
  130MOL0     C17070   5.631   9.098   9.543  0.3573  0.0427  0.3904
  130MOL0     C17071   5.617   9.236   9.594  0.6511  0.2032  0.9786
  130MOL0    Cl17072   5.708   9.243   9.749  0.0215  0.4301 -0.6673
  130MOL0     C17073   6.202   8.880   8.983 -0.0761 -0.4367  0.0021
  130MOL0     C17074   6.340   8.849   8.957 -0.0601 -0.5288  0.4459
  130MOL0     O17075   6.675   9.024   9.040 -0.1048  0.1360  0.1401
  130MOL0     C17076   6.821   8.855   8.760 -0.0171  0.2151 -0.7297
  130MOL0     C17077   6.943   8.811   8.720  0.3918  1.3983  0.0547
  130MOL0     N17078   7.758   8.774   8.694 -0.2483 -0.6180 -0.3830
  130MOL0     N17079   7.867   8.708   8.728 -0.2928 -0.8264 -0.1238
  130MOL0     C17080   7.875   8.314   9.744 -0.3449 -0.6808  0.4313
  130MOL0     C17081   7.882   8.252   9.872  0.4741 -0.0482 -0.3312
  130MOL0     C17082   7.988   8.155  10.278 -0.4908  0.1220  0.4607
  130MOL0     C17083   7.885   8.062  10.311  0.6119  0.3016  0.0730
  130MOL0     C17084   7.896   7.979  10.420  0.3073  0.0302  0.3267
  130MOL0     C17085   8.009   7.975  10.501 -0.5842 -0.7756 -0.2489
  130MOL0     O17086   8.038   7.889  10.606  0.0441  0.4120 -0.5999
  130MOL0     C17087   7.943   7.787  10.628  0.1052 -0.5537 -0.9524
  130MOL0     C17088   8.027   7.657  10.621  0.1202 -0.5839  0.1789
  130MOL0     C17089   7.938   7.537  10.628 -0.0892 -0.3156  0.6243
  130MOL0     C17090   8.024   7.410  10.645  0.4761 -1.0241 -0.1729
  130MOL0     C17091   8.150   7.401  10.571  0.7541 -0.5684  0.9771
  130MOL0     C17092   8.258   7.393  10.512 -0.8676  0.1191  0.1324
  130MOL0     C17093   8.110   8.070  10.472 -0.8822  0.6378  0.3110
  130MOL0     C17094   8.105   8.153  10.356  0.4415 -0.1989 -0.7229
  130MOL0     H17095   7.779   8.492  10.069  1.6092  2.6424 -0.2816
  130MOL0     H17096   7.782   8.633   9.867  2.0140  1.1339  0.1547
  130MOL0     H17097   7.714   8.678   9.654 -2.3776 -2.9690 -0.4688
  130MOL0     H17098   7.733   8.650   9.490 -0.1117 -0.4976  0.1813
  130MOL0     H17099   7.962   8.730   9.682 -0.1718 -4.2511 -0.4109
  130MOL0     H17100   7.865   8.856   9.592  3.3791  0.8810  2.4425
  130MOL0     H17101   8.017   8.640   9.467 -1.5559 -0.6609  2.4622
  130MOL0     H17102   8.076   8.816   9.489 -0.6924  2.6302  0.2963
  130MOL0     H17103   7.852   8.724   9.325 -0.4771  0.5299  0.5372
  130MOL0     H17104   7.883   8.894   9.343  0.0256  1.8435 -0.1386
  130MOL0     H17105   8.124   8.735   9.240 -0.6684  0.7230  0.7017
  130MOL0     H17106   8.063   8.895   9.202  1.9275  0.7765  2.2095
  130MOL0     H17107   8.043   8.760   9.009  0.1888  3.8317  0.5614
  130MOL0     H17108   7.887   8.818   9.063 -0.3170 -1.8746 -1.5785
  130MOL0     H17109   8.020   8.544   9.096  1.2069 -2.9209 -4.8780
  130MOL0     H17110   7.842   8.563   9.107  0.7933 -0.0701  0.7329
  130MOL0     H17111   7.936   8.452   8.890 -1.0830 -0.7124  1.2423
  130MOL0     H17112   8.030   8.603   8.878  0.3576  0.7615  1.7570
  130MOL0     H17113   7.629   8.586   8.925 -1.0241 -2.8082 -2.8728
  130MOL0     H17114   7.492   8.876   8.708 -1.5327  0.0586  0.2841
  130MOL0     H17115   7.438   8.744   8.816 -2.8255 -0.1829 -1.4717
  130MOL0     H17116   7.528   8.613   8.583  1.0458  2.6434 -2.9811
  130MOL0     H17117   7.421   8.740   8.526  2.1624  2.3074  1.0373
  130MOL0     H17118   7.301   8.522   8.569 -2.2824 -0.2537  0.7182
  130MOL0     H17119   7.349   8.547   8.737  0.7468  2.5714  0.8300
  130MOL0     H17120   7.111   8.596   8.642  2.5393 -2.4588 -1.6529
  130MOL0     H17121   7.184   8.736   8.556  0.1558 -0.0077  0.7575
  130MOL0     H17122   7.142   8.870   8.985 -0.0233  1.1071 -0.5087
  130MOL0     H17123   6.929   8.971   9.066  1.5519  1.7564 -1.1838
  130MOL0     H17124   6.465   9.157   8.952 -1.2626  0.3032  0.4010
  130MOL0     H17125   6.240   9.214   8.979  0.6489  0.2074  1.7984
  130MOL0     H17126   5.903   9.085   9.124  1.0953  1.4501  0.0298
  130MOL0     H17127   6.012   8.948   9.154  0.5225 -0.8403  0.4154
  130MOL0     H17128   5.848   8.814   8.996  0.2717  0.2746  1.8070
  130MOL0     H17129   5.759   8.967   8.966  1.8896  3.2026 -0.2637
  130MOL0     H17130   5.819   8.815   9.217  1.3570 -0.5580 -1.1556
  130MOL0     H17131   5.660   8.797   9.143 -0.3392 -0.6185  1.1455
  130MOL0     H17132   5.775   9.038   9.280 -0.1058 -0.9303  0.6703
  130MOL0     H17133   5.633   9.063   9.178 -0.5867 -1.6222 -2.0424
  130MOL0     H17134   5.632   8.888   9.420  1.2937  0.1501  0.5615
  130MOL0     H17135   5.498   8.906   9.300  2.0695 -2.3701 -0.4701
  130MOL0     H17136   5.442   9.055   9.476 -3.2125  4.1141 -2.4691
  130MOL0     H17137   5.536   9.157   9.359 -2.0266 -0.9852 -0.2147
  130MOL0     H17138   5.613   9.020   9.618 -1.1197  1.4029  1.5078
  130MOL0     H17139   5.731   9.080   9.503 -0.0702 -2.9206  0.3791
  130MOL0     H17140   5.510   9.254   9.610  0.4720 -0.4668  0.6019
  130MOL0     H17141   5.652   9.309   9.520  0.5376  1.2582  1.9399
  130MOL0     H17142   6.131   8.799   8.995  0.0437 -0.4958  0.3383
  130MOL0     H17143   6.367   8.754   8.914  1.1077  0.9850 -2.4367
  130MOL0     H17144   6.738   8.836   8.692  0.0238 -3.0956 -0.0183
  130MOL0     H17145   6.931   8.772   8.619  0.1771  1.6366 -0.0119
  130MOL0     H17146   7.910   8.259   9.657 -1.8700  2.0634 -2.1250
  130MOL0     H17147   7.915   8.149   9.874  4.2927  1.0356  0.5641
  130MOL0     H17148   7.795   8.062  10.250 -0.7579  0.8853  2.0256
  130MOL0     H17149   7.807   7.919  10.435  3.3732 -5.2110  0.0219
  130MOL0     H17150   7.867   7.775  10.550 -3.4798  3.5674  1.4283
  130MOL0     H17151   7.892   7.809  10.722  3.4144 -1.9257  1.3645
  130MOL0     H17152   8.066   7.664  10.519 -1.1720 -1.9769 -0.4397
  130MOL0     H17153   8.101   7.663  10.702  0.3130 -1.2975  0.0546
  130MOL0     H17154   7.892   7.529  10.529  4.1477  2.5464 -1.8861
  130MOL0     H17155   7.854   7.539  10.698 -1.4253 -2.8997 -0.7459
  130MOL0     H17156   8.057   7.407  10.749 -0.4659  1.3119  0.2621
  130MOL0     H17157   7.970   7.315  10.636  0.1143 -0.9955  1.4157
  130MOL0     H17158   8.354   7.390  10.464 -1.2034  1.9033 -0.7057
  130MOL0     H17159   8.207   8.072  10.519 -0.3499  0.3698 -0.7503
  130MOL0     H17160   8.196   8.205  10.328  0.7332 -1.7100 -2.8114
  131MOL0     O17161   8.007   4.144  10.513 -0.3350 -0.2391  0.5055
  131MOL0     C17162   8.095   4.202  10.581 -0.3750 -0.5963 -0.3456
  131MOL0     O17163   8.128   4.336  10.550 -1.0433 -0.0784  0.4615
  131MOL0     C17164   8.053   4.398  10.453  0.7277 -0.5280  0.1090
  131MOL0     C17165   8.104   4.445  10.334  0.5397 -0.0746  0.1752
  131MOL0     C17166   8.027   4.498  10.227  0.1790 -1.3135 -0.1169
  131MOL0     C17167   7.894   4.529  10.240  0.1213 -0.7032 -0.0815
  131MOL0     O17168   7.826   4.588  10.140  0.3028  0.6620  0.7592
  131MOL0     C17169   7.699   4.655  10.155 -0.0147 -0.0444  0.8882
  131MOL0     C17170   7.633   4.713  10.027 -0.0789 -0.1941  0.0337
  131MOL0     C17171   7.707   4.850  10.011 -0.2418 -0.9795  0.0310
  131MOL0     C17172   7.656   4.929   9.885  0.0988  0.1106 -0.5459
  131MOL0     C17173   7.693   5.090   9.893 -0.0538  0.5545  1.0551
  131MOL0     C17174   7.628   5.167  10.008  0.2276  0.5363  0.3635
  131MOL0     C17175   7.475   5.179   9.986 -0.1618  0.5484  0.9533
  131MOL0     C17176   7.435   5.319   9.947  0.1787  0.3781  0.0740
  131MOL0     N17177   7.481   5.360   9.809 -0.7450 -0.2952 -0.4741
  131MOL0     C17178   7.600   5.424   9.793  0.3094 -0.4553 -0.0135
  131MOL0     C17179   7.621   5.435   9.658 -1.0606  0.0908  0.8421
  131MOL0     C17180   7.745   5.468   9.596  0.2554 -0.1551  0.4938
  131MOL0     C17181   7.758   5.615   9.569 -0.4842  0.3595 -0.8349
  131MOL0     C17182   7.803   5.701   9.679 -0.5650 -0.6480 -0.1250
  131MOL0     C17183   7.940   5.776   9.662 -0.6322  0.6960 -0.3062
  131MOL0     O17184   8.053   5.690   9.672 -0.7114 -0.8108  0.3071
  131MOL0     C17185   8.152   5.735   9.761  1.3974  1.1791 -0.6266
  131MOL0     C17186   8.213   5.861   9.742 -0.1272 -0.1698 -0.9964
  131MOL0     C17187   8.319   5.901   9.826 -0.0924  0.4540 -0.3518
  131MOL0     C17188   8.347   5.817   9.945  0.1534 -0.0264  0.4930
  131MOL0     C17189   8.455   5.848  10.044 -0.3794  0.1569 -0.2088
  131MOL0     O17190   8.482   5.756  10.142  0.6307 -1.0855 -0.0520
  131MOL0     C17191   8.583   5.776  10.231 -0.1495  0.0150 -0.4214
  131MOL0     C17192   8.652   5.658  10.272  0.0165  1.2115  0.1755
  131MOL0     C17193   8.749   5.651  10.367 -0.8629  0.3282  0.8263
  131MOL0     C17194   8.782   5.779  10.433  0.0939  0.4052 -0.2487
  131MOL0     O17195   8.878   5.792  10.528 -0.6306 -0.1201  0.0549
  131MOL0     C17196   9.000   5.722  10.510  0.0715 -0.1520 -0.0300
  131MOL0     C17197   9.099   5.734  10.631  0.2163  0.5610  0.6171
  131MOL0     C17198   9.133   5.878  10.645  0.2083  0.7191 -0.3660
  131MOL0     C17199   9.176   5.917  10.787  0.6940 -0.5625  0.2138
  131MOL0     C17200   9.302   5.831  10.833 -0.1108 -0.7908 -0.3069
  131MOL0     C17201   9.348   5.865  10.968 -0.2140 -0.0912  0.4315
  131MOL0     C17202   9.254   5.839  11.085  0.7029  0.1634  0.4789
  131MOL0     C17203   9.329   5.835  11.216  0.6239 -0.4203  0.4679
  131MOL0    Cl17204   9.397   5.995  11.241 -0.2281 -0.2322 -0.1718
  131MOL0     C17205   8.702   5.897  10.408  0.5409 -0.1878 -0.1040
  131MOL0     C17206   8.604   5.896  10.307  0.7134  0.0695 -0.7010
  131MOL0     O17207   8.527   5.947  10.008 -0.1674 -0.3957 -0.0705
  131MOL0     C17208   8.290   5.688   9.955  0.2378 -0.3773 -0.0225
  131MOL0     C17209   8.193   5.646   9.864  0.8964 -0.9024  0.1340
  131MOL0     N17210   7.514   5.373   9.599  0.0197  0.3744 -0.3691
  131MOL0     N17211   7.430   5.336   9.687 -0.1926 -0.1388  0.2202
  131MOL0     C17212   7.838   4.485  10.366  0.0245  0.2228  1.1834
  131MOL0     C17213   7.918   4.435  10.470  0.2959  0.7594 -0.1946
  131MOL0     C17214   8.152   4.161  10.715  0.0404  0.4815  0.0857
  131MOL0     C17215   8.172   4.023  10.738 -1.5639 -0.2233  0.0059
  131MOL0     C17216   8.216   3.979  10.859 -0.6366  0.8634 -0.2500
  131MOL0     C17217   8.244   4.061  10.970  1.0305 -0.4303 -0.0540
  131MOL0     O17218   8.287   3.988  11.078  0.1010  0.2909  0.2966
  131MOL0     C17219   8.332   4.064  11.189 -0.7088  0.2302 -0.3709
  131MOL0     C17220   8.363   3.975  11.306  0.5720 -0.9699 -0.2130
  131MOL0     C17221   8.466   3.861  11.274  0.2166 -0.1727  0.7009
  131MOL0     C17222   8.534   3.810  11.412 -0.4808  0.0105 -0.4245
  131MOL0     C17223   8.432   3.736  11.487 -0.0568  0.6533  1.0127
  131MOL0     C17224   8.342   3.658  11.520 -0.2877  0.3274  0.4521
  131MOL0     C17225   8.220   4.199  10.954 -0.4303 -0.7223  0.2688
  131MOL0     C17226   8.179   4.247  10.824 -0.1497 -0.0672  0.0520
  131MOL0     H17227   8.210   4.429  10.314  0.0424 -3.2833 -0.4026
  131MOL0     H17228   8.090   4.531  10.145  0.4707 -1.5459  0.0105
  131MOL0     H17229   7.714   4.729  10.235 -0.8196  0.2526  0.7756
  131MOL0     H17230   7.627   4.583  10.194 -0.4951  0.3149  0.6739
  131MOL0     H17231   7.524   4.721  10.038 -0.1200  0.4731 -0.7198
  131MOL0     H17232   7.650   4.647   9.941 -1.3037 -2.4191  1.4128
  131MOL0     H17233   7.815   4.837   9.993 -0.1455  0.0773 -0.2374
  131MOL0     H17234   7.693   4.910  10.101  0.7622  1.6993 -1.4742
  131MOL0     H17235   7.716   4.881   9.808  1.3149 -1.5814  1.3675
  131MOL0     H17236   7.557   4.900   9.850  0.8349 -1.0243 -1.7380
  131MOL0     H17237   7.665   5.135   9.797  2.6581  0.4356  0.1373
  131MOL0     H17238   7.799   5.114   9.897  0.4652 -1.0908 -1.0859
  131MOL0     H17239   7.663   5.270  10.018 -2.8040  1.4162  5.4259
  131MOL0     H17240   7.649   5.105  10.095 -0.2576  0.9116  0.7577
  131MOL0     H17241   7.445   5.105   9.911  1.7852  0.6674 -0.0201
  131MOL0     H17242   7.419   5.161  10.079  1.3703  0.2292  1.8549
  131MOL0     H17243   7.477   5.395  10.014 -0.8303  1.6328 -0.6629
  131MOL0     H17244   7.327   5.329   9.962  0.1272  0.2823 -0.2268
  131MOL0     H17245   7.669   5.448   9.874  1.0587  0.3788 -0.8713
  131MOL0     H17246   7.758   5.412   9.502  0.0375 -0.4023  0.6082
  131MOL0     H17247   7.826   5.429   9.657 -1.6974 -3.3621  1.2804
  131MOL0     H17248   7.661   5.646   9.529 -1.1828  2.2261  2.0403
  131MOL0     H17249   7.821   5.646   9.485 -1.1488  0.6626 -1.2313
  131MOL0     H17250   7.736   5.787   9.691  1.7712  1.2780 -0.0226
  131MOL0     H17251   7.823   5.641   9.768  1.8933  0.9870  0.5353
  131MOL0     H17252   7.938   5.849   9.744  2.7099 -0.1692  0.7282
  131MOL0     H17253   7.946   5.836   9.571 -0.5016  0.0866 -0.7057
  131MOL0     H17254   8.173   5.916   9.657 -0.6374 -2.2829 -2.2135
  131MOL0     H17255   8.366   5.999   9.818 -1.0391  0.8565 -1.3262
  131MOL0     H17256   8.629   5.572  10.211 -0.8622  1.5803 -0.0296
  131MOL0     H17257   8.795   5.556  10.391 -4.3624 -2.1549 -1.2274
  131MOL0     H17258   9.045   5.732  10.411 -0.0598  0.3733 -0.0444
  131MOL0     H17259   8.975   5.616  10.512 -0.9765  0.0874  0.1804
  131MOL0     H17260   9.184   5.674  10.599 -0.3195  1.9515 -4.4316
  131MOL0     H17261   9.045   5.689  10.714  2.9250 -2.5906  0.8681
  131MOL0     H17262   9.047   5.941  10.621  0.0605  2.0010  2.9101
  131MOL0     H17263   9.211   5.912  10.578  0.7308  0.1502 -0.0596
  131MOL0     H17264   9.211   6.020  10.775  1.4420 -0.5823  1.9160
  131MOL0     H17265   9.097   5.905  10.861  2.1578 -0.5395  1.8297
  131MOL0     H17266   9.378   5.847  10.756  0.0500 -0.1535 -0.0199
  131MOL0     H17267   9.266   5.728  10.824 -1.6272 -0.3766  0.5740
  131MOL0     H17268   9.386   5.968  10.965  4.7829 -1.6176  0.8429
  131MOL0     H17269   9.443   5.813  10.988 -0.2842  0.1539  1.4974
  131MOL0     H17270   9.171   5.911  11.093  1.6585  1.1982  1.4932
  131MOL0     H17271   9.200   5.745  11.074  0.8562  0.0901  0.3441
  131MOL0     H17272   9.408   5.759  11.218  1.2824  0.2074 -0.5035
  131MOL0     H17273   9.266   5.814  11.303 -0.3628  0.4273 -0.0220
  131MOL0     H17274   8.712   5.994  10.456  2.2133  1.2036 -3.0091
  131MOL0     H17275   8.536   5.978  10.287  0.1012 -0.6663 -1.7379
  131MOL0     H17276   8.314   5.611  10.027  1.1839 -1.4353 -1.4102
  131MOL0     H17277   8.140   5.551   9.870 -1.1880 -0.2665 -4.0092
  131MOL0     H17278   7.733   4.508  10.381 -0.4979 -1.6029  0.5813
  131MOL0     H17279   7.865   4.392  10.555  1.4488 -1.8640 -0.6793
  131MOL0     H17280   8.163   3.951  10.657 -1.2222  3.6950 -3.8708
  131MOL0     H17281   8.249   3.879  10.882  1.8973  1.9570  1.2946
  131MOL0     H17282   8.270   4.149  11.221 -0.9385  0.1623 -0.6276
  131MOL0     H17283   8.430   4.106  11.164  0.3750 -1.4166  0.9149
  131MOL0     H17284   8.404   4.046  11.378 -1.4826  0.4333 -0.3466
  131MOL0     H17285   8.279   3.921  11.350  2.7919 -1.7225  3.6666
  131MOL0     H17286   8.539   3.906  11.206 -3.4376  3.1542 -1.4296
  131MOL0     H17287   8.413   3.773  11.237 -2.5541  1.3322  0.8695
  131MOL0     H17288   8.616   3.740  11.392 -0.3478 -0.4660  1.5524
  131MOL0     H17289   8.567   3.892  11.476  0.6724 -0.5580 -0.2692
  131MOL0     H17290   8.266   3.585  11.540  0.1350  0.3806  2.5439
  131MOL0     H17291   8.220   4.273  11.034  0.6459 -0.9042  0.4464
  131MOL0     H17292   8.149   4.351  10.816 -0.7543 -0.0546  1.9262
  132MOL0     O17293   7.164   1.935   2.354 -0.3203 -0.5484 -0.1990
  132MOL0     C17294   7.104   1.935   2.246 -0.3555 -0.9631  0.5639
  132MOL0     O17295   7.087   2.049   2.160  0.4442  0.3103 -0.2013
  132MOL0     C17296   7.163   2.160   2.194 -0.0457  0.7666  0.7338
  132MOL0     C17297   7.124   2.236   2.301  0.4832  0.5095 -0.4732
  132MOL0     C17298   7.191   2.359   2.321 -0.8335 -0.9738  0.1215
  132MOL0     C17299   7.300   2.398   2.245 -0.1491  0.5932  0.0919
  132MOL0     O17300   7.360   2.513   2.278 -0.1642  0.5345 -0.6889
  132MOL0     C17301   7.444   2.574   2.182 -1.0430 -0.0958 -0.1911
  132MOL0     C17302   7.487   2.729   2.209  0.3177  0.9892  0.0667
  132MOL0     C17303   7.528   2.747   2.347 -0.4860  0.6459 -0.0307
  132MOL0     C17304   7.609   2.876   2.351 -0.9126  0.0780  0.3747
  132MOL0     C17305   7.672   2.895   2.493  0.4684  0.3070 -0.2695
  132MOL0     C17306   7.765   2.779   2.532  0.5269 -0.4405  0.2084
  132MOL0     C17307   7.883   2.749   2.433 -0.1081 -0.2263 -0.9167
  132MOL0     C17308   7.986   2.853   2.483 -0.7451  1.1227 -1.0198
  132MOL0     N17309   8.123   2.840   2.429  0.3446 -0.6854 -0.1043
  132MOL0     C17310   8.212   2.750   2.481 -1.2839  0.6791 -0.3610
  132MOL0     C17311   8.331   2.772   2.409  0.3434 -0.1019  1.1423
  132MOL0     C17312   8.453   2.716   2.460  0.5117 -0.1031  0.1656
  132MOL0     C17313   8.586   2.780   2.406 -0.0865  0.6514  0.4193
  132MOL0     C17314   8.700   2.674   2.375 -0.4839 -0.6708 -1.2624
  132MOL0     C17315   8.718   2.581   2.503 -0.0749  0.8897  0.0303
  132MOL0     O17316   8.663   2.449   2.473  0.1376  0.3284  0.0769
  132MOL0     C17317   8.696   2.341   2.565 -0.1015  0.4515 -0.5708
  132MOL0     C17318   8.655   2.210   2.531 -0.7547 -1.3056  0.0987
  132MOL0     C17319   8.676   2.107   2.614 -0.4516  0.1307 -0.1886
  132MOL0     C17320   8.758   2.115   2.733 -0.7183 -0.7981 -0.0452
  132MOL0     C17321   8.813   2.002   2.811  0.2680  0.2063 -0.2453
  132MOL0     O17322   8.895   2.036   2.919  0.3845 -0.5254 -0.5168
  132MOL0     C17323   8.938   1.941   2.999  0.5035 -0.1010  0.2914
  132MOL0     C17324   9.066   1.926   3.019 -0.0797  0.2727 -0.0860
  132MOL0     C17325   9.105   1.844   3.125 -0.7799 -0.7711  0.9925
  132MOL0     C17326   9.021   1.744   3.178 -0.1252  0.4828  1.0119
  132MOL0     O17327   9.077   1.658   3.271 -0.3528  0.0692 -0.0554
  132MOL0     C17328   9.006   1.570   3.355 -0.0540  0.5671  0.7138
  132MOL0     C17329   9.039   1.622   3.496  0.5633 -0.1694  0.7106
  132MOL0     C17330   9.051   1.510   3.588  0.7303  1.1799 -0.5070
  132MOL0     C17331   9.103   1.559   3.722 -0.3231 -0.2951 -0.1975
  132MOL0     C17332   9.240   1.628   3.734 -0.8520 -0.7613 -1.1193
  132MOL0     C17333   9.237   1.783   3.734  0.0766  0.4931 -0.1493
  132MOL0     C17334   9.380   1.841   3.760 -0.7538  0.1177  0.6091
  132MOL0     C17335   9.375   1.993   3.761 -0.0945 -0.6527  0.0141
  132MOL0    Cl17336   9.297   2.066   3.624 -0.8037  0.3072 -0.2047
  132MOL0     C17337   8.886   1.751   3.129  0.0796 -0.5159 -0.5730
  132MOL0     C17338   8.846   1.855   3.052  1.2608  0.1877  0.4727
  132MOL0     O17339   8.778   1.893   2.774  0.2898 -0.1014  0.0441
  132MOL0     C17340   8.802   2.252   2.767 -0.2866  0.5581 -0.1695
  132MOL0     C17341   8.773   2.355   2.686  0.1662 -0.1422  0.3415
  132MOL0     N17342   8.305   2.878   2.323 -0.0330 -0.1727  0.2090
  132MOL0     N17343   8.172   2.914   2.324  0.6183  1.1428 -0.6493
  132MOL0     C17344   7.349   2.311   2.135  0.2914  0.9076  0.5293
  132MOL0     C17345   7.269   2.190   2.109  0.0861 -0.1122 -0.4650
  132MOL0     C17346   7.060   1.801   2.199 -0.3529 -0.3525  0.8349
  132MOL0     C17347   6.938   1.813   2.143  0.6321 -0.5594  0.0994
  132MOL0     C17348   6.877   1.691   2.102  0.9557  0.1539 -0.4936
  132MOL0     C17349   6.951   1.574   2.098 -0.3393 -0.4926  0.1628
  132MOL0     O17350   6.894   1.455   2.069 -0.5786  0.0563 -0.7571
  132MOL0     C17351   6.830   1.444   1.932  0.1853  0.3228  0.4624
  132MOL0     C17352   6.759   1.308   1.948  0.6224 -0.2290  0.6558
  132MOL0     C17353   6.855   1.196   1.973  0.1923 -0.2512  0.4201
  132MOL0     C17354   6.969   1.200   1.869  0.4634 -0.3299  0.3960
  132MOL0     C17355   6.896   1.198   1.741 -0.1356 -0.4398 -0.3050
  132MOL0     C17356   6.847   1.179   1.634  0.0547  0.3133  0.9724
  132MOL0     C17357   7.074   1.574   2.150  0.3608  0.3302 -0.6532
  132MOL0     C17358   7.132   1.684   2.210 -0.6467 -0.5231 -0.4356
  132MOL0     H17359   7.035   2.211   2.358  0.3294  1.5980 -0.2175
  132MOL0     H17360   7.173   2.420   2.409  0.4432 -0.8759  0.3427
  132MOL0     H17361   7.384   2.578   2.090 -0.6953  0.1883 -0.4077
  132MOL0     H17362   7.531   2.511   2.165 -0.0114  1.3335 -0.4237
  132MOL0     H17363   7.414   2.807   2.182  2.3988  2.7581 -0.8059
  132MOL0     H17364   7.579   2.733   2.150 -0.9009 -0.0350 -2.0109
  132MOL0     H17365   7.578   2.655   2.379 -1.0007 -0.1427 -1.4450
  132MOL0     H17366   7.448   2.765   2.419  0.5099  1.2969  0.9616
  132MOL0     H17367   7.676   2.877   2.265 -0.9645  3.9552  0.1856
  132MOL0     H17368   7.537   2.957   2.332  0.1341  1.0891  0.6315
  132MOL0     H17369   7.592   2.903   2.567  0.7517 -0.3555  0.1229
  132MOL0     H17370   7.735   2.985   2.497 -0.7607  1.1675  0.5650
  132MOL0     H17371   7.698   2.695   2.550  1.1435 -1.5163 -2.1151
  132MOL0     H17372   7.805   2.796   2.632  1.3323  1.3002 -0.3656
  132MOL0     H17373   7.926   2.648   2.434  0.9823  0.2227 -0.2358
  132MOL0     H17374   7.855   2.763   2.328 -0.6805  0.2222 -0.7086
  132MOL0     H17375   7.992   2.856   2.592 -2.1340  0.0809 -0.8915
  132MOL0     H17376   7.948   2.950   2.450  1.0081  1.4854 -2.0930
  132MOL0     H17377   8.202   2.687   2.569  0.5525 -1.7898 -1.7970
  132MOL0     H17378   8.458   2.610   2.434  0.6212  0.1739 -1.0001
  132MOL0     H17379   8.451   2.735   2.568 -0.8664 -0.9311  0.3102
  132MOL0     H17380   8.615   2.846   2.488 -1.5143  3.1620 -0.9593
  132MOL0     H17381   8.577   2.848   2.321  0.9105  0.2127 -0.0568
  132MOL0     H17382   8.683   2.622   2.280 -1.3626  0.3607 -1.6927
  132MOL0     H17383   8.792   2.734   2.365 -1.3851  1.5188  1.9710
  132MOL0     H17384   8.677   2.635   2.589  1.9757  2.5865  0.0255
  132MOL0     H17385   8.826   2.582   2.518 -0.1200 -1.7586  1.0566
  132MOL0     H17386   8.602   2.189   2.439 -0.3607  2.8170 -1.2594
  132MOL0     H17387   8.641   2.009   2.582 -0.7244  0.5696 -1.2667
  132MOL0     H17388   9.141   1.986   2.969  0.3565  0.8805  1.2675
  132MOL0     H17389   9.212   1.837   3.139 -0.9041 -2.6765  1.2616
  132MOL0     H17390   9.034   1.465   3.339  0.2099  0.8423 -0.7684
  132MOL0     H17391   8.901   1.581   3.326  0.2741  1.5782 -0.1563
  132MOL0     H17392   8.962   1.690   3.533 -1.6705  0.7614 -4.7360
  132MOL0     H17393   9.137   1.670   3.500 -0.7142  2.7396 -0.3567
  132MOL0     H17394   9.119   1.436   3.543  2.4422  2.6194 -0.4191
  132MOL0     H17395   8.955   1.460   3.597  1.9051 -0.7516  3.6396
  132MOL0     H17396   9.020   1.623   3.755 -3.3504 -3.0301 -1.8990
  132MOL0     H17397   9.117   1.474   3.789  0.9837 -0.3832 -0.5612
  132MOL0     H17398   9.313   1.590   3.662  1.5383 -0.4147  0.9759
  132MOL0     H17399   9.278   1.593   3.831 -0.1936  0.8384 -0.7781
  132MOL0     H17400   9.164   1.828   3.803 -3.2700 -1.4331 -2.1728
  132MOL0     H17401   9.203   1.816   3.635 -2.4955 -0.7964  0.2301
  132MOL0     H17402   9.425   1.801   3.852  1.2880 -0.4960 -0.5882
  132MOL0     H17403   9.438   1.797   3.679 -0.7711 -2.7532  2.0219
  132MOL0     H17404   9.479   2.025   3.774  0.9554 -3.4308 -0.8828
  132MOL0     H17405   9.314   2.023   3.846 -1.7110 -0.0293 -1.3115
  132MOL0     H17406   8.818   1.670   3.155 -1.1528 -0.7333 -3.9411
  132MOL0     H17407   8.739   1.873   3.048  0.9671 -0.7029  2.9031
  132MOL0     H17408   8.868   2.269   2.851  2.5699 -1.7495 -1.7783
  132MOL0     H17409   8.807   2.456   2.704  1.7549 -0.6026  0.0808
  132MOL0     H17410   7.430   2.324   2.064 -0.6503 -1.8706 -1.2285
  132MOL0     H17411   7.300   2.119   2.033  3.1977 -1.1356  1.5821
  132MOL0     H17412   6.879   1.904   2.135  2.2504  0.5939  0.8640
  132MOL0     H17413   6.783   1.700   2.049  2.1924  1.4174 -2.5728
  132MOL0     H17414   6.896   1.446   1.845  1.9566  4.0006  1.6802
  132MOL0     H17415   6.747   1.512   1.912 -0.9532 -2.0104 -4.1312
  132MOL0     H17416   6.687   1.310   2.031  0.4189  2.1573  0.5090
  132MOL0     H17417   6.692   1.301   1.862  0.1815 -1.7210  1.1010
  132MOL0     H17418   6.807   1.098   1.970  0.1364 -0.2815  1.6749
  132MOL0     H17419   6.894   1.209   2.075 -0.0252  2.0122  0.2717
  132MOL0     H17420   7.042   1.280   1.884  0.4017 -0.4432  1.3855
  132MOL0     H17421   7.020   1.104   1.869 -1.4283 -1.4599 -2.0643
  132MOL0     H17422   6.798   1.151   1.542  0.4086  0.3082  0.7824
  132MOL0     H17423   7.127   1.479   2.151 -1.2170 -0.5877 -0.5024
  132MOL0     H17424   7.227   1.658   2.256 -0.7105 -2.9448 -1.5240
  133MOL0     O17425   3.539   0.674   7.269  0.4024  0.4346  0.4066
  133MOL0     C17426   3.527   0.608   7.378  0.9430  0.2731  0.0662
  133MOL0     O17427   3.478   0.655   7.491 -0.6991  0.0476 -0.9539
  133MOL0     C17428   3.453   0.786   7.493  0.3360  0.3325 -0.3205
  133MOL0     C17429   3.351   0.836   7.407 -0.5405 -0.5085  0.3301
  133MOL0     C17430   3.318   0.976   7.415 -0.8647 -0.2777  0.4258
  133MOL0     C17431   3.366   1.056   7.522  0.6201 -0.6884  0.1739
  133MOL0     O17432   3.316   1.191   7.544 -0.7896  0.3772 -0.2794
  133MOL0     C17433   3.310   1.246   7.674  0.1913 -0.5744 -0.1560
  133MOL0     C17434   3.239   1.381   7.670  0.3292  1.0800 -1.2205
  133MOL0     C17435   3.212   1.435   7.807  0.4595  0.2216  0.5378
  133MOL0     C17436   3.102   1.538   7.795  0.4831 -0.2117  0.1213
  133MOL0     C17437   3.123   1.635   7.905  0.1121 -0.2287 -0.4262
  133MOL0     C17438   2.980   1.695   7.929  0.2173  0.5694 -0.3729
  133MOL0     C17439   2.980   1.815   8.020  1.3983 -0.9219 -0.7416
  133MOL0     C17440   3.049   1.938   7.958  0.5484 -0.6287 -0.7777
  133MOL0     N17441   2.995   2.006   7.842  0.0766 -0.4158  0.2535
  133MOL0     C17442   3.004   1.959   7.710  0.6501  0.0299 -0.0243
  133MOL0     C17443   3.003   2.066   7.634 -0.0806 -0.2128  0.2565
  133MOL0     C17444   3.004   2.065   7.486 -0.1390 -0.4276  0.7774
  133MOL0     C17445   3.077   2.178   7.408  0.2337  0.0117 -0.1323
  133MOL0     C17446   3.213   2.128   7.373  0.1264 -0.4946 -0.5288
  133MOL0     C17447   3.318   2.249   7.353 -0.9593  0.8076 -0.0236
  133MOL0     O17448   3.450   2.205   7.313  0.4598 -0.0673 -0.1696
  133MOL0     C17449   3.523   2.314   7.290 -1.1366  0.3795  0.1118
  133MOL0     C17450   3.525   2.440   7.352  0.0225  0.8606  0.0701
  133MOL0     C17451   3.624   2.532   7.321  0.3001 -0.3646 -1.3632
  133MOL0     C17452   3.723   2.506   7.229  1.3033  0.2797 -0.3087
  133MOL0     C17453   3.822   2.613   7.197 -0.6166  0.2267  0.2222
  133MOL0     O17454   3.833   2.711   7.287 -0.2636  0.4760  0.2734
  133MOL0     C17455   3.932   2.805   7.256 -0.0642 -0.3551 -0.8824
  133MOL0     C17456   4.046   2.800   7.336 -0.3668  1.2416 -0.1483
  133MOL0     C17457   4.150   2.892   7.328 -0.5568 -0.1644  0.6580
  133MOL0     C17458   4.143   3.002   7.243  0.6078 -0.1674  0.6978
  133MOL0     O17459   4.239   3.106   7.242 -0.6520  0.4471 -0.0051
  133MOL0     C17460   4.302   3.133   7.371 -0.7689  0.0882  0.4336
  133MOL0     C17461   4.422   3.231   7.360 -0.0016  0.4811  0.3103
  133MOL0     C17462   4.386   3.374   7.365  0.2785 -0.0167 -0.8077
  133MOL0     C17463   4.516   3.454   7.343  0.1257 -0.6492 -0.3592
  133MOL0     C17464   4.514   3.601   7.385 -0.7311  1.4870  0.0388
  133MOL0     C17465   4.408   3.668   7.292 -0.5048 -0.7959 -0.1191
  133MOL0     C17466   4.405   3.819   7.309  0.2594 -0.5880  0.3961
  133MOL0     C17467   4.516   3.886   7.218  1.1775 -0.3559  0.4727
  133MOL0    Cl17468   4.502   4.057   7.209 -0.1550  0.3758  0.2140
  133MOL0     C17469   4.030   3.007   7.164 -0.0607  0.3973 -0.0254
  133MOL0     C17470   3.924   2.908   7.164  0.3071  0.1434  0.0045
  133MOL0     O17471   3.889   2.598   7.098 -0.6825 -0.0244  0.1463
  133MOL0     C17472   3.712   2.389   7.159 -0.8785  0.2713  0.1637
  133MOL0     C17473   3.613   2.291   7.191 -0.3151 -0.5117 -0.4764
  133MOL0     N17474   2.978   2.179   7.723  0.2079  0.7383 -0.2493
  133MOL0     N17475   2.970   2.141   7.843 -0.0536 -0.9513  0.7887
  133MOL0     C17476   3.456   0.999   7.612 -0.3171  0.7106  0.1937
  133MOL0     C17477   3.510   0.870   7.590 -0.0829  0.0948 -0.0465
  133MOL0     C17478   3.557   0.465   7.368  0.1267 -0.2933 -0.3044
  133MOL0     C17479   3.538   0.396   7.241 -0.2822  0.4133 -0.2626
  133MOL0     C17480   3.570   0.263   7.223 -0.5948  0.2543 -1.5595
  133MOL0     C17481   3.608   0.193   7.336 -0.6334 -0.0258 -0.5564
  133MOL0     O17482   3.620   0.056   7.353  0.0366 -0.3466  0.3500
  133MOL0     C17483   3.758   0.016   7.341  0.3790 -0.0768 -0.4091
  133MOL0     C17484   3.814  -0.031   7.477 -1.4349  0.1343  0.1106
  133MOL0     C17485   3.944  -0.117   7.463  0.4772  0.0374 -0.5573
  133MOL0     C17486   4.062  -0.033   7.408 -0.3640 -0.1785 -0.7283
  133MOL0     C17487   4.187  -0.106   7.364  0.1403  1.0656 -0.7444
  133MOL0     C17488   4.290  -0.151   7.335 -0.0550  0.2792  0.2533
  133MOL0     C17489   3.620   0.260   7.462  1.1238  1.1522  0.7301
  133MOL0     C17490   3.609   0.398   7.481  0.5684 -0.1838  0.6836
  133MOL0     H17491   3.314   0.775   7.325  0.8096 -1.8207  0.6255
  133MOL0     H17492   3.260   1.027   7.339  0.3574 -1.5629 -1.4744
  133MOL0     H17493   3.415   1.265   7.699  0.0542  1.7534 -1.0478
  133MOL0     H17494   3.257   1.188   7.750  0.8169  0.9208  1.5056
  133MOL0     H17495   3.146   1.344   7.625  0.3935 -2.8982  1.3509
  133MOL0     H17496   3.282   1.448   7.595  1.6340  0.6426 -0.8810
  133MOL0     H17497   3.304   1.488   7.831  1.8865 -1.0855 -1.6805
  133MOL0     H17498   3.182   1.359   7.879 -2.8431  0.2085 -0.6409
  133MOL0     H17499   3.106   1.573   7.691  0.2000 -3.1303 -0.9609
  133MOL0     H17500   3.002   1.494   7.802  1.2677 -1.9784  0.9062
  133MOL0     H17501   3.196   1.711   7.877 -2.5145  1.9343 -1.8341
  133MOL0     H17502   3.147   1.588   8.002  0.9439 -0.4476 -0.7274
  133MOL0     H17503   2.917   1.620   7.979 -0.4824  0.9464 -0.6871
  133MOL0     H17504   2.938   1.725   7.833  0.8684 -0.2298 -0.9323
  133MOL0     H17505   2.876   1.850   8.020  1.2519 -1.1940  1.4996
  133MOL0     H17506   3.017   1.800   8.122  2.8274 -0.6411 -1.1994
  133MOL0     H17507   3.156   1.919   7.967  0.2340 -1.5478  2.1628
  133MOL0     H17508   3.022   2.009   8.037 -1.3088 -0.2909 -1.6549
  133MOL0     H17509   3.024   1.860   7.671  3.1184 -0.0228  1.1620
  133MOL0     H17510   2.896   2.073   7.470 -0.1878  1.7983  1.7210
  133MOL0     H17511   3.034   1.965   7.455 -1.5104 -1.1612  1.7136
  133MOL0     H17512   3.101   2.263   7.473 -0.4052  1.8886 -2.2359
  133MOL0     H17513   3.027   2.222   7.321 -0.3829 -4.0894 -2.1008
  133MOL0     H17514   3.262   2.069   7.452  1.6787  2.5660  0.9598
  133MOL0     H17515   3.210   2.067   7.282  1.0419 -0.0378 -0.8752
  133MOL0     H17516   3.326   2.304   7.447  1.5781  2.3547 -1.0144
  133MOL0     H17517   3.283   2.311   7.270  1.9928 -0.1959 -2.2270
  133MOL0     H17518   3.457   2.457   7.435  1.0433  1.3482  0.8246
  133MOL0     H17519   3.624   2.632   7.364  0.2329 -0.1294 -1.9083
  133MOL0     H17520   4.066   2.720   7.406  1.5559 -0.4930 -2.5090
  133MOL0     H17521   4.226   2.880   7.405  0.4992  0.9134 -0.1740
  133MOL0     H17522   4.336   3.032   7.397 -1.3984 -1.2984 -3.4373
  133MOL0     H17523   4.229   3.174   7.441  0.6030  3.6838 -0.0323
  133MOL0     H17524   4.471   3.210   7.264 -0.2703 -2.0136  0.6599
  133MOL0     H17525   4.499   3.195   7.428  1.5357  1.3578 -0.9046
  133MOL0     H17526   4.332   3.395   7.458 -1.8158 -3.1537 -1.1366
  133MOL0     H17527   4.306   3.376   7.290 -1.3369 -1.0591  0.8104
  133MOL0     H17528   4.588   3.411   7.413 -0.7697  1.2858  1.9217
  133MOL0     H17529   4.554   3.446   7.241 -0.1927  1.5715 -0.7140
  133MOL0     H17530   4.614   3.643   7.372  0.1750 -0.9921 -2.1743
  133MOL0     H17531   4.487   3.607   7.490  0.2581  1.7453  0.2885
  133MOL0     H17532   4.308   3.630   7.312 -1.0492  1.4709  1.9607
  133MOL0     H17533   4.416   3.666   7.183 -1.5475 -0.5751 -0.2112
  133MOL0     H17534   4.309   3.854   7.272  1.0389  0.5988 -0.5833
  133MOL0     H17535   4.413   3.842   7.416  1.3753 -0.1370  0.2306
  133MOL0     H17536   4.495   3.852   7.116  0.9233  0.1609  0.3498
  133MOL0     H17537   4.616   3.858   7.251  2.1212  1.6974 -0.4719
  133MOL0     H17538   4.011   3.096   7.104 -2.0355 -0.4861 -0.8079
  133MOL0     H17539   3.839   2.923   7.098  1.2536 -1.0980 -1.5898
  133MOL0     H17540   3.790   2.372   7.085  0.2615 -4.2227  2.0617
  133MOL0     H17541   3.612   2.195   7.139 -0.9695 -0.1256 -1.1889
  133MOL0     H17542   3.478   1.050   7.705  0.0597 -0.6796  0.8894
  133MOL0     H17543   3.579   0.829   7.663 -1.1803 -0.7889  0.5177
  133MOL0     H17544   3.486   0.443   7.158 -1.8062 -0.7136  0.0146
  133MOL0     H17545   3.554   0.208   7.131 -2.2934 -1.5456 -0.2887
  133MOL0     H17546   3.825   0.095   7.307  0.1128 -0.3116 -1.4892
  133MOL0     H17547   3.773  -0.068   7.273  1.0855  2.6479 -3.8555
  133MOL0     H17548   3.843   0.059   7.531  0.4281 -1.3895  1.8053
  133MOL0     H17549   3.739  -0.094   7.525 -0.7042  0.8968  2.3365
  133MOL0     H17550   3.929  -0.208   7.404  1.9707 -1.3830  1.1443
  133MOL0     H17551   3.967  -0.150   7.565  1.0259  0.5918 -0.4968
  133MOL0     H17552   4.033   0.029   7.323 -1.6817 -1.1985 -1.0513
  133MOL0     H17553   4.099   0.040   7.480  0.0917 -1.6426  0.5856
  133MOL0     H17554   4.368  -0.219   7.307  2.6847  1.9381  3.1943
  133MOL0     H17555   3.630   0.188   7.542  1.0527  0.4918  0.1542
  133MOL0     H17556   3.630   0.448   7.575 -2.2320  2.1134  0.2379
  134MOL0     O17557  10.006   1.957   0.017 -0.2033 -0.2277  0.0133
  134MOL0     C17558  10.034   1.833   0.013 -0.3144 -0.1326 -0.1829
  134MOL0     O17559  10.104   1.765  -0.085 -0.4019  0.0993 -0.1464
  134MOL0     C17560  10.150   1.841  -0.188 -1.0825  0.1155  0.0832
  134MOL0     C17561  10.269   1.909  -0.169  0.3640 -0.2702  0.7633
  134MOL0     C17562  10.324   1.971  -0.278  0.5001  1.2123 -0.2193
  134MOL0     C17563  10.257   1.966  -0.406 -0.2593 -0.5513 -0.1732
  134MOL0     O17564  10.301   2.042  -0.516 -0.5714  0.2571 -0.2291
  134MOL0     C17565  10.407   2.136  -0.505  0.4540  0.1567  0.0144
  134MOL0     C17566  10.540   2.092  -0.570  0.0023 -1.0974 -0.2473
  134MOL0     C17567  10.545   2.069  -0.726  0.2887 -0.3410 -0.9970
  134MOL0     C17568  10.537   2.204  -0.795  0.5455  0.0490  0.8680
  134MOL0     C17569  10.556   2.199  -0.944  0.5000 -0.4131 -0.4614
  134MOL0     C17570  10.558   2.334  -1.001 -0.3509  0.0977 -1.0103
  134MOL0     C17571  10.564   2.349  -1.154 -0.5092  0.0603  0.0946
  134MOL0     C17572  10.531   2.488  -1.214 -0.4519  0.7056  0.2276
  134MOL0     N17573  10.548   2.484  -1.355  0.2344 -0.4522  0.8767
  134MOL0     C17574  10.466   2.417  -1.453  0.1663 -0.1202  0.3551
  134MOL0     C17575  10.521   2.439  -1.572 -0.5809  0.6011  0.2127
  134MOL0     C17576  10.468   2.377  -1.698  0.5339  0.4088 -0.3473
  134MOL0     C17577  10.565   2.270  -1.766 -0.6965 -0.4456 -0.4297
  134MOL0     C17578  10.675   2.307  -1.865  0.2546  0.0061 -0.8013
  134MOL0     C17579  10.760   2.184  -1.884 -0.4281 -0.5024  0.7714
  134MOL0     O17580  10.847   2.193  -1.997  0.2386 -0.1676  0.2829
  134MOL0     C17581  10.971   2.253  -1.982  0.3853  0.3886 -1.0480
  134MOL0     C17582  11.061   2.191  -1.890 -0.4243 -0.2144  0.2747
  134MOL0     C17583  11.185   2.260  -1.862 -0.5347  0.8884  0.2989
  134MOL0     C17584  11.231   2.364  -1.941 -0.0384 -0.4411 -0.2578
  134MOL0     C17585  11.376   2.414  -1.931  0.0827 -0.4146 -1.1253
  134MOL0     O17586  11.460   2.331  -1.864 -0.6775  0.4830  0.0440
  134MOL0     C17587  11.586   2.375  -1.851 -0.6956 -0.9873  0.2656
  134MOL0     C17588  11.638   2.395  -1.724  0.2840  0.1718  0.1394
  134MOL0     C17589  11.765   2.449  -1.725 -0.6060  0.2712 -0.3163
  134MOL0     C17590  11.840   2.465  -1.840 -0.3129 -0.9776  0.6995
  134MOL0     O17591  11.959   2.524  -1.825 -0.0362 -0.1814  0.2250
  134MOL0     C17592  12.068   2.446  -1.879 -0.3285 -0.2803 -0.4877
  134MOL0     C17593  12.071   2.298  -1.828 -0.2601 -0.1116 -0.0133
  134MOL0     C17594  12.207   2.231  -1.853 -0.8837 -0.1425 -0.1649
  134MOL0     C17595  12.227   2.126  -1.750 -0.2185 -1.8276  0.3392
  134MOL0     C17596  12.310   2.194  -1.634  0.0347 -0.0518  0.4896
  134MOL0     C17597  12.315   2.111  -1.502 -1.0767 -0.3440 -0.1137
  134MOL0     C17598  12.356   2.191  -1.372  0.8870  0.3581 -0.4023
  134MOL0     C17599  12.281   2.144  -1.250 -0.1329  0.0517 -0.1728
  134MOL0    Cl17600  12.286   1.971  -1.228  0.0517  0.0895  0.3721
  134MOL0     C17601  11.793   2.450  -1.968 -0.0199  0.3136 -0.0478
  134MOL0     C17602  11.664   2.404  -1.968 -0.3103 -0.1607 -0.2324
  134MOL0     O17603  11.406   2.528  -1.945 -0.9148  0.7205 -0.3672
  134MOL0     C17604  11.143   2.418  -2.027  1.1616  0.1478  0.0185
  134MOL0     C17605  11.011   2.368  -2.043  0.3790 -0.6807  0.2651
  134MOL0     N17606  10.642   2.513  -1.545 -0.8530 -0.5662 -0.3985
  134MOL0     N17607  10.657   2.537  -1.422 -0.9794  0.3199 -0.4153
  134MOL0     C17608  10.136   1.901  -0.420  0.3492 -0.2837 -0.1275
  134MOL0     C17609  10.081   1.837  -0.311  0.0963 -0.2508  0.5629
  134MOL0     C17610   9.987   1.737   0.126  0.5545  0.3593  0.3849
  134MOL0     C17611   9.959   1.776   0.255  0.6997 -0.6679  0.4715
  134MOL0     C17612   9.904   1.690   0.350  0.4968 -0.2384  1.0490
  134MOL0     C17613   9.887   1.554   0.323  0.2314 -0.4474 -0.2803
  134MOL0     O17614   9.834   1.482   0.420  0.2625  0.5249 -0.7299
  134MOL0     C17615   9.814   1.342   0.379 -0.1335 -1.0118  0.2701
  134MOL0     C17616   9.736   1.247   0.471  1.1270 -0.2021 -1.8191
  134MOL0     C17617   9.601   1.320   0.512  0.0388  0.3514  0.5574
  134MOL0     C17618   9.505   1.236   0.595 -0.2841 -0.4940  1.1034
  134MOL0     C17619   9.420   1.140   0.516  0.1778 -0.2717  0.0474
  134MOL0     C17620   9.349   1.066   0.452  0.5669 -0.1113 -0.9162
  134MOL0     C17621   9.938   1.517   0.199 -0.9329  0.7996 -0.1529
  134MOL0     C17622   9.976   1.604   0.100 -0.0768 -0.2972 -0.5354
  134MOL0     H17623  10.312   1.913  -0.070  0.0327  1.3180  0.8642
  134MOL0     H17624  10.415   2.027  -0.260 -0.2950  2.2594  0.7304
  134MOL0     H17625  10.417   2.177  -0.404  1.2030 -1.9501  0.8763
  134MOL0     H17626  10.372   2.227  -0.553 -2.8568  1.2545  3.9460
  134MOL0     H17627  10.574   1.995  -0.531 -1.4768 -1.9879 -1.0748
  134MOL0     H17628  10.619   2.160  -0.538 -1.6544 -0.3809  2.6159
  134MOL0     H17629  10.463   2.003  -0.756 -0.4719 -0.5972  1.4303
  134MOL0     H17630  10.644   2.024  -0.742 -0.7932 -3.6970  0.7842
  134MOL0     H17631  10.437   2.244  -0.777 -0.1179 -1.6116  1.0209
  134MOL0     H17632  10.605   2.270  -0.741  0.1140  1.1121  0.1421
  134MOL0     H17633  10.474   2.141  -0.986  0.3868 -2.5666  2.4578
  134MOL0     H17634  10.644   2.139  -0.969  0.5991 -1.1258  1.4729
  134MOL0     H17635  10.640   2.388  -0.955 -0.2123 -2.1107  1.5663
  134MOL0     H17636  10.466   2.386  -0.972  0.4804  1.0030  0.0557
  134MOL0     H17637  10.657   2.299  -1.181 -1.1250 -0.4724 -1.1697
  134MOL0     H17638  10.477   2.297  -1.197  0.7985  0.5763 -3.6100
  134MOL0     H17639  10.610   2.555  -1.178 -0.6132  2.2814 -2.1523
  134MOL0     H17640  10.434   2.529  -1.185  0.6049  1.5473  2.9170
  134MOL0     H17641  10.384   2.347  -1.442  0.8562 -1.0313 -0.1948
  134MOL0     H17642  10.458   2.458  -1.771  1.2807  0.5242 -0.3343
  134MOL0     H17643  10.370   2.333  -1.679  0.6772  0.4452  0.4911
  134MOL0     H17644  10.505   2.187  -1.805 -1.1096 -1.5330  2.2839
  134MOL0     H17645  10.616   2.213  -1.688 -2.8978 -2.2358 -0.1899
  134MOL0     H17646  10.622   2.333  -1.958 -2.0990 -3.0351 -0.4811
  134MOL0     H17647  10.727   2.390  -1.817  3.1969 -1.8750 -0.5162
  134MOL0     H17648  10.689   2.106  -1.912 -0.2715  0.4711 -2.8789
  134MOL0     H17649  10.814   2.164  -1.791  2.1458  2.7634  0.1506
  134MOL0     H17650  11.033   2.111  -1.822 -1.7386  1.5303  1.9029
  134MOL0     H17651  11.249   2.223  -1.783  0.0941  0.6310 -0.3214
  134MOL0     H17652  11.573   2.376  -1.639  1.3965 -0.8000  0.8081
  134MOL0     H17653  11.819   2.478  -1.636  1.3367  0.2527 -1.4241
  134MOL0     H17654  12.158   2.501  -1.851 -1.5678  1.1089  1.0545
  134MOL0     H17655  12.076   2.445  -1.988  1.8557 -5.1577 -0.5443
  134MOL0     H17656  11.995   2.256  -1.895  0.7543 -0.3378 -1.0519
  134MOL0     H17657  12.040   2.289  -1.724  1.5501 -0.7591  0.5060
  134MOL0     H17658  12.293   2.299  -1.842 -0.3367 -0.6019 -1.4835
  134MOL0     H17659  12.204   2.188  -1.953  2.7316 -3.5994  0.9894
  134MOL0     H17660  12.133   2.077  -1.725  0.1016 -4.5976 -3.0476
  134MOL0     H17661  12.297   2.050  -1.787  0.9228 -1.6080  1.9507
  134MOL0     H17662  12.256   2.286  -1.609  0.0651  0.5442 -1.4872
  134MOL0     H17663  12.408   2.223  -1.673  0.7940  0.2533  2.4565
  134MOL0     H17664  12.394   2.036  -1.513 -0.8192 -0.2396  0.9751
  134MOL0     H17665  12.220   2.060  -1.492 -1.3022  0.3789  1.8403
  134MOL0     H17666  12.464   2.187  -1.361  1.2403  0.0544 -3.2482
  134MOL0     H17667  12.329   2.296  -1.386 -4.4346 -0.1938  2.8119
  134MOL0     H17668  12.179   2.185  -1.256 -1.0074 -2.0853 -0.9698
  134MOL0     H17669  12.338   2.173  -1.161  1.9562 -1.7624 -0.8289
  134MOL0     H17670  11.837   2.470  -2.065 -2.9544 -3.4944 -2.4567
  134MOL0     H17671  11.610   2.376  -2.058 -0.4241 -1.5000  0.2279
  134MOL0     H17672  11.170   2.518  -2.058 -1.4843  1.5992  2.0214
  134MOL0     H17673  10.938   2.430  -2.094  0.3771 -0.7036  0.2394
  134MOL0     H17674  10.093   1.889  -0.518  0.0273 -1.8860  0.1676
  134MOL0     H17675   9.993   1.776  -0.331  1.3342 -1.3501 -1.8920
  134MOL0     H17676   9.962   1.884   0.266  0.9336 -0.8580  2.7565
  134MOL0     H17677   9.851   1.713   0.442  0.5348 -0.0598  1.0258
  134MOL0     H17678   9.906   1.290   0.354 -1.7222 -4.1601  0.4672
  134MOL0     H17679   9.748   1.344   0.292 -0.0534 -0.6111  0.2154
  134MOL0     H17680   9.714   1.150   0.425  0.1957 -2.0138  2.0993
  134MOL0     H17681   9.807   1.226   0.551  1.1712  1.3609 -1.4110
  134MOL0     H17682   9.558   1.359   0.419  2.7445 -1.4390 -1.6121
  134MOL0     H17683   9.638   1.400   0.576  1.5846 -0.9567  1.3751
  134MOL0     H17684   9.547   1.190   0.685  1.8304 -2.2877 -0.6839
  134MOL0     H17685   9.425   1.303   0.627  0.7400  3.1035 -2.9145
  134MOL0     H17686   9.278   1.002   0.405  1.8988 -0.1868 -2.9462
  134MOL0     H17687   9.946   1.414   0.167  0.8040  0.3018  1.7143
  134MOL0     H17688  10.012   1.553   0.011  1.5525  0.0700 -0.1176
  135MOL0     O17689  10.410   4.713  10.812 -0.3151 -0.2093  0.5083
  135MOL0     C17690  10.436   4.829  10.846 -0.9486  0.5054 -0.3467
  135MOL0     O17691  10.349   4.903  10.922  0.1084  0.5181 -0.1581
  135MOL0     C17692  10.221   4.858  10.960 -0.7026  0.2066 -0.0994
  135MOL0     C17693  10.207   4.845  11.099 -0.4645  0.7294  0.1189
  135MOL0     C17694  10.091   4.786  11.155 -0.4899  0.4237 -0.1130
  135MOL0     C17695   9.993   4.729  11.068 -0.1261 -0.1905 -0.4696
  135MOL0     O17696   9.880   4.680  11.139  0.5462  0.0581  0.4475
  135MOL0     C17697   9.768   4.642  11.059  0.5514 -0.0582  0.7328
  135MOL0     C17698   9.670   4.536  11.122  0.4560 -0.3232 -0.2680
  135MOL0     C17699   9.577   4.464  11.015 -0.4062  0.1314 -0.0667
  135MOL0     C17700   9.663   4.362  10.942 -0.1187 -0.2288  0.4071
  135MOL0     C17701   9.632   4.340  10.787  0.4368  0.2203 -0.5323
  135MOL0     C17702   9.672   4.452  10.699 -0.3312  0.0036 -0.5570
  135MOL0     C17703   9.636   4.436  10.549  0.5608 -0.4058  0.0319
  135MOL0     C17704   9.653   4.567  10.466  0.0299  0.7688 -0.4110
  135MOL0     N17705   9.592   4.560  10.339  0.1935  0.1083 -0.1460
  135MOL0     C17706   9.534   4.654  10.251 -0.4598 -0.2018  0.6374
  135MOL0     C17707   9.501   4.588  10.140 -0.1184 -0.1379  0.2036
  135MOL0     C17708   9.426   4.638  10.026 -0.2028  0.2513 -0.4030
  135MOL0     C17709   9.436   4.555   9.888  0.3628  0.5502 -0.6437
  135MOL0     C17710   9.350   4.425   9.899  0.5588 -0.4398 -0.3611
  135MOL0     C17711   9.312   4.367   9.761 -0.9653 -0.0157 -0.5390
  135MOL0     O17712   9.384   4.425   9.652 -0.2760 -0.1881  0.2837
  135MOL0     C17713   9.401   4.337   9.541 -1.2720  0.1741  0.5752
  135MOL0     C17714   9.307   4.305   9.455  0.4961  0.6020  0.9273
  135MOL0     C17715   9.324   4.209   9.354  0.4843  0.3720  0.5506
  135MOL0     C17716   9.452   4.142   9.356 -0.1387  0.7263  0.5960
  135MOL0     C17717   9.464   4.037   9.251 -0.0331 -0.4853  1.2217
  135MOL0     O17718   9.575   3.968   9.247  0.2030 -0.0384  0.8074
  135MOL0     C17719   9.598   3.854   9.177 -0.9452 -0.2010 -0.4581
  135MOL0     C17720   9.730   3.830   9.142 -1.0527  0.5334  0.2062
  135MOL0     C17721   9.764   3.727   9.051  0.3006 -0.4885  0.1981
  135MOL0     C17722   9.673   3.633   9.005 -0.0902 -0.4706 -0.4152
  135MOL0     O17723   9.711   3.541   8.914  0.5901  1.0185 -1.0403
  135MOL0     C17724   9.619   3.498   8.820  0.5980  0.1072  0.1209
  135MOL0     C17725   9.540   3.380   8.862 -0.6583  0.7859 -0.4333
  135MOL0     C17726   9.587   3.257   8.785 -0.1080  0.1134 -0.4026
  135MOL0     C17727   9.491   3.143   8.792 -1.0253  0.1887  0.8399
  135MOL0     C17728   9.551   3.003   8.746  0.3540  0.6888  0.5475
  135MOL0     C17729   9.579   2.996   8.597  0.2436  0.2464  0.3468
  135MOL0     C17730   9.638   2.855   8.554  0.0713 -0.4185 -0.6180
  135MOL0     C17731   9.526   2.748   8.529 -0.1674  0.6134  0.2187
  135MOL0    Cl17732   9.408   2.800   8.414  0.8987 -0.5763 -0.1262
  135MOL0     C17733   9.541   3.641   9.060  0.1858  0.6178 -0.4467
  135MOL0     C17734   9.508   3.753   9.134 -0.3960 -0.2178 -0.0163
  135MOL0     O17735   9.373   4.026   9.160 -0.6358 -0.7745 -0.6177
  135MOL0     C17736   9.560   4.176   9.442  0.2849 -0.7693  0.2232
  135MOL0     C17737   9.526   4.276   9.535 -0.2635  0.5051  0.2113
  135MOL0     N17738   9.559   4.462  10.150  0.9736 -0.1260  0.5418
  135MOL0     N17739   9.599   4.442  10.266 -0.3361 -1.0591 -0.7047
  135MOL0     C17740  10.010   4.738  10.929  0.0976 -0.4625  0.9387
  135MOL0     C17741  10.122   4.808  10.877  0.3961  0.4913  0.4693
  135MOL0     C17742  10.552   4.896  10.776 -0.4672 -0.9248  0.1776
  135MOL0     C17743  10.577   5.025  10.804  1.3480  0.4392 -0.1352
  135MOL0     C17744  10.657   5.108  10.728 -0.6329  0.9975 -0.4501
  135MOL0     C17745  10.724   5.049  10.620  0.0733  0.0698 -0.2598
  135MOL0     O17746  10.820   5.111  10.539  0.1644  0.4846 -0.4496
  135MOL0     C17747  10.868   5.235  10.573 -0.0696 -0.0419  0.0491
  135MOL0     C17748  10.985   5.278  10.486 -0.5028 -0.1018  0.3794
  135MOL0     C17749  11.095   5.170  10.476  0.1016  0.9024  0.4964
  135MOL0     C17750  11.207   5.218  10.383 -0.1570 -0.0290  0.4055
  135MOL0     C17751  11.302   5.107  10.345 -0.2828  0.3189 -0.3868
  135MOL0     C17752  11.382   5.017  10.327 -0.1049  0.1323 -0.1272
  135MOL0     C17753  10.705   4.913  10.600  0.3675  0.7411  0.1929
  135MOL0     C17754  10.619   4.833  10.673 -0.7709  0.5175 -0.2944
  135MOL0     H17755  10.287   4.872  11.168  0.9776 -3.1256  0.1824
  135MOL0     H17756  10.081   4.783  11.263 -0.7219  0.6121 -0.1278
  135MOL0     H17757   9.802   4.598  10.965 -4.2288  2.8440 -2.8602
  135MOL0     H17758   9.711   4.732  11.036 -0.7562 -1.4309 -1.8864
  135MOL0     H17759   9.607   4.591  11.193 -0.3322 -0.6126 -0.7430
  135MOL0     H17760   9.722   4.468  11.190 -0.2129  0.8428  1.5024
  135MOL0     H17761   9.523   4.542  10.961 -2.9578  0.5611  2.8218
  135MOL0     H17762   9.500   4.416  11.076 -0.6760  1.3924  0.6073
  135MOL0     H17763   9.768   4.390  10.955 -0.2977  2.0307 -2.2250
  135MOL0     H17764   9.630   4.268  10.987  0.1860  0.0744  1.2957
  135MOL0     H17765   9.526   4.319  10.766  1.1009 -0.3653 -3.7103
  135MOL0     H17766   9.685   4.248  10.760  1.6077  0.6208  0.3173
  135MOL0     H17767   9.781   4.458  10.714 -0.2170 -0.3262 -1.2214
  135MOL0     H17768   9.618   4.543  10.727  0.0083  1.1638 -3.3424
  135MOL0     H17769   9.706   4.362  10.509  0.5956 -1.3363  1.7282
  135MOL0     H17770   9.534   4.398  10.542  1.3321 -2.2931 -1.9652
  135MOL0     H17771   9.761   4.584  10.463  0.0136  0.7998 -2.4389
  135MOL0     H17772   9.609   4.638  10.536  1.5792  0.5824  0.8092
  135MOL0     H17773   9.511   4.759  10.261 -2.7013 -0.5195 -0.3747
  135MOL0     H17774   9.459   4.742  10.020 -0.7712  0.4922  0.4087
  135MOL0     H17775   9.323   4.638  10.063 -0.0557 -0.4220  0.0196
  135MOL0     H17776   9.543   4.533   9.879  0.2701 -0.7349  0.8655
  135MOL0     H17777   9.419   4.620   9.802 -0.0153 -2.2584 -2.8314
  135MOL0     H17778   9.401   4.345   9.953 -0.2660 -2.7678 -2.8418
  135MOL0     H17779   9.251   4.448   9.938  0.0325 -0.2265 -1.7562
  135MOL0     H17780   9.204   4.369   9.744 -0.9015 -0.9679 -1.1479
  135MOL0     H17781   9.339   4.262   9.771  0.9939  0.6766  3.0577
  135MOL0     H17782   9.219   4.368   9.457  0.3025  0.4764 -1.2764
  135MOL0     H17783   9.238   4.181   9.293 -0.8845 -0.4418  2.7298
  135MOL0     H17784   9.808   3.906   9.150  0.6868 -1.2261  0.6470
  135MOL0     H17785   9.859   3.729   8.999  0.2772  3.9990 -0.0448
  135MOL0     H17786   9.667   3.470   8.725  2.7648 -1.2644  1.5465
  135MOL0     H17787   9.557   3.583   8.790  0.5462 -0.2656 -0.8728
  135MOL0     H17788   9.433   3.396   8.850 -1.4657 -1.4529  2.5335
  135MOL0     H17789   9.550   3.361   8.970 -0.9676  1.4219 -0.2881
  135MOL0     H17790   9.685   3.228   8.825 -1.3962  1.1826  4.1195
  135MOL0     H17791   9.587   3.279   8.678  3.6076  0.5750 -0.4474
  135MOL0     H17792   9.449   3.126   8.891 -0.7548 -0.0136  0.9185
  135MOL0     H17793   9.404   3.168   8.729 -1.5807 -3.3985 -0.0658
  135MOL0     H17794   9.487   2.920   8.779 -0.1981  1.2087  0.8090
  135MOL0     H17795   9.647   2.991   8.797 -0.0109 -3.0758  0.6695
  135MOL0     H17796   9.649   3.079   8.583 -0.6769  0.8531 -0.8391
  135MOL0     H17797   9.486   3.015   8.542 -0.2140  0.7401  1.2676
  135MOL0     H17798   9.684   2.880   8.457 -0.5777  2.2423 -0.3303
  135MOL0     H17799   9.714   2.820   8.625  1.7050  1.5781 -1.2589
  135MOL0     H17800   9.478   2.721   8.623 -0.7725 -1.8374 -0.7248
  135MOL0     H17801   9.569   2.658   8.485  1.0301  1.1851  0.1733
  135MOL0     H17802   9.473   3.559   9.039  2.2864 -0.9367 -1.7081
  135MOL0     H17803   9.405   3.754   9.168  0.2855 -1.8678  2.3209
  135MOL0     H17804   9.657   4.127   9.434  2.0267  2.6364 -1.9820
  135MOL0     H17805   9.599   4.300   9.611  0.4920  2.2769 -1.0224
  135MOL0     H17806   9.944   4.691  10.856 -3.0159  1.3477  2.3632
  135MOL0     H17807  10.140   4.796  10.771 -2.0756 -1.4277  0.1708
  135MOL0     H17808  10.518   5.071  10.884  1.8421  0.2799  0.3269
  135MOL0     H17809  10.674   5.211  10.757  0.0157  0.5696  0.7528
  135MOL0     H17810  10.909   5.227  10.674  1.9606  0.2387 -0.7018
  135MOL0     H17811  10.790   5.310  10.583 -0.5760 -0.6144  0.4317
  135MOL0     H17812  10.950   5.300  10.385  2.5720 -5.5039 -2.2890
  135MOL0     H17813  11.027   5.371  10.524 -0.1254  0.1632 -0.6683
  135MOL0     H17814  11.047   5.077  10.444  1.4659  0.7206 -1.2085
  135MOL0     H17815  11.125   5.154  10.580  0.9395 -1.4441 -0.0480
  135MOL0     H17816  11.158   5.254  10.292  1.6985 -0.4469 -0.8153
  135MOL0     H17817  11.262   5.302  10.426  1.1928 -0.0047 -1.2438
  135MOL0     H17818  11.459   4.942  10.332  0.2115  0.4742  0.1937
  135MOL0     H17819  10.757   4.868  10.516  0.7781 -1.2276  1.4429
  135MOL0     H17820  10.615   4.727  10.648  0.9463  0.3325  0.1095
  136MOL0     O17821   1.291   1.495   6.207 -1.1896 -0.3192  0.4888
  136MOL0     C17822   1.227   1.413   6.266  0.4629  0.5689 -0.3715
  136MOL0     O17823   1.217   1.280   6.242  0.6589  0.5286  0.5451
  136MOL0     C17824   1.299   1.230   6.142 -0.0554 -0.6460  1.1197
  136MOL0     C17825   1.422   1.191   6.171  0.0536  0.4048 -0.0491
  136MOL0     C17826   1.511   1.149   6.071 -0.3375 -0.5003  0.4235
  136MOL0     C17827   1.467   1.157   5.937  0.5485 -0.3791 -0.1616
  136MOL0     O17828   1.550   1.113   5.835 -0.1778 -0.2050  0.0247
  136MOL0     C17829   1.595   0.979   5.846 -1.0310 -0.4143  0.0262
  136MOL0     C17830   1.689   0.944   5.733 -0.1355  0.4582  0.0018
  136MOL0     C17831   1.756   0.812   5.755 -0.3584  0.0263  0.2234
  136MOL0     C17832   1.669   0.698   5.691 -0.9049 -1.4673  0.1848
  136MOL0     C17833   1.692   0.682   5.536 -0.8409  1.4041 -1.0047
  136MOL0     C17834   1.584   0.586   5.467  0.0580 -0.6412 -0.1155
  136MOL0     C17835   1.617   0.558   5.330 -0.3985 -0.0396  0.8933
  136MOL0     C17836   1.510   0.466   5.269  0.0070 -0.1496 -0.3515
  136MOL0     N17837   1.518   0.445   5.127 -0.2471 -0.2138  0.5189
  136MOL0     C17838   1.477   0.532   5.032 -0.4543  0.0325  0.2797
  136MOL0     C17839   1.498   0.474   4.915 -0.5509  1.3556  0.1876
  136MOL0     C17840   1.471   0.534   4.785  0.0123 -0.5839 -0.2033
  136MOL0     C17841   1.583   0.618   4.731  0.5533 -0.1945 -0.9643
  136MOL0     C17842   1.549   0.651   4.583  0.6450  0.3415 -0.0080
  136MOL0     C17843   1.677   0.668   4.496 -0.3768  0.4550 -0.0016
  136MOL0     O17844   1.721   0.538   4.466  0.1057  0.0905  0.2972
  136MOL0     C17845   1.684   0.476   4.341  0.8117 -0.4046 -1.9200
  136MOL0     C17846   1.745   0.356   4.309 -0.6552 -0.5414 -0.0533
  136MOL0     C17847   1.725   0.292   4.186  0.5305  0.4921  0.5963
  136MOL0     C17848   1.644   0.352   4.088 -0.9704  0.5890 -0.5274
  136MOL0     C17849   1.626   0.289   3.957 -0.0042  0.1682 -0.2637
  136MOL0     O17850   1.553   0.348   3.861 -0.0840  0.5771 -0.1620
  136MOL0     C17851   1.561   0.294   3.732  0.1604 -0.3021  1.5215
  136MOL0     C17852   1.662   0.340   3.641  0.3873  0.4257 -0.5836
  136MOL0     C17853   1.668   0.293   3.507 -0.1620  0.8246 -1.0799
  136MOL0     C17854   1.577   0.193   3.466  0.2073  0.5065 -0.1843
  136MOL0     O17855   1.578   0.158   3.335  0.2998  0.7056 -0.1085
  136MOL0     C17856   1.667   0.059   3.273 -0.3901  0.2492  0.5617
  136MOL0     C17857   1.630  -0.076   3.314 -0.4222 -0.2579 -1.5437
  136MOL0     C17858   1.719  -0.183   3.252  0.5568  0.1252  0.0841
  136MOL0     C17859   1.700  -0.324   3.291  0.5265 -0.4613  0.0668
  136MOL0     C17860   1.777  -0.414   3.188  0.2681 -0.2120 -0.2307
  136MOL0     C17861   1.922  -0.374   3.171 -0.8891  0.8871  0.4755
  136MOL0     C17862   1.993  -0.382   3.301  1.1675 -0.0203 -0.2135
  136MOL0     C17863   2.139  -0.378   3.274  0.0748 -0.0904 -0.0367
  136MOL0    Cl17864   2.177  -0.204   3.219 -0.0672 -0.4644 -0.1013
  136MOL0     C17865   1.465   0.157   3.544  0.4070 -0.3725  0.5855
  136MOL0     C17866   1.462   0.196   3.687 -0.7850 -0.5623 -0.1393
  136MOL0     O17867   1.694   0.188   3.941  0.3160 -0.0003 -0.5434
  136MOL0     C17868   1.574   0.463   4.129 -0.0113  0.3200 -0.2526
  136MOL0     C17869   1.584   0.519   4.261  0.5487 -0.3094 -0.3088
  136MOL0     N17870   1.527   0.338   4.944 -0.3188 -0.0259 -0.5526
  136MOL0     N17871   1.555   0.326   5.067 -0.0455 -0.3423  0.4316
  136MOL0     C17872   1.341   1.196   5.901 -1.7536  0.0005 -0.7368
  136MOL0     C17873   1.259   1.233   6.006 -0.8998  1.4756 -0.6422
  136MOL0     C17874   1.157   1.464   6.388 -0.3812  0.5428 -0.3005
  136MOL0     C17875   1.087   1.377   6.470  0.4492  0.1182  0.6906
  136MOL0     C17876   1.006   1.420   6.579 -0.1077  0.7147 -0.3550
  136MOL0     C17877   1.009   1.548   6.620 -0.2696 -0.2310 -0.0530
  136MOL0     O17878   0.938   1.582   6.741  0.3474 -0.2871  0.1262
  136MOL0     C17879   0.901   1.723   6.769  0.4920  0.0219  0.2149
  136MOL0     C17880   0.814   1.711   6.897  0.4125  0.5491  0.3984
  136MOL0     C17881   0.687   1.625   6.894  0.4778 -0.0805  0.1911
  136MOL0     C17882   0.581   1.679   6.793  0.8356  0.3955  0.5065
  136MOL0     C17883   0.515   1.805   6.841 -0.7466  0.6862  0.1938
  136MOL0     C17884   0.451   1.899   6.879 -0.2275 -0.4223 -0.0581
  136MOL0     C17885   1.071   1.644   6.536 -0.2518  0.0523  0.6874
  136MOL0     C17886   1.144   1.596   6.422  0.0327 -0.2991 -0.1586
  136MOL0     H17887   1.455   1.188   6.275  2.3734  0.2236 -0.7286
  136MOL0     H17888   1.618   1.142   6.088 -0.2733  2.4482  1.7352
  136MOL0     H17889   1.512   0.908   5.847 -0.6769 -0.8395 -0.3890
  136MOL0     H17890   1.646   0.951   5.939 -1.2848  0.0400  0.3080
  136MOL0     H17891   1.769   1.015   5.713 -0.3709  1.9624  3.5910
  136MOL0     H17892   1.627   0.941   5.643 -0.6644  2.3649  0.2604
  136MOL0     H17893   1.772   0.798   5.862 -1.5671  1.1352  0.5738
  136MOL0     H17894   1.853   0.804   5.705  0.9510 -3.2275  2.8946
  136MOL0     H17895   1.680   0.595   5.727 -0.5012 -1.5197 -0.0720
  136MOL0     H17896   1.570   0.739   5.711 -0.7860  1.8370 -4.4743
  136MOL0     H17897   1.793   0.641   5.524  1.1346  4.5337  2.6499
  136MOL0     H17898   1.704   0.785   5.500  2.9679  0.4231 -3.0876
  136MOL0     H17899   1.488   0.638   5.464  0.2421 -0.3436 -1.4839
  136MOL0     H17900   1.582   0.496   5.529  1.3157  0.2821  1.3656
  136MOL0     H17901   1.612   0.655   5.278 -0.8872  0.1624  1.3040
  136MOL0     H17902   1.714   0.509   5.321  0.2430  0.9067  2.3547
  136MOL0     H17903   1.418   0.523   5.285 -0.6923  0.0444 -4.1458
  136MOL0     H17904   1.514   0.368   5.317  1.3209 -1.0176 -2.1435
  136MOL0     H17905   1.457   0.639   5.035 -0.6002  0.1175 -1.9464
  136MOL0     H17906   1.383   0.599   4.782  3.4392  4.6247 -1.0986
  136MOL0     H17907   1.453   0.450   4.718 -2.1061  0.5951 -1.1898
  136MOL0     H17908   1.677   0.566   4.747  1.1252  1.3013  0.9000
  136MOL0     H17909   1.581   0.711   4.789  0.4286 -3.0262  4.2110
  136MOL0     H17910   1.491   0.576   4.529 -0.8224  2.1675 -1.0610
  136MOL0     H17911   1.485   0.739   4.585 -0.4316 -0.3533 -1.7780
  136MOL0     H17912   1.762   0.718   4.544  1.5709 -2.6162  0.0598
  136MOL0     H17913   1.652   0.734   4.413 -2.4128  3.2231  2.5498
  136MOL0     H17914   1.819   0.295   4.361 -0.5985 -1.1301 -0.8037
  136MOL0     H17915   1.776   0.198   4.169 -1.3109 -0.4678  0.2363
  136MOL0     H17916   1.718   0.428   3.669  1.0012 -0.4425  0.9748
  136MOL0     H17917   1.744   0.337   3.442 -0.8036  2.5076 -0.7336
  136MOL0     H17918   1.773   0.081   3.292  0.0616  0.0789 -1.4519
  136MOL0     H17919   1.654   0.067   3.164  2.3608  0.2121  0.1387
  136MOL0     H17920   1.524  -0.094   3.298 -0.7087 -1.5610  1.2321
  136MOL0     H17921   1.641  -0.071   3.423 -1.7411  0.1591 -1.4186
  136MOL0     H17922   1.823  -0.155   3.272  0.1706  3.6890 -2.0161
  136MOL0     H17923   1.703  -0.189   3.143  1.8534 -2.2591 -0.0325
  136MOL0     H17924   1.743  -0.342   3.390  1.0428  1.7537  0.2976
  136MOL0     H17925   1.599  -0.363   3.272  0.0992  0.6549 -0.0018
  136MOL0     H17926   1.725  -0.405   3.092 -3.2603  1.8323  1.6307
  136MOL0     H17927   1.771  -0.514   3.233  1.6139  0.5370  1.7835
  136MOL0     H17928   1.931  -0.272   3.132  1.2495 -0.2097 -2.2393
  136MOL0     H17929   1.966  -0.433   3.091 -0.7738 -1.8143  2.4003
  136MOL0     H17930   1.965  -0.308   3.377  0.0328 -1.8102  1.2011
  136MOL0     H17931   1.968  -0.477   3.349  1.0091 -0.7056 -1.6177
  136MOL0     H17932   2.152  -0.464   3.208 -3.5147  0.2096 -1.3271
  136MOL0     H17933   2.190  -0.397   3.369  0.0092 -1.6667 -0.2934
  136MOL0     H17934   1.383   0.097   3.506  0.1807  0.7685 -0.7984
  136MOL0     H17935   1.384   0.154   3.749 -0.4759 -2.9267 -1.2415
  136MOL0     H17936   1.502   0.505   4.060  0.6275 -0.2548 -1.3066
  136MOL0     H17937   1.522   0.603   4.292 -0.6123 -1.5029  0.6763
  136MOL0     H17938   1.311   1.183   5.797  1.9460  0.1471 -1.9893
  136MOL0     H17939   1.159   1.267   5.982 -1.5623 -0.8592 -1.4249
  136MOL0     H17940   1.079   1.271   6.449  2.3863  0.2461 -1.0587
  136MOL0     H17941   0.954   1.338   6.628  1.8364 -1.0815 -1.1558
  136MOL0     H17942   0.842   1.762   6.686 -1.2766  1.3461  2.0190
  136MOL0     H17943   0.988   1.785   6.795  0.9235  1.4814 -3.9015
  136MOL0     H17944   0.871   1.668   6.981  0.9968 -0.2636 -0.3923
  136MOL0     H17945   0.782   1.812   6.923 -3.6030 -0.9571  2.0139
  136MOL0     H17946   0.647   1.622   6.996 -0.4280 -2.3993 -0.1675
  136MOL0     H17947   0.728   1.527   6.866  1.4111 -0.3457  2.2310
  136MOL0     H17948   0.636   1.692   6.700  2.1429  1.1785  1.3532
  136MOL0     H17949   0.512   1.596   6.778  3.6451 -1.6843 -2.1659
  136MOL0     H17950   0.415   1.987   6.929  4.0447  2.1596 -0.9636
  136MOL0     H17951   1.065   1.750   6.559  0.9747 -0.4064  3.5953
  136MOL0     H17952   1.187   1.668   6.353  0.4659 -1.5132 -1.1859
  137MOL0     O17953  11.220  10.358   5.670 -0.6487  0.0998 -0.6506
  137MOL0     C17954  11.128  10.427   5.633 -0.4345 -0.3684 -0.0034
  137MOL0     O17955  11.000  10.432   5.694  0.3639 -0.4204  0.1667
  137MOL0     C17956  10.948  10.325   5.764  0.4911  0.4270 -0.5209
  137MOL0     C17957  10.844  10.349   5.860 -1.0025 -0.0396  1.3350
  137MOL0     C17958  10.775  10.241   5.919 -0.2848 -0.6224  0.6524
  137MOL0     C17959  10.823  10.108   5.901 -0.2516  0.0326 -0.0056
  137MOL0     O17960  10.789   9.998   5.977  0.9558  0.0216 -0.2922
  137MOL0     C17961  10.766  10.023   6.111  0.1762  1.1064 -0.1309
  137MOL0     C17962  10.673   9.905   6.156  0.2322 -0.3948 -0.9904
  137MOL0     C17963  10.536   9.900   6.106  0.3193  0.1974  0.5144
  137MOL0     C17964  10.434   9.967   6.191 -0.3357 -1.0253 -0.2565
  137MOL0     C17965  10.298   9.916   6.135  0.4494 -0.1769 -0.1763
  137MOL0     C17966  10.245   9.957   5.994  0.7327  0.1566 -0.2235
  137MOL0     C17967  10.098   9.917   5.992 -0.1463  0.1140 -0.9307
  137MOL0     C17968  10.025   9.964   5.874 -0.8093  0.3610  0.1741
  137MOL0     N17969   9.895   9.894   5.878 -0.8414 -0.1674  0.6474
  137MOL0     C17970   9.806   9.902   5.979 -2.4362 -0.4207 -0.6542
  137MOL0     C17971   9.713   9.812   5.943  0.2609 -0.4321  0.0096
  137MOL0     C17972   9.590   9.786   6.018  1.3122 -0.0750  0.3906
  137MOL0     C17973   9.509   9.920   6.016  0.3548 -0.0482  0.5625
  137MOL0     C17974   9.458   9.965   5.878  1.2866  1.2424  0.1724
  137MOL0     C17975   9.342  10.066   5.885  0.4814 -0.2092 -0.9245
  137MOL0     O17976   9.365  10.159   5.990 -0.0072  0.2892  0.4871
  137MOL0     C17977   9.276  10.254   5.997 -0.1709 -0.5198  0.2375
  137MOL0     C17978   9.296  10.364   5.917 -0.7139  0.1413 -0.1649
  137MOL0     C17979   9.209  10.481   5.931  0.8601  0.2329 -0.3263
  137MOL0     C17980   9.099  10.479   6.019 -1.0620  0.9557  0.0771
  137MOL0     C17981   9.008  10.599   6.025 -0.5780  0.1514 -0.8742
  137MOL0     O17982   8.907  10.585   6.111  0.3628 -0.0512 -1.0246
  137MOL0     C17983   8.822  10.694   6.121 -0.5054 -0.0209  0.5444
  137MOL0     C17984   8.834  10.789   6.224 -0.2372  0.2906  0.2471
  137MOL0     C17985   8.738  10.889   6.238 -0.2848 -0.4365  0.2351
  137MOL0     C17986   8.645  10.908   6.136 -0.6164 -0.3137  0.8108
  137MOL0     O17987   8.581  11.031   6.132 -0.3267  0.3985 -0.1540
  137MOL0     C17988   8.483  11.066   6.037  0.0004 -0.3756 -0.2405
  137MOL0     C17989   8.411  11.192   6.080  1.2349  0.6468  0.2487
  137MOL0     C17990   8.308  11.161   6.184  0.7327  0.0508 -0.1744
  137MOL0     C17991   8.248  11.273   6.267 -0.2768 -0.4283  0.5342
  137MOL0     C17992   8.131  11.345   6.212  0.8058 -1.0479  0.3554
  137MOL0     C17993   8.092  11.466   6.303 -0.9687  0.2866  0.6120
  137MOL0     C17994   7.974  11.549   6.256  0.1062 -0.5992 -0.2206
  137MOL0     C17995   7.864  11.540   6.363 -0.3427  0.6994  0.1212
  137MOL0    Cl17996   7.718  11.610   6.281  0.6796 -0.4324  0.2447
  137MOL0     C17997   8.627  10.804   6.033  0.3855  0.6885 -0.4628
  137MOL0     C17998   8.718  10.698   6.031 -0.5829  0.4855 -0.6467
  137MOL0     O17999   9.038  10.702   5.962  0.0842 -0.3819 -0.4177
  137MOL0     C18000   9.094  10.360   6.111  0.5124 -0.8468 -0.2043
  137MOL0     C18001   9.183  10.258   6.095 -0.4202  0.3402 -0.3176
  137MOL0     N18002   9.736   9.754   5.818 -0.2657  0.3581 -0.2253
  137MOL0     N18003   9.853   9.808   5.778 -0.9242 -0.2270  0.2577
  137MOL0     C18004  10.924  10.084   5.811  0.1307  0.4821 -0.1978
  137MOL0     C18005  10.981  10.185   5.732  0.0806 -0.0130 -0.5990
  137MOL0     C18006  11.135  10.507   5.505  0.2570 -0.5021 -0.5173
  137MOL0     C18007  11.017  10.591   5.465 -1.0134 -0.5402 -0.7119
  137MOL0     C18008  11.024  10.669   5.348 -0.0511  0.5586 -0.4288
  137MOL0     C18009  11.128  10.656   5.259 -1.1839 -0.2077 -0.1704
  137MOL0     O18010  11.137  10.708   5.133 -0.7698 -0.2662 -0.0829
  137MOL0     C18011  11.013  10.757   5.085  0.3114  0.1527  0.9691
  137MOL0     C18012  11.000  10.782   4.942 -0.0416  0.6020 -0.6276
  137MOL0     C18013  11.051  10.666   4.859 -0.1824 -0.1886 -0.0730
  137MOL0     C18014  11.017  10.703   4.706  0.2970  0.3880 -0.2488
  137MOL0     C18015  11.051  10.830   4.646 -0.1201  0.2223  1.4399
  137MOL0     C18016  11.063  10.945   4.598 -0.7874 -0.2194 -0.0671
  137MOL0     C18017  11.245  10.586   5.302  0.9565 -0.3914  0.2250
  137MOL0     C18018  11.247  10.509   5.418  0.0078 -0.0706 -0.9533
  137MOL0     H18019  10.830  10.454   5.880 -1.1413  0.0372  0.8347
  137MOL0     H18020  10.696  10.265   5.990 -0.4364 -3.6134  1.6351
  137MOL0     H18021  10.726  10.123   6.133 -1.7999  0.4436 -0.5351
  137MOL0     H18022  10.863  10.011   6.160  0.7474 -0.2615 -1.5110
  137MOL0     H18023  10.671   9.912   6.265  0.3310 -0.0645 -1.0069
  137MOL0     H18024  10.721   9.809   6.136  1.6248 -0.7092  2.9409
  137MOL0     H18025  10.516   9.794   6.088  3.5726  0.0219 -3.6466
  137MOL0     H18026  10.530   9.960   6.015 -3.0289  0.8128  1.0004
  137MOL0     H18027  10.461   9.946   6.294  1.4916  3.3668  0.4069
  137MOL0     H18028  10.460  10.073   6.181 -1.0795 -0.6497  1.5146
  137MOL0     H18029  10.230   9.964   6.206  2.3686 -1.9357  3.1382
  137MOL0     H18030  10.284   9.807   6.136 -3.7511  0.2051  0.0920
  137MOL0     H18031  10.295   9.912   5.908  0.6533  1.5777 -1.0442
  137MOL0     H18032  10.262  10.064   5.977  0.3025  0.0112 -1.7154
  137MOL0     H18033  10.094   9.808   6.001  0.7772  0.1588  0.2218
  137MOL0     H18034  10.043   9.964   6.074 -0.6832  2.0130 -2.3182
  137MOL0     H18035  10.075   9.955   5.777 -0.4576 -0.2694  0.4135
  137MOL0     H18036   9.993  10.069   5.884 -1.2303  0.1594  1.0808
  137MOL0     H18037   9.820   9.957   6.072 -0.7452  1.3624 -1.8657
  137MOL0     H18038   9.600   9.744   6.119 -2.2478 -0.1732  0.8308
  137MOL0     H18039   9.533   9.715   5.958 -1.0393  1.2490  0.9213
  137MOL0     H18040   9.572   9.999   6.059 -1.2044  2.5155 -1.5338
  137MOL0     H18041   9.418   9.911   6.075 -0.6979 -1.8895 -1.2372
  137MOL0     H18042   9.538  10.021   5.829  0.1764 -0.2338 -3.6700
  137MOL0     H18043   9.430   9.877   5.820 -0.8787  1.3213  1.0177
  137MOL0     H18044   9.249  10.015   5.910  1.3201 -2.1000 -1.4622
  137MOL0     H18045   9.325  10.107   5.785 -1.0672  2.3057  0.2592
  137MOL0     H18046   9.371  10.376   5.840 -1.3440 -0.3131 -0.8637
  137MOL0     H18047   9.226  10.562   5.860 -1.9249  1.3715  0.1943
  137MOL0     H18048   8.909  10.767   6.300 -0.2372  0.6550  0.3527
  137MOL0     H18049   8.730  10.961   6.319 -2.2971 -1.1098  0.6831
  137MOL0     H18050   8.416  10.986   6.006  1.2049 -0.9015 -1.6132
  137MOL0     H18051   8.536  11.094   5.945 -1.5783  1.3953 -0.6810
  137MOL0     H18052   8.366  11.241   5.993 -0.1959 -2.3460 -0.8053
  137MOL0     H18053   8.483  11.264   6.121  0.9058  2.4991 -2.1975
  137MOL0     H18054   8.370  11.097   6.248  2.9047  1.3538 -0.8915
  137MOL0     H18055   8.230  11.096   6.144 -0.1782  0.3944  0.9878
  137MOL0     H18056   8.232  11.242   6.371 -1.6377  1.0633  0.8186
  137MOL0     H18057   8.328  11.348   6.276  0.4968 -0.8619 -2.0374
  137MOL0     H18058   8.055  11.269   6.190  1.2982 -1.6067  0.5598
  137MOL0     H18059   8.151  11.376   6.110 -0.3685 -1.6009 -0.0693
  137MOL0     H18060   8.172  11.539   6.293 -1.1424  0.3637 -0.3370
  137MOL0     H18061   8.076  11.427   6.404 -1.7321 -4.5666 -1.0827
  137MOL0     H18062   8.001  11.655   6.252 -1.7659 -0.0352  0.7706
  137MOL0     H18063   7.944  11.525   6.153  5.1784 -0.5091 -2.0097
  137MOL0     H18064   7.901  11.604   6.444  2.1815  0.4670 -0.7437
  137MOL0     H18065   7.832  11.442   6.398 -0.2978  1.4698  2.4757
  137MOL0     H18066   8.547  10.817   5.961 -0.7003 -0.6097  0.4501
  137MOL0     H18067   8.711  10.602   5.980  0.4940  0.1547 -0.2180
  137MOL0     H18068   9.021  10.372   6.190  1.5976  0.8096  0.6080
  137MOL0     H18069   9.188  10.173   6.162 -0.3825  0.9819  0.5082
  137MOL0     H18070  10.981   9.991   5.810  3.3202  2.2450 -2.3453
  137MOL0     H18071  11.063  10.145   5.674  0.9280 -2.6125  2.0888
  137MOL0     H18072  10.922  10.580   5.518 -0.1075 -0.1475  1.0851
  137MOL0     H18073  10.935  10.728   5.328 -1.0201 -0.3811  0.9178
  137MOL0     H18074  10.979  10.838   5.150 -0.9674 -1.2163  2.0937
  137MOL0     H18075  10.938  10.680   5.102 -1.0300  1.4463  1.1112
  137MOL0     H18076  10.892  10.796   4.929 -0.2252  1.5019  1.4216
  137MOL0     H18077  11.053  10.874   4.914  1.2844 -0.4444 -1.6831
  137MOL0     H18078  10.997  10.574   4.886 -0.8954  0.2514  0.0295
  137MOL0     H18079  11.158  10.653   4.877 -0.3603 -2.9460 -0.5660
  137MOL0     H18080  11.062  10.622   4.649 -2.2963 -1.5237  0.2259
  137MOL0     H18081  10.909  10.701   4.689  0.2784 -0.5252 -0.0681
  137MOL0     H18082  11.078  11.045   4.561  0.9104 -0.8286 -1.2092
  137MOL0     H18083  11.311  10.569   5.218 -1.3994 -1.5046 -1.5147
  137MOL0     H18084  11.331  10.442   5.437 -1.1800 -2.0438 -2.2288
  138MOL0     O18085  10.872   6.410   0.016 -0.6979 -0.2111 -0.8375
  138MOL0     C18086  10.763   6.362  -0.005  0.0930 -0.3265 -0.7235
  138MOL0     O18087  10.732   6.272  -0.095 -0.0273 -0.4471  0.0128
  138MOL0     C18088  10.836   6.234  -0.181 -0.8826  0.3765  0.5315
  138MOL0     C18089  10.856   6.285  -0.304 -0.4494  0.6831  0.1460
  138MOL0     C18090  10.977   6.267  -0.373 -0.5457  0.4142  0.3974
  138MOL0     C18091  11.076   6.173  -0.321  0.0368 -0.4175 -0.3862
  138MOL0     O18092  11.189   6.165  -0.398 -0.2933 -0.3004 -0.4566
  138MOL0     C18093  11.281   6.072  -0.347  0.6126  0.6813 -0.1578
  138MOL0     C18094  11.399   6.074  -0.441  0.1739  0.7260 -0.1371
  138MOL0     C18095  11.491   6.191  -0.405 -0.3116  0.0295  0.4358
  138MOL0     C18096  11.438   6.329  -0.462 -0.2000 -0.8990 -1.0407
  138MOL0     C18097  11.541   6.442  -0.481  0.1285  0.9474 -0.0782
  138MOL0     C18098  11.625   6.485  -0.364 -0.7518 -0.4512  0.1198
  138MOL0     C18099  11.753   6.566  -0.404  0.2250  0.7363  0.8562
  138MOL0     C18100  11.721   6.701  -0.481 -0.1061  0.3418 -0.4676
  138MOL0     N18101  11.834   6.748  -0.551  0.1745 -0.5155  0.5969
  138MOL0     C18102  11.884   6.692  -0.664  0.5295  0.3069 -1.1757
  138MOL0     C18103  11.987   6.767  -0.700 -0.3973  0.2463  0.3052
  138MOL0     C18104  12.072   6.748  -0.821 -0.2836 -0.3432 -0.2008
  138MOL0     C18105  12.002   6.810  -0.938 -0.0041  0.0225 -0.0261
  138MOL0     C18106  11.907   6.707  -0.991  0.5770  1.0974 -0.0063
  138MOL0     C18107  11.845   6.759  -1.111  0.0023 -1.0305  0.5477
  138MOL0     O18108  11.721   6.700  -1.150  0.5155  0.3967  0.1761
  138MOL0     C18109  11.701   6.569  -1.190  0.7844 -0.6792  1.6608
  138MOL0     C18110  11.789   6.464  -1.206  0.0048 -0.1397  0.1845
  138MOL0     C18111  11.757   6.332  -1.245 -0.5516  0.5625 -0.0963
  138MOL0     C18112  11.622   6.299  -1.264 -0.5626 -0.4323  0.2219
  138MOL0     C18113  11.582   6.164  -1.289 -0.0838  0.1965 -1.2425
  138MOL0     O18114  11.461   6.154  -1.331  0.2527 -0.6041  0.1590
  138MOL0     C18115  11.415   6.050  -1.413  0.6410 -0.2902 -0.3026
  138MOL0     C18116  11.282   6.004  -1.402 -0.5701 -0.7140 -0.2939
  138MOL0     C18117  11.232   5.897  -1.477 -1.2491  0.5891  0.1075
  138MOL0     C18118  11.325   5.839  -1.577 -0.6422  0.6473  1.3422
  138MOL0     O18119  11.276   5.730  -1.650  0.5081 -0.1015  0.1306
  138MOL0     C18120  11.343   5.683  -1.770  0.3898 -0.4814 -0.4730
  138MOL0     C18121  11.285   5.550  -1.823 -0.2909  0.6060 -1.0718
  138MOL0     C18122  11.136   5.554  -1.865  0.5789 -0.6286 -0.3229
  138MOL0     C18123  11.083   5.409  -1.861 -0.6007  0.9724  0.5292
  138MOL0     C18124  11.138   5.312  -1.975  0.2068  0.1863 -1.0038
  138MOL0     C18125  11.057   5.180  -1.988 -0.4328 -0.0264  0.8639
  138MOL0     C18126  11.075   5.086  -1.870  0.2140  0.4327 -0.9348
  138MOL0     C18127  10.939   5.054  -1.791  0.5899  0.0881  0.3224
  138MOL0    Cl18128  10.848   4.964  -1.908  0.3711 -0.1989 -0.0547
  138MOL0     C18129  11.462   5.872  -1.585  0.0452 -0.8074 -0.0406
  138MOL0     C18130  11.502   5.980  -1.505  0.2903 -0.0753 -0.6801
  138MOL0     O18131  11.661   6.072  -1.274  0.4608 -0.3023  0.1923
  138MOL0     C18132  11.529   6.406  -1.270 -0.6395 -0.2398  0.1058
  138MOL0     C18133  11.561   6.538  -1.229 -0.0369 -0.5686 -0.3597
  138MOL0     N18134  11.989   6.877  -0.617 -0.7791 -0.8076  0.5070
  138MOL0     N18135  11.895   6.866  -0.527  0.3060  0.6878 -0.1630
  138MOL0     C18136  11.050   6.108  -0.201 -0.5011 -0.0554  1.0192
  138MOL0     C18137  10.931   6.136  -0.137  0.2763  0.4530 -0.1547
  138MOL0     C18138  10.653   6.402   0.098 -0.3662 -0.5041  0.4013
  138MOL0     C18139  10.661   6.488   0.211  0.0031 -0.5262 -0.1871
  138MOL0     C18140  10.545   6.528   0.284  0.0777  0.1813  0.7318
  138MOL0     C18141  10.419   6.499   0.234  0.0906 -0.1187 -0.3337
  138MOL0     O18142  10.318   6.563   0.293 -1.0101 -0.5844 -0.3581
  138MOL0     C18143  10.180   6.516   0.268 -0.9206  0.7925 -0.3632
  138MOL0     C18144  10.084   6.615   0.333 -0.4023  0.7637  0.6618
  138MOL0     C18145   9.934   6.565   0.323 -0.3685 -0.3474 -0.3980
  138MOL0     C18146   9.898   6.430   0.390  0.0215  0.3620 -0.4906
  138MOL0     C18147   9.912   6.458   0.535  0.5321 -0.6684 -0.2163
  138MOL0     C18148   9.917   6.485   0.652  0.2967 -0.1567  0.9132
  138MOL0     C18149  10.412   6.400   0.137 -0.4208  0.2646 -0.3529
  138MOL0     C18150  10.527   6.364   0.065  0.3687  0.8301 -1.1464
  138MOL0     H18151  10.774   6.344  -0.345 -2.6988 -0.5136  2.6261
  138MOL0     H18152  11.009   6.326  -0.458 -2.7205  0.3925 -0.5197
  138MOL0     H18153  11.251   5.967  -0.350 -0.3047  0.9398 -2.9597
  138MOL0     H18154  11.313   6.077  -0.242  0.2679 -2.1814  0.1434
  138MOL0     H18155  11.366   6.084  -0.545  1.9392 -0.6450 -0.8916
  138MOL0     H18156  11.451   5.977  -0.439 -2.2675 -0.7583 -2.1713
  138MOL0     H18157  11.591   6.177  -0.447 -0.4651 -1.1407  0.4231
  138MOL0     H18158  11.505   6.197  -0.296  0.2072 -1.5049  0.4787
  138MOL0     H18159  11.379   6.322  -0.554 -3.3140 -1.0898  0.8265
  138MOL0     H18160  11.355   6.364  -0.399 -2.3481 -3.2092 -2.4205
  138MOL0     H18161  11.481   6.527  -0.515 -1.3871  0.1896  0.5739
  138MOL0     H18162  11.602   6.408  -0.564  2.1996  1.4794  1.1501
  138MOL0     H18163  11.664   6.397  -0.312 -0.2477  1.8819  4.0948
  138MOL0     H18164  11.572   6.544  -0.289  3.9325  1.7332  2.1182
  138MOL0     H18165  11.814   6.591  -0.317 -0.9002  0.3894  1.7587
  138MOL0     H18166  11.802   6.495  -0.472 -0.1900 -0.1341  1.4558
  138MOL0     H18167  11.692   6.770  -0.401 -1.0228 -0.8920  0.2914
  138MOL0     H18168  11.632   6.696  -0.545 -1.6858 -0.9363  1.6884
  138MOL0     H18169  11.859   6.594  -0.704  2.5492  0.1441 -2.1895
  138MOL0     H18170  12.097   6.641  -0.822  2.1465  0.0489  2.6281
  138MOL0     H18171  12.166   6.801  -0.802  1.3165 -2.0086 -2.8464
  138MOL0     H18172  12.074   6.827  -1.018  0.5235 -0.4520  0.3391
  138MOL0     H18173  11.957   6.906  -0.911  2.3303  0.7383  1.6241
  138MOL0     H18174  11.939   6.606  -1.019 -0.0199  1.1772 -1.0218
  138MOL0     H18175  11.831   6.684  -0.915 -0.0444  0.2049 -0.8692
  138MOL0     H18176  11.921   6.751  -1.190  3.0837  0.9745  3.0449
  138MOL0     H18177  11.826   6.866  -1.110  0.8694 -0.8452 -0.4328
  138MOL0     H18178  11.892   6.485  -1.180 -0.0904  0.7650 -0.1453
  138MOL0     H18179  11.837   6.259  -1.233  0.1715  1.1664 -1.0324
  138MOL0     H18180  11.213   6.053  -1.334 -0.9782 -1.1035 -0.4211
  138MOL0     H18181  11.127   5.868  -1.476 -1.1036 -0.3274 -2.6270
  138MOL0     H18182  11.446   5.653  -1.752  0.4534 -0.1057 -0.2136
  138MOL0     H18183  11.340   5.754  -1.854 -0.0413  1.6195  1.2476
  138MOL0     H18184  11.293   5.485  -1.735  1.5705  6.5378  3.8538
  138MOL0     H18185  11.342   5.511  -1.908  1.7203 -2.5476  1.4580
  138MOL0     H18186  11.117   5.604  -1.960  7.4455 -2.3590 -3.2262
  138MOL0     H18187  11.088   5.602  -1.779  1.2001 -1.8285  0.7329
  138MOL0     H18188  11.105   5.363  -1.764 -0.1886  0.4917  0.2102
  138MOL0     H18189  10.975   5.408  -1.878 -0.2124 -1.9178 -2.7873
  138MOL0     H18190  11.245   5.296  -1.966  0.1464  0.1492 -0.3059
  138MOL0     H18191  11.121   5.368  -2.067  3.0779  1.1049 -1.0477
  138MOL0     H18192  11.100   5.123  -2.070  0.0553  1.2619  0.1874
  138MOL0     H18193  10.953   5.214  -1.998  0.2567  2.0380  0.1151
  138MOL0     H18194  11.106   4.991  -1.914  0.5638  0.7573 -1.3906
  138MOL0     H18195  11.146   5.121  -1.795 -4.2140 -2.4840  5.5726
  138MOL0     H18196  10.893   5.147  -1.757  3.7976  1.9913 -0.1100
  138MOL0     H18197  10.969   4.988  -1.709  0.3327 -1.9249 -1.1223
  138MOL0     H18198  11.529   5.813  -1.647  0.7723  2.5218 -2.7295
  138MOL0     H18199  11.607   6.006  -1.510  0.8965 -2.4880 -1.7116
  138MOL0     H18200  11.425   6.374  -1.274 -0.2349 -1.4397 -2.8706
  138MOL0     H18201  11.493   6.621  -1.218  2.7888  1.6671  2.0274
  138MOL0     H18202  11.116   6.031  -0.163  0.2610 -1.1423 -2.1960
  138MOL0     H18203  10.915   6.092  -0.039 -0.7847  0.1984 -0.4302
  138MOL0     H18204  10.751   6.532   0.254 -0.0704  0.6265 -1.1620
  138MOL0     H18205  10.556   6.592   0.371 -1.4530  1.1569  0.2476
  138MOL0     H18206  10.161   6.415   0.306  2.1601 -0.3364 -1.5011
  138MOL0     H18207  10.158   6.508   0.161  0.6061  1.3211 -0.7378
  138MOL0     H18208  10.122   6.615   0.436  0.0282 -3.8986  0.7214
  138MOL0     H18209  10.084   6.716   0.291 -3.4783  1.2695  1.6158
  138MOL0     H18210   9.907   6.549   0.218  1.8998 -1.2060 -0.9129
  138MOL0     H18211   9.862   6.629   0.376 -0.1288 -0.4562  0.0602
  138MOL0     H18212   9.795   6.400   0.369  0.7836 -1.8456 -1.3919
  138MOL0     H18213   9.955   6.346   0.351 -0.6397  0.2643 -1.2853
  138MOL0     H18214   9.919   6.506   0.757 -4.1359  1.6447  0.8803
  138MOL0     H18215  10.315   6.355   0.118  0.0855 -1.1449  0.2404
  138MOL0     H18216  10.500   6.304  -0.022 -0.8262 -1.0844  0.4393
  139MOL0     O18217   8.215   1.914   9.150 -0.6933  0.8741 -0.0046
  139MOL0     C18218   8.203   1.935   9.274  0.3481  0.0445  1.1481
  139MOL0     O18219   8.181   1.841   9.376  0.3141 -0.4196  0.3606
  139MOL0     C18220   8.230   1.714   9.343  0.6448  0.5219  0.6804
  139MOL0     C18221   8.363   1.688   9.314  0.7858 -0.4206  1.1835
  139MOL0     C18222   8.415   1.566   9.273 -0.0428  0.4294  0.5646
  139MOL0     C18223   8.322   1.461   9.248  1.2099  0.5263 -0.1024
  139MOL0     O18224   8.346   1.331   9.215 -0.0961 -0.0777 -0.3552
  139MOL0     C18225   8.472   1.311   9.137  1.2060  0.7859  0.2938
  139MOL0     C18226   8.440   1.187   9.063  0.4450 -1.0495  0.4226
  139MOL0     C18227   8.559   1.135   8.976  0.2839 -0.1614 -0.1623
  139MOL0     C18228   8.562   1.194   8.830  0.1619 -0.3110  0.0760
  139MOL0     C18229   8.690   1.174   8.747  0.0869 -0.0531 -0.0617
  139MOL0     C18230   8.750   1.039   8.743 -0.1307  0.8693  0.4292
  139MOL0     C18231   8.652   0.939   8.685 -0.2749 -0.3647  0.5642
  139MOL0     C18232   8.615   0.964   8.535 -0.3297 -0.3478 -0.1830
  139MOL0     N18233   8.583   0.849   8.446  0.6265  0.9100 -0.1530
  139MOL0     C18234   8.502   0.740   8.466 -0.2995  0.8231 -0.5234
  139MOL0     C18235   8.501   0.671   8.344 -0.4150 -0.0686  0.1494
  139MOL0     C18236   8.411   0.552   8.318 -0.3751  0.6929  0.5537
  139MOL0     C18237   8.402   0.553   8.165  0.1173 -0.4568 -0.4402
  139MOL0     C18238   8.332   0.419   8.127 -0.7715 -0.3780 -0.6470
  139MOL0     C18239   8.346   0.377   7.980  0.0100 -0.4758  0.0126
  139MOL0     O18240   8.487   0.373   7.938 -0.3960 -0.1323  0.3394
  139MOL0     C18241   8.519   0.280   7.836  1.9593 -0.7648 -0.0329
  139MOL0     C18242   8.608   0.178   7.856 -0.1191 -1.1730 -0.7867
  139MOL0     C18243   8.648   0.099   7.747  0.3687  0.2779  0.1039
  139MOL0     C18244   8.587   0.116   7.621  0.3838  0.2764 -0.4588
  139MOL0     C18245   8.649   0.049   7.501  0.5108 -0.6659  0.1319
  139MOL0     O18246   8.777  -0.010   7.513 -0.5866 -0.4025 -0.0135
  139MOL0     C18247   8.841  -0.079   7.409 -0.8604 -0.1124  0.3305
  139MOL0     C18248   8.924  -0.180   7.445  0.1762  0.1750 -0.3313
  139MOL0     C18249   9.013  -0.242   7.357 -0.0020 -0.3614  0.0187
  139MOL0     C18250   9.025  -0.190   7.224 -0.2545 -0.8069 -0.1806
  139MOL0     O18251   9.114  -0.231   7.130  0.6281  0.9003 -0.2637
  139MOL0     C18252   9.161  -0.370   7.144 -0.1979 -0.2503 -0.6514
  139MOL0     C18253   9.260  -0.389   7.023  0.0825 -0.2938  0.4997
  139MOL0     C18254   9.303  -0.533   6.984  0.6279  0.7401  0.3669
  139MOL0     C18255   9.383  -0.607   7.099  0.5441  0.7791  0.2652
  139MOL0     C18256   9.439  -0.745   7.045  0.4937  0.5567  1.6171
  139MOL0     C18257   9.522  -0.819   7.150 -0.9506  0.5189 -0.2653
  139MOL0     C18258   9.591  -0.946   7.103 -0.1700  0.3086  0.2313
  139MOL0     C18259   9.486  -1.051   7.067 -0.4352  0.6903 -0.1598
  139MOL0    Cl18260   9.569  -1.195   6.999  0.5380 -0.3876  0.4788
  139MOL0     C18261   8.937  -0.081   7.192  0.0689 -0.3223  0.1416
  139MOL0     C18262   8.846  -0.027   7.280 -0.5401 -0.0942  0.2292
  139MOL0     O18263   8.586   0.054   7.393 -0.7512  0.2428  0.5689
  139MOL0     C18264   8.477   0.200   7.613  0.3984 -0.0353 -0.3218
  139MOL0     C18265   8.439   0.277   7.718 -0.0152  0.0231 -0.6850
  139MOL0     N18266   8.572   0.755   8.254 -0.1633 -0.2930 -0.6238
  139MOL0     N18267   8.628   0.850   8.315  0.5653  1.0815 -0.8478
  139MOL0     C18268   8.188   1.491   9.281  0.5577  0.5393  0.0606
  139MOL0     C18269   8.144   1.608   9.323 -0.9307 -0.0483 -0.4435
  139MOL0     C18270   8.168   2.071   9.309  0.2694 -0.0641  0.5644
  139MOL0     C18271   8.183   2.109   9.441 -0.1282  0.0762 -0.5919
  139MOL0     C18272   8.159   2.242   9.479  1.3319 -0.1145 -0.4331
  139MOL0     C18273   8.112   2.336   9.385  0.3686 -1.2774 -0.1504
  139MOL0     O18274   8.104   2.471   9.429 -0.0012 -0.4734  0.8938
  139MOL0     C18275   8.114   2.575   9.328 -0.0881  0.1914  0.4969
  139MOL0     C18276   8.245   2.637   9.360  0.1666 -0.2069 -0.6779
  139MOL0     C18277   8.266   2.766   9.273 -0.2410 -0.4959  0.2880
  139MOL0     C18278   8.403   2.838   9.296  1.1048  0.3868  0.6038
  139MOL0     C18279   8.520   2.757   9.245 -0.1198 -0.3401  0.7652
  139MOL0     C18280   8.620   2.695   9.206  1.1860 -0.9884  0.6382
  139MOL0     C18281   8.086   2.301   9.255  0.6902  0.5659  0.3495
  139MOL0     C18282   8.116   2.171   9.221  0.6987  1.3316  0.4653
  139MOL0     H18283   8.415   1.783   9.313 -0.5701  0.3483  1.3114
  139MOL0     H18284   8.522   1.557   9.255 -0.5415 -3.0063 -1.6654
  139MOL0     H18285   8.559   1.310   9.204  2.7198  2.8351 -1.5170
  139MOL0     H18286   8.485   1.397   9.071  0.8937 -0.6777 -1.7602
  139MOL0     H18287   8.358   1.203   8.993  0.2283 -1.3633  0.6001
  139MOL0     H18288   8.409   1.120   9.144  1.1452 -2.7618 -0.6567
  139MOL0     H18289   8.560   1.025   8.976 -2.8368 -0.3938 -3.7744
  139MOL0     H18290   8.647   1.175   9.027 -0.7050  0.1968  1.3373
  139MOL0     H18291   8.486   1.145   8.769  1.4387 -0.2418 -1.6681
  139MOL0     H18292   8.526   1.297   8.834 -1.9833 -1.0183  0.0857
  139MOL0     H18293   8.767   1.248   8.770 -0.0549 -0.5686  2.2748
  139MOL0     H18294   8.647   1.195   8.649  0.3635 -2.0759 -0.6672
  139MOL0     H18295   8.780   0.998   8.840  0.0342  2.2731  0.9960
  139MOL0     H18296   8.842   1.043   8.685 -0.6001  1.1657 -0.3075
  139MOL0     H18297   8.685   0.835   8.699 -1.0220 -0.7289 -0.2618
  139MOL0     H18298   8.557   0.948   8.740  0.6809 -0.2421  2.2504
  139MOL0     H18299   8.698   1.023   8.497  1.1592 -1.7952  0.6705
  139MOL0     H18300   8.534   1.037   8.539  0.2561  0.3321 -0.6025
  139MOL0     H18301   8.459   0.705   8.559  0.9018  0.0754 -0.2309
  139MOL0     H18302   8.311   0.558   8.362 -1.4710 -0.0514 -1.6951
  139MOL0     H18303   8.459   0.461   8.354 -3.5079 -1.5840 -0.6383
  139MOL0     H18304   8.499   0.548   8.114  0.3126 -3.5054  0.0596
  139MOL0     H18305   8.337   0.633   8.129 -2.6047 -3.3232 -2.5037
  139MOL0     H18306   8.376   0.334   8.181 -1.2590 -0.5654 -0.5445
  139MOL0     H18307   8.230   0.420   8.165 -0.7294 -0.8673 -0.5076
  139MOL0     H18308   8.286   0.432   7.908  0.6861 -2.5977 -2.3363
  139MOL0     H18309   8.303   0.278   7.963  0.0805 -1.2170  3.4164
  139MOL0     H18310   8.662   0.180   7.950  1.9107 -1.1010 -1.8968
  139MOL0     H18311   8.730   0.027   7.754 -1.6482 -2.0717  1.0400
  139MOL0     H18312   8.912  -0.222   7.544 -1.8333 -0.1384 -0.6586
  139MOL0     H18313   9.067  -0.327   7.398 -3.1052 -1.3457  2.4312
  139MOL0     H18314   9.072  -0.433   7.142 -0.7020  0.4316 -0.2066
  139MOL0     H18315   9.219  -0.379   7.237 -0.3491 -1.3436 -0.6427
  139MOL0     H18316   9.352  -0.333   7.044  1.5678 -2.0234 -1.0029
  139MOL0     H18317   9.195  -0.351   6.943  0.7766 -3.1374 -1.5924
  139MOL0     H18318   9.355  -0.531   6.888 -1.2445  5.1696 -0.8682
  139MOL0     H18319   9.217  -0.596   6.961  2.2682 -1.8106  0.8718
  139MOL0     H18320   9.470  -0.549   7.133  4.0133 -3.3110 -0.7546
  139MOL0     H18321   9.309  -0.626   7.177 -0.8300 -2.4831 -1.6438
  139MOL0     H18322   9.493  -0.728   6.950 -3.0094 -0.1158 -0.6778
  139MOL0     H18323   9.353  -0.807   7.019  1.8299 -0.7994  0.1733
  139MOL0     H18324   9.453  -0.848   7.230 -1.7574  1.3847 -0.6138
  139MOL0     H18325   9.606  -0.769   7.199 -1.4206 -0.1445  1.2542
  139MOL0     H18326   9.663  -0.926   7.023  0.6421  0.4949  0.9995
  139MOL0     H18327   9.646  -0.991   7.185 -0.3993 -3.7371 -1.6063
  139MOL0     H18328   9.421  -1.010   6.989  2.6479 -1.0911 -4.0290
  139MOL0     H18329   9.429  -1.083   7.154  0.8019 -2.8690 -0.5056
  139MOL0     H18330   8.944  -0.023   7.101  1.0958  0.9595  0.9987
  139MOL0     H18331   8.790   0.064   7.267  0.9439  0.7470 -0.6071
  139MOL0     H18332   8.435   0.210   7.513 -1.2297  0.8941  0.4120
  139MOL0     H18333   8.363   0.355   7.717  2.9961  3.2657  0.4025
  139MOL0     H18334   8.110   1.416   9.269  0.8393  0.5354 -2.1160
  139MOL0     H18335   8.040   1.623   9.351  0.1039  1.9915  2.8839
  139MOL0     H18336   8.238   2.042   9.506 -1.7799  0.9432  1.8594
  139MOL0     H18337   8.186   2.273   9.579 -0.8476 -0.4556  0.3005
  139MOL0     H18338   8.046   2.657   9.354  2.1322  1.7740  1.6040
  139MOL0     H18339   8.112   2.558   9.220 -1.9340  2.0732  0.1626
  139MOL0     H18340   8.246   2.659   9.467 -4.5819  1.5434 -0.7261
  139MOL0     H18341   8.331   2.575   9.337  0.3538 -0.2237  0.0487
  139MOL0     H18342   8.188   2.835   9.308  0.8100  0.9441 -0.1044
  139MOL0     H18343   8.245   2.753   9.166 -2.2622 -1.5160  0.7653
  139MOL0     H18344   8.393   2.940   9.258  0.7737 -0.0781 -0.5888
  139MOL0     H18345   8.415   2.844   9.405 -1.5003  2.1807  0.8601
  139MOL0     H18346   8.700   2.633   9.173  3.0625  1.7207 -0.2759
  139MOL0     H18347   8.045   2.369   9.180  0.7458  2.9577  2.3620
  139MOL0     H18348   8.086   2.140   9.122 -1.3200  1.3879  1.0038
  140MOL0     O18349   7.319   4.244   4.359 -0.8336  0.9880  0.0076
  140MOL0     C18350   7.365   4.144   4.298 -0.1847  0.3980  0.3853
  140MOL0     O18351   7.291   4.070   4.215 -0.4310 -0.3023 -0.0536
  140MOL0     C18352   7.156   4.059   4.236  0.5368  0.3326 -0.5023
  140MOL0     C18353   7.069   4.089   4.126 -1.4150  0.0364  0.0678
  140MOL0     C18354   6.932   4.094   4.151  0.0926  0.6442  0.0233
  140MOL0     C18355   6.863   4.058   4.268 -0.4747  0.1003 -0.2040
  140MOL0     O18356   6.729   4.066   4.289 -0.2447 -0.0682 -0.2973
  140MOL0     C18357   6.649   4.156   4.214  0.5033  0.2678  0.6047
  140MOL0     C18358   6.492   4.135   4.228 -1.0306  0.0535  0.3758
  140MOL0     C18359   6.404   4.218   4.135  0.5958 -0.9437 -0.4676
  140MOL0     C18360   6.259   4.174   4.156 -0.8294 -0.0851 -0.5559
  140MOL0     C18361   6.154   4.228   4.057 -0.5180 -1.1406 -0.2445
  140MOL0     C18362   6.057   4.331   4.122 -0.9386 -0.0230  0.3978
  140MOL0     C18363   5.953   4.385   4.017  0.5146 -1.4736  0.8008
  140MOL0     C18364   5.983   4.526   3.966  0.0224  1.0035 -1.3355
  140MOL0     N18365   6.112   4.533   3.888 -0.1772  0.2933 -0.3623
  140MOL0     C18366   6.141   4.477   3.767  0.3056 -0.8949  0.6240
  140MOL0     C18367   6.274   4.484   3.749  0.1373  0.2800 -0.5577
  140MOL0     C18368   6.353   4.427   3.635 -0.3209  0.8316  0.7200
  140MOL0     C18369   6.375   4.543   3.538 -0.2871 -0.3310  0.8652
  140MOL0     C18370   6.469   4.522   3.419 -0.4286  0.6214 -0.4601
  140MOL0     C18371   6.446   4.394   3.333 -0.0935 -1.0280  0.2651
  140MOL0     O18372   6.521   4.398   3.214 -0.0119  0.0173  0.0710
  140MOL0     C18373   6.558   4.285   3.140 -0.0233 -0.3450  0.1756
  140MOL0     C18374   6.496   4.167   3.142 -0.3019  0.2836 -1.1645
  140MOL0     C18375   6.520   4.058   3.057 -0.2346  0.4963 -1.1098
  140MOL0     C18376   6.636   4.051   2.983 -0.3470 -1.5568  0.3986
  140MOL0     C18377   6.666   3.935   2.893  0.0654  0.1571 -0.1465
  140MOL0     O18378   6.567   3.843   2.888  0.2469  0.6647  0.2132
  140MOL0     C18379   6.565   3.741   2.792 -0.3007 -0.3825 -0.5263
  140MOL0     C18380   6.682   3.689   2.726 -0.2361 -0.6745 -0.0749
  140MOL0     C18381   6.669   3.589   2.620 -0.1315 -0.4135 -0.4977
  140MOL0     C18382   6.551   3.535   2.584  0.7226 -0.0937  0.7569
  140MOL0     O18383   6.544   3.450   2.486  0.9063 -0.1140 -0.7660
  140MOL0     C18384   6.646   3.424   2.388 -0.4730 -0.3163 -0.8468
  140MOL0     C18385   6.599   3.332   2.271  0.0287 -0.5872 -0.9709
  140MOL0     C18386   6.675   3.348   2.142 -0.3498 -0.2749 -0.2566
  140MOL0     C18387   6.658   3.219   2.064  0.1799  0.9751  0.2274
  140MOL0     C18388   6.727   3.241   1.926  0.4089  0.1163 -0.4414
  140MOL0     C18389   6.710   3.127   1.832 -0.1160  0.7637 -0.4638
  140MOL0     C18390   6.804   3.125   1.704 -0.4904 -0.8518 -0.7017
  140MOL0     C18391   6.765   3.028   1.602 -1.0852 -0.6106  0.4870
  140MOL0    Cl18392   6.857   3.067   1.449 -0.3216 -0.0111  0.1526
  140MOL0     C18393   6.436   3.578   2.649 -0.0257  0.7676 -0.2894
  140MOL0     C18394   6.449   3.671   2.756 -0.2307  0.2337 -0.4883
  140MOL0     O18395   6.766   3.948   2.828  0.5872 -0.0685  0.0992
  140MOL0     C18396   6.709   4.177   2.988  0.7744  0.1049 -0.5701
  140MOL0     C18397   6.669   4.289   3.053  0.6287 -1.0068 -0.1237
  140MOL0     N18398   6.325   4.543   3.865 -0.0773 -0.4380  0.2287
  140MOL0     N18399   6.234   4.575   3.948  0.3342 -0.5307 -0.4594
  140MOL0     C18400   6.955   4.024   4.374  0.1467 -0.0767  0.0525
  140MOL0     C18401   7.096   4.023   4.361 -0.4113 -0.3759 -0.4903
  140MOL0     C18402   7.508   4.137   4.283 -0.0860 -0.3340 -0.1834
  140MOL0     C18403   7.573   4.018   4.249 -0.6860 -0.4742  0.8507
  140MOL0     C18404   7.709   4.005   4.230  0.2668 -0.5504  0.0704
  140MOL0     C18405   7.783   4.124   4.249  0.0274 -0.3756  1.1711
  140MOL0     O18406   7.913   4.109   4.224 -0.0753  0.6015  0.0244
  140MOL0     C18407   8.002   4.226   4.225  0.2087  0.6058 -0.5790
  140MOL0     C18408   8.144   4.164   4.225  0.5034 -0.7633 -0.3980
  140MOL0     C18409   8.252   4.254   4.280  0.1390  0.4216  0.3666
  140MOL0     C18410   8.384   4.164   4.280  0.4714  0.2717  0.0637
  140MOL0     C18411   8.437   4.162   4.138 -0.1325 -0.7822 -0.7224
  140MOL0     C18412   8.476   4.164   4.022 -0.6491  0.9480  0.5382
  140MOL0     C18413   7.722   4.240   4.290  1.5622 -0.4183 -0.8313
  140MOL0     C18414   7.588   4.252   4.306 -0.3597 -0.2119 -0.3760
  140MOL0     H18415   7.114   4.134   4.039 -1.7207  1.9751  0.8438
  140MOL0     H18416   6.870   4.138   4.074 -1.2359 -1.4867 -0.1896
  140MOL0     H18417   6.664   4.155   4.106 -0.9301  0.7323  0.3700
  140MOL0     H18418   6.668   4.258   4.250 -4.7455  0.8848  2.5331
  140MOL0     H18419   6.475   4.159   4.333  1.9727  1.6588  0.6235
  140MOL0     H18420   6.477   4.027   4.230 -2.2008  0.1992  0.2976
  140MOL0     H18421   6.422   4.192   4.030  0.9475 -0.9477 -0.4056
  140MOL0     H18422   6.401   4.326   4.147 -0.9499 -1.0894  0.7413
  140MOL0     H18423   6.264   4.065   4.142  2.3755 -0.0597 -0.3266
  140MOL0     H18424   6.233   4.181   4.262 -0.9460  1.6699 -0.6715
  140MOL0     H18425   6.091   4.146   4.021 -0.8907 -0.8620 -0.2326
  140MOL0     H18426   6.203   4.274   3.971  1.0930 -0.4367  0.9963
  140MOL0     H18427   6.117   4.408   4.171  0.7317 -0.3153 -1.0665
  140MOL0     H18428   6.002   4.278   4.199  1.1465 -0.4078  1.6932
  140MOL0     H18429   5.930   4.314   3.937 -0.0570  3.1794 -3.6688
  140MOL0     H18430   5.849   4.392   4.052 -0.8142 -3.8570 -2.2086
  140MOL0     H18431   5.977   4.597   4.050 -2.4018 -1.8650  1.1362
  140MOL0     H18432   5.901   4.560   3.903 -0.0237  0.1072 -1.7605
  140MOL0     H18433   6.077   4.445   3.686 -0.4409  0.9261  0.4490
  140MOL0     H18434   6.292   4.344   3.599 -1.7215  1.6568  1.1071
  140MOL0     H18435   6.450   4.388   3.665  0.5437  0.3052 -2.4587
  140MOL0     H18436   6.415   4.623   3.601 -0.5618  0.3697  0.1633
  140MOL0     H18437   6.282   4.580   3.494 -0.1194  1.6139  2.0334
  140MOL0     H18438   6.465   4.612   3.357 -0.4584  0.3010 -0.9245
  140MOL0     H18439   6.572   4.515   3.455 -0.4520  0.2082 -0.4713
  140MOL0     H18440   6.341   4.386   3.302  0.3085  0.4614 -1.6227
  140MOL0     H18441   6.480   4.302   3.382 -0.2084 -2.9777 -3.0330
  140MOL0     H18442   6.409   4.151   3.205  0.1521  2.5911  0.1611
  140MOL0     H18443   6.453   3.973   3.056 -0.4346  0.6327 -0.1109
  140MOL0     H18444   6.783   3.726   2.741 -0.9131  2.5328 -2.4672
  140MOL0     H18445   6.763   3.550   2.582  0.9676  1.9286 -0.3581
  140MOL0     H18446   6.737   3.382   2.431  2.1469  2.2621 -3.4304
  140MOL0     H18447   6.673   3.522   2.347  2.9995  0.1810  2.0505
  140MOL0     H18448   6.493   3.345   2.249  0.1486 -1.0601 -1.8551
  140MOL0     H18449   6.613   3.242   2.331  0.4998  1.2155  1.7956
  140MOL0     H18450   6.778   3.381   2.157 -1.1936  3.7516 -2.0518
  140MOL0     H18451   6.640   3.436   2.087 -3.6787 -1.1203  0.2919
  140MOL0     H18452   6.702   3.135   2.120 -1.6163  0.2917  0.6746
  140MOL0     H18453   6.553   3.193   2.050 -0.4372  0.4704  4.5577
  140MOL0     H18454   6.835   3.253   1.941  0.0069  1.8419  1.6483
  140MOL0     H18455   6.680   3.329   1.881 -0.1891 -0.7438 -1.5332
  140MOL0     H18456   6.609   3.132   1.790 -1.0389  1.1288  1.6617
  140MOL0     H18457   6.722   3.034   1.888 -5.0782  1.8720  3.1911
  140MOL0     H18458   6.794   3.226   1.663  1.8162  0.8930  2.6006
  140MOL0     H18459   6.908   3.123   1.735 -0.7248 -0.5782  0.1243
  140MOL0     H18460   6.658   3.040   1.581 -0.6566 -0.5703 -1.9687
  140MOL0     H18461   6.792   2.928   1.637  2.9940 -0.9458 -2.8254
  140MOL0     H18462   6.340   3.552   2.604  0.0949  2.2352 -1.4613
  140MOL0     H18463   6.367   3.701   2.820 -1.7766  1.2217 -2.8045
  140MOL0     H18464   6.807   4.161   2.945  1.1296 -0.5310  0.4628
  140MOL0     H18465   6.723   4.383   3.049  0.0470 -0.6841 -0.5474
  140MOL0     H18466   6.920   3.986   4.470  2.8008 -0.4675  0.9390
  140MOL0     H18467   7.160   4.001   4.445  2.2883  0.6135 -2.1458
  140MOL0     H18468   7.521   3.924   4.235  2.4514 -2.8468  3.7520
  140MOL0     H18469   7.756   3.909   4.213  1.5854  0.1714 -0.4486
  140MOL0     H18470   7.989   4.278   4.321 -1.6734 -2.0664  0.7726
  140MOL0     H18471   7.980   4.287   4.138  1.3705  1.8577 -0.0219
  140MOL0     H18472   8.116   4.075   4.282 -4.5002  1.3598  0.9305
  140MOL0     H18473   8.153   4.135   4.120 -1.4001 -1.4843 -0.3965
  140MOL0     H18474   8.224   4.277   4.383  0.8846 -1.0909  0.9344
  140MOL0     H18475   8.268   4.345   4.220  0.8818 -1.2295 -2.0798
  140MOL0     H18476   8.458   4.205   4.348 -0.7184 -0.1352  1.6542
  140MOL0     H18477   8.354   4.064   4.310 -0.7832  0.1027 -1.6073
  140MOL0     H18478   8.513   4.171   3.921 -0.6463  0.2308  0.4813
  140MOL0     H18479   7.781   4.329   4.309  1.6414 -0.5272 -0.5630
  140MOL0     H18480   7.537   4.340   4.344  0.0976 -0.7914  1.6762
  141MOL0     O18481   5.999   7.708   5.196 -0.2016 -0.8085  0.4010
  141MOL0     C18482   5.884   7.669   5.165  0.4675 -0.2807  0.2606
  141MOL0     O18483   5.775   7.680   5.244 -0.1612 -0.7129  0.1710
  141MOL0     C18484   5.791   7.747   5.363 -1.4856  0.5113 -0.0491
  141MOL0     C18485   5.877   7.861   5.403  0.2089 -0.6624 -0.0966
  141MOL0     C18486   5.858   7.919   5.531  0.5567 -0.4418  0.9918
  141MOL0     C18487   5.775   7.860   5.629 -0.8267  0.1141 -0.1804
  141MOL0     O18488   5.762   7.917   5.755 -0.1787 -0.2210 -0.1410
  141MOL0     C18489   5.801   7.839   5.864  0.5946 -0.5402 -0.3234
  141MOL0     C18490   5.839   7.943   5.974  0.0106  0.0576 -0.1559
  141MOL0     C18491   5.947   8.043   5.932  0.0486  0.9382  0.5918
  141MOL0     C18492   6.070   7.987   5.869 -0.0991  0.6070 -1.2813
  141MOL0     C18493   6.168   8.077   5.795  0.0271 -0.7658 -0.3035
  141MOL0     C18494   6.281   8.002   5.715  0.0713  0.6027 -0.4802
  141MOL0     C18495   6.333   8.101   5.607  0.5015  0.5662 -1.3540
  141MOL0     C18496   6.250   8.083   5.476  0.0621 -0.4799 -0.6299
  141MOL0     N18497   6.316   8.140   5.354  0.2951  0.3864 -0.3830
  141MOL0     C18498   6.384   8.252   5.349 -0.8973  0.1181 -0.9628
  141MOL0     C18499   6.429   8.274   5.221  0.3485 -0.3276  0.8806
  141MOL0     C18500   6.496   8.392   5.150  1.0032  0.8119 -0.5375
  141MOL0     C18501   6.631   8.365   5.087 -0.3288  0.2272 -0.2705
  141MOL0     C18502   6.697   8.494   5.025  1.1746  0.4051  0.2612
  141MOL0     C18503   6.804   8.463   4.916  0.5727 -0.2861  0.3199
  141MOL0     O18504   6.849   8.594   4.876 -1.0725 -0.3782  0.2604
  141MOL0     C18505   6.956   8.607   4.798 -1.2953 -0.5408 -0.6488
  141MOL0     C18506   6.954   8.726   4.721  0.2101  0.5433  0.3696
  141MOL0     C18507   7.052   8.750   4.629 -1.1846  0.4211 -0.5783
  141MOL0     C18508   7.167   8.663   4.636  0.1944 -0.0466  0.9943
  141MOL0     C18509   7.283   8.696   4.560 -0.3788 -0.5357 -0.9506
  141MOL0     O18510   7.404   8.642   4.613  0.2921 -0.3895 -0.2474
  141MOL0     C18511   7.519   8.685   4.558 -0.3453 -0.5577 -0.6041
  141MOL0     C18512   7.550   8.689   4.428  0.1943 -0.4415 -0.0424
  141MOL0     C18513   7.675   8.712   4.377  0.2767 -0.7496 -0.6559
  141MOL0     C18514   7.784   8.736   4.462  1.0128  1.0754  0.9834
  141MOL0     O18515   7.899   8.744   4.401 -0.8716  0.9473 -0.0419
  141MOL0     C18516   8.016   8.707   4.471 -0.1247 -0.0003  0.3762
  141MOL0     C18517   8.129   8.674   4.367  0.0645  0.2706  0.1333
  141MOL0     C18518   8.095   8.589   4.255 -0.5731 -0.6815  0.1179
  141MOL0     C18519   8.223   8.539   4.164 -0.3272 -0.5626  0.1913
  141MOL0     C18520   8.168   8.481   4.030 -0.3338 -1.1127  0.5757
  141MOL0     C18521   8.283   8.420   3.952 -0.0356  0.2718  0.1609
  141MOL0     C18522   8.233   8.357   3.821  1.1230  0.4756 -0.2597
  141MOL0     C18523   8.214   8.463   3.715  0.7422 -0.6230  0.0164
  141MOL0    Cl18524   8.190   8.371   3.554  0.3105  0.4683 -0.1689
  141MOL0     C18525   7.756   8.723   4.596 -0.2562  0.0955 -0.3002
  141MOL0     C18526   7.622   8.698   4.651 -0.0426 -0.0076  0.1559
  141MOL0     O18527   7.271   8.756   4.453 -0.4529  0.0318 -0.3831
  141MOL0     C18528   7.171   8.555   4.718 -0.0338 -0.2552  1.0109
  141MOL0     C18529   7.057   8.519   4.793 -1.1174 -0.4446 -0.2845
  141MOL0     N18530   6.389   8.161   5.148  0.2158  0.3019 -1.1246
  141MOL0     N18531   6.326   8.077   5.232  0.3407 -0.0077 -0.2948
  141MOL0     C18532   5.698   7.748   5.594 -0.1211 -0.6200 -0.7907
  141MOL0     C18533   5.706   7.699   5.466  0.5008 -0.3503  0.4273
  141MOL0     C18534   5.874   7.605   5.031 -0.9186  0.4408 -0.3284
  141MOL0     C18535   5.763   7.523   4.990 -0.5855  0.3181 -0.2300
  141MOL0     C18536   5.750   7.473   4.864  0.3006  0.6209 -0.5660
  141MOL0     C18537   5.849   7.501   4.766  0.4277  0.3197  0.2672
  141MOL0     O18538   5.849   7.486   4.634 -0.3541 -1.1743  0.9623
  141MOL0     C18539   5.730   7.428   4.576 -0.5918  0.4157 -0.0501
  141MOL0     C18540   5.683   7.521   4.467 -0.3916 -0.3148  0.6911
  141MOL0     C18541   5.774   7.499   4.344 -0.1824 -0.5747  0.6483
  141MOL0     C18542   5.777   7.625   4.262  0.5546  0.3882  0.4657
  141MOL0     C18543   5.820   7.596   4.131  1.3898 -0.7352  0.5367
  141MOL0     C18544   5.876   7.582   4.030 -0.2202 -0.3131  0.4920
  141MOL0     C18545   5.963   7.578   4.810 -0.7402  0.4148  0.0246
  141MOL0     C18546   5.977   7.630   4.942  0.1621 -0.0855  0.7787
  141MOL0     H18547   5.936   7.902   5.321 -2.6584  0.9460 -1.5462
  141MOL0     H18548   5.895   8.016   5.563  2.7815 -0.9244  0.0445
  141MOL0     H18549   5.887   7.774   5.850  2.1208  0.6350  2.7953
  141MOL0     H18550   5.716   7.788   5.910  1.1328  0.1818  1.5474
  141MOL0     H18551   5.860   7.888   6.066  2.4495  3.0267  1.2529
  141MOL0     H18552   5.755   8.013   5.979  0.2145  0.8112 -3.8840
  141MOL0     H18553   5.981   8.102   6.017  0.2808 -0.1955  1.3003
  141MOL0     H18554   5.911   8.117   5.859 -1.7739  2.0628  2.5439
  141MOL0     H18555   6.128   7.919   5.932  1.5095  2.8216 -0.2440
  141MOL0     H18556   6.036   7.910   5.799  0.6062  0.5599 -1.5721
  141MOL0     H18557   6.203   8.146   5.872  0.5642 -1.9281  0.5168
  141MOL0     H18558   6.110   8.139   5.727 -0.9177 -0.7377  0.5116
  141MOL0     H18559   6.243   7.902   5.691  1.6128 -1.1434  3.3902
  141MOL0     H18560   6.358   7.974   5.788  0.1442  0.6466 -0.5391
  141MOL0     H18561   6.335   8.206   5.640  0.6221 -0.0893  0.8456
  141MOL0     H18562   6.430   8.068   5.570  0.7876 -0.6074  0.3484
  141MOL0     H18563   6.142   8.098   5.480  0.0219 -0.9200  0.7292
  141MOL0     H18564   6.255   7.974   5.468  2.2466 -0.3942 -0.8961
  141MOL0     H18565   6.374   8.326   5.429  1.7010 -0.1064 -0.3136
  141MOL0     H18566   6.512   8.474   5.221 -1.0331 -0.7999  1.9878
  141MOL0     H18567   6.416   8.416   5.079  0.8816  0.0449 -0.6680
  141MOL0     H18568   6.628   8.283   5.014 -0.6919  0.3101 -0.3497
  141MOL0     H18569   6.704   8.336   5.163 -1.8487  4.2191  3.1217
  141MOL0     H18570   6.617   8.548   4.973 -0.7954 -1.4740  1.1774
  141MOL0     H18571   6.724   8.561   5.107 -1.1542  1.0079  0.5908
  141MOL0     H18572   6.768   8.414   4.825  0.3572 -1.3617  0.9663
  141MOL0     H18573   6.888   8.409   4.961  0.4680 -1.8135 -1.1837
  141MOL0     H18574   6.872   8.796   4.709  0.4358  0.2778 -4.2947
  141MOL0     H18575   7.046   8.832   4.558 -1.4184  0.3643 -0.6256
  141MOL0     H18576   7.474   8.671   4.353  0.1050 -4.7259  0.8381
  141MOL0     H18577   7.686   8.720   4.270  1.3026 -0.6217 -0.5498
  141MOL0     H18578   7.991   8.615   4.525 -2.8382  0.2718 -0.2749
  141MOL0     H18579   8.047   8.792   4.532 -1.9050  1.2051 -0.3250
  141MOL0     H18580   8.219   8.627   4.408  0.8024  0.0693 -1.5967
  141MOL0     H18581   8.162   8.769   4.325  2.5751 -1.3060 -1.7853
  141MOL0     H18582   8.010   8.641   4.210 -2.5044 -2.9544  0.9890
  141MOL0     H18583   8.045   8.504   4.302 -1.5677 -0.6285 -0.8101
  141MOL0     H18584   8.288   8.622   4.138  2.1116 -1.2445  3.5352
  141MOL0     H18585   8.281   8.473   4.229  0.9529  0.6510  0.3152
  141MOL0     H18586   8.126   8.570   3.984  0.1654 -2.0467 -1.8357
  141MOL0     H18587   8.084   8.412   4.048 -2.7007  1.8384  1.6103
  141MOL0     H18588   8.303   8.336   4.020 -3.0970 -2.1887 -1.6845
  141MOL0     H18589   8.374   8.479   3.943 -0.7150  1.2632 -0.4644
  141MOL0     H18590   8.308   8.280   3.799  1.5029  0.8904 -0.4371
  141MOL0     H18591   8.135   8.309   3.826  0.4530  1.8849  4.1639
  141MOL0     H18592   8.299   8.531   3.701 -0.2540  0.8638  0.9396
  141MOL0     H18593   8.127   8.525   3.739  1.1903  0.0548 -0.0755
  141MOL0     H18594   7.843   8.711   4.660 -0.4216 -0.3445 -0.1565
  141MOL0     H18595   7.606   8.685   4.758 -1.5235 -1.2621 -0.1820
  141MOL0     H18596   7.239   8.471   4.707  0.0562 -0.2924  1.8009
  141MOL0     H18597   7.055   8.423   4.842 -0.6632 -1.0104 -1.3533
  141MOL0     H18598   5.640   7.686   5.662  0.0415 -2.2322 -2.0480
  141MOL0     H18599   5.658   7.605   5.443 -0.3101  0.1360  0.0948
  141MOL0     H18600   5.686   7.493   5.061 -1.8948  0.8392 -1.3830
  141MOL0     H18601   5.668   7.403   4.854  1.8697 -1.2064 -1.2067
  141MOL0     H18602   5.648   7.413   4.646 -0.7699 -0.2717 -0.4029
  141MOL0     H18603   5.759   7.333   4.532 -0.0925  0.8650 -0.7178
  141MOL0     H18604   5.582   7.503   4.430  0.7790 -0.2574 -2.9081
  141MOL0     H18605   5.679   7.627   4.493  0.3548  0.1631 -0.9877
  141MOL0     H18606   5.739   7.407   4.295 -2.3117  0.9957 -1.0467
  141MOL0     H18607   5.875   7.482   4.380 -0.4712 -1.2903  1.1378
  141MOL0     H18608   5.673   7.658   4.251  0.3151 -0.2205  0.8438
  141MOL0     H18609   5.838   7.702   4.311  0.1725  0.6669  0.5117
  141MOL0     H18610   5.921   7.553   3.937 -0.2485 -1.0830  0.7129
  141MOL0     H18611   6.020   7.625   4.732  1.7615 -2.2955  0.0548
  141MOL0     H18612   6.050   7.705   4.969 -2.5221  1.8571  3.2743
  142MOL0     O18613   3.642   5.531   2.284  0.4334  0.5877  0.2937
  142MOL0     C18614   3.569   5.524   2.185  0.0451 -0.2058 -0.2465
  142MOL0     O18615   3.584   5.430   2.092  0.5283 -0.7993  0.6961
  142MOL0     C18616   3.675   5.330   2.096  0.5352  0.1512 -0.1704
  142MOL0     C18617   3.702   5.250   2.209 -0.5801 -0.3465 -0.1756
  142MOL0     C18618   3.798   5.151   2.215  0.4195  0.7924 -0.8665
  142MOL0     C18619   3.851   5.107   2.094  0.4221  0.2095 -0.2275
  142MOL0     O18620   3.919   4.994   2.083  0.9096 -0.2170  0.1179
  142MOL0     C18621   3.971   4.938   2.205  0.5082  0.1706  0.5448
  142MOL0     C18622   4.066   4.823   2.180  0.7041  0.3309 -0.3010
  142MOL0     C18623   3.998   4.711   2.104 -0.1673 -0.7323 -0.6453
  142MOL0     C18624   4.095   4.599   2.057  0.1069  0.0787 -0.4006
  142MOL0     C18625   4.015   4.469   2.012  0.5806 -0.0765 -0.8783
  142MOL0     C18626   4.133   4.371   1.984  0.1612  0.3185 -0.5237
  142MOL0     C18627   4.052   4.246   1.931 -0.0696  0.2334 -0.6659
  142MOL0     C18628   4.145   4.120   1.933  0.1238 -0.2927 -0.5198
  142MOL0     N18629   4.073   4.027   1.845 -0.5220 -0.1160  0.5171
  142MOL0     C18630   3.942   3.985   1.863 -0.5290  0.3099  0.0177
  142MOL0     C18631   3.907   3.924   1.747 -0.7716 -0.3560  0.2738
  142MOL0     C18632   3.775   3.864   1.717  0.4657 -0.1563  0.1397
  142MOL0     C18633   3.739   3.876   1.556  0.4723  0.1558 -0.1467
  142MOL0     C18634   3.612   3.958   1.544  0.1971 -0.8126  0.6607
  142MOL0     C18635   3.590   3.988   1.395 -0.1469  0.4139 -1.0658
  142MOL0     O18636   3.466   4.056   1.370  0.3405  0.3569 -0.5714
  142MOL0     C18637   3.473   4.185   1.426  0.4904 -0.0121  0.0555
  142MOL0     C18638   3.372   4.223   1.515 -0.1247  0.2944  0.1032
  142MOL0     C18639   3.367   4.351   1.564 -0.2154  0.2979 -0.2726
  142MOL0     C18640   3.463   4.452   1.531 -0.6423 -0.3523  0.8701
  142MOL0     C18641   3.461   4.589   1.582 -0.4555 -0.6005 -0.3446
  142MOL0     O18642   3.587   4.651   1.582  0.0902 -0.3087 -0.0572
  142MOL0     C18643   3.579   4.787   1.607  0.8761  0.7891 -1.2202
  142MOL0     C18644   3.500   4.868   1.524 -0.1944 -0.5838 -0.6474
  142MOL0     C18645   3.481   5.002   1.564  0.2951 -0.1493  0.6944
  142MOL0     C18646   3.520   5.061   1.690 -0.3663  0.0910  0.1565
  142MOL0     O18647   3.497   5.188   1.731 -0.1292  0.0939 -0.0374
  142MOL0     C18648   3.381   5.256   1.679 -1.0423 -0.7406 -0.6441
  142MOL0     C18649   3.378   5.398   1.745 -0.1897  0.4742  0.1489
  142MOL0     C18650   3.253   5.469   1.705 -0.7363  0.4069  0.7102
  142MOL0     C18651   3.274   5.614   1.730  0.6060  0.8561  0.0345
  142MOL0     C18652   3.152   5.681   1.675 -0.3634  0.4603 -0.5064
  142MOL0     C18653   3.169   5.838   1.671 -0.2693  0.6342 -0.5102
  142MOL0     C18654   3.046   5.899   1.614  0.2473  0.3797 -0.5334
  142MOL0     C18655   3.045   6.048   1.612  0.0352 -0.0120  0.0105
  142MOL0    Cl18656   2.990   6.103   1.767 -0.1201 -0.4033  0.2813
  142MOL0     C18657   3.588   4.972   1.773  0.5708 -0.4525  0.4957
  142MOL0     C18658   3.618   4.845   1.727  0.8402 -0.2605 -0.4131
  142MOL0     O18659   3.349   4.640   1.628  0.0699 -0.5499  0.4840
  142MOL0     C18660   3.546   4.415   1.429 -0.9685  0.0108 -0.1793
  142MOL0     C18661   3.552   4.286   1.367  0.3249 -0.7140  0.2855
  142MOL0     N18662   4.024   3.929   1.668 -0.1508 -0.7047  0.1105
  142MOL0     N18663   4.115   3.995   1.724  0.4066  0.1343  0.8987
  142MOL0     C18664   3.816   5.181   1.981 -0.0816 -0.3369  0.8185
  142MOL0     C18665   3.736   5.294   1.982  0.0919  0.7752 -0.0003
  142MOL0     C18666   3.480   5.643   2.149 -0.5529  0.2650 -0.4284
  142MOL0     C18667   3.352   5.608   2.127  0.4929 -0.1543  0.3190
  142MOL0     C18668   3.256   5.713   2.135 -0.6953 -0.6881 -0.4210
  142MOL0     C18669   3.290   5.856   2.160  0.8763  1.2528  0.4578
  142MOL0     O18670   3.203   5.951   2.170  1.1424 -0.3536 -0.3254
  142MOL0     C18671   3.088   5.940   2.085  0.7429  0.7333 -0.2131
  142MOL0     C18672   2.952   5.922   2.163 -0.0378  0.3752  0.3332
  142MOL0     C18673   2.949   5.825   2.280  0.0622  0.0024  0.5459
  142MOL0     C18674   2.876   5.873   2.406 -0.6779  0.3438 -0.7722
  142MOL0     C18675   2.735   5.889   2.377  1.0109  0.4368  0.0954
  142MOL0     C18676   2.618   5.897   2.357 -0.2484 -0.8675  0.2806
  142MOL0     C18677   3.425   5.883   2.175 -0.4971 -0.5010 -0.1598
  142MOL0     C18678   3.522   5.775   2.168  0.4825  0.8291  0.0707
  142MOL0     H18679   3.635   5.268   2.292 -1.8653 -0.9004 -1.0588
  142MOL0     H18680   3.793   5.098   2.310  0.1372  0.6908 -0.9362
  142MOL0     H18681   3.896   4.895   2.272  1.5137 -0.7637  1.1127
  142MOL0     H18682   4.026   5.021   2.252 -0.7977  1.0082  0.6325
  142MOL0     H18683   4.100   4.797   2.280 -0.9729  1.1860  0.5352
  142MOL0     H18684   4.145   4.870   2.120 -0.9404 -0.1774 -3.0640
  142MOL0     H18685   3.946   4.742   2.013 -0.8682  3.3269  0.9527
  142MOL0     H18686   3.928   4.660   2.171  0.4248 -1.8293 -0.8370
  142MOL0     H18687   4.158   4.623   1.971  3.4505 -0.8473  1.5825
  142MOL0     H18688   4.167   4.575   2.136 -0.5495  1.8691  0.8033
  142MOL0     H18689   3.946   4.484   1.928 -1.3719 -1.0473  0.4463
  142MOL0     H18690   3.953   4.414   2.085  0.9614 -0.4902 -0.8663
  142MOL0     H18691   4.185   4.347   2.077  0.1139  0.5899 -0.4288
  142MOL0     H18692   4.193   4.419   1.907 -1.4043  2.3284 -0.5756
  142MOL0     H18693   3.965   4.223   1.993  1.6898  0.0725  1.9139
  142MOL0     H18694   4.024   4.268   1.828 -0.1852  2.8089 -0.1576
  142MOL0     H18695   4.147   4.077   2.034 -3.3000 -1.5746 -0.8526
  142MOL0     H18696   4.246   4.147   1.902  1.0277 -0.6608  1.8710
  142MOL0     H18697   3.880   3.998   1.950  0.2489 -2.0327  0.9956
  142MOL0     H18698   3.705   3.916   1.784 -1.3385  0.2000 -1.8913
  142MOL0     H18699   3.789   3.757   1.734  2.2042 -0.3444 -2.0768
  142MOL0     H18700   3.727   3.774   1.520 -1.6508  0.6323 -0.9508
  142MOL0     H18701   3.817   3.928   1.499 -1.9116  3.4008 -0.7732
  142MOL0     H18702   3.524   3.910   1.588  0.2374 -1.7813 -0.2759
  142MOL0     H18703   3.623   4.049   1.603  0.0138 -1.6391  2.0071
  142MOL0     H18704   3.584   3.890   1.348 -0.0165 -1.2522  2.1389
  142MOL0     H18705   3.678   4.041   1.356 -1.9314  2.5801 -2.3945
  142MOL0     H18706   3.312   4.140   1.552 -0.3618  0.8226  0.9296
  142MOL0     H18707   3.309   4.380   1.651  0.4200  0.8077 -0.0097
  142MOL0     H18708   3.481   4.835   1.422 -1.7133  0.3583 -0.7088
  142MOL0     H18709   3.432   5.059   1.486  0.8635 -2.2356 -1.2877
  142MOL0     H18710   3.291   5.198   1.698  0.1275 -2.7279 -0.9636
  142MOL0     H18711   3.388   5.259   1.570  1.8519 -0.5481 -0.5278
  142MOL0     H18712   3.462   5.448   1.696 -0.4807 -1.0511 -2.0304
  142MOL0     H18713   3.398   5.396   1.853 -1.6386  0.2869  0.4427
  142MOL0     H18714   3.168   5.424   1.756 -0.3306 -0.2698  0.8124
  142MOL0     H18715   3.244   5.472   1.596 -2.4908  2.1908  0.8547
  142MOL0     H18716   3.295   5.635   1.836 -0.6114  1.7692  0.1146
  142MOL0     H18717   3.362   5.647   1.674 -0.6532  5.6198  0.4626
  142MOL0     H18718   3.065   5.653   1.735  0.1097  1.0656  0.4739
  142MOL0     H18719   3.132   5.643   1.574  0.9826 -2.9353  0.3368
  142MOL0     H18720   3.251   5.870   1.606 -0.2759  1.7914  0.0163
  142MOL0     H18721   3.201   5.873   1.770 -2.4007 -3.1681  1.7637
  142MOL0     H18722   3.033   5.862   1.512  0.2013 -0.6586 -0.1600
  142MOL0     H18723   2.956   5.860   1.663  1.6116 -0.9150  1.0640
  142MOL0     H18724   2.973   6.083   1.538 -0.9828 -0.3173  0.8269
  142MOL0     H18725   3.139   6.099   1.589  0.3772  0.2168  1.7347
  142MOL0     H18726   3.592   4.999   1.878  0.2598 -3.3985  1.3580
  142MOL0     H18727   3.657   4.775   1.800  2.0298  1.5206  0.7567
  142MOL0     H18728   3.618   4.495   1.417 -0.1567 -0.1789  2.6466
  142MOL0     H18729   3.627   4.277   1.289  1.0613 -0.5113  0.9592
  142MOL0     H18730   3.854   5.152   1.883 -2.1621  2.6862 -1.0773
  142MOL0     H18731   3.714   5.337   1.885 -0.1735 -0.1055 -0.3377
  142MOL0     H18732   3.331   5.504   2.104  2.6984 -0.7035  0.5714
  142MOL0     H18733   3.150   5.703   2.114 -0.4437 -3.4540 -0.7822
  142MOL0     H18734   3.103   5.871   2.001  3.0259 -0.4565  1.0712
  142MOL0     H18735   3.081   6.035   2.031  2.3172  0.5222 -0.8531
  142MOL0     H18736   2.919   6.021   2.193  0.3259  0.4792  0.4010
  142MOL0     H18737   2.881   5.893   2.086  1.4423  0.6085 -1.1869
  142MOL0     H18738   3.049   5.807   2.319  0.2127  0.4461  0.3711
  142MOL0     H18739   2.922   5.723   2.251  1.7018  0.1399 -1.7947
  142MOL0     H18740   2.873   5.795   2.483  0.2680 -2.5546 -3.4491
  142MOL0     H18741   2.930   5.963   2.435  0.5101 -0.2335 -1.1292
  142MOL0     H18742   2.514   5.882   2.336 -0.4051 -3.3664  2.3350
  142MOL0     H18743   3.471   5.980   2.191 -1.1920  0.0661 -1.3961
  142MOL0     H18744   3.630   5.780   2.179  0.6216  0.7281 -1.0774
  143MOL0     O18745   6.900   6.451   9.001  0.5049 -0.1072  0.5853
  143MOL0     C18746   6.820   6.471   9.092  0.1458 -0.1547 -1.3284
  143MOL0     O18747   6.833   6.574   9.193  0.2192 -0.3549  0.6703
  143MOL0     C18748   6.909   6.679   9.159  0.2768  0.0860  1.0228
  143MOL0     C18749   7.021   6.701   9.224 -0.1405  0.3577  1.0792
  143MOL0     C18750   7.091   6.814   9.198  0.1697  0.2633  0.0888
  143MOL0     C18751   7.046   6.906   9.097 -0.1631 -0.0162 -0.4170
  143MOL0     O18752   7.119   7.015   9.070 -0.2162 -0.5886 -0.1098
  143MOL0     C18753   7.068   7.143   9.101 -0.2016 -0.6574 -0.4133
  143MOL0     C18754   7.176   7.255   9.096 -0.5033  0.8053  0.5013
  143MOL0     C18755   7.318   7.203   9.141 -0.1328  0.6025 -0.9500
  143MOL0     C18756   7.409   7.322   9.096 -0.6545 -0.5710  0.3793
  143MOL0     C18757   7.549   7.328   9.148  0.1088 -0.2773  0.1320
  143MOL0     C18758   7.633   7.197   9.101 -0.4546 -0.4589 -0.4843
  143MOL0     C18759   7.659   7.197   8.944 -0.0181 -0.4447 -0.1123
  143MOL0     C18760   7.697   7.067   8.886 -0.0130  0.0229  0.6341
  143MOL0     N18761   7.799   7.005   8.967 -0.3986 -1.0626  0.1413
  143MOL0     C18762   7.932   7.036   8.969 -0.4433 -0.9066 -0.2647
  143MOL0     C18763   7.984   6.948   9.059  0.4457 -0.6133  0.6018
  143MOL0     C18764   8.129   6.951   9.100  0.0108 -0.3310 -0.6834
  143MOL0     C18765   8.194   6.815   9.129  0.0770 -0.4905  0.3468
  143MOL0     C18766   8.343   6.841   9.165 -0.6553  0.4761  0.2027
  143MOL0     C18767   8.413   6.720   9.213 -0.3935  0.3449  0.1721
  143MOL0     O18768   8.555   6.729   9.220  0.4799 -0.7339  0.1965
  143MOL0     C18769   8.617   6.722   9.347  0.0024 -0.5914 -0.4263
  143MOL0     C18770   8.736   6.784   9.356  0.4627 -1.0301 -0.6540
  143MOL0     C18771   8.797   6.809   9.483 -0.1128 -0.0108 -0.5004
  143MOL0     C18772   8.722   6.764   9.594  0.4581  0.0543 -0.2276
  143MOL0     C18773   8.774   6.785   9.734  0.6403 -0.2401 -0.5443
  143MOL0     O18774   8.885   6.861   9.743 -0.6919  0.4819  0.3010
  143MOL0     C18775   8.941   6.888   9.868 -0.4320  0.1516  0.3734
  143MOL0     C18776   8.862   6.916   9.980  0.0846 -0.4968  0.1741
  143MOL0     C18777   8.934   6.937  10.104 -0.5005 -0.4453  0.1825
  143MOL0     C18778   9.074   6.918  10.108 -0.7492  0.1317  0.6266
  143MOL0     O18779   9.148   6.943  10.215  0.9127  0.1993 -0.0384
  143MOL0     C18780   9.162   7.072  10.271 -0.6459 -0.3565  0.2239
  143MOL0     C18781   9.174   7.196  10.174 -0.1417 -0.0172 -0.7533
  143MOL0     C18782   9.231   7.313  10.253 -0.1870 -0.3622  0.9852
  143MOL0     C18783   9.260   7.433  10.161 -0.7080 -0.5485  0.2438
  143MOL0     C18784   9.369   7.532  10.220  0.1192 -0.5717  0.2761
  143MOL0     C18785   9.322   7.625  10.326  0.7397  0.3558 -0.5951
  143MOL0     C18786   9.279   7.748  10.267  0.3281 -0.8628  0.2660
  143MOL0     C18787   9.239   7.853  10.370  0.7505 -0.4352  0.0009
  143MOL0    Cl18788   9.098   7.791  10.451 -0.3137 -0.3870 -0.4245
  143MOL0     C18789   9.143   6.890   9.995 -0.2273  0.0887 -1.0155
  143MOL0     C18790   9.080   6.877   9.870 -0.6112 -0.2498  0.1160
  143MOL0     O18791   8.722   6.725   9.827  0.2672 -0.7202  0.2781
  143MOL0     C18792   8.600   6.695   9.577 -0.8095  0.3897 -0.1523
  143MOL0     C18793   8.552   6.663   9.454 -0.1317 -0.7271  0.3240
  143MOL0     N18794   7.886   6.867   9.109  0.7951 -0.1421  0.1926
  143MOL0     N18795   7.772   6.901   9.059 -0.0473 -0.0328  0.0450
  143MOL0     C18796   6.943   6.872   9.017 -0.7723 -0.1727  1.1562
  143MOL0     C18797   6.863   6.756   9.047 -0.7012 -0.4058  0.3261
  143MOL0     C18798   6.698   6.379   9.113 -0.0299 -0.5880 -1.6816
  143MOL0     C18799   6.682   6.258   9.044 -0.1260 -0.4562  0.2477
  143MOL0     C18800   6.578   6.178   9.080  0.3694  0.6715 -0.9906
  143MOL0     C18801   6.486   6.208   9.189  0.1135 -0.4081  0.6557
  143MOL0     O18802   6.399   6.113   9.223 -0.3502  0.0757 -0.6267
  143MOL0     C18803   6.281   6.141   9.294  0.9244  0.1348  0.4003
  143MOL0     C18804   6.191   6.018   9.286  0.1906  0.0841 -0.8786
  143MOL0     C18805   6.110   6.016   9.155 -0.2187 -0.0448 -0.1144
  143MOL0     C18806   5.986   6.103   9.137 -0.7003 -0.2360  0.0021
  143MOL0     C18807   5.878   6.050   9.222 -0.8817 -0.5094 -0.3192
  143MOL0     C18808   5.796   5.987   9.276  0.4501 -0.6358 -0.2838
  143MOL0     C18809   6.507   6.330   9.253 -0.4529 -0.2314  0.2598
  143MOL0     C18810   6.609   6.418   9.214  0.9154 -0.7180  0.0534
  143MOL0     H18811   7.052   6.638   9.306  0.1251 -1.5489 -0.4262
  143MOL0     H18812   7.184   6.829   9.253  2.4918 -0.7209 -3.2356
  143MOL0     H18813   7.009   7.130   9.192  0.9237 -2.4106  0.1282
  143MOL0     H18814   6.997   7.168   9.022  0.3798 -0.2353 -0.8087
  143MOL0     H18815   7.143   7.347   9.144  0.3583  0.6982  1.3238
  143MOL0     H18816   7.190   7.271   8.988  2.3696 -2.9002  0.1153
  143MOL0     H18817   7.340   7.116   9.078  0.5431 -0.7275  1.0235
  143MOL0     H18818   7.315   7.182   9.248 -1.5144  0.8526 -0.9177
  143MOL0     H18819   7.407   7.312   8.987 -0.8488  2.6956 -0.0202
  143MOL0     H18820   7.369   7.417   9.131 -2.0717 -1.4102  1.1263
  143MOL0     H18821   7.546   7.338   9.257 -0.7442 -0.5488  0.1436
  143MOL0     H18822   7.607   7.416   9.119 -0.3877  0.2838  0.8048
  143MOL0     H18823   7.573   7.107   9.124  1.0733 -1.1877  0.8534
  143MOL0     H18824   7.727   7.198   9.156  0.3684  0.3187 -1.8486
  143MOL0     H18825   7.568   7.223   8.888 -0.0159 -0.8263 -0.2974
  143MOL0     H18826   7.728   7.280   8.924 -2.6376  1.9085 -0.0883
  143MOL0     H18827   7.714   7.073   8.779  1.4400  3.2981  0.9384
  143MOL0     H18828   7.599   7.018   8.881  0.0523 -0.0792 -4.1236
  143MOL0     H18829   7.996   7.099   8.907  1.7033 -2.7260  0.0031
  143MOL0     H18830   8.145   7.004   9.195  1.3057 -0.2013 -0.9550
  143MOL0     H18831   8.186   7.001   9.021  1.9785 -2.0108 -0.3969
  143MOL0     H18832   8.189   6.762   9.034  0.0030 -3.1080  1.7263
  143MOL0     H18833   8.148   6.744   9.198 -0.0656 -0.4327  0.3137
  143MOL0     H18834   8.405   6.864   9.079  0.1170 -1.9569  0.0289
  143MOL0     H18835   8.353   6.921   9.239 -0.2542 -0.2102  0.9006
  143MOL0     H18836   8.382   6.650   9.134  0.1911  0.9266 -0.5820
  143MOL0     H18837   8.362   6.695   9.306  0.4556  0.5277  0.6916
  143MOL0     H18838   8.789   6.821   9.268 -2.1445  0.8225 -1.5846
  143MOL0     H18839   8.895   6.853   9.477 -0.6118  1.2817  0.4926
  143MOL0     H18840   8.754   6.924   9.970  0.1990 -0.9484 -1.8597
  143MOL0     H18841   8.882   6.958  10.197 -2.3570  2.0461 -1.2900
  143MOL0     H18842   9.242   7.063  10.345 -1.3163  2.3109  1.3684
  143MOL0     H18843   9.074   7.091  10.333 -0.6260  1.9360 -0.3778
  143MOL0     H18844   9.081   7.226  10.126 -1.6147 -2.3771  0.4121
  143MOL0     H18845   9.241   7.167  10.093 -1.1548  2.8824 -2.7856
  143MOL0     H18846   9.324   7.280  10.301 -1.0889 -1.9745  1.7313
  143MOL0     H18847   9.166   7.337  10.338 -1.4066 -0.0891  0.0087
  143MOL0     H18848   9.302   7.391  10.069  2.8434  1.8143  0.6088
  143MOL0     H18849   9.172   7.489  10.127  0.5174  0.5818 -1.2182
  143MOL0     H18850   9.404   7.591  10.135  0.2256 -2.5178 -1.0931
  143MOL0     H18851   9.439   7.470  10.277 -0.5090 -3.1196 -1.5259
  143MOL0     H18852   9.403   7.653  10.393  0.9486 -3.5041  1.0034
  143MOL0     H18853   9.249   7.570  10.386  0.9325  2.2211  1.4675
  143MOL0     H18854   9.366   7.786  10.212 -0.7058 -0.0727 -0.8991
  143MOL0     H18855   9.195   7.722  10.202  0.1696  1.9488 -0.7992
  143MOL0     H18856   9.217   7.944  10.314  0.7627 -2.1747 -3.0513
  143MOL0     H18857   9.319   7.873  10.441  0.0234 -0.3798  0.8241
  143MOL0     H18858   9.251   6.886  10.002 -0.0399  1.5229 -2.4185
  143MOL0     H18859   9.130   6.864   9.775 -1.0609  1.5219 -0.3968
  143MOL0     H18860   8.552   6.668   9.670 -1.2984  3.2033  0.4902
  143MOL0     H18861   8.468   6.595   9.443  3.0832 -4.6663 -2.8246
  143MOL0     H18862   6.917   6.932   8.930 -0.0716 -0.9797  0.3635
  143MOL0     H18863   6.775   6.734   8.988 -1.9461  2.0998  1.1002
  143MOL0     H18864   6.757   6.234   8.969 -0.3964 -1.3325  0.2488
  143MOL0     H18865   6.574   6.078   9.037 -0.9946 -0.6539  1.9669
  143MOL0     H18866   6.232   6.230   9.253  1.3680  0.6008  0.8554
  143MOL0     H18867   6.296   6.164   9.400 -0.1981 -4.5343  1.8012
  143MOL0     H18868   6.253   5.929   9.301 -2.7007 -1.9817 -0.4759
  143MOL0     H18869   6.125   6.014   9.373  2.3408 -0.9549  0.8061
  143MOL0     H18870   6.082   5.911   9.151  3.2169 -1.0669 -2.6490
  143MOL0     H18871   6.186   6.038   9.079 -1.0749 -2.1748 -1.6628
  143MOL0     H18872   6.000   6.210   9.158  1.0981 -0.1053 -1.6384
  143MOL0     H18873   5.959   6.096   9.031  0.9343 -0.3583 -0.4278
  143MOL0     H18874   5.713   5.946   9.330  0.3155  1.0505  0.8828
  143MOL0     H18875   6.458   6.367   9.342  1.1994  2.8881  0.0362
  143MOL0     H18876   6.617   6.518   9.255  2.4324 -0.6139 -0.4392
  144MOL0     O18877   7.025   8.356   5.155  0.5226  0.6260  0.2012
  144MOL0     C18878   7.126   8.403   5.206  0.6379 -0.4932 -0.0561
  144MOL0     O18879   7.252   8.375   5.162  0.3139  0.0460  0.0074
  144MOL0     C18880   7.278   8.326   5.042  0.0341  0.1012  0.9680
  144MOL0     C18881   7.228   8.196   5.001 -0.5321 -0.5423 -0.4437
  144MOL0     C18882   7.277   8.140   4.887  0.5583  0.2754  0.6862
  144MOL0     C18883   7.375   8.200   4.812 -0.0475 -1.2620 -0.1055
  144MOL0     O18884   7.420   8.141   4.694  0.1506 -0.1298 -0.6092
  144MOL0     C18885   7.556   8.114   4.680 -0.1470  0.2093  0.8579
  144MOL0     C18886   7.580   8.083   4.528 -0.1793 -0.7090  0.1000
  144MOL0     C18887   7.484   7.989   4.469  0.2427  0.0542 -0.4301
  144MOL0     C18888   7.494   7.853   4.533 -0.5859 -0.1676 -0.3501
  144MOL0     C18889   7.401   7.774   4.445  0.7367  0.6732  0.2499
  144MOL0     C18890   7.432   7.622   4.454  0.0404  0.6143  0.8093
  144MOL0     C18891   7.343   7.539   4.366 -0.0899 -0.4603  0.2598
  144MOL0     C18892   7.384   7.391   4.357  0.3078  0.8347  0.1185
  144MOL0     N18893   7.509   7.365   4.283  0.3487  0.2100  0.2058
  144MOL0     C18894   7.622   7.306   4.327 -0.3274 -0.0375 -0.1905
  144MOL0     C18895   7.705   7.270   4.227 -0.2471  0.1166 -0.2860
  144MOL0     C18896   7.839   7.206   4.232  0.8254  0.5590 -0.7093
  144MOL0     C18897   7.947   7.301   4.190 -0.4937  0.4082  0.0098
  144MOL0     C18898   8.079   7.251   4.239 -1.1817  0.5799  0.0091
  144MOL0     C18899   8.202   7.313   4.181 -0.3254 -0.0083 -0.1806
  144MOL0     O18900   8.325   7.249   4.230 -0.0486  0.7025  0.6083
  144MOL0     C18901   8.427   7.329   4.271  0.8580  0.3446 -0.2374
  144MOL0     C18902   8.417   7.437   4.361 -0.1403  0.3885  0.4842
  144MOL0     C18903   8.537   7.500   4.405 -0.8313  0.5416  0.4892
  144MOL0     C18904   8.663   7.462   4.351  0.5649  0.3213  0.2796
  144MOL0     C18905   8.784   7.533   4.394 -0.6455  0.1806  0.3658
  144MOL0     O18906   8.902   7.473   4.358 -0.5185  0.2342 -1.1080
  144MOL0     C18907   9.013   7.530   4.419 -0.4819  0.2866 -0.1297
  144MOL0     C18908   9.072   7.649   4.370  0.3091  0.1254 -0.4639
  144MOL0     C18909   9.172   7.715   4.431  0.6281 -0.0575 -0.0330
  144MOL0     C18910   9.232   7.656   4.542  0.4842  0.5970  0.0931
  144MOL0     O18911   9.336   7.718   4.614  0.2965  0.3088  0.3637
  144MOL0     C18912   9.404   7.832   4.559 -1.4867  0.2438  1.3624
  144MOL0     C18913   9.539   7.874   4.637 -0.4535  0.1420 -0.0639
  144MOL0     C18914   9.580   8.018   4.606  0.0271 -0.4054  0.1042
  144MOL0     C18915   9.715   8.045   4.657  0.1590 -0.5847 -0.3751
  144MOL0     C18916   9.771   8.161   4.578  0.0365  0.4903  0.1147
  144MOL0     C18917   9.682   8.283   4.561  0.5050  0.2295  0.0495
  144MOL0     C18918   9.764   8.369   4.459  0.5255 -0.1595 -0.6283
  144MOL0     C18919   9.704   8.513   4.462 -0.7503  1.0803 -0.2666
  144MOL0    Cl18920   9.808   8.615   4.362 -0.1780  0.5528  0.4195
  144MOL0     C18921   9.187   7.527   4.588 -0.3377  0.0831  0.3656
  144MOL0     C18922   9.073   7.468   4.524 -0.2663 -0.0171  0.2922
  144MOL0     O18923   8.771   7.642   4.464  0.3471  0.6153  0.2383
  144MOL0     C18924   8.668   7.355   4.257 -0.4745  0.2940 -1.0136
  144MOL0     C18925   8.550   7.284   4.230 -0.1711 -0.5637  0.2756
  144MOL0     N18926   7.636   7.316   4.114  0.7484 -0.2097 -0.2706
  144MOL0     N18927   7.525   7.366   4.146  0.4721  0.0874  0.0892
  144MOL0     C18928   7.437   8.321   4.857  0.4731 -0.9924 -0.3635
  144MOL0     C18929   7.385   8.383   4.970 -0.9584  0.7960 -0.5823
  144MOL0     C18930   7.109   8.462   5.342  1.0178  0.4450 -0.4392
  144MOL0     C18931   6.977   8.511   5.372 -0.5302  0.3277  0.0805
  144MOL0     C18932   6.965   8.591   5.492 -0.2238 -0.1945 -0.4195
  144MOL0     C18933   7.075   8.600   5.577 -0.9988  0.7528  0.3233
  144MOL0     O18934   7.066   8.667   5.694  0.0361 -0.6894 -0.6971
  144MOL0     C18935   7.158   8.775   5.707 -0.9689 -0.3689 -0.2081
  144MOL0     C18936   7.107   8.902   5.779  0.2200  0.9002  0.2405
  144MOL0     C18937   7.009   8.868   5.898  0.7717 -0.3873  0.6418
  144MOL0     C18938   6.860   8.853   5.867 -0.0195  0.0410 -0.0210
  144MOL0     C18939   6.797   8.984   5.842 -0.1910  0.7776 -0.1738
  144MOL0     C18940   6.763   9.097   5.821  0.6371  0.0373  1.0361
  144MOL0     C18941   7.203   8.553   5.539 -0.4237  1.3891 -0.1616
  144MOL0     C18942   7.223   8.484   5.421 -0.2416 -0.2840  1.6559
  144MOL0     H18943   7.152   8.147   5.061  0.3334  1.3757  2.4151
  144MOL0     H18944   7.227   8.048   4.857 -0.7633  1.8016 -2.1939
  144MOL0     H18945   7.571   8.025   4.742 -4.8280 -1.1182  0.5099
  144MOL0     H18946   7.612   8.200   4.719 -2.4226  1.7823  0.8642
  144MOL0     H18947   7.680   8.039   4.521  0.8921  1.7504 -2.2696
  144MOL0     H18948   7.590   8.181   4.480  0.8039 -0.9547 -0.2300
  144MOL0     H18949   7.517   7.977   4.365 -2.2718 -4.8345 -0.9481
  144MOL0     H18950   7.380   8.023   4.468  0.4043  0.6990  1.1933
  144MOL0     H18951   7.597   7.817   4.535 -0.6152 -0.2176  1.0451
  144MOL0     H18952   7.461   7.854   4.637  1.1631  0.9356  0.2406
  144MOL0     H18953   7.417   7.799   4.340  0.4774 -2.8882 -0.7796
  144MOL0     H18954   7.294   7.788   4.466  0.2395 -2.7178  0.6807
  144MOL0     H18955   7.425   7.571   4.550  0.1443 -1.4818 -0.2351
  144MOL0     H18956   7.534   7.612   4.417  0.2217 -0.6615  1.6045
  144MOL0     H18957   7.243   7.557   4.408  0.6952  1.9849  1.2379
  144MOL0     H18958   7.322   7.582   4.268 -0.5582 -2.1403 -0.4158
  144MOL0     H18959   7.308   7.336   4.301  1.4229  0.9725 -1.5772
  144MOL0     H18960   7.389   7.330   4.448 -1.3294 -2.2752 -1.7321
  144MOL0     H18961   7.641   7.286   4.432 -0.4109 -2.0836 -0.5384
  144MOL0     H18962   7.839   7.114   4.171 -0.5419 -0.3960  0.6586
  144MOL0     H18963   7.862   7.177   4.335  3.0102  1.9055 -0.7702
  144MOL0     H18964   7.934   7.397   4.241 -0.2189  1.0826 -1.1539
  144MOL0     H18965   7.961   7.330   4.085 -1.9265  0.3788 -0.2095
  144MOL0     H18966   8.088   7.285   4.343 -0.7535 -0.9892  0.5106
  144MOL0     H18967   8.096   7.145   4.223 -0.0973  0.9252 -1.2481
  144MOL0     H18968   8.215   7.420   4.203  2.1320  1.1498 -5.6087
  144MOL0     H18969   8.204   7.308   4.072  0.3733 -2.1408 -0.1112
  144MOL0     H18970   8.324   7.473   4.405  0.3326  0.4714  1.4497
  144MOL0     H18971   8.539   7.576   4.483  2.1917  0.5030  0.5755
  144MOL0     H18972   9.022   7.696   4.286 -0.6559 -0.5483 -0.2872
  144MOL0     H18973   9.199   7.815   4.401  3.5066 -0.6768  0.2371
  144MOL0     H18974   9.335   7.917   4.559 -4.1113 -1.7625  0.0817
  144MOL0     H18975   9.439   7.813   4.457  3.0288  2.0378  2.3526
  144MOL0     H18976   9.619   7.807   4.603 -0.6752  0.1595 -0.6297
  144MOL0     H18977   9.529   7.862   4.745  2.2739 -0.0548  0.2311
  144MOL0     H18978   9.505   8.086   4.648 -1.2730 -2.4213  1.2256
  144MOL0     H18979   9.566   8.024   4.497 -1.3458 -1.9517  0.1547
  144MOL0     H18980   9.696   8.083   4.758 -1.9070  1.7020 -1.5149
  144MOL0     H18981   9.790   7.966   4.663  1.6090  0.7797  0.4081
  144MOL0     H18982   9.806   8.114   4.486 -0.9066 -1.7340  0.8116
  144MOL0     H18983   9.868   8.182   4.624  0.1736 -3.1977  1.8539
  144MOL0     H18984   9.661   8.327   4.659 -0.3066 -3.8986  1.9259
  144MOL0     H18985   9.584   8.266   4.515  0.0804 -0.9535  1.3224
  144MOL0     H18986   9.867   8.378   4.493  1.0198 -0.7840 -1.8631
  144MOL0     H18987   9.766   8.320   4.361  1.0854 -2.1035  0.3139
  144MOL0     H18988   9.719   8.546   4.565 -3.4318  0.9470  0.2382
  144MOL0     H18989   9.601   8.500   4.429 -0.7787 -0.3168  0.3048
  144MOL0     H18990   9.213   7.469   4.676  4.8702 -2.4890 -2.4291
  144MOL0     H18991   9.041   7.370   4.559 -0.7028  0.4918  1.3639
  144MOL0     H18992   8.760   7.334   4.204  0.5130  4.5739 -1.3730
  144MOL0     H18993   8.564   7.200   4.162 -2.6826 -0.0395 -1.0087
  144MOL0     H18994   7.497   8.371   4.783  0.8040 -0.2729  0.3823
  144MOL0     H18995   7.426   8.475   5.011 -0.1338  0.2302 -0.0960
  144MOL0     H18996   6.888   8.496   5.312 -0.1370 -1.1249 -0.1867
  144MOL0     H18997   6.869   8.632   5.521 -0.6974 -3.3950  3.3024
  144MOL0     H18998   7.221   8.799   5.621  1.6467 -1.2091  1.3608
  144MOL0     H18999   7.241   8.747   5.773 -0.9216 -0.2568 -0.2185
  144MOL0     H19000   7.193   8.966   5.798 -0.1153  2.1505 -2.1369
  144MOL0     H19001   7.048   8.966   5.714 -0.9419 -0.9541 -0.6129
  144MOL0     H19002   7.022   8.951   5.968  0.5665  1.5451 -1.5026
  144MOL0     H19003   7.046   8.779   5.949 -1.9930 -2.4559 -0.7246
  144MOL0     H19004   6.841   8.786   5.783  0.6974  0.7780 -0.7868
  144MOL0     H19005   6.822   8.809   5.960  1.1650 -0.1295  0.4056
  144MOL0     H19006   6.731   9.199   5.815  0.0096 -0.2006  0.0773
  144MOL0     H19007   7.283   8.574   5.609 -0.7240  1.8328  0.0475
  144MOL0     H19008   7.325   8.470   5.389 -0.6498  1.4397 -0.6789
  145MOL0     O19009   4.014   2.830   3.448  0.8679  0.0066  0.7333
  145MOL0     C19010   3.981   2.845   3.562 -0.0334  0.0834  0.8165
  145MOL0     O19011   4.060   2.909   3.653 -0.0643 -0.2850  0.3653
  145MOL0     C19012   4.198   2.943   3.621  0.4377 -0.8111 -0.2136
  145MOL0     C19013   4.275   2.863   3.544 -0.1879  0.2877 -0.3870
  145MOL0     C19014   4.400   2.911   3.498 -0.4364 -0.2673 -0.8416
  145MOL0     C19015   4.446   3.041   3.541 -0.0488 -0.0829 -0.5598
  145MOL0     O19016   4.568   3.091   3.498  0.5612 -0.6329 -0.4930
  145MOL0     C19017   4.681   3.012   3.508 -0.3476 -0.5712 -0.1941
  145MOL0     C19018   4.796   3.103   3.481 -0.0889  0.9493  0.4075
  145MOL0     C19019   4.930   3.027   3.464 -0.2544 -0.8341 -1.1500
  145MOL0     C19020   4.976   2.992   3.316 -0.4864 -0.2338 -0.4776
  145MOL0     C19021   5.112   2.930   3.314  0.7555  0.3286  0.5217
  145MOL0     C19022   5.141   2.888   3.166 -0.5716  0.3337  0.7248
  145MOL0     C19023   5.276   2.809   3.133  1.6777 -0.9452  0.2076
  145MOL0     C19024   5.412   2.875   3.162  0.1089  0.5392  0.4361
  145MOL0     N19025   5.406   3.016   3.140 -1.2634  0.0011  0.6266
  145MOL0     C19026   5.414   3.112   3.226 -0.8909 -0.0772 -0.0648
  145MOL0     C19027   5.424   3.229   3.148  0.5822  0.2185 -0.7033
  145MOL0     C19028   5.444   3.372   3.196 -0.7980  0.2839  0.4048
  145MOL0     C19029   5.328   3.466   3.198 -0.0466 -0.7186  0.0668
  145MOL0     C19030   5.202   3.407   3.258  0.6264  0.0416  0.7416
  145MOL0     C19031   5.192   3.402   3.405  0.3853  0.1058 -0.0319
  145MOL0     O19032   5.271   3.297   3.463 -0.1233  0.1562  0.5224
  145MOL0     C19033   5.270   3.290   3.595  0.2329  0.2019 -0.4856
  145MOL0     C19034   5.205   3.371   3.693 -0.1460  0.3096  0.9383
  145MOL0     C19035   5.216   3.349   3.827  0.0508  0.6043 -0.7511
  145MOL0     C19036   5.309   3.252   3.875 -0.5426  0.5087 -0.4859
  145MOL0     C19037   5.352   3.249   4.015  0.0745 -0.8814  1.2800
  145MOL0     O19038   5.263   3.314   4.105  0.3403  0.4441 -0.3805
  145MOL0     C19039   5.307   3.310   4.236 -0.6710 -0.9068 -0.5207
  145MOL0     C19040   5.412   3.400   4.275 -0.2470  0.4798 -0.8413
  145MOL0     C19041   5.449   3.414   4.411  0.5760  0.6761  0.0978
  145MOL0     C19042   5.377   3.345   4.517  0.1617  0.4056 -0.4891
  145MOL0     O19043   5.429   3.364   4.646  0.5073 -0.0581 -0.2835
  145MOL0     C19044   5.339   3.306   4.741  0.5265 -0.0330  0.7132
  145MOL0     C19045   5.375   3.336   4.885 -0.2937 -0.2092  0.5015
  145MOL0     C19046   5.269   3.285   4.977 -0.1570  0.9347 -0.0167
  145MOL0     C19047   5.320   3.315   5.122 -0.0370 -0.5729  0.1760
  145MOL0     C19048   5.307   3.463   5.162 -0.0960  0.6874 -0.5663
  145MOL0     C19049   5.361   3.473   5.304  0.3749 -1.1173 -0.6046
  145MOL0     C19050   5.341   3.613   5.348  0.6236 -0.7425 -0.9260
  145MOL0     C19051   5.402   3.648   5.497 -0.3967 -0.4967  0.4272
  145MOL0    Cl19052   5.284   3.583   5.621 -0.0558 -0.2517 -0.5084
  145MOL0     C19053   5.273   3.262   4.471 -0.3248  0.2213 -0.0507
  145MOL0     C19054   5.230   3.250   4.338 -1.2734  1.2439 -0.4099
  145MOL0     O19055   5.450   3.184   4.037 -0.5877 -1.0876  0.4011
  145MOL0     C19056   5.376   3.178   3.777 -0.3399 -0.2034  0.2723
  145MOL0     C19057   5.350   3.188   3.644 -0.0258  0.7216 -0.2689
  145MOL0     N19058   5.406   3.194   3.013  0.1334  0.8921 -1.0128
  145MOL0     N19059   5.405   3.063   3.009  0.0747 -0.7144 -0.0569
  145MOL0     C19060   4.358   3.135   3.610 -0.5117  0.1444 -0.0909
  145MOL0     C19061   4.226   3.085   3.644 -0.2603 -0.6363 -0.4271
  145MOL0     C19062   3.830   2.838   3.593 -0.7971  0.0630  0.5677
  145MOL0     C19063   3.780   2.884   3.714  0.8781  0.2435 -0.5072
  145MOL0     C19064   3.639   2.868   3.740 -0.5170  0.6477 -1.0882
  145MOL0     C19065   3.553   2.817   3.638 -0.8609  0.7003 -0.3302
  145MOL0     O19066   3.417   2.804   3.664  0.7619  0.1286  0.1527
  145MOL0     C19067   3.386   2.692   3.747 -0.4611 -0.2044  0.3405
  145MOL0     C19068   3.235   2.682   3.779 -0.2718 -0.3521  0.6644
  145MOL0     C19069   3.210   2.584   3.893  0.6481 -0.7812 -0.7820
  145MOL0     C19070   3.254   2.643   4.025 -1.0076 -0.3404 -0.1515
  145MOL0     C19071   3.268   2.530   4.118 -0.6759  0.1919 -0.4290
  145MOL0     C19072   3.295   2.424   4.179 -0.5570 -0.7875 -0.2626
  145MOL0     C19073   3.607   2.785   3.514  0.0201  0.4012 -0.6071
  145MOL0     C19074   3.747   2.789   3.496 -0.7489 -1.2398 -0.0454
  145MOL0     H19075   4.228   2.769   3.515  0.3656 -0.3176  0.6384
  145MOL0     H19076   4.463   2.859   3.426  1.4615  1.5935 -0.6266
  145MOL0     H19077   4.670   2.932   3.435 -0.3630 -2.9764  2.2666
  145MOL0     H19078   4.678   2.977   3.612 -0.3909 -0.2405 -0.0817
  145MOL0     H19079   4.806   3.168   3.569 -1.0564  0.5806  0.8064
  145MOL0     H19080   4.771   3.161   3.392  2.4526 -3.0870 -3.3817
  145MOL0     H19081   4.925   2.944   3.535 -2.6232  0.4165  0.2600
  145MOL0     H19082   5.001   3.093   3.515  0.5035 -1.0160 -1.9363
  145MOL0     H19083   4.913   2.916   3.271  3.1085 -4.4787  0.9350
  145MOL0     H19084   4.969   3.080   3.251 -1.9798  0.4415  0.5409
  145MOL0     H19085   5.120   2.840   3.375  0.8175  0.4418  0.6812
  145MOL0     H19086   5.181   3.008   3.347  1.1701  0.6000 -0.9240
  145MOL0     H19087   5.142   2.976   3.101 -0.4152  0.4391  0.8684
  145MOL0     H19088   5.052   2.836   3.129 -1.9799  3.6704 -0.9552
  145MOL0     H19089   5.274   2.717   3.192 -1.5832 -0.9791  0.2272
  145MOL0     H19090   5.267   2.792   3.025 -2.1113  2.4471 -0.2871
  145MOL0     H19091   5.483   2.825   3.096 -1.6897 -2.6707  0.7861
  145MOL0     H19092   5.434   2.848   3.266  1.5171  0.4963  0.1537
  145MOL0     H19093   5.432   3.115   3.333  1.7466  0.2923 -0.4545
  145MOL0     H19094   5.517   3.419   3.130  1.5754  2.0024  3.9269
  145MOL0     H19095   5.501   3.373   3.290  3.2533  1.7310 -1.8008
  145MOL0     H19096   5.321   3.505   3.096  0.6398  0.8606  0.5983
  145MOL0     H19097   5.361   3.552   3.256  2.6494 -2.6941  1.6823
  145MOL0     H19098   5.123   3.471   3.216  1.4143  0.0588 -0.7968
  145MOL0     H19099   5.172   3.311   3.216 -1.4722  0.6865  0.6492
  145MOL0     H19100   5.087   3.383   3.432  0.3247 -1.5391 -1.2652
  145MOL0     H19101   5.227   3.499   3.441  2.9665 -0.1860 -1.5063
  145MOL0     H19102   5.146   3.456   3.662  1.8698  0.6594 -2.5027
  145MOL0     H19103   5.160   3.408   3.899 -2.2575  0.1777 -2.1051
  145MOL0     H19104   5.457   3.451   4.190 -1.3799 -0.8951 -2.3313
  145MOL0     H19105   5.533   3.477   4.438  0.1787  2.7431 -2.9280
  145MOL0     H19106   5.321   3.199   4.725  2.4527 -0.2044 -0.6639
  145MOL0     H19107   5.255   3.376   4.733  3.2814  3.5270  0.5982
  145MOL0     H19108   5.382   3.445   4.885  0.8954 -0.1868 -2.1534
  145MOL0     H19109   5.462   3.284   4.926  1.4734  0.8933 -1.6309
  145MOL0     H19110   5.266   3.177   4.962 -2.5480  0.6193  1.9349
  145MOL0     H19111   5.177   3.343   4.971  0.0924  1.4273  0.7275
  145MOL0     H19112   5.270   3.250   5.194  0.0850 -2.1332 -1.0768
  145MOL0     H19113   5.426   3.290   5.127  0.8364  2.6853 -0.0398
  145MOL0     H19114   5.202   3.494   5.163 -0.5527 -0.0353  4.8948
  145MOL0     H19115   5.367   3.531   5.101 -0.0608  2.8921  1.7538
  145MOL0     H19116   5.468   3.449   5.299  0.0355 -2.3958 -2.6244
  145MOL0     H19117   5.317   3.399   5.371 -0.0292  0.5457  1.0661
  145MOL0     H19118   5.388   3.672   5.269  0.5206 -2.7804 -2.6034
  145MOL0     H19119   5.234   3.631   5.361  0.9290 -0.1990  1.2773
  145MOL0     H19120   5.426   3.754   5.507 -4.6276  0.5547  1.6634
  145MOL0     H19121   5.498   3.597   5.508  0.3783 -0.2055 -3.5053
  145MOL0     H19122   5.219   3.206   4.547  2.1874  1.7622  3.1183
  145MOL0     H19123   5.144   3.190   4.309 -0.5245 -0.6522  1.0833
  145MOL0     H19124   5.454   3.108   3.801 -1.4761 -2.6617 -2.6058
  145MOL0     H19125   5.405   3.129   3.571 -0.6361 -0.1143 -0.0719
  145MOL0     H19126   4.388   3.232   3.648 -0.1472  0.3173 -0.7932
  145MOL0     H19127   4.164   3.152   3.704  0.1856 -0.9115  0.3520
  145MOL0     H19128   3.833   2.919   3.802 -0.3061 -1.2683  0.8777
  145MOL0     H19129   3.584   2.899   3.829  0.5171 -0.5142 -0.0025
  145MOL0     H19130   3.434   2.718   3.841 -1.3964  2.5556  0.1373
  145MOL0     H19131   3.434   2.600   3.711  1.1942  0.2324  1.3303
  145MOL0     H19132   3.192   2.782   3.795 -0.9859 -0.0142 -2.7158
  145MOL0     H19133   3.193   2.635   3.690 -2.4208 -1.1721  2.0422
  145MOL0     H19134   3.262   2.491   3.868 -3.7244 -3.7845  0.1133
  145MOL0     H19135   3.103   2.564   3.899  0.3058  0.8858 -0.8556
  145MOL0     H19136   3.355   2.685   4.026  0.0305 -2.5303  3.0472
  145MOL0     H19137   3.178   2.711   4.065 -2.0210 -0.4922 -1.7061
  145MOL0     H19138   3.318   2.324   4.211 -1.4697 -0.7686  0.4842
  145MOL0     H19139   3.530   2.755   3.444 -0.4333  1.3320 -0.5267
  145MOL0     H19140   3.796   2.748   3.408  0.2116  0.6840 -0.4861
  146MOL0     O19141   0.905  11.204   4.124 -0.0467  1.0843  0.1931
  146MOL0     C19142   1.004  11.191   4.192 -0.5249 -1.0385 -0.2645
  146MOL0     O19143   1.114  11.115   4.166  0.5920 -0.3660  0.2316
  146MOL0     C19144   1.121  11.006   4.079 -0.1471 -0.2310 -0.1585
  146MOL0     C19145   1.044  10.982   3.962 -0.5760 -0.4494 -0.5976
  146MOL0     C19146   1.077  10.878   3.869 -0.1527  0.3427 -0.2158
  146MOL0     C19147   1.178  10.789   3.908 -0.4742  0.2950 -0.2716
  146MOL0     O19148   1.227  10.690   3.827  0.1169 -0.0706 -0.2829
  146MOL0     C19149   1.256  10.557   3.887 -0.1508 -1.0634 -0.3264
  146MOL0     C19150   1.331  10.492   3.767  0.7715 -0.1777  0.6687
  146MOL0     C19151   1.462  10.560   3.733  0.2673  0.3060  0.6242
  146MOL0     C19152   1.548  10.471   3.636 -0.7141 -0.2058  0.3612
  146MOL0     C19153   1.696  10.505   3.616 -0.0597  0.3623 -0.3229
  146MOL0     C19154   1.744  10.475   3.474 -0.0879  0.0614  0.6639
  146MOL0     C19155   1.775  10.321   3.444 -0.7285 -0.1186  0.2466
  146MOL0     C19156   1.823  10.322   3.291 -0.0920  0.3082 -0.1143
  146MOL0     N19157   1.846  10.185   3.243 -0.5641 -0.0952  0.4936
  146MOL0     C19158   1.966  10.156   3.182 -0.2634 -0.2729 -0.9129
  146MOL0     C19159   1.963  10.029   3.166 -0.2140  1.0558 -0.3659
  146MOL0     C19160   2.085   9.941   3.138  0.3508 -0.6137 -0.0380
  146MOL0     C19161   2.130   9.862   3.264 -0.7254  0.3842  0.4259
  146MOL0     C19162   2.059   9.730   3.274  0.5068  0.8752 -0.4696
  146MOL0     C19163   2.089   9.653   3.411 -0.6392  0.1011 -0.4156
  146MOL0     O19164   2.229   9.640   3.428  0.2074 -0.3413 -0.0292
  146MOL0     C19165   2.277   9.577   3.537 -0.0276 -0.3952  1.1275
  146MOL0     C19166   2.207   9.532   3.648  1.2941  1.0904  0.5448
  146MOL0     C19167   2.273   9.475   3.754  0.3043  0.4986 -0.7839
  146MOL0     C19168   2.416   9.483   3.758 -0.3953 -0.6211 -0.6993
  146MOL0     C19169   2.487   9.455   3.887  0.9590  0.1583  0.2675
  146MOL0     O19170   2.418   9.426   3.998  0.2735  0.0326  0.0912
  146MOL0     C19171   2.494   9.420   4.109  0.5588 -0.1337  1.3762
  146MOL0     C19172   2.513   9.532   4.191  0.0251  0.0801 -0.3437
  146MOL0     C19173   2.601   9.525   4.299 -0.0415  0.1255  0.3006
  146MOL0     C19174   2.672   9.411   4.333  1.0136  0.4962 -0.2035
  146MOL0     O19175   2.774   9.413   4.429  0.8526  1.0238  0.0635
  146MOL0     C19176   2.725   9.355   4.554  0.2956  0.7920  1.0720
  146MOL0     C19177   2.838   9.367   4.659 -0.6890  0.1622  0.3540
  146MOL0     C19178   2.884   9.517   4.663 -0.0428 -0.7191  0.6830
  146MOL0     C19179   3.014   9.528   4.731  0.4127 -0.1357  0.3609
  146MOL0     C19180   3.111   9.627   4.676  0.1212 -0.0531 -0.7126
  146MOL0     C19181   3.080   9.776   4.697  0.2995 -0.0543 -0.0517
  146MOL0     C19182   3.193   9.872   4.644 -0.4159  0.6545  0.9227
  146MOL0     C19183   3.199  10.007   4.721  0.3227 -0.6221 -0.1825
  146MOL0    Cl19184   3.357  10.072   4.731  0.6399 -0.0925  0.2243
  146MOL0     C19185   2.654   9.298   4.244 -0.5671  0.0528  0.8340
  146MOL0     C19186   2.568   9.305   4.137 -0.8804  0.4044 -0.0960
  146MOL0     O19187   2.608   9.453   3.875 -0.9374 -0.1603  0.3632
  146MOL0     C19188   2.488   9.522   3.639 -0.1969  0.5298 -1.0287
  146MOL0     C19189   2.417   9.558   3.526  0.3803 -0.4933  0.7213
  146MOL0     N19190   1.835   9.985   3.205  0.6112 -0.2609  0.3652
  146MOL0     N19191   1.758  10.076   3.243  1.0001 -0.1277 -0.5971
  146MOL0     C19192   1.247  10.810   4.023  0.5992 -0.1194 -0.6119
  146MOL0     C19193   1.225  10.919   4.106 -0.4293 -0.0211 -0.9480
  146MOL0     C19194   1.006  11.250   4.338  0.0280  0.6102 -0.2926
  146MOL0     C19195   0.888  11.271   4.410 -0.9348  0.8305  0.2804
  146MOL0     C19196   0.891  11.320   4.535  0.3332  0.8903 -0.5615
  146MOL0     C19197   1.014  11.363   4.600  0.5359  0.9155  0.6154
  146MOL0     O19198   1.033  11.426   4.722 -0.1156  0.4132 -0.1073
  146MOL0     C19199   0.914  11.414   4.800 -0.9001 -0.4032  0.9950
  146MOL0     C19200   0.972  11.473   4.930  0.4354  0.0665 -0.3297
  146MOL0     C19201   0.876  11.542   5.025  0.0800 -0.0158  0.2742
  146MOL0     C19202   0.943  11.614   5.148 -0.7220  0.0268  0.6156
  146MOL0     C19203   0.862  11.629   5.272  0.1960 -0.4801 -0.4094
  146MOL0     C19204   0.810  11.650   5.381  0.2404  1.0884 -0.1373
  146MOL0     C19205   1.130  11.358   4.524 -0.0226  0.2463  0.0977
  146MOL0     C19206   1.130  11.293   4.395 -1.0560 -0.7752  0.1584
  146MOL0     H19207   0.961  11.045   3.931  0.7612  0.3902 -2.7312
  146MOL0     H19208   1.027  10.869   3.773 -1.5510 -0.8805  0.5841
  146MOL0     H19209   1.157  10.516   3.906 -1.9957  2.4990 -1.3293
  146MOL0     H19210   1.318  10.562   3.977 -0.9389  1.8236  0.1631
  146MOL0     H19211   1.268  10.501   3.678  0.1807 -1.4299  0.9502
  146MOL0     H19212   1.340  10.385   3.784 -0.5290 -0.0513  2.3237
  146MOL0     H19213   1.525  10.590   3.817 -0.5135  2.5607  0.4843
  146MOL0     H19214   1.461  10.659   3.685  1.6331  0.2834  0.5051
  146MOL0     H19215   1.541  10.370   3.678  1.2858 -0.5525 -0.0466
  146MOL0     H19216   1.491  10.465   3.543 -1.5976 -0.9124  0.9299
  146MOL0     H19217   1.766  10.466   3.690 -0.0419  3.4268  1.4529
  146MOL0     H19218   1.699  10.613   3.629 -0.2727  0.2248  1.0333
  146MOL0     H19219   1.834  10.535   3.453 -0.3215  0.3445  0.4565
  146MOL0     H19220   1.666  10.517   3.410  0.0271 -0.7458 -0.0318
  146MOL0     H19221   1.861  10.287   3.502  0.3975 -0.3083 -1.4671
  146MOL0     H19222   1.688  10.256   3.459 -2.4468  1.9548 -0.1387
  146MOL0     H19223   1.916  10.379   3.290 -0.4834  0.9571 -0.6377
  146MOL0     H19224   1.750  10.379   3.233  1.4089  0.4557 -1.9420
  146MOL0     H19225   2.052  10.223   3.178  0.1676 -0.8075 -0.7536
  146MOL0     H19226   2.156  10.011   3.093 -2.1829  1.8127 -0.5411
  146MOL0     H19227   2.063   9.883   3.047 -0.8154  1.5281 -1.2013
  146MOL0     H19228   2.132   9.931   3.349  2.2818  0.8362  0.0923
  146MOL0     H19229   2.234   9.828   3.267 -0.9881 -0.5337 -0.6086
  146MOL0     H19230   1.952   9.735   3.249  0.0607 -2.4911  0.2160
  146MOL0     H19231   2.092   9.661   3.196 -1.3911 -0.0440 -0.5339
  146MOL0     H19232   2.060   9.547   3.411 -0.8613 -0.0059  3.9280
  146MOL0     H19233   2.043   9.703   3.497 -0.3352 -0.7480  0.2595
  146MOL0     H19234   2.100   9.546   3.662  0.7179 -2.1488  0.2842
  146MOL0     H19235   2.227   9.444   3.848  1.4195  0.7158 -0.1432
  146MOL0     H19236   2.456   9.622   4.166  0.3043  0.5236  0.5634
  146MOL0     H19237   2.607   9.614   4.360 -2.9391 -0.4279  1.5933
  146MOL0     H19238   2.692   9.251   4.547 -2.4616  1.2922  4.1652
  146MOL0     H19239   2.640   9.407   4.599 -0.7925 -0.9278  1.0652
  146MOL0     H19240   2.916   9.296   4.631 -1.8036 -2.0353  2.4931
  146MOL0     H19241   2.806   9.335   4.758  0.0055  2.8601  1.5302
  146MOL0     H19242   2.810   9.583   4.709 -0.6504  1.9940 -3.6338
  146MOL0     H19243   2.887   9.561   4.563 -0.6214  0.6385  1.2405
  146MOL0     H19244   3.000   9.555   4.836 -2.6671  3.1198 -0.6866
  146MOL0     H19245   3.062   9.430   4.730 -0.5597 -0.6204 -0.9102
  146MOL0     H19246   3.126   9.600   4.571 -1.4351 -1.5539 -0.5878
  146MOL0     H19247   3.206   9.606   4.725 -0.7981 -0.0932  1.1194
  146MOL0     H19248   3.057   9.798   4.802 -0.6887 -0.1834 -0.2239
  146MOL0     H19249   2.982   9.783   4.648 -0.3494 -3.0346  0.6365
  146MOL0     H19250   3.292   9.825   4.649  0.7842  3.0203  0.8638
  146MOL0     H19251   3.179   9.890   4.537 -0.5225  0.3885  0.8912
  146MOL0     H19252   3.176   9.999   4.828  0.0397  2.7745  0.1089
  146MOL0     H19253   3.134  10.083   4.676  1.6367  1.3254  1.0663
  146MOL0     H19254   2.711   9.209   4.267 -2.6758 -1.5320  0.2135
  146MOL0     H19255   2.550   9.222   4.070  1.7363  0.1081 -0.5726
  146MOL0     H19256   2.596   9.523   3.651 -0.3897 -1.9374  2.3220
  146MOL0     H19257   2.479   9.570   3.438 -3.0562 -4.4190 -2.6684
  146MOL0     H19258   1.335  10.756   4.056  1.6600  2.2931  0.7249
  146MOL0     H19259   1.289  10.956   4.186  0.7801  1.6743 -2.6051
  146MOL0     H19260   0.802  11.229   4.358 -0.5492  1.8735 -1.2351
  146MOL0     H19261   0.798  11.332   4.590  0.3299  0.2542 -0.4134
  146MOL0     H19262   0.885  11.309   4.807 -2.0022 -0.0129  3.0224
  146MOL0     H19263   0.827  11.474   4.771  0.5769  1.3805  0.0097
  146MOL0     H19264   1.026  11.395   4.985 -2.9209 -3.0686 -1.0899
  146MOL0     H19265   1.038  11.554   4.898 -0.4365  0.0789 -2.1957
  146MOL0     H19266   0.802  11.467   5.055 -2.6059  2.1720 -0.3668
  146MOL0     H19267   0.825  11.618   4.964  3.9799  0.4676 -2.7487
  146MOL0     H19268   1.023  11.544   5.174 -1.3465 -0.1864  2.0374
  146MOL0     H19269   0.986  11.699   5.094  2.2408 -2.0656 -0.5974
  146MOL0     H19270   0.753  11.655   5.471 -2.0362  0.2827 -1.4480
  146MOL0     H19271   1.225  11.402   4.552  0.5423 -0.7812 -0.1299
  146MOL0     H19272   1.224  11.283   4.342 -2.1307 -3.9190 -1.3862
  147MOL0     O19273   4.060   2.618   0.559  0.2597 -0.1176  0.0156
  147MOL0     C19274   4.121   2.720   0.521 -0.3948 -0.2715  0.2826
  147MOL0     O19275   4.125   2.769   0.402 -0.0752  0.1331 -1.1144
  147MOL0     C19276   4.064   2.710   0.292 -0.7446  0.0290 -0.1235
  147MOL0     C19277   4.042   2.803   0.186 -0.0371 -0.4694 -0.0635
  147MOL0     C19278   4.001   2.763   0.063  0.5076  0.5751 -0.0134
  147MOL0     C19279   3.981   2.621   0.029  1.1949  0.5125 -0.1138
  147MOL0     O19280   3.941   2.574  -0.099  0.2938 -1.0348 -0.0622
  147MOL0     C19281   3.916   2.438  -0.125 -0.0909  0.1862 -0.3748
  147MOL0     C19282   4.040   2.358  -0.155 -0.6420 -0.5140  0.2174
  147MOL0     C19283   4.008   2.215  -0.213 -0.9815 -0.1388  0.6066
  147MOL0     C19284   3.962   2.113  -0.114 -1.4871  0.2375 -0.3588
  147MOL0     C19285   3.954   1.971  -0.171  0.1894  0.3578 -0.2945
  147MOL0     C19286   3.810   1.934  -0.228  0.3944  1.6605 -0.7155
  147MOL0     C19287   3.794   1.799  -0.301  0.1775  0.4766  0.8079
  147MOL0     C19288   3.650   1.790  -0.353  0.6542  0.5128  0.0380
  147MOL0     N19289   3.617   1.659  -0.413 -0.0503 -0.1160  0.2139
  147MOL0     C19290   3.565   1.545  -0.366 -0.8867  0.9424  0.7344
  147MOL0     C19291   3.558   1.460  -0.470 -0.3233 -0.0196  0.1429
  147MOL0     C19292   3.519   1.318  -0.467  0.4678  0.7396 -0.1487
  147MOL0     C19293   3.379   1.292  -0.522 -0.4591  0.9571  0.6633
  147MOL0     C19294   3.350   1.142  -0.563 -0.3928 -0.5550 -0.3024
  147MOL0     C19295   3.196   1.124  -0.570 -0.0054  0.8972 -0.2700
  147MOL0     O19296   3.139   1.141  -0.452 -0.3051  0.1107  0.9841
  147MOL0     C19297   3.013   1.139  -0.437  1.0131  0.7628  0.2577
  147MOL0     C19298   2.931   1.096  -0.541  0.3104 -1.8018  0.5967
  147MOL0     C19299   2.791   1.114  -0.527 -0.8258 -0.3382  0.5902
  147MOL0     C19300   2.736   1.167  -0.413  0.2231 -0.4074  0.1902
  147MOL0     C19301   2.590   1.191  -0.403 -0.0500  0.2628 -0.6438
  147MOL0     O19302   2.547   1.272  -0.301  0.0638  0.4889 -0.2657
  147MOL0     C19303   2.419   1.326  -0.307  0.5576  0.7308  0.1528
  147MOL0     C19304   2.325   1.291  -0.209  0.6112 -0.5132  0.3172
  147MOL0     C19305   2.210   1.363  -0.184 -0.3706 -0.0418 -0.8996
  147MOL0     C19306   2.174   1.472  -0.265 -0.2725  0.9824  0.0857
  147MOL0     O19307   2.052   1.531  -0.236  0.0586 -0.5840 -0.3205
  147MOL0     C19308   2.052   1.669  -0.289 -0.1654 -0.3244  0.5398
  147MOL0     C19309   1.998   1.763  -0.190 -0.7260  0.0255  0.0948
  147MOL0     C19310   2.073   1.759  -0.056 -0.0183  0.9224 -0.4320
  147MOL0     C19311   2.020   1.850   0.055 -0.2222  0.0635  0.5581
  147MOL0     C19312   1.867   1.845   0.088  0.2237  0.2789  0.1232
  147MOL0     C19313   1.834   1.698   0.136  0.1537  0.1231 -0.4318
  147MOL0     C19314   1.923   1.648   0.249 -0.7110  0.0106  0.5169
  147MOL0     C19315   1.855   1.524   0.309  0.1172  0.1365 -0.7766
  147MOL0    Cl19316   1.898   1.372   0.207  0.5999  0.1445  0.2722
  147MOL0     C19317   2.259   1.498  -0.378  0.0358  0.2740  0.2137
  147MOL0     C19318   2.388   1.425  -0.399  0.7867  0.1571  0.1972
  147MOL0     O19319   2.522   1.163  -0.504 -0.2283 -0.5614  0.3077
  147MOL0     C19320   2.821   1.196  -0.310  0.5093 -0.1873  0.6423
  147MOL0     C19321   2.954   1.185  -0.320 -0.1292 -0.8193  1.2319
  147MOL0     N19322   3.611   1.530  -0.583  0.2668 -0.8991  0.1796
  147MOL0     N19323   3.645   1.640  -0.542 -0.6433 -0.5869  0.5424
  147MOL0     C19324   4.013   2.526   0.133 -0.0421 -0.5437 -0.5225
  147MOL0     C19325   4.054   2.572   0.257  0.1282  0.7449 -0.0891
  147MOL0     C19326   4.209   2.792   0.625  0.7368 -0.4273  1.1186
  147MOL0     C19327   4.299   2.896   0.594  0.0369  0.1577  0.1220
  147MOL0     C19328   4.380   2.952   0.695 -0.2950  0.2863 -0.1252
  147MOL0     C19329   4.380   2.902   0.820  0.0273  0.3569 -0.0722
  147MOL0     O19330   4.467   2.947   0.917 -0.0092 -0.1518  0.0120
  147MOL0     C19331   4.571   3.044   0.913 -0.3932  0.3960 -0.0022
  147MOL0     C19332   4.663   3.030   1.037 -0.1138 -0.7013  0.5075
  147MOL0     C19333   4.739   2.899   1.033  0.0397  1.1185  0.1162
  147MOL0     C19334   4.864   2.902   1.123  0.2037 -0.0393  0.4531
  147MOL0     C19335   4.952   3.011   1.078  0.2503  0.1167 -0.0143
  147MOL0     C19336   5.030   3.103   1.046  0.8047  0.1024  0.6461
  147MOL0     C19337   4.301   2.787   0.846 -0.0692 -0.5754 -0.6097
  147MOL0     C19338   4.217   2.736   0.749  0.3893 -0.3194 -0.8844
  147MOL0     H19339   4.051   2.910   0.204  0.2825 -0.6173  0.6898
  147MOL0     H19340   3.977   2.834  -0.015  1.8034  0.0492 -0.9320
  147MOL0     H19341   3.847   2.437  -0.209  0.5661  0.8646 -0.9444
  147MOL0     H19342   3.861   2.384  -0.048  0.2714 -0.7047 -0.7308
  147MOL0     H19343   4.107   2.358  -0.068 -1.2798 -2.3917  0.7448
  147MOL0     H19344   4.094   2.415  -0.231 -0.5486 -1.6459 -0.5817
  147MOL0     H19345   4.102   2.184  -0.260 -1.6746 -0.1203 -0.8448
  147MOL0     H19346   3.931   2.219  -0.291  1.0571 -1.0066 -1.5941
  147MOL0     H19347   4.030   2.105  -0.029 -1.9599 -1.7352 -0.1300
  147MOL0     H19348   3.865   2.147  -0.079 -1.6890  1.9284 -2.3507
  147MOL0     H19349   3.972   1.913  -0.080  0.6706 -0.4420 -0.8809
  147MOL0     H19350   4.035   1.947  -0.241 -1.3206 -0.6516 -1.7693
  147MOL0     H19351   3.793   2.021  -0.291  0.4988  0.7389 -2.0548
  147MOL0     H19352   3.741   1.942  -0.144  1.1689 -0.0183  0.1357
  147MOL0     H19353   3.872   1.801  -0.378 -1.1726  1.3251 -0.6087
  147MOL0     H19354   3.817   1.717  -0.233  1.6824 -2.6173 -3.0179
  147MOL0     H19355   3.641   1.872  -0.424  1.9418  2.1360  1.6493
  147MOL0     H19356   3.570   1.798  -0.279 -1.0177  0.4619 -1.7048
  147MOL0     H19357   3.523   1.516  -0.270 -0.8631 -0.8439  0.2419
  147MOL0     H19358   3.525   1.272  -0.368  2.5879 -2.5899 -1.6334
  147MOL0     H19359   3.601   1.275  -0.525  0.2356  2.4575 -1.8452
  147MOL0     H19360   3.386   1.345  -0.617  0.9662 -4.4982 -2.7252
  147MOL0     H19361   3.300   1.315  -0.450 -2.8610 -0.1515 -1.4561
  147MOL0     H19362   3.384   1.127  -0.666 -1.8246 -0.4037 -0.8155
  147MOL0     H19363   3.389   1.067  -0.493 -0.2074  0.1096  0.3203
  147MOL0     H19364   3.182   1.025  -0.614 -0.1691 -0.0002  1.6954
  147MOL0     H19365   3.152   1.203  -0.631  2.4848  1.7135 -1.1265
  147MOL0     H19366   2.962   1.066  -0.640 -0.8039 -2.3426  0.3888
  147MOL0     H19367   2.734   1.084  -0.614  1.6824 -1.3342 -0.8214
  147MOL0     H19368   2.340   1.207  -0.143 -2.2820 -1.1954  0.2370
  147MOL0     H19369   2.140   1.345  -0.104  0.9440 -0.4710  0.1903
  147MOL0     H19370   1.991   1.677  -0.379  2.6253  0.3863 -1.4189
  147MOL0     H19371   2.151   1.708  -0.314  0.2988 -2.9783 -2.2722
  147MOL0     H19372   1.892   1.743  -0.174 -0.4518 -0.0349  1.9817
  147MOL0     H19373   1.998   1.866  -0.228  0.5639  1.3242  3.3125
  147MOL0     H19374   2.178   1.786  -0.070 -0.2238  0.7369 -2.8346
  147MOL0     H19375   2.071   1.656  -0.021 -0.2390  1.0952  0.0710
  147MOL0     H19376   2.077   1.824   0.144  2.9746 -1.1889 -1.6570
  147MOL0     H19377   2.038   1.954   0.026 -1.5354 -0.8183 -4.2445
  147MOL0     H19378   1.798   1.868   0.006  1.7062 -0.6841 -1.4679
  147MOL0     H19379   1.831   1.906   0.171 -2.3420 -1.0512  0.1039
  147MOL0     H19380   1.840   1.621   0.059 -0.9054 -0.6415  0.2228
  147MOL0     H19381   1.735   1.696   0.181 -0.5932  0.3032 -2.0094
  147MOL0     H19382   2.024   1.618   0.221 -0.7874 -0.1776  0.4423
  147MOL0     H19383   1.928   1.730   0.320 -1.4047  0.6671 -0.1681
  147MOL0     H19384   1.751   1.524   0.342  0.4051 -3.3361  0.5359
  147MOL0     H19385   1.913   1.501   0.398 -1.9476 -1.0034  0.3436
  147MOL0     H19386   2.230   1.572  -0.452  1.3769  0.2986 -0.3036
  147MOL0     H19387   2.449   1.450  -0.485  0.8638  3.1821  1.0166
  147MOL0     H19388   2.792   1.216  -0.208  1.4031  2.0797  0.5062
  147MOL0     H19389   3.004   1.210  -0.227 -0.0411  0.5529  0.8372
  147MOL0     H19390   4.010   2.418   0.130  2.3691 -0.9409  3.5270
  147MOL0     H19391   4.089   2.513   0.341 -0.6682 -1.5013 -1.2367
  147MOL0     H19392   4.290   2.938   0.495 -0.1587  1.4698  0.6860
  147MOL0     H19393   4.441   3.039   0.672  2.5185 -1.2427  1.0668
  147MOL0     H19394   4.511   3.136   0.906 -3.3327 -1.2243  1.6360
  147MOL0     H19395   4.632   3.038   0.823 -0.5397  1.0920 -0.1597
  147MOL0     H19396   4.719   3.124   1.032 -2.4182  0.6926 -1.2329
  147MOL0     H19397   4.604   3.020   1.128 -0.5661  1.7308  0.5424
  147MOL0     H19398   4.776   2.873   0.933  0.0539 -1.8708  0.8056
  147MOL0     H19399   4.677   2.810   1.048  2.5186 -1.0684 -1.5328
  147MOL0     H19400   4.837   2.925   1.226 -1.2273  3.3642 -0.5212
  147MOL0     H19401   4.914   2.805   1.118 -1.8794 -1.0969 -1.8265
  147MOL0     H19402   5.097   3.179   1.012 -1.0857  0.5403 -2.6044
  147MOL0     H19403   4.313   2.749   0.947 -1.0450 -1.3394 -0.7643
  147MOL0     H19404   4.156   2.651   0.776 -0.2018  1.3519  4.1981
  148MOL0     O19405   6.797   6.215   5.033  0.4040  0.1384 -0.0186
  148MOL0     C19406   6.882   6.168   4.963 -0.0390 -0.1697 -0.8541
  148MOL0     O19407   6.862   6.100   4.845 -0.1602  0.6509 -0.0582
  148MOL0     C19408   6.740   6.090   4.780 -0.3045 -0.5179  0.4321
  148MOL0     C19409   6.669   6.197   4.738 -0.3225  0.2314 -0.0901
  148MOL0     C19410   6.551   6.173   4.667  0.1118  0.1066  0.0208
  148MOL0     C19411   6.501   6.045   4.663  0.2353 -0.1152  0.6964
  148MOL0     O19412   6.371   6.014   4.616 -0.1359 -0.4379 -0.2910
  148MOL0     C19413   6.335   6.058   4.480  0.1358  0.5352 -0.2856
  148MOL0     C19414   6.320   5.937   4.403  0.7095  0.2675 -0.2578
  148MOL0     C19415   6.441   5.831   4.412  0.0558  0.6899 -1.1218
  148MOL0     C19416   6.411   5.718   4.311 -0.5947  0.9441 -0.7402
  148MOL0     C19417   6.517   5.599   4.314  0.3132  0.2621 -0.4969
  148MOL0     C19418   6.659   5.647   4.263  0.0691  0.7243 -0.3686
  148MOL0     C19419   6.759   5.526   4.242  0.0339 -1.2049 -0.5001
  148MOL0     C19420   6.752   5.477   4.102  1.4632 -0.4198 -0.1248
  148MOL0     N19421   6.848   5.360   4.084 -0.6814 -0.0579  0.1984
  148MOL0     C19422   6.857   5.234   4.145 -0.7394 -0.9283  0.5302
  148MOL0     C19423   6.962   5.170   4.080 -0.0718  0.1816  0.1754
  148MOL0     C19424   7.021   5.038   4.115 -0.6395  0.1681  0.3359
  148MOL0     C19425   7.058   5.032   4.264  0.1801  0.4757 -1.0756
  148MOL0     C19426   7.179   5.126   4.295  0.3662  0.5018 -0.7073
  148MOL0     C19427   7.310   5.078   4.239  0.6937  0.1508  0.3826
  148MOL0     O19428   7.413   5.181   4.245 -0.4024 -1.0429 -0.4149
  148MOL0     C19429   7.431   5.288   4.149  1.4913  0.2162 -0.3295
  148MOL0     C19430   7.341   5.307   4.050  0.0585 -0.1561  0.7010
  148MOL0     C19431   7.364   5.410   3.962 -0.3243 -0.4423  0.5956
  148MOL0     C19432   7.477   5.493   3.969  0.1120 -0.0464  0.0742
  148MOL0     C19433   7.505   5.606   3.877  0.1060 -0.5271 -0.5650
  148MOL0     O19434   7.616   5.673   3.907  0.6975  0.0278 -0.3319
  148MOL0     C19435   7.650   5.773   3.816 -0.0281 -0.5051  0.0290
  148MOL0     C19436   7.696   5.745   3.686  0.1372  0.2164  0.5071
  148MOL0     C19437   7.754   5.844   3.599  0.1793 -0.2032  0.0076
  148MOL0     C19438   7.775   5.976   3.651  0.2642  0.0856  0.5178
  148MOL0     O19439   7.825   6.067   3.567  0.0541 -0.1691  0.3620
  148MOL0     C19440   7.798   6.209   3.594 -0.4666  0.4940 -0.6925
  148MOL0     C19441   7.831   6.268   3.457  0.4255  0.1960 -1.0907
  148MOL0     C19442   7.839   6.419   3.447 -0.5526  0.1652  0.4460
  148MOL0     C19443   7.697   6.468   3.447  0.5688  0.0885 -0.6333
  148MOL0     C19444   7.702   6.615   3.426 -0.1129 -0.5178  0.6861
  148MOL0     C19445   7.755   6.687   3.300  0.1888  0.0218 -0.4698
  148MOL0     C19446   7.767   6.838   3.335  0.3351 -0.0817 -0.0249
  148MOL0     C19447   7.803   6.936   3.222  0.6088  0.1333  0.5139
  148MOL0    Cl19448   7.734   7.093   3.271  0.6823 -0.0314  0.2810
  148MOL0     C19449   7.730   6.001   3.783 -1.1647 -0.8681  0.6460
  148MOL0     C19450   7.679   5.894   3.866 -0.0154  0.2403  0.8067
  148MOL0     O19451   7.427   5.637   3.792 -0.3881 -0.3073  0.4628
  148MOL0     C19452   7.566   5.477   4.076 -0.1933 -0.1054 -0.4237
  148MOL0     C19453   7.540   5.371   4.171  0.1168 -0.8321  0.0452
  148MOL0     N19454   7.003   5.253   3.969 -0.9169  0.2867 -0.1188
  148MOL0     N19455   6.945   5.363   3.987 -0.4836 -0.0944  0.3728
  148MOL0     C19456   6.574   5.938   4.713 -0.1565  0.0206 -0.1724
  148MOL0     C19457   6.698   5.962   4.763  0.1079  0.3847 -0.2837
  148MOL0     C19458   7.020   6.180   5.012 -0.4825 -0.4532 -0.0396
  148MOL0     C19459   7.059   6.243   5.134  0.0385  0.5797  0.3730
  148MOL0     C19460   7.192   6.274   5.169  1.1856  0.5545 -0.1865
  148MOL0     C19461   7.302   6.237   5.076  0.2690  0.6511  0.3806
  148MOL0     O19462   7.440   6.231   5.108  0.2578 -0.3830 -0.7122
  148MOL0     C19463   7.474   6.249   5.246 -0.0155  0.0793  0.7722
  148MOL0     C19464   7.448   6.126   5.328 -0.5111  0.4829 -0.4876
  148MOL0     C19465   7.481   6.148   5.480 -0.6351  0.2387 -0.2034
  148MOL0     C19466   7.498   6.009   5.540  0.3080 -0.5356 -1.0598
  148MOL0     C19467   7.503   6.027   5.692  0.2404  0.7098 -0.4098
  148MOL0     C19468   7.488   6.039   5.817 -0.0946 -0.6514 -0.6400
  148MOL0     C19469   7.258   6.162   4.968  0.3376 -0.2552 -0.2223
  148MOL0     C19470   7.126   6.138   4.930  0.0751 -0.2574 -0.1174
  148MOL0     H19471   6.702   6.300   4.748  0.5447  0.3673 -3.1353
  148MOL0     H19472   6.487   6.255   4.635 -0.8255 -0.6440 -0.0648
  148MOL0     H19473   6.411   6.122   4.435 -1.3399  1.2311 -1.8942
  148MOL0     H19474   6.242   6.115   4.490 -0.1712 -0.3594  5.6102
  148MOL0     H19475   6.307   5.966   4.298 -0.7450  0.2622 -0.1042
  148MOL0     H19476   6.227   5.883   4.423  1.6577 -1.8435 -1.2811
  148MOL0     H19477   6.440   5.783   4.511  2.6844  4.0189  0.7041
  148MOL0     H19478   6.541   5.862   4.383  1.0803 -0.5271  0.8510
  148MOL0     H19479   6.319   5.665   4.335  0.4330 -1.2057 -1.3540
  148MOL0     H19480   6.414   5.758   4.209  1.1174 -2.2802 -2.1024
  148MOL0     H19481   6.478   5.533   4.236 -0.6266  0.8020 -0.4968
  148MOL0     H19482   6.532   5.546   4.409  0.4903 -0.1398 -0.7465
  148MOL0     H19483   6.707   5.704   4.343  1.7152 -1.1884  0.0935
  148MOL0     H19484   6.656   5.706   4.171 -3.3595  0.7996 -0.3143
  148MOL0     H19485   6.860   5.561   4.263 -0.5921  0.8917 -0.8130
  148MOL0     H19486   6.736   5.452   4.320 -2.6215  2.4242  2.5507
  148MOL0     H19487   6.781   5.550   4.026 -0.2079 -2.3182 -2.7714
  148MOL0     H19488   6.652   5.438   4.078 -0.2708  2.3790  1.9476
  148MOL0     H19489   6.805   5.196   4.233  1.7324 -2.4449  1.4429
  148MOL0     H19490   7.113   5.029   4.055  0.1508  2.0925  1.1680
  148MOL0     H19491   6.960   4.949   4.099  0.1285 -0.6248  1.6049
  148MOL0     H19492   7.068   4.930   4.301 -1.8016  0.8429  0.6813
  148MOL0     H19493   6.968   5.070   4.313 -2.0414 -2.0264 -2.9539
  148MOL0     H19494   7.153   5.225   4.254 -6.0545  0.3407  1.7634
  148MOL0     H19495   7.185   5.158   4.399  0.8762 -0.2585 -0.4983
  148MOL0     H19496   7.292   5.027   4.143  0.5137 -0.4221  0.7173
  148MOL0     H19497   7.342   4.996   4.304  1.6143 -0.8500 -1.2491
  148MOL0     H19498   7.250   5.248   4.044  1.2904 -2.0323 -1.2551
  148MOL0     H19499   7.294   5.442   3.885  1.7315  0.5128 -0.9777
  148MOL0     H19500   7.695   5.641   3.653  1.3617 -0.2659  1.9026
  148MOL0     H19501   7.789   5.828   3.498 -1.8108 -1.2992 -0.5692
  148MOL0     H19502   7.857   6.255   3.674 -2.3825 -2.0862  2.4485
  148MOL0     H19503   7.695   6.225   3.627  0.0706 -0.8026  1.8630
  148MOL0     H19504   7.758   6.229   3.385  0.9665  1.6846 -2.4910
  148MOL0     H19505   7.930   6.232   3.428  0.5590  1.7546 -2.7266
  148MOL0     H19506   7.888   6.438   3.351  0.6996  0.9361  1.2107
  148MOL0     H19507   7.902   6.456   3.528 -0.7536 -1.5728  1.4410
  148MOL0     H19508   7.627   6.418   3.380 -2.3433  1.4234  1.2180
  148MOL0     H19509   7.660   6.453   3.549  0.2923 -1.0505 -0.8866
  148MOL0     H19510   7.772   6.651   3.502 -0.0288 -3.0456  1.9117
  148MOL0     H19511   7.598   6.647   3.440 -0.7531 -1.8791 -0.6664
  148MOL0     H19512   7.692   6.656   3.216  0.5268 -2.0465 -0.0337
  148MOL0     H19513   7.858   6.655   3.281  0.0909 -0.4800 -0.1771
  148MOL0     H19514   7.672   6.867   3.381 -0.7466  1.8497 -3.1746
  148MOL0     H19515   7.846   6.856   3.408 -1.3697 -2.0290  2.4710
  148MOL0     H19516   7.758   6.905   3.128  0.6564 -1.7992  1.0863
  148MOL0     H19517   7.912   6.932   3.214  0.6726 -1.9865  1.6268
  148MOL0     H19518   7.749   6.100   3.824 -2.7551 -0.1071 -0.3329
  148MOL0     H19519   7.623   5.907   3.958 -1.7896  1.4609 -0.3726
  148MOL0     H19520   7.650   5.543   4.096 -1.6445  1.4932  0.6183
  148MOL0     H19521   7.622   5.351   4.241 -0.1859 -0.4392  0.5188
  148MOL0     H19522   6.539   5.836   4.707 -1.0598  0.3390 -0.4515
  148MOL0     H19523   6.763   5.878   4.783  1.2572  0.5701 -2.8807
  148MOL0     H19524   6.983   6.270   5.207 -0.0958  0.5062  0.2620
  148MOL0     H19525   7.206   6.313   5.269 -0.7854 -1.0642  0.7928
  148MOL0     H19526   7.435   6.340   5.294  2.9675  1.6757  0.4685
  148MOL0     H19527   7.583   6.260   5.240 -0.3658  3.9602 -2.4671
  148MOL0     H19528   7.347   6.086   5.317 -0.5492 -0.0710  1.5428
  148MOL0     H19529   7.517   6.054   5.284 -2.9898 -0.9966 -2.2433
  148MOL0     H19530   7.398   6.200   5.527 -0.7228 -0.3192  0.2738
  148MOL0     H19531   7.574   6.200   5.501  1.4698 -1.8270 -3.4407
  148MOL0     H19532   7.405   5.956   5.517 -2.1136  3.3274 -1.1770
  148MOL0     H19533   7.585   5.958   5.499  0.6801  1.7659 -3.4018
  148MOL0     H19534   7.477   6.030   5.923  1.9960 -5.3269 -0.5494
  148MOL0     H19535   7.337   6.112   4.914 -1.0462  1.3698 -4.1216
  148MOL0     H19536   7.117   6.073   4.844  0.9717 -0.5103 -0.0227
  149MOL0     O19537   7.340   2.789   9.780 -0.0657  0.5670  0.1241
  149MOL0     C19538   7.339   2.897   9.837 -0.3539  0.7316  0.4699
  149MOL0     O19539   7.350   3.019   9.771 -0.1515  0.1935 -0.7817
  149MOL0     C19540   7.274   3.048   9.665 -0.5871  0.2550  0.2345
  149MOL0     C19541   7.153   2.989   9.637 -0.7015 -0.6382 -0.7950
  149MOL0     C19542   7.070   3.028   9.529 -0.8879  0.7420 -0.3587
  149MOL0     C19543   7.128   3.105   9.433  0.0338 -0.0155 -0.5180
  149MOL0     O19544   7.067   3.135   9.309  0.5826 -0.1287 -0.2769
  149MOL0     C19545   6.996   3.027   9.241  0.0449  0.0732 -0.6458
  149MOL0     C19546   6.847   3.050   9.263 -0.3220  0.6375 -0.4129
  149MOL0     C19547   6.754   2.935   9.222 -0.2280  0.2717 -0.1074
  149MOL0     C19548   6.725   2.923   9.071 -0.3911 -0.1299 -0.1581
  149MOL0     C19549   6.816   2.831   8.993  0.1196 -0.9961 -0.5661
  149MOL0     C19550   6.774   2.680   9.009  0.1822  0.0265  0.4208
  149MOL0     C19551   6.890   2.591   8.953 -0.0719  0.2416 -0.4286
  149MOL0     C19552   6.849   2.438   8.967  0.4672 -0.2026 -0.3403
  149MOL0     N19553   6.837   2.398   9.116  0.4884  0.3329 -1.0134
  149MOL0     C19554   6.912   2.311   9.192 -0.4055 -0.8653  0.3498
  149MOL0     C19555   6.856   2.292   9.311  0.9434  0.1228 -0.3753
  149MOL0     C19556   6.895   2.194   9.419 -0.3905  0.3091 -0.6624
  149MOL0     C19557   6.802   2.073   9.419 -0.2045  0.2332 -0.2998
  149MOL0     C19558   6.715   2.056   9.548 -0.5284  0.7462 -0.3860
  149MOL0     C19559   6.626   2.172   9.576 -0.6229  0.1146 -0.9533
  149MOL0     O19560   6.537   2.157   9.690 -0.1138 -0.0661 -0.7418
  149MOL0     C19561   6.437   2.066   9.679 -0.0215  0.0138  0.6791
  149MOL0     C19562   6.406   1.981   9.783 -1.3237 -0.4958  0.4780
  149MOL0     C19563   6.303   1.888   9.758 -0.1440 -0.0801 -0.1399
  149MOL0     C19564   6.225   1.876   9.645 -0.3441 -0.4232 -0.1906
  149MOL0     C19565   6.112   1.788   9.640  1.3687  0.1741  0.0835
  149MOL0     O19566   6.033   1.787   9.747  0.0055  0.1730  0.0864
  149MOL0     C19567   5.898   1.756   9.734 -0.5466  0.4200 -0.3638
  149MOL0     C19568   5.851   1.663   9.826 -1.1953 -1.0168  0.5539
  149MOL0     C19569   5.730   1.607   9.825  0.7658  0.5322  1.6404
  149MOL0     C19570   5.642   1.659   9.728 -0.4245 -0.1313  0.5050
  149MOL0     O19571   5.515   1.605   9.706 -0.2794  0.9253 -0.8000
  149MOL0     C19572   5.463   1.499   9.789 -0.6547  0.7726 -0.1366
  149MOL0     C19573   5.324   1.466   9.736  0.1491  0.1927 -0.2453
  149MOL0     C19574   5.329   1.330   9.673  0.1975 -0.6172  0.2817
  149MOL0     C19575   5.186   1.291   9.627  0.2342 -0.0034  0.5280
  149MOL0     C19576   5.171   1.168   9.538 -0.3374 -0.1647 -0.3836
  149MOL0     C19577   5.231   1.183   9.398 -0.2444  0.6997 -0.6771
  149MOL0     C19578   5.193   1.063   9.319  0.1121  0.5850  0.0093
  149MOL0     C19579   5.249   1.050   9.184 -0.4436 -0.7849  0.5151
  149MOL0    Cl19580   5.183   0.904   9.108 -0.8004 -0.1101 -0.0667
  149MOL0     C19581   5.684   1.752   9.629  1.0357 -0.3014  0.6560
  149MOL0     C19582   5.810   1.804   9.636 -0.5235 -0.0610 -0.7910
  149MOL0     O19583   6.098   1.718   9.542  0.4882 -0.3189 -0.2199
  149MOL0     C19584   6.255   1.968   9.539 -0.9815 -1.1534 -0.7995
  149MOL0     C19585   6.351   2.073   9.566 -0.3212  0.1758  0.2859
  149MOL0     N19586   6.746   2.375   9.314 -0.1995  0.7781 -0.5777
  149MOL0     N19587   6.732   2.436   9.202 -0.1526 -0.5112  0.6898
  149MOL0     C19588   7.249   3.166   9.454  0.3035 -0.6877 -0.5146
  149MOL0     C19589   7.321   3.140   9.568 -0.6557 -0.0722  0.2567
  149MOL0     C19590   7.357   2.894   9.984 -0.6142 -0.9966 -0.2436
  149MOL0     C19591   7.358   2.768  10.039 -0.6615 -1.0030 -0.0443
  149MOL0     C19592   7.384   2.766  10.177  0.5881 -0.2164  0.4134
  149MOL0     C19593   7.399   2.881  10.255  0.0140 -0.3017 -0.7129
  149MOL0     O19594   7.404   2.858  10.396  0.4634 -0.5087 -0.3404
  149MOL0     C19595   7.479   2.963  10.464 -0.0154  0.5357 -0.2349
  149MOL0     C19596   7.553   2.913  10.590 -0.2580  0.4161 -0.2025
  149MOL0     C19597   7.663   3.023  10.629 -0.3235  0.7002  0.2944
  149MOL0     C19598   7.741   2.974  10.747 -0.5362  0.7828 -0.3453
  149MOL0     C19599   7.823   3.073  10.813  0.3012 -0.2675 -0.4509
  149MOL0     C19600   7.899   3.156  10.860  0.3500 -0.9173 -0.5531
  149MOL0     C19601   7.381   3.002  10.193 -0.0688  0.4970 -0.3899
  149MOL0     C19602   7.359   3.010  10.061 -0.6578  0.6155  0.1856
  149MOL0     H19603   7.117   2.916   9.708 -1.3400  0.7520  0.3723
  149MOL0     H19604   6.973   2.986   9.506 -0.4870 -1.5247  1.6354
  149MOL0     H19605   7.030   2.928   9.272 -1.6919 -0.5324 -0.5237
  149MOL0     H19606   7.006   3.036   9.132  2.9968 -1.7646 -0.6336
  149MOL0     H19607   6.808   3.138   9.211 -0.6338 -0.1462 -1.5419
  149MOL0     H19608   6.839   3.063   9.371 -1.2822 -3.0432  0.0762
  149MOL0     H19609   6.652   2.951   9.258 -0.5703 -0.3545 -0.7726
  149MOL0     H19610   6.784   2.839   9.265 -0.6516  0.4546  0.6039
  149MOL0     H19611   6.623   2.889   9.051  0.5892 -3.0925 -0.7462
  149MOL0     H19612   6.723   3.019   9.020 -1.7895 -0.5319 -0.9105
  149MOL0     H19613   6.924   2.848   9.003  0.5207 -2.6713 -1.5586
  149MOL0     H19614   6.784   2.859   8.892  4.3349  2.6750 -1.1647
  149MOL0     H19615   6.676   2.675   8.961  0.8380 -0.1445 -0.9547
  149MOL0     H19616   6.767   2.658   9.116  0.6006  0.4072  0.5297
  149MOL0     H19617   6.919   2.619   8.851 -2.8664  1.6980 -0.9156
  149MOL0     H19618   6.980   2.598   9.015  0.2676 -5.1562  0.1229
  149MOL0     H19619   6.915   2.368   8.915  0.7688 -2.5005  2.8312
  149MOL0     H19620   6.752   2.421   8.920 -0.1707 -2.9767  1.7290
  149MOL0     H19621   7.011   2.273   9.168 -0.5029 -1.3283  0.6591
  149MOL0     H19622   6.893   2.236   9.520  0.8622  0.5725 -0.7294
  149MOL0     H19623   6.998   2.169   9.391 -0.0603  0.5774  0.2752
  149MOL0     H19624   6.858   1.979   9.417  1.5674  1.2549 -1.6954
  149MOL0     H19625   6.738   2.070   9.331  0.6698 -0.8602 -0.9153
  149MOL0     H19626   6.653   1.971   9.517 -0.9697  1.0796 -0.4216
  149MOL0     H19627   6.766   2.031   9.642 -0.9211  1.7759  0.1079
  149MOL0     H19628   6.583   2.218   9.487  0.3368 -1.0538 -2.0496
  149MOL0     H19629   6.692   2.255   9.602  0.5367 -0.4554 -1.9736
  149MOL0     H19630   6.456   1.996   9.879 -2.4841 -1.6662  1.3008
  149MOL0     H19631   6.292   1.813   9.835  4.7747 -2.0802 -0.9811
  149MOL0     H19632   5.928   1.620   9.890  0.5523  0.0897 -0.7358
  149MOL0     H19633   5.709   1.523   9.889  0.0898 -0.2765  0.4040
  149MOL0     H19634   5.458   1.529   9.894 -2.5970  0.3224 -0.0597
  149MOL0     H19635   5.530   1.413   9.778 -0.6597  0.7642 -0.1001
  149MOL0     H19636   5.283   1.550   9.679  2.2363  1.5577  0.1463
  149MOL0     H19637   5.268   1.471   9.830 -1.8615 -2.2982 -1.2077
  149MOL0     H19638   5.362   1.252   9.742  2.3426 -0.0340 -0.0107
  149MOL0     H19639   5.402   1.333   9.591  0.0930  1.1720  0.2261
  149MOL0     H19640   5.124   1.295   9.717 -1.6262  0.3930 -0.7033
  149MOL0     H19641   5.144   1.375   9.571  1.2722  0.0666 -0.1842
  149MOL0     H19642   5.068   1.133   9.534  0.1249 -1.6591  0.2411
  149MOL0     H19643   5.212   1.076   9.581 -0.5454  0.7633  1.9684
  149MOL0     H19644   5.340   1.180   9.392 -0.2121  1.7381 -0.7522
  149MOL0     H19645   5.194   1.274   9.349 -0.6550  1.1493  0.4396
  149MOL0     H19646   5.228   0.979   9.378 -0.2669  0.4695  0.0708
  149MOL0     H19647   5.085   1.047   9.317 -0.3275  1.9312  4.2750
  149MOL0     H19648   5.357   1.065   9.193 -0.4156 -1.3715  1.3169
  149MOL0     H19649   5.210   1.129   9.119  2.0597 -1.3475 -1.8523
  149MOL0     H19650   5.633   1.778   9.537 -0.7541 -3.2513  0.6669
  149MOL0     H19651   5.841   1.871   9.557 -2.7131 -0.4649 -2.0906
  149MOL0     H19652   6.191   1.976   9.452 -1.5581  1.9886 -0.2060
  149MOL0     H19653   6.363   2.144   9.485  1.3971 -2.4011 -1.9064
  149MOL0     H19654   7.290   3.235   9.382 -2.7207 -0.7662 -2.5224
  149MOL0     H19655   7.415   3.193   9.585 -0.7550  1.4563 -3.1236
  149MOL0     H19656   7.345   2.672   9.989 -0.4756 -0.5621 -0.9594
  149MOL0     H19657   7.395   2.669  10.224 -2.2244  0.1528  2.0366
  149MOL0     H19658   7.410   3.045  10.485 -1.3482 -0.0899 -1.8778
  149MOL0     H19659   7.562   2.990  10.398  0.6608 -0.8436  0.0041
  149MOL0     H19660   7.495   2.899  10.681  4.0677  0.8723  2.9026
  149MOL0     H19661   7.599   2.821  10.551 -0.2032  0.0527  0.7105
  149MOL0     H19662   7.622   3.122  10.650  0.6011  0.9253  1.1355
  149MOL0     H19663   7.734   3.037  10.546  1.2372 -0.1165  1.4343
  149MOL0     H19664   7.670   2.953  10.827 -0.8453  1.3657 -0.4616
  149MOL0     H19665   7.808   2.889  10.734  0.7425  2.0223 -2.3227
  149MOL0     H19666   7.962   3.226  10.911 -0.8701 -0.1726 -0.0238
  149MOL0     H19667   7.369   3.091  10.253  0.3538 -0.3530  0.9965
  149MOL0     H19668   7.337   3.105  10.014 -1.2184  0.0852 -0.6545
  150MOL0     O19669   8.882   4.971   7.046 -0.1984 -0.0897 -0.4493
  150MOL0     C19670   8.785   4.926   7.102  0.9625  0.0384  0.7363
  150MOL0     O19671   8.697   4.998   7.188 -0.3598  0.2915 -0.4875
  150MOL0     C19672   8.735   5.124   7.219  0.4997  0.3248 -0.0207
  150MOL0     C19673   8.827   5.150   7.322 -0.3049  1.2108 -0.3814
  150MOL0     C19674   8.858   5.277   7.361  0.0961 -0.7273 -0.0705
  150MOL0     C19675   8.785   5.385   7.315  0.4125  0.8318  0.8395
  150MOL0     O19676   8.813   5.503   7.374 -0.0343 -0.5229 -0.1535
  150MOL0     C19677   8.707   5.597   7.379  0.7311 -1.1933 -0.2197
  150MOL0     C19678   8.767   5.741   7.380  0.4900  0.2251 -0.3512
  150MOL0     C19679   8.851   5.765   7.251 -0.4221 -0.1346 -0.3844
  150MOL0     C19680   8.905   5.907   7.250 -0.3145 -0.1774 -0.3243
  150MOL0     C19681   8.949   5.978   7.381 -1.0834 -0.7062 -0.0400
  150MOL0     C19682   9.099   5.959   7.388  0.7724  0.5917 -0.4543
  150MOL0     C19683   9.160   5.969   7.529  1.2538 -0.0270  0.2372
  150MOL0     C19684   9.170   6.121   7.570  1.3030  1.2277 -1.3861
  150MOL0     N19685   9.228   6.128   7.700 -0.4105  0.1643  0.1323
  150MOL0     C19686   9.368   6.162   7.723 -0.1106 -0.3117 -0.2977
  150MOL0     C19687   9.378   6.154   7.853  0.7782  0.0392  0.3138
  150MOL0     C19688   9.507   6.169   7.920  0.5468 -0.5418 -0.3613
  150MOL0     C19689   9.518   6.298   7.989  0.0496 -0.4030  0.7542
  150MOL0     C19690   9.639   6.300   8.095 -0.3018 -0.3664 -0.4488
  150MOL0     C19691   9.779   6.346   8.054  1.0718  0.5039 -1.0011
  150MOL0     O19692   9.762   6.482   8.035  0.1993 -1.8864  0.7429
  150MOL0     C19693   9.872   6.560   8.019 -0.8730  0.0187  0.6368
  150MOL0     C19694   9.860   6.695   7.978 -0.6192  0.3231 -1.0346
  150MOL0     C19695   9.972   6.782   7.960  0.3363  0.2611  0.2960
  150MOL0     C19696  10.100   6.734   7.973 -0.6896 -0.4409  0.8119
  150MOL0     C19697  10.220   6.816   7.942 -1.0422 -0.2603 -0.5421
  150MOL0     O19698  10.205   6.954   7.915 -0.1831  1.1054 -0.3220
  150MOL0     C19699  10.301   7.054   7.916 -0.1897  0.2014 -0.1864
  150MOL0     C19700  10.325   7.136   7.812  0.5790 -1.4021 -0.3672
  150MOL0     C19701  10.428   7.227   7.802 -0.3512 -0.7546  1.1707
  150MOL0     C19702  10.522   7.241   7.906 -0.8965  0.4073  1.2054
  150MOL0     O19703  10.634   7.321   7.886  0.5637  0.2577  1.2034
  150MOL0     C19704  10.708   7.380   7.988  0.7761 -0.5918  0.6323
  150MOL0     C19705  10.683   7.531   7.981 -0.4685 -0.1119 -0.2409
  150MOL0     C19706  10.543   7.572   8.008 -0.4989 -1.0905 -0.2889
  150MOL0     C19707  10.509   7.555   8.153  0.5681 -0.1036  0.3115
  150MOL0     C19708  10.352   7.573   8.163 -0.9476  0.1645  0.3501
  150MOL0     C19709  10.301   7.583   8.309 -1.1606 -0.6884  0.1306
  150MOL0     C19710  10.146   7.611   8.324 -0.2554  0.6613 -0.9465
  150MOL0     C19711  10.090   7.476   8.388  0.3246 -0.2279  0.0449
  150MOL0    Cl19712  10.126   7.443   8.567  0.1419 -0.3974 -0.1002
  150MOL0     C19713  10.513   7.151   8.011  0.0386 -0.1801 -0.5591
  150MOL0     C19714  10.409   7.052   8.008  0.2908  0.0704  0.1529
  150MOL0     O19715  10.330   6.761   7.937  0.2023  0.6695  0.6513
  150MOL0     C19716  10.118   6.596   8.006  0.1708 -0.1585 -0.2962
  150MOL0     C19717  10.006   6.517   8.037  0.3224  0.1498  0.4475
  150MOL0     N19718   9.257   6.117   7.907  0.0384 -0.6492 -0.1451
  150MOL0     N19719   9.167   6.096   7.812 -0.8057  0.2122  0.3877
  150MOL0     C19720   8.707   5.364   7.192 -0.0163  0.6350 -0.9257
  150MOL0     C19721   8.681   5.233   7.149  0.0270 -0.1163 -0.0020
  150MOL0     C19722   8.770   4.783   7.074  0.0450  0.3939  0.3081
  150MOL0     C19723   8.655   4.715   7.115  0.4457 -0.2316 -0.4440
  150MOL0     C19724   8.634   4.585   7.092  0.5067  0.4138 -0.3684
  150MOL0     C19725   8.712   4.517   7.002 -0.2703  0.8234  0.1576
  150MOL0     O19726   8.673   4.390   6.976  0.2747 -0.0064 -0.3101
  150MOL0     C19727   8.581   4.366   6.878 -0.1495  0.1241 -0.0947
  150MOL0     C19728   8.670   4.289   6.769  0.3482 -0.0216 -0.1048
  150MOL0     C19729   8.578   4.218   6.668  0.2886  0.3454 -0.5999
  150MOL0     C19730   8.565   4.277   6.531 -0.2161  0.0476  0.7026
  150MOL0     C19731   8.696   4.259   6.468 -0.1793 -0.1532 -0.4766
  150MOL0     C19732   8.806   4.269   6.416 -0.8962 -1.1193  0.3398
  150MOL0     C19733   8.829   4.574   6.950 -0.3197  0.2504  0.2210
  150MOL0     C19734   8.859   4.702   6.985 -1.3790  0.4824  0.2121
  150MOL0     H19735   8.870   5.067   7.377 -1.8780  1.5091  1.4039
  150MOL0     H19736   8.938   5.276   7.435  2.0675 -1.7511 -2.0736
  150MOL0     H19737   8.638   5.586   7.463 -0.4037  2.5153 -0.4596
  150MOL0     H19738   8.647   5.577   7.290  1.2542  0.2551 -0.9463
  150MOL0     H19739   8.835   5.755   7.465  1.1930  6.2803 -1.4662
  150MOL0     H19740   8.694   5.823   7.374  0.2282  0.0384  0.1963
  150MOL0     H19741   8.781   5.765   7.167 -0.8167 -0.0320 -0.0587
  150MOL0     H19742   8.927   5.686   7.246  0.4904  0.7533 -0.8541
  150MOL0     H19743   8.985   5.914   7.176 -1.7625  1.2968 -1.8383
  150MOL0     H19744   8.826   5.971   7.210  0.1150  0.9237  0.5050
  150MOL0     H19745   8.894   5.951   7.472  2.1017  0.8265  2.5319
  150MOL0     H19746   8.952   6.085   7.359  5.1047 -0.9275 -2.0664
  150MOL0     H19747   9.154   6.014   7.310  0.4607  1.6129  0.0199
  150MOL0     H19748   9.117   5.854   7.363 -1.1304  0.2110 -0.3555
  150MOL0     H19749   9.097   5.913   7.599  0.7930  1.7086  1.2872
  150MOL0     H19750   9.260   5.926   7.526  0.1184 -2.8334 -1.7353
  150MOL0     H19751   9.068   6.156   7.587 -0.0968 -3.4868  2.1297
  150MOL0     H19752   9.223   6.186   7.500  0.2081  0.0166 -3.4182
  150MOL0     H19753   9.436   6.200   7.648  0.1287  0.9684  0.5282
  150MOL0     H19754   9.586   6.149   7.847  1.3300 -2.0879  0.8560
  150MOL0     H19755   9.515   6.083   7.987 -5.0371 -5.2913 -4.6846
  150MOL0     H19756   9.431   6.309   8.055  0.9210  3.2904  1.5620
  150MOL0     H19757   9.519   6.383   7.921 -0.0455 -1.6192 -0.8089
  150MOL0     H19758   9.607   6.374   8.169  1.2789 -0.1119  0.0228
  150MOL0     H19759   9.650   6.204   8.147 -1.4030 -2.0600 -3.1216
  150MOL0     H19760   9.797   6.288   7.963 -2.3429 -3.6798  0.6541
  150MOL0     H19761   9.850   6.325   8.135 -0.5831 -1.5422  0.0264
  150MOL0     H19762   9.758   6.733   7.980  0.1618  2.6027 -1.1292
  150MOL0     H19763   9.952   6.881   7.920 -1.5126  0.3750  1.4254
  150MOL0     H19764  10.254   7.145   7.730 -1.6167 -3.3136  1.1907
  150MOL0     H19765  10.444   7.268   7.703 -3.8769  0.9152  1.1693
  150MOL0     H19766  10.812   7.353   7.967  0.1519 -2.2454 -0.5331
  150MOL0     H19767  10.680   7.337   8.085 -0.6113 -1.5228 -0.1424
  150MOL0     H19768  10.722   7.566   7.885  2.7050  0.1809  1.0309
  150MOL0     H19769  10.749   7.575   8.056  0.6000  1.6110 -2.0672
  150MOL0     H19770  10.480   7.503   7.952 -1.0007  0.0359 -1.1527
  150MOL0     H19771  10.527   7.673   7.969  1.0684 -0.3865  0.7547
  150MOL0     H19772  10.534   7.456   8.192  0.8010 -0.9647 -1.8980
  150MOL0     H19773  10.572   7.620   8.215  1.4736  0.9461 -1.6269
  150MOL0     H19774  10.295   7.491   8.118  0.5625 -1.5539  1.4394
  150MOL0     H19775  10.317   7.655   8.099 -1.2450  0.6746  1.1554
  150MOL0     H19776  10.366   7.655   8.359 -1.4923 -0.4226  0.1844
  150MOL0     H19777  10.336   7.489   8.354  2.1893  0.8832  1.1058
  150MOL0     H19778  10.113   7.694   8.388 -3.1113 -0.8926 -0.2486
  150MOL0     H19779  10.090   7.625   8.231 -3.8027 -3.5353  0.2406
  150MOL0     H19780  10.112   7.388   8.326  0.4058 -0.4030  0.3182
  150MOL0     H19781   9.981   7.483   8.385  0.2242 -1.3441 -3.4687
  150MOL0     H19782  10.586   7.153   8.091  3.1087  1.4259 -3.1785
  150MOL0     H19783  10.413   6.977   8.086 -3.2521  0.9822  1.3695
  150MOL0     H19784  10.219   6.564   8.030 -0.2893 -1.6303 -0.2156
  150MOL0     H19785  10.029   6.427   8.093 -1.4356 -1.1898 -0.9084
  150MOL0     H19786   8.674   5.452   7.138 -1.4387  2.8473  3.1163
  150MOL0     H19787   8.628   5.218   7.055  2.9583 -1.2472 -1.5789
  150MOL0     H19788   8.579   4.766   7.173 -0.0556  0.3940 -1.6273
  150MOL0     H19789   8.558   4.521   7.133  2.6938 -2.0135  0.1246
  150MOL0     H19790   8.537   4.458   6.839 -2.2305 -0.0481  1.6585
  150MOL0     H19791   8.501   4.298   6.909  0.2762 -0.0121  0.7482
  150MOL0     H19792   8.732   4.368   6.725 -3.1780  2.0876 -1.7284
  150MOL0     H19793   8.722   4.208   6.821  0.7949 -0.9518 -1.9184
  150MOL0     H19794   8.478   4.212   6.711  1.3538  1.0104  2.1355
  150MOL0     H19795   8.616   4.115   6.661  2.2974  0.5403  3.9028
  150MOL0     H19796   8.488   4.216   6.482  0.7663  1.3797 -2.8041
  150MOL0     H19797   8.536   4.382   6.535  1.3741  0.4560  3.2210
  150MOL0     H19798   8.905   4.264   6.376 -0.7122 -0.2039  0.6632
  150MOL0     H19799   8.903   4.521   6.892 -0.9756  0.3374 -0.7091
  150MOL0     H19800   8.949   4.751   6.949  0.9079 -1.5921  2.6304
  151MOL0     O19801   9.001   2.538  11.423 -0.1235  0.0001 -0.6601
  151MOL0     C19802   9.107   2.605  11.454  0.5361 -0.4437 -0.7083
  151MOL0     O19803   9.235   2.561  11.439  0.2050  0.6379 -0.1685
  151MOL0     C19804   9.260   2.432  11.390 -0.3240 -0.6076 -0.5693
  151MOL0     C19805   9.195   2.317  11.430 -1.7225 -0.6218  0.0423
  151MOL0     C19806   9.239   2.195  11.371  0.0534 -0.1026  0.3669
  151MOL0     C19807   9.337   2.194  11.273 -0.5025 -0.5674  0.2432
  151MOL0     O19808   9.363   2.084  11.205  0.4968 -0.0153  0.3587
  151MOL0     C19809   9.385   1.965  11.278 -0.3834 -0.1464  0.9946
  151MOL0     C19810   9.509   1.899  11.203 -0.5513  0.9398  0.7326
  151MOL0     C19811   9.625   2.001  11.178 -0.2380 -0.1741  0.4688
  151MOL0     C19812   9.746   1.948  11.103 -0.4968 -0.1585 -0.6204
  151MOL0     C19813   9.829   2.043  11.020  0.4647 -0.2914  0.7463
  151MOL0     C19814   9.920   2.134  11.107 -0.1175 -0.1130 -0.0287
  151MOL0     C19815   9.990   2.243  11.030  0.2855  1.1331  0.1253
  151MOL0     C19816  10.082   2.349  11.104 -0.1475  0.5151 -0.8862
  151MOL0     N19817  10.195   2.314  11.188  0.4821 -0.2643 -0.1284
  151MOL0     C19818  10.178   2.256  11.311 -0.0837 -0.5862 -0.8951
  151MOL0     C19819  10.291   2.283  11.376  0.6732  0.2723  0.4709
  151MOL0     C19820  10.322   2.254  11.525 -0.9362 -0.1325  1.5111
  151MOL0     C19821  10.352   2.115  11.566  1.3871  0.0747  0.1286
  151MOL0     C19822  10.415   2.112  11.708 -0.4274 -0.6501  0.4675
  151MOL0     C19823  10.488   1.987  11.737 -0.1652 -0.2442  0.1286
  151MOL0     O19824  10.393   1.878  11.742 -0.4925 -0.5841 -0.2573
  151MOL0     C19825  10.330   1.870  11.867 -0.0410 -0.1573  0.9043
  151MOL0     C19826  10.206   1.922  11.894  0.3183  0.4206  0.1180
  151MOL0     C19827  10.149   1.913  12.026 -0.0415  0.0003  1.0524
  151MOL0     C19828  10.216   1.848  12.132  0.7512  0.0234  0.3424
  151MOL0     C19829  10.156   1.846  12.270  0.9347  0.1890 -0.5843
  151MOL0     O19830  10.041   1.929  12.294 -0.9348  0.2086  0.2792
  151MOL0     C19831   9.981   1.926  12.423 -0.9365  0.1879  0.0931
  151MOL0     C19832   9.876   1.841  12.441  0.5261  0.4743 -0.2135
  151MOL0     C19833   9.822   1.814  12.569  0.4951 -0.1766  0.2619
  151MOL0     C19834   9.870   1.875  12.681  0.8426  0.5993 -0.3507
  151MOL0     O19835   9.819   1.873  12.809  0.3011 -0.0054 -0.3258
  151MOL0     C19836   9.701   1.800  12.818  0.0686  0.0161 -0.1227
  151MOL0     C19837   9.645   1.822  12.960 -0.5525  1.2004  0.4619
  151MOL0     C19838   9.531   1.730  12.984 -0.3699 -0.1532  0.0797
  151MOL0     C19839   9.577   1.588  13.003  0.3025  0.1664 -1.0794
  151MOL0     C19840   9.478   1.496  13.048 -1.3573  0.9224 -0.9831
  151MOL0     C19841   9.397   1.433  12.936 -0.0057 -0.3485  0.1340
  151MOL0     C19842   9.266   1.369  12.985  0.9290  0.2483 -0.0280
  151MOL0     C19843   9.187   1.279  12.876 -0.5165  0.4546  0.8692
  151MOL0    Cl19844   9.103   1.366  12.747 -0.6136 -0.0465  0.1395
  151MOL0     C19845   9.983   1.960  12.667  0.0272 -1.0429  0.3883
  151MOL0     C19846  10.038   1.979  12.540  0.4045  0.1892  0.0408
  151MOL0     O19847  10.217   1.778  12.350  0.0846  0.2504 -0.6537
  151MOL0     C19848  10.334   1.783  12.092  0.0333 -0.1292 -0.0679
  151MOL0     C19849  10.384   1.780  11.960  0.8732 -0.7219  0.6980
  151MOL0     N19850  10.373   2.333  11.286 -0.2342  0.2389 -0.4034
  151MOL0     N19851  10.315   2.357  11.175  0.5433  0.1157 -0.2277
  151MOL0     C19852   9.411   2.307  11.240 -0.6329  0.1542  0.5804
  151MOL0     C19853   9.375   2.424  11.304 -0.1384 -0.2370 -0.4526
  151MOL0     C19854   9.093   2.745  11.530  0.8343  0.1440 -0.5731
  151MOL0     C19855   9.199   2.826  11.572 -0.6197 -0.4064 -0.3477
  151MOL0     C19856   9.177   2.956  11.616 -0.2485  0.0578  1.5362
  151MOL0     C19857   9.048   3.001  11.636 -0.4775 -0.3540 -0.2244
  151MOL0     O19858   9.005   3.119  11.682 -0.0449 -0.3819  0.6391
  151MOL0     C19859   9.041   3.223  11.590 -0.4880  0.0135 -0.5164
  151MOL0     C19860   8.998   3.363  11.647  0.1620  0.0141 -0.7516
  151MOL0     C19861   8.846   3.374  11.598  0.0338 -0.5748 -0.4210
  151MOL0     C19862   8.780   3.493  11.653  0.3239  0.3003 -0.0088
  151MOL0     C19863   8.727   3.486  11.779 -0.1047  0.2262 -0.3719
  151MOL0     C19864   8.664   3.486  11.888 -0.6103 -0.0865 -0.1516
  151MOL0     C19865   8.944   2.915  11.617 -0.2985  0.0223  0.6509
  151MOL0     C19866   8.962   2.790  11.552 -0.4928  0.0057 -0.1037
  151MOL0     H19867   9.108   2.339  11.491 -2.3082 -2.3544 -0.1149
  151MOL0     H19868   9.178   2.108  11.395 -2.7219  1.1722 -1.4369
  151MOL0     H19869   9.298   1.899  11.276 -0.9334  0.5604 -1.5856
  151MOL0     H19870   9.386   1.987  11.385  0.9993  1.1998  0.7475
  151MOL0     H19871   9.498   1.855  11.103  4.9584  1.9490 -0.6504
  151MOL0     H19872   9.550   1.822  11.269 -2.0331  1.0654  1.8742
  151MOL0     H19873   9.651   2.051  11.271  0.7070  2.9034 -1.3188
  151MOL0     H19874   9.587   2.079  11.112  3.8099  2.0251  0.4624
  151MOL0     H19875   9.805   1.894  11.178 -0.2821 -0.2806 -0.8746
  151MOL0     H19876   9.703   1.877  11.032  0.0798  0.1552 -1.3007
  151MOL0     H19877   9.754   2.091  10.956  0.8431 -2.5571 -1.5771
  151MOL0     H19878   9.888   1.971  10.963 -0.8285 -1.2974  0.6305
  151MOL0     H19879   9.996   2.066  11.147 -0.6114 -0.8294 -0.2825
  151MOL0     H19880   9.867   2.187  11.186  3.5961  3.7961  0.2416
  151MOL0     H19881  10.055   2.191  10.960 -0.5084  0.3949 -0.0838
  151MOL0     H19882   9.915   2.297  10.971 -1.1797 -0.5260  0.3750
  151MOL0     H19883  10.006   2.396  11.167  0.6652 -2.4495  2.6914
  151MOL0     H19884  10.105   2.427  11.031  1.1277  0.1057 -0.9477
  151MOL0     H19885  10.093   2.209  11.360  1.1303 -4.7643 -2.3699
  151MOL0     H19886  10.250   2.305  11.589 -0.6375  1.8739  0.3076
  151MOL0     H19887  10.412   2.316  11.530  0.6692 -1.2273 -5.0096
  151MOL0     H19888  10.412   2.066  11.489 -0.8384 -3.5633  0.5106
  151MOL0     H19889  10.260   2.059  11.582  2.0345 -0.6946  1.2855
  151MOL0     H19890  10.485   2.196  11.707  4.6993 -4.2128 -4.2700
  151MOL0     H19891  10.333   2.132  11.777 -0.9886  1.4082 -0.6850
  151MOL0     H19892  10.546   1.997  11.830  1.5999 -0.1640 -0.9252
  151MOL0     H19893  10.566   1.962  11.664  1.1849  2.1619  0.6282
  151MOL0     H19894  10.168   1.978  11.809  1.3102  0.9787  0.0246
  151MOL0     H19895  10.058   1.967  12.047  0.4197 -0.4758  5.0601
  151MOL0     H19896   9.833   1.804  12.349 -3.2528  3.2824  0.1937
  151MOL0     H19897   9.726   1.764  12.572  0.7738 -0.6933  3.3192
  151MOL0     H19898   9.730   1.698  12.793 -3.1067 -0.9427 -0.3541
  151MOL0     H19899   9.623   1.831  12.748  1.0897  1.9458 -0.4538
  151MOL0     H19900   9.624   1.929  12.970  0.9358  1.6055 -0.4521
  151MOL0     H19901   9.723   1.804  13.034  1.0693 -0.2903 -1.4971
  151MOL0     H19902   9.463   1.734  12.899  3.4971  1.5974 -3.2603
  151MOL0     H19903   9.472   1.761  13.072  1.1399  3.7202 -0.0614
  151MOL0     H19904   9.625   1.547  12.914  3.6772  4.3494 -1.4862
  151MOL0     H19905   9.654   1.580  13.080 -1.3120 -1.8771  0.4698
  151MOL0     H19906   9.411   1.551  13.116 -0.7009  0.0284  0.4342
  151MOL0     H19907   9.546   1.425  13.096 -3.6880 -1.3540 -0.8663
  151MOL0     H19908   9.450   1.356  12.879 -1.7370 -0.1911 -1.7931
  151MOL0     H19909   9.379   1.502  12.853  2.0610 -1.4597 -1.3086
  151MOL0     H19910   9.287   1.307  13.072  0.7823 -2.3700 -1.7162
  151MOL0     H19911   9.192   1.446  13.004  1.7424  0.8486  0.7941
  151MOL0     H19912   9.109   1.216  12.919  1.5076 -2.0414  1.1665
  151MOL0     H19913   9.264   1.219  12.825 -1.3652 -1.2018  1.4589
  151MOL0     H19914  10.038   2.009  12.747 -0.4560 -1.2758  0.8719
  151MOL0     H19915  10.124   2.042  12.520 -1.0219  2.3618  0.4504
  151MOL0     H19916  10.380   1.722  12.170  4.9488  0.5479 -2.0757
  151MOL0     H19917  10.471   1.721  11.933  0.5840 -0.4125 -1.0206
  151MOL0     H19918   9.490   2.305  11.166 -0.1163 -0.8553  1.1482
  151MOL0     H19919   9.435   2.511  11.278  3.4134 -2.9476 -2.2476
  151MOL0     H19920   9.305   2.803  11.564 -0.7430 -0.4737 -1.9826
  151MOL0     H19921   9.261   3.015  11.652  0.3935  0.9016 -1.1155
  151MOL0     H19922   8.992   3.198  11.495  1.2308 -0.0115 -1.4369
  151MOL0     H19923   9.150   3.218  11.580  0.0208  4.1645  1.0366
  151MOL0     H19924   9.006   3.364  11.756  0.7038 -0.8338 -0.7728
  151MOL0     H19925   9.052   3.453  11.616 -2.1138  1.5631 -0.3885
  151MOL0     H19926   8.792   3.281  11.618  0.6570 -1.0313 -0.8489
  151MOL0     H19927   8.847   3.391  11.490 -0.3053  1.5296 -0.1392
  151MOL0     H19928   8.846   3.580  11.640 -1.7281  2.2211  1.5982
  151MOL0     H19929   8.699   3.502  11.580 -0.9158 -3.5330  0.7186
  151MOL0     H19930   8.616   3.468  11.982  1.4072 -1.1175  0.7607
  151MOL0     H19931   8.838   2.926  11.640 -1.7650 -2.0459 -3.8531
  151MOL0     H19932   8.874   2.732  11.527  0.2713 -1.7894  1.1895
  152MOL0     O19933   2.765   9.319   6.231 -0.1918 -0.6020 -0.3348
  152MOL0     C19934   2.834   9.237   6.171 -0.3516 -0.1149 -0.5316
  152MOL0     O19935   2.955   9.194   6.217 -0.2547  0.3675  0.1475
  152MOL0     C19936   3.000   9.217   6.343 -0.4369  0.2024  0.0521
  152MOL0     C19937   3.140   9.205   6.351  0.0108  0.2967 -0.2357
  152MOL0     C19938   3.208   9.224   6.476  1.2224 -0.7287  0.1589
  152MOL0     C19939   3.140   9.260   6.590 -0.7138 -0.3013  0.2163
  152MOL0     O19940   3.197   9.305   6.709  0.6524  0.5172 -0.0673
  152MOL0     C19941   3.347   9.315   6.702  0.6977  0.8034 -0.6475
  152MOL0     C19942   3.418   9.365   6.834 -0.2619 -0.5466  0.2568
  152MOL0     C19943   3.349   9.503   6.859  0.6736  0.1305 -0.0904
  152MOL0     C19944   3.428   9.581   6.957  0.1232  0.1657  0.0454
  152MOL0     C19945   3.350   9.661   7.053  0.1663 -0.0624  0.3135
  152MOL0     C19946   3.454   9.732   7.143 -0.0653  0.4680  0.6591
  152MOL0     C19947   3.395   9.834   7.234 -0.2326  0.4175 -1.2365
  152MOL0     C19948   3.331   9.949   7.148  0.0345 -0.0509  0.8587
  152MOL0     N19949   3.312  10.075   7.216  0.0899  0.7402 -0.7994
  152MOL0     C19950   3.202  10.123   7.280 -0.4248  0.4697 -0.4136
  152MOL0     C19951   3.239  10.229   7.362  0.4511 -0.7483 -0.2952
  152MOL0     C19952   3.154  10.301   7.458  0.0165 -1.4894  0.4118
  152MOL0     C19953   3.004  10.285   7.444 -0.6119  0.2122  0.7016
  152MOL0     C19954   2.947  10.324   7.305  0.2427  0.2355 -0.3767
  152MOL0     C19955   2.908  10.479   7.292 -0.3135 -0.0091  0.3196
  152MOL0     O19956   2.776  10.484   7.344 -0.5061  0.0228  0.1919
  152MOL0     C19957   2.750  10.524   7.473  0.9280 -1.1062  0.4846
  152MOL0     C19958   2.619  10.512   7.508 -0.2185 -0.3738 -0.9202
  152MOL0     C19959   2.569  10.549   7.631 -0.3866  0.2187  0.1753
  152MOL0     C19960   2.650  10.584   7.742  0.7835 -0.7236  0.0803
  152MOL0     C19961   2.601  10.589   7.887  0.5181  0.0122  1.7215
  152MOL0     O19962   2.686  10.601   7.990 -0.1388 -0.1314  0.2436
  152MOL0     C19963   2.639  10.639   8.118 -0.2748 -0.2074  0.0544
  152MOL0     C19964   2.515  10.687   8.156 -0.7978  0.4258  0.1549
  152MOL0     C19965   2.502  10.718   8.290  0.4918  0.6406  0.1191
  152MOL0     C19966   2.604  10.722   8.387 -0.0134 -0.1527 -0.1605
  152MOL0     O19967   2.572  10.764   8.521 -0.9380  0.9375  0.8832
  152MOL0     C19968   2.675  10.771   8.615 -0.2762  0.1624  0.8438
  152MOL0     C19969   2.635  10.806   8.757 -0.5891  0.2157  0.0966
  152MOL0     C19970   2.535  10.714   8.819 -0.2180 -1.2859  0.0360
  152MOL0     C19971   2.488  10.736   8.963 -0.3458  0.0016  0.3178
  152MOL0     C19972   2.381  10.633   9.005  0.3344  0.1640  0.2428
  152MOL0     C19973   2.249  10.646   8.928 -0.3644  0.4856  0.0150
  152MOL0     C19974   2.154  10.558   9.004  0.6667 -0.2961  0.2394
  152MOL0     C19975   2.014  10.556   8.948  1.0387 -0.2227  0.2637
  152MOL0    Cl19976   2.013  10.483   8.781 -0.7795 -0.1907  0.2391
  152MOL0     C19977   2.734  10.676   8.336  0.3516  0.4353  0.5867
  152MOL0     C19978   2.744  10.631   8.200 -0.3052 -0.6839 -0.9223
  152MOL0     O19979   2.484  10.592   7.896  0.0813  0.8863  0.2945
  152MOL0     C19980   2.790  10.598   7.713 -0.0938  0.1882 -0.0797
  152MOL0     C19981   2.834  10.574   7.575  0.0780  0.5309  0.6107
  152MOL0     N19982   3.372  10.249   7.340 -0.0538  0.2594  1.1158
  152MOL0     N19983   3.416  10.158   7.262  0.2566 -0.1842  0.3710
  152MOL0     C19984   3.002   9.264   6.585  0.0288 -0.1110 -0.7779
  152MOL0     C19985   2.926   9.242   6.460  0.1990 -0.7553  0.4223
  152MOL0     C19986   2.792   9.198   6.038  0.1017  0.0007 -0.9562
  152MOL0     C19987   2.881   9.145   5.950  0.2023 -0.1119 -0.0836
  152MOL0     C19988   2.853   9.093   5.822  0.1888  0.4514 -0.4347
  152MOL0     C19989   2.729   9.103   5.774  1.5295  0.2679 -0.5997
  152MOL0     O19990   2.699   9.066   5.645 -0.0950 -0.1201  0.8936
  152MOL0     C19991   2.565   9.059   5.609 -0.0234 -0.0070  0.1933
  152MOL0     C19992   2.547   8.981   5.482  0.1147  0.0633 -0.2329
  152MOL0     C19993   2.641   8.856   5.478 -0.8169 -1.1951  0.0896
  152MOL0     C19994   2.621   8.763   5.598  0.1056 -1.3167 -0.0076
  152MOL0     C19995   2.487   8.708   5.621 -0.6857 -1.1289 -0.7955
  152MOL0     C19996   2.389   8.644   5.654  0.0634  0.6472  0.9711
  152MOL0     C19997   2.629   9.171   5.860  0.6112  0.4372 -0.6211
  152MOL0     C19998   2.664   9.213   5.984  0.3669 -0.5689 -0.8047
  152MOL0     H19999   3.213   9.184   6.273  0.3879  1.6380 -0.2596
  152MOL0     H20000   3.317   9.223   6.472  1.2621 -1.7225  1.1061
  152MOL0     H20001   3.378   9.375   6.617  1.3280 -0.7962 -1.5925
  152MOL0     H20002   3.387   9.216   6.678 -2.7552 -0.6121 -1.2518
  152MOL0     H20003   3.524   9.387   6.820 -0.4504  0.0919 -0.2392
  152MOL0     H20004   3.406   9.283   6.905 -3.1894 -2.4004 -2.1094
  152MOL0     H20005   3.252   9.485   6.905  0.0671 -0.6285 -1.6017
  152MOL0     H20006   3.329   9.573   6.777 -0.0360  1.3303  1.0627
  152MOL0     H20007   3.489   9.510   7.013  0.8988  1.1882  0.5383
  152MOL0     H20008   3.495   9.652   6.908 -1.2343  1.6777  0.2723
  152MOL0     H20009   3.290   9.603   7.125 -0.6459  0.1000 -0.2094
  152MOL0     H20010   3.279   9.730   7.007  0.8115  0.7775  0.5638
  152MOL0     H20011   3.535   9.780   7.087  0.7637 -0.8915  0.6518
  152MOL0     H20012   3.506   9.653   7.198  4.3897  0.4371 -2.9792
  152MOL0     H20013   3.305   9.791   7.279 -0.8757 -0.9827 -3.6411
  152MOL0     H20014   3.458   9.862   7.319 -0.2464  0.2730 -1.1777
  152MOL0     H20015   3.239   9.919   7.097 -0.6498  3.2786 -0.1554
  152MOL0     H20016   3.402   9.961   7.066  1.0279  1.5018  1.8988
  152MOL0     H20017   3.107  10.071   7.275  0.8030 -1.8904 -0.2594
  152MOL0     H20018   3.188  10.406   7.462 -0.0513 -1.4867  0.9949
  152MOL0     H20019   3.176  10.259   7.557 -1.4527 -1.7051  0.6628
  152MOL0     H20020   2.944  10.342   7.515  1.2339  1.1786  1.5502
  152MOL0     H20021   2.985  10.178   7.456 -0.8398  0.1782  0.0658
  152MOL0     H20022   3.029  10.317   7.233  1.2388  0.8030  0.6724
  152MOL0     H20023   2.865  10.259   7.273 -0.7562  1.0230  0.5079
  152MOL0     H20024   2.922  10.518   7.191  1.4309 -0.9305  0.1635
  152MOL0     H20025   2.974  10.539   7.355  0.5931  1.8490 -2.2567
  152MOL0     H20026   2.554  10.469   7.432 -2.5442  0.9307  0.2242
  152MOL0     H20027   2.469  10.511   7.650 -0.2200 -0.4753 -0.2641
  152MOL0     H20028   2.434  10.720   8.092 -0.5318  3.2639  1.1357
  152MOL0     H20029   2.403  10.733   8.331  0.2163 -1.4934  0.3021
  152MOL0     H20030   2.737  10.857   8.586 -1.1885  1.8424  3.5636
  152MOL0     H20031   2.732  10.677   8.619  1.7207  1.1559 -1.4426
  152MOL0     H20032   2.586  10.904   8.753 -2.1847 -0.5604  0.0694
  152MOL0     H20033   2.729  10.816   8.812 -0.7684  2.1117  0.1440
  152MOL0     H20034   2.576  10.613   8.830 -1.3099 -2.6360 -5.5875
  152MOL0     H20035   2.446  10.726   8.757 -0.4275  1.7375  0.7530
  152MOL0     H20036   2.572  10.720   9.032 -0.7386 -2.0384  0.3826
  152MOL0     H20037   2.450  10.837   8.980 -0.8082 -0.3426  1.4568
  152MOL0     H20038   2.363  10.654   9.111 -1.7139 -1.4914  0.2778
  152MOL0     H20039   2.418  10.530   9.005 -2.7281 -1.0894 -1.9102
  152MOL0     H20040   2.270  10.597   8.833  1.5856 -1.4572  1.3571
  152MOL0     H20041   2.237  10.755   8.923  1.6268  0.6872 -1.8420
  152MOL0     H20042   2.201  10.459   8.996  0.8591 -0.2666  0.9983
  152MOL0     H20043   2.139  10.589   9.107  1.1816  0.8226 -0.0082
  152MOL0     H20044   1.970  10.654   8.930  1.5968 -0.5638 -3.9179
  152MOL0     H20045   1.941  10.503   9.009  1.4350  0.5348  1.4324
  152MOL0     H20046   2.827  10.682   8.391  3.1675  1.8628 -3.7806
  152MOL0     H20047   2.835  10.587   8.161 -1.3248  0.1759 -4.6476
  152MOL0     H20048   2.866  10.622   7.787  1.1078 -2.1299 -0.4811
  152MOL0     H20049   2.941  10.588   7.560  0.1838  2.4756  2.6283
  152MOL0     H20050   2.952   9.297   6.676  1.5856  0.3380 -0.0577
  152MOL0     H20051   2.819   9.252   6.454 -0.0006 -2.5293 -4.9442
  152MOL0     H20052   2.983   9.149   5.987  0.7530  0.2531 -1.5712
  152MOL0     H20053   2.941   9.042   5.783  1.2290  1.1436  0.8862
  152MOL0     H20054   2.529   9.158   5.579 -1.9842 -1.2101 -1.7042
  152MOL0     H20055   2.516   9.025   5.700  0.2368 -3.6769 -0.8751
  152MOL0     H20056   2.441   8.955   5.481 -0.1545  1.0502  0.9484
  152MOL0     H20057   2.559   9.032   5.386 -1.1701 -0.0160 -0.4503
  152MOL0     H20058   2.745   8.887   5.471 -1.5767  1.3611 -0.9951
  152MOL0     H20059   2.618   8.801   5.386 -1.6339 -0.4850 -0.1442
  152MOL0     H20060   2.696   8.686   5.578  0.2349 -0.6316 -2.4914
  152MOL0     H20061   2.633   8.817   5.693 -1.2514  0.8482 -1.0029
  152MOL0     H20062   2.305   8.579   5.664  1.1222 -0.9940 -0.2560
  152MOL0     H20063   2.528   9.198   5.831  1.7460  5.6938 -0.8509
  152MOL0     H20064   2.593   9.254   6.055  2.2731  0.8466  0.4025
  153MOL0     O20065   3.582   9.781  10.852 -0.4191 -0.6682  0.3326
  153MOL0     C20066   3.629   9.754  10.742 -0.5029  0.2270  0.5061
  153MOL0     O20067   3.559   9.677  10.651  0.2496  0.2853  0.8562
  153MOL0     C20068   3.425   9.643  10.673  0.6489 -0.6720  1.2401
  153MOL0     C20069   3.360   9.528  10.633  0.2688 -0.6987  0.0018
  153MOL0     C20070   3.214   9.518  10.657 -0.7936  0.3611  0.2256
  153MOL0     C20071   3.131   9.613  10.712  1.1975 -1.0075  0.4221
  153MOL0     O20072   2.998   9.619  10.731  0.5000 -0.7948 -0.3058
  153MOL0     C20073   2.916   9.529  10.648 -0.2037  0.0638 -0.5466
  153MOL0     C20074   2.921   9.555  10.499  0.5438 -0.2911 -0.7955
  153MOL0     C20075   2.933   9.710  10.475 -0.0842 -0.0555 -0.8890
  153MOL0     C20076   2.936   9.741  10.327 -0.4719  0.4227 -0.4616
  153MOL0     C20077   2.876   9.885  10.302 -0.2103  0.3843 -0.1736
  153MOL0     C20078   2.864   9.914  10.150  0.8541  0.4680 -0.3446
  153MOL0     C20079   2.851  10.057  10.111  0.0283  0.2353  0.6544
  153MOL0     C20080   2.962  10.147  10.160  0.0639  0.6744 -0.2452
  153MOL0     N20081   3.083  10.114  10.095 -0.6696  0.2954 -0.1104
  153MOL0     C20082   3.118  10.146   9.970  0.3730  0.3809 -0.5308
  153MOL0     C20083   3.236  10.083   9.952 -0.1703 -0.5244  0.7338
  153MOL0     C20084   3.308  10.099   9.824 -0.2346 -0.0376 -0.1212
  153MOL0     C20085   3.384  10.241   9.814 -0.3548 -0.1401  0.2817
  153MOL0     C20086   3.500  10.218   9.715 -1.0585 -0.2656  0.4608
  153MOL0     C20087   3.434  10.188   9.582 -0.2854  0.9332  0.2702
  153MOL0     O20088   3.382  10.056   9.566  0.1851  0.6560 -0.0170
  153MOL0     C20089   3.324  10.026   9.447  0.5996  0.5205  0.0426
  153MOL0     C20090   3.350  10.084   9.325 -0.3907  0.2433  0.6754
  153MOL0     C20091   3.295  10.034   9.206 -0.1878  0.1505  0.2641
  153MOL0     C20092   3.202   9.926   9.209  0.2293 -0.3530  0.0718
  153MOL0     C20093   3.112   9.888   9.089 -0.1602 -0.3970  0.2632
  153MOL0     O20094   3.022   9.794   9.107  0.6176  1.2933 -0.4001
  153MOL0     C20095   2.969   9.747   8.990  0.2909  0.3463  1.0954
  153MOL0     C20096   2.836   9.783   8.961  0.8288  0.0081  0.1992
  153MOL0     C20097   2.775   9.738   8.844  0.3020  0.1715 -0.2534
  153MOL0     C20098   2.838   9.642   8.760  0.7695 -0.1691 -0.9686
  153MOL0     O20099   2.754   9.581   8.663  0.9426 -0.6138 -0.1445
  153MOL0     C20100   2.795   9.566   8.525  0.5107 -0.0113  0.1899
  153MOL0     C20101   2.696   9.469   8.462  0.3614  0.0623  0.5062
  153MOL0     C20102   2.741   9.428   8.316 -0.7349 -0.9169 -0.1827
  153MOL0     C20103   2.735   9.547   8.212 -0.3831 -0.3219 -0.7135
  153MOL0     C20104   2.756   9.500   8.066  0.1537 -0.4243  0.6324
  153MOL0     C20105   2.852   9.382   8.052 -0.8648 -0.3689  0.4752
  153MOL0     C20106   2.857   9.319   7.910  0.0581  1.0891 -0.5938
  153MOL0     C20107   2.938   9.382   7.805  0.5094 -0.0278  0.5636
  153MOL0    Cl20108   3.113   9.334   7.804  0.5559 -0.4393  0.1204
  153MOL0     C20109   2.970   9.616   8.787  0.2882 -0.3377  0.2218
  153MOL0     C20110   3.033   9.659   8.904 -0.0502 -0.1915  0.3314
  153MOL0     O20111   3.141   9.939   8.978  0.2502 -0.8946  0.0240
  153MOL0     C20112   3.182   9.859   9.335 -0.7621  0.2913 -1.5104
  153MOL0     C20113   3.243   9.908   9.448 -0.5087 -1.1866  0.1715
  153MOL0     N20114   3.256  10.000  10.054 -0.3528 -0.0128  0.5105
  153MOL0     N20115   3.181  10.024  10.145  0.3839 -0.7250  0.3557
  153MOL0     C20116   3.196   9.727  10.752 -0.5875  0.1632 -1.1941
  153MOL0     C20117   3.332   9.738  10.734 -0.7876  0.3828 -0.6274
  153MOL0     C20118   3.765   9.774  10.706 -0.9282 -0.7546 -0.0534
  153MOL0     C20119   3.849   9.884  10.755 -0.2159  0.1356  0.2699
  153MOL0     C20120   3.968   9.924  10.689 -0.6362  0.3182  0.6213
  153MOL0     C20121   4.018   9.841  10.588  0.8411  0.1696 -0.1105
  153MOL0     O20122   4.146   9.880  10.541 -0.3042  0.6928 -0.3761
  153MOL0     C20123   4.222   9.804  10.441 -0.9576 -0.8905  1.9394
  153MOL0     C20124   4.152   9.810  10.303 -0.4543 -0.3966  0.3698
  153MOL0     C20125   4.217   9.734  10.192 -0.2681 -0.5391 -0.2895
  153MOL0     C20126   4.364   9.769  10.164  0.5198  0.0776 -0.6234
  153MOL0     C20127   4.377   9.905  10.102  0.0188  0.0128  0.2771
  153MOL0     C20128   4.377  10.018  10.048 -0.6752  0.1857 -0.1957
  153MOL0     C20129   3.947   9.725  10.551 -0.3955  0.0270 -0.5104
  153MOL0     C20130   3.825   9.692  10.606 -0.0715 -0.3013  0.5441
  153MOL0     H20131   3.412   9.445  10.587  1.7837 -0.6689  1.5501
  153MOL0     H20132   3.176   9.431  10.603  3.6519 -2.0273  0.4351
  153MOL0     H20133   2.812   9.554  10.668 -0.3559  0.5696 -1.8870
  153MOL0     H20134   2.930   9.424  10.675  1.6688  0.7220  1.4299
  153MOL0     H20135   2.823   9.534  10.454 -0.3001  3.5029 -1.0975
  153MOL0     H20136   3.006   9.500  10.457  1.1130 -1.3828  1.6067
  153MOL0     H20137   3.027   9.743  10.520 -1.4382  2.2801  0.4570
  153MOL0     H20138   2.866   9.771  10.537  0.3916  0.6062 -1.0138
  153MOL0     H20139   3.039   9.733  10.292  0.3156  0.6333  1.6629
  153MOL0     H20140   2.871   9.679  10.265 -1.4784  1.2595 -0.2851
  153MOL0     H20141   2.945   9.960  10.341  1.4850 -1.0055 -0.3627
  153MOL0     H20142   2.778   9.897  10.349 -0.0929 -4.1218  1.7156
  153MOL0     H20143   2.774   9.866  10.112  0.2552  0.9612  0.4296
  153MOL0     H20144   2.950   9.862  10.106  1.0996 -0.5777  1.2904
  153MOL0     H20145   2.857  10.049  10.002  3.4552  1.0334  0.6511
  153MOL0     H20146   2.758  10.109  10.138 -1.4293  0.8189 -4.4327
  153MOL0     H20147   2.978  10.143  10.268 -1.7676  0.2121  0.0325
  153MOL0     H20148   2.940  10.254  10.153 -3.4385  0.0425 -0.9577
  153MOL0     H20149   3.074  10.224   9.908 -0.1451  1.3163  0.9631
  153MOL0     H20150   3.233  10.090   9.745 -1.4750  0.9230  0.9042
  153MOL0     H20151   3.382  10.018   9.830  0.8162  0.9035  0.0464
  153MOL0     H20152   3.429  10.257   9.913  1.2031  1.3328 -0.6253
  153MOL0     H20153   3.316  10.324   9.792  0.7442  0.6377 -0.2431
  153MOL0     H20154   3.562  10.308   9.705 -1.8278  0.5677  2.5711
  153MOL0     H20155   3.573  10.141   9.740  0.3232  0.6582 -0.5522
  153MOL0     H20156   3.516  10.207   9.511 -0.9266  0.6806 -0.5477
  153MOL0     H20157   3.358  10.266   9.573 -2.2203 -0.7206  1.4158
  153MOL0     H20158   3.415  10.169   9.307 -1.8850  0.7834 -2.9263
  153MOL0     H20159   3.308  10.075   9.106 -1.2436  0.9046  0.4190
  153MOL0     H20160   2.784   9.839   9.038  0.8248 -0.5627  0.6216
  153MOL0     H20161   2.675   9.778   8.829  0.5538  0.5702 -0.9088
  153MOL0     H20162   2.893   9.518   8.528  0.7735  0.4985 -0.0429
  153MOL0     H20163   2.794   9.665   8.478 -3.0846  0.0471  0.1220
  153MOL0     H20164   2.598   9.514   8.442 -0.7940 -1.4097  2.4591
  153MOL0     H20165   2.682   9.381   8.525  2.2359  0.0074  0.9193
  153MOL0     H20166   2.665   9.356   8.282  0.3525 -1.7647 -0.8899
  153MOL0     H20167   2.839   9.379   8.317 -0.0004  0.5017  1.4498
  153MOL0     H20168   2.640   9.598   8.225  0.2615  0.4987  1.3174
  153MOL0     H20169   2.811   9.622   8.238 -1.5297  0.7352 -0.3529
  153MOL0     H20170   2.801   9.581   8.008  1.4492 -0.9575  0.8370
  153MOL0     H20171   2.660   9.466   8.028  0.2404 -0.8942  0.8179
  153MOL0     H20172   2.836   9.300   8.123  0.3116 -0.1093  1.0631
  153MOL0     H20173   2.942   9.425   8.097 -0.8836 -0.9299  1.0775
  153MOL0     H20174   2.887   9.214   7.920 -1.3802  0.5705 -1.4685
  153MOL0     H20175   2.752   9.314   7.881 -0.1732 -0.6470  0.4275
  153MOL0     H20176   2.939   9.491   7.806 -0.0400  0.0014 -0.3933
  153MOL0     H20177   2.890   9.367   7.707 -0.9518  0.3798  1.1935
  153MOL0     H20178   3.026   9.547   8.723 -1.1262 -1.2246 -0.1174
  153MOL0     H20179   3.137   9.640   8.928 -0.3385  1.0268  2.9264
  153MOL0     H20180   3.118   9.771   9.336 -0.3804  0.0057 -1.7881
  153MOL0     H20181   3.220   9.855   9.540 -0.2066 -0.3503  0.7459
  153MOL0     H20182   3.132   9.797  10.807  0.8392  2.0163 -1.7906
  153MOL0     H20183   3.371   9.835  10.762  1.3199 -0.3585 -0.8197
  153MOL0     H20184   3.822   9.938  10.846 -3.2073  2.5248 -1.8033
  153MOL0     H20185   4.034  10.002  10.725  0.8219 -0.4555 -0.2767
  153MOL0     H20186   4.234   9.705  10.485 -0.7916 -1.1639  1.2989
  153MOL0     H20187   4.321   9.849  10.426 -0.3095 -3.2947 -3.5065
  153MOL0     H20188   4.044   9.800  10.310 -0.5979  0.9161  0.1995
  153MOL0     H20189   4.154   9.916  10.275 -1.3154 -0.7457 -1.1392
  153MOL0     H20190   4.169   9.736  10.093  1.9214 -2.0289 -1.4920
  153MOL0     H20191   4.216   9.629  10.221 -0.1232 -1.0245 -1.9050
  153MOL0     H20192   4.441   9.764  10.241  0.2367 -1.2941 -0.4079
  153MOL0     H20193   4.400   9.698  10.089  0.6810  0.1273 -0.5924
  153MOL0     H20194   4.390  10.115  10.005 -0.4955 -0.7450 -2.3474
  153MOL0     H20195   3.992   9.660  10.476 -1.2824 -1.3512  0.1028
  153MOL0     H20196   3.788   9.592  10.583 -0.7799 -0.4882  2.2857
  154MOL0     O20197   4.907   3.597   1.528  0.0306 -0.7200  0.4996
  154MOL0     C20198   5.016   3.554   1.519 -0.5197  0.0516 -0.5610
  154MOL0     O20199   5.058   3.420   1.515 -0.4439  0.1472  0.3787
  154MOL0     C20200   4.959   3.330   1.513 -0.7752  0.7344  0.3811
  154MOL0     C20201   4.900   3.290   1.632  0.5400 -0.1345  0.1974
  154MOL0     C20202   4.793   3.202   1.624  1.3585  0.0472  0.3144
  154MOL0     C20203   4.754   3.133   1.497  0.5499 -0.8116 -0.2949
  154MOL0     O20204   4.658   3.041   1.479 -0.0557 -1.3121  0.9514
  154MOL0     C20205   4.535   3.048   1.563 -0.6452 -1.0779  0.0123
  154MOL0     C20206   4.430   2.943   1.512  0.8755  0.2423 -0.7419
  154MOL0     C20207   4.495   2.802   1.505 -0.2770 -0.8849  0.1067
  154MOL0     C20208   4.424   2.689   1.441  0.6529 -0.6397 -0.0658
  154MOL0     C20209   4.332   2.616   1.538  0.1942  0.0933  0.6894
  154MOL0     C20210   4.237   2.523   1.470 -0.2986  0.6365 -0.0525
  154MOL0     C20211   4.134   2.463   1.580  0.1313  0.4714  0.0275
  154MOL0     C20212   4.022   2.399   1.497  0.6756 -0.2970  0.7663
  154MOL0     N20213   3.913   2.343   1.576  0.1528 -0.1959 -0.6817
  154MOL0     C20214   3.835   2.425   1.649 -0.0821  0.5395  0.1353
  154MOL0     C20215   3.760   2.337   1.727 -0.5701  0.6389 -0.0437
  154MOL0     C20216   3.645   2.369   1.824 -0.1403  0.1743 -0.1279
  154MOL0     C20217   3.547   2.456   1.749  0.4333 -0.0062 -0.3677
  154MOL0     C20218   3.441   2.511   1.850 -0.2580  0.5438 -0.3385
  154MOL0     C20219   3.332   2.580   1.780  0.7765 -0.8114  0.0257
  154MOL0     O20220   3.381   2.680   1.686  0.4162  0.4075 -0.3413
  154MOL0     C20221   3.453   2.790   1.734 -0.0944 -0.0344 -0.7921
  154MOL0     C20222   3.570   2.826   1.670  0.4083  0.1917  0.1075
  154MOL0     C20223   3.628   2.949   1.702  0.2700  1.2768 -0.7007
  154MOL0     C20224   3.588   3.022   1.801  0.8975  0.4388 -0.4931
  154MOL0     C20225   3.661   3.145   1.840  0.8025  0.0622  0.1273
  154MOL0     O20226   3.650   3.197   1.964 -0.3705  0.1240 -0.0311
  154MOL0     C20227   3.718   3.312   1.993 -1.2084  0.1369 -0.5278
  154MOL0     C20228   3.847   3.354   1.948  0.2917 -1.0516  0.3558
  154MOL0     C20229   3.899   3.476   1.974 -0.4937  0.4084  0.2315
  154MOL0     C20230   3.839   3.562   2.064  1.2751 -0.1673  0.3448
  154MOL0     O20231   3.899   3.682   2.083  0.3740 -0.3661 -0.8548
  154MOL0     C20232   3.829   3.777   2.175 -0.6470  0.1904  1.3510
  154MOL0     C20233   3.935   3.872   2.225 -0.7455 -0.7966 -0.0431
  154MOL0     C20234   3.886   3.997   2.292 -0.0641 -0.0366  0.2960
  154MOL0     C20235   3.990   4.088   2.370 -0.3643  0.4430  0.8053
  154MOL0     C20236   3.944   4.234   2.387 -0.2199 -0.2006 -0.4462
  154MOL0     C20237   4.011   4.284   2.511  0.1206 -0.5386  0.1341
  154MOL0     C20238   3.963   4.414   2.577 -0.3261  0.3040 -0.1924
  154MOL0     C20239   3.977   4.531   2.474  1.1932 -0.1430  0.4504
  154MOL0    Cl20240   4.029   4.671   2.558  0.2389  0.2736  0.3225
  154MOL0     C20241   3.711   3.526   2.118 -0.1104  0.7237  0.0189
  154MOL0     C20242   3.660   3.399   2.075  0.3121 -0.9167 -0.5372
  154MOL0     O20243   3.714   3.201   1.751 -0.1378 -0.2859  0.3975
  154MOL0     C20244   3.475   2.989   1.870 -1.2890 -0.4618 -0.0192
  154MOL0     C20245   3.409   2.874   1.840 -1.1417  0.2739  1.4524
  154MOL0     N20246   3.788   2.205   1.693 -0.6634  0.0393  0.2471
  154MOL0     N20247   3.878   2.211   1.598 -0.3278 -0.0847  0.6130
  154MOL0     C20248   4.821   3.177   1.387 -0.3767  0.0993  0.4067
  154MOL0     C20249   4.924   3.264   1.386 -0.3544 -0.8249 -1.1116
  154MOL0     C20250   5.133   3.651   1.526 -0.5981 -0.6256 -1.3351
  154MOL0     C20251   5.115   3.780   1.578 -0.0508  0.0814 -0.1158
  154MOL0     C20252   5.224   3.872   1.577  0.2938 -0.1161  0.0965
  154MOL0     C20253   5.348   3.823   1.531 -0.3547  0.7616  0.2056
  154MOL0     O20254   5.457   3.911   1.528  0.0541  0.5858  0.5189
  154MOL0     C20255   5.458   4.013   1.424 -0.5787  0.3516 -0.0687
  154MOL0     C20256   5.464   3.957   1.283 -0.4373  0.0513  0.2561
  154MOL0     C20257   5.606   3.902   1.270 -0.9383  0.3129  0.2543
  154MOL0     C20258   5.619   3.834   1.134 -0.5845  0.0272 -1.0550
  154MOL0     C20259   5.557   3.892   1.017  0.8406 -1.0053  0.2878
  154MOL0     C20260   5.500   3.952   0.927 -0.3593 -0.5393  0.5889
  154MOL0     C20261   5.369   3.693   1.493  1.1478  0.4037 -0.2026
  154MOL0     C20262   5.263   3.599   1.486  0.3776 -0.1101 -0.7526
  154MOL0     H20263   4.927   3.341   1.724  0.4280 -3.1541  2.0123
  154MOL0     H20264   4.751   3.181   1.722 -0.7529  2.7575  0.1142
  154MOL0     H20265   4.490   3.148   1.557  2.7276  0.5467 -0.3766
  154MOL0     H20266   4.559   3.028   1.668 -0.2716  1.2438  0.4301
  154MOL0     H20267   4.404   2.979   1.412  0.8224 -0.1433 -0.8643
  154MOL0     H20268   4.337   2.931   1.568  1.2472 -3.7589 -0.6995
  154MOL0     H20269   4.526   2.766   1.604  0.0572 -0.1970  0.2559
  154MOL0     H20270   4.588   2.814   1.449  0.8711  2.5607  2.4614
  154MOL0     H20271   4.365   2.737   1.361 -0.5854 -2.0319 -0.0374
  154MOL0     H20272   4.499   2.619   1.402  0.0947 -0.5142 -1.4508
  154MOL0     H20273   4.272   2.689   1.595 -1.7679 -0.9475  0.0485
  154MOL0     H20274   4.391   2.564   1.614  1.1018  2.7708  1.9534
  154MOL0     H20275   4.292   2.448   1.413 -0.9960 -0.5117  0.7398
  154MOL0     H20276   4.178   2.580   1.397 -1.1049 -1.2113 -0.8884
  154MOL0     H20277   4.186   2.393   1.646 -0.3966  1.2576  1.3155
  154MOL0     H20278   4.097   2.534   1.654 -0.7317 -0.6790  0.7369
  154MOL0     H20279   4.074   2.317   1.448  1.6576 -1.5152  3.6279
  154MOL0     H20280   3.987   2.471   1.423  0.0380 -2.1627 -0.8357
  154MOL0     H20281   3.827   2.532   1.668 -4.0397  0.4099 -0.1706
  154MOL0     H20282   3.668   2.412   1.921 -0.2141  0.9045 -0.4296
  154MOL0     H20283   3.583   2.282   1.845  0.3136 -0.3102 -0.7525
  154MOL0     H20284   3.505   2.390   1.672  0.8970  0.1336 -0.7473
  154MOL0     H20285   3.600   2.541   1.705  0.7477 -0.2163 -0.3962
  154MOL0     H20286   3.392   2.430   1.904 -0.0431  1.0120  0.5781
  154MOL0     H20287   3.491   2.585   1.913  2.2744  1.4415 -3.1429
  154MOL0     H20288   3.280   2.633   1.860  0.3282 -3.2903  1.4694
  154MOL0     H20289   3.255   2.515   1.738 -0.2422  1.3758 -1.6549
  154MOL0     H20290   3.616   2.789   1.579 -0.7333  5.1624 -2.9321
  154MOL0     H20291   3.709   2.990   1.642 -0.3308 -0.3034 -2.7098
  154MOL0     H20292   3.897   3.294   1.873 -5.1116 -2.3550 -2.7357
  154MOL0     H20293   3.983   3.516   1.919 -2.0867  3.8266  0.0181
  154MOL0     H20294   3.786   3.729   2.264 -1.8871  0.3216  0.8455
  154MOL0     H20295   3.755   3.832   2.117  0.4780  0.2895 -0.0282
  154MOL0     H20296   4.015   3.893   2.154  0.9329  1.1682  2.2371
  154MOL0     H20297   3.991   3.821   2.304  3.1942  1.1623 -1.3415
  154MOL0     H20298   3.805   3.969   2.359  0.9466  0.6997  1.8870
  154MOL0     H20299   3.851   4.063   2.212  2.8738 -1.4434 -2.3856
  154MOL0     H20300   4.007   4.045   2.469 -1.0148 -2.2041 -0.1328
  154MOL0     H20301   4.085   4.081   2.316 -1.3545 -0.1240 -0.9697
  154MOL0     H20302   3.835   4.243   2.400 -0.0694  1.3149 -0.0914
  154MOL0     H20303   3.969   4.292   2.297  2.3889 -2.1234 -1.0665
  154MOL0     H20304   4.116   4.293   2.484 -0.4690 -0.8788 -2.6667
  154MOL0     H20305   4.004   4.212   2.593 -0.7714  0.7390  1.2156
  154MOL0     H20306   3.860   4.397   2.608 -0.8442 -0.7836 -2.3052
  154MOL0     H20307   4.036   4.422   2.658  2.5019  1.1309 -2.6374
  154MOL0     H20308   3.877   4.548   2.433  0.8941  1.9492  1.8799
  154MOL0     H20309   4.037   4.509   2.386 -1.5631 -0.8396 -1.3955
  154MOL0     H20310   3.644   3.577   2.186 -1.1468 -0.0276 -0.4196
  154MOL0     H20311   3.560   3.373   2.109  0.3514 -0.3241  0.0507
  154MOL0     H20312   3.441   3.046   1.956  2.5526  0.4873  1.0601
  154MOL0     H20313   3.322   2.860   1.904 -2.4525  2.8366  0.3916
  154MOL0     H20314   4.796   3.132   1.291 -0.7278  1.9765 -0.4162
  154MOL0     H20315   4.971   3.303   1.296 -4.1081  0.2970 -2.7721
  154MOL0     H20316   5.013   3.805   1.607 -0.6137 -0.8820 -1.1975
  154MOL0     H20317   5.224   3.970   1.623  2.9080 -0.5310  1.1337
  154MOL0     H20318   5.534   4.091   1.431 -0.2902  0.7189 -4.3089
  154MOL0     H20319   5.364   4.066   1.441  0.9165  2.6928  1.5171
  154MOL0     H20320   5.394   3.876   1.262  0.7091 -0.1408 -3.5959
  154MOL0     H20321   5.454   4.046   1.220  1.2416 -0.8341 -1.3629
  154MOL0     H20322   5.614   3.824   1.347 -0.0655  0.4347  0.2884
  154MOL0     H20323   5.678   3.983   1.281 -1.0944  0.5252 -0.2748
  154MOL0     H20324   5.725   3.822   1.111 -0.2512 -2.5242  1.2120
  154MOL0     H20325   5.581   3.731   1.142  1.8172 -0.7803  1.8989
  154MOL0     H20326   5.457   4.000   0.842 -1.0187 -1.3958  0.4289
  154MOL0     H20327   5.468   3.664   1.460  0.1491 -1.1173 -1.9830
  154MOL0     H20328   5.287   3.500   1.450  2.0965  0.4185 -1.1748
  155MOL0     O20329   2.431   6.962   5.888 -0.6058  0.9133 -0.5265
  155MOL0     C20330   2.478   7.045   5.961  1.0846  0.1368 -0.4472
  155MOL0     O20331   2.599   7.045   6.032  0.5233  0.5390 -0.0070
  155MOL0     C20332   2.657   6.922   6.044  0.8080  0.8898 -0.6463
  155MOL0     C20333   2.690   6.861   6.174 -0.1716  0.5927  2.1372
  155MOL0     C20334   2.750   6.732   6.195 -0.0105 -0.9067  0.7604
  155MOL0     C20335   2.773   6.649   6.082  0.0076 -0.7319  0.1250
  155MOL0     O20336   2.824   6.524   6.107 -0.2469 -0.6030  0.2788
  155MOL0     C20337   2.793   6.423   6.008 -0.5586 -0.4316  0.2378
  155MOL0     C20338   2.848   6.286   6.056  0.1897  0.2565 -0.5579
  155MOL0     C20339   2.740   6.203   6.120  0.7032  0.7373  0.1932
  155MOL0     C20340   2.640   6.279   6.203  0.1027  0.2904 -0.1425
  155MOL0     C20341   2.519   6.181   6.243  0.0644 -0.1613 -0.4251
  155MOL0     C20342   2.423   6.141   6.134  0.3165 -0.8418  0.4267
  155MOL0     C20343   2.296   6.083   6.184  0.0764  0.3179 -0.1320
  155MOL0     C20344   2.213   6.007   6.082  0.0882  0.1610 -0.8667
  155MOL0     N20345   2.083   5.964   6.136  0.4010 -0.4715 -0.6574
  155MOL0     C20346   2.014   5.845   6.121  0.2643 -0.8472  0.0357
  155MOL0     C20347   1.893   5.862   6.181  0.4285  0.8219 -0.2821
  155MOL0     C20348   1.790   5.753   6.181 -0.7800 -0.2539 -0.5211
  155MOL0     C20349   1.744   5.710   6.044 -0.6601  0.6377 -0.2504
  155MOL0     C20350   1.626   5.796   5.989  0.7875  0.9518 -0.7801
  155MOL0     C20351   1.581   5.750   5.852 -0.3900 -0.2207 -0.1303
  155MOL0     O20352   1.688   5.717   5.765 -0.1273 -0.3336  0.2394
  155MOL0     C20353   1.737   5.809   5.684  0.4972  0.1941 -0.1892
  155MOL0     C20354   1.711   5.796   5.550  0.3612 -0.3729  0.0939
  155MOL0     C20355   1.736   5.901   5.461 -0.4994 -0.4767 -0.0408
  155MOL0     C20356   1.821   6.001   5.492 -1.6235 -0.7944  0.6169
  155MOL0     C20357   1.851   6.105   5.398  0.0447 -0.4312  0.0531
  155MOL0     O20358   1.865   6.236   5.444 -0.5942  0.2570  0.1453
  155MOL0     C20359   1.878   6.330   5.345  0.9855  0.8597 -0.2553
  155MOL0     C20360   1.981   6.340   5.264 -0.1480  0.2876  0.6718
  155MOL0     C20361   1.978   6.453   5.171 -1.1469  0.2355  0.3055
  155MOL0     C20362   1.879   6.551   5.170 -0.3203 -0.6048  0.1517
  155MOL0     O20363   1.898   6.655   5.087 -0.1554  0.1470 -0.1276
  155MOL0     C20364   1.801   6.761   5.072 -0.6725  1.0826 -0.4348
  155MOL0     C20365   1.873   6.872   5.005 -0.0706 -0.4694 -0.6699
  155MOL0     C20366   1.767   6.968   4.948  0.2628  0.5352  0.0187
  155MOL0     C20367   1.654   7.008   5.052  0.4879 -0.8282  0.2164
  155MOL0     C20368   1.561   7.133   4.997  0.2379 -0.0616  0.3881
  155MOL0     C20369   1.475   7.196   5.117 -0.2337  0.9874  0.4402
  155MOL0     C20370   1.554   7.269   5.213 -0.4196 -0.0924  0.2085
  155MOL0     C20371   1.505   7.257   5.362 -0.4780 -0.6786 -0.2863
  155MOL0    Cl20372   1.591   7.388   5.457  0.4491  0.0151  0.3221
  155MOL0     C20373   1.779   6.537   5.267 -0.5725 -0.7119 -0.6212
  155MOL0     C20374   1.778   6.431   5.359 -0.7691 -0.7634 -0.3433
  155MOL0     O20375   1.848   6.068   5.281  0.0052  0.4791  1.1034
  155MOL0     C20376   1.867   6.007   5.635 -0.1282 -0.6029 -0.6363
  155MOL0     C20377   1.810   5.919   5.732 -0.4786  0.6336  0.5942
  155MOL0     N20378   1.888   5.986   6.228  0.3343 -1.1004 -0.6525
  155MOL0     N20379   1.999   6.045   6.211 -0.0836  0.0244  0.6600
  155MOL0     C20380   2.740   6.702   5.956  0.1845 -1.4485 -0.0706
  155MOL0     C20381   2.695   6.837   5.939 -0.1065 -0.2998 -0.5803
  155MOL0     C20382   2.388   7.164   5.977 -0.4634 -0.1064  0.5846
  155MOL0     C20383   2.413   7.270   6.066  0.0818  0.3378 -0.0018
  155MOL0     C20384   2.335   7.386   6.074  0.2564 -0.1073  0.2021
  155MOL0     C20385   2.227   7.395   5.997  0.8501 -0.1997  0.3572
  155MOL0     O20386   2.133   7.497   6.003 -0.0359 -0.3425 -0.3488
  155MOL0     C20387   2.156   7.603   6.101 -0.6076  0.5426 -1.7020
  155MOL0     C20388   2.101   7.735   6.055 -0.3978 -0.4849  0.4010
  155MOL0     C20389   1.944   7.756   6.052 -0.5511  0.1821  0.1590
  155MOL0     C20390   1.905   7.903   6.005  0.6068  0.3344 -0.6517
  155MOL0     C20391   1.761   7.921   5.966  0.5034  1.2794  0.2123
  155MOL0     C20392   1.646   7.958   5.959  0.0573  0.0746  0.1173
  155MOL0     C20393   2.194   7.301   5.914 -0.7023  0.2251  1.1220
  155MOL0     C20394   2.271   7.183   5.904  0.8039 -0.0881  1.0244
  155MOL0     H20395   2.661   6.929   6.254  0.6977  1.9030  1.3755
  155MOL0     H20396   2.773   6.698   6.296 -1.2713  0.8148  1.6779
  155MOL0     H20397   2.847   6.451   5.918 -2.1064 -1.0031 -0.9244
  155MOL0     H20398   2.691   6.427   5.967  0.0942  2.0618 -1.3477
  155MOL0     H20399   2.926   6.303   6.131  0.8422 -3.1494 -0.2902
  155MOL0     H20400   2.895   6.227   5.977  2.6092 -1.0851  1.7391
  155MOL0     H20401   2.784   6.113   6.164 -0.0259 -1.5534 -3.2649
  155MOL0     H20402   2.679   6.160   6.039  1.0302  0.1825  0.2369
  155MOL0     H20403   2.691   6.334   6.283  2.7357 -0.4206 -1.2635
  155MOL0     H20404   2.589   6.359   6.148  0.3216 -0.7628 -1.9510
  155MOL0     H20405   2.464   6.237   6.319  1.8214  0.3354  0.5398
  155MOL0     H20406   2.558   6.092   6.292 -1.0114 -0.4693 -0.1086
  155MOL0     H20407   2.467   6.061   6.074 -2.2929 -1.2660 -1.0665
  155MOL0     H20408   2.395   6.235   6.086 -1.6522 -1.6212 -0.0607
  155MOL0     H20409   2.327   6.011   6.261 -2.2140 -0.0054  0.5521
  155MOL0     H20410   2.232   6.156   6.234  2.6381  1.8829  1.1243
  155MOL0     H20411   2.280   5.932   6.039  3.1192  1.5785  1.0470
  155MOL0     H20412   2.191   6.079   6.003  0.9938  3.5337  1.6974
  155MOL0     H20413   2.056   5.757   6.072  1.5332 -0.2424  0.0067
  155MOL0     H20414   1.716   5.765   6.260 -0.1208 -3.3122  0.7454
  155MOL0     H20415   1.836   5.668   6.234 -1.0602  0.2937  0.6296
  155MOL0     H20416   1.714   5.606   6.061  1.7675 -0.1718 -0.4743
  155MOL0     H20417   1.824   5.709   5.969 -0.2733 -4.0962 -0.0530
  155MOL0     H20418   1.537   5.800   6.052 -0.3378  3.7976 -2.4141
  155MOL0     H20419   1.654   5.901   5.980 -4.4612  2.7942  0.9036
  155MOL0     H20420   1.496   5.803   5.809 -1.0702 -1.1141  0.0880
  155MOL0     H20421   1.541   5.649   5.865  0.9935 -0.6612  0.9808
  155MOL0     H20422   1.649   5.712   5.522 -2.6516  0.7493  2.7291
  155MOL0     H20423   1.694   5.906   5.362 -0.3999  0.7022 -0.0409
  155MOL0     H20424   2.049   6.256   5.261 -0.1667  0.2718  0.6796
  155MOL0     H20425   2.052   6.462   5.092  0.1331 -0.1267  1.4281
  155MOL0     H20426   1.788   6.805   5.171 -0.5285  2.3984 -0.9837
  155MOL0     H20427   1.708   6.729   5.023 -0.3458 -0.0472 -0.3499
  155MOL0     H20428   1.938   6.847   4.920 -3.5794 -1.4377 -3.3318
  155MOL0     H20429   1.931   6.920   5.084  1.0048 -1.7051 -0.6731
  155MOL0     H20430   1.707   6.918   4.871 -2.5947  1.4832  1.4981
  155MOL0     H20431   1.819   7.056   4.908 -0.3703  1.7356  1.7304
  155MOL0     H20432   1.602   6.912   5.059  0.9144 -1.1833 -1.1646
  155MOL0     H20433   1.699   7.035   5.148 -1.4189  1.3384  0.5726
  155MOL0     H20434   1.494   7.088   4.923  2.2649 -2.6852  0.0015
  155MOL0     H20435   1.621   7.214   4.955 -2.4437  2.5799  1.3156
  155MOL0     H20436   1.410   7.118   5.157  0.8580  0.5080  1.3341
  155MOL0     H20437   1.419   7.269   5.057  2.0962  0.3091 -2.8396
  155MOL0     H20438   1.658   7.235   5.221 -0.4270  0.3119  6.1004
  155MOL0     H20439   1.549   7.373   5.179  1.0228 -0.7773 -2.3705
  155MOL0     H20440   1.536   7.160   5.402  1.8632 -0.0329 -0.3566
  155MOL0     H20441   1.397   7.273   5.363 -0.3404  0.3456  1.3409
  155MOL0     H20442   1.708   6.619   5.275  0.8317  0.7258 -2.0491
  155MOL0     H20443   1.707   6.430   5.441 -0.1338 -0.6279  0.2168
  155MOL0     H20444   1.936   6.081   5.673 -2.9542  1.6051  0.5552
  155MOL0     H20445   1.827   5.920   5.840 -2.1528 -1.2105  0.9204
  155MOL0     H20446   2.750   6.639   5.868 -1.5402  1.2411 -2.4029
  155MOL0     H20447   2.692   6.881   5.839  3.7250  1.6808  0.0052
  155MOL0     H20448   2.494   7.274   6.138 -0.7386 -5.3862  1.7221
  155MOL0     H20449   2.360   7.463   6.146  0.3935  0.3763 -0.3538
  155MOL0     H20450   2.262   7.621   6.125 -1.2003 -0.8091  2.9532
  155MOL0     H20451   2.104   7.580   6.195 -2.8964  0.4238 -2.9449
  155MOL0     H20452   2.140   7.815   6.119  0.0661 -1.3406  1.1980
  155MOL0     H20453   2.114   7.753   5.948 -0.3757  1.5688  0.7093
  155MOL0     H20454   1.903   7.732   6.150 -1.8812 -2.8902 -0.9997
  155MOL0     H20455   1.898   7.678   5.990 -2.0156 -1.9630  3.6541
  155MOL0     H20456   1.919   7.970   6.090 -0.4428 -0.0750 -0.1406
  155MOL0     H20457   1.956   7.929   5.911 -0.9051  2.2534 -1.0251
  155MOL0     H20458   1.545   7.985   5.938  0.2933 -0.5166 -2.0768
  155MOL0     H20459   2.104   7.314   5.854  0.5211  1.4678 -0.5486
  155MOL0     H20460   2.246   7.107   5.830  2.0717 -0.1500  0.6356
  156MOL0     O20461   3.451   2.066  11.300  0.2792  0.3622 -0.0283
  156MOL0     C20462   3.381   2.152  11.339 -0.1454 -0.0584  0.7064
  156MOL0     O20463   3.403   2.230  11.446  0.7008  0.5501 -0.4486
  156MOL0     C20464   3.519   2.233  11.519 -0.2690 -1.2301  0.8203
  156MOL0     C20465   3.586   2.113  11.539  0.5839  0.6825 -0.4396
  156MOL0     C20466   3.715   2.115  11.590 -0.1079 -0.0486  0.6224
  156MOL0     C20467   3.764   2.231  11.645 -0.4305  0.2135  0.3002
  156MOL0     O20468   3.892   2.232  11.694 -1.0167 -1.0746  0.0732
  156MOL0     C20469   3.899   2.215  11.835  0.0780  0.0205 -0.6128
  156MOL0     C20470   3.865   2.330  11.930 -0.5266 -0.7535  0.0140
  156MOL0     C20471   3.722   2.297  11.990  1.3727 -0.1727  0.6549
  156MOL0     C20472   3.647   2.418  12.049 -0.1277  0.4396 -0.6525
  156MOL0     C20473   3.540   2.352  12.147  0.1684  0.3296  0.4978
  156MOL0     C20474   3.479   2.478  12.225 -0.2205  0.2002  0.7790
  156MOL0     C20475   3.366   2.443  12.327  0.6470  0.3623  0.3786
  156MOL0     C20476   3.293   2.564  12.376  0.2860 -0.1372  0.1389
  156MOL0     N20477   3.195   2.606  12.283  0.2351  0.0137  0.3001
  156MOL0     C20478   3.089   2.533  12.239  1.0967 -0.0377 -0.7311
  156MOL0     C20479   3.021   2.615  12.145  0.1954  0.8852 -1.5228
  156MOL0     C20480   2.918   2.582  12.053 -0.2695 -0.9623  0.6007
  156MOL0     C20481   2.797   2.678  12.063  0.5715 -0.1477 -0.9377
  156MOL0     C20482   2.697   2.629  12.165  1.2436 -0.4878  0.7547
  156MOL0     C20483   2.572   2.567  12.112  0.0551  0.9600  0.2893
  156MOL0     O20484   2.598   2.468  12.016  0.4064 -0.2908 -0.1324
  156MOL0     C20485   2.509   2.448  11.911 -0.6035 -0.0688 -0.0132
  156MOL0     C20486   2.384   2.502  11.911  0.5417 -0.5249 -0.2294
  156MOL0     C20487   2.299   2.499  11.798 -0.5595 -0.1437  0.2832
  156MOL0     C20488   2.330   2.414  11.686 -0.7800 -0.8624  0.1832
  156MOL0     C20489   2.241   2.398  11.578  0.9809  0.1947  0.2434
  156MOL0     O20490   2.130   2.487  11.586  0.0173  0.5171 -0.2775
  156MOL0     C20491   2.035   2.457  11.486  0.5202  0.5051  0.7996
  156MOL0     C20492   2.019   2.551  11.384 -1.1920  1.4635 -0.1371
  156MOL0     C20493   1.953   2.518  11.261 -0.0208  0.0509  0.3785
  156MOL0     C20494   1.880   2.408  11.254  0.2881  0.1688  0.7398
  156MOL0     O20495   1.817   2.356  11.139  0.2581 -0.5754  0.5515
  156MOL0     C20496   1.841   2.412  11.016 -1.7181 -0.2964 -0.0751
  156MOL0     C20497   1.760   2.550  10.984 -0.3154  0.1017  0.7115
  156MOL0     C20498   1.603   2.542  10.959 -0.1842  0.0665 -0.2648
  156MOL0     C20499   1.550   2.501  10.821 -0.0811 -0.2175 -0.4564
  156MOL0     C20500   1.397   2.488  10.826 -0.5376 -0.3541 -0.5763
  156MOL0     C20501   1.327   2.618  10.856  0.6260  0.2096  0.2094
  156MOL0     C20502   1.167   2.596  10.837  0.9440 -0.0457  0.9266
  156MOL0     C20503   1.127   2.560  10.683 -0.1340 -0.1597  0.5825
  156MOL0    Cl20504   1.165   2.708  10.590 -0.4512 -0.2945  0.4168
  156MOL0     C20505   1.880   2.314  11.361  0.5840 -0.0152  0.6163
  156MOL0     C20506   1.957   2.337  11.478 -0.2465  0.0248 -0.1374
  156MOL0     O20507   2.263   2.310  11.491  0.6978  0.3664  0.2440
  156MOL0     C20508   2.463   2.360  11.681  0.1062 -0.5758 -0.7867
  156MOL0     C20509   2.551   2.376  11.791 -1.1604 -0.3459 -0.3395
  156MOL0     N20510   3.096   2.730  12.132 -0.1155  1.1931 -0.5448
  156MOL0     N20511   3.198   2.722  12.210  0.0658 -0.0689 -0.0089
  156MOL0     C20512   3.684   2.346  11.648 -1.0504  0.1212  0.1524
  156MOL0     C20513   3.564   2.349  11.588  1.3375 -0.4846  0.2216
  156MOL0     C20514   3.262   2.172  11.261  0.3773  0.7274  0.5684
  156MOL0     C20515   3.206   2.294  11.252  0.8176  0.4806  0.1297
  156MOL0     C20516   3.084   2.326  11.176  0.0176  1.0389  0.9437
  156MOL0     C20517   3.036   2.215  11.106 -0.4667 -0.4944 -0.1682
  156MOL0     O20518   2.932   2.238  11.027  1.3078  0.5040 -0.2975
  156MOL0     C20519   2.863   2.153  10.941  0.3363 -0.2906  1.0375
  156MOL0     C20520   2.737   2.206  10.876  0.0338 -0.0329  0.6747
  156MOL0     C20521   2.749   2.361  10.830 -0.7050  0.1462 -0.1932
  156MOL0     C20522   2.625   2.434  10.829 -0.9971 -0.9786  0.2485
  156MOL0     C20523   2.534   2.362  10.742  0.1386  0.8528 -0.1451
  156MOL0     C20524   2.452   2.298  10.675  0.4041  0.5299  0.0917
  156MOL0     C20525   3.093   2.087  11.124  0.4006  0.2847 -0.0028
  156MOL0     C20526   3.199   2.069  11.196 -0.4290  0.3241  0.4554
  156MOL0     H20527   3.550   2.017  11.503 -2.5691  0.2482  3.3007
  156MOL0     H20528   3.772   2.027  11.565  0.0512  0.8366 -2.5450
  156MOL0     H20529   4.004   2.199  11.858  0.8152  1.7001 -2.5774
  156MOL0     H20530   3.849   2.122  11.865 -1.2825  0.5780 -1.0427
  156MOL0     H20531   3.853   2.423  11.875 -2.9259  1.3200  3.6198
  156MOL0     H20532   3.948   2.336  12.001  1.5938 -2.7280 -2.1202
  156MOL0     H20533   3.732   2.227  12.073  0.9927  0.1161  0.9477
  156MOL0     H20534   3.661   2.243  11.918 -0.3275  0.3649  1.6424
  156MOL0     H20535   3.710   2.469  12.122 -1.5781  0.3861  0.7021
  156MOL0     H20536   3.606   2.483  11.970  1.7475 -0.5254 -2.5238
  156MOL0     H20537   3.590   2.289  12.220  0.1607 -0.9689 -0.5773
  156MOL0     H20538   3.463   2.297  12.092  0.4671 -0.5356  0.9403
  156MOL0     H20539   3.456   2.545  12.141 -0.9930 -1.2866 -0.2410
  156MOL0     H20540   3.555   2.529  12.285  1.2439 -0.8483 -0.1216
  156MOL0     H20541   3.298   2.377  12.273  2.1915  1.7781 -3.7387
  156MOL0     H20542   3.421   2.398  12.409  2.2928  2.3835  0.4703
  156MOL0     H20543   3.372   2.638  12.389  1.7109 -1.7281  0.8964
  156MOL0     H20544   3.248   2.538  12.473  0.4556 -5.3156 -0.8784
  156MOL0     H20545   3.066   2.438  12.285  0.7530  0.7002  0.7201
  156MOL0     H20546   2.895   2.476  12.051  0.8849 -1.2851  2.2622
  156MOL0     H20547   2.936   2.608  11.948 -1.7809 -2.4390 -0.0634
  156MOL0     H20548   2.744   2.679  11.967 -2.4434  0.3824  0.6047
  156MOL0     H20549   2.834   2.773  12.101  2.4661 -1.4711  0.7579
  156MOL0     H20550   2.744   2.567  12.242  1.7269  1.6468  2.2717
  156MOL0     H20551   2.674   2.712  12.232  0.7225 -1.3242  1.6545
  156MOL0     H20552   2.528   2.658  12.072  0.6516  1.0049 -0.2844
  156MOL0     H20553   2.502   2.521  12.183 -0.7941 -2.9583 -2.7207
  156MOL0     H20554   2.348   2.564  11.992 -2.0277 -1.2635 -0.7124
  156MOL0     H20555   2.191   2.515  11.803 -1.0466 -3.0593  1.2934
  156MOL0     H20556   2.080   2.640  11.393  0.9406 -0.0704  1.8432
  156MOL0     H20557   1.950   2.601  11.192 -1.5823  0.3563  0.7631
  156MOL0     H20558   1.829   2.340  10.934  3.3166  3.5278 -5.0164
  156MOL0     H20559   1.947   2.437  11.003 -2.4604  1.8584 -3.5349
  156MOL0     H20560   1.816   2.592  10.900 -2.7702  0.5021 -0.8341
  156MOL0     H20561   1.776   2.616  11.070  0.9499 -1.6856  1.9123
  156MOL0     H20562   1.569   2.641  10.993  0.3714 -0.0827  0.7637
  156MOL0     H20563   1.573   2.475  11.040 -2.1401  2.2250  0.9252
  156MOL0     H20564   1.573   2.583  10.753  1.0180 -0.2477 -0.1559
  156MOL0     H20565   1.593   2.412  10.774  1.5201  0.6024 -0.6217
  156MOL0     H20566   1.368   2.403  10.889 -2.1685  0.1259 -0.6328
  156MOL0     H20567   1.371   2.469  10.721 -0.2145  1.0029 -0.9171
  156MOL0     H20568   1.368   2.697  10.792  2.3718 -0.3143  0.6398
  156MOL0     H20569   1.343   2.646  10.960  3.3505  0.1886 -0.1406
  156MOL0     H20570   1.137   2.519  10.909  2.6245 -0.6106  1.0607
  156MOL0     H20571   1.122   2.690  10.871  2.2578  1.3886 -1.0742
  156MOL0     H20572   1.018   2.548  10.680 -0.4282  1.6311  1.8615
  156MOL0     H20573   1.187   2.477  10.645  1.9589  0.8817  1.4346
  156MOL0     H20574   1.821   2.224  11.354  0.9705 -0.1532 -1.7068
  156MOL0     H20575   1.953   2.276  11.567 -1.9948  2.5020  1.6200
  156MOL0     H20576   2.497   2.298  11.599 -1.1121 -1.9636 -0.2898
  156MOL0     H20577   2.654   2.340  11.795 -1.1127 -0.0867  1.3541
  156MOL0     H20578   3.725   2.437  11.691 -1.1018  0.4780 -0.5433
  156MOL0     H20579   3.507   2.441  11.593  0.3460 -1.1149  0.7714
  156MOL0     H20580   3.260   2.366  11.312  0.7250 -0.2972  1.1677
  156MOL0     H20581   3.042   2.424  11.160 -0.7229  0.3480 -1.8223
  156MOL0     H20582   2.845   2.059  10.995 -2.0050 -2.3916 -2.9703
  156MOL0     H20583   2.931   2.134  10.858  0.0739  1.7553  0.2950
  156MOL0     H20584   2.714   2.141  10.791  0.0167  0.9718 -0.1072
  156MOL0     H20585   2.651   2.202  10.943 -1.6527 -1.6077 -1.4443
  156MOL0     H20586   2.802   2.388  10.739  2.1292  1.7185  1.7650
  156MOL0     H20587   2.796   2.413  10.914 -2.1541  0.2470  0.5782
  156MOL0     H20588   2.584   2.445  10.929 -0.8201 -1.7275  0.4077
  156MOL0     H20589   2.642   2.533  10.786  1.8736 -1.9997 -1.2318
  156MOL0     H20590   2.381   2.250  10.611  0.7759  0.3151 -0.1643
  156MOL0     H20591   3.053   2.004  11.067  0.3614  0.2954  0.0092
  156MOL0     H20592   3.241   1.969  11.190  1.0687  1.0212 -1.0549
  157MOL0     O20593   6.735   7.147   7.806 -0.1956  0.2061 -0.2425
  157MOL0     C20594   6.748   7.037   7.864 -0.9951  0.4182  0.3040
  157MOL0     O20595   6.643   6.951   7.884 -0.1039  0.7872  0.3055
  157MOL0     C20596   6.515   6.994   7.889 -0.0128 -0.1413  0.3060
  157MOL0     C20597   6.415   6.913   7.841  0.4094  0.4482 -0.2946
  157MOL0     C20598   6.279   6.947   7.862 -0.0099  0.1400  0.8694
  157MOL0     C20599   6.243   7.075   7.901 -0.7225  0.1584 -0.6911
  157MOL0     O20600   6.109   7.102   7.917  0.2177 -0.5677  0.2718
  157MOL0     C20601   6.083   7.135   8.049 -0.0940 -0.4870 -0.7461
  157MOL0     C20602   6.029   7.015   8.115  0.0850 -0.4970 -0.1148
  157MOL0     C20603   6.141   6.917   8.150  0.3437  0.3765  0.1235
  157MOL0     C20604   6.084   6.829   8.259  0.4355 -0.2041  0.6444
  157MOL0     C20605   6.154   6.690   8.272  0.1139  0.4904  0.3691
  157MOL0     C20606   6.069   6.586   8.349 -0.2158  0.0592 -0.1451
  157MOL0     C20607   6.130   6.446   8.369 -0.2967 -0.3496 -0.2781
  157MOL0     C20608   6.121   6.381   8.511  0.3008  0.1700 -0.3030
  157MOL0     N20609   5.979   6.374   8.552 -0.0632  0.5249 -0.1661
  157MOL0     C20610   5.931   6.251   8.589  0.0338  0.1875 -0.2396
  157MOL0     C20611   5.805   6.268   8.624  0.2222  0.3935 -0.4102
  157MOL0     C20612   5.715   6.158   8.673 -0.6611 -0.2857  0.3991
  157MOL0     C20613   5.748   6.108   8.823  0.3543 -0.4570  0.2297
  157MOL0     C20614   5.677   6.179   8.938  0.4671  0.1368 -0.3738
  157MOL0     C20615   5.718   6.326   8.946  1.1087  0.4541 -0.0663
  157MOL0     O20616   5.859   6.333   8.957  0.2443  0.2575  0.0413
  157MOL0     C20617   5.920   6.447   8.919  0.0265  0.1715 -0.3557
  157MOL0     C20618   6.058   6.455   8.935 -0.0763 -0.7802 -0.2926
  157MOL0     C20619   6.126   6.575   8.905 -0.8481 -0.1548  0.4408
  157MOL0     C20620   6.058   6.688   8.857 -0.0789 -0.7276  0.3927
  157MOL0     C20621   6.147   6.811   8.820 -0.2079  1.4473 -0.0987
  157MOL0     O20622   6.278   6.778   8.809 -0.3295  0.4729 -0.0537
  157MOL0     C20623   6.350   6.848   8.717 -0.6691 -0.0213  0.0233
  157MOL0     C20624   6.318   6.842   8.581 -0.7483 -0.4049  0.2489
  157MOL0     C20625   6.393   6.913   8.491  0.2960  0.4092  0.3778
  157MOL0     C20626   6.516   6.972   8.536  0.2498  0.7783  0.1010
  157MOL0     O20627   6.591   7.056   8.467 -0.1939 -0.2712 -0.4472
  157MOL0     C20628   6.580   7.053   8.328  1.4100 -0.2944 -0.4264
  157MOL0     C20629   6.709   7.084   8.253 -0.4452  0.1692 -0.7568
  157MOL0     C20630   6.767   7.218   8.301  0.3918  0.4584  0.3946
  157MOL0     C20631   6.910   7.234   8.244  0.4162  1.1714 -0.7067
  157MOL0     C20632   6.986   7.348   8.309  0.0188 -0.7545  1.1541
  157MOL0     C20633   7.121   7.374   8.233 -0.2812 -0.7381 -0.7914
  157MOL0     C20634   7.168   7.520   8.230 -0.1126  0.4969  0.7114
  157MOL0     C20635   7.297   7.539   8.156 -0.1665  0.8897  0.0855
  157MOL0    Cl20636   7.432   7.430   8.209 -0.6658  0.0344  0.2405
  157MOL0     C20637   6.566   6.955   8.676  0.5832  0.1776  0.8515
  157MOL0     C20638   6.467   6.908   8.762 -0.0847  0.2248 -0.6162
  157MOL0     O20639   6.099   6.923   8.815 -0.2584 -1.1725  0.2036
  157MOL0     C20640   5.919   6.687   8.849 -0.6305 -1.1125  0.6827
  157MOL0     C20641   5.851   6.563   8.870 -0.3582 -0.3708 -0.3839
  157MOL0     N20642   5.777   6.404   8.616 -0.7236  0.1278  0.3216
  157MOL0     N20643   5.888   6.471   8.572  0.2387 -0.0411  0.8426
  157MOL0     C20644   6.347   7.169   7.925 -0.4100 -0.3982  0.5925
  157MOL0     C20645   6.477   7.122   7.931 -0.7567 -0.1263  0.6360
  157MOL0     C20646   6.882   6.998   7.903 -0.8616 -0.7376 -0.6711
  157MOL0     C20647   6.907   6.871   7.951 -0.3122  0.6631  0.1818
  157MOL0     C20648   7.039   6.841   7.995 -0.4771 -0.9024  0.3588
  157MOL0     C20649   7.143   6.948   7.990 -0.2370  0.0909  0.3428
  157MOL0     O20650   7.276   6.909   8.020 -0.0964 -0.4951  0.0853
  157MOL0     C20651   7.291   6.848   8.150 -0.0777  0.6725 -0.6078
  157MOL0     C20652   7.415   6.754   8.143  0.4715 -0.4547  0.0238
  157MOL0     C20653   7.384   6.651   8.027 -0.1732 -0.6430 -0.1828
  157MOL0     C20654   7.454   6.515   8.044 -0.6325  0.4256  0.6063
  157MOL0     C20655   7.393   6.422   7.949 -0.5418  0.3346  1.0928
  157MOL0     C20656   7.346   6.343   7.878 -0.2792  1.0228 -0.1759
  157MOL0     C20657   7.125   7.072   7.940  0.7235 -0.3127 -0.5582
  157MOL0     C20658   6.992   7.099   7.901  0.7158  0.1465  0.2122
  157MOL0     H20659   6.441   6.816   7.799 -1.7077  1.1709 -3.6957
  157MOL0     H20660   6.198   6.877   7.845 -1.8398  2.3015  0.1095
  157MOL0     H20661   6.003   7.209   8.051  0.9306  0.7471 -2.6280
  157MOL0     H20662   6.165   7.170   8.113  0.3560  1.6124 -2.3994
  157MOL0     H20663   5.958   6.971   8.045  1.1713 -0.7709 -1.0845
  157MOL0     H20664   5.973   7.049   8.203 -0.5429  2.1489 -1.4555
  157MOL0     H20665   6.232   6.973   8.175 -0.7163  1.6225  1.3750
  157MOL0     H20666   6.156   6.853   8.063 -0.4626  0.4988 -0.1167
  157MOL0     H20667   6.105   6.876   8.355 -0.5819 -2.0358  1.8266
  157MOL0     H20668   5.974   6.829   8.259  0.4256  0.7309  0.2370
  157MOL0     H20669   6.257   6.706   8.305  0.6505  0.2044 -1.0853
  157MOL0     H20670   6.161   6.633   8.179 -0.0595  0.7919  0.1706
  157MOL0     H20671   5.967   6.575   8.311 -1.1075  1.8006  1.5564
  157MOL0     H20672   6.061   6.625   8.451 -2.0940 -1.5863  0.3918
  157MOL0     H20673   6.083   6.383   8.292 -2.8684  1.7068 -0.5568
  157MOL0     H20674   6.237   6.467   8.363  0.0913 -1.9053  0.6415
  157MOL0     H20675   6.185   6.442   8.575  0.4330  1.3368 -1.5001
  157MOL0     H20676   6.165   6.280   8.505  0.0207  0.0026  0.3459
  157MOL0     H20677   5.986   6.158   8.587  0.4036  0.3070  2.1759
  157MOL0     H20678   5.722   6.067   8.613 -2.6725 -0.2862  0.1056
  157MOL0     H20679   5.611   6.193   8.676 -1.0339 -1.2823 -0.6077
  157MOL0     H20680   5.857   6.102   8.832  0.3505 -0.4587  0.2717
  157MOL0     H20681   5.721   6.002   8.827 -2.1750  0.1038 -0.1226
  157MOL0     H20682   5.572   6.150   8.929  0.4823  0.4680 -1.7046
  157MOL0     H20683   5.698   6.124   9.030 -1.6827 -0.9712 -0.4883
  157MOL0     H20684   5.675   6.378   9.032 -1.5482  0.7717 -1.4950
  157MOL0     H20685   5.670   6.369   8.858  0.3814 -1.0571 -0.4398
  157MOL0     H20686   6.109   6.380   8.996  0.8735  2.2103  2.9685
  157MOL0     H20687   6.230   6.578   8.937 -0.6599 -2.6504  0.3259
  157MOL0     H20688   6.231   6.787   8.546 -2.0393  0.8011  1.4210
  157MOL0     H20689   6.357   6.920   8.388 -1.8539 -1.6647  0.9047
  157MOL0     H20690   6.508   7.135   8.319  0.9359 -0.2826  2.4293
  157MOL0     H20691   6.532   6.966   8.284  0.3814  0.7265 -1.3754
  157MOL0     H20692   6.691   7.083   8.146 -1.1932 -1.5759 -0.6582
  157MOL0     H20693   6.778   6.999   8.262 -2.7578 -1.6027  2.4592
  157MOL0     H20694   6.775   7.227   8.410  1.7271  0.7228  0.2925
  157MOL0     H20695   6.715   7.303   8.255  0.0925 -1.1315 -2.4530
  157MOL0     H20696   6.975   7.149   8.265 -1.6433 -0.2154  0.4855
  157MOL0     H20697   6.900   7.265   8.139 -1.2041 -0.7138 -1.1613
  157MOL0     H20698   7.009   7.335   8.416  2.3950  2.4893  1.1792
  157MOL0     H20699   6.925   7.437   8.295  0.4835 -0.6505 -0.3342
  157MOL0     H20700   7.113   7.341   8.129 -0.5368 -0.3176 -0.9069
  157MOL0     H20701   7.199   7.320   8.288 -0.7064  0.2360  0.8313
  157MOL0     H20702   7.091   7.586   8.191 -1.2410 -0.7546  0.7465
  157MOL0     H20703   7.186   7.538   8.336  3.4171 -0.7834  0.4766
  157MOL0     H20704   7.326   7.643   8.177  1.1400  0.6288 -0.3569
  157MOL0     H20705   7.280   7.538   8.048 -0.9056 -0.0266  0.2038
  157MOL0     H20706   6.670   6.965   8.707  1.4102 -0.2335 -1.5520
  157MOL0     H20707   6.493   6.885   8.864  0.8549  0.4358 -0.8056
  157MOL0     H20708   5.871   6.782   8.826  2.5644  0.3153 -0.6154
  157MOL0     H20709   5.748   6.572   8.836 -1.2451  4.0428  2.5867
  157MOL0     H20710   6.329   7.274   7.947 -2.6864 -0.5988  0.0057
  157MOL0     H20711   6.555   7.191   7.960  1.0062 -0.3964 -2.9255
  157MOL0     H20712   6.824   6.801   7.956  0.6944 -0.4439  2.5629
  157MOL0     H20713   7.066   6.736   8.009  3.3303 -0.2043 -0.6011
  157MOL0     H20714   7.205   6.792   8.187  0.7875  0.4480  1.1499
  157MOL0     H20715   7.313   6.924   8.225  1.9668  0.2178 -0.6933
  157MOL0     H20716   7.504   6.814   8.122 -1.7640  2.8284 -0.7157
  157MOL0     H20717   7.431   6.702   8.239  1.3881  0.7868  0.5723
  157MOL0     H20718   7.412   6.698   7.932 -3.6071 -2.0889 -2.0953
  157MOL0     H20719   7.277   6.631   8.025  0.3954 -4.9099  0.9259
  157MOL0     H20720   7.561   6.517   8.020 -0.1368  0.6978  2.6617
  157MOL0     H20721   7.443   6.482   8.148 -1.9308  0.1735  0.4016
  157MOL0     H20722   7.310   6.275   7.803 -0.7828  1.7301 -0.5815
  157MOL0     H20723   7.205   7.144   7.925  2.1960 -1.5935  0.8176
  157MOL0     H20724   6.974   7.202   7.872 -2.5834 -0.4042 -0.1378
  158MOL0     O20725   4.908   7.161   4.841  0.4923  0.1577 -1.1318
  158MOL0     C20726   4.888   7.049   4.793  0.1135 -0.3908  0.1344
  158MOL0     O20727   4.927   7.015   4.678 -0.2695  0.5617  0.0920
  158MOL0     C20728   4.991   7.106   4.596 -0.7572  0.1302  0.1518
  158MOL0     C20729   5.130   7.104   4.577  0.7613  0.8954  0.1749
  158MOL0     C20730   5.190   7.217   4.515  0.2752  0.3718  0.5960
  158MOL0     C20731   5.109   7.303   4.440  0.7371  0.1220  0.3323
  158MOL0     O20732   5.145   7.418   4.383 -0.4363 -0.2110 -0.3591
  158MOL0     C20733   5.274   7.424   4.329 -0.4088  0.1448  0.3277
  158MOL0     C20734   5.267   7.566   4.262  0.3229 -0.1499 -0.1048
  158MOL0     C20735   5.289   7.674   4.357  0.3330  0.3035 -0.5508
  158MOL0     C20736   5.329   7.793   4.280 -0.5207  0.1540 -0.1576
  158MOL0     C20737   5.381   7.896   4.377  0.0011  0.7145  0.5658
  158MOL0     C20738   5.266   7.973   4.453 -0.0378 -0.2779  0.1769
  158MOL0     C20739   5.332   8.087   4.531 -0.4918  0.7701 -0.5949
  158MOL0     C20740   5.406   8.205   4.459 -1.1552 -0.3114 -0.0874
  158MOL0     N20741   5.303   8.284   4.384  0.3218  0.4249  0.5594
  158MOL0     C20742   5.190   8.340   4.448 -1.1145 -0.3287 -0.1875
  158MOL0     C20743   5.117   8.402   4.345  0.1078  0.3308 -0.6577
  158MOL0     C20744   4.983   8.469   4.367 -0.8204 -0.1648  0.7596
  158MOL0     C20745   4.868   8.407   4.273  0.2743  1.1334  0.4845
  158MOL0     C20746   4.814   8.525   4.176  0.4248  0.1109 -1.6317
  158MOL0     C20747   4.904   8.546   4.059 -0.3409  1.0270 -0.1761
  158MOL0     O20748   4.850   8.651   3.983  0.4808 -0.1836  0.7950
  158MOL0     C20749   4.916   8.685   3.869 -1.5519  0.1581 -0.5144
  158MOL0     C20750   5.042   8.614   3.833 -0.0387  0.5338 -0.4400
  158MOL0     C20751   5.106   8.658   3.716  0.0268 -0.3873  0.0356
  158MOL0     C20752   5.058   8.764   3.639 -0.2006 -0.7835 -0.2246
  158MOL0     C20753   5.128   8.811   3.510  0.3379 -0.0598 -0.5375
  158MOL0     O20754   5.262   8.770   3.497 -0.2255  0.0897  0.6327
  158MOL0     C20755   5.342   8.822   3.398 -0.3195  0.3947 -0.3522
  158MOL0     C20756   5.475   8.846   3.417 -0.2424 -0.4541 -0.4644
  158MOL0     C20757   5.554   8.904   3.311 -1.2628 -0.2493 -0.0683
  158MOL0     C20758   5.505   8.936   3.184 -0.8816  0.1746  1.2404
  158MOL0     O20759   5.600   8.983   3.095 -0.1380  0.4840 -0.6662
  158MOL0     C20760   5.559   9.041   2.972 -0.2976 -0.9070  0.0134
  158MOL0     C20761   5.539   9.194   3.003  0.3582 -0.0293  0.7800
  158MOL0     C20762   5.402   9.232   3.063 -0.0734  0.4302 -0.2158
  158MOL0     C20763   5.399   9.383   3.106  0.0775  0.7709  0.2484
  158MOL0     C20764   5.256   9.416   3.159  0.8481 -0.1936 -0.1758
  158MOL0     C20765   5.241   9.544   3.242 -0.0328 -1.1658  0.1216
  158MOL0     C20766   5.306   9.671   3.187  0.3424 -0.8936 -0.8711
  158MOL0     C20767   5.209   9.785   3.222 -0.2811  0.1389  0.3628
  158MOL0    Cl20768   5.215   9.816   3.400  0.0439  0.0939 -0.2265
  158MOL0     C20769   5.376   8.894   3.164  1.3527 -0.1613  0.7927
  158MOL0     C20770   5.298   8.845   3.267  0.3048  0.5497 -0.0784
  158MOL0     O20771   5.069   8.891   3.439  0.6615 -0.1059 -1.1115
  158MOL0     C20772   4.939   8.833   3.679 -0.3724  0.7241 -0.1457
  158MOL0     C20773   4.865   8.784   3.787 -0.3551 -1.3527 -0.6280
  158MOL0     N20774   5.180   8.376   4.226 -0.0154 -1.1425  0.0664
  158MOL0     N20775   5.287   8.305   4.247  0.3186 -0.4682 -0.4237
  158MOL0     C20776   4.970   7.292   4.459 -0.3814  0.6548 -0.4398
  158MOL0     C20777   4.912   7.193   4.536 -0.9936 -0.6378  0.9006
  158MOL0     C20778   4.801   6.957   4.872 -0.9838 -0.3314 -1.3455
  158MOL0     C20779   4.743   7.008   4.999  0.0774 -0.2171  0.0250
  158MOL0     C20780   4.697   6.916   5.089  0.2940  0.2425 -0.0941
  158MOL0     C20781   4.681   6.780   5.056 -0.2135  0.9765  0.2973
  158MOL0     O20782   4.601   6.685   5.128  0.4287 -0.7582  0.4552
  158MOL0     C20783   4.558   6.720   5.265  0.0749 -0.3304  0.0428
  158MOL0     C20784   4.508   6.600   5.346  0.2746  0.4936  0.2097
  158MOL0     C20785   4.477   6.624   5.494 -0.3190 -0.3949  0.4412
  158MOL0     C20786   4.378   6.516   5.557 -0.0626 -0.0624  0.0957
  158MOL0     C20787   4.434   6.384   5.543  1.0920  0.2017 -0.1996
  158MOL0     C20788   4.490   6.271   5.546  0.0890 -0.7996  0.1801
  158MOL0     C20789   4.722   6.734   4.928  0.6218  1.0068  0.1658
  158MOL0     C20790   4.786   6.821   4.845 -0.0264  1.2352  0.4520
  158MOL0     H20791   5.201   7.035   4.622  3.2372  4.8441  2.9927
  158MOL0     H20792   5.299   7.216   4.514  0.5205  0.2944 -5.0370
  158MOL0     H20793   5.291   7.349   4.251 -0.3712  1.4290 -0.9530
  158MOL0     H20794   5.357   7.434   4.398 -0.3453  1.4939  0.0845
  158MOL0     H20795   5.166   7.584   4.225  0.0717  0.7327  0.9763
  158MOL0     H20796   5.343   7.560   4.183  3.8471 -2.7751  3.1016
  158MOL0     H20797   5.365   7.653   4.433 -0.1656  1.7032  0.3709
  158MOL0     H20798   5.198   7.695   4.413  2.5108 -0.7971  3.9003
  158MOL0     H20799   5.404   7.772   4.203 -0.3619  1.6641 -0.4641
  158MOL0     H20800   5.249   7.840   4.222 -0.3807  3.9692  2.3738
  158MOL0     H20801   5.444   7.962   4.316  0.0349 -2.1038 -2.7431
  158MOL0     H20802   5.448   7.849   4.450 -1.6118  1.4580  2.6081
  158MOL0     H20803   5.207   7.907   4.517 -1.5502 -0.5512 -1.4321
  158MOL0     H20804   5.204   8.013   4.373  0.3706 -0.6377 -0.3260
  158MOL0     H20805   5.244   8.125   4.584 -0.4728  1.5057 -1.0822
  158MOL0     H20806   5.397   8.031   4.599 -0.1759  2.6724  0.7797
  158MOL0     H20807   5.491   8.168   4.400 -2.1600 -0.8889 -1.2188
  158MOL0     H20808   5.452   8.268   4.536  0.5320 -1.9965  0.3611
  158MOL0     H20809   5.173   8.336   4.555  0.2900 -1.3422  0.0236
  158MOL0     H20810   5.002   8.572   4.336 -1.0566 -0.0165  1.1025
  158MOL0     H20811   4.956   8.483   4.472  1.1885  1.8557  1.0921
  158MOL0     H20812   4.784   8.365   4.329 -0.7924 -1.1709 -2.6254
  158MOL0     H20813   4.903   8.325   4.210  3.8029  0.4626  2.9778
  158MOL0     H20814   4.711   8.502   4.149 -1.0189  0.6103  2.6465
  158MOL0     H20815   4.793   8.611   4.241 -0.4615 -0.3745 -1.2606
  158MOL0     H20816   4.900   8.452   4.002  0.1800  0.4593  0.6890
  158MOL0     H20817   5.005   8.572   4.092 -1.0262  2.7171  0.6699
  158MOL0     H20818   5.084   8.533   3.892 -2.1012 -0.6033 -0.4368
  158MOL0     H20819   5.198   8.606   3.692  0.0029  0.1588 -1.3254
  158MOL0     H20820   5.522   8.833   3.515  0.5142  2.5351 -0.3379
  158MOL0     H20821   5.661   8.917   3.327 -1.3668 -0.8067  1.2833
  158MOL0     H20822   5.471   8.988   2.932 -1.8679  0.5671  1.3517
  158MOL0     H20823   5.637   9.027   2.896  1.2179  2.2867  0.8298
  158MOL0     H20824   5.549   9.255   2.912 -0.0816  1.0503  1.4346
  158MOL0     H20825   5.618   9.219   3.074  0.5182  1.8644 -0.0118
  158MOL0     H20826   5.383   9.178   3.156  0.2861 -0.0103 -0.3973
  158MOL0     H20827   5.318   9.207   2.997  0.6589 -0.8861 -0.6803
  158MOL0     H20828   5.471   9.414   3.182 -0.1233  1.7930  0.0369
  158MOL0     H20829   5.409   9.443   3.016  0.4996  0.9321  0.4018
  158MOL0     H20830   5.218   9.329   3.213 -0.9386  1.2191  0.9553
  158MOL0     H20831   5.192   9.423   3.071 -2.2050  2.0070  1.9863
  158MOL0     H20832   5.281   9.534   3.343  2.6668 -1.5427 -0.9062
  158MOL0     H20833   5.133   9.553   3.254  0.1834  0.8595  0.9377
  158MOL0     H20834   5.404   9.683   3.234  1.2440  0.5439 -3.0213
  158MOL0     H20835   5.324   9.664   3.080  3.0365 -3.1562 -0.3905
  158MOL0     H20836   5.115   9.771   3.168  0.8804  0.5050 -1.8906
  158MOL0     H20837   5.247   9.879   3.181  0.4104 -0.4758 -0.4479
  158MOL0     H20838   5.341   8.885   3.062 -0.7088  2.3481  1.1794
  158MOL0     H20839   5.197   8.812   3.241  1.2085 -1.5629 -1.2066
  158MOL0     H20840   4.897   8.921   3.631  2.6144  2.1702 -0.3573
  158MOL0     H20841   4.767   8.829   3.800  0.4797  1.8208 -3.6764
  158MOL0     H20842   4.903   7.366   4.417 -0.6187  0.4500 -0.4246
  158MOL0     H20843   4.804   7.192   4.538 -1.1305  2.9313  0.9957
  158MOL0     H20844   4.741   7.107   5.042  1.6906 -0.8374  1.6408
  158MOL0     H20845   4.667   6.945   5.190  1.1592 -2.1956  0.9471
  158MOL0     H20846   4.477   6.793   5.263  1.7324  1.6139 -0.5961
  158MOL0     H20847   4.648   6.768   5.306  0.4595 -0.3856 -0.7097
  158MOL0     H20848   4.422   6.557   5.292 -0.5784  1.5100  0.7348
  158MOL0     H20849   4.580   6.518   5.338 -2.0923 -1.8248  1.2201
  158MOL0     H20850   4.420   6.717   5.502 -2.4781 -1.7489  2.0795
  158MOL0     H20851   4.575   6.631   5.542 -0.3787 -1.8121  0.8149
  158MOL0     H20852   4.382   6.531   5.665  1.3107 -2.8498  0.5013
  158MOL0     H20853   4.281   6.516   5.505  1.6043 -0.3564 -3.3320
  158MOL0     H20854   4.556   6.189   5.566  0.7574 -1.4155 -3.7152
  158MOL0     H20855   4.702   6.632   4.896 -2.1291  1.8758 -1.2690
  158MOL0     H20856   4.821   6.774   4.753  2.2593  2.0106  0.8487
  159MOL0     O20857   6.851   2.265   8.056 -0.4458 -0.3361  0.0064
  159MOL0     C20858   6.946   2.189   8.045  0.0591  0.9113 -0.1391
  159MOL0     O20859   7.024   2.131   8.145  0.1542 -0.0248 -0.6326
  159MOL0     C20860   6.971   2.139   8.278 -0.1560  0.1138  0.0406
  159MOL0     C20861   6.846   2.101   8.305 -1.4703 -0.1587  0.4293
  159MOL0     C20862   6.809   2.093   8.437  1.1195 -0.0973  1.0822
  159MOL0     C20863   6.881   2.134   8.541  0.5005  0.0300  0.4329
  159MOL0     O20864   6.839   2.156   8.671  0.0270  0.3629  0.2776
  159MOL0     C20865   6.771   2.043   8.735 -0.2193 -0.4357 -0.3051
  159MOL0     C20866   6.801   2.047   8.884 -0.2827  0.4009 -0.0397
  159MOL0     C20867   6.956   2.057   8.901 -0.8930  0.6525 -0.4878
  159MOL0     C20868   6.994   1.989   9.040 -0.0894 -0.7011  0.0141
  159MOL0     C20869   7.143   2.031   9.081  0.0529 -0.1256  0.3428
  159MOL0     C20870   7.234   1.952   8.992 -0.5640 -0.5457  0.5097
  159MOL0     C20871   7.374   1.977   9.029 -0.0437  0.7039 -0.3299
  159MOL0     C20872   7.467   1.894   8.946 -0.3260 -0.5541  0.7122
  159MOL0     N20873   7.449   1.746   8.931  0.1569  0.7757 -0.1831
  159MOL0     C20874   7.370   1.690   8.848  1.4928  0.3321 -0.2000
  159MOL0     C20875   7.367   1.557   8.884  0.4071  0.2662  0.0340
  159MOL0     C20876   7.290   1.459   8.807 -0.1490  0.4390  0.2924
  159MOL0     C20877   7.144   1.495   8.766  0.2488 -0.1691  0.4031
  159MOL0     C20878   7.054   1.559   8.860  0.2203  0.6573  0.9698
  159MOL0     C20879   6.910   1.590   8.804  0.7782  0.7059 -0.7048
  159MOL0     O20880   6.918   1.693   8.710 -0.0664 -0.2440 -0.0073
  159MOL0     C20881   6.936   1.678   8.570  0.2665 -1.3653 -0.6274
  159MOL0     C20882   6.931   1.555   8.505  1.2745  0.3562 -0.1937
  159MOL0     C20883   6.961   1.538   8.369  0.3242 -0.0570  0.0863
  159MOL0     C20884   7.002   1.649   8.294 -0.5951 -0.4636 -0.8646
  159MOL0     C20885   7.049   1.629   8.163 -0.1780  0.5192  0.2892
  159MOL0     O20886   6.990   1.525   8.098 -0.6549 -0.4017  0.5884
  159MOL0     C20887   7.028   1.510   7.966 -0.1502  0.4838  0.1708
  159MOL0     C20888   7.023   1.615   7.871  0.2197  0.5024 -0.2364
  159MOL0     C20889   7.064   1.585   7.737 -0.6572 -0.7098 -0.1837
  159MOL0     C20890   7.130   1.467   7.702 -0.8049  0.3384 -0.4326
  159MOL0     O20891   7.212   1.438   7.595 -0.7151  0.1489 -0.8677
  159MOL0     C20892   7.272   1.541   7.519  0.4352  0.3538 -0.2493
  159MOL0     C20893   7.368   1.626   7.611 -0.0440  1.4871  0.4642
  159MOL0     C20894   7.465   1.545   7.699  0.2060 -0.0263  0.3502
  159MOL0     C20895   7.577   1.462   7.650 -0.1269  0.1909  0.9678
  159MOL0     C20896   7.658   1.396   7.762 -0.2450 -0.9213 -0.4774
  159MOL0     C20897   7.748   1.489   7.844  0.1165 -0.8386  0.3981
  159MOL0     C20898   7.851   1.403   7.934 -0.2512 -0.3582  0.5034
  159MOL0     C20899   7.784   1.333   8.051 -0.6782 -0.0150 -1.0568
  159MOL0    Cl20900   7.731   1.453   8.184  0.2679 -0.0535 -0.1243
  159MOL0     C20901   7.131   1.372   7.802  0.1435 -0.9308 -0.3696
  159MOL0     C20902   7.085   1.386   7.929  0.6006 -0.4553 -0.4814
  159MOL0     O20903   7.133   1.702   8.116  0.0439  0.6726 -0.1274
  159MOL0     C20904   7.013   1.773   8.360  1.1345  0.6531  0.9647
  159MOL0     C20905   6.979   1.789   8.493 -0.6713 -0.0822 -0.2301
  159MOL0     N20906   7.439   1.544   9.007 -0.3846  0.4169 -0.0691
  159MOL0     N20907   7.494   1.659   9.023 -0.4692 -0.6203 -0.3566
  159MOL0     C20908   7.011   2.181   8.513 -0.3302 -0.4161 -0.3392
  159MOL0     C20909   7.057   2.183   8.384  0.2038 -0.6138 -0.5498
  159MOL0     C20910   6.995   2.141   7.899  0.7315 -0.4086  0.3427
  159MOL0     C20911   6.940   2.209   7.786 -0.8665  0.3748 -0.0818
  159MOL0     C20912   6.987   2.169   7.659 -0.2355  0.1184 -0.3326
  159MOL0     C20913   7.081   2.067   7.644 -0.4121  1.3637  0.4363
  159MOL0     O20914   7.110   2.018   7.522 -0.4760  0.3383  0.2557
  159MOL0     C20915   7.242   1.956   7.489  0.6318 -0.0721  0.3123
  159MOL0     C20916   7.267   1.960   7.335 -0.0873 -0.5495 -0.6821
  159MOL0     C20917   7.149   1.912   7.259  0.0014 -0.1849 -0.1360
  159MOL0     C20918   7.177   1.884   7.116 -0.4662 -0.6374  0.1141
  159MOL0     C20919   7.240   1.762   7.091  0.4615 -0.1936 -0.3213
  159MOL0     C20920   7.283   1.649   7.084  0.6370  0.1332  0.0040
  159MOL0     C20921   7.116   1.994   7.752 -0.4025  0.6175  0.1232
  159MOL0     C20922   7.077   2.027   7.877  0.3164 -0.0249  0.3662
  159MOL0     H20923   6.778   2.061   8.230 -2.6126  1.1132  0.7505
  159MOL0     H20924   6.710   2.052   8.452  1.2700 -2.2868 -2.7694
  159MOL0     H20925   6.795   1.944   8.693 -2.1819 -1.2134  0.2995
  159MOL0     H20926   6.663   2.051   8.718 -0.5040 -2.5133  0.1554
  159MOL0     H20927   6.763   1.969   8.950  0.9402  1.2328  1.7535
  159MOL0     H20928   6.756   2.130   8.940 -0.6712 -0.1123  0.4195
  159MOL0     H20929   6.983   2.162   8.911 -1.3150  1.0568 -3.0765
  159MOL0     H20930   7.010   2.001   8.824  3.3380 -0.9282  3.1375
  159MOL0     H20931   6.916   2.021   9.110 -3.8641  2.9016 -5.0685
  159MOL0     H20932   6.984   1.880   9.038  1.5905 -0.9723  2.4390
  159MOL0     H20933   7.157   2.006   9.186  2.9297  0.7725  0.2478
  159MOL0     H20934   7.165   2.138   9.076  0.7212 -0.3104 -3.2252
  159MOL0     H20935   7.220   1.985   8.889 -2.5613  2.4493  1.5948
  159MOL0     H20936   7.202   1.848   9.007  2.2736 -1.3079  2.0206
  159MOL0     H20937   7.404   2.082   9.021  3.1436  0.0364  1.2773
  159MOL0     H20938   7.372   1.946   9.134 -1.6677 -0.8901 -0.7801
  159MOL0     H20939   7.571   1.914   8.976  0.4456  0.6329 -2.3477
  159MOL0     H20940   7.447   1.925   8.843  0.5700 -2.8655 -0.2360
  159MOL0     H20941   7.315   1.741   8.768  1.7540 -1.3786 -1.5341
  159MOL0     H20942   7.294   1.370   8.870  2.2602  0.9400  0.9371
  159MOL0     H20943   7.350   1.463   8.715 -0.5656  0.8528  0.0347
  159MOL0     H20944   7.093   1.400   8.748  0.4859 -0.0962 -0.7066
  159MOL0     H20945   7.148   1.555   8.675 -0.7297 -1.2362 -0.3574
  159MOL0     H20946   7.041   1.490   8.944  0.0581 -1.0171 -0.3756
  159MOL0     H20947   7.103   1.648   8.902  2.4343  1.1694 -2.2516
  159MOL0     H20948   6.844   1.623   8.885 -0.0850  2.3138 -2.0067
  159MOL0     H20949   6.873   1.491   8.777  2.9572 -1.6375  3.8544
  159MOL0     H20950   6.902   1.465   8.558  0.2963  0.8552  0.1534
  159MOL0     H20951   6.964   1.437   8.329 -0.2223  0.4037 -1.1414
  159MOL0     H20952   6.982   1.710   7.905 -0.8306  0.2996 -0.8888
  159MOL0     H20953   7.049   1.659   7.659 -1.9125 -1.1888 -0.4247
  159MOL0     H20954   7.193   1.608   7.484  2.0928  2.8338  0.5434
  159MOL0     H20955   7.334   1.506   7.436 -2.1677 -0.4330 -1.9996
  159MOL0     H20956   7.317   1.698   7.676  1.0939  0.4526  2.5959
  159MOL0     H20957   7.429   1.691   7.547 -0.8571  1.5666 -0.2528
  159MOL0     H20958   7.397   1.496   7.769  1.9036 -3.1096  0.0147
  159MOL0     H20959   7.520   1.616   7.761  0.4865 -0.3819  0.5109
  159MOL0     H20960   7.548   1.380   7.582  1.6806  0.7540 -0.5587
  159MOL0     H20961   7.649   1.529   7.603  0.0225 -1.5210 -1.4958
  159MOL0     H20962   7.731   1.321   7.729 -0.5524 -0.8267 -1.4155
  159MOL0     H20963   7.586   1.331   7.811 -1.1870  0.0789 -0.5017
  159MOL0     H20964   7.687   1.547   7.914 -1.6274  0.1541 -1.7947
  159MOL0     H20965   7.801   1.561   7.780 -2.2312  1.0086  0.3760
  159MOL0     H20966   7.894   1.329   7.866 -1.0645 -1.1392  0.8077
  159MOL0     H20967   7.938   1.463   7.958  1.0024 -0.9779 -2.0861
  159MOL0     H20968   7.840   1.243   8.077 -1.9653 -1.1443 -2.0193
  159MOL0     H20969   7.690   1.287   8.020 -0.6695  0.2159 -1.4256
  159MOL0     H20970   7.177   1.280   7.769  0.9285 -0.1093 -1.6323
  159MOL0     H20971   7.100   1.302   7.996  1.1078  1.1993  1.5491
  159MOL0     H20972   7.065   1.849   8.303 -0.3436 -0.2030 -1.6734
  159MOL0     H20973   6.980   1.884   8.545  2.7432  0.7324 -1.5010
  159MOL0     H20974   7.067   2.214   8.600  0.2269  1.8297 -1.4773
  159MOL0     H20975   7.154   2.221   8.355  0.2563 -0.9830 -0.8675
  159MOL0     H20976   6.885   2.303   7.790 -0.2423  0.8180 -1.5193
  159MOL0     H20977   6.957   2.227   7.572  1.7657  2.2268  0.2844
  159MOL0     H20978   7.255   1.854   7.525 -2.3596 -0.3648  0.7724
  159MOL0     H20979   7.325   2.014   7.532  0.0405 -0.1035  1.5284
  159MOL0     H20980   7.292   2.066   7.326 -1.4064  0.1248  2.3267
  159MOL0     H20981   7.349   1.891   7.312  0.4195 -0.4400  0.7226
  159MOL0     H20982   7.078   1.994   7.275 -0.9484 -0.7217 -1.5184
  159MOL0     H20983   7.092   1.828   7.298 -2.3608 -0.6742 -4.1711
  159MOL0     H20984   7.088   1.889   7.054 -0.4151 -1.2996 -0.0223
  159MOL0     H20985   7.236   1.970   7.083  0.7833 -0.9335  1.4678
  159MOL0     H20986   7.330   1.556   7.059  0.7944 -0.4576  2.3037
  159MOL0     H20987   7.176   1.904   7.750 -3.1513 -1.3674  0.4734
  159MOL0     H20988   7.101   1.967   7.964 -0.7322 -0.5165  0.3339
  160MOL0     O20989   0.381   6.012   1.797 -0.9485 -0.4229 -1.0636
  160MOL0     C20990   0.325   6.110   1.750  0.0991 -0.0222 -0.3838
  160MOL0     O20991   0.288   6.220   1.818 -0.5389  0.7730  1.2267
  160MOL0     C20992   0.354   6.245   1.933 -0.2517  1.0277  0.4969
  160MOL0     C20993   0.285   6.260   2.049  0.0705 -0.3160  0.7217
  160MOL0     C20994   0.343   6.312   2.174 -0.2641 -0.6474 -0.5804
  160MOL0     C20995   0.484   6.333   2.177  1.1927  0.7117 -0.2873
  160MOL0     O20996   0.554   6.330   2.291  0.0124  0.2650 -0.1994
  160MOL0     C20997   0.571   6.452   2.346 -0.3631 -0.1383  0.2498
  160MOL0     C20998   0.452   6.485   2.438 -0.4232 -0.0812 -0.3697
  160MOL0     C20999   0.504   6.607   2.526  0.2619 -0.5815  0.1724
  160MOL0     C21000   0.382   6.664   2.600 -0.8071  0.3039  0.6603
  160MOL0     C21001   0.405   6.758   2.714 -0.8402  0.2402 -1.0672
  160MOL0     C21002   0.489   6.876   2.662 -0.8704  0.5472 -0.2847
  160MOL0     C21003   0.499   6.966   2.782 -0.1488 -0.0742 -0.2913
  160MOL0     C21004   0.597   7.084   2.755 -0.3420 -0.3072  0.2287
  160MOL0     N21005   0.732   7.043   2.744 -0.1944 -0.0069  0.6407
  160MOL0     C21006   0.794   6.962   2.832  0.0409 -0.2685  1.1503
  160MOL0     C21007   0.926   6.973   2.794  0.4795  0.0500  0.5000
  160MOL0     C21008   1.051   6.920   2.857  0.2344  0.2238 -0.3684
  160MOL0     C21009   1.123   6.826   2.751  0.3770 -0.7774  0.0689
  160MOL0     C21010   1.097   6.680   2.774  0.3187  0.2485  0.5130
  160MOL0     C21011   0.951   6.652   2.802  0.0925  0.5256 -0.2754
  160MOL0     O21012   0.861   6.679   2.699  0.2278  0.5382  0.6144
  160MOL0     C21013   0.895   6.609   2.577  0.2638 -0.5509 -0.1349
  160MOL0     C21014   0.863   6.669   2.458 -0.2707  0.1019 -0.1741
  160MOL0     C21015   0.886   6.612   2.333  0.5726  0.3668  0.3124
  160MOL0     C21016   0.936   6.480   2.322 -0.5903 -0.4828  0.2059
  160MOL0     C21017   0.962   6.416   2.190 -0.7807 -0.4500  0.1581
  160MOL0     O21018   0.931   6.477   2.067 -0.2303  0.2410 -0.3706
  160MOL0     C21019   0.957   6.403   1.951 -0.4182 -0.1489 -0.4745
  160MOL0     C21020   1.087   6.351   1.925  0.4963  1.3600 -0.5299
  160MOL0     C21021   1.104   6.268   1.809 -1.1227 -0.3064 -1.4486
  160MOL0     C21022   1.000   6.222   1.743  0.8435  0.2775 -0.4885
  160MOL0     O21023   1.011   6.136   1.632 -0.9025  1.0983  0.0355
  160MOL0     C21024   1.138   6.076   1.608  0.0879 -0.1754  1.2042
  160MOL0     C21025   1.141   6.001   1.471 -0.5699  0.3715 -0.4018
  160MOL0     C21026   1.278   5.939   1.456  0.5976  0.7290  0.5230
  160MOL0     C21027   1.270   5.821   1.359 -0.3684 -1.2081 -0.8764
  160MOL0     C21028   1.418   5.785   1.318 -0.5320 -0.7019 -0.5415
  160MOL0     C21029   1.421   5.641   1.258 -0.0600  0.2211 -0.2617
  160MOL0     C21030   1.352   5.645   1.114 -0.5022 -0.1610 -0.7126
  160MOL0     C21031   1.359   5.513   1.050  0.3906  0.3784  0.4158
  160MOL0    Cl21032   1.529   5.470   1.026  0.6362  0.2626  0.0314
  160MOL0     C21033   0.870   6.274   1.768  0.7169 -1.0121  0.1215
  160MOL0     C21034   0.850   6.361   1.873  0.3747 -0.5450 -0.3199
  160MOL0     O21035   1.000   6.295   2.202 -0.4972  0.4203  0.4129
  160MOL0     C21036   0.963   6.409   2.438  0.6625 -0.2565  0.4156
  160MOL0     C21037   0.953   6.474   2.564 -0.9163 -0.4236  0.2649
  160MOL0     N21038   0.935   7.056   2.690  0.1135 -0.5355 -0.6727
  160MOL0     N21039   0.819   7.097   2.660  1.1075  0.1880  0.4974
  160MOL0     C21040   0.550   6.303   2.060 -0.0931  0.6864  0.2185
  160MOL0     C21041   0.490   6.259   1.941 -0.6930  0.3354 -0.8597
  160MOL0     C21042   0.287   6.111   1.609  0.5383  1.2050 -0.6241
  160MOL0     C21043   0.339   6.009   1.526 -0.2517 -0.4437  0.9702
  160MOL0     C21044   0.318   6.011   1.388  0.7554 -0.0793 -1.0077
  160MOL0     C21045   0.231   6.107   1.331  0.0518 -1.0680  0.3535
  160MOL0     O21046   0.180   6.091   1.204 -0.6385  0.1091  0.4979
  160MOL0     C21047   0.225   5.975   1.130  0.2766 -1.2203 -1.0101
  160MOL0     C21048   0.136   5.945   1.002 -0.5943 -0.8759 -0.2943
  160MOL0     C21049   0.136   6.050   0.902 -1.0943 -0.1676 -0.6244
  160MOL0     C21050   0.267   6.068   0.822  0.1549 -0.5001  0.4025
  160MOL0     C21051   0.362   6.158   0.886 -0.4325  0.7726 -0.7821
  160MOL0     C21052   0.446   6.235   0.928 -0.4954  0.0465  0.3866
  160MOL0     C21053   0.180   6.207   1.418 -0.6084  0.0632 -0.2767
  160MOL0     C21054   0.202   6.207   1.551 -0.1776  0.1946 -0.5813
  160MOL0     H21055   0.179   6.237   2.057 -0.2690  1.6081  2.6806
  160MOL0     H21056   0.289   6.307   2.268  0.8189  1.5640  0.2382
  160MOL0     H21057   0.601   6.521   2.266  3.4952 -0.6652  1.0054
  160MOL0     H21058   0.659   6.446   2.410 -1.4001 -0.2057  1.7018
  160MOL0     H21059   0.426   6.399   2.500  1.4771 -1.0953 -0.9281
  160MOL0     H21060   0.366   6.509   2.375  0.8524  1.7208 -1.5292
  160MOL0     H21061   0.547   6.680   2.456 -0.9974  0.5654  0.5609
  160MOL0     H21062   0.577   6.575   2.601  2.1915  1.2545 -0.8133
  160MOL0     H21063   0.320   6.722   2.532 -0.5967  1.7396  1.6471
  160MOL0     H21064   0.331   6.574   2.636  2.8136 -1.5082  1.8574
  160MOL0     H21065   0.461   6.712   2.796  0.9719  0.8987 -1.8845
  160MOL0     H21066   0.305   6.778   2.754 -0.0107 -0.3037  1.4910
  160MOL0     H21067   0.433   6.935   2.589 -1.1817 -1.1427 -1.4702
  160MOL0     H21068   0.588   6.848   2.627  0.8161  0.6155  3.8476
  160MOL0     H21069   0.399   6.998   2.811 -1.7176 -2.1644 -2.8570
  160MOL0     H21070   0.543   6.913   2.868  3.5518  3.2342  0.1185
  160MOL0     H21071   0.595   7.149   2.843  0.2243 -3.1147  2.4802
  160MOL0     H21072   0.575   7.134   2.660  0.5186 -3.2798 -1.6539
  160MOL0     H21073   0.754   6.920   2.923 -0.3885  0.8116  1.4764
  160MOL0     H21074   1.025   6.869   2.949  0.4153 -2.4638 -1.7086
  160MOL0     H21075   1.113   7.009   2.874 -2.2878  2.2033 -0.9003
  160MOL0     H21076   1.232   6.834   2.752  0.2568  2.3359 -1.2868
  160MOL0     H21077   1.090   6.853   2.650  0.9169  1.3670  0.4057
  160MOL0     H21078   1.118   6.631   2.678 -1.9003  2.5059 -1.2310
  160MOL0     H21079   1.148   6.634   2.860  1.2139 -3.4999 -1.8032
  160MOL0     H21080   0.913   6.697   2.894  1.0827  2.3886 -0.7389
  160MOL0     H21081   0.935   6.546   2.826 -1.5611  0.5819 -1.0120
  160MOL0     H21082   0.825   6.771   2.461  0.1462  0.3858 -2.5712
  160MOL0     H21083   0.874   6.666   2.240  2.7473  0.8057  0.2254
  160MOL0     H21084   1.157   6.386   2.001 -2.2446 -0.3193  3.1023
  160MOL0     H21085   1.207   6.236   1.797 -0.6577 -0.2496  1.5351
  160MOL0     H21086   1.154   5.995   1.679  1.9460  0.4514  1.5549
  160MOL0     H21087   1.217   6.152   1.601  3.2004 -3.2484 -1.2681
  160MOL0     H21088   1.121   6.066   1.386  0.1577  0.6813 -0.3458
  160MOL0     H21089   1.072   5.916   1.475  0.6565 -0.6043  1.1523
  160MOL0     H21090   1.309   5.892   1.549 -0.5921  0.1591  0.6517
  160MOL0     H21091   1.349   6.009   1.411 -0.8906 -0.0233 -3.4883
  160MOL0     H21092   1.216   5.736   1.401 -0.5119 -0.4669  0.4784
  160MOL0     H21093   1.212   5.840   1.268 -1.7545 -0.0217  0.2180
  160MOL0     H21094   1.483   5.777   1.406 -0.8802  0.4962 -0.1586
  160MOL0     H21095   1.463   5.857   1.250  1.2794 -1.5725 -0.3310
  160MOL0     H21096   1.380   5.572   1.333  0.3883 -3.1344 -2.8642
  160MOL0     H21097   1.521   5.598   1.264 -0.3702 -0.5366 -0.4334
  160MOL0     H21098   1.247   5.673   1.120 -0.3395  0.2553  0.6806
  160MOL0     H21099   1.411   5.720   1.061  0.1663  1.6212  2.2662
  160MOL0     H21100   1.300   5.522   0.959 -1.6041  1.0962  1.7075
  160MOL0     H21101   1.319   5.437   1.118 -0.0215  0.2293  0.0058
  160MOL0     H21102   0.794   6.241   1.699  1.2778 -1.7536 -0.1625
  160MOL0     H21103   0.750   6.394   1.898  1.8472  2.4380  2.3319
  160MOL0     H21104   0.990   6.304   2.436 -3.0606 -1.4378  1.9896
  160MOL0     H21105   0.984   6.417   2.651 -1.2434 -0.9664  0.0351
  160MOL0     H21106   0.657   6.285   2.063 -0.4435 -2.3877 -1.7760
  160MOL0     H21107   0.554   6.234   1.857  0.5907  2.8978 -0.7419
  160MOL0     H21108   0.415   5.938   1.558  0.4581  0.0669  0.4540
  160MOL0     H21109   0.362   5.926   1.337  2.3951  1.7064 -2.7578
  160MOL0     H21110   0.216   5.890   1.197  0.0015  0.1216  0.7176
  160MOL0     H21111   0.329   5.978   1.095  0.5272 -0.9773 -0.2663
  160MOL0     H21112   0.182   5.858   0.956 -1.2325 -0.9894 -0.7280
  160MOL0     H21113   0.036   5.914   1.033 -0.4279  0.3429  1.6672
  160MOL0     H21114   0.109   6.148   0.944  1.5870  0.1060  0.7122
  160MOL0     H21115   0.067   6.016   0.824 -0.1289  3.5025 -3.4006
  160MOL0     H21116   0.316   5.975   0.791 -0.0106 -0.2039 -0.8152
  160MOL0     H21117   0.238   6.131   0.737 -2.6745  0.6810  2.0880
  160MOL0     H21118   0.505   6.319   0.957  0.9125  1.7673 -5.9922
  160MOL0     H21119   0.129   6.287   1.365 -0.8210  0.0132 -0.1468
  160MOL0     H21120   0.161   6.279   1.621  1.0292  0.2255  0.1192
  161MOL0     O21121  10.436   7.474   2.217 -0.2141 -0.1661 -0.0261
  161MOL0     C21122  10.387   7.371   2.261 -0.0863  0.9900 -0.5179
  161MOL0     O21123  10.286   7.365   2.339  0.2469  0.5478  0.7363
  161MOL0     C21124  10.187   7.451   2.329  0.7524 -0.7000  0.6706
  161MOL0     C21125  10.118   7.497   2.445 -0.8111  0.0707  0.4469
  161MOL0     C21126  10.023   7.590   2.438  0.1181 -0.2820 -0.8488
  161MOL0     C21127   9.978   7.645   2.316 -0.3916  0.6206  0.5060
  161MOL0     O21128   9.889   7.747   2.302  0.1044  0.0927  0.2047
  161MOL0     C21129   9.915   7.862   2.393  0.5508 -0.6340  0.7454
  161MOL0     C21130   9.825   7.979   2.323  0.1841 -0.0480 -0.6767
  161MOL0     C21131   9.850   8.123   2.379 -0.7870  0.7883  0.4277
  161MOL0     C21132   9.817   8.129   2.530  0.0856 -0.4297 -0.0941
  161MOL0     C21133   9.822   8.276   2.566 -0.0968  0.7578  0.0689
  161MOL0     C21134   9.842   8.306   2.713 -0.1638  0.6386 -1.0242
  161MOL0     C21135   9.893   8.445   2.769  0.5110  0.7167  0.5246
  161MOL0     C21136   9.905   8.446   2.921  0.5496 -0.7169 -0.3251
  161MOL0     N21137   9.763   8.446   2.982  0.1457 -0.0905 -0.3339
  161MOL0     C21138   9.684   8.556   3.015 -0.6919 -0.6141  0.7659
  161MOL0     C21139   9.580   8.501   3.082  0.6690 -0.4090  0.4393
  161MOL0     C21140   9.476   8.577   3.160 -0.0074 -0.2893 -0.0258
  161MOL0     C21141   9.340   8.572   3.089 -0.7482  0.0448  0.5104
  161MOL0     C21142   9.349   8.664   2.957  0.6075  0.2827  0.0702
  161MOL0     C21143   9.385   8.808   2.964  0.9184 -0.7927 -0.0989
  161MOL0     O21144   9.295   8.888   3.053  0.0557 -0.3494 -0.5422
  161MOL0     C21145   9.300   9.028   3.035  0.6333  0.1366  0.4551
  161MOL0     C21146   9.199   9.099   3.088  0.3411 -0.6682  0.3041
  161MOL0     C21147   9.193   9.238   3.070 -0.8748 -0.2350  0.7325
  161MOL0     C21148   9.292   9.307   2.993  0.2162 -0.0269 -0.5849
  161MOL0     C21149   9.280   9.451   2.950 -1.0300 -0.5103 -0.8492
  161MOL0     O21150   9.390   9.523   2.943 -0.1202  0.2424 -0.1998
  161MOL0     C21151   9.378   9.659   2.917 -0.2334 -0.2628 -0.3438
  161MOL0     C21152   9.290   9.736   2.989  0.1172  0.0511  0.0256
  161MOL0     C21153   9.270   9.872   2.955 -0.2407 -0.7242  0.7745
  161MOL0     C21154   9.333   9.930   2.848 -0.0656  0.5769 -0.4793
  161MOL0     O21155   9.292  10.059   2.819  0.3400  0.2424 -0.2659
  161MOL0     C21156   9.377  10.129   2.731  0.8440 -0.1353 -0.6342
  161MOL0     C21157   9.330  10.272   2.714  0.4011  0.0472  0.6407
  161MOL0     C21158   9.383  10.359   2.823  0.4210  1.1796  0.4098
  161MOL0     C21159   9.311  10.492   2.839  0.4391  0.1074  0.1405
  161MOL0     C21160   9.368  10.576   2.945  0.2854 -0.3435 -0.2913
  161MOL0     C21161   9.280  10.692   2.989 -0.3000 -0.9691 -0.1566
  161MOL0     C21162   9.331  10.770   3.118  1.4822 -0.1286  0.1485
  161MOL0     C21163   9.458  10.837   3.085 -0.9296 -0.2375  0.1949
  161MOL0    Cl21164   9.592  10.730   3.143  0.5990 -0.2077 -0.1939
  161MOL0     C21165   9.433   9.849   2.783  0.3818  0.1904 -0.0329
  161MOL0     C21166   9.455   9.713   2.818  0.3381  0.8969 -0.5828
  161MOL0     O21167   9.172   9.477   2.910  0.3652  0.1162  0.5969
  161MOL0     C21168   9.405   9.234   2.971 -0.0644 -0.1735  0.7728
  161MOL0     C21169   9.410   9.094   2.977 -0.2981  0.8584  0.7585
  161MOL0     N21170   9.586   8.368   3.082  0.0050  0.7142 -0.5278
  161MOL0     N21171   9.693   8.330   3.021 -0.9387 -0.5374  0.1533
  161MOL0     C21172  10.048   7.609   2.196 -0.8196  0.6058 -0.2165
  161MOL0     C21173  10.143   7.497   2.206  0.4815  0.4853  0.3039
  161MOL0     C21174  10.446   7.245   2.210  1.0054  0.0080  0.7460
  161MOL0     C21175  10.386   7.129   2.257 -0.4723  0.8891  0.3011
  161MOL0     C21176  10.443   7.001   2.224 -0.1533  0.0326  0.2621
  161MOL0     C21177  10.548   6.994   2.130  0.5689  1.0950 -0.5102
  161MOL0     O21178  10.585   6.877   2.078 -0.4211 -0.3061  0.3546
  161MOL0     C21179  10.477   6.837   1.984 -1.5072  0.1214  0.3069
  161MOL0     C21180  10.521   6.724   1.884  0.0608  0.3286 -0.6864
  161MOL0     C21181  10.595   6.772   1.754 -0.3591  0.0571 -0.5618
  161MOL0     C21182  10.617   6.657   1.655 -0.0399  0.5100 -0.1168
  161MOL0     C21183  10.736   6.669   1.581 -1.1743  0.8143 -0.0295
  161MOL0     C21184  10.836   6.685   1.519  0.2860  0.7388 -0.1545
  161MOL0     C21185  10.600   7.113   2.075 -0.9590  0.7398 -0.7114
  161MOL0     C21186  10.551   7.241   2.118  0.0167  0.1551  0.4924
  161MOL0     H21187  10.138   7.461   2.545 -1.6321  0.7684  0.8754
  161MOL0     H21188   9.992   7.632   2.533  1.8460 -0.4672 -0.1530
  161MOL0     H21189  10.020   7.891   2.393  0.4173 -0.0056  2.5353
  161MOL0     H21190   9.891   7.847   2.499  2.0682  2.1521  1.5767
  161MOL0     H21191   9.719   7.953   2.323  0.2145 -0.1794 -0.5781
  161MOL0     H21192   9.851   7.973   2.217 -3.8044 -1.7958 -1.7393
  161MOL0     H21193   9.794   8.196   2.320  0.2948  0.3722 -1.1867
  161MOL0     H21194   9.956   8.148   2.367 -1.3571  3.0385 -0.4558
  161MOL0     H21195   9.729   8.078   2.571  0.0837 -1.3449 -1.1778
  161MOL0     H21196   9.893   8.076   2.588  0.2272  2.2845  2.4044
  161MOL0     H21197   9.730   8.326   2.535 -0.4381 -0.4855 -1.0073
  161MOL0     H21198   9.903   8.330   2.515 -0.9765 -0.0753 -2.3637
  161MOL0     H21199   9.913   8.230   2.748  1.6725  2.0007 -1.5952
  161MOL0     H21200   9.743   8.280   2.749 -0.8030 -1.1663 -3.8212
  161MOL0     H21201   9.993   8.475   2.735  0.1138 -1.0510 -2.6380
  161MOL0     H21202   9.812   8.516   2.750 -0.5994 -0.8400 -0.8160
  161MOL0     H21203   9.962   8.531   2.959  1.2111 -1.8422  1.3006
  161MOL0     H21204   9.965   8.357   2.942 -0.6359 -2.2807 -3.0013
  161MOL0     H21205   9.713   8.661   3.011  0.5973 -0.9828 -0.6634
  161MOL0     H21206   9.520   8.675   3.180  0.8631 -0.8537  0.9187
  161MOL0     H21207   9.451   8.532   3.257 -1.4735 -0.7937 -0.6184
  161MOL0     H21208   9.251   8.601   3.147 -1.2273  3.1684 -1.5446
  161MOL0     H21209   9.317   8.466   3.072 -3.4166  0.3299  1.7912
  161MOL0     H21210   9.429   8.627   2.891  0.7137 -1.0687  0.9191
  161MOL0     H21211   9.252   8.648   2.909  0.4917  0.1281  0.3518
  161MOL0     H21212   9.373   8.843   2.861 -0.4448 -1.7910 -0.3143
  161MOL0     H21213   9.487   8.811   3.002  0.7546 -0.8604  0.3612
  161MOL0     H21214   9.121   9.040   3.134 -1.1064 -1.3387 -2.7803
  161MOL0     H21215   9.109   9.299   3.100  0.1650  1.5784  0.1060
  161MOL0     H21216   9.235   9.693   3.072 -1.5048  0.9440 -0.5265
  161MOL0     H21217   9.196   9.927   3.014 -0.1510  0.0558  0.1691
  161MOL0     H21218   9.353  10.091   2.632 -1.3528 -0.3457 -0.0628
  161MOL0     H21219   9.484  10.120   2.751  0.9343  1.0589 -0.4921
  161MOL0     H21220   9.221  10.280   2.712  0.4451  0.6074 -0.2411
  161MOL0     H21221   9.364  10.303   2.614 -0.8598  1.3935  0.6100
  161MOL0     H21222   9.492  10.369   2.825  0.5113  0.2184  1.2111
  161MOL0     H21223   9.351  10.303   2.911 -0.9160  1.9321  0.4292
  161MOL0     H21224   9.313  10.521   2.734  0.1597 -1.1683 -0.2427
  161MOL0     H21225   9.205  10.470   2.859 -0.4360  0.8647 -3.1015
  161MOL0     H21226   9.464  10.617   2.912  0.7468 -1.2477 -0.0814
  161MOL0     H21227   9.389  10.512   3.032 -0.0270 -1.5606 -1.0921
  161MOL0     H21228   9.188  10.639   3.018  0.0478 -1.3150  0.3381
  161MOL0     H21229   9.257  10.757   2.905  0.2152 -2.6115 -1.6308
  161MOL0     H21230   9.263  10.849   3.149  3.4990  2.7406 -2.1546
  161MOL0     H21231   9.336  10.687   3.189  1.2114 -0.7283 -0.5110
  161MOL0     H21232   9.469  10.930   3.143  0.9880 -2.1170  3.0971
  161MOL0     H21233   9.481  10.870   2.983  1.9720 -2.5558 -0.0317
  161MOL0     H21234   9.488   9.881   2.695  2.1624  0.8404  1.2483
  161MOL0     H21235   9.523   9.651   2.762 -2.4989 -1.6220 -1.4829
  161MOL0     H21236   9.491   9.283   2.924  0.6992 -0.9094  1.3730
  161MOL0     H21237   9.488   9.040   2.925  0.1108  2.6117 -0.5507
  161MOL0     H21238  10.010   7.648   2.102 -0.6316  0.2950 -0.4242
  161MOL0     H21239  10.207   7.469   2.123  0.8424  0.3249  0.6334
  161MOL0     H21240  10.310   7.124   2.334 -0.7528 -0.7830 -0.0405
  161MOL0     H21241  10.405   6.907   2.263 -1.3429  0.1931 -0.4626
  161MOL0     H21242  10.443   6.921   1.923  1.0170  0.0996 -1.2511
  161MOL0     H21243  10.396   6.797   2.046 -2.4035 -2.0381 -2.0574
  161MOL0     H21244  10.591   6.652   1.928 -0.7083  0.9796  1.7071
  161MOL0     H21245  10.423   6.682   1.859 -0.8197  0.8023  1.7236
  161MOL0     H21246  10.694   6.808   1.784 -0.1199 -0.9343 -0.1195
  161MOL0     H21247  10.533   6.850   1.710  1.2670  1.3136 -0.7318
  161MOL0     H21248  10.624   6.558   1.703  0.1942 -0.6157 -2.3393
  161MOL0     H21249  10.534   6.648   1.585 -0.0074  0.7940 -0.1901
  161MOL0     H21250  10.914   6.684   1.445  1.7338 -0.1587  1.3038
  161MOL0     H21251  10.662   7.111   1.987  0.5507 -1.0551  0.3154
  161MOL0     H21252  10.593   7.329   2.070  1.3319 -1.1416 -0.8253
  162MOL0     O21253   3.762   6.820   7.499 -0.0934  0.0652 -0.5695
  162MOL0     C21254   3.808   6.881   7.396  0.3060  0.2677 -0.6912
  162MOL0     O21255   3.900   6.830   7.307  0.3377  0.5564 -0.7514
  162MOL0     C21256   3.966   6.721   7.333 -1.2448  0.2469 -0.7022
  162MOL0     C21257   4.090   6.732   7.391  0.1889  0.1504 -0.3506
  162MOL0     C21258   4.158   6.618   7.422 -0.3934  0.0586  0.9341
  162MOL0     C21259   4.120   6.490   7.384 -0.1493 -0.3233  1.0558
  162MOL0     O21260   4.190   6.379   7.424 -0.5980  0.4356  0.0624
  162MOL0     C21261   4.305   6.359   7.348  0.1135 -0.4434 -0.1775
  162MOL0     C21262   4.276   6.290   7.212  0.1055 -0.7798 -0.8124
  162MOL0     C21263   4.214   6.158   7.237 -0.2540  0.4417 -0.4185
  162MOL0     C21264   4.302   6.065   7.326  0.6661  0.7047  0.4784
  162MOL0     C21265   4.252   5.918   7.308  0.2536 -0.8958  0.8451
  162MOL0     C21266   4.111   5.883   7.361  0.0355 -0.4390 -0.9068
  162MOL0     C21267   4.090   5.733   7.377 -0.3890 -0.5948  0.1192
  162MOL0     C21268   4.010   5.660   7.273 -0.3825  0.2178 -0.0822
  162MOL0     N21269   3.879   5.726   7.254  0.6384 -0.4066  0.6796
  162MOL0     C21270   3.783   5.720   7.342  0.1790  0.4432 -0.8333
  162MOL0     C21271   3.663   5.714   7.279 -0.6569  0.0582 -0.0423
  162MOL0     C21272   3.525   5.705   7.320  0.4576 -0.1785 -0.2170
  162MOL0     C21273   3.454   5.837   7.387  0.6692  0.3201  1.1527
  162MOL0     C21274   3.465   5.956   7.299 -0.5007 -0.0426  0.0412
  162MOL0     C21275   3.392   6.072   7.348 -0.5887 -0.1942  0.4773
  162MOL0     O21276   3.266   6.043   7.403 -0.1134 -0.8427  0.1965
  162MOL0     C21277   3.202   6.144   7.468  0.1256 -0.5167  0.7176
  162MOL0     C21278   3.200   6.144   7.606 -0.2470 -0.1275  0.4759
  162MOL0     C21279   3.153   6.257   7.674  0.0069 -0.7568  0.0340
  162MOL0     C21280   3.100   6.363   7.602  0.7721  0.1111  0.6351
  162MOL0     C21281   3.042   6.489   7.672 -0.1817 -0.0854  0.2581
  162MOL0     O21282   3.058   6.486   7.801 -0.6363 -0.6003 -0.2041
  162MOL0     C21283   3.001   6.586   7.881 -0.8067  0.0174  0.1819
  162MOL0     C21284   2.903   6.553   7.975 -1.3618  0.6320  0.6089
  162MOL0     C21285   2.848   6.652   8.051  0.2246 -0.2455  0.4144
  162MOL0     C21286   2.891   6.784   8.032 -0.2021  0.6115  0.3029
  162MOL0     O21287   2.814   6.873   8.105  0.3901  0.4064  0.2921
  162MOL0     C21288   2.844   7.009   8.094  0.1120 -0.0612  0.3276
  162MOL0     C21289   2.727   7.085   8.155  0.2146 -0.4716 -0.4068
  162MOL0     C21290   2.729   7.235   8.109 -0.6500 -0.6852  0.1528
  162MOL0     C21291   2.821   7.332   8.186  0.2617 -0.0961  0.0548
  162MOL0     C21292   2.751   7.386   8.313 -0.0641  0.0932 -0.7696
  162MOL0     C21293   2.838   7.507   8.364 -0.9901  0.1677 -0.0434
  162MOL0     C21294   2.801   7.631   8.286  0.1287  0.4058 -0.8511
  162MOL0     C21295   2.861   7.749   8.359  0.2365  0.1361 -0.0241
  162MOL0    Cl21296   2.768   7.749   8.522 -0.3151  0.1136 -0.7192
  162MOL0     C21297   2.994   6.815   7.943 -0.3513 -0.2836 -0.0477
  162MOL0     C21298   3.047   6.717   7.862 -0.8546 -0.1907  0.2289
  162MOL0     O21299   2.979   6.576   7.610 -0.5316 -0.1150 -0.3581
  162MOL0     C21300   3.105   6.360   7.457 -0.2387 -1.1377 -0.4886
  162MOL0     C21301   3.161   6.251   7.396 -0.0486  0.3889 -0.2932
  162MOL0     N21302   3.696   5.726   7.142  0.9873  0.0463 -0.4646
  162MOL0     N21303   3.824   5.735   7.129 -0.6010  0.6790  0.1738
  162MOL0     C21304   4.004   6.483   7.299 -0.2230  0.7638  0.2191
  162MOL0     C21305   3.911   6.591   7.298 -0.3086  0.3302 -0.1456
  162MOL0     C21306   3.746   7.018   7.364  0.7940 -0.2654 -0.8259
  162MOL0     C21307   3.817   7.111   7.286  0.1035 -0.5451  0.9949
  162MOL0     C21308   3.790   7.253   7.284 -0.0444  0.7573 -0.8645
  162MOL0     C21309   3.673   7.296   7.350 -0.0656 -1.7603  0.2331
  162MOL0     O21310   3.644   7.430   7.333 -0.0182  1.2697 -0.5677
  162MOL0     C21311   3.554   7.494   7.426  0.2292 -0.6481  0.8435
  162MOL0     C21312   3.597   7.482   7.573 -0.1701 -0.6591  0.8946
  162MOL0     C21313   3.480   7.515   7.665  0.0532  0.4085  0.7117
  162MOL0     C21314   3.527   7.527   7.810  0.2255  0.5236  0.9967
  162MOL0     C21315   3.594   7.661   7.832 -0.0332  0.7907 -0.1576
  162MOL0     C21316   3.669   7.748   7.853  1.5228  0.0156 -0.1678
  162MOL0     C21317   3.599   7.205   7.421 -0.9928 -0.0667 -0.2003
  162MOL0     C21318   3.647   7.073   7.446 -0.1095  0.6352 -0.0571
  162MOL0     H21319   4.124   6.827   7.430  1.9139 -1.9507  3.8335
  162MOL0     H21320   4.250   6.639   7.476  0.9940 -0.1100 -1.2333
  162MOL0     H21321   4.377   6.297   7.401 -0.0139 -2.0422 -1.7979
  162MOL0     H21322   4.355   6.455   7.333 -2.2470  0.6008 -2.1564
  162MOL0     H21323   4.365   6.274   7.150  1.9358 -0.0952  1.5168
  162MOL0     H21324   4.214   6.359   7.153  2.4793  3.7415  1.4598
  162MOL0     H21325   4.185   6.109   7.143 -1.2630 -2.0217  1.0615
  162MOL0     H21326   4.129   6.174   7.304 -1.8059  0.1771 -2.2420
  162MOL0     H21327   4.405   6.064   7.291  0.6327  1.2580  0.3597
  162MOL0     H21328   4.301   6.090   7.432 -0.2260 -2.1938  1.2619
  162MOL0     H21329   4.315   5.855   7.371 -0.0108 -0.5922  1.4227
  162MOL0     H21330   4.254   5.891   7.202 -0.5197  1.3476  0.2115
  162MOL0     H21331   4.038   5.926   7.292  0.5921  2.3161  0.0927
  162MOL0     H21332   4.100   5.928   7.460 -1.8631 -2.8901  0.1048
  162MOL0     H21333   4.178   5.667   7.376  0.0500 -0.1792 -3.6036
  162MOL0     H21334   4.042   5.714   7.473 -0.7549  0.1811  0.0972
  162MOL0     H21335   4.006   5.553   7.295  5.8123 -0.6012 -1.0894
  162MOL0     H21336   4.059   5.652   7.175  1.7495 -0.9312  1.0056
  162MOL0     H21337   3.794   5.714   7.450 -1.0020 -0.3798 -0.7326
  162MOL0     H21338   3.524   5.635   7.404  0.0750  1.0725  0.8498
  162MOL0     H21339   3.472   5.669   7.231  1.6763 -0.3590 -0.8935
  162MOL0     H21340   3.489   5.860   7.488 -0.8602  1.1723  1.5245
  162MOL0     H21341   3.347   5.820   7.399  0.4394  1.6911  1.2274
  162MOL0     H21342   3.571   5.981   7.297 -0.5478  0.4912  1.9650
  162MOL0     H21343   3.443   5.939   7.194  0.3513 -2.8727  0.2458
  162MOL0     H21344   3.388   6.154   7.275  1.5743  0.7283  1.3024
  162MOL0     H21345   3.459   6.105   7.428 -1.0402  0.4706  0.5973
  162MOL0     H21346   3.249   6.066   7.663  1.5204 -0.3573 -1.2642
  162MOL0     H21347   3.168   6.263   7.781  1.2057  0.3094 -0.1674
  162MOL0     H21348   2.856   6.456   7.981 -1.2267  0.3204 -2.1453
  162MOL0     H21349   2.758   6.632   8.109 -1.5483  3.5025 -0.7270
  162MOL0     H21350   2.859   7.032   7.988  0.3015 -1.5556  0.0076
  162MOL0     H21351   2.938   7.033   8.145  1.5057  0.2476 -2.2014
  162MOL0     H21352   2.722   7.088   8.264 -1.1754  4.5591 -0.3929
  162MOL0     H21353   2.634   7.047   8.112  1.0890 -1.4830 -1.4611
  162MOL0     H21354   2.627   7.274   8.119 -0.9593 -1.8857  2.0475
  162MOL0     H21355   2.760   7.238   8.004 -2.7790 -1.3275 -0.5440
  162MOL0     H21356   2.922   7.293   8.203  0.4332  0.1189 -0.4402
  162MOL0     H21357   2.840   7.409   8.110  0.9823 -2.8348 -2.7450
  162MOL0     H21358   2.760   7.306   8.387  0.5566  0.3307 -0.5803
  162MOL0     H21359   2.648   7.421   8.303  0.4258  1.3435 -1.6901
  162MOL0     H21360   2.945   7.484   8.366 -0.7583  0.7998 -2.3041
  162MOL0     H21361   2.804   7.504   8.468  0.8193 -0.3569  0.5717
  162MOL0     H21362   2.834   7.635   8.182  0.5570  2.0579 -0.6799
  162MOL0     H21363   2.691   7.635   8.289 -0.1462 -3.2727  2.2191
  162MOL0     H21364   2.836   7.844   8.311 -1.8864 -0.6705 -0.6705
  162MOL0     H21365   2.969   7.747   8.375  0.2771  0.2630 -0.2916
  162MOL0     H21366   3.039   6.912   7.925  1.8551 -1.2799 -0.2028
  162MOL0     H21367   3.111   6.746   7.779 -1.1266  2.5432  0.8638
  162MOL0     H21368   3.063   6.440   7.397  1.2561 -0.3113 -0.4758
  162MOL0     H21369   3.181   6.234   7.291 -1.7151 -2.9438 -0.2013
  162MOL0     H21370   3.973   6.389   7.254 -0.2107  0.3223  1.1047
  162MOL0     H21371   3.809   6.579   7.264 -0.5481  2.3744 -0.2774
  162MOL0     H21372   3.905   7.081   7.231 -0.7176  3.8766 -3.4099
  162MOL0     H21373   3.839   7.328   7.223 -0.4977  2.2937  0.5876
  162MOL0     H21374   3.452   7.456   7.416 -1.0687  2.8351 -0.9735
  162MOL0     H21375   3.539   7.596   7.388  0.7463 -1.1609 -0.8164
  162MOL0     H21376   3.629   7.380   7.596 -0.4393 -0.2745  3.2178
  162MOL0     H21377   3.685   7.547   7.587 -0.7603  0.5195 -0.5478
  162MOL0     H21378   3.396   7.445   7.663 -1.4345  2.1369 -1.0099
  162MOL0     H21379   3.436   7.610   7.636 -1.8042 -0.7762 -0.5783
  162MOL0     H21380   3.434   7.525   7.868 -0.0488 -1.3780  0.5408
  162MOL0     H21381   3.584   7.437   7.833  0.2210 -0.0815 -1.1283
  162MOL0     H21382   3.746   7.820   7.871  1.2673 -0.2268  2.1602
  162MOL0     H21383   3.501   7.235   7.458 -0.4754  2.7878 -0.9228
  162MOL0     H21384   3.608   7.035   7.540  0.8464  2.4137  1.1308
  163MOL0     O21385   1.402   2.191   6.083 -0.3284  0.1967  0.6336
  163MOL0     C21386   1.453   2.083   6.075  0.8540 -1.0263  1.0217
  163MOL0     O21387   1.397   1.972   6.108  0.5315 -0.5335  0.0765
  163MOL0     C21388   1.259   1.968   6.117 -0.2145  0.3163  0.0174
  163MOL0     C21389   1.198   1.921   6.232  0.5927  0.1753  0.1435
  163MOL0     C21390   1.060   1.903   6.232  0.7486  0.5770  0.7086
  163MOL0     C21391   0.980   1.947   6.125 -0.4529  0.3041 -0.0644
  163MOL0     O21392   0.848   1.919   6.135  0.2765 -0.5464  0.4595
  163MOL0     C21393   0.771   2.016   6.060  1.0249  0.0594 -0.1292
  163MOL0     C21394   0.624   1.993   6.088 -0.0118 -0.2003  0.3324
  163MOL0     C21395   0.557   2.120   6.067 -0.1800  0.1281 -0.9278
  163MOL0     C21396   0.405   2.102   6.037 -0.8336 -0.3113  0.2526
  163MOL0     C21397   0.316   2.229   6.068 -0.1363  1.3601 -0.2415
  163MOL0     C21398   0.318   2.272   6.214 -1.2863 -0.3474 -0.5856
  163MOL0     C21399   0.186   2.341   6.252 -0.2109  0.1918 -0.2609
  163MOL0     C21400   0.145   2.350   6.406 -0.1248  1.1004  0.2336
  163MOL0     N21401   0.131   2.230   6.477 -0.3664  1.2274 -1.0090
  163MOL0     C21402   0.038   2.131   6.444 -0.0124  0.1081 -0.0736
  163MOL0     C21403   0.074   2.017   6.510 -0.3450  0.1917  0.8956
  163MOL0     C21404  -0.003   1.889   6.519 -0.1343 -0.2454 -0.3688
  163MOL0     C21405  -0.070   1.858   6.385  0.7416 -0.0105 -0.8955
  163MOL0     C21406  -0.162   1.732   6.396 -0.1381 -0.2571  0.5607
  163MOL0     C21407  -0.293   1.767   6.450 -0.2941  0.2691 -0.3692
  163MOL0     O21408  -0.363   1.649   6.473 -0.2092  0.3396  0.1573
  163MOL0     C21409  -0.460   1.627   6.390  0.2742  0.2949  0.4689
  163MOL0     C21410  -0.444   1.569   6.263 -0.0533  0.5188  0.9411
  163MOL0     C21411  -0.543   1.583   6.162  0.0557 -0.1539  0.9283
  163MOL0     C21412  -0.666   1.642   6.193 -0.2108  0.4364  0.0366
  163MOL0     C21413  -0.780   1.660   6.097  0.3013 -0.1963 -0.2804
  163MOL0     O21414  -0.743   1.643   5.964  0.6564 -0.4393 -0.2814
  163MOL0     C21415  -0.836   1.625   5.861  0.0251 -0.4322 -0.0920
  163MOL0     C21416  -0.966   1.680   5.857 -0.1902  0.0914  0.3050
  163MOL0     C21417  -1.049   1.646   5.746  0.1099 -0.3110  0.0943
  163MOL0     C21418  -0.996   1.566   5.642 -0.3025 -0.9820 -0.4416
  163MOL0     O21419  -1.069   1.548   5.532  0.2024  0.2817  0.5857
  163MOL0     C21420  -1.048   1.447   5.438  0.0640  0.5848  0.5518
  163MOL0     C21421  -1.178   1.414   5.358  0.8430  0.2864  0.8600
  163MOL0     C21422  -1.168   1.291   5.260 -0.4792  0.1252 -0.4925
  163MOL0     C21423  -1.304   1.279   5.190 -0.3594  0.7478  0.7021
  163MOL0     C21424  -1.297   1.173   5.083 -0.6481  0.0721 -0.1673
  163MOL0     C21425  -1.444   1.158   5.034  0.6111  0.5073  1.0052
  163MOL0     C21426  -1.448   1.051   4.912 -0.4263 -0.3767  0.0728
  163MOL0     C21427  -1.382   0.914   4.931  0.1233 -0.9619 -0.5344
  163MOL0    Cl21428  -1.446   0.848   5.084 -0.4570 -0.0057 -0.0334
  163MOL0     C21429  -0.861   1.522   5.646 -0.0758  0.3728 -0.6526
  163MOL0     C21430  -0.782   1.550   5.758 -0.3404 -0.1715  0.7463
  163MOL0     O21431  -0.895   1.665   6.133  0.2290  0.1716  0.6849
  163MOL0     C21432  -0.693   1.674   6.322  0.7064  0.2316  0.5800
  163MOL0     C21433  -0.593   1.667   6.424  0.1511 -0.4557 -0.2781
  163MOL0     N21434   0.191   2.048   6.580 -0.4433  0.1832  0.2044
  163MOL0     N21435   0.219   2.172   6.565  0.4440 -0.1058  0.5165
  163MOL0     C21436   1.040   1.998   6.009 -0.0874  0.4220 -0.2775
  163MOL0     C21437   1.180   1.997   6.001  0.7337 -0.0585 -0.0638
  163MOL0     C21438   1.600   2.089   6.070 -0.3903  0.0699  0.2329
  163MOL0     C21439   1.675   1.968   6.076  0.2619 -0.7306  0.2383
  163MOL0     C21440   1.815   1.967   6.065  0.6056  0.1703 -0.2647
  163MOL0     C21441   1.885   2.086   6.017 -0.4374  0.5762 -0.5543
  163MOL0     O21442   2.022   2.099   5.996 -0.2861  0.5609  0.1972
  163MOL0     C21443   2.084   1.976   5.971  0.5880  0.2046 -0.1334
  163MOL0     C21444   2.218   2.012   5.904  0.2887  0.6522 -0.0577
  163MOL0     C21445   2.212   2.049   5.756  0.2289 -0.1283  0.0079
  163MOL0     C21446   2.211   1.918   5.683 -0.4595 -0.8973 -0.0979
  163MOL0     C21447   2.209   1.948   5.545 -0.2829  0.6472  0.7651
  163MOL0     C21448   2.221   1.961   5.425 -0.7736  0.5122 -0.2386
  163MOL0     C21449   1.809   2.202   6.010 -0.6498  0.1670  0.2864
  163MOL0     C21450   1.677   2.206   6.038  0.2155 -0.4831  0.3515
  163MOL0     H21451   1.252   1.898   6.323 -4.6238 -0.9076  3.4220
  163MOL0     H21452   0.999   1.881   6.319 -0.3108  0.1997 -0.1100
  163MOL0     H21453   0.785   2.019   5.952 -1.6416 -1.2917 -0.5983
  163MOL0     H21454   0.797   2.112   6.105 -1.2304  0.6818 -0.0576
  163MOL0     H21455   0.607   1.954   6.188  1.5813 -2.0029 -0.0417
  163MOL0     H21456   0.583   1.918   6.019 -5.4513  1.4111  1.3584
  163MOL0     H21457   0.603   2.182   5.989 -0.4176  1.7474  0.1812
  163MOL0     H21458   0.579   2.172   6.160  1.0083 -1.4869 -0.2502
  163MOL0     H21459   0.400   2.077   5.931  1.5075 -0.6720  0.1903
  163MOL0     H21460   0.374   2.016   6.096  1.7406 -0.1981  1.9481
  163MOL0     H21461   0.223   2.185   6.030  1.6841 -0.8804 -2.4677
  163MOL0     H21462   0.333   2.317   6.006 -1.4978  1.0599 -1.0824
  163MOL0     H21463   0.408   2.333   6.229 -0.8926 -1.6155  3.4632
  163MOL0     H21464   0.332   2.189   6.284  1.3447  1.3007  1.0156
  163MOL0     H21465   0.192   2.443   6.214  2.6740  0.3050  0.3053
  163MOL0     H21466   0.110   2.279   6.202  0.1823 -1.3701  1.0000
  163MOL0     H21467   0.059   2.415   6.424 -3.5659 -3.4547  2.3342
  163MOL0     H21468   0.233   2.400   6.449  0.6654  0.1369 -0.2102
  163MOL0     H21469  -0.058   2.140   6.395 -0.9616 -0.4081  1.6380
  163MOL0     H21470  -0.074   1.893   6.602 -1.5416  1.5227 -1.5871
  163MOL0     H21471   0.058   1.800   6.539 -0.2402 -0.0728  0.8019
  163MOL0     H21472   0.008   1.831   6.314  1.4618  1.7012 -0.7950
  163MOL0     H21473  -0.135   1.940   6.353 -1.2785 -1.3775 -0.5017
  163MOL0     H21474  -0.163   1.694   6.293 -0.2172 -0.7597  0.7429
  163MOL0     H21475  -0.104   1.662   6.458  2.4035  1.8336  0.7415
  163MOL0     H21476  -0.342   1.839   6.384 -4.4399 -1.9856 -0.0966
  163MOL0     H21477  -0.277   1.813   6.548  1.2478  0.7656 -0.8306
  163MOL0     H21478  -0.347   1.530   6.234 -1.1586 -0.3597 -2.0156
  163MOL0     H21479  -0.533   1.524   6.071  1.1913 -2.3496  2.3878
  163MOL0     H21480  -1.012   1.747   5.929 -0.3562  1.5557 -1.1031
  163MOL0     H21481  -1.153   1.675   5.743  1.0362  3.6359  0.4481
  163MOL0     H21482  -1.032   1.359   5.502 -5.4364  1.0351  3.0661
  163MOL0     H21483  -0.965   1.460   5.368  1.2693  2.4838  2.2424
  163MOL0     H21484  -1.206   1.510   5.315 -0.0846 -0.0239  0.7492
  163MOL0     H21485  -1.259   1.377   5.422 -0.1453  0.6600 -0.1630
  163MOL0     H21486  -1.136   1.203   5.316  3.1007  0.3513 -1.8691
  163MOL0     H21487  -1.082   1.306   5.193 -0.1872  0.8188  0.0218
  163MOL0     H21488  -1.370   1.240   5.268  4.4915 -0.7850  4.6123
  163MOL0     H21489  -1.324   1.378   5.149  0.6243  0.3883 -0.7133
  163MOL0     H21490  -1.264   1.076   5.122  1.0657  1.1440  1.1875
  163MOL0     H21491  -1.221   1.216   5.017 -1.1783  1.1674 -0.0761
  163MOL0     H21492  -1.481   1.249   4.986  0.6229 -0.2186 -0.4510
  163MOL0     H21493  -1.512   1.133   5.116  1.0893  0.4109  1.3745
  163MOL0     H21494  -1.554   1.030   4.894  0.1616 -2.5218 -1.2131
  163MOL0     H21495  -1.410   1.098   4.821  0.8515  0.0733  0.8167
  163MOL0     H21496  -1.275   0.933   4.945  0.1755  1.9260 -3.5108
  163MOL0     H21497  -1.411   0.852   4.846  0.2257 -0.5746 -0.8565
  163MOL0     H21498  -0.824   1.454   5.569 -0.4362 -1.2203  0.5238
  163MOL0     H21499  -0.676   1.528   5.759  0.2952  2.4201 -0.5580
  163MOL0     H21500  -0.793   1.696   6.358  0.8178  0.4875  0.7386
  163MOL0     H21501  -0.614   1.706   6.523 -1.0629  1.4156 -1.2126
  163MOL0     H21502   0.990   2.033   5.919  2.5830  2.6733 -1.0451
  163MOL0     H21503   1.218   2.037   5.908  0.3650 -2.5987 -1.4010
  163MOL0     H21504   1.618   1.881   6.108 -1.9234  1.3154  2.2958
  163MOL0     H21505   1.863   1.870   6.069  0.7372  0.2726  0.8539
  163MOL0     H21506   2.033   1.902   5.910  0.3558  0.1898  0.0762
  163MOL0     H21507   2.099   1.928   6.068  1.5284 -4.3323 -2.2813
  163MOL0     H21508   2.269   2.089   5.963  0.1775  1.4979 -1.0266
  163MOL0     H21509   2.300   1.940   5.916  2.0491  2.5242 -0.2160
  163MOL0     H21510   2.297   2.110   5.723 -2.2543  5.5230  2.7005
  163MOL0     H21511   2.119   2.104   5.740 -0.9140 -1.8332  0.6240
  163MOL0     H21512   2.306   1.864   5.691  0.0206 -0.0191  0.1709
  163MOL0     H21513   2.125   1.856   5.710 -0.3246  0.6855  4.7430
  163MOL0     H21514   2.233   1.961   5.319 -1.0533  1.1476 -0.2733
  163MOL0     H21515   1.859   2.291   5.976 -3.0274  0.1892 -3.7503
  163MOL0     H21516   1.629   2.302   6.025 -3.3206 -1.8745  1.8256
  164MOL0     O21517   3.345   8.731   6.854  0.4983  0.1004  0.0580
  164MOL0     C21518   3.258   8.823   6.842 -0.3800  0.0473  0.4088
  164MOL0     O21519   3.268   8.950   6.899 -0.0342  0.3103 -0.3918
  164MOL0     C21520   3.360   9.017   6.985  0.1837  1.2354  0.5226
  164MOL0     C21521   3.481   8.967   7.013 -1.0689 -0.3514  0.1667
  164MOL0     C21522   3.563   9.018   7.117  0.6149  0.5495  0.1073
  164MOL0     C21523   3.527   9.141   7.170  0.0456  0.1481 -0.7205
  164MOL0     O21524   3.626   9.224   7.225  1.2057  0.2600 -0.5429
  164MOL0     C21525   3.635   9.214   7.369 -0.5785 -0.1201 -0.6013
  164MOL0     C21526   3.732   9.305   7.441 -0.3745  0.3584 -0.1274
  164MOL0     C21527   3.719   9.451   7.374  0.9383 -0.8914 -0.2416
  164MOL0     C21528   3.736   9.573   7.460 -0.8041 -0.3318  0.3462
  164MOL0     C21529   3.883   9.589   7.499 -0.3263  0.1950  0.9527
  164MOL0     C21530   3.923   9.713   7.580  0.5032  0.5895 -0.1941
  164MOL0     C21531   3.898   9.699   7.728  0.2872  0.5433 -0.0975
  164MOL0     C21532   3.903   9.566   7.785  0.5912  0.1101  0.5161
  164MOL0     N21533   3.939   9.580   7.924  0.3076 -0.0295 -0.4841
  164MOL0     C21534   4.070   9.593   7.968  0.2324  0.7524 -0.0270
  164MOL0     C21535   4.056   9.629   8.106  0.3623 -0.1272  0.1479
  164MOL0     C21536   4.155   9.664   8.219  0.9243 -0.1158 -0.4814
  164MOL0     C21537   4.231   9.792   8.207  0.2348 -0.4139  1.0362
  164MOL0     C21538   4.364   9.780   8.133 -0.2444 -0.1597 -0.0485
  164MOL0     C21539   4.475   9.707   8.226 -0.2586 -0.2912  0.5806
  164MOL0     O21540   4.513   9.798   8.328 -0.5042  0.7040  0.3199
  164MOL0     C21541   4.558   9.733   8.441  0.3206 -0.1503 -0.8749
  164MOL0     C21542   4.680   9.794   8.486  1.1085  0.0969  0.6143
  164MOL0     C21543   4.733   9.764   8.610  0.7004 -0.0308 -0.7886
  164MOL0     C21544   4.680   9.663   8.688  0.1887 -0.0730 -0.7191
  164MOL0     C21545   4.749   9.626   8.813  0.1679 -0.1422  0.3290
  164MOL0     O21546   4.729   9.500   8.850  0.5538  0.6000 -0.0442
  164MOL0     C21547   4.796   9.449   8.957 -0.3024 -0.3390  0.5198
  164MOL0     C21548   4.731   9.356   9.035  0.5602  0.3239  0.0669
  164MOL0     C21549   4.785   9.285   9.140  0.5800 -0.3437 -0.4430
  164MOL0     C21550   4.917   9.319   9.178 -0.2775  0.2325 -0.8917
  164MOL0     O21551   4.956   9.247   9.291 -0.5691  0.2706 -0.0932
  164MOL0     C21552   5.054   9.308   9.382 -0.2282  0.3976 -0.2828
  164MOL0     C21553   5.008   9.451   9.443  0.6625 -0.4707 -0.9621
  164MOL0     C21554   5.114   9.527   9.524 -0.8153  0.3962 -0.1163
  164MOL0     C21555   5.136   9.481   9.670  0.6684 -0.3810 -1.1320
  164MOL0     C21556   5.242   9.575   9.725  0.2700  0.4660 -0.8464
  164MOL0     C21557   5.236   9.571   9.874  0.6895 -0.0456 -1.2815
  164MOL0     C21558   5.280   9.441   9.944 -0.2903 -0.2230  0.2437
  164MOL0     C21559   5.423   9.405   9.941  0.2240  0.2803  0.6741
  164MOL0    Cl21560   5.429   9.242  10.026 -0.1568 -0.0344  0.2233
  164MOL0     C21561   4.993   9.411   9.102 -0.3061  0.6065  0.1536
  164MOL0     C21562   4.936   9.477   8.993  0.1053  0.7103 -0.6273
  164MOL0     O21563   4.816   9.712   8.871 -0.3053 -0.8341 -0.2053
  164MOL0     C21564   4.560   9.595   8.654  1.0193  0.1096 -1.0434
  164MOL0     C21565   4.494   9.636   8.528 -0.2016 -0.8433  0.5129
  164MOL0     N21566   3.925   9.610   8.143 -0.3835 -0.3638  0.2317
  164MOL0     N21567   3.857   9.585   8.032 -0.0701  0.7620 -0.1247
  164MOL0     C21568   3.401   9.195   7.149 -0.0822  0.0723 -0.7681
  164MOL0     C21569   3.315   9.118   7.068 -0.5601 -1.6310  1.3168
  164MOL0     C21570   3.133   8.794   6.759 -0.2109  0.8425 -0.0321
  164MOL0     C21571   3.039   8.894   6.731 -0.6366 -0.3939  0.1569
  164MOL0     C21572   2.916   8.859   6.671 -0.1210  0.1652 -0.5400
  164MOL0     C21573   2.896   8.732   6.612  0.4829  0.1529  0.1390
  164MOL0     O21574   2.785   8.694   6.539  0.1076 -0.6218  0.4693
  164MOL0     C21575   2.655   8.735   6.589  0.3879  0.0161 -0.6355
  164MOL0     C21576   2.601   8.865   6.535 -0.0237  0.0202  0.1859
  164MOL0     C21577   2.581   8.851   6.380 -1.3699  0.3908 -0.6772
  164MOL0     C21578   2.713   8.888   6.291  0.4205 -0.5774 -0.3513
  164MOL0     C21579   2.672   8.880   6.154 -0.1635  0.3824  0.4730
  164MOL0     C21580   2.626   8.861   6.045 -0.2100  0.7708  0.1899
  164MOL0     C21581   2.989   8.629   6.641  0.2426 -1.2071 -0.4557
  164MOL0     C21582   3.107   8.660   6.714 -1.1328 -0.1044  0.2033
  164MOL0     H21583   3.508   8.871   6.969 -2.8943  0.1243 -2.1564
  164MOL0     H21584   3.661   8.971   7.128  0.3711  0.3748  1.8715
  164MOL0     H21585   3.663   9.112   7.394  0.4400 -0.2051 -1.9858
  164MOL0     H21586   3.541   9.238   7.419 -1.0740 -2.1759 -0.4658
  164MOL0     H21587   3.834   9.275   7.416 -0.2823 -1.0008  1.7229
  164MOL0     H21588   3.716   9.306   7.549  0.4304 -2.8216  0.1237
  164MOL0     H21589   3.616   9.466   7.340  1.5194  1.6596 -1.0682
  164MOL0     H21590   3.772   9.466   7.279  0.0989  1.9303 -0.3526
  164MOL0     H21591   3.688   9.658   7.410  1.3652  0.4450 -0.5266
  164MOL0     H21592   3.698   9.544   7.558  2.0312 -1.5183  1.1927
  164MOL0     H21593   3.932   9.621   7.406 -1.9603  3.7039  1.1175
  164MOL0     H21594   3.930   9.492   7.516 -0.0218 -0.3200 -2.1213
  164MOL0     H21595   3.856   9.790   7.539 -0.4286  0.2400  0.6361
  164MOL0     H21596   4.028   9.738   7.561  0.4631  0.1374 -1.0641
  164MOL0     H21597   3.961   9.768   7.786 -1.1813  3.1460 -1.4483
  164MOL0     H21598   3.798   9.738   7.748  0.5880  1.3998 -0.1962
  164MOL0     H21599   3.985   9.513   7.735  0.6576 -1.9263  2.5923
  164MOL0     H21600   3.811   9.511   7.764 -0.7873  1.4114  2.7077
  164MOL0     H21601   4.162   9.586   7.911 -0.5882  1.9984 -1.5876
  164MOL0     H21602   4.215   9.575   8.236  2.6777  1.2431  0.8828
  164MOL0     H21603   4.092   9.675   8.308  1.3246  0.2645 -0.2415
  164MOL0     H21604   4.245   9.840   8.304 -2.0186  3.4505 -0.3308
  164MOL0     H21605   4.168   9.858   8.145 -1.5522 -2.9726 -0.0535
  164MOL0     H21606   4.367   9.732   8.034 -0.4550 -0.4910  0.1027
  164MOL0     H21607   4.394   9.881   8.106 -1.6839 -0.2423 -2.1813
  164MOL0     H21608   4.560   9.676   8.164 -1.7702 -3.0205 -0.2940
  164MOL0     H21609   4.436   9.611   8.261  2.1719 -1.7628 -0.3946
  164MOL0     H21610   4.724   9.871   8.424 -2.7377  2.0220 -0.0123
  164MOL0     H21611   4.826   9.813   8.637  2.4943 -4.0243  1.0890
  164MOL0     H21612   4.624   9.338   9.025  0.9135 -2.4029  0.3636
  164MOL0     H21613   4.715   9.216   9.186 -0.2313 -1.1876 -2.8163
  164MOL0     H21614   5.148   9.314   9.326 -1.4205  2.4396 -2.2019
  164MOL0     H21615   5.063   9.252   9.476  0.5570  1.1530  0.1072
  164MOL0     H21616   4.925   9.438   9.513  1.4548 -1.4510 -0.1766
  164MOL0     H21617   4.972   9.508   9.357 -4.1351 -1.2189  0.2303
  164MOL0     H21618   5.083   9.631   9.518 -0.4683  0.5020 -0.1161
  164MOL0     H21619   5.211   9.525   9.472 -0.9682 -0.9220 -0.3960
  164MOL0     H21620   5.039   9.502   9.716  0.3730  2.3964 -2.7714
  164MOL0     H21621   5.154   9.373   9.668 -3.8006 -1.3557 -0.0053
  164MOL0     H21622   5.236   9.679   9.691  3.8672  1.0032 -0.2576
  164MOL0     H21623   5.340   9.548   9.683 -0.4438  0.9235 -2.9043
  164MOL0     H21624   5.138   9.590   9.919  0.2017  0.6006 -2.5744
  164MOL0     H21625   5.304   9.651   9.905  0.9431 -0.8943  0.4926
  164MOL0     H21626   5.246   9.446  10.048  0.3867  2.8074  0.4063
  164MOL0     H21627   5.232   9.359   9.889 -1.5029  1.2969 -1.0801
  164MOL0     H21628   5.488   9.476   9.993 -0.3375  0.5198  1.0538
  164MOL0     H21629   5.457   9.401   9.837 -2.2969  3.6435 -0.4420
  164MOL0     H21630   5.099   9.424   9.121  0.1784 -1.5979 -0.7663
  164MOL0     H21631   4.985   9.554   8.935 -2.5030  4.7583  2.0543
  164MOL0     H21632   4.524   9.524   8.728  2.7094  0.2307 -0.0438
  164MOL0     H21633   4.397   9.593   8.507 -0.9796  0.6120  1.0358
  164MOL0     H21634   3.373   9.291   7.191 -1.3378 -0.4929 -0.2540
  164MOL0     H21635   3.222   9.171   7.050  1.9619  2.4440 -1.4418
  164MOL0     H21636   3.046   8.996   6.768  0.3797 -0.4662  0.2082
  164MOL0     H21637   2.847   8.938   6.640 -1.2085 -0.2012  0.8346
  164MOL0     H21638   2.656   8.753   6.697  0.1856 -0.4593 -0.5506
  164MOL0     H21639   2.592   8.649   6.566  0.8867 -0.2280 -1.1170
  164MOL0     H21640   2.505   8.886   6.583  0.8892  0.9814  1.6868
  164MOL0     H21641   2.663   8.944   6.579  0.7480 -0.6134  0.2593
  164MOL0     H21642   2.507   8.920   6.339  1.5061  4.0898 -0.2621
  164MOL0     H21643   2.559   8.744   6.372  2.3868 -0.5085 -1.0194
  164MOL0     H21644   2.752   8.988   6.315 -0.1204 -0.5082  0.2911
  164MOL0     H21645   2.800   8.825   6.313  1.9438  1.5245 -0.0462
  164MOL0     H21646   2.594   8.848   5.943  0.3974  0.0100  0.0838
  164MOL0     H21647   2.965   8.532   6.598 -2.1394 -0.3432 -1.2330
  164MOL0     H21648   3.186   8.587   6.730  0.7004  1.0391 -2.8254
  165MOL0     O21649   5.827   8.570  11.331 -0.4817 -0.0347 -0.4423
  165MOL0     C21650   5.790   8.646  11.417  0.1283  1.3613  0.7885
  165MOL0     O21651   5.662   8.655  11.456  0.4135  0.1787  0.5877
  165MOL0     C21652   5.563   8.578  11.390 -0.8976 -0.1103 -0.5739
  165MOL0     C21653   5.529   8.622  11.267 -0.8579  0.4814  1.6276
  165MOL0     C21654   5.425   8.555  11.193 -0.7303  0.4630  0.7215
  165MOL0     C21655   5.367   8.444  11.252  0.2313  0.4194 -1.9157
  165MOL0     O21656   5.274   8.379  11.181  0.0630  0.5814 -0.8252
  165MOL0     C21657   5.300   8.238  11.155 -0.0827  0.3527  0.0347
  165MOL0     C21658   5.270   8.196  11.013  0.2755 -0.4546  0.1268
  165MOL0     C21659   5.357   8.270  10.908 -0.6082  0.4612  0.6690
  165MOL0     C21660   5.342   8.206  10.778 -0.1675  0.0988  0.7441
  165MOL0     C21661   5.396   8.287  10.661 -0.1321  0.0521  0.3647
  165MOL0     C21662   5.381   8.226  10.516 -0.5150  1.1570 -1.1099
  165MOL0     C21663   5.479   8.106  10.496  0.0106  0.3105  0.2956
  165MOL0     C21664   5.468   8.049  10.348  0.7723  0.1953 -0.6907
  165MOL0     N21665   5.325   8.027  10.323  0.0275 -0.2300  0.3912
  165MOL0     C21666   5.237   7.932  10.376  0.6895 -0.5665  0.4253
  165MOL0     C21667   5.119   7.953  10.316  0.2752 -0.3090 -0.9826
  165MOL0     C21668   4.997   7.864  10.359  0.2350 -0.8700 -0.3289
  165MOL0     C21669   4.908   7.940  10.464 -0.4464 -0.3146  0.3052
  165MOL0     C21670   4.965   7.958  10.606 -0.6181 -0.0659 -0.1608
  165MOL0     C21671   4.980   7.835  10.690 -1.0787  0.4588  0.5102
  165MOL0     O21672   4.849   7.789  10.734  0.3934 -0.2657  0.1307
  165MOL0     C21673   4.841   7.663  10.786  0.0832  0.5703  0.6379
  165MOL0     C21674   4.938   7.562  10.773  0.8573  0.3144  0.1673
  165MOL0     C21675   4.921   7.435  10.831  0.6166 -0.7104  0.4056
  165MOL0     C21676   4.815   7.416  10.920 -0.0818  0.5802 -0.0352
  165MOL0     C21677   4.811   7.290  10.985 -0.0165  0.0423 -0.1606
  165MOL0     O21678   4.697   7.256  11.031 -0.1203  0.6929 -0.6446
  165MOL0     C21679   4.689   7.159  11.121  0.3124 -0.4477 -0.0464
  165MOL0     C21680   4.770   7.151  11.235 -0.7489 -0.3076 -1.1198
  165MOL0     C21681   4.775   7.020  11.294  0.4918 -1.4606  0.2189
  165MOL0     C21682   4.668   6.931  11.270 -0.2796  0.4841 -0.3805
  165MOL0     O21683   4.688   6.817  11.344 -0.2445 -0.7978  0.5057
  165MOL0     C21684   4.677   6.697  11.270  0.3395 -0.5534  0.7315
  165MOL0     C21685   4.731   6.586  11.356 -1.2371 -0.8886 -0.3181
  165MOL0     C21686   4.673   6.444  11.325  0.1907 -0.0965  0.3276
  165MOL0     C21687   4.669   6.397  11.179  0.9274 -0.2986 -0.6118
  165MOL0     C21688   4.627   6.248  11.173  0.8978  0.8167  0.7017
  165MOL0     C21689   4.596   6.204  11.036  0.6399  0.8528 -0.4202
  165MOL0     C21690   4.568   6.057  11.043  0.2462 -0.2464 -0.7055
  165MOL0     C21691   4.490   6.012  10.917  0.1581  0.3676  0.7973
  165MOL0    Cl21692   4.343   6.089  10.898 -0.1272 -0.2443 -0.2664
  165MOL0     C21693   4.568   6.958  11.175  0.4195  0.9015  0.8533
  165MOL0     C21694   4.582   7.068  11.093 -0.4503  0.0068  0.7467
  165MOL0     O21695   4.911   7.222  10.999  0.0661 -0.2464 -0.0070
  165MOL0     C21696   4.727   7.524  10.941  0.6996  0.7368 -0.0325
  165MOL0     C21697   4.739   7.639  10.875 -0.2997  0.7642 -0.4587
  165MOL0     N21698   5.140   8.061  10.227  0.7434 -0.3100 -0.4099
  165MOL0     N21699   5.266   8.097  10.224 -0.7470 -0.5291 -0.5028
  165MOL0     C21700   5.406   8.403  11.381 -0.1415 -0.2623 -0.3339
  165MOL0     C21701   5.516   8.459  11.448 -0.6864 -0.6178 -0.2572
  165MOL0     C21702   5.893   8.713  11.496  0.3265 -0.7443 -0.1866
  165MOL0     C21703   5.873   8.736  11.635  0.0996 -0.2588 -0.9731
  165MOL0     C21704   5.976   8.785  11.715  0.6063  0.4755 -0.0973
  165MOL0     C21705   6.100   8.804  11.668  0.3797  0.9303  1.3281
  165MOL0     O21706   6.209   8.853  11.737  0.2268 -0.1869  0.4248
  165MOL0     C21707   6.199   8.852  11.882 -0.9419 -0.3088  0.5074
  165MOL0     C21708   6.307   8.952  11.923  0.8853  0.0426  0.4652
  165MOL0     C21709   6.439   8.900  11.877 -0.2528  0.2762  0.1787
  165MOL0     C21710   6.550   8.950  11.969 -0.1033 -0.2130 -0.1640
  165MOL0     C21711   6.576   9.090  11.963 -0.1365 -0.6508 -0.4628
  165MOL0     C21712   6.602   9.210  11.961 -0.3444  0.3887  0.0358
  165MOL0     C21713   6.124   8.776  11.536  0.0657 -0.0394  1.0917
  165MOL0     C21714   6.025   8.727  11.451 -0.0466 -0.2455  0.1455
  165MOL0     H21715   5.576   8.710  11.224  2.1846 -3.0386 -3.5361
  165MOL0     H21716   5.398   8.586  11.093  1.2421 -0.5487 -0.1735
  165MOL0     H21717   5.243   8.175  11.224  2.1109  0.8179  2.4414
  165MOL0     H21718   5.397   8.213  11.199 -1.5484  0.0191  3.3860
  165MOL0     H21719   5.166   8.213  10.983  0.9317  0.3691 -1.8892
  165MOL0     H21720   5.276   8.089  10.989  0.2819 -0.3794 -0.2115
  165MOL0     H21721   5.460   8.245  10.934 -0.7394 -0.3606  0.4237
  165MOL0     H21722   5.326   8.375  10.901 -0.5633  0.5075  1.1573
  165MOL0     H21723   5.385   8.106  10.781 -0.6876 -0.3253 -2.2766
  165MOL0     H21724   5.237   8.186  10.755 -0.3158 -0.2768  1.6956
  165MOL0     H21725   5.500   8.315  10.675 -0.0621  0.8064 -1.4036
  165MOL0     H21726   5.345   8.384  10.652  1.2017  0.7665  0.3633
  165MOL0     H21727   5.425   8.298  10.447  2.2271  0.8417  0.1834
  165MOL0     H21728   5.278   8.198  10.490 -0.8814  0.1022  1.1852
  165MOL0     H21729   5.580   8.144  10.512 -0.5904  2.0666  0.1858
  165MOL0     H21730   5.445   8.026  10.563  0.3354 -0.9493 -0.9838
  165MOL0     H21731   5.516   7.951  10.343 -1.3679 -0.9597  0.0924
  165MOL0     H21732   5.519   8.109  10.273  4.2514  1.9521  2.7437
  165MOL0     H21733   5.262   7.851  10.443 -0.7292 -1.8687 -0.5589
  165MOL0     H21734   5.031   7.770  10.402  0.8494 -2.1513 -3.3375
  165MOL0     H21735   4.936   7.857  10.268  1.8260  4.6489 -2.2333
  165MOL0     H21736   4.812   7.891  10.479  0.0218 -1.6097 -0.8061
  165MOL0     H21737   4.881   8.035  10.417  1.9924  0.9589  1.2853
  165MOL0     H21738   5.056   8.019  10.601  0.4008 -1.3067  1.8435
  165MOL0     H21739   4.886   8.021  10.647 -1.0560 -0.1170 -0.9242
  165MOL0     H21740   5.039   7.857  10.779 -0.0787 -0.2970  0.0582
  165MOL0     H21741   5.047   7.767  10.637  0.7430  3.3670 -1.1533
  165MOL0     H21742   5.022   7.570  10.705  2.3434  0.0806  1.8978
  165MOL0     H21743   4.994   7.356  10.816 -0.5808 -1.4891 -1.6699
  165MOL0     H21744   4.844   7.228  11.255  0.3173 -1.8419  1.3214
  165MOL0     H21745   4.857   6.994  11.359  0.6807 -1.6938 -0.1108
  165MOL0     H21746   4.722   6.697  11.170  1.6376 -1.4900  1.2966
  165MOL0     H21747   4.573   6.668  11.252  0.5178 -2.3647  2.3242
  165MOL0     H21748   4.691   6.598  11.457  1.6896  3.3838  0.5962
  165MOL0     H21749   4.841   6.587  11.360 -1.1085  4.1404  0.8050
  165MOL0     H21750   4.566   6.466  11.336  0.2847 -0.0238  1.1989
  165MOL0     H21751   4.699   6.369  11.400 -1.7540 -1.8358 -0.6441
  165MOL0     H21752   4.607   6.466  11.122  0.9522 -0.5225 -0.9134
  165MOL0     H21753   4.773   6.404  11.145  1.9599 -1.9813  1.8934
  165MOL0     H21754   4.542   6.224  11.237  0.7828  0.0471  0.2787
  165MOL0     H21755   4.701   6.175  11.208 -1.0029 -3.5150 -3.2733
  165MOL0     H21756   4.682   6.211  10.968  0.4646 -1.0852 -0.8732
  165MOL0     H21757   4.507   6.265  11.016  0.2793  2.0242  3.8386
  165MOL0     H21758   4.656   5.994  11.059 -1.0889 -1.5449  2.2657
  165MOL0     H21759   4.508   6.037  11.133  0.8635  0.9398 -0.0093
  165MOL0     H21760   4.466   5.906  10.929  1.8979 -0.0218  1.2209
  165MOL0     H21761   4.560   6.026  10.833  0.7885 -1.8617  0.8782
  165MOL0     H21762   4.500   6.876  11.156  1.7463  0.5396 -3.3185
  165MOL0     H21763   4.517   7.090  11.009 -2.9080 -0.0693  2.5254
  165MOL0     H21764   4.652   7.514  11.020 -1.8056  1.5462 -2.1414
  165MOL0     H21765   4.673   7.723  10.894 -0.7159  0.1067  1.1590
  165MOL0     H21766   5.372   8.308  11.420  1.5008 -1.6723 -2.1450
  165MOL0     H21767   5.572   8.414  11.529  2.6204 -0.9954 -2.5726
  165MOL0     H21768   5.776   8.724  11.683 -0.4315  1.8640 -1.3857
  165MOL0     H21769   5.943   8.791  11.818  0.2358 -0.5428 -0.1421
  165MOL0     H21770   6.220   8.749  11.913 -1.2974 -1.2950 -2.2763
  165MOL0     H21771   6.099   8.879  11.919 -1.3349 -3.2970  1.9151
  165MOL0     H21772   6.276   9.051  11.890  0.2212 -0.3600 -0.1489
  165MOL0     H21773   6.311   8.955  12.032 -1.1228 -3.4030  0.7953
  165MOL0     H21774   6.459   8.908  11.770  0.5211  1.1913  0.3859
  165MOL0     H21775   6.453   8.793  11.897  0.6434  0.6681  1.8254
  165MOL0     H21776   6.540   8.916  12.072 -2.1734 -1.3218 -0.6749
  165MOL0     H21777   6.633   8.888  11.934 -0.4087 -2.3554  2.5620
  165MOL0     H21778   6.627   9.314  11.951 -0.9158  0.4850 -0.5071
  165MOL0     H21779   6.227   8.791  11.506 -0.4926 -0.8597 -1.4721
  165MOL0     H21780   6.040   8.669  11.361  1.8264 -0.8852  0.8175
  166MOL0     O21781   2.245   6.502   3.846  0.4511  0.0724  0.2525
  166MOL0     C21782   2.259   6.614   3.795  0.3871 -0.7678 -1.1146
  166MOL0     O21783   2.169   6.679   3.715  0.4214  0.0208 -0.5053
  166MOL0     C21784   2.050   6.611   3.682 -0.1519 -0.1411 -0.0394
  166MOL0     C21785   1.928   6.678   3.678  1.6708 -0.1610 -0.7049
  166MOL0     C21786   1.810   6.601   3.669 -0.7064 -0.0811  0.9939
  166MOL0     C21787   1.808   6.462   3.644 -0.0034  0.4210 -0.1648
  166MOL0     O21788   1.683   6.403   3.624  0.1231 -0.5538  0.0057
  166MOL0     C21789   1.699   6.260   3.595  0.1494  0.9098  0.2249
  166MOL0     C21790   1.554   6.204   3.604  0.1592 -0.1792 -0.0341
  166MOL0     C21791   1.547   6.079   3.525 -0.5539  0.1529  0.3189
  166MOL0     C21792   1.403   6.027   3.537  0.0910 -0.9353  0.4089
  166MOL0     C21793   1.395   5.875   3.535 -0.3287  0.0078 -0.5859
  166MOL0     C21794   1.467   5.796   3.429 -0.1200  0.4285  0.0508
  166MOL0     C21795   1.410   5.823   3.289 -0.1729  0.7271  0.0045
  166MOL0     C21796   1.482   5.744   3.183 -0.2534 -0.1158  0.0333
  166MOL0     N21797   1.386   5.741   3.060 -0.0042 -0.1883 -0.4766
  166MOL0     C21798   1.308   5.639   3.019 -0.0082 -0.0960 -0.4882
  166MOL0     C21799   1.225   5.686   2.931 -0.1042 -0.4811  0.7938
  166MOL0     C21800   1.109   5.611   2.884 -0.2860  0.6483  0.0029
  166MOL0     C21801   1.133   5.471   2.819  0.1477 -0.0043  0.3335
  166MOL0     C21802   1.258   5.477   2.721 -0.0348  0.5594  0.4147
  166MOL0     C21803   1.275   5.353   2.650  0.6646  0.3505  0.3765
  166MOL0     O21804   1.392   5.362   2.564  0.2722 -0.2875  0.3682
  166MOL0     C21805   1.420   5.253   2.490  0.5845 -0.6194 -0.8567
  166MOL0     C21806   1.324   5.151   2.463 -0.9816 -0.4975 -0.8175
  166MOL0     C21807   1.356   5.033   2.395  0.0786 -0.3440 -0.0588
  166MOL0     C21808   1.469   5.021   2.326 -1.4543 -0.0832 -0.6694
  166MOL0     C21809   1.504   4.892   2.261  0.0791  0.6141  0.7014
  166MOL0     O21810   1.629   4.870   2.218  0.4824  0.5986 -0.3130
  166MOL0     C21811   1.655   4.758   2.137 -0.8850  1.3720 -0.3452
  166MOL0     C21812   1.728   4.648   2.194  0.4275  1.0833  0.2992
  166MOL0     C21813   1.766   4.542   2.106  0.6653 -0.5191  0.4946
  166MOL0     C21814   1.727   4.538   1.973 -0.5664  0.1322  0.4020
  166MOL0     O21815   1.758   4.427   1.897 -0.7111 -1.0441  0.0749
  166MOL0     C21816   1.677   4.391   1.788 -0.0256  0.3159  1.1748
  166MOL0     C21817   1.719   4.257   1.739 -0.4379  0.2061 -0.4489
  166MOL0     C21818   1.859   4.263   1.667 -0.0545 -0.6707 -0.1496
  166MOL0     C21819   1.895   4.125   1.619  0.5014  0.5807 -0.5833
  166MOL0     C21820   1.985   4.037   1.703  0.0674 -0.0773 -0.3066
  166MOL0     C21821   1.978   3.883   1.657 -1.6343 -0.2174 -0.2223
  166MOL0     C21822   2.047   3.788   1.757  0.5983 -0.6715  0.9689
  166MOL0     C21823   2.066   3.641   1.713 -0.3955 -0.2264  0.0956
  166MOL0    Cl21824   1.921   3.540   1.718 -0.5539 -0.4707  0.1400
  166MOL0     C21825   1.646   4.646   1.917  0.1160  0.8124  0.0569
  166MOL0     C21826   1.608   4.749   2.005 -0.6950 -0.0195  0.5202
  166MOL0     O21827   1.410   4.814   2.237  0.5549 -0.3645  0.7037
  166MOL0     C21828   1.570   5.121   2.338  0.2710 -0.9774  1.0077
  166MOL0     C21829   1.543   5.236   2.421  0.0041  0.0099  0.1635
  166MOL0     N21830   1.272   5.814   2.901 -0.1989  0.7257  0.6831
  166MOL0     N21831   1.365   5.846   2.982  0.1498  0.8013 -1.1793
  166MOL0     C21832   1.931   6.402   3.641  0.3615  0.2878  0.1658
  166MOL0     C21833   2.049   6.478   3.653  0.1867 -0.6875 -0.2767
  166MOL0     C21834   2.387   6.689   3.822 -1.3458  0.9737 -0.3835
  166MOL0     C21835   2.417   6.806   3.748 -0.6005 -0.3479 -0.3218
  166MOL0     C21836   2.539   6.873   3.782 -0.7757 -0.7085 -0.0698
  166MOL0     C21837   2.634   6.822   3.878  0.6477 -0.9923 -0.5728
  166MOL0     O21838   2.745   6.890   3.922 -0.8955  0.0217 -0.5886
  166MOL0     C21839   2.764   7.024   3.869 -0.4759 -0.0953  0.0083
  166MOL0     C21840   2.891   7.087   3.923 -0.7855 -0.0963 -1.4361
  166MOL0     C21841   2.911   7.229   3.865  0.4261 -0.7244 -0.1769
  166MOL0     C21842   3.060   7.261   3.863  0.5154  0.7271 -1.0517
  166MOL0     C21843   3.075   7.387   3.800  1.0119 -0.0005 -0.6203
  166MOL0     C21844   3.123   7.484   3.747  0.9774 -0.9111 -0.0467
  166MOL0     C21845   2.604   6.707   3.953  0.2051 -0.3816 -0.0874
  166MOL0     C21846   2.480   6.638   3.916  0.6260  0.6951 -0.5357
  166MOL0     H21847   1.913   6.782   3.706 -1.2088 -0.6783 -0.0165
  166MOL0     H21848   1.713   6.648   3.668 -1.0526 -0.6876  2.5984
  166MOL0     H21849   1.744   6.205   3.679 -2.1981  1.4165  1.9416
  166MOL0     H21850   1.728   6.252   3.490 -0.3085 -3.0199  0.2232
  166MOL0     H21851   1.482   6.278   3.568 -2.4010 -2.7002 -0.4636
  166MOL0     H21852   1.532   6.180   3.709  0.4202  1.4741  0.4237
  166MOL0     H21853   1.609   5.999   3.566  2.4452  2.1728 -0.0037
  166MOL0     H21854   1.580   6.098   3.423 -1.7764  1.6783  0.1660
  166MOL0     H21855   1.357   6.061   3.630  2.0638 -2.1566  1.9064
  166MOL0     H21856   1.359   6.065   3.444  2.1191 -1.1326 -0.6944
  166MOL0     H21857   1.292   5.839   3.521  0.7757 -4.1024  0.3247
  166MOL0     H21858   1.428   5.835   3.632  0.3562  1.7708 -0.0580
  166MOL0     H21859   1.451   5.690   3.453 -1.1478  1.0061  2.0990
  166MOL0     H21860   1.575   5.802   3.445 -0.6205 -0.4275  5.6912
  166MOL0     H21861   1.306   5.790   3.294  0.3498 -0.9499  0.7084
  166MOL0     H21862   1.411   5.930   3.267 -1.3512  0.6497 -0.4732
  166MOL0     H21863   1.502   5.638   3.201  0.8467 -0.3593 -2.2940
  166MOL0     H21864   1.572   5.799   3.154 -0.9547  1.1687  0.2537
  166MOL0     H21865   1.317   5.538   3.058 -1.0394 -0.5026 -1.2708
  166MOL0     H21866   1.073   5.685   2.811  1.6021 -0.5067 -2.2376
  166MOL0     H21867   1.033   5.603   2.962  0.5752  0.5168  0.8409
  166MOL0     H21868   1.041   5.428   2.778  0.7620  1.0277 -2.3523
  166MOL0     H21869   1.154   5.409   2.906 -1.2303 -1.0159 -0.0154
  166MOL0     H21870   1.249   5.559   2.649 -0.9874  2.4431  2.5412
  166MOL0     H21871   1.350   5.496   2.777 -0.4408  1.8935  0.6635
  166MOL0     H21872   1.183   5.332   2.596 -1.1616  1.7067  2.7168
  166MOL0     H21873   1.281   5.265   2.714 -1.9890 -1.6031 -1.8375
  166MOL0     H21874   1.220   5.155   2.496 -1.3834 -1.1315 -1.9382
  166MOL0     H21875   1.283   4.953   2.393  0.6379 -0.8530 -0.3672
  166MOL0     H21876   1.746   4.644   2.301  1.0845 -3.0930  0.2194
  166MOL0     H21877   1.825   4.456   2.137 -2.0489 -3.0264 -0.8409
  166MOL0     H21878   1.696   4.456   1.702 -0.5890 -0.0558  0.7634
  166MOL0     H21879   1.575   4.383   1.825 -1.3683  1.1824 -1.9995
  166MOL0     H21880   1.650   4.215   1.665 -2.4791  3.2135 -0.4095
  166MOL0     H21881   1.735   4.187   1.821 -1.5644  1.2975  0.7655
  166MOL0     H21882   1.935   4.304   1.734  0.6805  0.1273 -1.4299
  166MOL0     H21883   1.841   4.315   1.573 -4.2247 -2.3444 -0.4751
  166MOL0     H21884   1.800   4.074   1.603  0.6690  0.5200 -1.4009
  166MOL0     H21885   1.937   4.133   1.519  0.8418 -0.4746 -0.5367
  166MOL0     H21886   1.945   4.060   1.802  0.0981  0.1634 -0.3497
  166MOL0     H21887   2.085   4.081   1.691  0.4966 -1.4272 -2.1785
  166MOL0     H21888   2.032   3.880   1.562  0.7358  3.4802  0.7988
  166MOL0     H21889   1.876   3.850   1.638 -1.4578 -1.0057  0.1241
  166MOL0     H21890   2.151   3.823   1.762  0.2979  0.6306 -1.0332
  166MOL0     H21891   2.002   3.788   1.857  1.5102 -1.1237  1.3975
  166MOL0     H21892   2.130   3.602   1.792  1.3312 -1.9041 -1.9829
  166MOL0     H21893   2.119   3.637   1.617  1.4014  1.1324  0.9636
  166MOL0     H21894   1.618   4.642   1.813  0.6875  1.5935 -0.1388
  166MOL0     H21895   1.542   4.829   1.973 -2.4023 -0.6949  2.1727
  166MOL0     H21896   1.663   5.109   2.282  0.6015 -2.4996  1.8534
  166MOL0     H21897   1.605   5.324   2.435 -3.3493  2.4426  1.2400
  166MOL0     H21898   1.928   6.295   3.628 -4.1524  0.1844  0.4894
  166MOL0     H21899   2.136   6.412   3.651 -0.9391 -2.2752  0.6679
  166MOL0     H21900   2.342   6.832   3.674  0.9352 -0.4839 -2.0014
  166MOL0     H21901   2.558   6.967   3.732  1.4034 -1.0695 -0.0026
  166MOL0     H21902   2.674   7.084   3.888  0.9640  1.8987  0.9091
  166MOL0     H21903   2.769   7.018   3.760 -2.2439 -2.8191 -0.0106
  166MOL0     H21904   2.885   7.098   4.032  2.8458 -0.5278 -1.0584
  166MOL0     H21905   2.974   7.018   3.906 -0.1722  0.1956  0.1329
  166MOL0     H21906   2.854   7.305   3.920  3.1708 -0.6866  2.8898
  166MOL0     H21907   2.883   7.254   3.762  1.8390  2.8874  0.1636
  166MOL0     H21908   3.094   7.257   3.967 -1.6431  1.5546 -0.2550
  166MOL0     H21909   3.114   7.178   3.818  2.1121 -0.2880  2.3941
  166MOL0     H21910   3.174   7.562   3.694 -0.3956 -0.2896 -0.4926
  166MOL0     H21911   2.661   6.677   4.041  0.9597 -1.2866 -0.8582
  166MOL0     H21912   2.453   6.546   3.967 -0.8122  2.0634  1.3012
  167MOL0     O21913   4.155   9.256   3.726 -0.7427  0.2144  0.8074
  167MOL0     C21914   4.074   9.272   3.818  0.6753 -0.0746  0.8299
  167MOL0     O21915   3.944   9.283   3.799 -0.0888 -0.3093 -0.3067
  167MOL0     C21916   3.882   9.287   3.670 -0.4122 -1.0259  0.2003
  167MOL0     C21917   3.761   9.215   3.657 -0.7587  0.3744 -0.5471
  167MOL0     C21918   3.713   9.199   3.528  1.5253  0.7437 -0.6011
  167MOL0     C21919   3.752   9.274   3.418 -0.0155 -0.1359 -0.1103
  167MOL0     O21920   3.688   9.251   3.304 -0.5724 -0.5155 -0.2660
  167MOL0     C21921   3.758   9.259   3.176  0.4514  0.5467 -1.2083
  167MOL0     C21922   3.819   9.121   3.138  0.1331 -0.1564 -0.4912
  167MOL0     C21923   3.710   9.003   3.147 -0.5985 -1.2082 -0.4763
  167MOL0     C21924   3.773   8.863   3.129  0.2620 -0.4935 -0.7075
  167MOL0     C21925   3.831   8.840   2.995 -0.7641 -0.4667 -1.0458
  167MOL0     C21926   3.911   8.703   2.993  0.3633  0.2851 -0.3166
  167MOL0     C21927   3.954   8.678   2.847  1.0346  0.5108 -0.8835
  167MOL0     C21928   3.999   8.542   2.838  0.0198  0.4558  0.0984
  167MOL0     N21929   4.049   8.501   2.707 -0.0922 -0.8290  1.3166
  167MOL0     C21930   4.023   8.557   2.583  0.1447  0.2370 -0.2162
  167MOL0     C21931   4.112   8.504   2.491  0.4681  0.8984 -0.4639
  167MOL0     C21932   4.126   8.529   2.348 -0.2968 -1.2658 -0.4516
  167MOL0     C21933   4.049   8.445   2.254 -0.2055  0.2400  0.0622
  167MOL0     C21934   4.044   8.505   2.112 -0.3972  0.0208  0.2562
  167MOL0     C21935   3.958   8.424   2.024 -0.2916  0.6789 -0.0173
  167MOL0     O21936   4.034   8.301   2.003  0.1163  0.7659  0.0993
  167MOL0     C21937   4.074   8.269   1.875 -0.9220  0.1875  0.9339
  167MOL0     C21938   4.213   8.273   1.838  0.7742  0.2170 -0.9706
  167MOL0     C21939   4.260   8.230   1.709  0.5559  0.7479 -0.1649
  167MOL0     C21940   4.156   8.192   1.623 -0.3031  1.0895  0.2425
  167MOL0     C21941   4.191   8.115   1.497  0.4284 -0.8489 -0.8219
  167MOL0     O21942   4.101   8.031   1.435  1.0762 -1.0306  0.0295
  167MOL0     C21943   4.152   7.950   1.337  0.6522  1.0183  0.3430
  167MOL0     C21944   4.173   7.993   1.204 -0.2820 -0.0437  0.0844
  167MOL0     C21945   4.211   7.909   1.110  1.0460  1.3651  1.0489
  167MOL0     C21946   4.247   7.768   1.136 -0.0432 -0.1890 -0.4962
  167MOL0     O21947   4.298   7.694   1.038  0.3926 -0.1693  0.0792
  167MOL0     C21948   4.362   7.568   1.069  0.2365  0.0090 -0.3001
  167MOL0     C21949   4.421   7.495   0.948  0.0397 -0.4336 -0.0335
  167MOL0     C21950   4.542   7.574   0.883 -0.3801 -0.1074 -0.7235
  167MOL0     C21951   4.566   7.539   0.739  0.7484  0.0968  0.2411
  167MOL0     C21952   4.628   7.397   0.714 -0.9285  0.6936  0.0956
  167MOL0     C21953   4.778   7.391   0.736 -0.5679 -0.1255 -0.5541
  167MOL0     C21954   4.844   7.266   0.671  1.2151 -0.7566 -0.8003
  167MOL0     C21955   4.992   7.263   0.719  0.5926  0.1691  0.9428
  167MOL0    Cl21956   5.093   7.117   0.669 -0.3730  0.0909  0.3964
  167MOL0     C21957   4.214   7.729   1.273  0.1213 -0.1651  1.4651
  167MOL0     C21958   4.179   7.817   1.370 -0.3305  0.3082 -1.1103
  167MOL0     O21959   4.309   8.125   1.461  0.1002  0.0957 -0.2264
  167MOL0     C21960   4.021   8.208   1.657 -0.4277 -0.9995 -0.5570
  167MOL0     C21961   3.980   8.246   1.784  0.9683  1.0324  0.4439
  167MOL0     N21962   4.187   8.414   2.571  0.1643 -0.6659  0.3381
  167MOL0     N21963   4.143   8.413   2.692  0.2056 -0.3648  0.0370
  167MOL0     C21964   3.866   9.352   3.434  0.0031 -0.6827 -0.7614
  167MOL0     C21965   3.927   9.365   3.561  1.3181 -0.1391  0.2569
  167MOL0     C21966   4.119   9.281   3.959  0.1713  0.4838  0.2925
  167MOL0     C21967   4.259   9.267   3.983  0.9542 -0.9829 -1.1861
  167MOL0     C21968   4.309   9.277   4.116  0.7015  0.1279  0.8148
  167MOL0     C21969   4.216   9.291   4.225 -1.5135 -0.4181 -1.6487
  167MOL0     O21970   4.252   9.276   4.357  0.0086 -0.0934 -0.6555
  167MOL0     C21971   4.383   9.275   4.424 -0.3820 -0.3022  0.4542
  167MOL0     C21972   4.449   9.144   4.428  0.6708 -0.2142  0.0956
  167MOL0     C21973   4.596   9.161   4.435 -0.4825 -0.0361  0.0530
  167MOL0     C21974   4.677   9.033   4.461  0.6847  0.4084  0.0992
  167MOL0     C21975   4.758   8.999   4.343  0.1299 -0.3007 -0.5491
  167MOL0     C21976   4.821   8.985   4.246 -0.3556 -0.2543  0.4591
  167MOL0     C21977   4.086   9.312   4.191 -0.1272  0.1814  0.0896
  167MOL0     C21978   4.033   9.315   4.061 -0.0989 -0.3733  0.0834
  167MOL0     H21979   3.740   9.147   3.739  1.6946  0.4746  0.2562
  167MOL0     H21980   3.638   9.120   3.530  3.1624 -0.8654  0.2386
  167MOL0     H21981   3.837   9.334   3.182  1.9265 -1.0428  3.7311
  167MOL0     H21982   3.688   9.301   3.103  0.7854  0.6760 -1.4641
  167MOL0     H21983   3.902   9.103   3.207 -0.1851  2.3720  0.6353
  167MOL0     H21984   3.860   9.130   3.037  0.7254  1.3096 -0.1415
  167MOL0     H21985   3.636   9.015   3.067  0.7077  0.8281 -1.4859
  167MOL0     H21986   3.666   9.025   3.244 -1.1723  0.8708 -1.1542
  167MOL0     H21987   3.854   8.849   3.201  1.5480  0.3428 -1.9397
  167MOL0     H21988   3.698   8.784   3.142 -1.8325  1.5027 -0.1687
  167MOL0     H21989   3.906   8.918   2.984  0.8344 -0.9603  3.9766
  167MOL0     H21990   3.759   8.830   2.913  0.8730  1.0246 -2.7381
  167MOL0     H21991   3.856   8.613   3.021  0.9029 -0.1941 -0.7650
  167MOL0     H21992   4.000   8.709   3.057 -0.2267  0.9057  0.4813
  167MOL0     H21993   3.869   8.689   2.779  0.8836 -1.7842 -1.1434
  167MOL0     H21994   4.040   8.745   2.838  2.2049 -1.1354 -2.6354
  167MOL0     H21995   3.922   8.470   2.868 -1.1462  2.0701  1.1487
  167MOL0     H21996   4.067   8.520   2.922  0.3826 -0.3990 -0.3990
  167MOL0     H21997   3.954   8.640   2.570  1.3962  1.9646  2.8319
  167MOL0     H21998   4.233   8.513   2.330 -0.2867 -0.6280 -0.9670
  167MOL0     H21999   4.097   8.633   2.331  1.1603 -0.5652  1.0366
  167MOL0     H22000   3.946   8.446   2.293 -0.1782 -1.4594  0.2724
  167MOL0     H22001   4.073   8.339   2.263 -3.7520 -0.8351 -1.0959
  167MOL0     H22002   4.026   8.613   2.108 -0.4942 -0.0149 -0.4672
  167MOL0     H22003   4.145   8.507   2.069  0.1095  4.5366  1.1491
  167MOL0     H22004   3.939   8.476   1.930  1.5326 -0.7698 -1.2555
  167MOL0     H22005   3.858   8.401   2.062  0.0261  1.0868  1.1222
  167MOL0     H22006   4.269   8.325   1.915 -0.2709 -1.5348  1.0921
  167MOL0     H22007   4.366   8.226   1.686  0.2323 -0.8168 -1.6276
  167MOL0     H22008   4.143   8.095   1.182  0.3572 -0.0528 -0.8662
  167MOL0     H22009   4.236   7.927   1.006  1.3514 -4.0063 -0.0833
  167MOL0     H22010   4.298   7.490   1.112  0.3678  0.5570  0.9390
  167MOL0     H22011   4.439   7.595   1.141  0.2590  3.0974 -1.3367
  167MOL0     H22012   4.335   7.472   0.884  0.8106 -0.2929 -1.1449
  167MOL0     H22013   4.475   7.407   0.984  1.7863  0.6651  0.1694
  167MOL0     H22014   4.633   7.575   0.944 -0.8749  4.6346  0.3667
  167MOL0     H22015   4.515   7.680   0.891 -4.8281 -1.0984  0.2802
  167MOL0     H22016   4.470   7.537   0.687  0.2281  1.3569  1.1095
  167MOL0     H22017   4.610   7.624   0.685 -0.0149  0.9940  1.0088
  167MOL0     H22018   4.609   7.351   0.616  0.3747  0.3803 -0.0198
  167MOL0     H22019   4.578   7.320   0.774 -3.2260  0.8463 -1.4881
  167MOL0     H22020   4.800   7.419   0.839 -1.4160 -0.1043 -0.3744
  167MOL0     H22021   4.830   7.468   0.678  0.5412 -0.1567  0.3710
  167MOL0     H22022   4.794   7.174   0.703 -1.5415 -0.4035 -3.6538
  167MOL0     H22023   4.833   7.275   0.563  2.1253 -0.0576 -0.8441
  167MOL0     H22024   4.993   7.280   0.827 -0.9344 -1.0280  1.1992
  167MOL0     H22025   5.044   7.340   0.661  3.6966 -1.2469  1.6286
  167MOL0     H22026   4.217   7.622   1.291  0.5734 -0.6921 -1.3208
  167MOL0     H22027   4.129   7.781   1.459 -0.2970  0.5183 -1.0064
  167MOL0     H22028   3.954   8.185   1.575  2.0149  1.3034 -3.4261
  167MOL0     H22029   3.881   8.256   1.829  0.6696  1.8345 -0.3651
  167MOL0     H22030   3.915   9.409   3.357  2.5009 -2.4389 -0.5656
  167MOL0     H22031   4.017   9.423   3.577  1.6625  1.0698 -4.5939
  167MOL0     H22032   4.333   9.260   3.905  3.2547  4.8051 -0.0109
  167MOL0     H22033   4.414   9.255   4.130  0.4040 -2.4414 -0.3428
  167MOL0     H22034   4.350   9.314   4.521  0.1456 -1.3195  1.0669
  167MOL0     H22035   4.455   9.349   4.390  2.2371 -2.1648  1.5626
  167MOL0     H22036   4.431   9.083   4.517  3.0932 -2.3089 -0.7154
  167MOL0     H22037   4.421   9.082   4.342  1.3535  1.0102 -1.0523
  167MOL0     H22038   4.617   9.219   4.526  2.6730 -4.2402  2.3461
  167MOL0     H22039   4.623   9.215   4.344 -2.2599  0.0785 -0.4627
  167MOL0     H22040   4.745   9.065   4.540 -0.3072  2.7541  0.0649
  167MOL0     H22041   4.623   8.942   4.489  1.0483  0.3431  0.6088
  167MOL0     H22042   4.872   8.978   4.152  0.6166  1.1914  0.8445
  167MOL0     H22043   4.025   9.322   4.280 -1.1085  0.9126 -0.6409
  167MOL0     H22044   3.929   9.323   4.031  0.4466 -3.5216 -3.2553
  168MOL0     O22045   6.797   0.165  11.342  0.1042  0.7351 -0.3810
  168MOL0     C22046   6.883   0.220  11.409 -0.5770 -0.1575 -0.3689
  168MOL0     O22047   7.005   0.166  11.445 -0.1147 -0.7940 -0.0063
  168MOL0     C22048   7.043   0.044  11.421 -0.2766  0.7187  0.6652
  168MOL0     C22049   6.973  -0.064  11.458  0.0442  0.0939 -0.0735
  168MOL0     C22050   7.012  -0.191  11.420 -0.6825 -0.7426 -0.0583
  168MOL0     C22051   7.130  -0.218  11.349  1.0161 -0.4836  0.3771
  168MOL0     O22052   7.163  -0.347  11.323 -0.6316 -0.1577 -0.1457
  168MOL0     C22053   7.264  -0.369  11.224  0.6578 -0.0704 -0.8130
  168MOL0     C22054   7.257  -0.514  11.175 -0.1235  0.4048 -0.5547
  168MOL0     C22055   7.157  -0.529  11.065  0.7488 -0.0155 -0.0780
  168MOL0     C22056   7.130  -0.684  11.046  1.6046  0.3660 -0.7174
  168MOL0     C22057   7.033  -0.708  10.925 -0.5332  0.4852 -0.2679
  168MOL0     C22058   6.973  -0.848  10.946  0.5392 -0.4431  0.2757
  168MOL0     C22059   6.881  -0.872  10.833 -0.1587  0.8359  0.2429
  168MOL0     C22060   6.816  -1.012  10.836 -0.5239 -0.6365  0.2519
  168MOL0     N22061   6.767  -1.040  10.692  0.0135  0.6374 -0.5573
  168MOL0     C22062   6.657  -0.995  10.634 -0.7407 -0.9247 -1.1615
  168MOL0     C22063   6.683  -1.003  10.503 -0.0793 -1.0318  0.5781
  168MOL0     C22064   6.596  -0.954  10.385 -0.1891 -0.1871  0.1168
  168MOL0     C22065   6.515  -0.826  10.419 -0.4425  0.0341  0.6213
  168MOL0     C22066   6.457  -0.766  10.287  0.1854  0.4204 -0.0704
  168MOL0     C22067   6.396  -0.634  10.326 -0.6352  0.6426  1.0049
  168MOL0     O22068   6.327  -0.642  10.459  0.8168 -0.4095  0.8330
  168MOL0     C22069   6.192  -0.632  10.458  1.0807  0.1389 -0.6196
  168MOL0     C22070   6.118  -0.740  10.444  0.6288 -0.0227 -0.5073
  168MOL0     C22071   5.978  -0.719  10.437  0.5033 -1.0854 -0.5949
  168MOL0     C22072   5.923  -0.591  10.463  0.1534  0.1158 -0.7248
  168MOL0     C22073   5.773  -0.577  10.460 -0.1921  0.1790 -0.5301
  168MOL0     O22074   5.719  -0.451  10.474  0.1888  0.3206 -0.2041
  168MOL0     C22075   5.588  -0.426  10.444 -0.0767 -0.2167 -0.4125
  168MOL0     C22076   5.571  -0.290  10.404 -0.1630  0.0222  0.1754
  168MOL0     C22077   5.442  -0.234  10.389  0.3736  0.8595  0.1514
  168MOL0     C22078   5.330  -0.308  10.411 -0.7842  0.8224 -0.5127
  168MOL0     O22079   5.202  -0.272  10.381  0.3607  0.2289  0.8479
  168MOL0     C22080   5.180  -0.145  10.329 -0.6662  0.1310  0.3604
  168MOL0     C22081   5.046  -0.116  10.266  0.7578 -0.4412 -0.0202
  168MOL0     C22082   5.003  -0.222  10.165  0.2461 -0.5955 -1.6328
  168MOL0     C22083   4.850  -0.234  10.129 -1.1217  0.6906  0.7723
  168MOL0     C22084   4.819  -0.348  10.026 -0.6412 -0.8599 -0.5965
  168MOL0     C22085   4.816  -0.290   9.890  0.4755 -0.7747 -0.2130
  168MOL0     C22086   4.694  -0.207   9.865 -0.4164  0.3248  0.0507
  168MOL0     C22087   4.727  -0.068   9.828 -0.8402  0.1049  0.0190
  168MOL0    Cl22088   4.587   0.034   9.772  0.1538 -0.1532 -0.1717
  168MOL0     C22089   5.351  -0.446  10.452 -0.2957 -0.4227 -0.3826
  168MOL0     C22090   5.474  -0.502  10.465 -0.0104 -0.1125  0.2720
  168MOL0     O22091   5.715  -0.683  10.451  0.2715  0.4290  0.0044
  168MOL0     C22092   6.002  -0.483  10.513 -0.7836 -0.5263  0.5313
  168MOL0     C22093   6.142  -0.505  10.501  0.9103 -0.2677 -0.7172
  168MOL0     N22094   6.792  -1.075  10.476 -0.2842 -0.9014  0.1962
  168MOL0     N22095   6.851  -1.083  10.589 -0.0390  1.0674 -0.6315
  168MOL0     C22096   7.214  -0.108  11.319 -0.4160 -0.5976 -0.3516
  168MOL0     C22097   7.171   0.020  11.363  0.7973 -0.5642 -0.3868
  168MOL0     C22098   6.854   0.354  11.458  0.2585 -0.4188  0.3582
  168MOL0     C22099   6.734   0.423  11.427  0.8459 -0.3886 -0.2566
  168MOL0     C22100   6.704   0.550  11.478  0.2948  0.7205  0.7542
  168MOL0     C22101   6.804   0.609  11.557  0.2059  0.1509  0.1986
  168MOL0     O22102   6.791   0.734  11.610  0.0149 -0.7410 -0.2665
  168MOL0     C22103   6.666   0.803  11.633 -0.7650  0.0129 -0.0702
  168MOL0     C22104   6.677   0.923  11.725 -0.6587 -0.1673 -0.4632
  168MOL0     C22105   6.548   1.002  11.752  0.3030 -0.3738 -0.7817
  168MOL0     C22106   6.557   1.134  11.826  0.7283 -0.0883 -1.1239
  168MOL0     C22107   6.608   1.107  11.960 -0.4598  0.4664  0.8934
  168MOL0     C22108   6.656   1.088  12.067  0.2252 -0.1208 -0.2925
  168MOL0     C22109   6.924   0.543  11.575 -0.0254  0.6567 -0.5837
  168MOL0     C22110   6.948   0.415  11.534 -0.3855  0.1692 -0.9153
  168MOL0     H22111   6.871  -0.061  11.496 -0.1892 -1.1487 -0.5510
  168MOL0     H22112   6.956  -0.268  11.473 -0.7903  0.7608  2.1670
  168MOL0     H22113   7.369  -0.357  11.254  1.9497 -4.1858 -2.8868
  168MOL0     H22114   7.239  -0.310  11.135 -0.5558  0.9529  0.1656
  168MOL0     H22115   7.226  -0.580  11.257  2.7010 -1.5066 -0.8929
  168MOL0     H22116   7.355  -0.553  11.145 -0.1999 -1.9255  1.8502
  168MOL0     H22117   7.198  -0.485  10.973  0.2051 -2.0408 -1.3714
  168MOL0     H22118   7.061  -0.480  11.084 -0.5309 -0.6665 -3.8892
  168MOL0     H22119   7.226  -0.735  11.033  0.0901 -3.4307  1.5101
  168MOL0     H22120   7.088  -0.733  11.134 -3.2789 -0.3940 -3.1231
  168MOL0     H22121   7.091  -0.700  10.833  0.7938 -2.1783  0.2583
  168MOL0     H22122   6.959  -0.628  10.932 -0.7570  0.1617  2.1980
  168MOL0     H22123   6.910  -0.849  11.035  0.6684 -1.7440  0.3628
  168MOL0     H22124   7.048  -0.928  10.948  0.5411 -0.5327 -1.6278
  168MOL0     H22125   6.802  -0.797  10.823  0.2284  1.1610 -0.4550
  168MOL0     H22126   6.947  -0.875  10.746 -0.4541 -0.5527  0.0351
  168MOL0     H22127   6.737  -1.029  10.910 -0.0966  1.6871  1.3200
  168MOL0     H22128   6.892  -1.086  10.863  2.3526  2.5071  1.5447
  168MOL0     H22129   6.588  -0.927  10.682  1.7133  1.2835 -0.5451
  168MOL0     H22130   6.534  -1.032  10.341 -0.0668  0.1452 -0.6709
  168MOL0     H22131   6.664  -0.930  10.302  1.9576 -0.1594  1.8069
  168MOL0     H22132   6.579  -0.753  10.470  1.0962 -2.4814  2.5943
  168MOL0     H22133   6.429  -0.852  10.482 -2.7892  2.2378 -1.4170
  168MOL0     H22134   6.545  -0.748  10.224  0.4243  2.3668  0.7467
  168MOL0     H22135   6.388  -0.840  10.246  0.5437 -0.0891  0.2337
  168MOL0     H22136   6.326  -0.610  10.245  1.4105  0.0146 -1.0653
  168MOL0     H22137   6.470  -0.554  10.329 -1.3626  1.3261  0.9750
  168MOL0     H22138   6.176  -0.831  10.445  1.0375  0.1626  2.5774
  168MOL0     H22139   5.910  -0.801  10.418 -1.8921  0.3214  1.3389
  168MOL0     H22140   5.651  -0.220  10.382 -2.3047  2.3556 -0.7138
  168MOL0     H22141   5.434  -0.134  10.347 -1.1194  0.6903 -0.0247
  168MOL0     H22142   5.240  -0.122  10.239 -0.1832 -0.6020  0.4849
  168MOL0     H22143   5.212  -0.066  10.398  1.4092  0.8227 -1.2786
  168MOL0     H22144   5.045  -0.021  10.210 -1.5536 -1.0722 -1.1767
  168MOL0     H22145   4.971  -0.103  10.344  0.1928  1.3486 -0.7864
  168MOL0     H22146   5.033  -0.322  10.198 -4.2824 -1.3337  1.1744
  168MOL0     H22147   5.053  -0.201  10.070  2.0830 -1.1864 -0.8366
  168MOL0     H22148   4.799  -0.269  10.219 -4.3342 -1.9550 -1.7986
  168MOL0     H22149   4.816  -0.132  10.107  1.1917  1.1978 -0.9011
  168MOL0     H22150   4.720  -0.393  10.040  0.1845 -2.4103  0.5688
  168MOL0     H22151   4.896  -0.425  10.036  0.4048  0.2292  0.1289
  168MOL0     H22152   4.819  -0.379   9.827 -1.3517 -2.4137  1.8505
  168MOL0     H22153   4.904  -0.226   9.874 -0.1558  0.2689  0.4114
  168MOL0     H22154   4.632  -0.254   9.788  1.3500 -2.0382 -0.0268
  168MOL0     H22155   4.627  -0.195   9.951 -1.2034  1.8177 -0.7372
  168MOL0     H22156   4.801  -0.072   9.748  2.8771 -1.8552  3.1901
  168MOL0     H22157   4.775  -0.011   9.909 -3.0378  2.6664 -0.3455
  168MOL0     H22158   5.268  -0.511  10.475 -1.0133 -0.6923 -3.3654
  168MOL0     H22159   5.480  -0.605  10.499 -1.9443 -0.7214 -1.0887
  168MOL0     H22160   5.964  -0.382  10.523  2.9505  1.2541 -1.1880
  168MOL0     H22161   6.217  -0.428  10.517  0.7182 -0.1722 -0.2799
  168MOL0     H22162   7.314  -0.088  11.282  0.8411  0.9019  3.3683
  168MOL0     H22163   7.224   0.114  11.357  0.0614 -0.1594 -0.7553
  168MOL0     H22164   6.648   0.381  11.376 -0.4197 -0.2851  1.6648
  168MOL0     H22165   6.603   0.587  11.459  0.4140  2.3383  2.8395
  168MOL0     H22166   6.598   0.731  11.679 -1.1051  0.2607 -0.1846
  168MOL0     H22167   6.637   0.826  11.531 -0.1524 -3.3007 -1.0984
  168MOL0     H22168   6.727   0.893  11.819 -0.4418  1.8144  0.0996
  168MOL0     H22169   6.751   0.989  11.680 -2.1412 -0.6889 -3.9143
  168MOL0     H22170   6.481   0.930  11.801  3.8693 -4.6012 -1.4522
  168MOL0     H22171   6.511   1.025  11.651  1.7257  3.6453 -0.5640
  168MOL0     H22172   6.621   1.198  11.764  1.3324 -0.2758 -0.7058
  168MOL0     H22173   6.461   1.184  11.840  0.7078 -0.3483 -0.2506
  168MOL0     H22174   6.699   1.074  12.164  0.1677  0.2865 -0.2063
  168MOL0     H22175   7.001   0.578  11.643 -1.8881 -0.4761  2.3313
  168MOL0     H22176   7.044   0.371  11.557  0.6953  2.2712 -1.1240
  169MOL0     O22177   5.240  11.201   8.459  0.5449 -0.6113  0.8169
  169MOL0     C22178   5.130  11.230   8.412  0.4500 -0.0797  0.7083
  169MOL0     O22179   5.077  11.170   8.298  0.9620 -0.1720 -0.3144
  169MOL0     C22180   5.149  11.092   8.216 -0.9879  0.5421 -0.2229
  169MOL0     C22181   5.238  10.989   8.244  0.8958 -0.4973  0.0602
  169MOL0     C22182   5.285  10.901   8.154  0.2114  0.3948  0.5186
  169MOL0     C22183   5.239  10.899   8.018 -0.0987 -0.0540 -0.1082
  169MOL0     O22184   5.287  10.806   7.925  0.0607  0.2768 -0.3315
  169MOL0     C22185   5.266  10.798   7.784 -0.4411  0.1489 -0.5954
  169MOL0     C22186   5.390  10.739   7.724  0.1980  0.3803  0.7048
  169MOL0     C22187   5.397  10.753   7.578  0.2223  0.5539 -0.0493
  169MOL0     C22188   5.416  10.899   7.525 -0.3878  0.9126  0.3296
  169MOL0     C22189   5.370  10.917   7.375 -0.5449  0.3972  0.5694
  169MOL0     C22190   5.429  11.054   7.331  0.0740 -0.5948  0.0142
  169MOL0     C22191   5.382  11.102   7.190  0.3674 -0.7260  0.6290
  169MOL0     C22192   5.216  11.105   7.165  0.1481 -1.0622  0.0291
  169MOL0     N22193   5.166  11.165   7.045  0.4744 -0.3552 -0.1608
  169MOL0     C22194   5.206  11.119   6.922 -0.0715 -0.0346 -1.9813
  169MOL0     C22195   5.172  11.213   6.841 -0.3074 -0.3383  1.6935
  169MOL0     C22196   5.182  11.215   6.689  0.9889  0.3847  0.1225
  169MOL0     C22197   5.095  11.108   6.617 -0.6530 -0.3318  1.1586
  169MOL0     C22198   5.097  11.141   6.459 -0.4301  0.2828 -0.4193
  169MOL0     C22199   5.019  11.025   6.378  0.3458  0.6396  0.6007
  169MOL0     O22200   4.876  11.029   6.398 -0.4453  0.0183 -0.1096
  169MOL0     C22201   4.815  10.925   6.348 -0.3994 -0.5056 -0.1103
  169MOL0     C22202   4.759  10.917   6.216 -0.2225  0.4337 -0.7468
  169MOL0     C22203   4.696  10.804   6.182 -0.2075  0.1376 -0.3481
  169MOL0     C22204   4.675  10.690   6.262  0.0693  0.3934  0.0517
  169MOL0     C22205   4.595  10.576   6.218 -0.9197 -0.5478 -0.2159
  169MOL0     O22206   4.605  10.463   6.299  0.0612  0.0975  0.5478
  169MOL0     C22207   4.562  10.352   6.232 -0.6204  1.3430 -0.9030
  169MOL0     C22208   4.654  10.267   6.180  0.8219  0.2602 -0.6178
  169MOL0     C22209   4.628  10.160   6.086  0.4081 -1.0931 -0.2241
  169MOL0     C22210   4.493  10.141   6.046 -0.4985 -0.3127 -0.0406
  169MOL0     O22211   4.458  10.045   5.954 -0.0840  0.8725  0.1222
  169MOL0     C22212   4.358   9.956   6.012 -1.0136 -0.2637 -0.1468
  169MOL0     C22213   4.326   9.852   5.904  0.1211  0.0345 -0.7106
  169MOL0     C22214   4.445   9.768   5.869 -0.1659  0.3946 -0.3359
  169MOL0     C22215   4.411   9.656   5.761 -0.2700  0.1705  0.0185
  169MOL0     C22216   4.533   9.603   5.694  0.1513 -0.7847  0.5298
  169MOL0     C22217   4.509   9.457   5.648 -0.3200  0.0622  0.6063
  169MOL0     C22218   4.428   9.435   5.509 -0.0771 -0.2107  0.0568
  169MOL0     C22219   4.458   9.535   5.403  0.2158  0.0072 -0.5513
  169MOL0    Cl22220   4.390   9.494   5.243 -0.4737 -0.0569  0.0890
  169MOL0     C22221   4.404  10.228   6.100 -0.1974 -0.0859 -0.1270
  169MOL0     C22222   4.430  10.324   6.206 -1.1291  0.3211 -0.7487
  169MOL0     O22223   4.540  10.583   6.108  0.1516 -0.0831  0.0289
  169MOL0     C22224   4.729  10.700   6.392  0.4816 -0.5318  0.0233
  169MOL0     C22225   4.800  10.814   6.430 -0.0551  0.3584 -0.8287
  169MOL0     N22226   5.127  11.319   6.907 -0.0999 -0.3388 -0.3923
  169MOL0     N22227   5.123  11.292   7.040  0.2377  0.9656 -0.4562
  169MOL0     C22228   5.145  10.997   7.987 -0.7770 -0.5774  0.0700
  169MOL0     C22229   5.107  11.096   8.082  0.2580  0.0213  0.4173
  169MOL0     C22230   5.058  11.325   8.497  0.4042 -0.4437  0.6733
  169MOL0     C22231   4.920  11.347   8.481 -1.7966 -0.6444 -1.1488
  169MOL0     C22232   4.866  11.455   8.550 -0.4610 -0.0902 -0.8994
  169MOL0     C22233   4.933  11.541   8.645 -0.1737 -0.1618 -0.2106
  169MOL0     O22234   4.855  11.645   8.686  0.0672 -0.4068  0.6513
  169MOL0     C22235   4.907  11.749   8.770 -0.0767  0.2231  0.5280
  169MOL0     C22236   4.955  11.696   8.895 -1.3140 -0.0597 -0.2822
  169MOL0     C22237   4.935  11.777   9.020  0.1166  0.1028 -0.4428
  169MOL0     C22238   4.982  11.715   9.146  0.3073  0.2487 -0.4144
  169MOL0     C22239   5.123  11.710   9.137 -0.4914 -0.8459  0.2932
  169MOL0     C22240   5.246  11.721   9.132 -0.2511 -0.8948 -0.3317
  169MOL0     C22241   5.073  11.526   8.649 -0.3214  0.1795  1.1944
  169MOL0     C22242   5.135  11.410   8.587  0.2235 -1.0547  0.4679
  169MOL0     H22243   5.283  10.985   8.343 -2.4695  0.6787  1.8230
  169MOL0     H22244   5.333  10.810   8.189  0.3466  0.6346  0.9558
  169MOL0     H22245   5.251  10.902   7.753  2.4501  1.9221  3.1704
  169MOL0     H22246   5.172  10.748   7.758 -0.6284  0.2434 -0.1090
  169MOL0     H22247   5.385  10.630   7.737  0.7672  0.5381  2.5278
  169MOL0     H22248   5.482  10.787   7.759  2.6176  1.1210 -5.4110
  169MOL0     H22249   5.307  10.708   7.534 -2.0784  0.8427  3.8453
  169MOL0     H22250   5.484  10.695   7.547  0.7226  0.9734  0.5515
  169MOL0     H22251   5.366  10.974   7.586  3.4605  2.6154  1.6997
  169MOL0     H22252   5.520  10.928   7.543 -0.2334  0.1935  0.6340
  169MOL0     H22253   5.262  10.913   7.358 -0.1800 -1.4916 -1.9074
  169MOL0     H22254   5.424  10.843   7.315  1.7996  0.9918  1.8553
  169MOL0     H22255   5.538  11.043   7.333  0.1839 -0.6727 -2.7957
  169MOL0     H22256   5.389  11.131   7.398  2.2019  0.1012  0.5848
  169MOL0     H22257   5.430  11.197   7.166  1.4670 -0.8803  2.0617
  169MOL0     H22258   5.425  11.036   7.114 -0.5973 -1.2481  0.5188
  169MOL0     H22259   5.172  11.161   7.248 -3.0389 -0.0762 -2.1205
  169MOL0     H22260   5.175  11.004   7.178 -4.3639  0.3373 -1.2963
  169MOL0     H22261   5.247  11.018   6.913  1.7584  0.5143 -0.5171
  169MOL0     H22262   5.287  11.189   6.672  0.8219  0.6658 -1.5704
  169MOL0     H22263   5.163  11.309   6.637  0.3673  0.6256  0.7695
  169MOL0     H22264   4.996  11.125   6.660 -2.3413  0.6315 -2.7028
  169MOL0     H22265   5.125  11.008   6.649 -1.4379 -0.2647  2.1435
  169MOL0     H22266   5.043  11.234   6.445  0.2160  0.7301 -0.0123
  169MOL0     H22267   5.199  11.160   6.424 -0.0866  1.5245  1.1809
  169MOL0     H22268   5.068  10.932   6.407  3.1984  2.0626  0.7052
  169MOL0     H22269   5.033  11.058   6.275  0.6939  1.1266  0.8012
  169MOL0     H22270   4.769  11.002   6.149  6.1577  1.6517  1.0599
  169MOL0     H22271   4.657  10.798   6.080  0.1557  0.3653 -0.5025
  169MOL0     H22272   4.752  10.296   6.216  0.1579  1.8597 -0.0338
  169MOL0     H22273   4.712  10.097   6.060  0.4263 -0.1445 -2.6528
  169MOL0     H22274   4.269  10.016   6.035  0.2660  2.5146 -1.8912
  169MOL0     H22275   4.400   9.909   6.102  1.1629  1.5294 -0.1290
  169MOL0     H22276   4.294   9.910   5.817  1.3517  1.5746 -0.1812
  169MOL0     H22277   4.249   9.783   5.940  1.7179 -2.5891 -2.0545
  169MOL0     H22278   4.486   9.720   5.958  1.0706  2.7280  0.4475
  169MOL0     H22279   4.518   9.834   5.820 -0.1926  1.3134  0.8003
  169MOL0     H22280   4.350   9.573   5.799  0.9001 -0.8826 -0.3181
  169MOL0     H22281   4.343   9.699   5.687 -0.4130 -4.0002 -2.6190
  169MOL0     H22282   4.620   9.623   5.756 -0.3911  0.1656  1.0140
  169MOL0     H22283   4.550   9.663   5.604 -3.5705 -0.6942 -0.2716
  169MOL0     H22284   4.458   9.411   5.734 -1.0481  0.0940  0.2002
  169MOL0     H22285   4.607   9.412   5.632 -0.0523  0.1487  1.8792
  169MOL0     H22286   4.464   9.338   5.473 -0.1004 -0.0252 -0.4750
  169MOL0     H22287   4.322   9.440   5.534 -0.0445  4.2437  0.0832
  169MOL0     H22288   4.566   9.523   5.391  0.6291  2.2528  0.4319
  169MOL0     H22289   4.432   9.639   5.425 -0.0382 -0.0018 -0.7904
  169MOL0     H22290   4.307  10.226   6.050 -0.0168  2.5799 -0.7437
  169MOL0     H22291   4.351  10.388   6.244 -1.0754 -0.3147  0.4982
  169MOL0     H22292   4.730  10.624   6.470  0.3196  0.3760  0.9310
  169MOL0     H22293   4.850  10.809   6.526 -0.2350 -1.3208 -0.7856
  169MOL0     H22294   5.101  11.004   7.888  1.7820  2.4272 -1.0126
  169MOL0     H22295   5.038  11.169   8.040  2.6579  0.8877 -2.3789
  169MOL0     H22296   4.855  11.290   8.415 -0.2001 -1.5408 -1.9906
  169MOL0     H22297   4.758  11.462   8.540 -0.2008  2.5872 -2.9458
  169MOL0     H22298   4.821  11.813   8.790 -0.0151  0.5128 -0.0851
  169MOL0     H22299   4.983  11.815   8.726  0.1084 -0.7602 -0.6850
  169MOL0     H22300   4.899  11.606   8.925 -0.1155 -1.1837 -1.2779
  169MOL0     H22301   5.060  11.674   8.873 -1.5124  3.3159 -7.6075
  169MOL0     H22302   4.828  11.799   9.027  0.5558  3.2207 -1.9885
  169MOL0     H22303   4.984  11.874   9.014  0.2198 -0.0340 -2.0487
  169MOL0     H22304   4.949  11.774   9.232 -3.2127 -0.6005 -1.0413
  169MOL0     H22305   4.929  11.620   9.150  1.7307 -0.6901 -2.1786
  169MOL0     H22306   5.353  11.722   9.138 -0.2968 -2.1129  1.7176
  169MOL0     H22307   5.134  11.612   8.676  2.7429 -1.9428  1.5506
  169MOL0     H22308   5.243  11.406   8.600  0.4754 -0.2357 -1.1881
  170MOL0     O22309  10.266   5.088   0.283 -0.2683 -0.1851 -0.1603
  170MOL0     C22310  10.146   5.081   0.293 -0.3909  0.1320 -0.8491
  170MOL0     O22311  10.052   5.136   0.216 -0.0247  0.1119 -0.0435
  170MOL0     C22312  10.098   5.193   0.099 -0.4488  0.3401  0.0120
  170MOL0     C22313  10.095   5.126  -0.014 -0.1531 -0.4648  0.7182
  170MOL0     C22314  10.141   5.190  -0.129  0.0096  0.4469  0.0116
  170MOL0     C22315  10.194   5.323  -0.126  0.8267 -0.2863 -1.4583
  170MOL0     O22316  10.250   5.389  -0.237  0.2396 -0.0964  0.3257
  170MOL0     C22317  10.165   5.467  -0.314 -0.2076  0.3077 -0.7715
  170MOL0     C22318  10.077   5.387  -0.409 -0.0492 -0.2081 -0.4130
  170MOL0     C22319  10.151   5.308  -0.513 -0.3197 -0.6592  0.1206
  170MOL0     C22320  10.058   5.238  -0.613 -0.5850 -0.9717  0.4305
  170MOL0     C22321  10.134   5.133  -0.686  0.7553  0.8700  0.3835
  170MOL0     C22322  10.257   5.171  -0.768  0.0848 -0.4628 -0.0545
  170MOL0     C22323  10.293   5.062  -0.874 -0.1124 -0.5848  0.0712
  170MOL0     C22324  10.373   5.128  -0.979  0.6344  0.9176  0.0761
  170MOL0     N22325  10.395   5.020  -1.079  0.8010 -0.7862 -0.0731
  170MOL0     C22326  10.462   4.899  -1.074  0.2477 -0.3796 -0.0145
  170MOL0     C22327  10.415   4.832  -1.181 -0.2131 -0.1987 -0.2289
  170MOL0     C22328  10.426   4.688  -1.222  1.4556  0.3810 -0.9015
  170MOL0     C22329  10.311   4.610  -1.155  0.8230  0.4094  0.2569
  170MOL0     C22330  10.363   4.467  -1.139 -0.1715  0.4891 -0.6771
  170MOL0     C22331  10.267   4.361  -1.074  0.0882  0.2004 -0.6163
  170MOL0     O22332  10.150   4.426  -1.028  0.2102 -0.1509 -0.2557
  170MOL0     C22333  10.137   4.412  -0.887  0.2814 -0.1310 -0.3226
  170MOL0     C22334  10.049   4.314  -0.846 -0.1285 -0.3730 -0.0495
  170MOL0     C22335  10.036   4.284  -0.711 -0.2127  0.1744  0.3264
  170MOL0     C22336  10.117   4.343  -0.610  0.3149 -0.8499  0.7772
  170MOL0     C22337  10.099   4.327  -0.463  0.8096 -1.1248 -0.5116
  170MOL0     O22338  10.191   4.382  -0.378  0.2184  0.2498 -0.7290
  170MOL0     C22339  10.159   4.371  -0.249 -0.1446 -0.5028  0.4811
  170MOL0     C22340  10.050   4.424  -0.186 -0.4287 -0.5341  0.0370
  170MOL0     C22341  10.019   4.400  -0.051 -0.2957 -0.0941  0.4646
  170MOL0     C22342  10.104   4.314   0.030 -0.4282  1.1064 -0.1009
  170MOL0     O22343  10.069   4.293   0.162 -0.3132  0.0587  0.0383
  170MOL0     C22344  10.131   4.181   0.227  0.3117 -0.0973  0.0664
  170MOL0     C22345  10.110   4.185   0.379  0.1084  0.9222  0.1617
  170MOL0     C22346  10.183   4.073   0.444  0.4243 -0.1516 -0.5642
  170MOL0     C22347  10.335   4.115   0.452  0.2982  0.7714  0.2383
  170MOL0     C22348  10.414   4.016   0.528  0.3633  0.9433 -0.2940
  170MOL0     C22349  10.555   4.054   0.562  0.0693  0.2997  0.7937
  170MOL0     C22350  10.665   4.002   0.457  0.3890  0.1796  0.0950
  170MOL0     C22351  10.798   3.940   0.518  0.7300 -0.0337  0.1056
  170MOL0    Cl22352  10.884   4.071   0.617  0.2887 -0.2787 -0.0163
  170MOL0     C22353  10.233   4.270  -0.026 -0.1602  0.7250  0.7168
  170MOL0     C22354  10.261   4.315  -0.169  0.6873  0.1202 -0.3200
  170MOL0     O22355   9.986   4.275  -0.429  0.1093 -0.2198  0.4614
  170MOL0     C22356  10.201   4.441  -0.656  0.4860 -0.4790 -0.7084
  170MOL0     C22357  10.215   4.481  -0.789 -0.9976  0.3566  0.6077
  170MOL0     N22358  10.333   4.912  -1.259 -0.2338 -0.2418  0.0443
  170MOL0     N22359  10.315   5.023  -1.192 -0.0218 -0.7352 -0.1576
  170MOL0     C22360  10.175   5.394  -0.008  0.5877  0.6854 -1.0142
  170MOL0     C22361  10.122   5.326   0.108 -0.0617  0.7146 -0.0692
  170MOL0     C22362  10.101   5.028   0.429 -0.0365 -0.3593  0.6672
  170MOL0     C22363  10.188   5.031   0.539  0.2872 -0.0334  0.1476
  170MOL0     C22364  10.144   4.991   0.667 -0.2111  0.1852 -1.8271
  170MOL0     C22365  10.020   4.932   0.695  0.2114  0.6387  0.6471
  170MOL0     O22366   9.981   4.897   0.822  0.0022  0.9635  0.4033
  170MOL0     C22367   9.848   4.839   0.851  0.3052  0.0291  1.0605
  170MOL0     C22368   9.819   4.837   1.004 -0.4093 -0.6281  0.8870
  170MOL0     C22369   9.895   4.737   1.094 -0.0018  0.9978 -0.5590
  170MOL0     C22370  10.041   4.778   1.108  0.1829  0.0606 -0.0992
  170MOL0     C22371  10.089   4.719   1.234  1.4503  0.4588 -0.0474
  170MOL0     C22372  10.124   4.686   1.346 -0.7887 -0.3834 -0.4279
  170MOL0     C22373   9.942   4.919   0.584  0.2805 -0.3075 -0.1371
  170MOL0     C22374   9.980   4.962   0.449 -0.4098  0.8483  0.2674
  170MOL0     H22375  10.072   5.020  -0.012  0.4626 -0.7124 -1.9953
  170MOL0     H22376  10.141   5.150  -0.230 -3.4024  0.5637 -0.1388
  170MOL0     H22377  10.213   5.544  -0.374 -4.4420  1.5457 -3.0122
  170MOL0     H22378  10.110   5.527  -0.240 -1.4036  0.3979 -1.7093
  170MOL0     H22379   9.996   5.445  -0.455  1.7440  0.8586 -2.3872
  170MOL0     H22380  10.023   5.314  -0.348  0.4550  0.5112  0.9123
  170MOL0     H22381  10.210   5.231  -0.463  1.2780 -1.4867 -2.8254
  170MOL0     H22382  10.220   5.374  -0.567 -0.7763  0.2570  0.6442
  170MOL0     H22383   9.984   5.182  -0.556 -1.4290  0.4802  0.7922
  170MOL0     H22384  10.015   5.317  -0.676 -0.5073 -0.3005  1.2015
  170MOL0     H22385  10.063   5.081  -0.752 -0.6595  2.4208  0.6280
  170MOL0     H22386  10.171   5.066  -0.607 -3.2906 -4.5200 -1.6567
  170MOL0     H22387  10.340   5.189  -0.699 -1.1414 -0.4262  1.4563
  170MOL0     H22388  10.231   5.265  -0.818 -1.0812  0.4179  2.0549
  170MOL0     H22389  10.342   4.976  -0.827  1.4330 -0.1053 -0.5847
  170MOL0     H22390  10.199   5.035  -0.923  0.5382  0.1570 -1.6698
  170MOL0     H22391  10.473   5.154  -0.944  0.8617  0.0822  0.0772
  170MOL0     H22392  10.333   5.220  -1.024  1.9612  2.3448  1.6905
  170MOL0     H22393  10.522   4.862  -0.993 -0.0783 -0.8231  0.0277
  170MOL0     H22394  10.521   4.645  -1.187 -0.1127 -0.3776  2.8652
  170MOL0     H22395  10.424   4.670  -1.330  0.4872 -4.1588 -0.3514
  170MOL0     H22396  10.239   4.601  -1.237  1.4671  0.5951 -0.3428
  170MOL0     H22397  10.293   4.654  -1.057 -0.8032  1.4362 -0.4503
  170MOL0     H22398  10.408   4.419  -1.226  1.6894 -0.3475  0.6805
  170MOL0     H22399  10.452   4.482  -1.076  2.6848 -0.5265 -4.1518
  170MOL0     H22400  10.327   4.315  -0.995 -0.8909  0.1984  0.1456
  170MOL0     H22401  10.242   4.276  -1.138 -0.4264  0.3453 -0.6177
  170MOL0     H22402   9.986   4.272  -0.923  1.9898  0.2073 -2.2299
  170MOL0     H22403   9.958   4.210  -0.694 -2.3766  1.6725 -2.3422
  170MOL0     H22404   9.973   4.475  -0.243 -2.3844 -2.0607  1.1768
  170MOL0     H22405   9.940   4.451   0.004  0.2518  1.2715  0.0032
  170MOL0     H22406  10.237   4.186   0.200  0.8178 -6.0076 -0.5446
  170MOL0     H22407  10.091   4.086   0.189  1.0612 -0.1478 -0.6161
  170MOL0     H22408  10.004   4.171   0.405  0.8758  1.2500  4.0107
  170MOL0     H22409  10.134   4.287   0.411 -1.1682  1.6291 -0.9773
  170MOL0     H22410  10.175   3.977   0.392  1.3836 -0.9486  0.6885
  170MOL0     H22411  10.152   4.062   0.549  3.0226  3.6041  0.8380
  170MOL0     H22412  10.374   4.126   0.350 -0.6148  1.4377 -0.0621
  170MOL0     H22413  10.352   4.215   0.493  2.2756 -0.1804  1.9005
  170MOL0     H22414  10.403   3.923   0.471 -1.8631  1.5818 -0.9839
  170MOL0     H22415  10.364   4.000   0.624  0.3207  1.5286 -0.2189
  170MOL0     H22416  10.566   4.010   0.661 -2.1129  2.2760  2.0292
  170MOL0     H22417  10.564   4.163   0.569 -3.6009  0.7046  1.0341
  170MOL0     H22418  10.610   3.914   0.421  2.9405 -1.2660 -0.5067
  170MOL0     H22419  10.679   4.081   0.383 -3.5602  0.3613 -0.6679
  170MOL0     H22420  10.855   3.907   0.430 -0.4881 -0.6173 -0.5027
  170MOL0     H22421  10.758   3.858   0.578 -0.0212 -0.2468 -0.6566
  170MOL0     H22422  10.310   4.219   0.031  0.3361  0.1911 -0.3977
  170MOL0     H22423  10.361   4.292  -0.204  2.6089  2.4883  3.0428
  170MOL0     H22424  10.265   4.490  -0.584 -0.0325 -0.2385 -0.4052
  170MOL0     H22425  10.287   4.557  -0.818  0.7774 -1.1038  1.0246
  170MOL0     H22426  10.224   5.490   0.001  3.7653 -0.8311 -0.7282
  170MOL0     H22427  10.097   5.364   0.206  0.3548 -4.0177  2.1920
  170MOL0     H22428  10.284   5.074   0.512 -0.1490  0.6392 -0.3561
  170MOL0     H22429  10.212   5.004   0.751 -1.2272 -0.7202 -0.8280
  170MOL0     H22430   9.830   4.741   0.805 -0.6875  0.4760  0.4627
  170MOL0     H22431   9.777   4.911   0.810  0.4848  0.2708  1.1654
  170MOL0     H22432   9.832   4.940   1.038 -1.6474 -0.4375  0.8213
  170MOL0     H22433   9.715   4.806   1.013 -0.4834 -1.0999 -1.2175
  170MOL0     H22434   9.896   4.640   1.044 -0.9104 -0.4465  2.0063
  170MOL0     H22435   9.851   4.714   1.192  2.4489  0.4796  0.5049
  170MOL0     H22436  10.094   4.737   1.022  1.4123  0.5515  0.4111
  170MOL0     H22437  10.050   4.886   1.099  1.6191 -0.0996 -0.8632
  170MOL0     H22438  10.157   4.648   1.440  2.1087  2.2187 -0.2466
  170MOL0     H22439   9.853   4.857   0.585  0.3116 -0.4003 -1.3502
  170MOL0     H22440   9.919   4.929   0.365  0.2741 -2.1657  0.8363
  171MOL0     O22441   4.387   8.334   7.698 -0.2921  0.3390  0.1126
  171MOL0     C22442   4.497   8.290   7.717 -0.0073  1.2713  1.1330
  171MOL0     O22443   4.522   8.172   7.772  0.0961  0.1665  0.5929
  171MOL0     C22444   4.418   8.116   7.845 -0.8087  0.2617 -0.0106
  171MOL0     C22445   4.410   8.124   7.986  0.7935 -0.5139 -0.8907
  171MOL0     C22446   4.313   8.050   8.066 -0.7949  0.4866 -0.5585
  171MOL0     C22447   4.232   7.955   7.995  0.3324 -0.2210 -0.1758
  171MOL0     O22448   4.143   7.866   8.057  0.6238 -0.1539  1.9712
  171MOL0     C22449   4.093   7.888   8.188  0.3773 -0.4578 -0.6680
  171MOL0     C22450   3.950   7.828   8.198  0.5269 -0.5161  0.7082
  171MOL0     C22451   3.947   7.678   8.163  0.1014 -0.6821 -0.4009
  171MOL0     C22452   3.823   7.624   8.224  0.3912 -0.4882 -0.7078
  171MOL0     C22453   3.790   7.499   8.151  0.4154 -0.2857 -0.1068
  171MOL0     C22454   3.697   7.404   8.228 -0.1395 -0.0708 -0.0313
  171MOL0     C22455   3.642   7.309   8.126  0.2723 -0.6443 -0.2566
  171MOL0     C22456   3.600   7.188   8.212 -0.7543 -0.5711 -0.7243
  171MOL0     N22457   3.546   7.080   8.127  0.5007 -0.3082  0.0291
  171MOL0     C22458   3.610   6.997   8.036  0.1100 -0.8232 -0.2821
  171MOL0     C22459   3.508   6.921   7.981  0.6860 -0.7267 -0.2427
  171MOL0     C22460   3.526   6.821   7.868  0.2294  0.0455 -0.2897
  171MOL0     C22461   3.407   6.787   7.774  0.6500 -0.5529  1.3083
  171MOL0     C22462   3.460   6.694   7.652 -0.1984 -0.0294 -0.6046
  171MOL0     C22463   3.365   6.649   7.539 -0.0271 -0.0151 -0.2621
  171MOL0     O22464   3.442   6.559   7.458 -0.5668 -0.0949  0.1025
  171MOL0     C22465   3.496   6.616   7.343 -0.0273  0.4163 -0.6158
  171MOL0     C22466   3.510   6.755   7.314 -0.1084  0.1068  0.4435
  171MOL0     C22467   3.567   6.790   7.189 -0.1682  0.2507  0.1206
  171MOL0     C22468   3.612   6.698   7.095  0.1924 -0.5727 -0.0603
  171MOL0     C22469   3.667   6.754   6.970 -0.0928  0.7096  0.8546
  171MOL0     O22470   3.684   6.669   6.870  0.1935  0.5978 -0.3362
  171MOL0     C22471   3.760   6.718   6.763 -0.4100  0.3310 -0.0127
  171MOL0     C22472   3.697   6.697   6.640  0.1319 -0.3381  0.0087
  171MOL0     C22473   3.761   6.756   6.531 -0.1041 -0.2403  0.0182
  171MOL0     C22474   3.883   6.816   6.537  0.1691 -0.3244 -0.5693
  171MOL0     O22475   3.946   6.835   6.424 -0.5873 -0.3925  0.5391
  171MOL0     C22476   4.039   6.934   6.422  0.3438 -0.5970  0.1123
  171MOL0     C22477   4.082   6.957   6.279 -0.5593  0.1977  0.7400
  171MOL0     C22478   3.968   7.019   6.200  0.3293 -0.3625 -0.5079
  171MOL0     C22479   4.017   7.091   6.075  0.5022 -0.3029  0.8429
  171MOL0     C22480   3.892   7.137   5.988  0.5552  0.3799  0.3409
  171MOL0     C22481   3.936   7.148   5.835  0.5286  0.0923 -0.5587
  171MOL0     C22482   4.046   7.252   5.801  0.6945  0.3835  0.2429
  171MOL0     C22483   4.090   7.238   5.660 -0.4040  0.0821  0.7277
  171MOL0    Cl22484   3.950   7.268   5.552 -0.0664  0.0580 -0.0748
  171MOL0     C22485   3.948   6.822   6.660  0.5914 -0.6983  0.5249
  171MOL0     C22486   3.882   6.776   6.777 -1.1505  0.2903 -0.4450
  171MOL0     O22487   3.681   6.877   6.965 -0.8423 -0.2161  0.5472
  171MOL0     C22488   3.586   6.560   7.119 -0.2720 -0.6434  0.0632
  171MOL0     C22489   3.534   6.522   7.239  0.4501  0.6263  0.1506
  171MOL0     N22490   3.381   6.968   8.023  0.5721 -0.7494  0.0468
  171MOL0     N22491   3.404   7.054   8.120 -0.5627  0.2529  0.5053
  171MOL0     C22492   4.242   7.953   7.859  0.6159  0.3296  0.1765
  171MOL0     C22493   4.325   8.037   7.790 -0.7575 -0.1860  0.3819
  171MOL0     C22494   4.611   8.387   7.699 -0.9033  0.6838 -0.2101
  171MOL0     C22495   4.584   8.521   7.684  0.8720 -1.2443 -0.2047
  171MOL0     C22496   4.673   8.622   7.672 -0.1276 -1.1095 -0.1117
  171MOL0     C22497   4.805   8.595   7.689  0.3238  0.6818 -0.0631
  171MOL0     O22498   4.896   8.689   7.657  0.1740  0.1431 -0.2365
  171MOL0     C22499   5.029   8.654   7.591 -0.8986 -1.3229 -0.4544
  171MOL0     C22500   5.098   8.788   7.561  0.0199 -0.8768 -0.5058
  171MOL0     C22501   5.225   8.768   7.470 -0.3509  0.2459 -0.6462
  171MOL0     C22502   5.194   8.660   7.356  0.3899 -1.0770 -0.9802
  171MOL0     C22503   5.310   8.665   7.269 -0.0504 -0.2067 -0.9142
  171MOL0     C22504   5.420   8.668   7.210  0.8418 -0.0631 -0.3514
  171MOL0     C22505   4.846   8.466   7.730  1.3785  0.6155 -0.3187
  171MOL0     C22506   4.751   8.363   7.738 -0.1151 -0.2502  0.8465
  171MOL0     H22507   4.486   8.181   8.038  1.4543 -0.8041 -1.5145
  171MOL0     H22508   4.304   8.067   8.172  0.5768 -2.3249  0.0907
  171MOL0     H22509   4.097   7.996   8.203 -3.6353  0.0565 -2.0609
  171MOL0     H22510   4.145   7.828   8.264  0.0691 -0.4303 -0.4350
  171MOL0     H22511   3.886   7.874   8.123  1.6717  0.1362  0.1053
  171MOL0     H22512   3.923   7.834   8.304  3.0410 -0.0325  1.3966
  171MOL0     H22513   4.032   7.625   8.208 -1.5225 -0.1314  3.8416
  171MOL0     H22514   3.943   7.664   8.055  2.4142  2.4403 -1.0515
  171MOL0     H22515   3.836   7.602   8.331 -0.8140 -0.8001 -0.6152
  171MOL0     H22516   3.742   7.695   8.206  0.3500 -0.8167 -1.8955
  171MOL0     H22517   3.881   7.444   8.126 -1.4173 -3.9307  0.5460
  171MOL0     H22518   3.749   7.534   8.056  1.2035  1.9795  0.3382
  171MOL0     H22519   3.607   7.455   8.264 -1.0701 -1.0835 -0.8233
  171MOL0     H22520   3.744   7.348   8.309  3.1305  0.0833 -1.6803
  171MOL0     H22521   3.559   7.351   8.070  0.7041  4.2557  2.2665
  171MOL0     H22522   3.716   7.268   8.056 -0.1376 -3.1022  0.6298
  171MOL0     H22523   3.533   7.220   8.292 -1.5512 -1.5873 -0.9626
  171MOL0     H22524   3.681   7.148   8.273  0.9069  2.8135 -0.4717
  171MOL0     H22525   3.714   6.998   8.005 -0.2550  1.2668 -1.6201
  171MOL0     H22526   3.567   6.730   7.913  1.4562  0.9344  0.4527
  171MOL0     H22527   3.602   6.854   7.797 -0.9979  0.0445 -1.6663
  171MOL0     H22528   3.365   6.883   7.744 -0.7069 -2.4729 -3.9055
  171MOL0     H22529   3.330   6.737   7.834  1.4136 -1.5580  1.4807
  171MOL0     H22530   3.533   6.760   7.603 -1.0791 -0.0125 -1.9460
  171MOL0     H22531   3.516   6.608   7.689 -1.1472 -1.1291 -1.6567
  171MOL0     H22532   3.328   6.733   7.480  1.4452  0.1704 -0.9698
  171MOL0     H22533   3.272   6.611   7.581 -1.4966  1.2976 -2.2035
  171MOL0     H22534   3.489   6.838   7.381  0.8056  0.0318  0.8368
  171MOL0     H22535   3.576   6.898   7.181  3.0372  0.0098 -1.0922
  171MOL0     H22536   3.599   6.649   6.637 -0.6471  1.2029 -1.2606
  171MOL0     H22537   3.714   6.741   6.434 -0.1374  0.8114 -0.1366
  171MOL0     H22538   4.127   6.920   6.485 -0.5757 -2.1793  1.1096
  171MOL0     H22539   3.994   7.028   6.455 -0.9537 -1.1766  0.0583
  171MOL0     H22540   4.123   6.866   6.235 -1.5785  0.9961 -2.0860
  171MOL0     H22541   4.165   7.029   6.273 -0.5573  0.1692  0.3486
  171MOL0     H22542   3.910   7.094   6.256 -1.5279  1.2948 -4.3127
  171MOL0     H22543   3.900   6.942   6.164 -0.1141 -0.8585  1.2632
  171MOL0     H22544   4.076   7.176   6.112  0.4129 -0.2231  0.8011
  171MOL0     H22545   4.079   7.032   6.007 -0.8394 -0.2524 -0.4856
  171MOL0     H22546   3.838   7.226   6.020  1.8785  0.7790  1.6109
  171MOL0     H22547   3.822   7.053   5.990  1.3031 -0.2627  0.0354
  171MOL0     H22548   3.847   7.155   5.772 -0.5218  0.6507  0.9312
  171MOL0     H22549   3.983   7.053   5.809 -1.2735 -1.1881  0.6080
  171MOL0     H22550   3.982   7.340   5.810 -0.4244 -0.0934 -2.2709
  171MOL0     H22551   4.133   7.250   5.868  2.9246 -3.6785 -2.3888
  171MOL0     H22552   4.123   7.136   5.640 -0.8650 -0.2081  1.3854
  171MOL0     H22553   4.170   7.307   5.634  0.0148 -0.9035 -0.7016
  171MOL0     H22554   4.042   6.876   6.656  0.9766 -1.4463 -1.2431
  171MOL0     H22555   3.929   6.784   6.875 -0.7331 -1.3084 -0.4787
  171MOL0     H22556   3.600   6.488   7.039  0.1801  0.3018 -0.7309
  171MOL0     H22557   3.513   6.417   7.257 -1.9517  0.9122 -0.5290
  171MOL0     H22558   4.193   7.868   7.813  1.0252  0.3246 -0.2631
  171MOL0     H22559   4.332   8.030   7.682  0.6496  0.4836  0.4077
  171MOL0     H22560   4.480   8.551   7.682  1.3437  1.1052  2.8390
  171MOL0     H22561   4.644   8.725   7.649  2.7455 -0.8169 -3.1822
  171MOL0     H22562   5.003   8.607   7.496 -2.8577 -0.0150 -0.6479
  171MOL0     H22563   5.094   8.592   7.653  0.1615  1.2209  1.1450
  171MOL0     H22564   5.044   8.864   7.505  1.0085 -1.1901 -1.9600
  171MOL0     H22565   5.135   8.838   7.651 -0.0093 -0.8297 -0.5206
  171MOL0     H22566   5.303   8.739   7.541 -2.5468 -1.1923  1.3220
  171MOL0     H22567   5.250   8.869   7.435  0.8627  0.0178 -0.4899
  171MOL0     H22568   5.200   8.557   7.392 -0.3170 -0.4311  1.1798
  171MOL0     H22569   5.100   8.672   7.301  0.9881  1.1847 -1.6410
  171MOL0     H22570   5.520   8.679   7.174  0.9989  0.9637  0.3437
  171MOL0     H22571   4.946   8.439   7.763 -0.0890 -1.4869  2.9326
  171MOL0     H22572   4.778   8.262   7.768 -0.3595  1.1462  6.9741
  172MOL0     O22573   9.542  10.152   1.871  0.1523  0.4251 -0.7639
  172MOL0     C22574   9.654  10.163   1.916 -2.2931  0.8229 -1.1397
  172MOL0     O22575   9.754  10.242   1.868  0.6600 -0.1446 -0.7906
  172MOL0     C22576   9.723  10.314   1.755  0.1044 -0.7754 -0.1583
  172MOL0     C22577   9.717  10.267   1.619 -0.1522  0.3852  0.7439
  172MOL0     C22578   9.690  10.352   1.514 -0.6959  1.0841  0.8358
  172MOL0     C22579   9.682  10.483   1.534 -0.4409 -0.9909 -1.0664
  172MOL0     O22580   9.673  10.582   1.438  0.3844  0.2672  0.1089
  172MOL0     C22581   9.657  10.540   1.305  0.3862  0.4469 -0.0478
  172MOL0     C22582   9.688  10.666   1.212  0.0674  0.2773 -0.7355
  172MOL0     C22583   9.575  10.757   1.181 -0.5246  0.2682 -1.3724
  172MOL0     C22584   9.637  10.846   1.063  0.1625 -0.5110  0.9537
  172MOL0     C22585   9.519  10.885   0.968  0.2848 -0.0179 -0.0670
  172MOL0     C22586   9.541  10.949   0.829  0.7525 -0.4178  0.7216
  172MOL0     C22587   9.629  11.074   0.830  0.5222 -0.7085  0.9831
  172MOL0     C22588   9.617  11.144   0.690 -0.8835 -0.3486 -0.7405
  172MOL0     N22589   9.487  11.209   0.680  0.3336 -0.3545  0.5663
  172MOL0     C22590   9.384  11.167   0.598 -0.7188 -0.0678 -0.2211
  172MOL0     C22591   9.271  11.244   0.639 -0.2595 -0.8036 -0.3370
  172MOL0     C22592   9.122  11.227   0.629  0.3168  0.5012  0.9443
  172MOL0     C22593   9.071  11.173   0.763  1.1321  0.0259  0.4173
  172MOL0     C22594   8.958  11.075   0.734 -0.0217 -0.7207  0.2826
  172MOL0     C22595   8.886  11.035   0.863  0.1896  0.2626 -0.5678
  172MOL0     O22596   8.980  10.996   0.959  0.7617  0.2364 -0.2588
  172MOL0     C22597   9.001  10.867   0.978  0.0077  0.5289 -0.0332
  172MOL0     C22598   8.885  10.786   1.013  0.3689  0.2120 -0.0006
  172MOL0     C22599   8.911  10.667   1.085  0.0582 -0.7489  0.1634
  172MOL0     C22600   9.039  10.616   1.110 -0.6555  0.3245 -1.1942
  172MOL0     C22601   9.063  10.494   1.202  0.3452  0.0311 -0.0188
  172MOL0     O22602   9.194  10.431   1.187 -0.4319 -0.6446 -0.6419
  172MOL0     C22603   9.227  10.327   1.268  0.4467  0.1884 -0.4519
  172MOL0     C22604   9.268  10.359   1.402 -0.6258  0.6685  0.2475
  172MOL0     C22605   9.332  10.259   1.480 -0.2567 -0.1261 -0.0762
  172MOL0     C22606   9.369  10.134   1.418  0.0246  0.5868 -0.0284
  172MOL0     O22607   9.444  10.041   1.486  0.2429  0.1141  0.4103
  172MOL0     C22608   9.363   9.953   1.560 -0.2795  0.1613 -1.3941
  172MOL0     C22609   9.438   9.822   1.588  0.0423  0.5164 -0.2385
  172MOL0     C22610   9.479   9.748   1.465  0.3830  0.0308 -0.1237
  172MOL0     C22611   9.563   9.627   1.498 -0.3053  0.7960  0.1884
  172MOL0     C22612   9.595   9.533   1.378  0.4615 -0.0265  0.3692
  172MOL0     C22613   9.675   9.415   1.405 -0.0570  0.4153 -1.1051
  172MOL0     C22614   9.818   9.467   1.432  0.5060  0.6299  0.5973
  172MOL0     C22615   9.917   9.355   1.431 -0.4740 -0.1688 -0.4613
  172MOL0    Cl22616   9.922   9.260   1.578  0.6104  0.2943  0.0659
  172MOL0     C22617   9.324  10.103   1.286  0.9413  0.2788  0.7309
  172MOL0     C22618   9.252  10.202   1.213  0.0993  0.6846  0.9810
  172MOL0     O22619   8.957  10.447   1.252 -0.4246  0.3397  0.1921
  172MOL0     C22620   9.145  10.690   1.062  0.6282  0.5717  0.0096
  172MOL0     C22621   9.127  10.818   1.008 -0.1765 -0.5890 -0.2670
  172MOL0     N22622   9.324  11.333   0.729  0.3526 -0.1909  0.0832
  172MOL0     N22623   9.448  11.313   0.754 -0.4521 -0.7943  0.3569
  172MOL0     C22624   9.711  10.532   1.661 -0.7039 -0.5585 -0.7789
  172MOL0     C22625   9.721  10.453   1.772 -0.0563  0.1139  0.3317
  172MOL0     C22626   9.684  10.105   2.056 -0.6687 -0.4671 -0.1361
  172MOL0     C22627   9.584  10.066   2.134  0.3643  0.2302 -0.0403
  172MOL0     C22628   9.602  10.007   2.261 -0.1652  0.0595 -0.0011
  172MOL0     C22629   9.730   9.991   2.318 -0.1862 -0.6203  0.0132
  172MOL0     O22630   9.738   9.930   2.438 -0.2936 -0.0001  0.0892
  172MOL0     C22631   9.864   9.881   2.480  1.3747  0.1523  0.0759
  172MOL0     C22632   9.846   9.763   2.576 -0.6839 -0.2200 -0.7763
  172MOL0     C22633   9.850   9.629   2.488  0.6317 -1.6915  0.2154
  172MOL0     C22634   9.714   9.557   2.497  0.5075 -0.0985 -0.3941
  172MOL0     C22635   9.704   9.472   2.618  1.5493  0.5485 -0.0026
  172MOL0     C22636   9.683   9.397   2.714  0.3597  0.1315 -1.1190
  172MOL0     C22637   9.836  10.030   2.232 -0.1914 -0.1296  0.6638
  172MOL0     C22638   9.818  10.087   2.106 -1.0907 -0.2184  1.0987
  172MOL0     H22639   9.726  10.159   1.614 -0.0659  0.2089  3.1335
  172MOL0     H22640   9.664  10.313   1.416 -0.4006  0.6608  0.9227
  172MOL0     H22641   9.559  10.498   1.279  0.2616  0.4429  0.4158
  172MOL0     H22642   9.736  10.466   1.287  0.9901  0.0424  3.5899
  172MOL0     H22643   9.701  10.604   1.123  0.3228 -2.3605  1.0297
  172MOL0     H22644   9.779  10.714   1.249 -0.8872  0.6528  1.2294
  172MOL0     H22645   9.556  10.818   1.269  1.7871 -2.1189  0.9913
  172MOL0     H22646   9.486  10.700   1.154 -2.0656  2.7018 -1.7591
  172MOL0     H22647   9.668  10.936   1.117  0.9379 -0.4107  0.3608
  172MOL0     H22648   9.717  10.805   1.000 -0.3796 -0.1510  0.0196
  172MOL0     H22649   9.469  10.960   1.029 -1.6224 -2.0709  1.0768
  172MOL0     H22650   9.459  10.793   0.970 -1.4964  1.1086  0.2307
  172MOL0     H22651   9.441  10.974   0.792  0.8616 -1.0808 -0.0583
  172MOL0     H22652   9.585  10.883   0.754  3.1626 -0.8640  2.3974
  172MOL0     H22653   9.586  11.152   0.893 -0.6607 -2.9085  3.0713
  172MOL0     H22654   9.733  11.046   0.847  0.9334  1.2107  1.9137
  172MOL0     H22655   9.631  11.078   0.604 -0.5304  2.1953 -2.7847
  172MOL0     H22656   9.694  11.221   0.702  1.1774 -2.4788  0.6027
  172MOL0     H22657   9.374  11.083   0.529  1.4496 -1.5497  1.1549
  172MOL0     H22658   9.106  11.160   0.545  0.1165 -0.4480  1.7219
  172MOL0     H22659   9.072  11.319   0.598 -1.5021 -1.1301 -1.1765
  172MOL0     H22660   9.038  11.255   0.826  0.6444 -0.9553  1.4680
  172MOL0     H22661   9.158  11.123   0.806  1.8037  0.2366 -0.6417
  172MOL0     H22662   8.886  11.118   0.664  1.4921  2.6009  0.5332
  172MOL0     H22663   8.991  10.985   0.683 -2.0227 -1.3469 -0.0225
  172MOL0     H22664   8.814  10.954   0.844  1.2869 -1.4144  1.8843
  172MOL0     H22665   8.832  11.122   0.902 -0.6703 -0.8303  0.7770
  172MOL0     H22666   8.786  10.818   0.984  0.7648  0.7721 -0.8001
  172MOL0     H22667   8.823  10.611   1.113  1.8830 -4.5331 -0.8858
  172MOL0     H22668   9.252  10.457   1.447 -0.4092  0.3342  1.0835
  172MOL0     H22669   9.355  10.281   1.583  1.9778 -1.4690 -0.2338
  172MOL0     H22670   9.263   9.936   1.518  0.7241  0.9802 -4.3921
  172MOL0     H22671   9.337   9.983   1.662 -3.0211 -0.6568 -1.7653
  172MOL0     H22672   9.368   9.763   1.649 -1.6816  4.1806  1.6655
  172MOL0     H22673   9.524   9.852   1.649  1.3182 -3.2062  0.0552
  172MOL0     H22674   9.514   9.809   1.382 -0.2535 -0.3799 -0.7042
  172MOL0     H22675   9.382   9.715   1.426 -0.0735 -0.8792  1.6206
  172MOL0     H22676   9.660   9.663   1.534 -0.8023  0.8637  1.4918
  172MOL0     H22677   9.531   9.566   1.582  1.4617 -4.5630 -2.5923
  172MOL0     H22678   9.631   9.603   1.302 -0.1479  2.3343  2.1415
  172MOL0     H22679   9.501   9.488   1.346 -0.1627  1.3715  0.1520
  172MOL0     H22680   9.681   9.350   1.317  0.7286 -1.4437  0.2570
  172MOL0     H22681   9.638   9.351   1.486  2.2509 -0.3327 -0.5508
  172MOL0     H22682   9.844   9.527   1.344 -0.4241 -0.0633 -0.1625
  172MOL0     H22683   9.822   9.526   1.524  0.0875 -0.2318  1.1796
  172MOL0     H22684  10.020   9.389   1.414  0.9866 -1.3560  4.3619
  172MOL0     H22685   9.894   9.292   1.345 -0.7495 -0.7924  0.0665
  172MOL0     H22686   9.347  10.010   1.237  2.3797  1.6669 -1.3881
  172MOL0     H22687   9.227  10.189   1.108  2.2615 -2.2024  0.7200
  172MOL0     H22688   9.249  10.662   1.076 -0.1265 -1.5953  1.9530
  172MOL0     H22689   9.211  10.880   0.980 -1.1290  0.0488 -1.8479
  172MOL0     H22690   9.730  10.639   1.670  1.2782 -0.6518 -3.0535
  172MOL0     H22691   9.710  10.511   1.864 -3.5104 -2.5294  1.8239
  172MOL0     H22692   9.488  10.082   2.087  0.8221  1.2839 -0.6363
  172MOL0     H22693   9.519   9.981   2.326  0.5615 -1.4978  0.3440
  172MOL0     H22694   9.913   9.956   2.544 -1.7991  1.1832  1.5236
  172MOL0     H22695   9.924   9.862   2.391 -1.4465  1.5888 -2.3078
  172MOL0     H22696   9.937   9.765   2.637  1.6733  0.2901 -4.0304
  172MOL0     H22697   9.752   9.770   2.631  1.7158  0.4022  3.7336
  172MOL0     H22698   9.931   9.565   2.523  0.0028 -2.2773  0.5998
  172MOL0     H22699   9.872   9.655   2.384  0.4213 -1.9201  0.1138
  172MOL0     H22700   9.628   9.622   2.478  1.4208  1.3301  0.2015
  172MOL0     H22701   9.722   9.491   2.410  4.7051  1.8471 -1.7462
  172MOL0     H22702   9.661   9.354   2.810 -2.2495  1.5249 -1.0187
  172MOL0     H22703   9.939  10.005   2.257  1.5125  4.5392 -0.6942
  172MOL0     H22704   9.907  10.127   2.059 -0.1812 -1.7761  1.4405
  173MOL0     O22705   2.394   3.401   7.022  0.0381 -0.0461  0.0842
  173MOL0     C22706   2.286   3.416   6.967 -0.2652 -0.2948 -0.7010
  173MOL0     O22707   2.156   3.388   7.032  0.1730 -0.3920  0.1331
  173MOL0     C22708   2.133   3.345   7.161 -0.3945 -0.6989  0.2747
  173MOL0     C22709   2.205   3.234   7.211 -0.4372 -0.2667 -0.0607
  173MOL0     C22710   2.183   3.184   7.344  0.4497  0.2598 -0.3609
  173MOL0     C22711   2.097   3.255   7.432 -0.4355  0.8341 -1.7545
  173MOL0     O22712   2.056   3.213   7.554 -0.3931 -0.1337  0.5449
  173MOL0     C22713   2.105   3.089   7.615  0.2466  0.4278  0.6857
  173MOL0     C22714   2.063   3.103   7.771  0.4640  0.0529 -0.0685
  173MOL0     C22715   2.103   2.980   7.848 -0.4571 -0.5393  0.5904
  173MOL0     C22716   2.038   2.978   7.988 -0.0494  0.2088 -0.4047
  173MOL0     C22717   2.097   2.875   8.087 -0.9574 -0.1335 -0.6587
  173MOL0     C22718   2.128   2.750   8.014  0.1724  0.6479 -0.2483
  173MOL0     C22719   2.211   2.638   8.091 -0.1840  0.4120 -0.4119
  173MOL0     C22720   2.115   2.586   8.201  0.1270  0.4958  0.2683
  173MOL0     N22721   2.090   2.443   8.192 -0.4629  0.5713 -0.5703
  173MOL0     C22722   2.139   2.352   8.293  0.4552  0.8948 -0.3065
  173MOL0     C22723   2.093   2.230   8.252 -0.6154 -0.4888 -0.2377
  173MOL0     C22724   2.126   2.096   8.303 -0.5007 -1.1213  0.1942
  173MOL0     C22725   2.279   2.074   8.307 -0.2843 -0.8608 -0.4207
  173MOL0     C22726   2.309   1.953   8.383 -0.6568  0.4545  0.2859
  173MOL0     C22727   2.233   1.827   8.338  0.6158 -0.2618 -0.3387
  173MOL0     O22728   2.277   1.711   8.410  1.6749 -0.6894 -0.0167
  173MOL0     C22729   2.203   1.596   8.393  1.4075 -0.5159  0.3048
  173MOL0     C22730   2.191   1.537   8.267  0.2327  0.9524 -0.6773
  173MOL0     C22731   2.140   1.408   8.249 -0.3662 -0.0083  0.9315
  173MOL0     C22732   2.084   1.340   8.359 -0.6910  0.5045  0.3351
  173MOL0     C22733   2.030   1.211   8.347 -0.0742 -0.2470 -0.2897
  173MOL0     O22734   2.020   1.169   8.221 -0.2713 -0.4297  0.2919
  173MOL0     C22735   1.988   1.036   8.204 -1.0515 -1.0426  0.9036
  173MOL0     C22736   2.076   0.962   8.134 -0.8988  0.0925  0.8473
  173MOL0     C22737   2.044   0.828   8.102  0.1167  0.0543  0.8585
  173MOL0     C22738   1.908   0.781   8.123  0.8170 -0.0001 -0.8711
  173MOL0     O22739   1.863   0.660   8.088  0.2994 -0.5771 -0.6959
  173MOL0     C22740   1.942   0.558   8.034 -0.2226  0.7212  0.9752
  173MOL0     C22741   1.999   0.469   8.145 -0.4203 -0.1156 -0.1550
  173MOL0     C22742   1.905   0.357   8.199  0.1083  0.1294  0.1993
  173MOL0     C22743   1.951   0.319   8.344  0.3149 -0.1669 -1.2169
  173MOL0     C22744   2.084   0.235   8.357 -0.0594 -0.6819 -0.6621
  173MOL0     C22745   2.145   0.241   8.488 -0.4338 -0.2952 -1.0583
  173MOL0     C22746   2.283   0.188   8.525  0.1894 -0.1998 -0.1542
  173MOL0     C22747   2.306   0.047   8.458 -0.7976 -0.9373 -0.1501
  173MOL0    Cl22748   2.467  -0.020   8.512  0.0539  0.4779 -0.5107
  173MOL0     C22749   1.821   0.862   8.189  0.1535  0.1903 -1.2281
  173MOL0     C22750   1.865   0.982   8.242 -1.2459  0.1823 -0.1823
  173MOL0     O22751   1.991   1.151   8.452 -0.3758 -0.5361 -0.8185
  173MOL0     C22752   2.085   1.415   8.482  0.4719  0.2869 -0.2634
  173MOL0     C22753   2.147   1.534   8.508 -0.6696  0.2799  0.8262
  173MOL0     N22754   2.017   2.252   8.143  0.3802  0.2447 -0.4926
  173MOL0     N22755   2.004   2.376   8.118  0.4676 -0.3992  0.5841
  173MOL0     C22756   2.019   3.357   7.378  0.4631 -0.3227 -0.5507
  173MOL0     C22757   2.038   3.403   7.244 -0.0579 -1.0290 -0.9569
  173MOL0     C22758   2.283   3.465   6.828 -0.3886 -0.4366 -0.5349
  173MOL0     C22759   2.417   3.480   6.771  0.9894  0.0992 -0.8013
  173MOL0     C22760   2.419   3.538   6.647  0.7112 -0.2251 -0.4901
  173MOL0     C22761   2.292   3.569   6.585 -0.2721 -0.0114  0.8444
  173MOL0     O22762   2.317   3.608   6.456  0.1818  0.0669 -0.5171
  173MOL0     C22763   2.204   3.655   6.389  0.1875 -0.4462  0.6820
  173MOL0     C22764   2.242   3.700   6.250 -0.9442  0.7022 -0.6159
  173MOL0     C22765   2.128   3.723   6.152  0.0543  0.1242 -1.1109
  173MOL0     C22766   2.182   3.734   6.013 -0.7206 -0.4631  0.6400
  173MOL0     C22767   2.318   3.806   6.005  0.0429 -0.0490 -0.8160
  173MOL0     C22768   2.423   3.872   6.010  0.2110  0.1702 -0.5680
  173MOL0     C22769   2.171   3.550   6.639  0.7838  0.1437  0.1532
  173MOL0     C22770   2.165   3.491   6.768  0.2060  0.1535  0.7450
  173MOL0     H22771   2.280   3.182   7.152  0.5563 -1.3354  2.0504
  173MOL0     H22772   2.221   3.085   7.368  0.0879  0.6551  2.2193
  173MOL0     H22773   2.213   3.103   7.601  0.2473 -0.5841 -0.4565
  173MOL0     H22774   2.071   2.999   7.565  0.4723  0.8138 -0.1847
  173MOL0     H22775   1.954   3.113   7.776  0.1463 -2.2864 -0.8534
  173MOL0     H22776   2.093   3.195   7.821  0.5615  0.4907 -0.9148
  173MOL0     H22777   2.211   2.965   7.841 -0.6067 -2.3546  1.4541
  173MOL0     H22778   2.062   2.896   7.790 -0.0367 -2.4835  2.9187
  173MOL0     H22779   2.052   3.071   8.043  0.6575 -0.1600  0.0584
  173MOL0     H22780   1.930   2.972   7.976 -0.1106  0.2031  0.1640
  173MOL0     H22781   2.019   2.871   8.163 -1.4172  2.9808 -0.8074
  173MOL0     H22782   2.191   2.904   8.136 -1.7918 -1.3675  1.8636
  173MOL0     H22783   2.191   2.769   7.928  1.3896 -0.9567  0.2454
  173MOL0     H22784   2.037   2.714   7.965 -0.8242  3.6741 -0.8237
  173MOL0     H22785   2.248   2.552   8.035 -0.6248 -0.0744  0.0387
  173MOL0     H22786   2.300   2.685   8.135 -1.1139  4.1243 -2.1290
  173MOL0     H22787   2.018   2.636   8.202 -0.8366 -1.2699 -0.1073
  173MOL0     H22788   2.154   2.613   8.300 -1.5020  0.7509  0.8714
  173MOL0     H22789   2.188   2.377   8.386  1.1015 -0.7614 -0.1617
  173MOL0     H22790   2.068   2.029   8.238 -1.2689  1.4310 -1.9271
  173MOL0     H22791   2.090   2.094   8.406 -4.2938  2.0868 -0.8182
  173MOL0     H22792   2.326   2.155   8.365  0.1317 -0.9025 -0.6950
  173MOL0     H22793   2.331   2.084   8.211  1.1426  0.1082  0.4072
  173MOL0     H22794   2.413   1.925   8.362 -1.2229 -3.1468  1.5920
  173MOL0     H22795   2.303   1.965   8.492 -0.3643  0.5179  0.2961
  173MOL0     H22796   2.249   1.809   8.232  1.0658  2.6519 -0.8652
  173MOL0     H22797   2.126   1.841   8.358  0.5310  0.6679 -1.3726
  173MOL0     H22798   2.243   1.592   8.189  2.8089  2.4058  1.8373
  173MOL0     H22799   2.134   1.364   8.151 -1.4847 -1.3441  1.5643
  173MOL0     H22800   2.174   0.996   8.102  1.4753 -2.4540  4.5429
  173MOL0     H22801   2.121   0.760   8.069  1.1734  1.2862  0.7051
  173MOL0     H22802   2.023   0.595   7.970 -1.0264  0.0490 -0.4690
  173MOL0     H22803   1.881   0.485   7.981  0.7041  0.0712  0.7776
  173MOL0     H22804   2.030   0.541   8.222  1.7411 -0.4016 -0.6728
  173MOL0     H22805   2.098   0.427   8.123 -0.6238 -0.5071 -0.3400
  173MOL0     H22806   1.915   0.269   8.134 -1.7119 -0.1523  0.2682
  173MOL0     H22807   1.803   0.396   8.196  0.8720  2.4782  1.9109
  173MOL0     H22808   1.966   0.410   8.402  2.8598 -0.5254 -1.1864
  173MOL0     H22809   1.876   0.251   8.385  1.1934 -3.7469 -4.8251
  173MOL0     H22810   2.146   0.290   8.286  0.4950  0.9965  1.0181
  173MOL0     H22811   2.081   0.130   8.325 -0.3343 -0.4175 -1.5209
  173MOL0     H22812   2.075   0.201   8.562 -2.3140  3.1853 -0.7168
  173MOL0     H22813   2.157   0.343   8.526  1.9724 -0.7492 -0.4200
  173MOL0     H22814   2.357   0.257   8.483  1.0520 -2.5737 -2.8702
  173MOL0     H22815   2.308   0.195   8.631  1.7207 -0.0910 -0.4927
  173MOL0     H22816   2.309   0.069   8.351 -0.5137 -3.2749 -0.6892
  173MOL0     H22817   2.224  -0.024   8.472 -1.1124 -0.6477 -0.5101
  173MOL0     H22818   1.722   0.824   8.211  0.3710  0.0908 -0.3720
  173MOL0     H22819   1.789   1.045   8.287 -1.6367 -1.0883  1.0017
  173MOL0     H22820   2.044   1.359   8.565  2.7396 -1.4755 -0.2421
  173MOL0     H22821   2.160   1.572   8.609  3.6007  0.1240  0.5460
  173MOL0     H22822   1.936   3.392   7.438  1.1856  1.7613 -0.6809
  173MOL0     H22823   1.973   3.476   7.198  1.7985  1.7053  0.4965
  173MOL0     H22824   2.513   3.453   6.814  1.0259 -0.6630 -1.3514
  173MOL0     H22825   2.516   3.563   6.605  3.4718 -0.5112  4.8956
  173MOL0     H22826   2.167   3.745   6.440 -2.2041  1.2105 -3.4307
  173MOL0     H22827   2.114   3.595   6.383 -2.9365  3.5511  2.5779
  173MOL0     H22828   2.301   3.791   6.258  0.0219  0.4511 -3.6246
  173MOL0     H22829   2.313   3.626   6.211 -2.0276 -0.9627  0.4261
  173MOL0     H22830   2.074   3.811   6.188  0.9048 -0.6472  2.4257
  173MOL0     H22831   2.051   3.646   6.153  0.2989 -0.1232 -0.3494
  173MOL0     H22832   2.177   3.632   5.972 -0.4914 -1.2089  2.3657
  173MOL0     H22833   2.127   3.806   5.952  1.1102  0.9208  0.5482
  173MOL0     H22834   2.511   3.931   6.017  0.7668 -0.7710  0.8567
  173MOL0     H22835   2.076   3.576   6.595  1.3519  0.2923 -1.0361
  173MOL0     H22836   2.071   3.472   6.820 -0.9307  1.3743 -0.7702
  174MOL0     O22837   6.801   9.931   1.441  0.9195  0.5225  0.6301
  174MOL0     C22838   6.849   9.917   1.550  0.1444  0.6546 -0.0531
  174MOL0     O22839   6.928   9.809   1.586 -0.4118 -0.2833 -0.4118
  174MOL0     C22840   6.959   9.725   1.484  0.1842  0.5652 -0.2563
  174MOL0     C22841   6.871   9.621   1.470  0.0176 -0.5914 -0.5283
  174MOL0     C22842   6.914   9.510   1.396  0.0356 -0.4012 -0.1717
  174MOL0     C22843   7.045   9.505   1.341  0.0171 -0.3767 -0.4598
  174MOL0     O22844   7.111   9.398   1.286  0.2877  0.1300  0.3175
  174MOL0     C22845   7.045   9.269   1.264  0.5509 -0.7659 -0.5118
  174MOL0     C22846   7.083   9.176   1.381 -0.0762  0.4453 -1.0343
  174MOL0     C22847   6.985   9.077   1.423 -0.8017  0.1623  0.0565
  174MOL0     C22848   6.941   8.981   1.321  0.1066 -0.5263 -0.0424
  174MOL0     C22849   6.800   8.919   1.330 -0.2469 -0.0796  0.0348
  174MOL0     C22850   6.714   8.924   1.203  0.6770 -0.0529 -0.4422
  174MOL0     C22851   6.583   8.845   1.216 -0.3717 -0.1777 -1.4160
  174MOL0     C22852   6.623   8.689   1.202 -0.3721  0.1736  0.9734
  174MOL0     N22853   6.509   8.608   1.175  1.0161 -0.1979 -0.6281
  174MOL0     C22854   6.492   8.503   1.091 -1.0793 -0.3923 -0.9827
  174MOL0     C22855   6.378   8.443   1.113 -0.1295 -0.3079 -0.8470
  174MOL0     C22856   6.338   8.307   1.063 -0.3660  1.5560 -0.2183
  174MOL0     C22857   6.444   8.190   1.050 -0.1105 -1.2200 -0.0420
  174MOL0     C22858   6.540   8.173   1.179 -0.8611 -0.6669  1.6411
  174MOL0     C22859   6.651   8.077   1.152  0.9110  0.7604 -0.6493
  174MOL0     O22860   6.750   8.112   1.252  0.1033  0.3072 -0.3408
  174MOL0     C22861   6.878   8.049   1.241  0.7158 -0.6010  1.0203
  174MOL0     C22862   6.925   7.960   1.143 -0.8526 -0.1777 -0.2591
  174MOL0     C22863   7.061   7.899   1.155  0.0661  0.0464 -0.6457
  174MOL0     C22864   7.144   7.955   1.254 -0.7456 -0.8839 -0.0970
  174MOL0     C22865   7.286   7.907   1.269  0.8879 -0.0092  0.2170
  174MOL0     O22866   7.323   7.801   1.192 -0.0764 -0.4842 -0.9361
  174MOL0     C22867   7.424   7.718   1.237 -0.5141  1.1641  0.8813
  174MOL0     C22868   7.536   7.695   1.153  0.0548 -0.0360 -0.7260
  174MOL0     C22869   7.638   7.617   1.199  0.6448  0.7339 -0.1920
  174MOL0     C22870   7.623   7.553   1.326 -1.1398 -0.2999 -0.8179
  174MOL0     O22871   7.714   7.449   1.365  0.8206  0.4367 -0.9166
  174MOL0     C22872   7.728   7.361   1.258 -0.0774  0.1380  0.3642
  174MOL0     C22873   7.783   7.220   1.296  0.7263  0.4139 -0.7244
  174MOL0     C22874   7.675   7.140   1.373  0.2696  0.4298 -0.5519
  174MOL0     C22875   7.634   7.197   1.508 -0.9802 -0.0964  0.0485
  174MOL0     C22876   7.731   7.209   1.622  0.1268 -0.8962 -0.5247
  174MOL0     C22877   7.690   7.317   1.730 -0.1821 -0.4657  0.8610
  174MOL0     C22878   7.568   7.284   1.813  0.3716  0.3788  0.3104
  174MOL0     C22879   7.556   7.368   1.941 -0.0259 -0.1351 -0.1802
  174MOL0    Cl22880   7.531   7.535   1.883  0.3881  0.2098 -0.0504
  174MOL0     C22881   7.519   7.584   1.412  0.5347  0.0478  0.5247
  174MOL0     C22882   7.418   7.661   1.364 -0.5931 -1.5500  1.1863
  174MOL0     O22883   7.359   7.966   1.346 -0.1974  0.9798  0.1354
  174MOL0     C22884   7.103   8.057   1.335  1.1983 -0.4123 -0.7271
  174MOL0     C22885   6.973   8.103   1.335 -0.2729 -0.1659 -0.4767
  174MOL0     N22886   6.315   8.518   1.220 -1.0302  0.2326  0.7268
  174MOL0     N22887   6.397   8.606   1.250  0.5035 -0.7531 -0.3672
  174MOL0     C22888   7.123   9.615   1.355  0.4723 -0.6539 -0.8114
  174MOL0     C22889   7.088   9.729   1.430  0.6169  0.3779  0.0884
  174MOL0     C22890   6.821  10.025   1.646 -0.6679 -0.0135 -0.2503
  174MOL0     C22891   6.915  10.036   1.759  0.4117 -1.0545  0.0510
  174MOL0     C22892   6.899  10.153   1.842 -0.1099  0.1838  0.9231
  174MOL0     C22893   6.791  10.243   1.824  0.4542  0.2675  0.3270
  174MOL0     O22894   6.776  10.350   1.904 -0.7841 -0.3772 -0.3848
  174MOL0     C22895   6.784  10.327   2.046  0.4296 -0.0380  0.1204
  174MOL0     C22896   6.643  10.274   2.085 -1.0801  0.7090 -0.3183
  174MOL0     C22897   6.617  10.247   2.240  0.5046 -0.6005  0.7122
  174MOL0     C22898   6.472  10.265   2.270 -0.4076  1.0436  1.0668
  174MOL0     C22899   6.460  10.261   2.416  0.6741 -0.2870  0.1562
  174MOL0     C22900   6.429  10.248   2.532 -0.2868  0.2408  0.6868
  174MOL0     C22901   6.706  10.223   1.721  0.3881 -0.1990  0.5883
  174MOL0     C22902   6.717  10.114   1.629 -0.3807 -0.2769 -0.1240
  174MOL0     H22903   6.775   9.627   1.520 -0.1276 -1.4200 -0.6936
  174MOL0     H22904   6.855   9.418   1.403 -2.2186  0.9696  0.0421
  174MOL0     H22905   7.060   9.236   1.161  0.6077  1.5639 -1.3216
  174MOL0     H22906   6.937   9.283   1.259  0.6135 -0.6596 -2.2174
  174MOL0     H22907   7.090   9.236   1.472 -4.7641 -1.7116  1.0620
  174MOL0     H22908   7.179   9.130   1.353  0.0930  2.4319 -4.1536
  174MOL0     H22909   6.895   9.127   1.460 -0.8208 -0.0116  0.2452
  174MOL0     H22910   7.028   9.020   1.506 -1.4091  0.7683  0.7947
  174MOL0     H22911   6.944   9.026   1.221 -0.5593 -0.5272 -0.0665
  174MOL0     H22912   7.009   8.896   1.318  1.5834  0.6429 -2.0073
  174MOL0     H22913   6.735   8.946   1.413  0.7964  1.6026  0.3639
  174MOL0     H22914   6.824   8.816   1.355 -0.3087  0.7698  4.2349
  174MOL0     H22915   6.763   8.887   1.112  1.2767 -0.8462  0.1915
  174MOL0     H22916   6.702   9.031   1.180 -2.2633 -0.1444  0.2120
  174MOL0     H22917   6.532   8.864   1.311 -0.0128  1.2169 -1.4950
  174MOL0     H22918   6.515   8.883   1.139 -2.1953  0.1103  0.2688
  174MOL0     H22919   6.673   8.642   1.288 -3.9688 -5.8310  0.3670
  174MOL0     H22920   6.697   8.670   1.123  1.8556  2.7836  2.2638
  174MOL0     H22921   6.561   8.476   1.012  0.1536  3.5597 -1.4854
  174MOL0     H22922   6.269   8.298   0.978 -3.0791 -2.0482  2.0214
  174MOL0     H22923   6.282   8.261   1.145 -0.8349 -0.1508 -1.4112
  174MOL0     H22924   6.512   8.201   0.965 -0.3578 -0.2099 -0.1197
  174MOL0     H22925   6.389   8.096   1.035  3.7453 -3.4943 -1.5474
  174MOL0     H22926   6.588   8.268   1.202 -1.2156 -0.4102  1.3234
  174MOL0     H22927   6.490   8.127   1.265  1.4319 -1.3919  2.6513
  174MOL0     H22928   6.692   8.087   1.052  1.7868 -0.0870 -0.3962
  174MOL0     H22929   6.607   7.977   1.160 -0.2118  1.3726  2.0613
  174MOL0     H22930   6.858   7.926   1.064 -0.4935  0.4209 -0.8335
  174MOL0     H22931   7.095   7.823   1.085  1.2906  0.1016 -0.1348
  174MOL0     H22932   7.559   7.750   1.063  0.6522  0.5589 -0.2208
  174MOL0     H22933   7.724   7.617   1.133  1.6398 -0.9896  1.0302
  174MOL0     H22934   7.804   7.409   1.196  0.7161 -1.3598  0.1279
  174MOL0     H22935   7.643   7.348   1.191  0.0923  3.0131 -0.5523
  174MOL0     H22936   7.871   7.226   1.360  1.0007 -0.0975 -1.0400
  174MOL0     H22937   7.805   7.164   1.204 -0.6983  0.1405 -0.9264
  174MOL0     H22938   7.721   7.042   1.390 -0.1347 -0.3639 -3.5531
  174MOL0     H22939   7.589   7.112   1.313 -1.7217 -0.0647  2.3373
  174MOL0     H22940   7.592   7.298   1.500  2.1006  1.2740 -0.3273
  174MOL0     H22941   7.550   7.141   1.550 -0.7171  0.0337  0.7714
  174MOL0     H22942   7.831   7.229   1.581 -0.3748  3.5465 -0.0723
  174MOL0     H22943   7.738   7.114   1.675  3.2455 -1.2847 -1.4045
  174MOL0     H22944   7.695   7.420   1.695  2.8304 -0.9314 -0.4287
  174MOL0     H22945   7.772   7.309   1.802  1.0325  0.8672 -0.3109
  174MOL0     H22946   7.474   7.304   1.760  0.3385 -2.8033 -1.0900
  174MOL0     H22947   7.575   7.179   1.844 -1.5465  0.1366  0.0701
  174MOL0     H22948   7.643   7.382   2.006  0.1455  0.4103 -0.5251
  174MOL0     H22949   7.483   7.319   2.007 -3.0563 -0.7843 -3.6854
  174MOL0     H22950   7.506   7.543   1.512 -0.6497  0.1881  0.4320
  174MOL0     H22951   7.319   7.674   1.407 -0.5327 -1.0802  1.1930
  174MOL0     H22952   7.172   8.104   1.405 -0.0790  0.4580 -0.0106
  174MOL0     H22953   6.940   8.186   1.398 -1.6839 -1.7780  1.0149
  174MOL0     H22954   7.222   9.626   1.313  1.1609  2.2941  1.2077
  174MOL0     H22955   7.154   9.814   1.446  0.4330  1.5403 -4.1344
  174MOL0     H22956   7.009   9.983   1.769  1.3882  0.2994 -1.5027
  174MOL0     H22957   6.971  10.172   1.920  0.0830  3.0321  0.1534
  174MOL0     H22958   6.807  10.426   2.089  0.5893  0.1992 -0.5073
  174MOL0     H22959   6.865  10.259   2.075  1.6286  0.3195 -2.1819
  174MOL0     H22960   6.563  10.339   2.047 -0.3967  1.5442 -0.3757
  174MOL0     H22961   6.638  10.177   2.035 -0.0262  1.6339 -2.3406
  174MOL0     H22962   6.671  10.318   2.302 -1.9848  3.7983 -1.6948
  174MOL0     H22963   6.650  10.148   2.273  1.2187 -0.7752 -0.4453
  174MOL0     H22964   6.442  10.365   2.237  1.2911  0.9480 -0.9526
  174MOL0     H22965   6.411  10.193   2.216  0.8580 -0.4582  1.5637
  174MOL0     H22966   6.403  10.249   2.636  3.6699 -0.8956  1.8609
  174MOL0     H22967   6.618  10.286   1.710 -0.8583 -2.0490 -0.7872
  174MOL0     H22968   6.645  10.101   1.549  0.7735  1.8511 -1.5987
  175MOL0     O22969   4.172   9.952   2.760 -0.2437  0.5720 -0.1720
  175MOL0     C22970   4.123   9.976   2.650 -0.3591 -0.9021 -0.0528
  175MOL0     O22971   4.104  10.098   2.598 -0.0228 -0.6383 -0.7820
  175MOL0     C22972   4.102  10.219   2.673  0.4237  1.0033 -0.7179
  175MOL0     C22973   4.072  10.228   2.813  0.0374  1.2992 -0.4305
  175MOL0     C22974   4.060  10.354   2.876 -0.6668 -0.3106 -0.3339
  175MOL0     C22975   4.074  10.467   2.798 -0.4461  0.7501  0.6161
  175MOL0     O22976   4.044  10.594   2.844  0.0685  0.5404 -0.1904
  175MOL0     C22977   3.990  10.687   2.754  0.3038  0.2446  0.1531
  175MOL0     C22978   3.900  10.784   2.829  0.1783 -0.5152  0.6983
  175MOL0     C22979   3.974  10.854   2.947 -0.2212 -0.0162  0.4043
  175MOL0     C22980   3.874  10.935   3.030 -0.7563 -0.2106 -0.1202
  175MOL0     C22981   3.947  10.998   3.138  0.0942  0.0769 -0.7204
  175MOL0     C22982   3.855  11.046   3.261  0.1688  0.5629  0.2356
  175MOL0     C22983   3.756  11.157   3.236  0.1924  0.9565  0.4658
  175MOL0     C22984   3.827  11.273   3.164  0.0636 -0.9334  0.1522
  175MOL0     N22985   3.906  11.343   3.259 -0.5991  1.1409  0.2520
  175MOL0     C22986   3.879  11.461   3.326 -0.2811 -0.0478 -0.2593
  175MOL0     C22987   3.993  11.505   3.395 -0.9443 -1.1701  1.1898
  175MOL0     C22988   3.998  11.623   3.490 -1.5335  0.8106  0.2747
  175MOL0     C22989   3.935  11.737   3.423  0.7305 -0.9303  0.5210
  175MOL0     C22990   3.949  11.856   3.514  0.0267 -1.1783 -0.3010
  175MOL0     C22991   3.857  11.979   3.494 -1.1685  0.4967  0.2241
  175MOL0     O22992   3.916  12.065   3.384  0.5607 -0.0713 -0.2959
  175MOL0     C22993   3.850  12.182   3.346  0.1969 -0.9237  1.2654
  175MOL0     C22994   3.891  12.247   3.221  0.4848 -0.4496 -0.0098
  175MOL0     C22995   3.831  12.365   3.177  0.7211  0.1416  0.4240
  175MOL0     C22996   3.729  12.422   3.248  0.6583 -0.6759  0.6970
  175MOL0     C22997   3.660  12.536   3.186  0.2513  0.2615  0.4180
  175MOL0     O22998   3.720  12.584   3.073 -0.1923 -0.1891 -0.1206
  175MOL0     C22999   3.648  12.680   2.999 -0.9344 -0.2290 -0.7166
  175MOL0     C23000   3.640  12.813   3.024 -0.4400 -1.0936  0.2745
  175MOL0     C23001   3.571  12.892   2.930  0.2408 -0.3716 -0.5122
  175MOL0     C23002   3.510  12.831   2.819  0.7402 -0.5617 -0.3558
  175MOL0     O23003   3.442  12.918   2.726 -0.4713 -0.3009  0.1154
  175MOL0     C23004   3.501  13.040   2.708 -0.9750 -0.2026  0.3487
  175MOL0     C23005   3.420  13.118   2.603  0.7224 -0.3576  0.2141
  175MOL0     C23006   3.403  13.052   2.463 -0.8471  0.4895 -0.1434
  175MOL0     C23007   3.320  13.134   2.376  0.1150  0.3701  0.0942
  175MOL0     C23008   3.294  13.058   2.248 -0.3722 -0.2305 -0.5827
  175MOL0     C23009   3.217  13.157   2.146 -0.2604 -0.2900 -0.2712
  175MOL0     C23010   3.312  13.271   2.098  0.5274 -0.2148  0.0240
  175MOL0     C23011   3.267  13.344   1.968 -0.5116  1.2397 -0.2957
  175MOL0    Cl23012   3.362  13.493   1.944  0.1252  0.2422  0.1799
  175MOL0     C23013   3.509  12.690   2.798  0.1322 -0.2642  0.8779
  175MOL0     C23014   3.581  12.621   2.896 -1.0511 -0.2290 -0.2815
  175MOL0     O23015   3.547  12.564   3.225 -0.3067  0.2088 -0.1301
  175MOL0     C23016   3.692  12.369   3.368  0.0126  0.0504 -0.5988
  175MOL0     C23017   3.755  12.259   3.424 -1.2810 -0.0249 -0.8927
  175MOL0     N23018   4.089  11.403   3.356 -0.2340 -0.2257 -0.3019
  175MOL0     N23019   4.038  11.309   3.284 -0.0536 -0.0655  0.0712
  175MOL0     C23020   4.123  10.455   2.667  0.0111 -0.6156  0.1060
  175MOL0     C23021   4.128  10.328   2.605  0.6784 -0.6661 -0.0223
  175MOL0     C23022   4.102   9.862   2.560  0.1711  0.1753 -0.2638
  175MOL0     C23023   4.065   9.872   2.429 -0.1148  0.8476  0.7440
  175MOL0     C23024   4.075   9.768   2.334 -0.2155 -0.7131 -0.5068
  175MOL0     C23025   4.130   9.644   2.368 -0.3726  0.5347  0.1077
  175MOL0     O23026   4.154   9.545   2.267 -0.4063 -0.5728  0.5442
  175MOL0     C23027   4.227   9.426   2.303  0.0294  0.5002  0.5746
  175MOL0     C23028   4.253   9.354   2.163  0.3326 -0.3568 -1.6215
  175MOL0     C23029   4.368   9.261   2.178  0.2503 -0.3988  0.1670
  175MOL0     C23030   4.399   9.179   2.042  0.1931  0.2172 -0.5688
  175MOL0     C23031   4.427   9.277   1.938 -0.5434 -0.8403  0.3309
  175MOL0     C23032   4.452   9.351   1.847 -0.5352  1.2690  0.0634
  175MOL0     C23033   4.161   9.629   2.505 -0.0503 -0.0552 -0.3353
  175MOL0     C23034   4.147   9.732   2.603  1.2041  0.5132 -0.7357
  175MOL0     H23035   4.051  10.137   2.869  2.7409  1.6079  1.3127
  175MOL0     H23036   4.022  10.354   2.978  1.6119 -0.0088  0.5607
  175MOL0     H23037   3.932  10.643   2.673 -2.1864  0.9423  1.4717
  175MOL0     H23038   4.077  10.736   2.710  0.2427 -3.6818 -5.3847
  175MOL0     H23039   3.809  10.735   2.865 -1.8314  2.1543 -0.4233
  175MOL0     H23040   3.874  10.861   2.755  2.1773  0.9236  1.3914
  175MOL0     H23041   4.058  10.908   2.902  0.4291 -1.6417 -0.4504
  175MOL0     H23042   4.025  10.786   3.016  3.0591  0.9920 -0.8453
  175MOL0     H23043   3.833  11.017   2.971  3.1993  4.3009  2.6283
  175MOL0     H23044   3.799  10.860   3.056 -1.8632  0.1848 -1.9831
  175MOL0     H23045   4.007  11.073   3.086 -0.5317  2.5628  1.9259
  175MOL0     H23046   4.011  10.921   3.181 -1.8171 -3.0719 -3.0413
  175MOL0     H23047   3.921  11.084   3.339 -0.0801  2.1022 -0.2810
  175MOL0     H23048   3.806  10.951   3.286 -1.5412  1.8404  1.9854
  175MOL0     H23049   3.673  11.123   3.173  1.7913  1.3474 -1.9669
  175MOL0     H23050   3.715  11.189   3.333 -0.0825 -0.2416  0.7677
  175MOL0     H23051   3.751  11.342   3.127  0.1197 -0.5214  0.7912
  175MOL0     H23052   3.883  11.235   3.078 -2.5751 -2.2400 -1.0952
  175MOL0     H23053   3.796  11.530   3.312  1.2886  1.8913 -0.5217
  175MOL0     H23054   4.104  11.642   3.508  0.1544 -1.5124 -5.0121
  175MOL0     H23055   3.952  11.593   3.585  1.3740  0.8584  1.8314
  175MOL0     H23056   3.831  11.707   3.407 -0.5905  3.1113  0.2990
  175MOL0     H23057   3.984  11.750   3.327 -0.4911 -3.1425 -0.4679
  175MOL0     H23058   3.910  11.819   3.610 -0.8121 -1.1005 -0.6067
  175MOL0     H23059   4.051  11.893   3.529 -0.2400 -0.6924  0.3713
  175MOL0     H23060   3.864  12.036   3.587 -0.5049  0.2677  0.3154
  175MOL0     H23061   3.755  11.953   3.463 -1.4277 -0.3665  1.7164
  175MOL0     H23062   3.970  12.202   3.161  0.1232 -1.7429  0.4558
  175MOL0     H23063   3.861  12.404   3.080 -2.7626 -1.3334 -1.4028
  175MOL0     H23064   3.693  12.861   3.106 -0.7036  1.9800 -1.2243
  175MOL0     H23065   3.566  12.997   2.958 -2.0892 -0.5206 -0.2100
  175MOL0     H23066   3.601  13.016   2.670  0.1902  2.5546  1.4350
  175MOL0     H23067   3.506  13.096   2.802 -2.5748 -1.0821  1.0037
  175MOL0     H23068   3.469  13.214   2.582 -1.0794 -0.0567 -3.4591
  175MOL0     H23069   3.318  13.134   2.640 -1.3361 -0.3461 -4.7485
  175MOL0     H23070   3.347  12.959   2.475 -2.0522  1.0110 -1.5056
  175MOL0     H23071   3.502  13.030   2.421 -1.0721 -1.0509  0.0820
  175MOL0     H23072   3.225  13.153   2.426 -1.6669 -2.3966 -1.9290
  175MOL0     H23073   3.377  13.227   2.366 -0.1102  0.2731 -3.1506
  175MOL0     H23074   3.227  12.974   2.266  0.4232 -0.6533  0.5476
  175MOL0     H23075   3.389  13.024   2.206  1.3385  2.7892  0.4673
  175MOL0     H23076   3.119  13.193   2.178  0.6226  1.2392  0.8643
  175MOL0     H23077   3.198  13.106   2.051  0.2531  1.1406 -1.1725
  175MOL0     H23078   3.308  13.350   2.173  0.3664 -0.4726  0.2879
  175MOL0     H23079   3.418  13.244   2.095  1.2351  2.1616  1.0847
  175MOL0     H23080   3.161  13.363   1.983 -0.6835 -1.2537  2.4837
  175MOL0     H23081   3.278  13.272   1.886  2.2788  0.2374  0.8226
  175MOL0     H23082   3.448  12.635   2.727 -2.1685 -3.0834  4.7060
  175MOL0     H23083   3.590  12.513   2.885 -1.0181 -0.4827  1.9590
  175MOL0     H23084   3.622  12.434   3.421 -0.7957 -0.8854 -0.4947
  175MOL0     H23085   3.730  12.234   3.527 -0.8055  1.4506 -0.3826
  175MOL0     H23086   4.157  10.537   2.605 -1.4572 -0.2174 -0.2161
  175MOL0     H23087   4.168  10.327   2.504  2.3926 -1.8135  0.6267
  175MOL0     H23088   4.045   9.972   2.392  0.5283  0.9205  0.5803
  175MOL0     H23089   4.049   9.789   2.230  0.9475  0.7590 -0.5326
  175MOL0     H23090   4.170   9.353   2.361  1.0041 -0.3001  0.5618
  175MOL0     H23091   4.320   9.454   2.354 -0.0209 -0.3178  1.1367
  175MOL0     H23092   4.162   9.305   2.126 -0.3608 -0.3880  0.0429
  175MOL0     H23093   4.288   9.434   2.097 -0.9037  1.7828  0.2172
  175MOL0     H23094   4.346   9.185   2.254 -3.9023 -1.0582 -1.4336
  175MOL0     H23095   4.456   9.321   2.203 -0.5171  1.4400 -1.3380
  175MOL0     H23096   4.490   9.122   2.062  0.5648  1.3375  1.1410
  175MOL0     H23097   4.323   9.110   2.005  3.4720 -3.2089 -1.5163
  175MOL0     H23098   4.472   9.403   1.755  1.7067 -1.8529 -1.3909
  175MOL0     H23099   4.203   9.534   2.536 -1.8915 -1.1994 -1.2069
  175MOL0     H23100   4.178   9.718   2.705 -3.2409  0.6668  0.8689
  176MOL0     O23101   5.953   3.406  11.401 -0.0547  0.2459  0.0667
  176MOL0     C23102   6.058   3.475  11.400 -0.6358 -1.0569  0.3866
  176MOL0     O23103   6.140   3.497  11.290 -0.1998  0.3453 -0.5813
  176MOL0     C23104   6.079   3.467  11.162 -0.3444  0.4573  0.1790
  176MOL0     C23105   6.065   3.569  11.073  0.1576 -0.0053  0.1685
  176MOL0     C23106   6.024   3.552  10.943  0.7272 -0.8387  0.7813
  176MOL0     C23107   5.983   3.433  10.887  0.1707  0.5680 -0.0686
  176MOL0     O23108   5.948   3.405  10.753  0.1345  0.6771 -0.1029
  176MOL0     C23109   5.920   3.516  10.665 -0.3923  0.7508 -0.0858
  176MOL0     C23110   5.879   3.444  10.532 -0.2847 -1.0561  0.6052
  176MOL0     C23111   5.733   3.387  10.550 -0.6149 -0.3931  0.7890
  176MOL0     C23112   5.705   3.325  10.412  1.2112 -0.3236  0.0564
  176MOL0     C23113   5.572   3.243  10.407  0.6755  0.5169 -0.6190
  176MOL0     C23114   5.448   3.325  10.468 -0.8463  0.4367  0.0325
  176MOL0     C23115   5.316   3.243  10.462  0.1405  0.1185  0.0424
  176MOL0     C23116   5.209   3.333  10.524 -0.7394 -0.2732  0.4448
  176MOL0     N23117   5.070   3.278  10.498 -0.1412 -0.6367 -0.2927
  176MOL0     C23118   5.009   3.305  10.374  0.9685 -0.0961  1.2095
  176MOL0     C23119   4.897   3.226  10.379 -0.6878  0.8827 -0.2765
  176MOL0     C23120   4.787   3.211  10.276 -0.6101 -0.3707  1.3317
  176MOL0     C23121   4.663   3.300  10.311 -0.3927  0.0549 -0.2626
  176MOL0     C23122   4.616   3.300  10.453  0.7967  0.3752 -0.6480
  176MOL0     C23123   4.472   3.356  10.481  0.2968 -0.5581  0.2135
  176MOL0     O23124   4.428   3.321  10.615 -0.7670  0.5404 -0.0247
  176MOL0     C23125   4.295   3.344  10.642 -0.0546  0.5312 -0.6160
  176MOL0     C23126   4.238   3.301  10.769 -0.6470  0.7575 -0.4936
  176MOL0     C23127   4.101   3.311  10.791 -0.9733 -0.2512 -0.4041
  176MOL0     C23128   4.019   3.386  10.702  0.1142  0.5521 -0.0134
  176MOL0     C23129   3.873   3.407  10.726  0.8243  0.2563  0.1093
  176MOL0     O23130   3.823   3.511  10.658  0.6761  0.2189 -0.2020
  176MOL0     C23131   3.694   3.546  10.673  0.1849  0.3304 -0.1192
  176MOL0     C23132   3.657   3.616  10.784  0.0078 -1.2050 -0.2482
  176MOL0     C23133   3.523   3.660  10.799 -0.8426  0.1170 -0.7341
  176MOL0     C23134   3.436   3.652  10.704 -0.1935 -0.3898  0.2519
  176MOL0     O23135   3.314   3.705  10.706  0.2858 -0.4827  0.3234
  176MOL0     C23136   3.245   3.706  10.835  0.4806 -0.9270  0.1189
  176MOL0     C23137   3.190   3.570  10.875 -0.9699  0.1703  0.5235
  176MOL0     C23138   3.067   3.582  10.966 -0.0295  0.6225  1.1441
  176MOL0     C23139   3.030   3.431  10.983  1.6387 -1.1200  0.5595
  176MOL0     C23140   2.898   3.420  11.050  1.1832  0.6381  0.3175
  176MOL0     C23141   2.822   3.299  10.997  0.4423 -0.1234 -0.4844
  176MOL0     C23142   2.866   3.167  11.045  1.2611 -0.0622  0.0561
  176MOL0     C23143   2.892   3.134  11.190 -0.2562 -0.3772  0.6601
  176MOL0    Cl23144   2.757   3.189  11.299 -0.2217  1.0087  0.8068
  176MOL0     C23145   3.478   3.597  10.586  0.4575 -0.1709 -0.7545
  176MOL0     C23146   3.608   3.554  10.566 -0.2694  0.0395  0.7433
  176MOL0     O23147   3.814   3.333  10.811  0.2146  0.0188 -0.0494
  176MOL0     C23148   4.074   3.429  10.590  1.0060  0.0759  0.8658
  176MOL0     C23149   4.208   3.415  10.557 -0.5761  0.1158 -0.4962
  176MOL0     N23150   4.897   3.154  10.498  0.6255 -0.1463  0.0795
  176MOL0     N23151   4.997   3.190  10.566  0.2286 -0.3910 -0.5193
  176MOL0     C23152   5.984   3.327  10.986 -0.6683  0.1086  0.0886
  176MOL0     C23153   6.036   3.344  11.114 -0.5123 -0.4909 -0.7428
  176MOL0     C23154   6.107   3.546  11.521 -1.1917 -0.2605 -0.3314
  176MOL0     C23155   6.045   3.514  11.645 -0.6822 -0.1464  0.3558
  176MOL0     C23156   6.088   3.560  11.771  0.2926  0.6221  1.1197
  176MOL0     C23157   6.195   3.657  11.764 -0.3479  1.0386  0.3846
  176MOL0     O23158   6.245   3.735  11.866 -0.3051  0.0669  0.3870
  176MOL0     C23159   6.233   3.667  12.000  0.0656 -0.4240  0.1223
  176MOL0     C23160   6.290   3.762  12.098 -0.5135 -0.8514 -0.1043
  176MOL0     C23161   6.447   3.744  12.118  0.4563 -0.3765  0.4304
  176MOL0     C23162   6.499   3.861  12.203  0.3065 -0.3546 -0.5044
  176MOL0     C23163   6.639   3.837  12.225  0.7177 -0.5960  0.0254
  176MOL0     C23164   6.758   3.838  12.246  0.3426  0.0623 -0.6081
  176MOL0     C23165   6.230   3.703  11.635  0.3998 -0.1663  0.1715
  176MOL0     C23166   6.204   3.639  11.518  1.2238 -0.1284  0.2377
  176MOL0     H23167   6.115   3.660  11.104  0.0069 -0.3210  1.4160
  176MOL0     H23168   6.030   3.634  10.872 -0.3470 -2.1016 -0.8532
  176MOL0     H23169   6.006   3.581  10.644 -0.0247  0.7074  1.1768
  176MOL0     H23170   5.839   3.585  10.691  0.5999  2.6092 -1.7234
  176MOL0     H23171   5.942   3.360  10.502 -2.0704 -2.3092  0.1550
  176MOL0     H23172   5.880   3.512  10.447 -0.8215  0.0490  1.4617
  176MOL0     H23173   5.657   3.465  10.563 -0.2468  0.2591 -0.7451
  176MOL0     H23174   5.709   3.326  10.637 -2.2426 -1.6246 -0.4676
  176MOL0     H23175   5.699   3.411  10.345 -1.9385 -1.4016 -1.2620
  176MOL0     H23176   5.780   3.249  10.387  4.3362  0.0339  6.4051
  176MOL0     H23177   5.593   3.154  10.467  0.6867  1.2530  0.4886
  176MOL0     H23178   5.541   3.209  10.308  2.8187 -0.0716 -1.1415
  176MOL0     H23179   5.434   3.415  10.409  0.6527  0.4801 -0.3105
  176MOL0     H23180   5.461   3.348  10.574 -2.2546  1.3543  0.0338
  176MOL0     H23181   5.294   3.210  10.359  0.6826  3.9491 -1.4707
  176MOL0     H23182   5.316   3.155  10.526 -2.1852 -1.3126 -1.7568
  176MOL0     H23183   5.217   3.429  10.471  0.8532 -1.2510 -1.1828
  176MOL0     H23184   5.222   3.346  10.632 -3.7744 -3.0513  1.2879
  176MOL0     H23185   5.042   3.370  10.294  3.3035 -4.9057 -2.3086
  176MOL0     H23186   4.760   3.105  10.274  1.8481 -1.0514  0.6967
  176MOL0     H23187   4.819   3.233  10.174 -4.1288 -1.9320 -0.2922
  176MOL0     H23188   4.582   3.259  10.250  2.2724 -6.3988 -0.3374
  176MOL0     H23189   4.686   3.405  10.292 -1.9863  0.5676  0.4876
  176MOL0     H23190   4.616   3.202  10.502 -0.9604  2.5196  4.2789
  176MOL0     H23191   4.681   3.366  10.511  0.9948  1.2746 -1.8453
  176MOL0     H23192   4.406   3.305  10.411 -0.6527  1.7456 -0.6902
  176MOL0     H23193   4.475   3.465  10.469  0.3552 -0.3620  1.7419
  176MOL0     H23194   4.302   3.246  10.837 -2.5581 -0.7938  0.1252
  176MOL0     H23195   4.041   3.268  10.870 -0.9344 -2.8820 -1.7016
  176MOL0     H23196   3.732   3.630  10.862 -0.5754  0.0256  0.1173
  176MOL0     H23197   3.495   3.709  10.892 -0.9918  1.0803 -1.2777
  176MOL0     H23198   3.162   3.777  10.824  0.3187 -0.1761  4.4348
  176MOL0     H23199   3.299   3.758  10.914 -1.9451 -0.5097  1.5786
  176MOL0     H23200   3.272   3.509  10.913  1.6160  2.4135 -1.0779
  176MOL0     H23201   3.163   3.513  10.785  0.1317 -0.6046  0.6609
  176MOL0     H23202   2.984   3.617  10.904 -0.5973 -2.8192 -0.2552
  176MOL0     H23203   3.075   3.639  11.059 -1.1813  0.8850  1.1017
  176MOL0     H23204   3.027   3.387  10.882 -0.9201  1.7898 -0.7969
  176MOL0     H23205   3.102   3.371  11.039  2.5402 -1.4648 -0.8927
  176MOL0     H23206   2.840   3.511  11.033  1.2711  1.3731  3.4218
  176MOL0     H23207   2.916   3.423  11.158  1.0495 -1.2754  0.4320
  176MOL0     H23208   2.814   3.297  10.888  3.7076  0.0714 -0.8189
  176MOL0     H23209   2.720   3.308  11.036  1.0278  0.4180  1.0213
  176MOL0     H23210   2.790   3.095  11.014  1.0267  0.1836  0.0616
  176MOL0     H23211   2.951   3.145  10.979 -0.5703 -1.4280 -2.0018
  176MOL0     H23212   2.978   3.201  11.202 -0.6112  0.7556 -2.4208
  176MOL0     H23213   2.918   3.030  11.212 -0.6936 -0.7288 -0.4380
  176MOL0     H23214   3.414   3.578  10.501 -0.3623  0.3477 -0.2755
  176MOL0     H23215   3.635   3.501  10.475  0.9957 -2.5157  2.4804
  176MOL0     H23216   4.022   3.486  10.513  1.3124 -0.0699  0.5430
  176MOL0     H23217   4.241   3.463  10.465  1.1286  0.0856  0.0553
  176MOL0     H23218   5.938   3.233  10.956 -0.3428  0.6224 -2.1414
  176MOL0     H23219   6.040   3.256  11.178  0.4400 -0.6514 -1.0134
  176MOL0     H23220   5.965   3.439  11.644  1.3297 -2.4900  2.2190
  176MOL0     H23221   6.034   3.528  11.859 -1.7593  2.7020  0.7128
  176MOL0     H23222   6.286   3.572  12.015 -2.5600 -1.7058  2.1588
  176MOL0     H23223   6.126   3.654  12.017 -0.5447  1.2632 -2.0052
  176MOL0     H23224   6.266   3.865  12.069 -0.4078 -1.2035 -1.5450
  176MOL0     H23225   6.236   3.737  12.190  0.4123  0.2660  0.7703
  176MOL0     H23226   6.493   3.753  12.020 -0.8336  1.2252 -0.0698
  176MOL0     H23227   6.457   3.640  12.150  0.6375 -0.4129  0.2562
  176MOL0     H23228   6.489   3.954  12.146 -0.3403 -0.5194 -0.6777
  176MOL0     H23229   6.437   3.873  12.292  1.0523  0.1044 -0.0442
  176MOL0     H23230   6.863   3.833  12.266  0.3739  3.1813  0.5827
  176MOL0     H23231   6.306   3.780  11.630  0.8852 -0.7121 -2.4453
  176MOL0     H23232   6.249   3.673  11.425  1.3082  2.4206  1.1345
  177MOL0     O23233   7.745  10.228   0.571  0.2822 -0.6173 -1.0595
  177MOL0     C23234   7.659  10.153   0.609 -0.2797  1.2026  0.5334
  177MOL0     O23235   7.534  10.178   0.640 -0.7081  0.0525 -0.0574
  177MOL0     C23236   7.481  10.292   0.588 -0.1465 -0.4030  0.1234
  177MOL0     C23237   7.465  10.304   0.445 -0.4370 -0.2565  0.2705
  177MOL0     C23238   7.410  10.423   0.391  1.0064  0.3038 -0.0336
  177MOL0     C23239   7.392  10.535   0.464  0.4928  0.6945 -0.6406
  177MOL0     O23240   7.367  10.646   0.394 -0.1172 -0.4455 -0.5787
  177MOL0     C23241   7.225  10.676   0.376 -0.4437  0.7600 -0.2246
  177MOL0     C23242   7.202  10.790   0.476 -0.0047 -0.3355 -0.5856
  177MOL0     C23243   7.057  10.851   0.465 -0.0650 -0.4970 -0.6988
  177MOL0     C23244   7.046  10.974   0.543  0.3512 -0.7066 -0.1431
  177MOL0     C23245   6.906  11.042   0.504 -0.1182 -0.6899 -0.6449
  177MOL0     C23246   6.807  11.016   0.615  0.7808 -0.9588 -0.1427
  177MOL0     C23247   6.669  11.076   0.586 -0.2637 -0.0984 -0.8275
  177MOL0     C23248   6.584  11.060   0.714 -0.0518  0.1426 -0.6111
  177MOL0     N23249   6.442  11.090   0.691 -0.1608  0.0356 -1.0405
  177MOL0     C23250   6.400  11.217   0.673  0.4486 -0.0182 -0.4825
  177MOL0     C23251   6.271  11.206   0.648  0.4182  0.0170 -0.6640
  177MOL0     C23252   6.189  11.317   0.581  0.6205 -0.3429  0.5062
  177MOL0     C23253   6.174  11.446   0.663 -0.6656  0.0168  0.5740
  177MOL0     C23254   6.054  11.524   0.599 -0.0383 -0.0902 -0.4949
  177MOL0     C23255   6.029  11.656   0.668  0.2558 -0.1295  0.7680
  177MOL0     O23256   5.965  11.659   0.796  0.5342  0.4885  0.1741
  177MOL0     C23257   5.834  11.616   0.818  0.7603  0.7564  0.4412
  177MOL0     C23258   5.737  11.595   0.721 -1.8713 -0.4376  0.2798
  177MOL0     C23259   5.601  11.554   0.755  0.0292  0.0783  0.3536
  177MOL0     C23260   5.574  11.531   0.895 -1.5229  0.2999 -0.0539
  177MOL0     C23261   5.433  11.489   0.930 -0.0507  0.4235 -0.0563
  177MOL0     O23262   5.356  11.420   0.832 -0.4162 -0.6593 -0.7199
  177MOL0     C23263   5.216  11.405   0.846  1.0214 -0.1005 -0.7087
  177MOL0     C23264   5.141  11.469   0.939  0.6935 -0.3394 -0.5712
  177MOL0     C23265   4.993  11.466   0.946  0.3830 -0.5490 -0.5489
  177MOL0     C23266   4.924  11.389   0.846 -0.6630 -0.9203  0.0645
  177MOL0     O23267   4.786  11.372   0.831 -1.2966  0.0740 -0.5775
  177MOL0     C23268   4.691  11.429   0.927  0.5222  0.9777 -0.4390
  177MOL0     C23269   4.655  11.579   0.898  0.6794  1.5748 -0.7656
  177MOL0     C23270   4.639  11.609   0.758 -0.4055  0.2844  0.8207
  177MOL0     C23271   4.535  11.519   0.694  1.1927 -0.7047  0.2210
  177MOL0     C23272   4.534  11.561   0.542  0.1733  0.8890  0.6804
  177MOL0     C23273   4.423  11.476   0.467 -0.5212  0.1062  0.9186
  177MOL0     C23274   4.284  11.500   0.531 -0.1903  0.2974 -0.6400
  177MOL0     C23275   4.168  11.440   0.444  0.8641 -0.2965 -0.6060
  177MOL0    Cl23276   4.009  11.435   0.526 -0.2234 -0.4925  0.0039
  177MOL0     C23277   5.005  11.317   0.763 -0.0483  0.4803 -0.3360
  177MOL0     C23278   5.141  11.330   0.757  0.5303  0.4308 -0.9924
  177MOL0     O23279   5.397  11.519   1.045 -0.2322  0.1181  0.8898
  177MOL0     C23280   5.675  11.569   1.002 -0.5929 -0.3932 -0.5719
  177MOL0     C23281   5.806  11.606   0.952  0.9958 -0.3680 -0.9453
  177MOL0     N23282   6.234  11.067   0.652 -0.0468 -0.6032  0.3123
  177MOL0     N23283   6.340  11.001   0.680 -0.6427 -0.0034 -0.2973
  177MOL0     C23284   7.415  10.526   0.601 -2.1493 -0.3241 -0.5497
  177MOL0     C23285   7.452  10.411   0.661 -0.0045  0.4539 -0.1743
  177MOL0     C23286   7.698  10.004   0.613 -0.6545 -0.1702 -0.6042
  177MOL0     C23287   7.603   9.901   0.633 -0.2835  0.0546  1.5919
  177MOL0     C23288   7.646   9.764   0.648  0.1571 -0.5364 -0.1712
  177MOL0     C23289   7.782   9.735   0.642 -0.6028  0.7708  0.1951
  177MOL0     O23290   7.805   9.596   0.663 -0.1272 -0.0109 -0.0043
  177MOL0     C23291   7.932   9.536   0.644 -1.1667 -1.4885 -0.6421
  177MOL0     C23292   7.911   9.432   0.533 -0.4877 -0.4504  0.8595
  177MOL0     C23293   7.898   9.503   0.403 -0.3122  1.2191  0.1323
  177MOL0     C23294   7.905   9.394   0.298  0.2332  0.2784 -0.2986
  177MOL0     C23295   7.873   9.449   0.166 -1.3853  0.0937  0.1302
  177MOL0     C23296   7.842   9.500   0.062  0.0332 -0.1136 -0.0821
  177MOL0     C23297   7.877   9.834   0.605  0.1101 -0.0163  0.9793
  177MOL0     C23298   7.833   9.966   0.609  0.2043  0.1565 -0.2576
  177MOL0     H23299   7.501  10.216   0.392  2.8101  0.8150  0.4879
  177MOL0     H23300   7.386  10.417   0.286  0.7372 -1.4658  0.0881
  177MOL0     H23301   7.164  10.589   0.404  1.4477  0.8095  5.1674
  177MOL0     H23302   7.192  10.709   0.277  1.3814 -2.0268 -1.9015
  177MOL0     H23303   7.272  10.866   0.442 -0.5138  0.1657 -0.5433
  177MOL0     H23304   7.230  10.763   0.578 -0.1033  1.0407 -0.1825
  177MOL0     H23305   6.993  10.781   0.520  0.1991  0.7439  1.3251
  177MOL0     H23306   7.027  10.869   0.362 -0.4083  3.5588 -0.0593
  177MOL0     H23307   7.052  10.953   0.650  0.4554 -2.4227 -0.4532
  177MOL0     H23308   7.122  11.051   0.526  0.1126  0.1662  2.3780
  177MOL0     H23309   6.866  11.014   0.406  0.6656 -1.6691 -0.6929
  177MOL0     H23310   6.928  11.149   0.491  0.5495 -0.9075 -1.3082
  177MOL0     H23311   6.850  11.069   0.701  1.1708 -1.4942 -0.0036
  177MOL0     H23312   6.803  10.908   0.630  0.3568 -0.7485  1.4595
  177MOL0     H23313   6.665  11.182   0.558  1.4313  0.8113  1.9669
  177MOL0     H23314   6.628  11.000   0.519 -1.9899  0.3022 -0.2743
  177MOL0     H23315   6.629  11.117   0.796 -0.2927 -2.1105  1.1870
  177MOL0     H23316   6.581  10.953   0.736 -1.5401  0.2266 -0.3387
  177MOL0     H23317   6.470  11.297   0.652  0.4469  0.9388  2.6196
  177MOL0     H23318   6.086  11.286   0.563  0.3343 -1.8730  3.9102
  177MOL0     H23319   6.243  11.354   0.493 -0.2846  0.4623  0.2783
  177MOL0     H23320   6.270  11.498   0.663 -0.7739  0.2188  0.1849
  177MOL0     H23321   6.148  11.414   0.765  1.0967 -1.3779  0.6109
  177MOL0     H23322   6.085  11.556   0.499  1.3517  1.6073  0.4122
  177MOL0     H23323   5.963  11.464   0.599 -0.3824  0.3936 -1.8773
  177MOL0     H23324   5.974  11.725   0.603  1.5434  2.0415  1.8663
  177MOL0     H23325   6.121  11.715   0.670 -0.3139  0.8090  3.6728
  177MOL0     H23326   5.760  11.607   0.615 -5.2365 -0.7153 -0.6024
  177MOL0     H23327   5.535  11.537   0.671  1.0369 -3.9481  0.1653
  177MOL0     H23328   5.175  11.525   1.025  3.4580 -0.0316 -1.7661
  177MOL0     H23329   4.929  11.518   1.017 -1.3635 -1.7369 -1.1844
  177MOL0     H23330   4.716  11.416   1.033 -0.1933 -4.0037 -0.6164
  177MOL0     H23331   4.599  11.374   0.905  0.5428  0.9731 -0.5115
  177MOL0     H23332   4.725  11.650   0.941  1.9362  1.0902 -1.9433
  177MOL0     H23333   4.559  11.597   0.948 -0.9226 -0.3683 -2.8826
  177MOL0     H23334   4.736  11.596   0.710 -1.8835 -1.7982 -1.9107
  177MOL0     H23335   4.612  11.713   0.740 -1.0026  0.2421  1.4013
  177MOL0     H23336   4.539  11.411   0.709 -2.3016 -1.0724 -0.6540
  177MOL0     H23337   4.441  11.547   0.743  1.2077  0.4450 -0.3639
  177MOL0     H23338   4.631  11.544   0.494  0.0077  0.6006  0.4459
  177MOL0     H23339   4.511  11.667   0.532 -1.3584  0.4797 -0.3908
  177MOL0     H23340   4.454  11.372   0.454  3.6297  1.1799  0.8750
  177MOL0     H23341   4.415  11.512   0.364 -0.9506  5.3566  2.4916
  177MOL0     H23342   4.277  11.441   0.623 -1.4285  0.9441 -0.2981
  177MOL0     H23343   4.265  11.606   0.552 -0.7315 -0.3319  2.6443
  177MOL0     H23344   4.194  11.340   0.409 -0.6270 -0.9178 -0.0461
  177MOL0     H23345   4.156  11.503   0.356  1.3153 -2.9677 -2.7183
  177MOL0     H23346   4.955  11.246   0.698  2.3116 -1.1116 -0.5762
  177MOL0     H23347   5.203  11.275   0.687  5.2876  1.8551  1.5803
  177MOL0     H23348   5.661  11.570   1.110  2.0800  3.4455 -0.0688
  177MOL0     H23349   5.879  11.631   1.028 -0.8085 -0.1401  0.7865
  177MOL0     H23350   7.399  10.614   0.662  0.9058  1.5702 -2.2241
  177MOL0     H23351   7.464  10.419   0.768 -0.5704  0.2237 -0.0887
  177MOL0     H23352   7.497   9.924   0.625 -0.2132 -0.0551  0.0488
  177MOL0     H23353   7.573   9.683   0.651  0.6257 -0.9422  0.8576
  177MOL0     H23354   7.979   9.508   0.739 -1.2356 -0.7494 -0.3800
  177MOL0     H23355   8.007   9.607   0.609 -0.5695 -1.1623  1.1798
  177MOL0     H23356   7.999   9.368   0.523 -0.5516 -0.2986 -0.9137
  177MOL0     H23357   7.831   9.360   0.553  0.3554 -1.1747  1.7558
  177MOL0     H23358   7.982   9.570   0.384  2.2336 -1.4896  0.9509
  177MOL0     H23359   7.803   9.558   0.401 -1.2431 -0.3468 -1.5136
  177MOL0     H23360   8.004   9.349   0.309 -1.2889 -2.8925  2.0740
  177MOL0     H23361   7.837   9.310   0.318  1.1056 -0.4287 -0.2303
  177MOL0     H23362   7.824   9.545  -0.033  2.2288 -0.2031 -0.5930
  177MOL0     H23363   7.983   9.814   0.593 -0.6030 -3.3978 -1.2919
  177MOL0     H23364   7.910  10.041   0.622 -1.1028  1.3153  1.1072
  178MOL0     O23365  11.288   7.544   8.732  0.9023 -0.2585  0.0627
  178MOL0     C23366  11.244   7.443   8.677 -0.0308 -0.6858 -0.2344
  178MOL0     O23367  11.309   7.375   8.574  0.0794  1.2185 -0.0904
  178MOL0     C23368  11.404   7.437   8.501  0.1424 -0.3922  0.3334
  178MOL0     C23369  11.518   7.480   8.561 -0.3870 -0.3482  0.2517
  178MOL0     C23370  11.615   7.547   8.492 -0.1158 -0.5695 -1.0917
  178MOL0     C23371  11.594   7.577   8.356  0.2969  0.4223  0.7938
  178MOL0     O23372  11.703   7.650   8.307  0.1872 -0.2196 -0.8367
  178MOL0     C23373  11.712   7.681   8.167  0.1654  0.3917 -0.5354
  178MOL0     C23374  11.734   7.546   8.091 -0.5786 -0.9675 -0.2869
  178MOL0     C23375  11.764   7.585   7.944  1.1353  0.1564  0.7767
  178MOL0     C23376  11.737   7.460   7.850 -0.9645  0.7038 -0.2080
  178MOL0     C23377  11.764   7.498   7.705 -1.3687 -0.6739  0.1400
  178MOL0     C23378  11.919   7.495   7.678  0.5383 -0.9239  0.2762
  178MOL0     C23379  11.962   7.575   7.545 -0.7107  0.0572 -0.4190
  178MOL0     C23380  12.106   7.553   7.512 -0.7996 -0.0365  0.7247
  178MOL0     N23381  12.149   7.606   7.380 -1.0670  0.6800  0.1072
  178MOL0     C23382  12.265   7.581   7.304 -0.1086 -0.0954  0.3002
  178MOL0     C23383  12.257   7.672   7.204 -0.0121  0.6654  0.0409
  178MOL0     C23384  12.370   7.709   7.112  0.8053  0.5668  0.2140
  178MOL0     C23385  12.432   7.818   7.189  1.0250  0.0071  0.7144
  178MOL0     C23386  12.568   7.858   7.132 -1.3700 -0.9566 -0.0841
  178MOL0     C23387  12.567   7.919   6.986  1.0440  0.5942 -0.4567
  178MOL0     O23388  12.459   8.012   6.972 -0.0469 -0.2053  0.3040
  178MOL0     C23389  12.424   8.046   6.844 -0.0968 -0.5934  0.6701
  178MOL0     C23390  12.294   8.111   6.826  0.2086  0.5666 -0.5705
  178MOL0     C23391  12.249   8.158   6.708  0.3626  0.8633  0.6650
  178MOL0     C23392  12.325   8.146   6.589 -0.6546  0.6721  0.2011
  178MOL0     C23393  12.281   8.206   6.462  0.5256 -0.2917 -0.3288
  178MOL0     O23394  12.145   8.223   6.457  0.4922 -0.3130  0.4695
  178MOL0     C23395  12.081   8.273   6.349 -0.5042 -0.0403  0.1316
  178MOL0     C23396  11.959   8.238   6.306  0.1335 -0.8493 -0.2478
  178MOL0     C23397  11.891   8.312   6.204 -0.3200  0.1345 -0.3067
  178MOL0     C23398  11.945   8.423   6.141  0.6241 -0.3612  0.5775
  178MOL0     O23399  11.886   8.486   6.038 -0.1038 -0.3831 -0.1961
  178MOL0     C23400  11.933   8.613   5.991 -0.8506  0.0702  0.6649
  178MOL0     C23401  11.825   8.668   5.905  0.8050  0.6245  0.0812
  178MOL0     C23402  11.795   8.577   5.785  0.2659  0.6169 -0.5568
  178MOL0     C23403  11.733   8.660   5.677  0.7905 -0.6031  0.4766
  178MOL0     C23404  11.663   8.580   5.567  1.1291  0.6568 -0.4918
  178MOL0     C23405  11.517   8.527   5.600 -0.1816 -0.0664  0.4057
  178MOL0     C23406  11.408   8.635   5.584  0.4663  0.7824 -0.0470
  178MOL0     C23407  11.277   8.572   5.537 -0.7547 -0.0264 -0.2252
  178MOL0    Cl23408  11.302   8.495   5.378 -0.4777  0.3681 -0.0170
  178MOL0     C23409  12.077   8.456   6.179  0.3090 -1.1848  0.0750
  178MOL0     C23410  12.144   8.376   6.274  1.0561  0.3261  1.2506
  178MOL0     O23411  12.355   8.212   6.362  0.1631  0.0546  0.2010
  178MOL0     C23412  12.455   8.083   6.600  0.0056  0.9991 -0.0779
  178MOL0     C23413  12.501   8.053   6.733 -0.0191  1.2714 -0.2610
  178MOL0     N23414  12.136   7.735   7.206 -0.2835 -1.1029 -0.6941
  178MOL0     N23415  12.079   7.702   7.316  0.2634  0.0266  0.2614
  178MOL0     C23416  11.482   7.527   8.297  0.0523 -0.4994  0.1797
  178MOL0     C23417  11.384   7.463   8.370 -0.0017 -0.8728 -0.2984
  178MOL0     C23418  11.133   7.378   8.745  0.0747 -0.1023 -0.4808
  178MOL0     C23419  11.099   7.248   8.700  0.1604 -0.0456 -0.0571
  178MOL0     C23420  11.009   7.166   8.769  0.5733  0.4306 -0.0086
  178MOL0     C23421  10.939   7.216   8.875  0.1440  0.1032  0.4768
  178MOL0     O23422  10.850   7.128   8.931 -0.3531 -0.2297 -0.0154
  178MOL0     C23423  10.902   7.034   9.026 -0.5672 -0.2753  0.3000
  178MOL0     C23424  10.801   7.006   9.142 -0.3061 -0.5949 -0.2066
  178MOL0     C23425  10.655   6.967   9.094  0.6405 -0.1073 -0.7194
  178MOL0     C23426  10.646   6.836   9.031 -0.0832  0.0662 -0.5325
  178MOL0     C23427  10.675   6.731   9.127  0.3611  0.2881 -0.7869
  178MOL0     C23428  10.681   6.641   9.215  0.1987 -0.4178  0.1167
  178MOL0     C23429  10.970   7.342   8.919  0.7892  0.1920  0.1018
  178MOL0     C23430  11.059   7.424   8.859  0.2998  1.7318 -1.0067
  178MOL0     H23431  11.536   7.471   8.668 -0.8661 -3.0120  0.1717
  178MOL0     H23432  11.705   7.577   8.545 -0.9116  0.2857 -0.1639
  178MOL0     H23433  11.790   7.757   8.156 -0.0110  0.7437  0.5772
  178MOL0     H23434  11.621   7.725   8.126 -1.0733 -2.0638 -0.5835
  178MOL0     H23435  11.647   7.481   8.081  0.4595 -2.2635 -1.2456
  178MOL0     H23436  11.818   7.488   8.129 -0.8152 -0.1641  1.5762
  178MOL0     H23437  11.867   7.619   7.929  0.4986  1.2920 -1.4272
  178MOL0     H23438  11.697   7.667   7.917 -0.3753 -0.1681  3.1957
  178MOL0     H23439  11.794   7.372   7.880  1.8518  1.2371 -3.4700
  178MOL0     H23440  11.634   7.422   7.853 -0.9228  0.4209 -1.6533
  178MOL0     H23441  11.738   7.604   7.698  1.7642  0.1996 -0.0500
  178MOL0     H23442  11.706   7.435   7.637 -1.9090 -0.1178  0.0735
  178MOL0     H23443  11.948   7.389   7.685 -3.3805 -2.0748  1.6845
  178MOL0     H23444  11.959   7.550   7.764  3.9948 -0.5587 -1.3872
  178MOL0     H23445  11.899   7.553   7.459  1.4267  0.8105 -2.2734
  178MOL0     H23446  11.953   7.682   7.567 -0.9771  0.1393 -0.9140
  178MOL0     H23447  12.124   7.446   7.524  0.6495  0.2197  0.9818
  178MOL0     H23448  12.172   7.598   7.587 -0.9166 -1.0259  1.4326
  178MOL0     H23449  12.345   7.508   7.314 -1.5855 -2.6164 -3.7793
  178MOL0     H23450  12.344   7.728   7.007  3.4081 -1.5548 -0.9361
  178MOL0     H23451  12.453   7.637   7.113  0.0967 -0.3084  2.6329
  178MOL0     H23452  12.460   7.797   7.293  1.8151 -2.8514  0.0118
  178MOL0     H23453  12.370   7.908   7.191  1.6133  0.4902 -0.8577
  178MOL0     H23454  12.591   7.943   7.196 -3.6020 -2.0058  2.2963
  178MOL0     H23455  12.643   7.783   7.159 -0.3468  0.1095  0.0896
  178MOL0     H23456  12.554   7.837   6.915 -0.1344  2.4854 -2.5689
  178MOL0     H23457  12.666   7.959   6.963  0.4961  1.7972 -0.8280
  178MOL0     H23458  12.233   8.110   6.916  2.4539  1.0054  1.0375
  178MOL0     H23459  12.155   8.210   6.721 -0.8120 -0.8531 -0.5850
  178MOL0     H23460  11.910   8.158   6.360 -2.6446  0.8061 -0.1002
  178MOL0     H23461  11.792   8.284   6.171  0.1988  1.1394 -3.0282
  178MOL0     H23462  12.029   8.595   5.943 -0.8793 -0.8094  0.9278
  178MOL0     H23463  11.960   8.691   6.063 -0.2419 -0.9996  1.6293
  178MOL0     H23464  11.864   8.768   5.884 -0.7787  0.8899 -1.9682
  178MOL0     H23465  11.729   8.680   5.956  0.5283 -0.0768 -0.2700
  178MOL0     H23466  11.741   8.486   5.812  0.5685  0.2568 -1.1408
  178MOL0     H23467  11.894   8.537   5.762  0.4743  0.1512  1.0414
  178MOL0     H23468  11.664   8.732   5.721  0.7927 -0.9174  1.0054
  178MOL0     H23469  11.813   8.718   5.631 -1.2964  0.2310 -2.4173
  178MOL0     H23470  11.725   8.493   5.542  1.7782  0.9333  0.1050
  178MOL0     H23471  11.648   8.640   5.477 -2.6176 -0.8744 -1.0402
  178MOL0     H23472  11.520   8.491   5.703 -3.0328  0.9613  0.9401
  178MOL0     H23473  11.495   8.436   5.544  2.2953 -1.2383  1.2035
  178MOL0     H23474  11.374   8.676   5.679 -1.2309  0.4119 -0.4619
  178MOL0     H23475  11.446   8.721   5.529  1.0911 -0.4683 -1.6362
  178MOL0     H23476  11.205   8.654   5.526  1.2303  1.8673  0.2137
  178MOL0     H23477  11.236   8.504   5.613  1.0611 -1.1362 -0.1819
  178MOL0     H23478  12.134   8.542   6.148 -1.2174 -0.7479 -1.6820
  178MOL0     H23479  12.249   8.400   6.291  2.3358 -0.5566 -3.9064
  178MOL0     H23480  12.514   8.091   6.510 -1.1380  0.5250 -0.9051
  178MOL0     H23481  12.609   8.057   6.736  0.1559  3.4760 -3.5835
  178MOL0     H23482  11.470   7.540   8.190 -2.7478  1.1540  0.6010
  178MOL0     H23483  11.294   7.444   8.313 -0.2286  2.5614 -1.3306
  178MOL0     H23484  11.136   7.211   8.605 -4.2137 -2.8553 -0.9465
  178MOL0     H23485  10.984   7.073   8.719 -1.7770  1.1363 -0.2613
  178MOL0     H23486  10.991   7.081   9.070 -2.1846  1.0488  2.3094
  178MOL0     H23487  10.923   6.939   8.976 -2.5287 -0.7487  0.3045
  178MOL0     H23488  10.845   6.934   9.212  1.3701  1.1812  0.6453
  178MOL0     H23489  10.792   7.103   9.191 -1.7922 -0.3568 -0.9039
  178MOL0     H23490  10.617   7.033   9.016 -1.3222  1.6357  1.5608
  178MOL0     H23491  10.596   6.981   9.185  1.5256  1.7137 -0.3930
  178MOL0     H23492  10.546   6.814   8.993 -0.6006  1.5557 -0.0805
  178MOL0     H23493  10.726   6.823   8.958  1.4055 -0.0024  1.0342
  178MOL0     H23494  10.681   6.584   9.306 -1.8249 -2.4607 -1.0450
  178MOL0     H23495  10.909   7.380   9.001  0.4681 -0.4706  0.1752
  178MOL0     H23496  11.076   7.522   8.903  0.6075  1.3809 -0.3304
  179MOL0     O23497   5.592  10.484   6.665  0.6587  0.3502  0.5104
  179MOL0     C23498   5.622  10.369   6.684  0.8026  1.2880 -0.6288
  179MOL0     O23499   5.710  10.331   6.786 -1.0935 -0.2173 -0.0685
  179MOL0     C23500   5.782  10.431   6.846 -0.9363  0.3889  0.9258
  179MOL0     C23501   5.906  10.461   6.787 -0.0640  0.2524 -0.4831
  179MOL0     C23502   5.990  10.556   6.834  0.5659 -0.3188 -0.2508
  179MOL0     C23503   5.949  10.628   6.955  0.2303 -0.4656 -0.1584
  179MOL0     O23504   6.032  10.726   7.000  0.2655  0.0667  0.5675
  179MOL0     C23505   5.978  10.837   7.074 -0.3224 -0.4850  0.3690
  179MOL0     C23506   5.902  10.929   6.972  0.3776  0.2139  1.2215
  179MOL0     C23507   5.826  11.040   7.045 -0.4369 -0.2883 -0.0828
  179MOL0     C23508   5.930  11.134   7.102 -0.3888 -0.2854 -0.2818
  179MOL0     C23509   5.997  11.217   6.994  0.7493  1.2111  0.6511
  179MOL0     C23510   6.068  11.337   7.065  0.3820  0.0903 -0.3902
  179MOL0     C23511   6.135  11.451   6.983  0.7227  0.5393 -0.1337
  179MOL0     C23512   6.232  11.530   7.062  0.0124  0.0068 -0.2825
  179MOL0     N23513   6.305  11.623   6.967  0.3628 -0.1315  0.1599
  179MOL0     C23514   6.441  11.639   6.950  0.6853  0.4311 -0.2983
  179MOL0     C23515   6.448  11.711   6.835  0.6843  0.1185  1.2049
  179MOL0     C23516   6.578  11.776   6.780 -0.2892  0.4229 -0.2776
  179MOL0     C23517   6.584  11.930   6.786 -0.7170 -0.2748 -1.1024
  179MOL0     C23518   6.727  11.981   6.765  0.5759  0.4765  0.2613
  179MOL0     C23519   6.798  12.012   6.891  0.1497 -0.1404  0.0404
  179MOL0     O23520   6.853  11.896   6.952 -0.5589  0.0591  0.2173
  179MOL0     C23521   6.897  11.906   7.084  0.4734  0.6734  1.4036
  179MOL0     C23522   6.898  12.025   7.154 -0.9710 -0.2419 -0.5134
  179MOL0     C23523   6.946  12.019   7.293  0.2503  0.7442 -0.1837
  179MOL0     C23524   6.993  11.897   7.350 -0.6928 -0.2024 -0.4499
  179MOL0     C23525   7.039  11.896   7.493 -0.8730 -0.1294 -0.6608
  179MOL0     O23526   7.059  11.769   7.548  0.0022 -0.5603 -0.8726
  179MOL0     C23527   7.087  11.741   7.681 -0.4386  0.0542 -0.6617
  179MOL0     C23528   7.113  11.837   7.792  0.1657  0.4220  0.6220
  179MOL0     C23529   7.136  11.783   7.919  0.5432 -0.5812  0.0195
  179MOL0     C23530   7.126  11.649   7.950  0.2824 -0.1208  0.3183
  179MOL0     O23531   7.126  11.595   8.078  0.6359 -0.0141 -0.6499
  179MOL0     C23532   7.228  11.641   8.166  0.6440  0.5244 -1.5317
  179MOL0     C23533   7.250  11.550   8.275  0.7389  0.2669  0.2090
  179MOL0     C23534   7.352  11.603   8.383  0.0357 -0.5425  0.6959
  179MOL0     C23535   7.368  11.524   8.510  0.0736 -0.1238 -0.2700
  179MOL0     C23536   7.448  11.596   8.627  0.0829 -0.2809 -0.1229
  179MOL0     C23537   7.581  11.644   8.582 -0.5184  0.7647 -0.3413
  179MOL0     C23538   7.635  11.735   8.696 -0.5046  0.2515 -1.2509
  179MOL0     C23539   7.771  11.793   8.655 -0.1936  0.2393 -0.3212
  179MOL0    Cl23540   7.901  11.668   8.647  0.1518  0.6667  0.1368
  179MOL0     C23541   7.089  11.563   7.839 -0.3590 -0.0755 -0.2242
  179MOL0     C23542   7.078  11.605   7.712 -0.1884  0.6480  0.1457
  179MOL0     O23543   7.036  12.002   7.555  0.0889  0.2233 -0.4030
  179MOL0     C23544   6.979  11.777   7.274 -0.1249  0.1435 -0.1685
  179MOL0     C23545   6.929  11.784   7.147 -0.3984  0.2999 -0.0241
  179MOL0     N23546   6.324  11.733   6.789 -0.1614  0.1408 -0.1470
  179MOL0     N23547   6.242  11.699   6.878 -0.3328  0.2753  0.1653
  179MOL0     C23548   5.827  10.601   7.017 -0.1896  0.5009  0.1713
  179MOL0     C23549   5.749  10.494   6.963 -0.6192 -0.8804 -0.2192
  179MOL0     C23550   5.557  10.270   6.620  0.1674  0.8629  0.2224
  179MOL0     C23551   5.423  10.301   6.593  0.7742 -0.5946 -0.4218
  179MOL0     C23552   5.359  10.206   6.511 -0.0447  0.3086 -1.1450
  179MOL0     C23553   5.418  10.084   6.478 -0.4959  0.2652  0.4590
  179MOL0     O23554   5.338  10.001   6.407 -0.2339 -0.3097 -0.3998
  179MOL0     C23555   5.396   9.885   6.351 -1.2021 -1.1999 -0.0255
  179MOL0     C23556   5.318   9.841   6.219  0.4092 -0.6962 -0.3808
  179MOL0     C23557   5.379   9.718   6.136  0.6055 -1.1956 -1.1675
  179MOL0     C23558   5.436   9.607   6.227 -0.7468  0.3823  0.6562
  179MOL0     C23559   5.336   9.563   6.324 -0.1828  0.5608 -0.8544
  179MOL0     C23560   5.258   9.513   6.409  0.1562  1.1817 -0.4356
  179MOL0     C23561   5.545  10.053   6.535  0.4832 -0.0879  0.4966
  179MOL0     C23562   5.619  10.156   6.590 -0.5614 -0.4445 -0.0032
  179MOL0     H23563   5.940  10.398   6.705 -2.0809 -1.4773 -0.0637
  179MOL0     H23564   6.076  10.581   6.773  1.6104 -0.0803  1.2652
  179MOL0     H23565   6.058  10.891   7.125 -2.4032  1.7471  1.4632
  179MOL0     H23566   5.908  10.817   7.156 -0.5312  0.4073  0.4163
  179MOL0     H23567   5.826  10.873   6.917  1.6467 -1.2106  0.8744
  179MOL0     H23568   5.965  10.965   6.891  0.5465  1.5106  1.8955
  179MOL0     H23569   5.778  10.987   7.127  0.8003  0.0403  0.8978
  179MOL0     H23570   5.744  11.077   6.983  0.2252  0.6302 -0.4495
  179MOL0     H23571   5.874  11.196   7.173  1.4825  0.6822  0.4196
  179MOL0     H23572   6.009  11.076   7.151 -0.8338 -4.5273 -3.9812
  179MOL0     H23573   5.932  11.265   6.920  1.8588  1.8353  0.0588
  179MOL0     H23574   6.062  11.146   6.943 -1.2049  0.1117 -0.4263
  179MOL0     H23575   6.140  11.300   7.138  0.7792  0.5560 -0.5437
  179MOL0     H23576   5.997  11.381   7.136  2.3866  0.0393  1.7357
  179MOL0     H23577   6.178  11.421   6.887  3.0999 -3.9090  2.0417
  179MOL0     H23578   6.047  11.513   6.959  1.0595  0.8741 -0.5278
  179MOL0     H23579   6.301  11.460   7.110 -1.6123 -1.5693 -0.1451
  179MOL0     H23580   6.177  11.582   7.141 -1.1380 -1.7438  0.1126
  179MOL0     H23581   6.516  11.606   7.021  1.0547 -0.3176 -1.0146
  179MOL0     H23582   6.604  11.734   6.682  0.8993  0.3008  0.0731
  179MOL0     H23583   6.658  11.739   6.845 -0.9108  2.4129  1.7344
  179MOL0     H23584   6.554  11.969   6.884  1.2750  1.8634 -1.2646
  179MOL0     H23585   6.522  11.978   6.710 -3.5902  0.9033  1.7337
  179MOL0     H23586   6.783  11.903   6.712  2.6257  4.0720 -3.3840
  179MOL0     H23587   6.723  12.066   6.696  2.7343  1.8903  1.7617
  179MOL0     H23588   6.725  12.069   6.950  1.3250 -0.5083  1.9718
  179MOL0     H23589   6.876  12.086   6.870  1.0813 -0.8335  0.8987
  179MOL0     H23590   6.887  12.123   7.109  1.6160  0.3663  0.0210
  179MOL0     H23591   6.975  12.115   7.334  0.0559  1.2502 -1.1894
  179MOL0     H23592   7.119  11.944   7.774 -1.4223  0.6145  1.0916
  179MOL0     H23593   7.153  11.856   7.997 -0.0601 -3.2738  2.9162
  179MOL0     H23594   7.198  11.737   8.210 -2.0927  0.3045 -2.7282
  179MOL0     H23595   7.321  11.656   8.110  0.9168  1.0468 -0.9535
  179MOL0     H23596   7.297  11.459   8.237  1.2317  1.3933 -2.0762
  179MOL0     H23597   7.157  11.525   8.328  2.5999 -0.2404  3.4984
  179MOL0     H23598   7.305  11.697   8.414 -2.1555 -1.9077  1.8129
  179MOL0     H23599   7.442  11.618   8.323 -0.8642  2.9616  0.0199
  179MOL0     H23600   7.269  11.486   8.535  0.0417 -0.8188 -1.4003
  179MOL0     H23601   7.419  11.432   8.481 -1.4956 -0.6873 -1.3227
  179MOL0     H23602   7.467  11.526   8.710 -4.2887 -0.3619  1.0454
  179MOL0     H23603   7.385  11.671   8.676 -2.5326 -2.6166  0.3503
  179MOL0     H23604   7.572  11.695   8.486  0.9726  1.6211 -0.0605
  179MOL0     H23605   7.643  11.554   8.569 -2.8880 -0.6848 -2.7421
  179MOL0     H23606   7.560  11.810   8.724  2.3955  2.4211  1.4849
  179MOL0     H23607   7.662  11.687   8.790  0.1625 -1.0489 -2.0714
  179MOL0     H23608   7.815  11.856   8.733 -1.6746 -0.1969  0.9045
  179MOL0     H23609   7.761  11.858   8.567 -2.2329  0.0142 -0.2985
  179MOL0     H23610   7.080  11.460   7.872  1.3241 -1.1209 -2.7465
  179MOL0     H23611   7.063  11.541   7.626  0.5771  1.3430 -0.5268
  179MOL0     H23612   7.013  11.686   7.322 -0.5437 -1.5531 -2.8747
  179MOL0     H23613   6.934  11.699   7.080 -2.6011  0.6713 -0.7420
  179MOL0     H23614   5.787  10.632   7.114  0.0800 -3.3376  1.6971
  179MOL0     H23615   5.659  10.467   7.016  0.3390 -0.5391  1.6504
  179MOL0     H23616   5.365  10.390   6.613  0.1574 -0.7624 -1.3656
  179MOL0     H23617   5.258  10.221   6.476 -0.1510 -0.0788 -1.0147
  179MOL0     H23618   5.412   9.805   6.425  0.2110 -1.5630 -0.6834
  179MOL0     H23619   5.496   9.922   6.327 -1.4614 -0.5258 -0.0787
  179MOL0     H23620   5.219   9.802   6.246  0.4411 -0.2315  0.4071
  179MOL0     H23621   5.298   9.929   6.157 -0.4216 -0.7479 -0.2008
  179MOL0     H23622   5.451   9.753   6.061 -1.0818  1.0490 -1.8314
  179MOL0     H23623   5.299   9.666   6.082  0.1819 -1.2277 -0.5095
  179MOL0     H23624   5.454   9.525   6.156 -1.4592  0.6011  0.2080
  179MOL0     H23625   5.528   9.623   6.283 -1.0608 -2.0344  2.0074
  179MOL0     H23626   5.190   9.470   6.480 -0.4677  0.9217 -1.1694
  179MOL0     H23627   5.581   9.954   6.512  1.3145  0.6252 -1.6174
  179MOL0     H23628   5.724  10.150   6.616  0.7933  4.0832 -3.3087
  180MOL0     O23629   5.556  10.900   2.930 -0.7928  0.4559  0.1183
  180MOL0     C23630   5.457  10.840   2.897  0.4025  0.0931  0.3203
  180MOL0     O23631   5.411  10.718   2.940 -0.0540 -0.7394 -0.1256
  180MOL0     C23632   5.480  10.630   3.022  0.6513  0.1808  0.1635
  180MOL0     C23633   5.617  10.627   3.043  0.0654  0.3584 -1.1061
  180MOL0     C23634   5.676  10.533   3.125  0.0867  0.7863 -0.1293
  180MOL0     C23635   5.601  10.429   3.189 -0.1152  0.0764  0.2598
  180MOL0     O23636   5.659  10.341   3.272 -0.0166  0.4073 -0.4408
  180MOL0     C23637   5.784  10.355   3.334 -0.9669  0.2101  0.2617
  180MOL0     C23638   5.803  10.236   3.425  0.2075  0.2740 -0.7054
  180MOL0     C23639   5.913  10.250   3.537  0.0087  0.2005 -0.9499
  180MOL0     C23640   5.927  10.122   3.615 -0.2109 -0.7663 -0.4285
  180MOL0     C23641   6.077  10.096   3.667  0.9190  0.0629 -0.2183
  180MOL0     C23642   6.135  10.194   3.775  0.2938  0.6704  0.6799
  180MOL0     C23643   6.072  10.165   3.908  0.2061 -0.0336 -0.5488
  180MOL0     C23644   6.158  10.231   4.023  0.2734  0.5529  0.1527
  180MOL0     N23645   6.107  10.199   4.154 -0.2742  0.8290 -0.5249
  180MOL0     C23646   5.979  10.181   4.196  0.3478  0.2103  0.3875
  180MOL0     C23647   5.991  10.157   4.326  0.6198  0.2926 -0.2646
  180MOL0     C23648   5.876  10.141   4.423  0.2911 -1.6519 -0.8149
  180MOL0     C23649   5.831  10.279   4.470 -0.2222 -0.0938 -1.0098
  180MOL0     C23650   5.684  10.295   4.439  0.6930 -0.7933 -0.0942
  180MOL0     C23651   5.626  10.440   4.469  0.0916  0.5438 -0.0214
  180MOL0     O23652   5.615  10.467   4.614 -0.2408 -0.1019  0.1395
  180MOL0     C23653   5.523  10.398   4.688 -0.1990  0.1374  0.7891
  180MOL0     C23654   5.396  10.363   4.635 -0.1975 -0.5779  0.4527
  180MOL0     C23655   5.306  10.280   4.709  0.6177 -0.1052 -0.0187
  180MOL0     C23656   5.348  10.248   4.839  0.1787  0.3463  0.2474
  180MOL0     C23657   5.268  10.154   4.916 -0.1002 -0.4017 -0.3033
  180MOL0     O23658   5.325  10.099   5.038  1.0282  0.2279 -0.2512
  180MOL0     C23659   5.248  10.005   5.101 -0.2120  0.1423 -0.1935
  180MOL0     C23660   5.306   9.886   5.137 -0.1646  0.3200 -0.5945
  180MOL0     C23661   5.221   9.794   5.202  0.1749 -0.7354 -0.0852
  180MOL0     C23662   5.086   9.825   5.239  0.5354 -0.8430 -0.1858
  180MOL0     O23663   5.013   9.731   5.322 -0.0915  0.2784 -0.0703
  180MOL0     C23664   4.898   9.776   5.396  0.5915 -0.1580 -0.6660
  180MOL0     C23665   4.843   9.666   5.478 -0.8478  0.7736 -0.1816
  180MOL0     C23666   4.930   9.622   5.594  0.5318 -0.5629 -0.1745
  180MOL0     C23667   5.016   9.491   5.560  0.1192 -0.3628  0.1237
  180MOL0     C23668   5.114   9.469   5.674  0.9138  0.8798 -0.1419
  180MOL0     C23669   5.193   9.347   5.644 -0.1604 -0.3755  0.2624
  180MOL0     C23670   5.244   9.254   5.760  0.4126 -0.0374  0.6969
  180MOL0     C23671   5.354   9.166   5.696 -0.0587  0.3607  0.2411
  180MOL0    Cl23672   5.372   9.008   5.779  0.1338 -0.0621 -0.0290
  180MOL0     C23673   5.032   9.948   5.203  0.2054 -0.1522 -0.1792
  180MOL0     C23674   5.114  10.046   5.141 -0.6729 -0.3313  0.1761
  180MOL0     O23675   5.161  10.117   4.863 -0.1452  0.6355 -0.4392
  180MOL0     C23676   5.473  10.290   4.890 -0.9580 -0.2652 -0.0313
  180MOL0     C23677   5.559  10.370   4.815  1.4540 -1.2232 -0.0793
  180MOL0     N23678   6.124  10.176   4.370  1.5827 -0.2474  0.5121
  180MOL0     N23679   6.195  10.202   4.268  0.7164 -0.8527  0.2757
  180MOL0     C23680   5.463  10.434   3.166  0.5006  0.2808 -0.0187
  180MOL0     C23681   5.404  10.531   3.082  0.4254 -0.3493  0.4341
  180MOL0     C23682   5.369  10.923   2.806 -0.9834  0.2303 -0.1560
  180MOL0     C23683   5.232  10.893   2.804 -0.1223 -0.0550 -0.3763
  180MOL0     C23684   5.157  10.941   2.702 -0.3296  0.4253 -0.5581
  180MOL0     C23685   5.205  11.029   2.610  0.0850 -0.4617  1.3461
  180MOL0     O23686   5.127  11.074   2.503  0.0509 -0.1173  0.1786
  180MOL0     C23687   4.994  11.004   2.473 -0.3455  0.4863 -0.1614
  180MOL0     C23688   4.942  11.059   2.326 -0.5247  0.4895 -0.7445
  180MOL0     C23689   4.798  11.016   2.296 -0.1260 -0.4637 -0.9333
  180MOL0     C23690   4.742  11.036   2.159 -0.4935 -0.0890  0.3578
  180MOL0     C23691   4.597  11.005   2.169  1.1349  0.6254 -0.5529
  180MOL0     C23692   4.478  10.994   2.175  0.1908  1.0126 -0.3934
  180MOL0     C23693   5.337  11.059   2.607 -0.4166  0.1048  0.5514
  180MOL0     C23694   5.422  11.013   2.710  0.6868 -1.1588  0.4503
  180MOL0     H23695   5.686  10.694   2.993  2.4741  1.2096  2.9617
  180MOL0     H23696   5.777  10.557   3.159 -1.0797  4.2207  1.3773
  180MOL0     H23697   5.788  10.453   3.383  0.7884  0.8653 -1.0954
  180MOL0     H23698   5.858  10.344   3.255  0.5438  2.3725  1.2700
  180MOL0     H23699   5.813  10.148   3.361  1.3479 -1.0792  1.2494
  180MOL0     H23700   5.712  10.220   3.484  0.1671  0.7670 -0.6225
  180MOL0     H23701   5.884  10.328   3.608  1.7026 -0.0603  0.0800
  180MOL0     H23702   6.008  10.285   3.496  0.2885  1.9926  1.0509
  180MOL0     H23703   5.852  10.119   3.695  0.9572  2.0076  0.9291
  180MOL0     H23704   5.916  10.040   3.543  0.7671 -3.0211  1.8327
  180MOL0     H23705   6.134  10.100   3.573  1.3831  0.4033  0.0729
  180MOL0     H23706   6.078   9.994   3.708  0.5645  0.9211  2.0685
  180MOL0     H23707   6.119  10.296   3.739 -1.4217 -0.1540 -1.1456
  180MOL0     H23708   6.243  10.187   3.783  0.4550  2.1068  0.0848
  180MOL0     H23709   5.964  10.178   3.910 -0.1073 -2.1098  2.1659
  180MOL0     H23710   6.082  10.058   3.929  1.7650  0.6426  2.7322
  180MOL0     H23711   6.158  10.341   4.024 -1.0017  0.5913 -0.8032
  180MOL0     H23712   6.254  10.179   4.015 -0.4690 -0.7781 -0.4373
  180MOL0     H23713   5.890  10.193   4.136  1.2636 -1.2288 -1.3507
  180MOL0     H23714   5.903  10.067   4.499  3.0722 -4.2778 -4.0505
  180MOL0     H23715   5.803  10.082   4.367 -0.6956 -0.2556 -1.0577
  180MOL0     H23716   5.902  10.354   4.433  1.0757 -0.6920  0.1736
  180MOL0     H23717   5.840  10.282   4.579  1.4378 -1.9071 -1.0480
  180MOL0     H23718   5.668  10.273   4.333  3.6469  2.5929 -1.4457
  180MOL0     H23719   5.632  10.220   4.498  0.1120  0.9430  1.6986
  180MOL0     H23720   5.526  10.443   4.424 -1.7760  2.7716  3.7105
  180MOL0     H23721   5.681  10.522   4.423  1.4684 -1.4658 -2.1486
  180MOL0     H23722   5.370  10.394   4.534  1.5407 -2.0429 -0.5236
  180MOL0     H23723   5.216  10.242   4.663  0.7381  1.0690 -1.2770
  180MOL0     H23724   5.410   9.866   5.116  0.0346  1.2676 -0.5663
  180MOL0     H23725   5.265   9.696   5.216 -1.4424 -1.3340  1.1458
  180MOL0     H23726   4.814   9.813   5.336  1.3907  3.2295  0.1219
  180MOL0     H23727   4.927   9.861   5.458  0.6312 -1.3179  0.9731
  180MOL0     H23728   4.814   9.576   5.423 -1.2351  1.2695 -0.8071
  180MOL0     H23729   4.748   9.703   5.519 -1.5035 -1.2321  0.1920
  180MOL0     H23730   4.858   9.589   5.669  1.6358 -5.1016 -0.8200
  180MOL0     H23731   4.990   9.704   5.636  0.5425  0.0549 -1.3402
  180MOL0     H23732   4.949   9.406   5.543  1.5261 -1.5370  0.2049
  180MOL0     H23733   5.083   9.509   5.476 -0.3202 -1.1637 -0.4111
  180MOL0     H23734   5.061   9.475   5.769  0.1899  1.0982 -0.5519
  180MOL0     H23735   5.187   9.549   5.662  0.1086  1.2067 -4.2504
  180MOL0     H23736   5.287   9.387   5.607 -0.3860 -0.1799 -0.1031
  180MOL0     H23737   5.137   9.281   5.577  1.6288  0.3664 -2.0927
  180MOL0     H23738   5.292   9.319   5.834  0.2119  3.1584 -1.7423
  180MOL0     H23739   5.163   9.191   5.797  0.1758 -1.3528 -1.8235
  180MOL0     H23740   5.450   9.217   5.696 -0.2067  0.6410  0.6995
  180MOL0     H23741   5.330   9.147   5.590  1.9552  2.8713 -0.7581
  180MOL0     H23742   4.927   9.973   5.215  0.0775  1.8959 -3.9944
  180MOL0     H23743   5.076  10.143   5.111  2.1752  0.2789 -1.8034
  180MOL0     H23744   5.501  10.253   4.988 -2.4443  1.2875  1.0358
  180MOL0     H23745   5.649  10.402   4.866  3.0447 -0.1210 -3.3010
  180MOL0     H23746   5.409  10.348   3.206  0.3359  0.2634 -0.2793
  180MOL0     H23747   5.296  10.534   3.067  0.7260  1.2825 -2.1743
  180MOL0     H23748   5.171  10.829   2.867 -1.6799  1.3053 -0.4307
  180MOL0     H23749   5.052  10.912   2.698 -0.6178  1.4350 -0.4319
  180MOL0     H23750   4.924  11.032   2.553  1.4368 -1.9716  2.4615
  180MOL0     H23751   5.013  10.897   2.475 -0.6500  0.2873  4.6479
  180MOL0     H23752   4.940  11.169   2.328 -0.7114  0.5156 -1.7556
  180MOL0     H23753   4.998  11.025   2.238 -0.8887 -0.6055 -0.5682
  180MOL0     H23754   4.727  11.065   2.364  0.0451 -3.5534  1.6793
  180MOL0     H23755   4.796  10.909   2.316  2.2692 -0.1227  1.6600
  180MOL0     H23756   4.754  11.136   2.116  3.7352  0.3234  1.9700
  180MOL0     H23757   4.785  10.958   2.095 -1.6094  1.4438 -2.4286
  180MOL0     H23758   4.375  10.967   2.162  0.2822  0.3841  0.1377
  180MOL0     H23759   5.385  11.133   2.542  1.7203 -1.1917  0.5789
  180MOL0     H23760   5.525  11.049   2.711  0.3282  0.4929 -3.4172
  181MOL0     O23761   6.583   6.805   6.058  0.0607 -0.4736 -0.7315
  181MOL0     C23762   6.679   6.740   6.095  0.0777 -0.1833 -1.1446
  181MOL0     O23763   6.708   6.691   6.217  0.0833 -0.2497 -0.1045
  181MOL0     C23764   6.595   6.681   6.285  0.2783  0.5363 -0.4372
  181MOL0     C23765   6.587   6.754   6.405  0.6552 -1.0084 -0.2407
  181MOL0     C23766   6.495   6.715   6.498 -0.1675 -0.8652  0.1037
  181MOL0     C23767   6.403   6.612   6.474 -0.5221 -0.3802 -0.0446
  181MOL0     O23768   6.316   6.574   6.571  1.2078 -0.6594 -0.2897
  181MOL0     C23769   6.265   6.435   6.564  0.9952 -0.4559 -0.1164
  181MOL0     C23770   6.174   6.401   6.684  0.4834 -0.7223 -0.8935
  181MOL0     C23771   6.237   6.449   6.823 -0.4432 -0.9877  0.3024
  181MOL0     C23772   6.137   6.431   6.937  0.1014 -0.8965 -0.4969
  181MOL0     C23773   6.162   6.544   7.045 -0.5914 -0.2360 -0.2366
  181MOL0     C23774   6.155   6.489   7.189  0.0535 -0.0322 -0.4630
  181MOL0     C23775   6.169   6.604   7.287  1.4320  0.4216 -0.0924
  181MOL0     C23776   6.158   6.559   7.441 -0.6845  0.2798  0.4058
  181MOL0     N23777   6.270   6.474   7.488  0.4176  0.1799  0.2737
  181MOL0     C23778   6.271   6.336   7.486  0.5043  0.8401 -0.5489
  181MOL0     C23779   6.373   6.308   7.573 -0.6806 -0.2053  0.1134
  181MOL0     C23780   6.416   6.166   7.598  0.7075  0.1227  0.9351
  181MOL0     C23781   6.492   6.094   7.479 -0.6233 -0.0520 -0.5343
  181MOL0     C23782   6.644   6.106   7.458  0.1271 -0.7404 -0.0827
  181MOL0     C23783   6.718   5.997   7.551 -0.7025 -0.0429 -0.6758
  181MOL0     O23784   6.686   6.005   7.699 -0.3534  0.2616  0.4934
  181MOL0     C23785   6.718   5.907   7.785  0.4144  0.0987  0.4190
  181MOL0     C23786   6.815   5.807   7.766  0.2491 -0.1949  0.4396
  181MOL0     C23787   6.832   5.713   7.864 -0.8976 -0.0716 -0.5654
  181MOL0     C23788   6.775   5.730   7.996 -0.2174 -0.5161  0.1587
  181MOL0     C23789   6.779   5.627   8.100  0.6783  0.9097 -0.6439
  181MOL0     O23790   6.858   5.523   8.076 -0.4386  0.0382  0.1755
  181MOL0     C23791   6.873   5.425   8.170  0.7582  0.0325 -0.3659
  181MOL0     C23792   6.957   5.451   8.280 -0.2863  0.3148  0.5983
  181MOL0     C23793   6.977   5.349   8.369  0.4473 -0.3129 -0.8582
  181MOL0     C23794   6.922   5.223   8.358  0.1625  0.1223  0.3217
  181MOL0     O23795   6.972   5.118   8.442  0.4605 -0.2956 -0.0962
  181MOL0     C23796   6.868   5.050   8.513  0.0546  0.6910 -1.2216
  181MOL0     C23797   6.923   5.032   8.659  0.4640 -0.4516  0.7618
  181MOL0     C23798   7.030   4.924   8.685 -0.6825  0.3332  0.3053
  181MOL0     C23799   7.068   4.930   8.834  0.1519 -0.0071 -0.0531
  181MOL0     C23800   7.133   4.804   8.895  0.3149  0.8321 -0.8279
  181MOL0     C23801   7.274   4.780   8.829  0.1194 -0.4742 -0.5151
  181MOL0     C23802   7.351   4.657   8.879 -0.2359  0.1281 -0.3196
  181MOL0     C23803   7.494   4.635   8.814  1.1822  0.5774 -0.9848
  181MOL0    Cl23804   7.607   4.748   8.888  0.3129  0.4285  0.3107
  181MOL0     C23805   6.843   5.196   8.239 -0.6198  0.4406 -0.1610
  181MOL0     C23806   6.817   5.297   8.148  0.1366  0.1905  0.1114
  181MOL0     O23807   6.694   5.628   8.192  0.2607 -0.3990  0.5483
  181MOL0     C23808   6.694   5.843   8.017 -0.4471 -0.0759  0.1960
  181MOL0     C23809   6.666   5.924   7.910  0.2751 -0.0316  0.0651
  181MOL0     N23810   6.442   6.424   7.603  0.0251  0.9281 -0.2562
  181MOL0     N23811   6.389   6.522   7.547  0.0622 -0.5255 -0.5375
  181MOL0     C23812   6.406   6.555   6.346  1.1318 -0.2397  0.2358
  181MOL0     C23813   6.497   6.585   6.259 -1.1102 -0.0206 -0.3537
  181MOL0     C23814   6.776   6.704   5.985  0.5223 -0.4578 -1.2081
  181MOL0     C23815   6.896   6.630   6.016 -0.3922 -1.4390  0.4577
  181MOL0     C23816   6.999   6.606   5.925 -0.3870 -0.2668  1.2000
  181MOL0     C23817   6.993   6.677   5.805 -0.0421 -0.5350 -0.7615
  181MOL0     O23818   7.095   6.665   5.712 -0.6680 -0.3551  0.2778
  181MOL0     C23819   7.214   6.586   5.736  0.3109 -0.5548 -0.8534
  181MOL0     C23820   7.268   6.543   5.599 -0.6439  0.4607 -0.7051
  181MOL0     C23821   7.169   6.460   5.518 -0.8881  0.2262 -0.3877
  181MOL0     C23822   7.151   6.325   5.597 -0.3007 -1.2474  0.4559
  181MOL0     C23823   7.083   6.217   5.520 -0.1278  0.7987  0.8151
  181MOL0     C23824   7.033   6.113   5.466  0.3491 -0.4613 -0.1932
  181MOL0     C23825   6.883   6.751   5.774  0.2040 -0.3066 -0.1885
  181MOL0     C23826   6.766   6.760   5.857  0.1109 -0.5931 -0.2258
  181MOL0     H23827   6.662   6.828   6.432  1.8141 -1.6906 -1.5141
  181MOL0     H23828   6.500   6.764   6.595  0.2320 -0.4025 -0.1450
  181MOL0     H23829   6.344   6.359   6.562  1.5411  0.1112 -0.5550
  181MOL0     H23830   6.195   6.410   6.484  0.2722 -1.3123  0.7640
  181MOL0     H23831   6.144   6.296   6.688  0.3727 -0.6438  0.6480
  181MOL0     H23832   6.083   6.458   6.665  0.9504  0.9784  1.5657
  181MOL0     H23833   6.257   6.554   6.804 -0.4911 -0.4747  2.7136
  181MOL0     H23834   6.333   6.405   6.852  1.5151  2.9119  0.3760
  181MOL0     H23835   6.036   6.452   6.900 -0.8859  0.1601  2.4988
  181MOL0     H23836   6.142   6.333   6.985 -2.4504 -0.7665  0.1914
  181MOL0     H23837   6.076   6.611   7.052  0.1116  0.5631  1.1284
  181MOL0     H23838   6.252   6.604   7.030  0.5695 -1.5158  1.3311
  181MOL0     H23839   6.237   6.420   7.206 -0.0363  0.1900  0.9712
  181MOL0     H23840   6.056   6.444   7.205 -2.4621  4.6140 -0.9052
  181MOL0     H23841   6.265   6.656   7.278  0.8915  1.3965 -0.3570
  181MOL0     H23842   6.097   6.684   7.268 -2.0384 -2.3665  0.1140
  181MOL0     H23843   6.065   6.502   7.450 -1.1354  0.8723 -0.3656
  181MOL0     H23844   6.148   6.654   7.494 -3.0064 -0.1040  0.7767
  181MOL0     H23845   6.212   6.264   7.430 -0.4425  0.8322  0.4228
  181MOL0     H23846   6.328   6.107   7.622 -0.6592  3.0523  3.9613
  181MOL0     H23847   6.473   6.152   7.690  1.9931 -0.1143  0.1360
  181MOL0     H23848   6.450   6.139   7.388  1.1990  1.2433 -0.7780
  181MOL0     H23849   6.478   5.986   7.482 -0.6518 -0.0458 -0.4381
  181MOL0     H23850   6.655   6.082   7.352 -4.3978 -0.7591 -0.7542
  181MOL0     H23851   6.679   6.207   7.480 -1.9472  0.6009 -2.4881
  181MOL0     H23852   6.826   5.998   7.540 -0.7778 -0.9865 -1.5936
  181MOL0     H23853   6.677   5.904   7.510 -1.1035 -1.6164  2.8723
  181MOL0     H23854   6.834   5.786   7.661 -3.6905 -0.0728 -0.4460
  181MOL0     H23855   6.895   5.625   7.870  1.3562  1.4562 -0.5361
  181MOL0     H23856   7.013   5.543   8.295  1.3130 -0.7165  1.1692
  181MOL0     H23857   7.051   5.355   8.449 -0.9381 -1.0927  0.5497
  181MOL0     H23858   6.855   4.948   8.475 -2.2136  1.0884 -1.6777
  181MOL0     H23859   6.772   5.102   8.526 -1.0072 -1.4920  0.4905
  181MOL0     H23860   6.838   5.004   8.722 -0.3457  1.9197  0.8240
  181MOL0     H23861   6.945   5.129   8.703 -2.0739  1.0316 -0.9733
  181MOL0     H23862   7.113   4.942   8.616 -0.8409  0.9061  0.2623
  181MOL0     H23863   6.996   4.825   8.652  0.3909 -0.4906  1.5534
  181MOL0     H23864   7.138   5.012   8.854  1.6086 -0.9992 -0.9308
  181MOL0     H23865   6.971   4.952   8.880  0.6726 -1.5752  1.9442
  181MOL0     H23866   7.083   4.708   8.881  0.2496  0.7712 -0.2221
  181MOL0     H23867   7.150   4.814   9.003 -1.3832  1.3629 -0.5692
  181MOL0     H23868   7.331   4.870   8.852  0.9095 -1.1421  0.1781
  181MOL0     H23869   7.263   4.778   8.720 -0.5604  0.1924 -0.4669
  181MOL0     H23870   7.367   4.664   8.987  2.5557  0.2126 -0.6658
  181MOL0     H23871   7.308   4.560   8.854 -2.1274  1.4952 -2.7674
  181MOL0     H23872   7.486   4.642   8.706 -2.6595 -0.6204 -0.9360
  181MOL0     H23873   7.536   4.536   8.831 -1.0296  0.0739  2.8868
  181MOL0     H23874   6.818   5.094   8.213  1.2875  0.0733 -0.7053
  181MOL0     H23875   6.768   5.274   8.054  1.3758 -2.5179  0.0349
  181MOL0     H23876   6.662   5.854   8.120 -2.3981 -0.7400 -0.2963
  181MOL0     H23877   6.600   6.008   7.931  1.4764  0.1570  3.9751
  181MOL0     H23878   6.336   6.478   6.314  1.2323  0.7252 -2.6621
  181MOL0     H23879   6.514   6.529   6.168  0.9486 -1.0913  0.6288
  181MOL0     H23880   6.903   6.572   6.107  0.1446  0.6303  1.8127
  181MOL0     H23881   7.087   6.556   5.965 -0.3489 -1.2546 -0.0708
  181MOL0     H23882   7.191   6.505   5.806 -1.9286  2.7514  2.6829
  181MOL0     H23883   7.288   6.649   5.788 -0.0425 -0.0517 -0.9486
  181MOL0     H23884   7.290   6.632   5.538 -1.2598  1.7627  0.8965
  181MOL0     H23885   7.365   6.498   5.623  0.0293  2.1011 -0.1943
  181MOL0     H23886   7.229   6.428   5.433  1.9666 -0.7729  1.8053
  181MOL0     H23887   7.075   6.507   5.491 -0.2913  1.7862  0.1196
  181MOL0     H23888   7.249   6.280   5.613  0.3840 -0.3352 -0.9581
  181MOL0     H23889   7.092   6.335   5.689 -1.0622  2.8938 -0.2973
  181MOL0     H23890   6.983   6.030   5.422 -2.5730  1.7524 -1.4214
  181MOL0     H23891   6.892   6.819   5.690 -1.9507 -0.2758 -0.4681
  181MOL0     H23892   6.692   6.830   5.819  1.2974  1.2089  0.6028
  182MOL0     O23893   8.514   9.764  10.466  0.3251 -0.1753 -0.9682
  182MOL0     C23894   8.425   9.800  10.400  0.0323 -0.7621  0.2375
  182MOL0     O23895   8.422   9.782  10.268 -0.1910  0.3097 -0.2808
  182MOL0     C23896   8.521   9.718  10.202 -0.6677 -0.9732  0.1014
  182MOL0     C23897   8.513   9.574  10.192  0.4058 -0.4625  0.2897
  182MOL0     C23898   8.605   9.505  10.105 -0.0334 -0.6473  0.2430
  182MOL0     C23899   8.706   9.571  10.034  0.2539 -0.1511  0.2740
  182MOL0     O23900   8.789   9.490   9.959  0.5833  0.2023  0.2974
  182MOL0     C23901   8.902   9.554   9.913 -1.0311  0.7212 -0.0929
  182MOL0     C23902   8.991   9.460   9.830  0.3325 -0.1678  0.3064
  182MOL0     C23903   9.080   9.372   9.912 -0.9019  0.8461 -0.3158
  182MOL0     C23904   9.160   9.279   9.819  0.1770  0.9221  0.6632
  182MOL0     C23905   9.239   9.171   9.902  0.0038  0.2518 -0.8887
  182MOL0     C23906   9.326   9.244  10.001  0.0050 -0.1256  0.1270
  182MOL0     C23907   9.439   9.154  10.048 -0.4725 -0.0640 -0.1437
  182MOL0     C23908   9.385   9.056  10.150  0.1521 -0.2924 -0.5977
  182MOL0     N23909   9.460   8.936  10.180 -0.0880 -0.4250 -0.4608
  182MOL0     C23910   9.492   8.909  10.312  0.7209  0.1125  0.5101
  182MOL0     C23911   9.611   8.839  10.315 -0.7437  0.1318  0.1226
  182MOL0     C23912   9.695   8.771  10.423 -0.1054  0.8617 -1.3388
  182MOL0     C23913   9.690   8.813  10.572 -0.5209  0.2162 -0.2080
  182MOL0     C23914   9.793   8.733  10.658  0.5058 -1.0671 -0.4541
  182MOL0     C23915   9.794   8.769  10.807  0.1868 -0.6738  0.4205
  182MOL0     O23916   9.865   8.890  10.845  0.2952  0.3659  0.5160
  182MOL0     C23917   9.933   8.881  10.959  1.2702 -1.0591 -0.4690
  182MOL0     C23918  10.067   8.929  10.972 -1.3820 -0.3147 -0.3802
  182MOL0     C23919  10.134   8.932  11.095  0.3968  0.9170  0.6300
  182MOL0     C23920  10.070   8.898  11.216  0.1405  0.3860  0.4933
  182MOL0     C23921  10.142   8.912  11.339 -0.1830  0.0264 -0.9913
  182MOL0     O23922  10.064   8.920  11.452 -0.7148  0.0272  0.4465
  182MOL0     C23923  10.123   8.892  11.574  0.1817  0.2190  0.2131
  182MOL0     C23924  10.190   8.778  11.613 -0.3813 -0.1215 -1.0358
  182MOL0     C23925  10.222   8.771  11.755 -0.3495 -0.0348  0.0344
  182MOL0     C23926  10.192   8.866  11.852  1.5449  0.7324  0.1611
  182MOL0     O23927  10.218   8.832  11.983 -0.3082  0.5392 -0.2233
  182MOL0     C23928  10.234   8.947  12.066 -0.6100  0.3641  0.6602
  182MOL0     C23929  10.298   8.903  12.198 -0.5185  0.6569  1.2127
  182MOL0     C23930  10.448   8.851  12.180  0.0776 -0.7553 -0.4840
  182MOL0     C23931  10.516   8.856  12.325  0.2981  0.2429 -0.1782
  182MOL0     C23932  10.658   8.794  12.334  0.2762 -0.1571  0.6073
  182MOL0     C23933  10.713   8.793  12.468  0.3236  0.5234 -0.0376
  182MOL0     C23934  10.636   8.722  12.580  0.4521 -0.7395  0.4377
  182MOL0     C23935  10.693   8.749  12.729 -0.5076 -0.0169 -0.3965
  182MOL0    Cl23936  10.573   8.682  12.849 -0.1534 -0.0214 -0.0078
  182MOL0     C23937  10.130   8.971  11.811  1.1340 -0.7905  0.0018
  182MOL0     C23938  10.085   8.983  11.676 -0.1075 -0.3195 -0.0665
  182MOL0     O23939  10.262   8.911  11.340 -0.6514  0.1435  0.8838
  182MOL0     C23940   9.943   8.853  11.204 -0.5274  0.3407 -0.0466
  182MOL0     C23941   9.870   8.842  11.085 -0.8545 -0.5137 -0.0097
  182MOL0     N23942   9.639   8.807  10.184  0.5141  1.2242 -0.9148
  182MOL0     N23943   9.554   8.875  10.110 -0.2413  0.4990 -0.4910
  182MOL0     C23944   8.716   9.709  10.051 -0.1917  0.6376 -0.4623
  182MOL0     C23945   8.628   9.778  10.128 -0.2017 -1.1453  0.6178
  182MOL0     C23946   8.304   9.855  10.476  0.9202  0.2376  0.7872
  182MOL0     C23947   8.313   9.921  10.597  0.1713 -0.8335 -1.0219
  182MOL0     C23948   8.197   9.981  10.652 -0.3255  0.2192 -0.4901
  182MOL0     C23949   8.076   9.973  10.590 -0.5166 -0.7279 -0.2717
  182MOL0     O23950   7.956  10.009  10.647  0.1864 -0.2564  0.1275
  182MOL0     C23951   7.951  10.065  10.778  0.0550  0.5135 -1.1534
  182MOL0     C23952   7.968  10.212  10.777 -0.9167  0.5232  0.3218
  182MOL0     C23953   7.967  10.244  10.920  0.2690  1.1177 -0.4848
  182MOL0     C23954   8.012  10.385  10.953  0.4117  0.4180  0.7130
  182MOL0     C23955   7.978  10.407  11.094 -0.1207  0.5786 -1.3561
  182MOL0     C23956   7.951  10.425  11.213  0.0434 -0.7188  0.6229
  182MOL0     C23957   8.060   9.903  10.469 -0.0801 -0.0037  0.3958
  182MOL0     C23958   8.182   9.850  10.411  0.7388  0.1953 -0.4012
  182MOL0     H23959   8.447   9.512  10.252  0.3821 -1.1754 -0.4519
  182MOL0     H23960   8.582   9.399  10.098 -2.4677 -0.3022  1.6192
  182MOL0     H23961   8.962   9.589   9.997 -2.4709  3.5358 -0.1354
  182MOL0     H23962   8.882   9.639   9.848 -4.0137  2.4748  2.8075
  182MOL0     H23963   9.036   9.521   9.752 -3.0722 -0.9985 -2.5531
  182MOL0     H23964   8.913   9.401   9.781 -0.8839  1.1212  0.6405
  182MOL0     H23965   9.023   9.305   9.977  0.9256 -1.5329 -0.9995
  182MOL0     H23966   9.150   9.438   9.966  1.4011 -1.8211  0.2163
  182MOL0     H23967   9.099   9.205   9.767 -0.4806  0.7408  1.6737
  182MOL0     H23968   9.225   9.326   9.745  0.2609 -0.7708 -0.3881
  182MOL0     H23969   9.298   9.108   9.835 -1.9895  0.8890 -3.4091
  182MOL0     H23970   9.168   9.105   9.951 -1.1306 -0.0681 -2.8751
  182MOL0     H23971   9.277   9.281  10.091 -0.0156  1.8611 -0.6489
  182MOL0     H23972   9.381   9.331   9.963  2.2091  0.9525  5.0715
  182MOL0     H23973   9.486   9.090   9.973  2.3526  0.9031  0.6661
  182MOL0     H23974   9.522   9.209  10.093 -0.2847 -1.5987  1.4893
  182MOL0     H23975   9.280   9.031  10.137 -0.6200  1.8907  0.8734
  182MOL0     H23976   9.374   9.109  10.245  0.4239 -1.1956 -0.0430
  182MOL0     H23977   9.428   8.927  10.398 -0.0708  0.3892 -0.1221
  182MOL0     H23978   9.798   8.769  10.385  0.0657  0.3441 -0.8631
  182MOL0     H23979   9.669   8.665  10.410  0.4537  0.7248 -1.3656
  182MOL0     H23980   9.592   8.801  10.618 -0.7324  1.3693 -0.3378
  182MOL0     H23981   9.734   8.913  10.573  2.6023 -1.0005  2.5878
  182MOL0     H23982   9.758   8.630  10.652  0.1790 -0.9260 -1.0818
  182MOL0     H23983   9.888   8.749  10.606  0.5731  0.9675  0.1882
  182MOL0     H23984   9.838   8.682  10.857 -1.1067 -2.3306 -1.2142
  182MOL0     H23985   9.692   8.779  10.844  0.6163 -0.6343  1.6507
  182MOL0     H23986  10.122   8.964  10.885 -0.0270 -0.7664  0.2762
  182MOL0     H23987  10.235   8.970  11.097  0.6786  0.5679 -2.2119
  182MOL0     H23988  10.206   8.700  11.539 -2.9605  0.0473 -1.8823
  182MOL0     H23989  10.254   8.673  11.789 -0.8306 -0.8067 -1.6153
  182MOL0     H23990  10.130   8.980  12.073 -0.1159  3.9624 -3.6677
  182MOL0     H23991  10.293   9.027  12.021 -0.2686 -0.5617 -0.6201
  182MOL0     H23992  10.242   8.826  12.252 -0.3179 -0.8756 -0.6666
  182MOL0     H23993  10.304   9.002  12.245 -3.6603  0.7846  1.5679
  182MOL0     H23994  10.506   8.904  12.104 -1.6370  2.1431  0.0982
  182MOL0     H23995  10.449   8.746  12.149 -0.9206 -0.8622 -0.1961
  182MOL0     H23996  10.524   8.956  12.369 -1.7025  0.8336 -1.0047
  182MOL0     H23997  10.445   8.803  12.389  0.5321  3.1933  2.7984
  182MOL0     H23998  10.729   8.832  12.260  2.2274 -4.1578  0.1602
  182MOL0     H23999  10.639   8.687  12.328 -0.8394 -0.0911  2.2109
  182MOL0     H24000  10.720   8.898  12.498 -2.6666  0.6936  0.3726
  182MOL0     H24001  10.815   8.754  12.458  1.0953  2.9683 -4.1413
  182MOL0     H24002  10.537   8.766  12.586 -0.1060 -1.9896  0.8056
  182MOL0     H24003  10.621   8.614  12.567 -1.4870 -0.3697 -0.8786
  182MOL0     H24004  10.694   8.858  12.736  0.2266 -0.0246 -0.2339
  182MOL0     H24005  10.791   8.701  12.738 -0.1624  0.5056 -1.2298
  182MOL0     H24006  10.101   9.049  11.880 -3.1783  0.9644 -3.3359
  182MOL0     H24007  10.020   9.069  11.663 -0.8064 -0.4331  2.2137
  182MOL0     H24008   9.905   8.807  11.295 -1.7913 -0.8091 -1.1128
  182MOL0     H24009   9.763   8.822  11.077 -0.5840 -1.8060 -0.7438
  182MOL0     H24010   8.792   9.768  10.000  0.3677 -0.4034 -0.8720
  182MOL0     H24011   8.644   9.883  10.149  0.5444 -0.7759 -1.6050
  182MOL0     H24012   8.414   9.929  10.637  0.6021 -1.9892 -1.8143
  182MOL0     H24013   8.222  10.010  10.753  1.3190  1.1250 -1.1038
  182MOL0     H24014   8.020  10.018  10.849 -1.5668  0.2301  0.3190
  182MOL0     H24015   7.857  10.034  10.825 -0.2524 -0.6672 -2.4682
  182MOL0     H24016   8.073  10.220  10.748  0.6764 -0.7674  4.8398
  182MOL0     H24017   7.894  10.255  10.709 -1.4162 -3.0101 -1.5919
  182MOL0     H24018   8.040  10.186  10.976  0.7699  0.8853 -1.3669
  182MOL0     H24019   7.867  10.221  10.958  1.6958 -1.1533  2.3310
  182MOL0     H24020   8.120  10.390  10.936 -0.0299  1.1095 -2.6497
  182MOL0     H24021   7.970  10.463  10.889 -2.2056 -0.2083  1.5363
  182MOL0     H24022   7.925  10.440  11.316  0.6448  3.8809  0.3062
  182MOL0     H24023   7.959   9.901  10.429  0.0953  0.2345 -0.0733
  182MOL0     H24024   8.164   9.799  10.317  1.8546  4.4116 -3.1841
  183MOL0     O24025   3.684   5.712   4.118 -0.0768 -0.5015 -0.0030
  183MOL0     C24026   3.627   5.817   4.130  0.0448  0.3643 -0.6868
  183MOL0     O24027   3.668   5.915   4.214  0.1323 -0.7126  0.0324
  183MOL0     C24028   3.781   5.900   4.290  0.6631  0.0172  0.1002
  183MOL0     C24029   3.874   6.008   4.292  0.1900  0.5961  0.9832
  183MOL0     C24030   3.983   5.989   4.380  0.5758  0.1899 -0.3650
  183MOL0     C24031   3.999   5.873   4.465  1.0545 -0.0489 -0.6395
  183MOL0     O24032   4.115   5.854   4.536 -0.2788 -0.2861  0.8499
  183MOL0     C24033   4.141   5.732   4.616  0.3441  0.1470 -0.0538
  183MOL0     C24034   4.281   5.716   4.675 -0.5424  0.0093  1.0106
  183MOL0     C24035   4.300   5.804   4.797  0.6574  0.6191  0.0626
  183MOL0     C24036   4.429   5.766   4.875 -0.3681  0.1857 -0.1655
  183MOL0     C24037   4.549   5.830   4.795 -0.9161  0.5517  0.5132
  183MOL0     C24038   4.682   5.787   4.882  0.6179 -0.1812  0.5114
  183MOL0     C24039   4.801   5.835   4.805 -0.8371  0.4677 -1.0015
  183MOL0     C24040   4.937   5.779   4.849  0.6852 -0.5206 -0.2006
  183MOL0     N24041   4.968   5.639   4.811 -0.0193 -0.3579  0.4071
  183MOL0     C24042   5.037   5.607   4.702  0.6300  1.1295 -0.1220
  183MOL0     C24043   5.002   5.481   4.674 -1.6981 -0.0898  0.7033
  183MOL0     C24044   5.041   5.403   4.552 -0.1590 -1.1478 -0.0453
  183MOL0     C24045   5.186   5.362   4.557 -0.7967  0.5420  0.1178
  183MOL0     C24046   5.279   5.478   4.528 -0.2939  1.1298 -0.4643
  183MOL0     C24047   5.428   5.421   4.530 -1.1263 -0.4819  0.1887
  183MOL0     O24048   5.518   5.501   4.615 -0.4048 -0.2893 -0.5562
  183MOL0     C24049   5.653   5.455   4.616  0.1705  0.2674  0.0926
  183MOL0     C24050   5.686   5.330   4.562 -0.1939  0.9116  0.0732
  183MOL0     C24051   5.818   5.293   4.565  0.2660 -0.2618 -1.0413
  183MOL0     C24052   5.912   5.365   4.631 -0.7982  0.0171  0.5150
  183MOL0     C24053   6.053   5.317   4.638  0.3647 -0.1907  0.4440
  183MOL0     O24054   6.136   5.407   4.680 -0.1168 -0.2695 -0.0197
  183MOL0     C24055   6.265   5.367   4.708 -0.6041 -1.1893 -0.1284
  183MOL0     C24056   6.325   5.363   4.833  0.6525  0.3268 -0.4417
  183MOL0     C24057   6.464   5.342   4.839 -0.0400 -0.4654  0.1342
  183MOL0     C24058   6.539   5.320   4.724 -0.6792  0.1278 -0.4816
  183MOL0     O24059   6.672   5.277   4.713 -0.1431 -0.3845  0.2115
  183MOL0     C24060   6.771   5.323   4.806  0.3076 -0.0857 -0.2910
  183MOL0     C24061   6.905   5.254   4.788  0.3742 -0.2974 -1.0672
  183MOL0     C24062   6.976   5.281   4.648  0.1796 -0.3542 -0.4795
  183MOL0     C24063   6.971   5.439   4.634  0.1583 -0.6627 -0.2072
  183MOL0     C24064   7.034   5.483   4.499  0.7231  0.0572 -0.4065
  183MOL0     C24065   7.187   5.463   4.493  1.1247 -0.7145  0.3889
  183MOL0     C24066   7.244   5.504   4.357  0.8000 -0.6111  0.0201
  183MOL0     C24067   7.270   5.648   4.353 -0.2553  0.7286  0.3105
  183MOL0    Cl24068   7.351   5.676   4.200  0.3847 -0.0645  0.3716
  183MOL0     C24069   6.476   5.318   4.597  0.3145  0.4013 -0.6711
  183MOL0     C24070   6.339   5.330   4.586 -0.0687  0.1017 -0.6648
  183MOL0     O24071   6.077   5.193   4.619 -0.4751  0.1604  0.3381
  183MOL0     C24072   5.875   5.486   4.687  0.1570 -0.0071  0.4341
  183MOL0     C24073   5.749   5.531   4.686  0.4863  0.4377  1.0573
  183MOL0     N24074   4.936   5.428   4.776  0.7495  0.1620 -0.5238
  183MOL0     N24075   4.913   5.524   4.867 -0.6550 -0.7908 -0.3576
  183MOL0     C24076   3.892   5.786   4.469 -0.5245 -0.5100  0.9269
  183MOL0     C24077   3.784   5.796   4.381  0.3774 -0.3198 -0.0387
  183MOL0     C24078   3.517   5.837   4.038 -0.4518  0.3228 -0.5071
  183MOL0     C24079   3.435   5.948   4.061 -1.3208 -0.1982 -0.1370
  183MOL0     C24080   3.334   5.991   3.978 -0.3462 -0.6423  0.4955
  183MOL0     C24081   3.309   5.906   3.872  0.5585 -0.6295  0.1076
  183MOL0     O24082   3.200   5.925   3.786 -0.1470  0.5909 -0.2988
  183MOL0     C24083   3.114   6.040   3.779 -0.0865 -1.0498  0.0767
  183MOL0     C24084   3.104   6.073   3.630  0.0712 -0.0218  0.7833
  183MOL0     C24085   3.021   5.969   3.542  0.1539 -0.6134 -0.2276
  183MOL0     C24086   2.872   5.996   3.545  0.9796  0.5134 -0.2710
  183MOL0     C24087   2.854   6.139   3.509  0.3092  0.1037 -0.0713
  183MOL0     C24088   2.822   6.249   3.473 -0.4640  0.1585 -0.1404
  183MOL0     C24089   3.370   5.780   3.863  0.2529 -0.5755  0.3951
  183MOL0     C24090   3.473   5.742   3.941  0.3499 -0.2792  0.7466
  183MOL0     H24091   3.870   6.104   4.241 -2.5321  0.0486 -0.0134
  183MOL0     H24092   4.076   6.044   4.382  0.4422  0.7907  5.2815
  183MOL0     H24093   4.122   5.647   4.550 -0.3377 -0.2503  0.6366
  183MOL0     H24094   4.084   5.728   4.709 -2.4872  1.0918 -1.6226
  183MOL0     H24095   4.346   5.759   4.598 -1.7330  0.1649  0.0608
  183MOL0     H24096   4.306   5.612   4.697  0.6254 -0.2671 -1.2332
  183MOL0     H24097   4.221   5.786   4.870  1.6135  0.4206  1.0861
  183MOL0     H24098   4.301   5.913   4.786 -0.2654  0.6002 -0.2508
  183MOL0     H24099   4.414   5.813   4.972  0.8125 -0.9783  0.6031
  183MOL0     H24100   4.432   5.657   4.883 -0.9552  0.0909 -1.0315
  183MOL0     H24101   4.541   5.938   4.782  2.3426  0.6191 -2.5604
  183MOL0     H24102   4.559   5.787   4.695 -0.9634  0.0478  0.7241
  183MOL0     H24103   4.692   5.678   4.890 -0.5029 -0.3533 -0.2196
  183MOL0     H24104   4.665   5.835   4.979 -0.4470  1.8798 -0.6280
  183MOL0     H24105   4.782   5.804   4.702 -0.7891  0.3844 -0.9855
  183MOL0     H24106   4.794   5.944   4.807  1.9371  0.7540  1.5403
  183MOL0     H24107   4.956   5.784   4.957  0.1857 -2.0827 -0.0049
  183MOL0     H24108   5.001   5.850   4.797  0.1939 -0.1929 -0.3557
  183MOL0     H24109   5.076   5.672   4.625 -0.8393 -0.2398 -2.1334
  183MOL0     H24110   5.007   5.458   4.464 -2.9532 -2.0747  0.3463
  183MOL0     H24111   4.984   5.310   4.551 -3.5415  0.6686  2.6538
  183MOL0     H24112   5.201   5.292   4.474 -1.5556 -1.5147  1.6234
  183MOL0     H24113   5.219   5.314   4.649 -2.6944 -0.1693  0.4783
  183MOL0     H24114   5.260   5.512   4.426 -0.9100  0.4526 -0.5859
  183MOL0     H24115   5.258   5.574   4.575 -2.1680  0.4664  0.1143
  183MOL0     H24116   5.468   5.436   4.429  0.8124  0.3206  1.0112
  183MOL0     H24117   5.434   5.316   4.559 -1.4669 -0.9033 -1.2039
  183MOL0     H24118   5.621   5.267   4.502  3.1258 -1.3763 -1.3654
  183MOL0     H24119   5.861   5.203   4.522  3.0538 -0.0016  0.9093
  183MOL0     H24120   6.267   5.397   4.919  2.1835  2.7912 -0.3033
  183MOL0     H24121   6.512   5.351   4.936 -0.6450  4.7291  0.2538
  183MOL0     H24122   6.740   5.309   4.910 -0.5631 -0.8638 -0.6401
  183MOL0     H24123   6.784   5.432   4.801  1.5447 -0.2639 -1.7413
  183MOL0     H24124   6.879   5.148   4.798 -3.2557  0.6157  0.8841
  183MOL0     H24125   6.975   5.277   4.869 -0.6482  2.1399 -0.8038
  183MOL0     H24126   6.915   5.237   4.569 -2.2046 -0.0018  1.0774
  183MOL0     H24127   7.082   5.252   4.644  0.9881  2.4559 -2.2804
  183MOL0     H24128   6.872   5.486   4.633 -0.4116 -1.7768  0.8297
  183MOL0     H24129   7.029   5.492   4.710 -1.6317 -1.5256  1.8854
  183MOL0     H24130   7.015   5.589   4.485 -0.9009  0.0405  1.3570
  183MOL0     H24131   6.985   5.427   4.418  1.8593  0.3873 -1.3513
  183MOL0     H24132   7.209   5.356   4.503  1.6446 -0.6483 -0.0354
  183MOL0     H24133   7.244   5.513   4.572  0.0348 -0.3572  0.9730
  183MOL0     H24134   7.335   5.443   4.367 -0.9059 -2.9048  5.0408
  183MOL0     H24135   7.173   5.471   4.281 -0.4577 -1.6099  1.5564
  183MOL0     H24136   7.343   5.673   4.431  1.2102 -1.5785 -0.2191
  183MOL0     H24137   7.180   5.709   4.365 -0.7636  0.2321 -0.8791
  183MOL0     H24138   6.535   5.289   4.510 -0.8241 -0.3998 -1.2007
  183MOL0     H24139   6.292   5.321   4.488 -0.5840 -1.4124 -0.3137
  183MOL0     H24140   5.949   5.541   4.743  0.6795 -0.9563  0.7031
  183MOL0     H24141   5.732   5.627   4.733 -2.2930 -0.0625  1.2112
  183MOL0     H24142   3.904   5.696   4.528  2.0545 -0.4416  0.6048
  183MOL0     H24143   3.722   5.708   4.370 -0.9710  0.6276 -0.2197
  183MOL0     H24144   3.463   6.021   4.136  2.5746  0.2027 -1.7520
  183MOL0     H24145   3.282   6.085   3.988 -0.9118 -0.9220  0.2914
  183MOL0     H24146   3.158   6.126   3.830 -3.3690 -1.0437  3.3004
  183MOL0     H24147   3.015   6.029   3.825  0.1738 -0.6421  0.7603
  183MOL0     H24148   3.055   6.171   3.627 -1.2095 -0.5026  3.4569
  183MOL0     H24149   3.206   6.069   3.590  0.2410  0.8129  1.1117
  183MOL0     H24150   3.051   5.870   3.578 -2.8537 -1.1536  1.0972
  183MOL0     H24151   3.052   5.983   3.438  0.2394  2.7774  0.1182
  183MOL0     H24152   2.830   5.939   3.462  2.8501 -0.8067 -0.3669
  183MOL0     H24153   2.834   5.963   3.642  3.1022  0.2619  0.5164
  183MOL0     H24154   2.785   6.347   3.449  3.0302  1.8084  0.4418
  183MOL0     H24155   3.347   5.721   3.776  2.9860 -0.0230 -0.7979
  183MOL0     H24156   3.523   5.651   3.912 -0.7945 -0.2387 -1.5746
  184MOL0     O24157   5.136   8.437   3.377  0.3135 -0.3165  0.0986
  184MOL0     C24158   5.198   8.329   3.391  0.6939  0.6230 -0.2226
  184MOL0     O24159   5.310   8.286   3.328  0.6655 -0.5536  0.0085
  184MOL0     C24160   5.355   8.329   3.205  0.0683  0.0413 -0.3584
  184MOL0     C24161   5.331   8.457   3.150  0.5493 -0.2764 -0.7587
  184MOL0     C24162   5.382   8.494   3.028  0.1380  0.7070  0.2854
  184MOL0     C24163   5.447   8.388   2.947 -0.2807 -0.1362  0.1233
  184MOL0     O24164   5.505   8.418   2.831 -0.8510 -0.2621  0.0435
  184MOL0     C24165   5.626   8.491   2.851 -0.4985 -0.1546  0.5519
  184MOL0     C24166   5.725   8.430   2.748  0.6460 -0.5247  0.9641
  184MOL0     C24167   5.772   8.293   2.787 -0.2394  0.6326  0.6736
  184MOL0     C24168   5.867   8.237   2.676  0.3952 -0.0014 -0.7010
  184MOL0     C24169   5.894   8.091   2.701  0.8586  0.5413 -0.0328
  184MOL0     C24170   5.988   8.014   2.605 -0.5240 -0.0697 -0.3917
  184MOL0     C24171   5.920   8.002   2.469 -0.4208  0.5097 -0.3132
  184MOL0     C24172   5.794   7.912   2.460 -0.2226 -0.0759  0.0280
  184MOL0     N24173   5.738   7.895   2.325 -0.6790 -0.7367 -0.5940
  184MOL0     C24174   5.688   8.002   2.253  0.1088 -0.0730 -0.8977
  184MOL0     C24175   5.649   7.950   2.143  0.3548  0.1241  0.2849
  184MOL0     C24176   5.592   8.024   2.024 -0.2077 -0.7272 -0.3019
  184MOL0     C24177   5.693   8.142   1.988 -0.5264 -0.0914  0.0559
  184MOL0     C24178   5.669   8.176   1.845 -0.4968 -0.2484 -0.3077
  184MOL0     C24179   5.522   8.212   1.811 -0.4652  0.1641 -0.8112
  184MOL0     O24180   5.485   8.334   1.869 -0.1698 -0.2663  0.0917
  184MOL0     C24181   5.508   8.454   1.807 -1.0051 -0.4654  0.0339
  184MOL0     C24182   5.610   8.479   1.709 -0.5280 -0.8017  0.1620
  184MOL0     C24183   5.639   8.616   1.678 -0.8443  0.7187 -0.5520
  184MOL0     C24184   5.579   8.728   1.730  1.0574  1.1202 -0.1904
  184MOL0     C24185   5.621   8.862   1.696 -0.4345 -0.0980 -0.1392
  184MOL0     O24186   5.744   8.870   1.628  0.2561 -0.8559  0.1459
  184MOL0     C24187   5.813   8.992   1.631 -1.1218  0.7856 -0.9862
  184MOL0     C24188   5.756   9.111   1.587 -0.4720  0.8354  0.3954
  184MOL0     C24189   5.835   9.229   1.588  0.6428  0.6325 -1.4026
  184MOL0     C24190   5.968   9.223   1.621 -0.3633  0.9651 -0.2835
  184MOL0     O24191   6.032   9.346   1.631 -0.0860 -0.2141  0.1685
  184MOL0     C24192   6.167   9.359   1.682 -0.0573  0.0549 -0.1121
  184MOL0     C24193   6.267   9.344   1.561  0.5290 -0.7572 -0.1366
  184MOL0     C24194   6.406   9.389   1.600 -0.1053  1.3173  0.3501
  184MOL0     C24195   6.505   9.357   1.494  0.8021  0.8389  0.1579
  184MOL0     C24196   6.552   9.210   1.487  0.3931  1.0188  0.4568
  184MOL0     C24197   6.591   9.150   1.626  1.1568 -0.7951 -0.1807
  184MOL0     C24198   6.704   9.247   1.674  0.3530 -0.0220 -0.7769
  184MOL0     C24199   6.772   9.176   1.790 -0.6975  0.4000  0.5156
  184MOL0    Cl24200   6.925   9.277   1.818 -0.3529 -0.2053 -0.2463
  184MOL0     C24201   6.027   9.104   1.661 -0.0106 -0.2499  1.4793
  184MOL0     C24202   5.950   8.989   1.668  0.4317  0.3172  0.0988
  184MOL0     O24203   5.561   8.961   1.742  0.3434 -0.4985  0.1691
  184MOL0     C24204   5.475   8.698   1.812  0.2928 -0.3331 -0.7503
  184MOL0     C24205   5.447   8.569   1.864  0.1858  0.8677 -0.4842
  184MOL0     N24206   5.658   7.814   2.146  0.2241 -0.8921  0.9818
  184MOL0     N24207   5.713   7.785   2.256  0.1188 -0.1481  0.6316
  184MOL0     C24208   5.470   8.262   3.004 -0.6196 -0.1876  0.1433
  184MOL0     C24209   5.432   8.238   3.133  0.1679 -0.4825 -0.1191
  184MOL0     C24210   5.144   8.232   3.482 -1.0301  0.5438 -0.3003
  184MOL0     C24211   5.042   8.290   3.569 -0.1448  0.2395  0.8068
  184MOL0     C24212   4.992   8.220   3.680 -0.9506  0.1764  0.8718
  184MOL0     C24213   5.039   8.086   3.700  0.3178 -0.6438  0.1077
  184MOL0     O24214   4.974   8.034   3.809 -0.3354  0.3950 -0.4118
  184MOL0     C24215   5.000   7.889   3.842 -0.1237 -0.8861  0.4125
  184MOL0     C24216   4.938   7.848   3.969 -0.2170  0.6806  0.6618
  184MOL0     C24217   4.976   7.949   4.083 -0.6147 -0.0460  1.0853
  184MOL0     C24218   4.864   7.934   4.192 -0.4778 -0.2825 -0.9287
  184MOL0     C24219   4.891   8.019   4.309  0.1111 -0.2500  0.6738
  184MOL0     C24220   4.905   8.088   4.412 -0.7546 -0.0843 -0.0455
  184MOL0     C24221   5.134   8.025   3.618  0.3731 -1.3700  0.2776
  184MOL0     C24222   5.184   8.102   3.512  0.4536  0.0761  0.4509
  184MOL0     H24223   5.293   8.538   3.211 -0.7330 -1.0732 -0.4653
  184MOL0     H24224   5.373   8.598   3.000 -0.4190  0.4117 -0.6765
  184MOL0     H24225   5.680   8.484   2.946  1.5199 -0.8301 -0.5769
  184MOL0     H24226   5.603   8.592   2.817  0.6869 -0.5746 -1.6520
  184MOL0     H24227   5.808   8.497   2.723  0.2348  0.5922  2.4441
  184MOL0     H24228   5.673   8.424   2.652  3.5520  3.6504 -1.1633
  184MOL0     H24229   5.685   8.230   2.808 -0.2803  0.7302  0.7969
  184MOL0     H24230   5.823   8.302   2.883 -1.5565 -1.9249  1.7090
  184MOL0     H24231   5.832   8.255   2.574  0.2514  1.1496 -0.4677
  184MOL0     H24232   5.962   8.292   2.670  0.9258 -0.9796 -1.6227
  184MOL0     H24233   5.798   8.041   2.690  1.2597  0.0602 -1.4731
  184MOL0     H24234   5.924   8.089   2.807 -0.2356  2.9302  0.4068
  184MOL0     H24235   6.000   7.911   2.641  2.4338  0.1899 -0.4025
  184MOL0     H24236   6.081   8.070   2.605  0.6925 -1.9856  0.5673
  184MOL0     H24237   5.897   8.101   2.428  3.8535  2.2673  1.0222
  184MOL0     H24238   5.994   7.969   2.396 -1.6192 -0.5998 -1.0790
  184MOL0     H24239   5.709   7.952   2.516 -1.8153 -0.9280 -1.6667
  184MOL0     H24240   5.827   7.813   2.492 -2.6249 -1.2812 -0.9343
  184MOL0     H24241   5.685   8.106   2.284  0.3505 -0.6808  1.3738
  184MOL0     H24242   5.498   8.062   2.066  0.6042  1.9075 -0.6964
  184MOL0     H24243   5.582   7.955   1.939 -0.2932 -1.0995  0.0046
  184MOL0     H24244   5.796   8.106   2.003 -1.4435 -2.8070  0.4505
  184MOL0     H24245   5.679   8.234   2.046  1.3535  2.2772 -2.9262
  184MOL0     H24246   5.737   8.252   1.805 -1.0562 -0.7927 -2.3754
  184MOL0     H24247   5.687   8.079   1.799 -1.5111 -1.2718  1.3601
  184MOL0     H24248   5.451   8.140   1.853  0.4275  0.2279  0.9171
  184MOL0     H24249   5.513   8.209   1.702  2.3690 -0.7394 -1.1019
  184MOL0     H24250   5.671   8.401   1.664  1.9101 -0.5592  2.7312
  184MOL0     H24251   5.732   8.619   1.624  0.6009  1.6302  1.8298
  184MOL0     H24252   5.658   9.132   1.546  0.5023 -0.2859 -2.8386
  184MOL0     H24253   5.797   9.327   1.561  0.3249  0.1042 -3.0244
  184MOL0     H24254   6.194   9.282   1.755 -1.7448 -1.7470 -1.2533
  184MOL0     H24255   6.180   9.459   1.724  0.3924  0.2947 -0.7948
  184MOL0     H24256   6.235   9.402   1.475  0.9528  1.7389  1.2785
  184MOL0     H24257   6.261   9.239   1.533 -0.3811 -0.4304 -1.2202
  184MOL0     H24258   6.429   9.363   1.704  2.0043  0.9147 -0.1715
  184MOL0     H24259   6.399   9.498   1.598 -2.0815  1.2450  1.1948
  184MOL0     H24260   6.467   9.379   1.394  0.1803  1.0197  0.4232
  184MOL0     H24261   6.589   9.425   1.511  2.3087 -1.1559  1.0063
  184MOL0     H24262   6.636   9.195   1.419 -0.9946 -2.1354 -0.7583
  184MOL0     H24263   6.466   9.159   1.442  0.9884  1.5034 -1.3175
  184MOL0     H24264   6.616   9.044   1.617 -1.0975 -1.2515 -2.0555
  184MOL0     H24265   6.510   9.151   1.699  0.0253  1.0537 -1.3753
  184MOL0     H24266   6.774   9.269   1.593 -0.1026 -2.4850 -1.9375
  184MOL0     H24267   6.657   9.334   1.721  1.1369  0.3228 -0.6090
  184MOL0     H24268   6.795   9.078   1.746  0.9918  0.9670  0.1036
  184MOL0     H24269   6.719   9.161   1.885  1.9813 -0.7896  1.9333
  184MOL0     H24270   6.133   9.094   1.682  1.4400  0.2194 -4.0332
  184MOL0     H24271   5.991   8.893   1.696 -1.8420 -2.1928 -4.0933
  184MOL0     H24272   5.435   8.781   1.869  1.2877  0.0054 -0.5404
  184MOL0     H24273   5.373   8.562   1.943 -0.1058  0.4070 -0.7912
  184MOL0     H24274   5.511   8.186   2.938  1.8600  2.6789 -1.8638
  184MOL0     H24275   5.456   8.140   3.175 -0.0915 -1.0512 -1.2585
  184MOL0     H24276   5.001   8.390   3.558  0.7552  0.3801 -1.8829
  184MOL0     H24277   4.916   8.266   3.743  0.2806  1.5117  1.4175
  184MOL0     H24278   5.108   7.876   3.831  0.3129  2.6390 -0.7272
  184MOL0     H24279   4.967   7.835   3.752  1.5455  0.6977 -1.2266
  184MOL0     H24280   4.829   7.853   3.957 -0.6583 -1.4745  2.8926
  184MOL0     H24281   4.972   7.747   3.993 -1.6714 -0.1784 -0.7092
  184MOL0     H24282   4.976   8.051   4.044  1.0802 -0.2828  0.3750
  184MOL0     H24283   5.079   7.934   4.115 -0.0397  0.3390 -0.5373
  184MOL0     H24284   4.774   7.972   4.143 -0.7809 -2.6273 -2.3699
  184MOL0     H24285   4.848   7.828   4.217  2.4568 -0.3219  1.3474
  184MOL0     H24286   4.922   8.132   4.508  0.5040 -2.1348  0.7367
  184MOL0     H24287   5.177   7.926   3.625  1.2160 -0.9024  2.7444
  184MOL0     H24288   5.253   8.072   3.433 -0.0602  1.5483 -0.6174
  185MOL0     O24289   6.203   1.728   8.157 -0.4991  0.5003 -1.3405
  185MOL0     C24290   6.182   1.756   8.039 -0.1561  0.0902  0.4199
  185MOL0     O24291   6.171   1.884   8.000 -0.3111  0.2334  0.7708
  185MOL0     C24292   6.234   1.983   8.071 -0.5129 -0.6315  0.0693
  185MOL0     C24293   6.359   1.976   8.148 -0.3532  1.0265  0.5568
  185MOL0     C24294   6.412   2.075   8.223  0.4959 -1.2785  0.1319
  185MOL0     C24295   6.339   2.201   8.233  0.6400  0.7588  0.7314
  185MOL0     O24296   6.400   2.311   8.302  1.0355 -0.4017  0.2563
  185MOL0     C24297   6.531   2.315   8.342 -0.6366 -0.6872  0.1821
  185MOL0     C24298   6.551   2.438   8.419 -0.2703 -0.5847 -0.0913
  185MOL0     C24299   6.682   2.457   8.486 -0.7406  0.5548  0.0569
  185MOL0     C24300   6.775   2.506   8.369 -0.8380  0.4640  0.8746
  185MOL0     C24301   6.919   2.532   8.425  0.4422 -0.1292  0.2374
  185MOL0     C24302   6.944   2.668   8.493 -0.2998  0.4747 -0.0577
  185MOL0     C24303   7.099   2.692   8.511 -1.0438  0.7004 -0.0727
  185MOL0     C24304   7.132   2.836   8.541  0.6352 -0.5966  0.1429
  185MOL0     N24305   7.238   2.859   8.640  0.9706  0.1031 -0.5205
  185MOL0     C24306   7.204   2.882   8.770  0.0882 -0.1556  0.1155
  185MOL0     C24307   7.325   2.866   8.830  0.2740 -0.0373  0.2100
  185MOL0     C24308   7.362   2.910   8.972  0.6594  0.4127  0.0851
  185MOL0     C24309   7.301   2.802   9.066 -0.1438  0.1796 -0.4213
  185MOL0     C24310   7.354   2.829   9.207  0.7686 -0.6782 -0.6328
  185MOL0     C24311   7.304   2.749   9.320  0.7058  0.0639 -0.5436
  185MOL0     O24312   7.165   2.730   9.347 -0.3350  0.0692  0.2310
  185MOL0     C24313   7.123   2.644   9.447 -0.1144 -0.8898 -0.4061
  185MOL0     C24314   6.984   2.632   9.464 -0.5115  0.8187 -0.6724
  185MOL0     C24315   6.927   2.550   9.568 -0.8282  0.3401  0.1595
  185MOL0     C24316   7.017   2.481   9.657 -0.0418  0.0366  0.3464
  185MOL0     C24317   6.971   2.405   9.771  1.3648 -0.5137 -0.4876
  185MOL0     O24318   6.834   2.414   9.805  1.1896  0.4252  0.1026
  185MOL0     C24319   6.765   2.331   9.900 -0.3641 -0.0202  0.7002
  185MOL0     C24320   6.629   2.357   9.910 -0.0314  1.1426 -0.3165
  185MOL0     C24321   6.556   2.263   9.987  0.6047 -0.2242 -1.1415
  185MOL0     C24322   6.606   2.151  10.060 -0.5454 -0.4934 -0.3897
  185MOL0     O24323   6.529   2.051  10.122  0.0299 -0.2016  0.2594
  185MOL0     C24324   6.393   2.099  10.157  0.5516 -0.1225 -0.4768
  185MOL0     C24325   6.334   2.012  10.266 -0.0338  0.2259 -0.6918
  185MOL0     C24326   6.403   2.011  10.407  0.3668 -0.2388 -0.6352
  185MOL0     C24327   6.331   1.930  10.516 -0.3466 -1.2995  0.1600
  185MOL0     C24328   6.376   1.993  10.649 -0.5213  0.1972 -0.1548
  185MOL0     C24329   6.299   1.938  10.775 -0.2940  0.1746 -0.2097
  185MOL0     C24330   6.341   1.971  10.917 -0.3916  0.5217 -0.1925
  185MOL0     C24331   6.282   1.876  11.029  0.1490  0.8230  0.0979
  185MOL0    Cl24332   6.101   1.868  11.006 -0.9053 -0.4833  0.2809
  185MOL0     C24333   6.742   2.131  10.044  0.8799 -0.1265 -0.0937
  185MOL0     C24334   6.817   2.219   9.967  0.1141  0.4392 -0.2734
  185MOL0     O24335   7.046   2.332   9.834 -0.1223 -0.4686  0.4700
  185MOL0     C24336   7.155   2.491   9.637  0.3123 -0.6333 -0.5409
  185MOL0     C24337   7.206   2.579   9.537 -1.0015 -0.0668 -1.5579
  185MOL0     N24338   7.427   2.847   8.736 -0.0829 -0.2480  0.8940
  185MOL0     N24339   7.369   2.835   8.620 -0.0826 -0.3970  0.3886
  185MOL0     C24340   6.213   2.211   8.169 -0.4808 -0.5226 -1.6015
  185MOL0     C24341   6.168   2.108   8.080  0.1207  0.3492  0.2808
  185MOL0     C24342   6.180   1.637   7.934  0.3608 -0.3250  0.0745
  185MOL0     C24343   6.171   1.667   7.797 -0.0891 -0.4754 -0.1829
  185MOL0     C24344   6.152   1.559   7.706  0.0653 -0.1783  0.5652
  185MOL0     C24345   6.182   1.424   7.738 -0.0050 -0.2854 -0.3561
  185MOL0     O24346   6.182   1.330   7.633 -0.4323  0.1049 -0.1395
  185MOL0     C24347   6.266   1.217   7.649  0.7081  1.5724 -0.1549
  185MOL0     C24348   6.310   1.167   7.514 -0.2070  0.2419 -1.2106
  185MOL0     C24349   6.389   1.032   7.514  0.5591  0.3029 -0.0696
  185MOL0     C24350   6.439   0.976   7.378 -0.4329 -0.2011  0.0155
  185MOL0     C24351   6.528   0.864   7.399  0.0074  0.5292 -0.2659
  185MOL0     C24352   6.595   0.758   7.425 -0.3219 -0.1161  0.4346
  185MOL0     C24353   6.210   1.403   7.883  0.2520  0.3312 -0.1280
  185MOL0     C24354   6.212   1.509   7.978  1.0516  0.1832 -0.6001
  185MOL0     H24355   6.426   1.892   8.141  0.3245  1.4496  1.7557
  185MOL0     H24356   6.514   2.069   8.259  0.0395  1.4450  2.2162
  185MOL0     H24357   6.601   2.301   8.259  0.3096 -4.9030  1.4096
  185MOL0     H24358   6.547   2.228   8.407  0.1044 -2.6291 -2.4335
  185MOL0     H24359   6.473   2.433   8.495 -2.1328  3.2595 -1.4710
  185MOL0     H24360   6.517   2.526   8.363 -0.4630 -0.1242  0.7339
  185MOL0     H24361   6.708   2.360   8.530  0.6571 -0.3450 -2.5970
  185MOL0     H24362   6.663   2.527   8.569 -0.6000 -0.2766  0.8030
  185MOL0     H24363   6.783   2.435   8.286 -2.0452  0.1095  1.0450
  185MOL0     H24364   6.735   2.600   8.331  0.1846  0.7481  0.4737
  185MOL0     H24365   7.000   2.517   8.353 -0.2966  0.5166 -0.7633
  185MOL0     H24366   6.934   2.449   8.494  1.1003 -0.6983 -0.5730
  185MOL0     H24367   6.898   2.669   8.592  0.1651 -0.1953  0.1746
  185MOL0     H24368   6.905   2.743   8.423  2.2233  3.6702  1.7033
  185MOL0     H24369   7.129   2.632   8.598 -0.1616 -0.0127 -0.8630
  185MOL0     H24370   7.158   2.656   8.427 -4.1466 -2.4316 -1.1841
  185MOL0     H24371   7.048   2.900   8.571 -0.3760 -1.3183 -1.0374
  185MOL0     H24372   7.175   2.869   8.446  2.7916 -3.4849  0.0008
  185MOL0     H24373   7.110   2.926   8.802 -0.0184 -0.1739 -0.1629
  185MOL0     H24374   7.318   3.009   8.990 -1.2932 -0.5868  1.1997
  185MOL0     H24375   7.468   2.926   8.993  0.3696  3.2959 -0.3095
  185MOL0     H24376   7.333   2.701   9.040 -0.7774 -0.9470  2.6526
  185MOL0     H24377   7.192   2.811   9.065 -0.3713  1.8059  4.8937
  185MOL0     H24378   7.462   2.816   9.211  0.8895  0.4444  1.8706
  185MOL0     H24379   7.331   2.935   9.225 -1.2643 -1.3355  1.0662
  185MOL0     H24380   7.348   2.777   9.417  0.0042  1.0844 -0.5033
  185MOL0     H24381   7.334   2.644   9.306  4.7810  1.1696 -1.7338
  185MOL0     H24382   6.917   2.688   9.399  2.9311  5.4580 -0.7149
  185MOL0     H24383   6.821   2.533   9.579 -0.7372  1.1751  3.1390
  185MOL0     H24384   6.577   2.433   9.852 -1.9054 -0.5379 -0.9628
  185MOL0     H24385   6.449   2.277  10.001  1.2376  1.5978  3.4160
  185MOL0     H24386   6.331   2.083  10.069  1.2290 -0.3515 -0.9150
  185MOL0     H24387   6.407   2.198  10.202  1.5963 -0.3077 -0.3583
  185MOL0     H24388   6.320   1.908  10.233 -1.7191  0.0431  0.4662
  185MOL0     H24389   6.232   2.050  10.274 -0.1923 -0.2618 -0.3110
  185MOL0     H24390   6.421   2.117  10.429 -2.0188  0.4785 -1.7419
  185MOL0     H24391   6.497   1.957  10.406  0.5592  0.0801 -0.0871
  185MOL0     H24392   6.223   1.948  10.514 -0.0343  1.1935  1.3928
  185MOL0     H24393   6.371   1.829  10.502  1.0721 -1.0669  2.0731
  185MOL0     H24394   6.364   2.101  10.641  0.0412  0.3090  0.4188
  185MOL0     H24395   6.483   1.973  10.662 -0.6078 -1.3509 -1.4968
  185MOL0     H24396   6.321   1.833  10.753  1.0729 -0.0488  1.9871
  185MOL0     H24397   6.195   1.969  10.761  0.0487  2.4208  1.6707
  185MOL0     H24398   6.450   1.981  10.919 -0.4465  1.0039  0.7165
  185MOL0     H24399   6.319   2.075  10.940  3.8455  1.5515  0.1011
  185MOL0     H24400   6.294   1.913  11.131 -2.0180 -0.9337  1.0925
  185MOL0     H24401   6.323   1.775  11.027 -0.8011  0.4159  0.2851
  185MOL0     H24402   6.788   2.050  10.100  0.4879  0.7843  1.6363
  185MOL0     H24403   6.921   2.190   9.973  0.2532  0.3555 -2.3064
  185MOL0     H24404   7.221   2.431   9.698  1.1561 -0.0079 -0.8236
  185MOL0     H24405   7.314   2.588   9.534 -0.8958 -1.4757 -3.3172
  185MOL0     H24406   6.158   2.300   8.199  1.2311 -0.1907  0.9681
  185MOL0     H24407   6.071   2.116   8.032 -0.8668  2.1697  2.4185
  185MOL0     H24408   6.170   1.769   7.759  2.2766 -0.3297 -0.0170
  185MOL0     H24409   6.119   1.577   7.604 -1.0960  3.4933  1.4365
  185MOL0     H24410   6.213   1.128   7.684  0.9479  0.5926 -2.1386
  185MOL0     H24411   6.350   1.238   7.716 -0.5264  0.1157  1.9581
  185MOL0     H24412   6.217   1.164   7.456 -1.1799  0.8240  0.2729
  185MOL0     H24413   6.364   1.246   7.460  1.3664  0.4838  0.6234
  185MOL0     H24414   6.318   0.967   7.565 -1.1722  1.8955 -0.3473
  185MOL0     H24415   6.474   1.041   7.582 -1.5006  2.9129  2.4468
  185MOL0     H24416   6.356   0.957   7.309 -2.0852  4.8191  0.1656
  185MOL0     H24417   6.491   1.054   7.321  0.2965 -1.0986 -0.5768
  185MOL0     H24418   6.648   0.665   7.421 -0.4498 -0.1756  0.0562
  185MOL0     H24419   6.239   1.305   7.921  2.8805  1.5006  1.0937
  185MOL0     H24420   6.236   1.505   8.083 -2.6706  0.8734  0.4104
  186MOL0     O24421  10.781   6.382   2.610  0.4587  0.7708  0.6666
  186MOL0     C24422  10.750   6.491   2.575 -0.0538  0.3087  0.6026
  186MOL0     O24423  10.618   6.536   2.567 -0.0490  0.1878  0.4118
  186MOL0     C24424  10.520   6.442   2.588 -0.8408 -0.3197  0.0832
  186MOL0     C24425  10.490   6.352   2.493 -0.5489  0.6904 -0.0503
  186MOL0     C24426  10.374   6.272   2.501 -0.0176 -0.7420 -0.6439
  186MOL0     C24427  10.301   6.285   2.620  0.8942  0.9128 -0.4870
  186MOL0     O24428  10.180   6.221   2.643  0.5519 -0.3448  0.2855
  186MOL0     C24429  10.154   6.096   2.587 -0.3821 -0.0192  0.8327
  186MOL0     C24430  10.008   6.063   2.596  0.0022  1.0161  0.0824
  186MOL0     C24431   9.966   5.940   2.506 -0.6701 -0.1856 -0.3569
  186MOL0     C24432   9.817   5.907   2.540  0.0722 -0.3516  0.2965
  186MOL0     C24433   9.776   5.895   2.685 -0.3254 -0.4719  0.3224
  186MOL0     C24434   9.842   5.776   2.750  0.5945  0.3535 -0.5796
  186MOL0     C24435   9.827   5.775   2.902  0.0043 -0.4590  0.9994
  186MOL0     C24436   9.687   5.771   2.945  1.0977  0.4216 -0.1591
  186MOL0     N24437   9.628   5.639   2.911  0.1747  0.4207  0.0076
  186MOL0     C24438   9.661   5.507   2.934 -1.0159  0.7205 -0.2148
  186MOL0     C24439   9.552   5.429   2.900  0.0966 -0.6490 -0.7124
  186MOL0     C24440   9.538   5.284   2.931 -0.2723 -0.5340  0.8917
  186MOL0     C24441   9.659   5.203   2.872  0.4022 -0.9519 -0.2644
  186MOL0     C24442   9.664   5.059   2.932 -0.0914  0.3049  0.0160
  186MOL0     C24443   9.532   4.985   2.898  0.3507 -0.1198 -0.1325
  186MOL0     O24444   9.532   4.857   2.969 -0.3150  1.2558  0.6027
  186MOL0     C24445   9.547   4.737   2.897 -1.2282  0.4565 -1.4392
  186MOL0     C24446   9.505   4.613   2.957 -0.0995 -0.8010  1.5254
  186MOL0     C24447   9.539   4.490   2.901  1.0047 -0.0036 -0.2253
  186MOL0     C24448   9.625   4.481   2.788  1.1352 -0.7646  0.3501
  186MOL0     C24449   9.666   4.348   2.735  0.0488 -0.3204  0.0483
  186MOL0     O24450   9.584   4.231   2.736  0.3685  0.5179 -0.6439
  186MOL0     C24451   9.617   4.104   2.680  0.5032 -0.6392 -0.7194
  186MOL0     C24452   9.753   4.056   2.649 -0.2316 -1.0651 -0.1917
  186MOL0     C24453   9.781   3.919   2.636 -0.0708 -0.3450  0.3040
  186MOL0     C24454   9.675   3.828   2.632  0.5227 -0.7383 -0.0075
  186MOL0     O24455   9.693   3.686   2.640  0.7831 -0.4648  0.5109
  186MOL0     C24456   9.816   3.618   2.642 -0.4578  0.0329  0.6415
  186MOL0     C24457   9.797   3.493   2.558 -0.9707 -0.1302  0.2478
  186MOL0     C24458   9.733   3.375   2.632 -0.0431 -0.3778 -0.1250
  186MOL0     C24459   9.726   3.247   2.546 -0.2394 -0.6092 -0.7329
  186MOL0     C24460   9.659   3.119   2.603  0.5908  0.3343  0.3681
  186MOL0     C24461   9.593   3.029   2.496 -0.0332  0.1283  0.4326
  186MOL0     C24462   9.692   2.990   2.382  0.5900 -0.2307 -0.0413
  186MOL0     C24463   9.629   2.891   2.280  0.7999 -0.0091  0.2092
  186MOL0    Cl24464   9.449   2.911   2.259  0.1367 -0.8375  0.2726
  186MOL0     C24465   9.548   3.882   2.653 -0.5595  0.7560  0.2434
  186MOL0     C24466   9.522   4.011   2.675  0.1667 -0.9298 -0.3172
  186MOL0     O24467   9.776   4.349   2.689  0.2880 -1.3333 -0.5125
  186MOL0     C24468   9.667   4.606   2.733 -0.1183  0.0514 -0.4613
  186MOL0     C24469   9.634   4.731   2.787 -0.0610  0.1435 -1.0271
  186MOL0     N24470   9.452   5.514   2.869  0.6952 -0.1320  0.4741
  186MOL0     N24471   9.497   5.634   2.867  0.1587 -0.1573  0.1411
  186MOL0     C24472  10.333   6.384   2.716 -0.5459 -0.6010 -0.3874
  186MOL0     C24473  10.446   6.453   2.697  1.2693 -0.1944 -0.8282
  186MOL0     C24474  10.850   6.591   2.539 -0.7016  1.2498  0.3487
  186MOL0     C24475  10.823   6.697   2.454  0.1613  0.2644  0.0210
  186MOL0     C24476  10.929   6.771   2.419  1.2729  0.1254  0.4527
  186MOL0     C24477  11.052   6.752   2.469 -0.2395  0.8377  0.2597
  186MOL0     O24478  11.168   6.824   2.428  0.5961  0.0141  0.1775
  186MOL0     C24479  11.157   6.964   2.403  0.6140 -0.0097  0.1039
  186MOL0     C24480  11.301   7.013   2.391 -0.0764  0.2484 -0.6877
  186MOL0     C24481  11.357   7.032   2.531 -0.0708  0.1452 -0.5552
  186MOL0     C24482  11.505   7.067   2.552 -0.7457 -0.6159 -1.0272
  186MOL0     C24483  11.531   7.101   2.691  0.2553  0.5580 -0.5108
  186MOL0     C24484  11.553   7.149   2.796  0.2341  0.9696  0.0720
  186MOL0     C24485  11.073   6.654   2.566 -0.7185  0.4111 -0.2835
  186MOL0     C24486  10.978   6.564   2.590  0.1994 -0.0501  0.3358
  186MOL0     H24487  10.562   6.338   2.412  2.8912 -0.7827  2.9856
  186MOL0     H24488  10.360   6.214   2.410 -0.7589 -0.2788 -0.8272
  186MOL0     H24489  10.217   6.023   2.639  0.0939  2.1290  3.5479
  186MOL0     H24490  10.178   6.087   2.481 -0.0266 -1.0820  0.9908
  186MOL0     H24491   9.949   6.145   2.556  2.1765  1.9099 -1.4791
  186MOL0     H24492   9.986   6.047   2.702  0.7515 -0.2929  0.0612
  186MOL0     H24493  10.024   5.850   2.530 -1.7419 -1.2948 -1.7217
  186MOL0     H24494   9.977   5.954   2.398 -3.6395  1.3483 -0.5459
  186MOL0     H24495   9.754   5.978   2.485  1.0111  0.2848  0.0190
  186MOL0     H24496   9.793   5.811   2.495  0.2120 -0.5445  0.6278
  186MOL0     H24497   9.668   5.880   2.692 -0.3494  0.3936  2.3312
  186MOL0     H24498   9.792   5.987   2.742  1.4593 -1.2334  1.1313
  186MOL0     H24499   9.947   5.771   2.720  1.2237  2.7049  0.9970
  186MOL0     H24500   9.787   5.690   2.711 -1.8073 -1.0646  5.0234
  186MOL0     H24501   9.878   5.690   2.948 -1.7797 -1.0030  2.0588
  186MOL0     H24502   9.859   5.875   2.933  3.8432 -0.0520 -3.2221
  186MOL0     H24503   9.633   5.855   2.900 -3.0420 -1.6949  0.3823
  186MOL0     H24504   9.690   5.781   3.054 -0.3763  0.0905 -0.0633
  186MOL0     H24505   9.754   5.463   2.968 -1.3285  1.1912  1.3578
  186MOL0     H24506   9.446   5.253   2.880  0.3538 -1.2586  0.1833
  186MOL0     H24507   9.512   5.256   3.034 -0.5924  0.5654  1.1271
  186MOL0     H24508   9.756   5.250   2.892  0.2503 -1.7278  2.8263
  186MOL0     H24509   9.645   5.190   2.764 -0.7196  0.4424 -0.3259
  186MOL0     H24510   9.751   5.008   2.890 -0.2394  1.0314 -1.2273
  186MOL0     H24511   9.661   5.065   3.041 -1.3136 -4.1321  0.4063
  186MOL0     H24512   9.514   4.969   2.792 -2.2075  1.8477 -0.0701
  186MOL0     H24513   9.444   5.045   2.923  0.4721  0.7834 -1.7756
  186MOL0     H24514   9.437   4.620   3.041 -5.4179  1.3827 -2.3881
  186MOL0     H24515   9.519   4.389   2.935  1.0347 -0.1450 -0.6195
  186MOL0     H24516   9.834   4.126   2.671 -1.1876 -0.6507  2.4602
  186MOL0     H24517   9.884   3.888   2.654  0.9193  3.6970  2.7351
  186MOL0     H24518   9.844   3.595   2.746  1.0681  1.1943  0.5300
  186MOL0     H24519   9.899   3.677   2.601 -0.5416  0.2451  0.7730
  186MOL0     H24520   9.886   3.464   2.501  0.1275  3.2332  0.0104
  186MOL0     H24521   9.726   3.516   2.479 -1.4203  2.3715  1.2600
  186MOL0     H24522   9.630   3.407   2.653  0.3314  0.9827 -0.2250
  186MOL0     H24523   9.790   3.360   2.724  0.7670  3.2793  0.1151
  186MOL0     H24524   9.679   3.298   2.461 -0.9289  0.4362  0.2428
  186MOL0     H24525   9.825   3.221   2.509 -1.3232 -0.8154 -3.7951
  186MOL0     H24526   9.590   3.157   2.679  0.5030 -0.0471  0.4834
  186MOL0     H24527   9.736   3.061   2.656  1.7181 -1.0895 -2.6273
  186MOL0     H24528   9.517   3.079   2.435  2.6984  2.5056 -1.2447
  186MOL0     H24529   9.546   2.942   2.543  0.6436 -0.6809 -0.3629
  186MOL0     H24530   9.743   3.070   2.328  2.4932 -1.1571  0.3045
  186MOL0     H24531   9.771   2.934   2.432 -1.2382  0.1632  3.6245
  186MOL0     H24532   9.638   2.786   2.309  0.9366 -0.1280 -0.2581
  186MOL0     H24533   9.657   2.908   2.176  1.8296 -2.5330  0.0110
  186MOL0     H24534   9.470   3.806   2.652  1.1464 -1.1154  1.3729
  186MOL0     H24535   9.417   4.034   2.687 -0.1404 -1.7653 -1.2849
  186MOL0     H24536   9.738   4.606   2.651 -0.4726 -0.7630 -0.7711
  186MOL0     H24537   9.680   4.822   2.749  0.2884 -0.2126 -1.4670
  186MOL0     H24538  10.243   6.394   2.776 -0.3095 -1.1507  0.0693
  186MOL0     H24539  10.479   6.523   2.773 -0.6175 -2.4308  2.3412
  186MOL0     H24540  10.722   6.697   2.413 -0.5149  3.0276  1.4423
  186MOL0     H24541  10.910   6.846   2.343  0.3959  2.0016  2.4474
  186MOL0     H24542  11.096   7.015   2.478 -1.4369 -1.8752 -0.1978
  186MOL0     H24543  11.120   6.991   2.304 -0.8519 -1.0087  0.3575
  186MOL0     H24544  11.361   6.942   2.333 -0.6128  1.4473 -2.8389
  186MOL0     H24545  11.318   7.108   2.339  4.0099  0.2341  0.2785
  186MOL0     H24546  11.335   6.942   2.589 -0.0074 -0.0313 -0.8077
  186MOL0     H24547  11.304   7.114   2.581 -0.7258 -0.0819 -0.8664
  186MOL0     H24548  11.568   6.979   2.537  3.3217  1.2861  2.5776
  186MOL0     H24549  11.547   7.146   2.489 -2.4570  2.9087  1.8709
  186MOL0     H24550  11.572   7.197   2.890 -0.7004  3.0415 -0.7297
  186MOL0     H24551  11.172   6.627   2.601 -0.4551 -2.3733 -2.7213
  186MOL0     H24552  10.991   6.485   2.664  0.1983 -0.1924  0.1850
  187MOL0     O24553   0.552   8.569   8.378  0.5862  0.4540 -0.2000
  187MOL0     C24554   0.515   8.630   8.281  0.0929  0.2789 -0.2139
  187MOL0     O24555   0.597   8.702   8.202 -0.1685  0.1476 -0.5896
  187MOL0     C24556   0.733   8.672   8.210  0.5140  0.4316 -0.8784
  187MOL0     C24557   0.790   8.578   8.120  0.0256 -0.4554  0.2551
  187MOL0     C24558   0.931   8.563   8.112  0.3498  1.2744  0.1591
  187MOL0     C24559   1.016   8.647   8.193 -0.2976  0.2113  0.4912
  187MOL0     O24560   1.155   8.632   8.189 -0.3375  0.0511 -0.9400
  187MOL0     C24561   1.205   8.502   8.195  0.0608  0.1917  0.0892
  187MOL0     C24562   1.307   8.478   8.078 -0.6043  0.4844  0.0305
  187MOL0     C24563   1.338   8.331   8.073 -0.1815  0.0417 -0.3399
  187MOL0     C24564   1.457   8.301   7.983  0.3771 -0.1239  0.4936
  187MOL0     C24565   1.515   8.166   7.977  0.4302  1.0776  1.0354
  187MOL0     C24566   1.417   8.050   7.954 -0.1983 -1.7877 -1.5728
  187MOL0     C24567   1.340   8.067   7.822  0.5460  0.2823  0.0036
  187MOL0     C24568   1.412   7.985   7.711  0.0470 -0.3139 -0.5041
  187MOL0     N24569   1.391   8.048   7.579 -1.1243 -0.0722 -0.1726
  187MOL0     C24570   1.481   8.144   7.541  0.1961 -0.3575 -0.1102
  187MOL0     C24571   1.417   8.193   7.430  0.3617  0.8601  0.5041
  187MOL0     C24572   1.471   8.306   7.342 -0.3264  0.5920 -0.5824
  187MOL0     C24573   1.520   8.239   7.209  0.0024 -0.5625  0.6603
  187MOL0     C24574   1.418   8.193   7.100  0.1087 -0.7995 -0.1912
  187MOL0     C24575   1.485   8.162   6.966 -0.5017 -0.4610 -0.0003
  187MOL0     O24576   1.502   8.278   6.896  0.2169 -0.6732  0.5159
  187MOL0     C24577   1.389   8.339   6.845 -0.6975  0.1655  0.4472
  187MOL0     C24578   1.265   8.286   6.839  1.2797 -0.4563  0.5820
  187MOL0     C24579   1.158   8.359   6.778 -0.2867 -0.3508 -0.1016
  187MOL0     C24580   1.182   8.477   6.715  0.3222  0.0047  0.3703
  187MOL0     C24581   1.058   8.553   6.662  0.1795  0.0319 -0.3402
  187MOL0     O24582   0.939   8.488   6.668  0.4340 -0.2496  0.3809
  187MOL0     C24583   0.818   8.546   6.628  0.3683  0.5442 -0.0623
  187MOL0     C24584   0.808   8.617   6.508  0.4413 -0.1999 -0.6794
  187MOL0     C24585   0.686   8.660   6.466  0.3089 -0.3863  0.3023
  187MOL0     C24586   0.573   8.642   6.555 -0.8442  0.9457 -0.2240
  187MOL0     O24587   0.446   8.685   6.531 -0.3437 -0.1263 -0.1585
  187MOL0     C24588   0.443   8.773   6.417 -0.0845  0.5305  0.0418
  187MOL0     C24589   0.302   8.816   6.396 -0.1229  0.5003 -0.0793
  187MOL0     C24590   0.202   8.712   6.335 -0.7401 -0.1565 -0.7146
  187MOL0     C24591   0.058   8.777   6.311  0.0004  0.1085  0.1372
  187MOL0     C24592  -0.060   8.682   6.341  0.6641 -0.3854  0.1383
  187MOL0     C24593  -0.161   8.736   6.433 -0.2661  0.2257 -1.5997
  187MOL0     C24594  -0.241   8.844   6.363  0.0801 -0.1464  0.6155
  187MOL0     C24595  -0.373   8.863   6.429  0.1923  0.0861 -0.3609
  187MOL0    Cl24596  -0.356   8.957   6.586 -0.3193 -0.5320  0.7792
  187MOL0     C24597   0.590   8.573   6.673 -0.7072  0.0898 -0.4698
  187MOL0     C24598   0.706   8.521   6.706  0.1411  0.5975 -0.1049
  187MOL0     O24599   1.074   8.669   6.626  0.0317  0.3670 -0.1227
  187MOL0     C24600   1.309   8.533   6.718 -1.1410  0.3442 -0.6508
  187MOL0     C24601   1.412   8.456   6.777  0.0851 -0.6072 -0.1679
  187MOL0     N24602   1.296   8.126   7.404  0.2810 -0.4445  0.2896
  187MOL0     N24603   1.287   8.036   7.494  0.4100 -0.6350 -0.6031
  187MOL0     C24604   0.958   8.743   8.279 -0.1003 -0.4688  0.4294
  187MOL0     C24605   0.817   8.753   8.288 -0.0044  0.1052  0.4375
  187MOL0     C24606   0.371   8.635   8.243 -0.1258 -0.0173  0.1784
  187MOL0     C24607   0.277   8.558   8.313 -0.0541  0.1603 -0.1319
  187MOL0     C24608   0.135   8.565   8.273 -1.0430 -0.2531 -0.1445
  187MOL0     C24609   0.090   8.647   8.173  0.1061  0.1704 -0.5889
  187MOL0     O24610  -0.046   8.664   8.156 -0.0118  0.4398  0.3417
  187MOL0     C24611  -0.105   8.796   8.135  0.6079  0.1393 -0.1468
  187MOL0     C24612  -0.247   8.791   8.174  0.1029  0.8082 -1.1928
  187MOL0     C24613  -0.313   8.936   8.185 -0.4735 -0.1099 -0.7449
  187MOL0     C24614  -0.457   8.935   8.234  0.7511  0.3646  0.2238
  187MOL0     C24615  -0.505   9.070   8.228  0.2916  0.0566 -1.2846
  187MOL0     C24616  -0.533   9.187   8.220 -0.6429  0.3741 -0.8895
  187MOL0     C24617   0.183   8.733   8.110  0.0914 -0.1881  0.9954
  187MOL0     C24618   0.324   8.721   8.137 -1.2476  0.1762  0.2945
  187MOL0     H24619   0.725   8.521   8.054  1.2220 -2.1087  0.4521
  187MOL0     H24620   0.984   8.502   8.039  3.2389  0.2358  2.8939
  187MOL0     H24621   1.122   8.432   8.185  0.6034 -0.2827 -1.4340
  187MOL0     H24622   1.249   8.485   8.294  0.5686  0.7548 -0.0304
  187MOL0     H24623   1.391   8.547   8.091 -1.4854  1.4413  0.7964
  187MOL0     H24624   1.266   8.502   7.980  1.6932  0.4038 -1.0245
  187MOL0     H24625   1.247   8.286   8.033  0.1401 -1.6713  0.7335
  187MOL0     H24626   1.359   8.291   8.173 -0.6579 -1.9462 -0.9886
  187MOL0     H24627   1.442   8.322   7.877  0.1097 -2.5703 -0.0095
  187MOL0     H24628   1.530   8.378   8.013 -2.1897  2.5150  0.3991
  187MOL0     H24629   1.559   8.149   8.076  1.7130  1.1947  0.4979
  187MOL0     H24630   1.601   8.153   7.911  0.1048  2.5356  0.2768
  187MOL0     H24631   1.347   8.036   8.037 -1.9685  0.0014 -2.6795
  187MOL0     H24632   1.475   7.958   7.946  0.7665 -1.1451 -2.1437
  187MOL0     H24633   1.239   8.028   7.838  0.7028  0.1305  0.6400
  187MOL0     H24634   1.337   8.171   7.789 -0.6456  0.4086  0.4616
  187MOL0     H24635   1.377   7.881   7.704  2.4723 -1.1833 -1.0558
  187MOL0     H24636   1.519   7.985   7.734 -0.2871  0.6536  1.2249
  187MOL0     H24637   1.565   8.193   7.589  2.0915 -0.4003 -3.1275
  187MOL0     H24638   1.547   8.361   7.398 -2.5441  0.5062  2.8189
  187MOL0     H24639   1.395   8.381   7.319 -1.0342 -0.2342 -0.9725
  187MOL0     H24640   1.586   8.153   7.222 -1.1113 -1.9049 -1.9991
  187MOL0     H24641   1.588   8.315   7.167  0.6011 -2.7465 -2.6676
  187MOL0     H24642   1.368   8.106   7.142 -1.3542 -0.1070 -0.4431
  187MOL0     H24643   1.341   8.270   7.086  0.2914 -0.6095 -0.1552
  187MOL0     H24644   1.416   8.087   6.926 -3.1448  0.1058  3.0076
  187MOL0     H24645   1.580   8.114   6.989  1.6005  2.0250 -2.6902
  187MOL0     H24646   1.226   8.198   6.890  0.8202 -0.5759  0.0431
  187MOL0     H24647   1.059   8.318   6.795 -1.0587  0.7030 -1.8037
  187MOL0     H24648   0.891   8.631   6.440 -0.5974  0.0438 -1.9132
  187MOL0     H24649   0.678   8.693   6.364  2.8263 -1.7907 -0.4255
  187MOL0     H24650   0.481   8.725   6.327  0.2345  0.6213  0.1269
  187MOL0     H24651   0.505   8.862   6.431 -3.0455  2.7658 -0.0050
  187MOL0     H24652   0.291   8.904   6.332 -1.3773 -0.2872 -0.9802
  187MOL0     H24653   0.264   8.838   6.496 -1.7440 -0.2568 -0.5049
  187MOL0     H24654   0.193   8.624   6.400 -3.3820 -1.5581 -2.7898
  187MOL0     H24655   0.248   8.681   6.241  2.3713  2.0664 -0.0740
  187MOL0     H24656   0.044   8.856   6.385  2.0237 -4.4576  6.1902
  187MOL0     H24657   0.050   8.811   6.207 -0.3473 -1.5688 -0.4119
  187MOL0     H24658  -0.029   8.584   6.378 -0.6569 -2.2683 -3.3026
  187MOL0     H24659  -0.099   8.653   6.243 -0.1512  1.9933 -0.3010
  187MOL0     H24660  -0.100   8.773   6.516  2.0207 -1.1607 -2.5607
  187MOL0     H24661  -0.225   8.651   6.460 -1.5374  1.5004 -0.3759
  187MOL0     H24662  -0.186   8.938   6.350  0.9760 -0.8717 -1.0660
  187MOL0     H24663  -0.253   8.797   6.265 -0.5460  1.2046  0.0049
  187MOL0     H24664  -0.410   8.761   6.439  1.1332 -0.3616 -1.2379
  187MOL0     H24665  -0.445   8.919   6.368 -0.6784 -2.1958 -1.5541
  187MOL0     H24666   0.495   8.556   6.723 -0.2902 -1.5457 -0.1986
  187MOL0     H24667   0.719   8.455   6.792  1.3418  2.5214  1.2565
  187MOL0     H24668   1.339   8.631   6.682  0.6323  0.1529  0.1610
  187MOL0     H24669   1.512   8.494   6.757 -0.4384  0.9633  0.0118
  187MOL0     H24670   1.029   8.799   8.339  0.3091  1.0994 -1.4159
  187MOL0     H24671   0.772   8.829   8.352  0.8484  1.1848 -0.2027
  187MOL0     H24672   0.302   8.491   8.394  1.0385  0.9354  0.1902
  187MOL0     H24673   0.058   8.500   8.313  0.0190 -0.6480  1.3464
  187MOL0     H24674  -0.099   8.821   8.029  1.2140  0.9852  0.0746
  187MOL0     H24675  -0.044   8.866   8.193 -0.2205  0.0691  0.8361
  187MOL0     H24676  -0.314   8.730   8.112 -0.6721 -0.5273  0.8562
  187MOL0     H24677  -0.250   8.748   8.274  1.6390  0.4734 -1.2687
  187MOL0     H24678  -0.293   8.978   8.086 -1.9330 -1.0717 -1.4812
  187MOL0     H24679  -0.253   8.983   8.264  0.8065 -0.5107 -1.4394
  187MOL0     H24680  -0.529   8.869   8.185 -1.1446  0.8460  2.1995
  187MOL0     H24681  -0.458   8.896   8.337 -3.7606 -2.5158 -0.6386
  187MOL0     H24682  -0.559   9.290   8.211 -0.8405  0.7014  2.4064
  187MOL0     H24683   0.147   8.810   8.043 -2.5318  0.0587  2.5423
  187MOL0     H24684   0.390   8.787   8.082 -0.2942 -2.6202 -2.1526
  188MOL0     O24685   2.850   8.939   4.705  0.4403  0.5246 -0.1980
  188MOL0     C24686   2.829   8.968   4.822  0.4997 -0.1705 -0.2134
  188MOL0     O24687   2.898   9.058   4.886  0.4225  0.0249  0.1959
  188MOL0     C24688   3.033   9.087   4.851  0.6760  0.5260  0.2599
  188MOL0     C24689   3.084   9.202   4.915 -0.0132 -0.8207 -0.3574
  188MOL0     C24690   3.204   9.250   4.877  0.1135 -0.6316 -0.2503
  188MOL0     C24691   3.282   9.191   4.781  0.9650 -0.3093 -0.5481
  188MOL0     O24692   3.392   9.267   4.741 -0.4003 -0.3702 -1.4121
  188MOL0     C24693   3.430   9.305   4.607 -0.8527  0.0229 -0.0531
  188MOL0     C24694   3.488   9.442   4.616 -0.1850 -0.4220 -0.2800
  188MOL0     C24695   3.539   9.503   4.489  0.3454  0.1842  0.6218
  188MOL0     C24696   3.626   9.630   4.509 -0.6270  0.0178  0.0287
  188MOL0     C24697   3.701   9.665   4.389 -0.7086 -0.5344 -1.6782
  188MOL0     C24698   3.821   9.764   4.400 -0.1758  0.1373 -0.7149
  188MOL0     C24699   3.918   9.764   4.278 -1.1719 -0.1960 -0.2920
  188MOL0     C24700   3.991   9.629   4.241  0.0106  0.5578 -0.0530
  188MOL0     N24701   4.095   9.661   4.131  0.0299 -0.2033 -0.1096
  188MOL0     C24702   4.229   9.620   4.134  0.1046  0.0904  0.6959
  188MOL0     C24703   4.271   9.669   4.009 -0.5602  0.1503 -1.0621
  188MOL0     C24704   4.407   9.635   3.958 -0.7691 -0.5052 -0.6000
  188MOL0     C24705   4.404   9.561   3.819 -0.3590  0.2662  0.5325
  188MOL0     C24706   4.542   9.511   3.753  0.0703 -0.1084  0.5905
  188MOL0     C24707   4.648   9.445   3.853  0.0318 -0.0778 -0.6994
  188MOL0     O24708   4.755   9.386   3.767 -0.3345 -0.2511 -0.1402
  188MOL0     C24709   4.846   9.302   3.825  0.2146 -0.2368  0.2860
  188MOL0     C24710   4.916   9.215   3.747  0.3371  0.2156  0.8190
  188MOL0     C24711   5.014   9.128   3.805 -0.7126 -0.8400 -0.7249
  188MOL0     C24712   5.030   9.122   3.944  0.4618 -0.7285 -0.2678
  188MOL0     C24713   5.129   9.030   4.007  0.6665  0.3398  0.1865
  188MOL0     O24714   5.172   8.932   3.924  0.3581  0.5225 -0.1420
  188MOL0     C24715   5.262   8.832   3.963 -0.2741  0.1632  0.3753
  188MOL0     C24716   5.264   8.763   4.089 -0.5810  0.0429 -0.0558
  188MOL0     C24717   5.337   8.649   4.108 -0.1807  0.3606  0.6420
  188MOL0     C24718   5.417   8.597   4.003 -0.1552 -1.0042  0.2835
  188MOL0     O24719   5.497   8.493   4.044 -0.1557 -0.3429  0.5397
  188MOL0     C24720   5.634   8.473   3.997 -0.1367  0.6764  0.4997
  188MOL0     C24721   5.719   8.588   4.038 -0.2119  0.5740  1.0200
  188MOL0     C24722   5.727   8.602   4.185 -0.1212 -0.9729 -0.4738
  188MOL0     C24723   5.833   8.701   4.241  0.3010  0.1332  0.5744
  188MOL0     C24724   5.977   8.651   4.233 -0.3104 -0.7386 -0.5967
  188MOL0     C24725   6.086   8.707   4.137  0.6936 -0.1034 -0.3400
  188MOL0     C24726   6.106   8.850   4.154  0.2296 -0.0234 -0.4872
  188MOL0     C24727   6.190   8.902   4.038  0.1960 -0.1649 -1.0473
  188MOL0    Cl24728   6.359   8.860   4.070 -0.2135  0.4885  0.1352
  188MOL0     C24729   5.423   8.667   3.876  0.8254 -0.8200 -1.4041
  188MOL0     C24730   5.344   8.789   3.858  0.0884  0.4811 -0.4500
  188MOL0     O24731   5.155   9.042   4.122 -0.0761 -0.3100 -0.2602
  188MOL0     C24732   4.946   9.200   4.025  0.3546 -0.2518 -0.9973
  188MOL0     C24733   4.860   9.293   3.966 -0.6016 -0.6489  0.0268
  188MOL0     N24734   4.167   9.732   3.944 -0.2161 -0.0851 -0.1198
  188MOL0     N24735   4.062   9.722   4.011 -0.7206  0.4085  0.0684
  188MOL0     C24736   3.243   9.075   4.723 -0.0739  0.3422 -0.1948
  188MOL0     C24737   3.121   9.009   4.764 -0.2784  0.3159 -0.7860
  188MOL0     C24738   2.702   8.913   4.892  0.8646  0.2658  0.1382
  188MOL0     C24739   2.628   8.812   4.825 -0.0340 -0.4152 -0.8279
  188MOL0     C24740   2.515   8.753   4.886  0.4684  0.0251  0.2678
  188MOL0     C24741   2.480   8.786   5.017  0.4089 -1.3196 -0.3058
  188MOL0     O24742   2.376   8.730   5.084 -0.3588  0.0367  0.3896
  188MOL0     C24743   2.386   8.708   5.226  0.5940 -0.3436 -0.1777
  188MOL0     C24744   2.293   8.590   5.260 -0.3550 -0.5848  0.4970
  188MOL0     C24745   2.286   8.489   5.144 -0.3996 -0.5336  0.8214
  188MOL0     C24746   2.208   8.372   5.183 -0.7446  0.3505 -0.2173
  188MOL0     C24747   2.202   8.272   5.075  0.9533 -0.5365  0.0522
  188MOL0     C24748   2.191   8.205   4.973  1.1702  0.4138  0.0650
  188MOL0     C24749   2.556   8.884   5.081  0.5683 -0.7835  0.4432
  188MOL0     C24750   2.682   8.932   5.019 -0.4112  0.5081 -0.4876
  188MOL0     H24751   3.019   9.267   4.973 -1.4621 -1.3000 -1.3999
  188MOL0     H24752   3.247   9.336   4.926 -0.3861 -1.1465  1.1263
  188MOL0     H24753   3.336   9.304   4.550 -0.2174 -2.2995 -1.1905
  188MOL0     H24754   3.510   9.242   4.566 -0.3886  1.4711 -1.4734
  188MOL0     H24755   3.565   9.429   4.693  0.7364 -1.6378 -1.3638
  188MOL0     H24756   3.411   9.504   4.662  1.3586  1.5191 -0.1791
  188MOL0     H24757   3.447   9.535   4.439 -0.8201 -0.1993  2.4300
  188MOL0     H24758   3.591   9.428   4.429 -1.2389 -0.0509 -0.5247
  188MOL0     H24759   3.575   9.720   4.544  0.6162  1.3355 -1.4122
  188MOL0     H24760   3.700   9.608   4.586  0.9491  2.3245 -0.7169
  188MOL0     H24761   3.629   9.691   4.311 -2.1598  1.3810  0.2067
  188MOL0     H24762   3.754   9.570   4.372  0.1395 -1.4344  3.9147
  188MOL0     H24763   3.888   9.752   4.485  0.1899  0.1342 -0.9981
  188MOL0     H24764   3.771   9.861   4.411 -1.8328 -0.1230 -4.3467
  188MOL0     H24765   3.877   9.806   4.186 -1.8902 -1.9292 -0.7979
  188MOL0     H24766   3.996   9.833   4.312  0.2295 -1.8395 -0.0218
  188MOL0     H24767   3.925   9.551   4.202  1.8102 -1.6212  1.0125
  188MOL0     H24768   4.038   9.589   4.331  1.8204 -2.5395 -2.1705
  188MOL0     H24769   4.280   9.556   4.205  3.7073  0.4196 -1.3015
  188MOL0     H24770   4.450   9.566   4.031 -0.2056  0.7256  0.2682
  188MOL0     H24771   4.472   9.723   3.965 -1.0161 -0.4915  3.0967
  188MOL0     H24772   4.360   9.635   3.752 -0.5437  1.0965  1.5396
  188MOL0     H24773   4.334   9.479   3.834 -0.4443  0.7163  2.9680
  188MOL0     H24774   4.511   9.433   3.683 -2.0567  0.2585  1.0576
  188MOL0     H24775   4.598   9.595   3.710 -0.5020  0.4037  0.8350
  188MOL0     H24776   4.591   9.364   3.902 -0.7414  1.9428  1.9665
  188MOL0     H24777   4.685   9.510   3.933 -0.7461 -1.4667  0.8733
  188MOL0     H24778   4.889   9.215   3.642 -1.4147 -0.2024  1.2487
  188MOL0     H24779   5.079   9.063   3.748  0.5516  0.8204 -1.2676
  188MOL0     H24780   5.197   8.803   4.164  1.5564 -0.5749  2.3331
  188MOL0     H24781   5.336   8.596   4.203  2.5541 -1.6693 -0.3258
  188MOL0     H24782   5.626   8.463   3.888 -1.6799 -0.5160  0.6817
  188MOL0     H24783   5.675   8.379   4.035 -0.3804 -0.3106 -1.5527
  188MOL0     H24784   5.691   8.680   3.985 -3.9665 -0.4035  1.0218
  188MOL0     H24785   5.823   8.559   4.020 -0.0871  0.1685  2.2965
  188MOL0     H24786   5.736   8.513   4.249  0.0256 -0.2772  0.4885
  188MOL0     H24787   5.632   8.649   4.214  1.3620  0.9306  1.7233
  188MOL0     H24788   5.826   8.794   4.183  0.2835 -1.2103 -1.7093
  188MOL0     H24789   5.815   8.729   4.345 -1.2815  3.7219 -0.4952
  188MOL0     H24790   5.970   8.543   4.214 -2.5369 -0.5648 -1.0929
  188MOL0     H24791   6.011   8.668   4.335 -2.3922  1.5925 -0.2163
  188MOL0     H24792   6.045   8.695   4.036 -0.9829 -1.3477  0.4334
  188MOL0     H24793   6.176   8.652   4.165  0.6793 -0.9959 -1.8888
  188MOL0     H24794   6.017   8.914   4.155  1.4521  1.7911  0.9437
  188MOL0     H24795   6.159   8.867   4.248  0.1944  1.6996 -0.7365
  188MOL0     H24796   6.177   9.010   4.035 -0.9532 -0.1409  1.8934
  188MOL0     H24797   6.153   8.853   3.947 -1.6590 -0.9188  0.0522
  188MOL0     H24798   5.496   8.636   3.803 -0.1981  0.1786 -2.9117
  188MOL0     H24799   5.355   8.844   3.765  1.7492 -1.3226 -1.4018
  188MOL0     H24800   4.959   9.216   4.131 -0.4196 -0.0301 -0.9288
  188MOL0     H24801   4.806   9.369   4.021  0.3942 -0.2180  0.4324
  188MOL0     H24802   3.318   9.028   4.660 -0.4358  0.0040 -0.3740
  188MOL0     H24803   3.103   8.909   4.726  0.9570 -0.3309  0.2199
  188MOL0     H24804   2.652   8.789   4.722  0.9665 -0.8875 -0.5116
  188MOL0     H24805   2.451   8.686   4.830  2.3806  0.2287 -2.3443
  188MOL0     H24806   2.345   8.792   5.282 -0.2392 -0.1206 -1.1029
  188MOL0     H24807   2.484   8.676   5.264 -1.1000 -2.3407  2.9416
  188MOL0     H24808   2.320   8.547   5.357 -0.2767  0.1780  0.8248
  188MOL0     H24809   2.194   8.635   5.266 -1.2933 -2.3045 -1.3300
  188MOL0     H24810   2.392   8.468   5.130  0.2576  2.1502  1.3107
  188MOL0     H24811   2.247   8.532   5.051  0.4958  3.5880  2.1263
  188MOL0     H24812   2.260   8.319   5.263  0.6845 -0.3459 -1.5652
  188MOL0     H24813   2.105   8.393   5.214 -0.1649  1.7139  0.8893
  188MOL0     H24814   2.190   8.126   4.902 -1.5914  0.5034 -0.0927
  188MOL0     H24815   2.536   8.914   5.183 -2.0657 -1.6705  0.2487
  188MOL0     H24816   2.753   8.988   5.079  1.2733 -2.1331  0.1527
  189MOL0     O24817   0.030   9.928   8.352  0.1980 -0.1785 -0.5473
  189MOL0     C24818   0.121   9.981   8.423 -0.0339  0.1531 -0.4736
  189MOL0     O24819   0.205   9.917   8.504 -0.8552  0.9314  0.0246
  189MOL0     C24820   0.191   9.782   8.515 -0.3395 -0.9519  0.2349
  189MOL0     C24821   0.118   9.725   8.625 -0.6314  0.1980 -0.7203
  189MOL0     C24822   0.109   9.589   8.651 -0.0007  0.5497 -0.0399
  189MOL0     C24823   0.152   9.498   8.548  0.0905 -0.8582  1.0395
  189MOL0     O24824   0.127   9.369   8.548 -0.2109 -0.0347  0.3297
  189MOL0     C24825   0.044   9.301   8.647 -0.9263 -0.9429 -0.1770
  189MOL0     C24826   0.020   9.155   8.625  0.4361  0.5594  0.2145
  189MOL0     C24827  -0.083   9.112   8.515 -0.1014  0.5174 -0.3018
  189MOL0     C24828  -0.094   8.961   8.525 -0.4105 -0.2482 -0.9037
  189MOL0     C24829  -0.222   8.919   8.590 -0.4278 -0.5045  0.8347
  189MOL0     C24830  -0.219   8.775   8.657  0.1011  0.3425  0.0216
  189MOL0     C24831  -0.219   8.661   8.552  0.7141  0.8321  0.2349
  189MOL0     C24832  -0.232   8.524   8.614  0.7724  0.1310 -0.3182
  189MOL0     N24833  -0.106   8.486   8.680  0.0115  0.1740  0.0697
  189MOL0     C24834  -0.002   8.412   8.632  0.8619  0.7726 -0.7459
  189MOL0     C24835   0.097   8.420   8.725  0.2849 -0.1771  0.6747
  189MOL0     C24836   0.228   8.357   8.719  0.6052 -0.9447 -0.2703
  189MOL0     C24837   0.336   8.453   8.762 -0.1606  0.0071  0.1552
  189MOL0     C24838   0.478   8.381   8.743 -0.3913 -0.3805  0.4448
  189MOL0     C24839   0.597   8.474   8.790 -0.4482  0.3337 -1.1259
  189MOL0     O24840   0.588   8.496   8.928 -0.2839 -0.1769  0.6172
  189MOL0     C24841   0.664   8.584   9.008 -0.0127 -0.0513 -0.1830
  189MOL0     C24842   0.592   8.646   9.109 -0.4085 -0.9136 -0.6148
  189MOL0     C24843   0.670   8.739   9.187  0.1828 -2.0949 -0.3114
  189MOL0     C24844   0.804   8.775   9.151  0.3996 -0.5639  0.4077
  189MOL0     C24845   0.872   8.880   9.216  0.8139 -0.5222 -0.2321
  189MOL0     O24846   0.998   8.891   9.164 -0.2721 -0.1754  0.2610
  189MOL0     C24847   1.105   8.952   9.232  0.3953  1.0337  0.2072
  189MOL0     C24848   1.234   8.893   9.222 -0.7201  0.2346 -0.1810
  189MOL0     C24849   1.346   8.955   9.272  0.0462 -0.6118 -0.6897
  189MOL0     C24850   1.338   9.078   9.344  0.7888  0.6067 -0.9017
  189MOL0     O24851   1.448   9.138   9.396  0.0089  0.4853  0.1354
  189MOL0     C24852   1.475   9.269   9.383 -0.6564 -0.5941 -0.6864
  189MOL0     C24853   1.540   9.334   9.498 -1.1164 -0.1506  0.3941
  189MOL0     C24854   1.443   9.355   9.614 -0.0541 -0.8706 -0.2749
  189MOL0     C24855   1.515   9.449   9.712  1.1211 -0.0484  1.1087
  189MOL0     C24856   1.459   9.427   9.854 -0.6488 -0.3449  1.1965
  189MOL0     C24857   1.502   9.540   9.943  0.1290 -0.4206  0.3699
  189MOL0     C24858   1.639   9.504  10.007 -0.4449 -0.9297  0.0481
  189MOL0     C24859   1.692   9.635  10.077 -0.6005  0.1055 -0.2688
  189MOL0    Cl24860   1.574   9.688  10.209 -0.4764 -0.0793  0.5429
  189MOL0     C24861   1.208   9.129   9.362  0.4924 -0.3005  0.4772
  189MOL0     C24862   1.098   9.066   9.311 -0.2977 -0.3110 -0.8122
  189MOL0     O24863   0.821   8.949   9.306 -0.6298 -0.6439 -1.1616
  189MOL0     C24864   0.855   8.710   9.042 -0.1899 -0.0776  0.3794
  189MOL0     C24865   0.788   8.622   8.964 -0.0501 -0.4994  0.5989
  189MOL0     N24866   0.042   8.480   8.839  0.1484 -0.5035  0.4107
  189MOL0     N24867  -0.070   8.530   8.802  0.1726 -0.3782 -0.4878
  189MOL0     C24868   0.215   9.553   8.435 -0.2295 -1.0462 -0.4115
  189MOL0     C24869   0.244   9.699   8.425  0.1110 -0.7758 -0.2771
  189MOL0     C24870   0.141  10.132   8.436  0.1747  0.1775 -0.0880
  189MOL0     C24871   0.059  10.216   8.357 -0.2508  0.6201 -0.2820
  189MOL0     C24872   0.073  10.359   8.381 -0.0902 -0.0043 -0.6850
  189MOL0     C24873   0.168  10.414   8.469 -0.0001  1.3957  0.2678
  189MOL0     O24874   0.169  10.553   8.484  0.3572  0.0786 -0.2600
  189MOL0     C24875   0.298  10.615   8.484 -0.1775 -0.5806 -0.9813
  189MOL0     C24876   0.264  10.763   8.488  0.0820 -0.5586 -0.6043
  189MOL0     C24877   0.380  10.856   8.461 -0.6783  0.0496 -0.9291
  189MOL0     C24878   0.480  10.857   8.575 -0.1410 -0.0210 -0.7987
  189MOL0     C24879   0.605  10.932   8.542  0.6073 -0.1029 -0.1598
  189MOL0     C24880   0.703  10.982   8.501  0.1308 -0.7918  0.7879
  189MOL0     C24881   0.242  10.324   8.541 -0.4562  0.4464 -0.6256
  189MOL0     C24882   0.226  10.185   8.534  0.3374  0.9443 -0.2219
  189MOL0     H24883   0.083   9.795   8.699  1.4114  0.8233 -0.2824
  189MOL0     H24884   0.073   9.553   8.747 -1.1738  0.7240 -0.3963
  189MOL0     H24885  -0.056   9.345   8.657 -1.8393 -2.7123 -1.0270
  189MOL0     H24886   0.096   9.309   8.743 -0.9500  1.2851 -0.2989
  189MOL0     H24887   0.002   9.104   8.720  2.1070 -0.9687 -0.2574
  189MOL0     H24888   0.112   9.114   8.585 -0.1619  0.5479 -1.1970
  189MOL0     H24889  -0.041   9.140   8.418  0.6323  2.8526  0.6366
  189MOL0     H24890  -0.179   9.164   8.522 -0.4067  0.3803 -2.5382
  189MOL0     H24891  -0.085   8.916   8.426 -3.8904 -1.7472 -0.7136
  189MOL0     H24892  -0.014   8.913   8.582 -1.1567 -2.7123 -1.7979
  189MOL0     H24893  -0.291   8.917   8.505 -0.9609 -0.7902  1.2676
  189MOL0     H24894  -0.246   9.000   8.659  5.6479 -1.0651  4.2581
  189MOL0     H24895  -0.306   8.763   8.722 -1.4152  2.0740 -1.5787
  189MOL0     H24896  -0.133   8.783   8.724 -1.4883 -1.8497  2.5000
  189MOL0     H24897  -0.309   8.657   8.490  1.6225 -1.6668 -1.0323
  189MOL0     H24898  -0.130   8.672   8.489  0.1905  0.7139 -0.5360
  189MOL0     H24899  -0.255   8.442   8.546  2.9458  0.9118 -2.1148
  189MOL0     H24900  -0.315   8.524   8.685  1.5040  4.9495  0.8807
  189MOL0     H24901  -0.001   8.354   8.540  1.6522 -0.7734  0.1983
  189MOL0     H24902   0.245   8.336   8.613  2.0868  3.3930 -1.0786
  189MOL0     H24903   0.219   8.272   8.788  0.4367 -2.7691 -2.4307
  189MOL0     H24904   0.319   8.478   8.867 -0.1260 -1.2297  0.4710
  189MOL0     H24905   0.338   8.550   8.712 -0.1026  0.5150  1.1195
  189MOL0     H24906   0.486   8.289   8.801  0.0394 -0.2450  0.6059
  189MOL0     H24907   0.491   8.344   8.641 -2.1106  1.4582 -0.5126
  189MOL0     H24908   0.614   8.563   8.728  3.0490 -0.0404 -0.9532
  189MOL0     H24909   0.687   8.411   8.783 -1.5911 -2.0961  3.1493
  189MOL0     H24910   0.493   8.629   9.151 -1.6022  0.6325 -2.6217
  189MOL0     H24911   0.635   8.803   9.267  1.9392  0.4560 -1.4491
  189MOL0     H24912   1.247   8.793   9.181  0.7110 -0.2702  1.3746
  189MOL0     H24913   1.435   8.896   9.258  0.4309 -0.8881  2.3556
  189MOL0     H24914   1.381   9.322   9.365 -0.6467  0.4156  1.8225
  189MOL0     H24915   1.535   9.268   9.291  0.1381 -1.6507 -0.1828
  189MOL0     H24916   1.570   9.432   9.460 -0.4440 -0.5400 -0.0970
  189MOL0     H24917   1.630   9.282   9.532  0.3249  0.7692 -1.8159
  189MOL0     H24918   1.426   9.261   9.666 -0.2915 -1.9634 -2.2263
  189MOL0     H24919   1.348   9.377   9.565  0.4261 -1.5235 -1.5432
  189MOL0     H24920   1.619   9.413   9.711  0.6405 -1.7419 -1.7574
  189MOL0     H24921   1.513   9.553   9.679  0.0002 -0.3427  0.1874
  189MOL0     H24922   1.484   9.331   9.900 -0.3941  1.2524  4.6561
  189MOL0     H24923   1.352   9.443   9.839 -0.0673  1.8144 -1.5274
  189MOL0     H24924   1.421   9.542  10.017 -1.6938  1.0048 -1.5425
  189MOL0     H24925   1.497   9.634   9.888  2.4517 -0.5084 -0.0746
  189MOL0     H24926   1.641   9.432  10.089  0.1075 -0.6261  0.3082
  189MOL0     H24927   1.702   9.466   9.927  0.6995 -1.5623  1.2135
  189MOL0     H24928   1.699   9.716  10.003 -1.6501 -0.1150 -0.6281
  189MOL0     H24929   1.794   9.613  10.110 -1.2445 -0.8825  1.1996
  189MOL0     H24930   1.181   9.213   9.425 -1.4049  1.2361 -2.1878
  189MOL0     H24931   1.001   9.109   9.334  1.3231  1.4168  3.9715
  189MOL0     H24932   0.950   8.737   8.997 -0.1857 -4.1145 -2.6504
  189MOL0     H24933   0.826   8.577   8.873  4.5840 -0.5527  2.2881
  189MOL0     H24934   0.243   9.490   8.351  2.1318 -1.0882  0.3256
  189MOL0     H24935   0.305   9.736   8.343  3.3719 -1.1886  1.7828
  189MOL0     H24936  -0.011  10.170   8.288  0.4043  0.5665 -0.9303
  189MOL0     H24937  -0.002  10.426   8.340  3.3341  3.4544 -1.8431
  189MOL0     H24938   0.338  10.587   8.386 -0.4941 -0.8617 -1.0319
  189MOL0     H24939   0.363  10.585   8.567  2.6103 -1.3850 -3.3212
  189MOL0     H24940   0.195  10.776   8.405  0.0715  1.7633 -0.2797
  189MOL0     H24941   0.209  10.804   8.573  0.0113 -1.2950 -0.2800
  189MOL0     H24942   0.342  10.957   8.448  2.8049  1.5865 -0.3503
  189MOL0     H24943   0.429  10.826   8.368  0.9919 -0.4632  0.0683
  189MOL0     H24944   0.438  10.901   8.666 -2.3954  0.5916 -2.0620
  189MOL0     H24945   0.503  10.754   8.605  1.6637  0.3403 -0.8910
  189MOL0     H24946   0.791  11.027   8.460  0.2020 -1.1631  0.5312
  189MOL0     H24947   0.320  10.369   8.602  0.8790  0.6603 -2.3823
  189MOL0     H24948   0.283  10.116   8.596  1.7117  1.1799 -1.1737
  190MOL0     O24949  10.203   8.763   2.307  0.1845  0.4173 -1.0178
  190MOL0     C24950  10.130   8.745   2.409 -0.7123  0.5705 -0.2472
  190MOL0     O24951  10.170   8.741   2.540 -0.5853  0.0362  0.2957
  190MOL0     C24952  10.282   8.802   2.585 -0.2289  0.2639 -0.8336
  190MOL0     C24953  10.341   8.919   2.539 -1.1114  0.0707 -0.1114
  190MOL0     C24954  10.463   8.964   2.586 -0.2525  0.6115 -0.8500
  190MOL0     C24955  10.526   8.897   2.698 -0.9866 -0.2158 -0.4480
  190MOL0     O24956  10.655   8.931   2.727 -0.0708  0.4428  0.3408
  190MOL0     C24957  10.738   8.814   2.775 -0.4120  0.1867 -0.5465
  190MOL0     C24958  10.886   8.834   2.767  0.7930 -0.2477  0.5744
  190MOL0     C24959  10.915   8.972   2.826 -0.2068  0.5255 -0.0867
  190MOL0     C24960  11.053   9.013   2.814  0.0348  0.1861  0.9419
  190MOL0     C24961  11.063   9.159   2.790  0.2081  0.4900  0.0035
  190MOL0     C24962  11.204   9.193   2.788  0.5116  0.3107 -0.1808
  190MOL0     C24963  11.238   9.319   2.704 -0.6176  0.1706  0.2260
  190MOL0     C24964  11.386   9.332   2.676 -0.2097  0.2023 -0.8716
  190MOL0     N24965  11.449   9.376   2.794  0.0967  0.3027  0.9639
  190MOL0     C24966  11.464   9.510   2.818  0.8730  0.1570  0.6192
  190MOL0     C24967  11.563   9.515   2.902 -0.3450  1.1936 -0.2208
  190MOL0     C24968  11.628   9.640   2.958 -0.2436 -0.3731  0.0720
  190MOL0     C24969  11.709   9.613   3.085 -0.0374  0.0095 -0.1772
  190MOL0     C24970  11.724   9.743   3.166  0.2008  0.0919 -0.1348
  190MOL0     C24971  11.773   9.857   3.073  0.6299 -1.0224  0.2607
  190MOL0     O24972  11.810   9.967   3.153  0.8387 -0.8328  0.8799
  190MOL0     C24973  11.817  10.094   3.088  0.6756  0.0141 -0.5144
  190MOL0     C24974  11.851  10.197   3.173  0.3361 -0.9215  0.6405
  190MOL0     C24975  11.863  10.326   3.121  1.0596  0.0838 -0.2400
  190MOL0     C24976  11.825  10.355   2.985  0.3116  0.0633  0.5552
  190MOL0     C24977  11.839  10.493   2.931 -0.5418 -0.0192 -0.9385
  190MOL0     O24978  11.780  10.525   2.812  0.1305  0.2838  0.3074
  190MOL0     C24979  11.779  10.653   2.771 -0.4569 -0.5144 -0.0842
  190MOL0     C24980  11.658  10.704   2.709  0.2167  0.5096  0.0031
  190MOL0     C24981  11.652  10.838   2.680 -0.0984  0.0329 -0.3980
  190MOL0     C24982  11.758  10.933   2.704 -0.4888  0.1347 -0.9049
  190MOL0     O24983  11.737  11.068   2.706  0.1561 -0.0900  0.4961
  190MOL0     C24984  11.619  11.108   2.790  0.6500  0.4301  0.4641
  190MOL0     C24985  11.634  11.250   2.835 -0.5106  0.0150 -0.7777
  190MOL0     C24986  11.498  11.333   2.853 -0.2202  0.0759  0.0915
  190MOL0     C24987  11.433  11.300   2.988 -0.5354  0.3320 -0.3645
  190MOL0     C24988  11.499  11.364   3.109 -0.4055  1.0559 -0.9483
  190MOL0     C24989  11.540  11.511   3.108 -0.5512  0.6437  0.6981
  190MOL0     C24990  11.413  11.598   3.115 -0.5513  0.5653 -0.8573
  190MOL0     C24991  11.426  11.747   3.159  0.4590  0.1351  0.0249
  190MOL0    Cl24992  11.445  11.765   3.337 -0.1437  0.0635 -0.5451
  190MOL0     C24993  11.882  10.876   2.752  0.4173 -0.2007 -0.2587
  190MOL0     C24994  11.890  10.742   2.778  0.5755  0.8404 -0.7978
  190MOL0     O24995  11.899  10.578   2.999  0.2476  0.6289 -0.0276
  190MOL0     C24996  11.776  10.250   2.909 -0.4745  1.4210  0.1192
  190MOL0     C24997  11.773  10.125   2.959 -0.2134  0.1188 -0.5739
  190MOL0     N24998  11.604   9.389   2.936  0.3205 -0.0250  0.3430
  190MOL0     N24999  11.529   9.301   2.876 -0.0476 -0.0084  0.0347
  190MOL0     C25000  10.450   8.792   2.760 -0.4069 -0.2290  0.1819
  190MOL0     C25001  10.325   8.750   2.712  0.0027  0.0288  0.4902
  190MOL0     C25002   9.990   8.720   2.385 -0.3682  0.1850 -0.2005
  190MOL0     C25003   9.942   8.746   2.253  0.5230  0.0091  1.3816
  190MOL0     C25004   9.817   8.703   2.215  0.7274  1.1056 -0.5942
  190MOL0     C25005   9.715   8.657   2.315 -0.6442 -0.5657  0.0308
  190MOL0     O25006   9.588   8.615   2.296 -0.3341 -0.0254  0.1132
  190MOL0     C25007   9.546   8.591   2.158 -0.3671 -0.1315 -0.4385
  190MOL0     C25008   9.394   8.555   2.142  0.3460  0.1058 -0.1092
  190MOL0     C25009   9.354   8.528   1.994 -0.1104 -0.3039  0.0800
  190MOL0     C25010   9.202   8.515   1.988  0.3570  0.4443  0.6925
  190MOL0     C25011   9.163   8.399   2.059  0.1925 -0.1032  0.7816
  190MOL0     C25012   9.134   8.310   2.129  0.4444  0.4665 -0.3813
  190MOL0     C25013   9.760   8.662   2.446 -0.1299 -0.1489  1.0052
  190MOL0     C25014   9.893   8.684   2.481 -0.0733  0.3681  0.1815
  190MOL0     H25015  10.302   8.954   2.443  1.1077  1.1159 -0.6862
  190MOL0     H25016  10.516   9.044   2.537  0.0816  1.9223  1.4963
  190MOL0     H25017  10.711   8.716   2.734 -0.8419  1.2647 -3.0469
  190MOL0     H25018  10.718   8.814   2.882 -0.5080  1.0345 -0.5547
  190MOL0     H25019  10.902   8.820   2.660 -3.5017  0.0485 -0.2659
  190MOL0     H25020  10.936   8.754   2.822 -1.2502 -1.6891  0.4370
  190MOL0     H25021  10.908   8.972   2.935  1.3412  1.6642  0.0533
  190MOL0     H25022  10.850   9.050   2.786  2.0134  1.2461 -2.5962
  190MOL0     H25023  11.098   8.985   2.910  1.5413 -1.0296 -0.0639
  190MOL0     H25024  11.100   8.952   2.737 -1.9759 -3.1823  2.1687
  190MOL0     H25025  11.008   9.216   2.865  2.7155  0.0237  2.3579
  190MOL0     H25026  11.015   9.184   2.695  1.7468  0.0299 -0.9366
  190MOL0     H25027  11.275   9.113   2.765  0.6124  0.5943 -0.8870
  190MOL0     H25028  11.208   9.213   2.895 -1.6905  1.4366 -0.2566
  190MOL0     H25029  11.190   9.323   2.606 -1.1584  1.4960  0.5191
  190MOL0     H25030  11.206   9.410   2.757 -3.4299  0.0244 -1.0446
  190MOL0     H25031  11.421   9.407   2.604  0.9479 -0.4138 -0.9749
  190MOL0     H25032  11.422   9.235   2.640  0.1927 -0.9958  2.4268
  190MOL0     H25033  11.416   9.599   2.781 -0.8140 -1.0369 -0.1962
  190MOL0     H25034  11.541   9.701   2.984 -1.3352 -0.1697 -3.4570
  190MOL0     H25035  11.688   9.695   2.885  0.1692 -0.0377  0.6578
  190MOL0     H25036  11.808   9.573   3.060  0.0202 -1.0716  1.6418
  190MOL0     H25037  11.661   9.537   3.147  0.9553  0.0540  0.6611
  190MOL0     H25038  11.624   9.771   3.202 -0.5623  1.9986 -3.3672
  190MOL0     H25039  11.797   9.734   3.246  0.0494  1.6586  0.1961
  190MOL0     H25040  11.689   9.875   3.005 -1.7757 -2.4269  2.6740
  190MOL0     H25041  11.869   9.829   3.028  1.9026  1.5948  1.1641
  190MOL0     H25042  11.883  10.181   3.276  3.7763  0.8506  0.0144
  190MOL0     H25043  11.899  10.393   3.198  0.8335  0.1737 -0.2128
  190MOL0     H25044  11.572  10.642   2.687  0.8499 -0.7751  0.9843
  190MOL0     H25045  11.557  10.874   2.640  0.0432  2.2122  1.0441
  190MOL0     H25046  11.619  11.054   2.885  1.8046 -0.5778 -0.0925
  190MOL0     H25047  11.529  11.079   2.734  1.8089 -1.7631 -0.3996
  190MOL0     H25048  11.683  11.296   2.748  3.3511 -1.4364  0.4301
  190MOL0     H25049  11.694  11.252   2.926 -0.1737 -2.0953 -0.8938
  190MOL0     H25050  11.441  11.310   2.763 -2.1453 -1.0939  1.5358
  190MOL0     H25051  11.521  11.440   2.853 -1.1192  0.2976 -1.1942
  190MOL0     H25052  11.327  11.326   2.980 -1.4703 -3.0298 -0.3100
  190MOL0     H25053  11.427  11.192   3.007  2.6117 -0.0573 -1.1375
  190MOL0     H25054  11.590  11.308   3.134 -1.2302  0.2486  0.3985
  190MOL0     H25055  11.424  11.355   3.189 -3.1478  1.1816 -3.3328
  190MOL0     H25056  11.600  11.536   3.020 -1.4744  3.2412  0.7431
  190MOL0     H25057  11.607  11.529   3.193  2.6061  1.6746 -1.7782
  190MOL0     H25058  11.356  11.604   3.022 -0.5634  0.0558 -0.8840
  190MOL0     H25059  11.353  11.547   3.191  0.2267 -2.8929 -2.3622
  190MOL0     H25060  11.330  11.793   3.135  0.7725  1.2633  0.8472
  190MOL0     H25061  11.504  11.796   3.101  0.1564 -1.7035 -2.0716
  190MOL0     H25062  11.969  10.939   2.771 -0.3427  1.2174 -1.2897
  190MOL0     H25063  11.981  10.709   2.828  0.7772 -1.9329 -2.7512
  190MOL0     H25064  11.741  10.255   2.806 -0.8348 -0.5181  0.1175
  190MOL0     H25065  11.746  10.049   2.886  1.4930 -1.7846  0.6820
  190MOL0     H25066  10.476   8.733   2.847 -0.7668  0.4156  0.7416
  190MOL0     H25067  10.264   8.668   2.750  0.8202 -0.1652  1.4115
  190MOL0     H25068  10.006   8.792   2.178 -2.2448  0.3604 -0.9475
  190MOL0     H25069   9.795   8.701   2.109  1.3608 -2.2265 -0.7601
  190MOL0     H25070   9.607   8.506   2.126  1.4633  0.9305  0.1142
  190MOL0     H25071   9.555   8.678   2.093 -1.3786 -1.3194 -2.2594
  190MOL0     H25072   9.374   8.468   2.206  3.2526  0.0718  0.8990
  190MOL0     H25073   9.340   8.640   2.184 -1.6389 -1.6880  1.2082
  190MOL0     H25074   9.406   8.440   1.955 -0.5501 -2.2645  3.5904
  190MOL0     H25075   9.382   8.621   1.944 -0.5426 -1.1973 -1.9363
  190MOL0     H25076   9.159   8.604   2.035 -0.7777  0.0423  0.4334
  190MOL0     H25077   9.151   8.516   1.892  2.0163 -1.2636 -0.2874
  190MOL0     H25078   9.125   8.216   2.181  2.3238 -0.5188 -1.7315
  190MOL0     H25079   9.683   8.633   2.517 -1.9449 -0.7645 -1.0848
  190MOL0     H25080   9.923   8.671   2.585 -0.9865 -3.0788  0.1349
  191MOL0     O25081   4.368   9.605   7.632 -0.3984  0.4069  0.4032
  191MOL0     C25082   4.411   9.484   7.647 -0.2874 -0.2614  0.7086
  191MOL0     O25083   4.526   9.437   7.684 -0.9338  0.3142 -0.9718
  191MOL0     C25084   4.616   9.514   7.745 -0.8020 -0.8623 -0.5925
  191MOL0     C25085   4.749   9.485   7.713  1.0322 -0.1369  0.2293
  191MOL0     C25086   4.846   9.555   7.782 -0.5282  0.0956  0.8373
  191MOL0     C25087   4.827   9.662   7.857  0.7795 -0.2431  0.2763
  191MOL0     O25088   4.929   9.733   7.913  0.0808  0.1075  0.5089
  191MOL0     C25089   4.986   9.661   8.022  0.6712 -0.2502 -1.1048
  191MOL0     C25090   5.024   9.773   8.114 -0.1355 -0.2502  0.3433
  191MOL0     C25091   5.140   9.852   8.063 -0.4492 -0.2193  0.0826
  191MOL0     C25092   5.186   9.948   8.176 -0.6080 -0.3131  0.1401
  191MOL0     C25093   5.088  10.064   8.191  0.4743  0.5432  0.4129
  191MOL0     C25094   5.161  10.182   8.249  0.5509  0.4242  0.2982
  191MOL0     C25095   5.216  10.175   8.390 -0.0272  0.6341 -0.4683
  191MOL0     C25096   5.117  10.122   8.501 -0.2374 -0.4049 -0.3989
  191MOL0     N25097   5.117   9.979   8.520  0.9605 -0.1112 -0.6830
  191MOL0     C25098   5.218   9.903   8.579  0.3161 -1.0098 -0.7792
  191MOL0     C25099   5.171   9.780   8.577  0.1619  0.8308  0.0951
  191MOL0     C25100   5.238   9.656   8.625 -0.2884  0.5369  0.9659
  191MOL0     C25101   5.320   9.584   8.506  0.5234  0.8322 -1.0895
  191MOL0     C25102   5.232   9.518   8.403 -1.0714  0.1860 -0.7920
  191MOL0     C25103   5.313   9.482   8.270  0.2674 -0.7523 -1.0601
  191MOL0     O25104   5.217   9.459   8.159  0.1557  0.0362  0.1246
  191MOL0     C25105   5.183   9.332   8.116 -0.9332  0.6736 -1.1145
  191MOL0     C25106   5.179   9.233   8.207 -0.2298 -0.7195  0.3711
  191MOL0     C25107   5.133   9.105   8.186 -0.0437  0.7528  0.3988
  191MOL0     C25108   5.111   9.062   8.051  0.9378 -0.2207 -1.1063
  191MOL0     C25109   5.051   8.937   8.023  0.6226 -1.0673  0.8955
  191MOL0     O25110   5.032   8.856   8.128 -0.5907  0.9067  0.2208
  191MOL0     C25111   5.010   8.728   8.100  0.4958  0.6092  0.3799
  191MOL0     C25112   4.881   8.685   8.120  0.4539 -1.0496 -0.1118
  191MOL0     C25113   4.858   8.548   8.087 -0.2562  0.1028  0.4111
  191MOL0     C25114   4.956   8.462   8.040  0.1944 -0.8665  0.0540
  191MOL0     O25115   4.930   8.333   8.009 -0.4764  0.5998  0.4935
  191MOL0     C25116   4.816   8.268   8.070  0.3580 -0.2963  0.2383
  191MOL0     C25117   4.848   8.119   8.047 -0.1923  0.1352  0.7541
  191MOL0     C25118   4.729   8.038   8.075  0.5119  0.0630  0.0388
  191MOL0     C25119   4.771   7.888   8.072  0.6941  0.7077 -0.0290
  191MOL0     C25120   4.723   7.805   7.952  0.1844  1.2562 -0.3461
  191MOL0     C25121   4.577   7.761   7.975 -0.3735  0.7633  0.4758
  191MOL0     C25122   4.550   7.610   7.967  0.4116 -0.8663 -0.8455
  191MOL0     C25123   4.407   7.584   8.026  0.4800 -0.2128  0.7812
  191MOL0    Cl25124   4.377   7.406   7.998  0.7353  0.1710  0.5417
  191MOL0     C25125   5.080   8.512   8.023 -0.5300 -0.7384  0.9950
  191MOL0     C25126   5.109   8.643   8.049 -0.5878 -0.3912  1.1058
  191MOL0     O25127   5.035   8.910   7.908  0.4657 -0.1859  0.6911
  191MOL0     C25128   5.121   9.159   7.949  0.3678 -0.1918  1.1808
  191MOL0     C25129   5.160   9.288   7.981  0.6962  0.2568  0.1135
  191MOL0     N25130   5.044   9.779   8.521 -0.6861 -0.3500  0.0986
  191MOL0     N25131   5.013   9.896   8.482 -0.0198 -0.2571 -0.0423
  191MOL0     C25132   4.694   9.696   7.898 -0.3368  0.1684  0.2031
  191MOL0     C25133   4.591   9.618   7.840  0.3944 -0.4131  0.4463
  191MOL0     C25134   4.324   9.378   7.579  0.2469  0.0383 -0.7838
  191MOL0     C25135   4.324   9.233   7.609 -0.5623  0.0121 -0.9754
  191MOL0     C25136   4.224   9.146   7.556 -0.8684  0.9755  0.0945
  191MOL0     C25137   4.135   9.204   7.459  0.0631  1.8952  0.1156
  191MOL0     O25138   4.058   9.124   7.371 -0.6921  0.0950 -0.2474
  191MOL0     C25139   4.061   8.977   7.358  0.4377  0.4156  0.6452
  191MOL0     C25140   4.188   8.932   7.295  0.3052 -0.3438 -0.5814
  191MOL0     C25141   4.199   8.789   7.223  0.2178  0.2957 -0.6193
  191MOL0     C25142   4.137   8.790   7.086 -0.7894 -0.5718  0.6833
  191MOL0     C25143   4.151   8.659   7.024  0.1701  0.8824 -0.6391
  191MOL0     C25144   4.157   8.543   6.987  1.0984  1.2193 -0.0088
  191MOL0     C25145   4.128   9.335   7.430 -0.4218 -0.8499 -0.4218
  191MOL0     C25146   4.235   9.408   7.478  0.3579 -0.4076 -0.2995
  191MOL0     H25147   4.774   9.399   7.653  1.7741 -0.9385  1.6312
  191MOL0     H25148   4.949   9.524   7.774 -0.6998 -0.2198 -0.4770
  191MOL0     H25149   5.070   9.596   7.994 -0.5494 -3.1798  1.3935
  191MOL0     H25150   4.912   9.601   8.076  2.6194  1.7824  4.4529
  191MOL0     H25151   5.047   9.732   8.212  0.4987  0.7718  0.6367
  191MOL0     H25152   4.939   9.841   8.121 -0.3670 -0.3088 -1.3134
  191MOL0     H25153   5.123   9.913   7.974  2.7131  1.3565  0.4356
  191MOL0     H25154   5.218   9.779   8.041 -0.7770 -0.5107 -0.1334
  191MOL0     H25155   5.187   9.908   8.278  3.1688  0.4751  0.5743
  191MOL0     H25156   5.283   9.989   8.146 -0.1774 -0.4917  1.2374
  191MOL0     H25157   4.995  10.038   8.243  0.2953 -1.2264 -0.7085
  191MOL0     H25158   5.053  10.086   8.090  1.3009 -0.3341 -0.0846
  191MOL0     H25159   5.087  10.262   8.250  1.1348  1.0065  2.4637
  191MOL0     H25160   5.248  10.211   8.188 -1.9764  1.0206 -3.3112
  191MOL0     H25161   5.291  10.095   8.386 -0.0992  0.1401  3.8112
  191MOL0     H25162   5.259  10.271   8.419  1.0559  0.6497 -2.0036
  191MOL0     H25163   5.016  10.162   8.482 -0.4255 -0.4453  0.5085
  191MOL0     H25164   5.124  10.172   8.598  2.3702  3.8233 -2.4406
  191MOL0     H25165   5.312   9.944   8.613  0.3357 -1.2789 -0.5112
  191MOL0     H25166   5.167   9.580   8.659  0.0448 -0.2174  0.0359
  191MOL0     H25167   5.304   9.694   8.703  0.0926 -0.7589  1.3000
  191MOL0     H25168   5.396   9.513   8.542  1.9114  1.4746 -2.6403
  191MOL0     H25169   5.370   9.663   8.450 -1.3465  1.5889 -1.7729
  191MOL0     H25170   5.180   9.441   8.460 -2.1451  2.7509  1.9420
  191MOL0     H25171   5.151   9.584   8.370 -0.0169  2.6151  1.1990
  191MOL0     H25172   5.387   9.406   8.296  0.4081 -1.1462 -2.4997
  191MOL0     H25173   5.375   9.570   8.253 -0.2668 -0.5597 -2.1110
  191MOL0     H25174   5.190   9.257   8.312  0.5636  2.3295 -0.3065
  191MOL0     H25175   5.132   9.039   8.273  2.3787  0.7836  0.5214
  191MOL0     H25176   4.809   8.747   8.172  2.3627 -0.0969  1.5474
  191MOL0     H25177   4.754   8.517   8.092 -0.9235  1.9783 -0.4915
  191MOL0     H25178   4.724   8.303   8.022 -0.6745  0.6237  2.7147
  191MOL0     H25179   4.807   8.293   8.176  3.0824 -0.9096  0.6663
  191MOL0     H25180   4.927   8.093   8.118 -1.1330 -0.8382  1.4736
  191MOL0     H25181   4.882   8.090   7.947  0.4631 -2.1375  1.5746
  191MOL0     H25182   4.665   8.057   7.990  3.1604  1.0222 -1.8769
  191MOL0     H25183   4.682   8.058   8.172  2.3224  0.0394  0.9756
  191MOL0     H25184   4.880   7.881   8.087  0.6093  0.7788  0.6426
  191MOL0     H25185   4.724   7.851   8.163  1.2919  1.1906  0.4884
  191MOL0     H25186   4.791   7.721   7.935  0.0050  1.3541 -1.6695
  191MOL0     H25187   4.723   7.864   7.859 -0.3050  1.5692 -0.1544
  191MOL0     H25188   4.511   7.814   7.906 -0.6589 -2.1758 -1.6767
  191MOL0     H25189   4.555   7.796   8.076  0.8210  0.9180  0.6975
  191MOL0     H25190   4.545   7.581   7.862 -0.9108 -1.1338 -0.7245
  191MOL0     H25191   4.628   7.546   8.011 -0.5585 -1.6345 -0.1864
  191MOL0     H25192   4.343   7.647   7.964  2.7809  1.0818 -0.4128
  191MOL0     H25193   4.395   7.615   8.130 -0.5632  3.7228 -0.3581
  191MOL0     H25194   5.155   8.440   7.991 -2.1678 -1.3047 -2.0041
  191MOL0     H25195   5.214   8.672   8.041 -1.0322  0.6500 -2.3339
  191MOL0     H25196   5.109   9.134   7.844  0.2355  0.7234  0.9611
  191MOL0     H25197   5.157   9.355   7.896 -2.4991  1.9544  1.3956
  191MOL0     H25198   4.670   9.769   7.974  3.4487 -0.3614  2.1552
  191MOL0     H25199   4.489   9.645   7.866  0.9947  2.7199 -0.1119
  191MOL0     H25200   4.394   9.202   7.686 -0.3440  1.9032 -0.3678
  191MOL0     H25201   4.222   9.044   7.591  2.5007  1.3453  1.7134
  191MOL0     H25202   3.981   8.950   7.289  0.0216 -0.3367  1.4077
  191MOL0     H25203   4.041   8.923   7.451  1.2398 -1.4514 -0.2113
  191MOL0     H25204   4.214   9.026   7.245 -2.9806  0.9742 -0.0850
  191MOL0     H25205   4.266   8.923   7.371  2.4944 -0.3864 -2.7340
  191MOL0     H25206   4.152   8.708   7.279  0.5560  0.9700  0.6833
  191MOL0     H25207   4.305   8.765   7.207 -0.7153 -3.1744 -2.5217
  191MOL0     H25208   4.030   8.812   7.088 -0.6055  0.8091 -1.5314
  191MOL0     H25209   4.186   8.863   7.021  2.8597 -1.2307  2.4488
  191MOL0     H25210   4.170   8.444   6.948  2.4912  0.6287  1.7908
  191MOL0     H25211   4.067   9.390   7.360  1.2936  2.0347  0.1770
  191MOL0     H25212   4.219   9.509   7.441  0.4523 -0.8408 -1.5748
  192MOL0     O25213   7.267   8.294   3.818 -0.2303  0.0039  1.2268
  192MOL0     C25214   7.164   8.268   3.871  0.2183  0.0982 -0.1533
  192MOL0     O25215   7.043   8.327   3.838  0.2405 -1.1278 -0.9886
  192MOL0     C25216   7.037   8.451   3.779  0.1302 -0.3028 -0.2566
  192MOL0     C25217   7.017   8.572   3.844  0.1283  0.5123 -0.6058
  192MOL0     C25218   7.016   8.697   3.770 -0.4597  0.1782 -0.8138
  192MOL0     C25219   7.051   8.703   3.635 -0.6205 -0.9907  0.7301
  192MOL0     O25220   7.063   8.816   3.559 -0.0916  0.4684 -0.1347
  192MOL0     C25221   7.039   8.948   3.618 -0.0251  0.3774  0.0199
  192MOL0     C25222   7.054   9.056   3.520  0.1124 -0.1742 -0.0880
  192MOL0     C25223   7.200   9.065   3.458  0.5332 -1.0985 -0.0090
  192MOL0     C25224   7.197   9.172   3.342 -0.6906 -0.1764  0.1212
  192MOL0     C25225   7.098   9.283   3.349  0.2686 -0.1613  0.3006
  192MOL0     C25226   7.138   9.380   3.462  0.4560  0.0469 -0.6172
  192MOL0     C25227   7.036   9.499   3.478  0.8560  0.1603  0.7005
  192MOL0     C25228   7.077   9.589   3.592  0.1839 -0.8261 -0.1553
  192MOL0     N25229   7.043   9.525   3.718  0.2191 -0.0259 -0.4816
  192MOL0     C25230   6.914   9.541   3.782 -0.8213  0.0750 -0.2005
  192MOL0     C25231   6.936   9.499   3.905  0.8472 -0.4651 -0.4450
  192MOL0     C25232   6.832   9.480   4.008  0.4084  0.3564 -0.9467
  192MOL0     C25233   6.896   9.542   4.131  1.5619  0.3973 -0.0472
  192MOL0     C25234   6.809   9.552   4.262 -0.5359  0.0089  0.2893
  192MOL0     C25235   6.894   9.633   4.368 -0.0808 -0.3798  0.5083
  192MOL0     O25236   6.813   9.658   4.480  0.0731 -1.1290 -0.2656
  192MOL0     C25237   6.859   9.762   4.556 -1.1286 -0.4939 -0.6647
  192MOL0     C25238   6.751   9.848   4.602  0.3875  0.6956  0.6546
  192MOL0     C25239   6.774   9.960   4.685 -0.8920 -0.4061  0.6110
  192MOL0     C25240   6.897   9.967   4.745 -0.5917  0.0833 -0.4772
  192MOL0     C25241   6.930  10.083   4.834  0.2344  0.2947  1.4343
  192MOL0     O25242   7.038  10.059   4.906 -0.6773  0.3153 -0.5825
  192MOL0     C25243   7.081  10.159   4.986 -0.5487  0.5472 -0.9130
  192MOL0     C25244   7.095  10.142   5.120 -0.6999 -0.1952 -0.2187
  192MOL0     C25245   7.163  10.241   5.201  0.2289 -0.0631  1.2556
  192MOL0     C25246   7.197  10.361   5.137 -0.9840 -0.3702 -0.9862
  192MOL0     O25247   7.238  10.456   5.229  0.8347  0.6434  1.4684
  192MOL0     C25248   7.270  10.588   5.201 -0.4120 -0.8837  0.1163
  192MOL0     C25249   7.316  10.659   5.323 -0.0217  0.1712 -0.7522
  192MOL0     C25250   7.396  10.788   5.295  0.1100  0.7837 -0.0834
  192MOL0     C25251   7.425  10.865   5.428 -0.3779  0.0213  0.2550
  192MOL0     C25252   7.507  10.791   5.527  0.9131  0.4063 -0.8393
  192MOL0     C25253   7.646  10.787   5.481 -0.6990  0.5028 -0.8258
  192MOL0     C25254   7.730  10.713   5.581 -0.7361 -0.1843 -0.1987
  192MOL0     C25255   7.883  10.741   5.575  1.0583 -0.1281 -0.5658
  192MOL0    Cl25256   7.901  10.892   5.657 -0.1437 -0.0876  0.1034
  192MOL0     C25257   7.185  10.375   5.000  0.9624 -0.3998  0.4427
  192MOL0     C25258   7.123  10.272   4.924 -0.3472 -0.3133  0.4224
  192MOL0     O25259   6.866  10.185   4.820  0.1927  0.4273  0.3487
  192MOL0     C25260   7.001   9.871   4.713  1.2834  0.4817 -0.4355
  192MOL0     C25261   6.980   9.768   4.623  0.0934 -0.0850  0.5004
  192MOL0     N25262   7.069   9.465   3.925  0.1858  0.0150  0.2568
  192MOL0     N25263   7.133   9.488   3.815  0.2344  0.0425 -0.6744
  192MOL0     C25264   7.071   8.582   3.566  0.0863  0.2419 -0.0001
  192MOL0     C25265   7.063   8.461   3.634 -0.5947  0.4110 -0.5536
  192MOL0     C25266   7.151   8.174   3.981  0.0556 -0.2877  0.7122
  192MOL0     C25267   7.029   8.140   4.033  0.8075  0.3003  0.6828
  192MOL0     C25268   7.020   8.072   4.150  0.2664 -0.2453  0.5936
  192MOL0     C25269   7.139   8.025   4.214 -0.2116  0.7127  0.3019
  192MOL0     O25270   7.131   7.937   4.318  0.4052 -0.5760  0.4622
  192MOL0     C25271   7.009   7.937   4.402  0.2594 -0.6204 -1.0786
  192MOL0     C25272   6.914   7.814   4.364  0.5273  0.5497 -0.5396
  192MOL0     C25273   6.992   7.681   4.359  0.0585 -0.7401 -0.4125
  192MOL0     C25274   6.908   7.565   4.293  0.1316 -0.2810 -0.3008
  192MOL0     C25275   6.989   7.446   4.258 -0.9028  1.3130  1.2926
  192MOL0     C25276   7.038   7.335   4.255 -0.7054 -0.8323  0.9402
  192MOL0     C25277   7.267   8.045   4.157 -0.5787 -0.3083 -0.3213
  192MOL0     C25278   7.272   8.132   4.050 -0.7386  0.8354  0.4248
  192MOL0     H25279   7.012   8.561   3.952  0.4404  1.8708 -0.4393
  192MOL0     H25280   7.000   8.783   3.834 -2.9259 -1.7050  1.3278
  192MOL0     H25281   7.105   8.960   3.704 -1.0039  1.3649  0.6591
  192MOL0     H25282   6.943   8.947   3.670  0.6372 -1.8162  1.3529
  192MOL0     H25283   7.026   9.145   3.576 -1.4238  0.0154 -1.0966
  192MOL0     H25284   6.979   9.045   3.442  1.9326 -1.4513 -1.7547
  192MOL0     H25285   7.228   8.968   3.414  0.9082 -0.2675 -1.6644
  192MOL0     H25286   7.271   9.097   3.534  0.4410 -0.3871 -0.2216
  192MOL0     H25287   7.299   9.210   3.331  0.5217 -3.2841 -0.4242
  192MOL0     H25288   7.166   9.120   3.250  4.1367 -2.2512 -0.6242
  192MOL0     H25289   6.998   9.238   3.355 -0.5663  1.0895 -2.6587
  192MOL0     H25290   7.095   9.342   3.257  0.9541  1.1972  1.1119
  192MOL0     H25291   7.237   9.416   3.434  1.0289 -0.7506  0.3251
  192MOL0     H25292   7.144   9.329   3.558 -0.2893 -0.3055 -0.7498
  192MOL0     H25293   7.048   9.547   3.381 -1.0658  1.2535  0.9647
  192MOL0     H25294   6.932   9.465   3.468  1.5649 -1.5167 -1.8769
  192MOL0     H25295   7.024   9.685   3.582 -0.5740 -0.9027  2.4603
  192MOL0     H25296   7.180   9.627   3.593  0.6781 -2.1167  0.5666
  192MOL0     H25297   6.821   9.580   3.743 -1.2724 -1.0098 -0.2582
  192MOL0     H25298   6.810   9.376   4.034  1.7085  0.3958  0.4695
  192MOL0     H25299   6.742   9.530   3.972  1.0696  0.6531 -2.2300
  192MOL0     H25300   6.917   9.645   4.100 -0.7572  1.4653  1.6475
  192MOL0     H25301   6.980   9.478   4.159 -0.7431 -2.7684  0.1648
  192MOL0     H25302   6.717   9.601   4.230 -1.0069  0.2460  1.8846
  192MOL0     H25303   6.797   9.452   4.305 -3.2512  0.7250  1.3655
  192MOL0     H25304   6.935   9.727   4.330  0.8950 -0.3314  1.6330
  192MOL0     H25305   6.988   9.579   4.383 -0.2502 -1.1755 -1.0118
  192MOL0     H25306   6.653   9.818   4.567  1.1832  0.7879 -1.8262
  192MOL0     H25307   6.703  10.041   4.693  0.0294  0.6887 -1.5516
  192MOL0     H25308   7.086  10.046   5.170  0.8416 -0.1677  0.1834
  192MOL0     H25309   7.173  10.233   5.309 -2.5578 -0.0276  1.5789
  192MOL0     H25310   7.180  10.635   5.160  1.2612  1.0349 -1.5914
  192MOL0     H25311   7.357  10.586   5.134  0.4986 -0.2104  1.2528
  192MOL0     H25312   7.371  10.580   5.375 -2.4148 -1.6987 -0.8739
  192MOL0     H25313   7.238  10.690   5.392  2.1116  0.9357  1.4532
  192MOL0     H25314   7.329  10.845   5.229  2.1293 -0.0920 -3.1335
  192MOL0     H25315   7.484  10.757   5.237  0.3436 -0.9018  1.1103
  192MOL0     H25316   7.470  10.963   5.415  1.1662 -0.7762 -0.6763
  192MOL0     H25317   7.323  10.870   5.467  0.1239  0.2466  1.5938
  192MOL0     H25318   7.474  10.688   5.547 -0.1013  1.1167  1.3784
  192MOL0     H25319   7.495  10.839   5.624 -0.7146 -2.5836  0.5785
  192MOL0     H25320   7.678  10.891   5.470 -3.7955  1.5641 -0.5339
  192MOL0     H25321   7.651  10.723   5.393 -0.7852 -4.4342  2.3334
  192MOL0     H25322   7.707  10.727   5.687  1.4281 -0.5695  0.3647
  192MOL0     H25323   7.707  10.608   5.561 -2.0686  0.3905 -1.9635
  192MOL0     H25324   7.923  10.741   5.474  0.2885  2.4164 -0.9657
  192MOL0     H25325   7.941  10.664   5.625 -0.8386 -0.6622  0.9688
  192MOL0     H25326   7.216  10.465   4.948  1.4220  0.8854  2.7663
  192MOL0     H25327   7.108  10.287   4.818  0.8267  1.7199  0.5006
  192MOL0     H25328   7.093   9.880   4.771  0.8359  2.4796  0.0395
  192MOL0     H25329   7.058   9.696   4.604  1.8304  0.4122  4.7364
  192MOL0     H25330   7.100   8.597   3.463  0.8330 -0.0114  0.1668
  192MOL0     H25331   7.079   8.376   3.568 -2.4964  0.4652 -1.1459
  192MOL0     H25332   6.934   8.156   3.984  0.2471 -1.1090  1.2524
  192MOL0     H25333   6.919   8.044   4.177 -0.8616  2.4362 -0.4993
  192MOL0     H25334   6.961   8.034   4.386  1.4038  0.2047  0.2478
  192MOL0     H25335   7.038   7.932   4.507 -2.3694  0.2514 -0.2274
  192MOL0     H25336   6.840   7.826   4.444 -0.2698  3.3173 -1.5880
  192MOL0     H25337   6.853   7.822   4.274 -2.0311 -1.9675  0.8062
  192MOL0     H25338   7.020   7.663   4.463 -1.3107 -0.1225  0.0880
  192MOL0     H25339   7.078   7.694   4.293  0.3423 -0.6552 -0.0310
  192MOL0     H25340   6.826   7.533   4.358 -0.3061 -0.4789 -0.9497
  192MOL0     H25341   6.869   7.594   4.195  1.3442  1.2492 -0.3799
  192MOL0     H25342   7.085   7.238   4.257  2.4851  0.5901  2.3118
  192MOL0     H25343   7.365   8.012   4.189  1.4558  2.1029 -3.4374
  192MOL0     H25344   7.370   8.160   4.013 -2.0115  1.3541 -2.8883
  193MOL0     O25345   5.288   2.366   8.043 -0.5950 -0.2636 -0.9089
  193MOL0     C25346   5.318   2.322   8.161  0.2153 -0.3478  0.1728
  193MOL0     O25347   5.437   2.336   8.211 -0.2752  0.4750 -0.5683
  193MOL0     C25348   5.543   2.361   8.133 -0.3871 -1.5525 -0.2059
  193MOL0     C25349   5.607   2.488   8.120  0.5366  0.3029  0.4639
  193MOL0     C25350   5.725   2.495   8.061 -0.7724  0.1319  0.5489
  193MOL0     C25351   5.785   2.390   7.998 -0.0304  0.2666  0.6138
  193MOL0     O25352   5.897   2.396   7.915  0.3397 -0.7697 -0.5355
  193MOL0     C25353   6.002   2.483   7.945 -0.2723  1.2284  0.1160
  193MOL0     C25354   6.127   2.412   7.881  0.5917  0.6961  0.3338
  193MOL0     C25355   6.254   2.495   7.906 -0.8385  0.7300  0.7561
  193MOL0     C25356   6.378   2.421   7.855 -0.2922 -0.2191  0.6819
  193MOL0     C25357   6.505   2.513   7.854 -0.2880 -0.1677 -0.0226
  193MOL0     C25358   6.573   2.528   7.998  0.2812 -0.0832 -0.5978
  193MOL0     C25359   6.651   2.664   8.026 -0.0852 -0.1646 -0.2460
  193MOL0     C25360   6.797   2.639   8.059 -0.4070 -0.8574 -0.4061
  193MOL0     N25361   6.899   2.619   7.960  0.2285 -0.6043  0.8979
  193MOL0     C25362   7.029   2.601   7.986 -0.5305  0.3588 -1.0792
  193MOL0     C25363   7.085   2.576   7.869 -0.0431 -0.1290 -0.3363
  193MOL0     C25364   7.231   2.547   7.851  0.4981 -0.0796 -0.7297
  193MOL0     C25365   7.264   2.399   7.879  0.5936 -0.2954  0.3719
  193MOL0     C25366   7.393   2.332   7.819 -0.1991 -0.1100  0.0470
  193MOL0     C25367   7.520   2.408   7.841  0.3223  0.0085  0.8913
  193MOL0     O25368   7.630   2.326   7.881  0.8561 -0.8439  0.2304
  193MOL0     C25369   7.735   2.390   7.949  0.1185  0.0577 -0.7504
  193MOL0     C25370   7.752   2.530   7.974 -1.0477 -0.7835 -0.7966
  193MOL0     C25371   7.856   2.587   8.057 -0.2505  0.1327 -0.7250
  193MOL0     C25372   7.954   2.505   8.111  0.3437 -0.5858 -1.3953
  193MOL0     C25373   8.045   2.549   8.222 -0.0121 -0.4062 -0.7278
  193MOL0     O25374   8.107   2.460   8.303 -0.4904 -0.0398 -0.5318
  193MOL0     C25375   8.215   2.497   8.378 -0.4346 -0.5598 -0.1923
  193MOL0     C25376   8.191   2.567   8.499 -0.4154 -0.8762 -0.0381
  193MOL0     C25377   8.293   2.598   8.593  0.2745  1.0452  0.0149
  193MOL0     C25378   8.423   2.552   8.555 -1.1103  0.1917 -0.2104
  193MOL0     O25379   8.526   2.547   8.649 -0.1549 -0.4756  0.3217
  193MOL0     C25380   8.594   2.674   8.659  0.5290 -0.3159 -0.2810
  193MOL0     C25381   8.705   2.665   8.768  0.1846  0.7481 -0.0271
  193MOL0     C25382   8.766   2.796   8.803  0.3393  0.5662 -0.3158
  193MOL0     C25383   8.852   2.853   8.689  0.0648  0.7249 -0.9814
  193MOL0     C25384   8.931   2.984   8.732 -0.1651  0.1818  0.6787
  193MOL0     C25385   9.022   3.012   8.621  0.8845 -0.4242 -0.1442
  193MOL0     C25386   9.090   3.154   8.661 -0.5339  0.1453  0.2474
  193MOL0     C25387   9.188   3.201   8.558 -0.0972 -0.1891  0.2294
  193MOL0    Cl25388   9.264   3.353   8.602 -0.2740  0.5205 -0.0956
  193MOL0     C25389   8.443   2.477   8.436  0.2604 -0.7733 -0.4089
  193MOL0     C25390   8.340   2.455   8.348  0.2942  0.1176 -0.8491
  193MOL0     O25391   8.069   2.671   8.220 -0.3418 -0.0144 -0.0653
  193MOL0     C25392   7.934   2.369   8.085 -0.1398 -0.0605 -0.3372
  193MOL0     C25393   7.833   2.315   8.000  0.6014  0.3009 -0.3190
  193MOL0     N25394   6.988   2.569   7.769  0.5016 -0.0793 -0.2032
  193MOL0     N25395   6.880   2.606   7.825  0.6948 -0.7892  0.1602
  193MOL0     C25396   5.705   2.274   7.982 -0.1573 -0.1221  0.0724
  193MOL0     C25397   5.593   2.253   8.061 -0.3006 -1.0506 -0.4353
  193MOL0     C25398   5.200   2.280   8.242  1.3166  0.5556 -0.6309
  193MOL0     C25399   5.217   2.196   8.360 -0.1204  0.4780  0.4653
  193MOL0     C25400   5.111   2.152   8.431 -0.2020  0.0030  0.8619
  193MOL0     C25401   4.985   2.180   8.396 -0.6226 -0.1751  0.1697
  193MOL0     O25402   4.881   2.115   8.452  0.0227 -0.9027 -0.0512
  193MOL0     C25403   4.814   2.023   8.363  0.7347  0.5161 -0.2349
  193MOL0     C25404   4.845   1.872   8.396  0.1770 -0.0533  0.4389
  193MOL0     C25405   4.992   1.842   8.394 -0.6524 -0.5453  0.3630
  193MOL0     C25406   5.011   1.691   8.390  0.4995  0.2923 -0.1100
  193MOL0     C25407   4.976   1.622   8.518  0.4216  1.1026  0.1482
  193MOL0     C25408   4.945   1.548   8.609 -0.6887  0.2362 -0.7254
  193MOL0     C25409   4.959   2.268   8.288  0.0762  0.3768 -0.6538
  193MOL0     C25410   5.065   2.309   8.205 -0.5350  0.1047  0.7510
  193MOL0     H25411   5.549   2.558   8.180 -1.3696 -2.3906  2.0045
  193MOL0     H25412   5.785   2.585   8.076 -1.8131  0.6010  2.1296
  193MOL0     H25413   6.009   2.487   8.054  0.9158  2.8156  0.0122
  193MOL0     H25414   5.983   2.581   7.900  4.6108  1.4649 -2.1327
  193MOL0     H25415   6.111   2.413   7.773  0.0764  3.4002  0.3628
  193MOL0     H25416   6.135   2.308   7.913 -1.7154  0.5906  0.7656
  193MOL0     H25417   6.274   2.516   8.012  1.2277 -0.4256  0.6579
  193MOL0     H25418   6.244   2.592   7.855  0.0390  0.5650  0.2509
  193MOL0     H25419   6.390   2.345   7.934 -0.3481 -0.9736 -0.0266
  193MOL0     H25420   6.359   2.373   7.759 -2.4069  0.3197  0.7800
  193MOL0     H25421   6.481   2.614   7.820  1.4719 -0.0133 -0.8862
  193MOL0     H25422   6.574   2.455   7.793  0.4662 -2.4596  2.7916
  193MOL0     H25423   6.632   2.437   8.011 -0.5985 -0.3050  2.5712
  193MOL0     H25424   6.497   2.535   8.077 -0.4197  2.2450 -1.3674
  193MOL0     H25425   6.658   2.721   7.932  2.2455 -3.5208 -2.3426
  193MOL0     H25426   6.610   2.728   8.104  0.2677  0.1214 -0.2900
  193MOL0     H25427   6.810   2.544   8.112 -0.8255 -2.2853 -2.7688
  193MOL0     H25428   6.832   2.716   8.129  0.7139 -1.4309 -0.3119
  193MOL0     H25429   7.071   2.602   8.086 -1.2667  4.0819 -0.6634
  193MOL0     H25430   7.294   2.605   7.919  0.7058 -1.1921  0.0607
  193MOL0     H25431   7.258   2.571   7.748  0.4862 -2.1667 -1.2598
  193MOL0     H25432   7.188   2.329   7.844  1.0947 -1.2597  1.1903
  193MOL0     H25433   7.274   2.392   7.987  1.6622 -2.5652  0.1827
  193MOL0     H25434   7.404   2.237   7.873 -0.3451  0.2275  0.6768
  193MOL0     H25435   7.365   2.311   7.716 -4.0947 -0.3048  1.0065
  193MOL0     H25436   7.487   2.491   7.905 -2.0527  0.3024 -0.5954
  193MOL0     H25437   7.534   2.450   7.741 -0.7968 -2.6255 -0.4695
  193MOL0     H25438   7.694   2.607   7.924  0.8867  3.9966  3.4562
  193MOL0     H25439   7.855   2.695   8.070  0.8662 -0.0989  2.1782
  193MOL0     H25440   8.088   2.593   8.517  0.1467  3.8920 -2.2903
  193MOL0     H25441   8.271   2.654   8.684 -1.4316 -1.1033  1.0197
  193MOL0     H25442   8.519   2.741   8.703  1.2393 -1.5570  3.1267
  193MOL0     H25443   8.632   2.710   8.563  0.6723  2.4014  0.7012
  193MOL0     H25444   8.785   2.604   8.726 -0.9625  0.1929 -1.4527
  193MOL0     H25445   8.661   2.601   8.845  0.9429 -1.0136 -0.9909
  193MOL0     H25446   8.824   2.790   8.895  0.6064 -1.0905 -0.5602
  193MOL0     H25447   8.678   2.860   8.818 -0.3551 -0.1355 -1.2165
  193MOL0     H25448   8.925   2.775   8.665  0.9946  1.8096 -1.7957
  193MOL0     H25449   8.808   2.878   8.592  0.9156  1.9714 -1.0654
  193MOL0     H25450   8.990   2.977   8.824 -1.8536  0.1503  1.8002
  193MOL0     H25451   8.862   3.065   8.756  1.7856  1.8054  1.0164
  193MOL0     H25452   8.954   3.039   8.540  1.4352 -1.2134 -0.8824
  193MOL0     H25453   9.088   2.930   8.591 -0.3502 -0.5634 -2.8501
  193MOL0     H25454   9.016   3.234   8.654 -0.9411 -0.2964 -0.7656
  193MOL0     H25455   9.133   3.163   8.761 -1.4909  3.9683  0.4512
  193MOL0     H25456   9.124   3.209   8.470 -2.1063  1.9440  1.7729
  193MOL0     H25457   9.270   3.129   8.560  1.0830  1.1029  0.0981
  193MOL0     H25458   8.544   2.443   8.414  0.2425 -1.8232  0.9854
  193MOL0     H25459   8.348   2.379   8.271  0.6013 -1.0000  0.2560
  193MOL0     H25460   7.994   2.289   8.128  2.1839 -0.2821 -3.5798
  193MOL0     H25461   7.826   2.209   7.980  2.4330  0.4547 -2.1394
  193MOL0     H25462   5.742   2.209   7.903 -1.1903  1.3986 -1.7568
  193MOL0     H25463   5.552   2.152   8.063 -1.6773 -0.5438 -1.4131
  193MOL0     H25464   5.313   2.152   8.383  0.2182  0.3401 -1.0783
  193MOL0     H25465   5.129   2.088   8.517 -0.3143 -1.1066  0.0841
  193MOL0     H25466   4.806   2.045   8.256 -0.8970  1.3992  0.0453
  193MOL0     H25467   4.713   2.023   8.403  0.8474 -2.8413  0.3820
  193MOL0     H25468   4.797   1.836   8.488  0.1332  3.6256  2.0244
  193MOL0     H25469   4.798   1.816   8.315  0.1758  0.1361  0.3110
  193MOL0     H25470   5.050   1.886   8.475  0.2539 -1.1851  0.0818
  193MOL0     H25471   5.031   1.869   8.295 -3.1862  3.5170  0.2593
  193MOL0     H25472   4.956   1.650   8.304 -0.1588 -0.7678  0.7951
  193MOL0     H25473   5.117   1.672   8.374  0.0000 -5.0899  1.1959
  193MOL0     H25474   4.925   1.477   8.687 -0.9314 -0.2845 -1.2540
  193MOL0     H25475   4.857   2.300   8.269  0.3475  0.8150 -1.3970
  193MOL0     H25476   5.049   2.379   8.124  3.0475  0.1334 -0.1202
  194MOL0     O25477  10.271   9.120   3.628 -0.2751  0.0471 -0.5551
  194MOL0     C25478  10.279   9.035   3.545  0.2247  0.4214  0.2827
  194MOL0     O25479  10.207   9.021   3.436  0.4782 -0.3970  0.3219
  194MOL0     C25480  10.125   9.138   3.409 -0.3649  0.8759  0.7843
  194MOL0     C25481   9.983   9.127   3.419  0.6911  0.0746  0.3859
  194MOL0     C25482   9.906   9.239   3.419  0.3093 -0.6279 -0.5932
  194MOL0     C25483   9.957   9.370   3.384  0.1218  0.1046 -0.7913
  194MOL0     O25484   9.883   9.485   3.383  0.8010  0.3875 -0.1390
  194MOL0     C25485   9.779   9.488   3.487 -0.5712 -0.4670 -0.1179
  194MOL0     C25486   9.773   9.643   3.523 -0.1139  0.0499  0.3877
  194MOL0     C25487   9.678   9.722   3.429 -0.5208 -0.3534  0.2593
  194MOL0     C25488   9.541   9.692   3.486 -0.5563  0.3473  0.3582
  194MOL0     C25489   9.427   9.770   3.403 -0.4138 -0.3977 -0.4464
  194MOL0     C25490   9.415   9.914   3.440  0.5640  0.4488  0.2394
  194MOL0     C25491   9.314   9.989   3.345 -0.3354 -0.5828 -0.7321
  194MOL0     C25492   9.300  10.144   3.380 -0.1133 -0.1472 -0.1175
  194MOL0     N25493   9.200  10.219   3.297 -0.2490 -0.5922 -0.3278
  194MOL0     C25494   9.137  10.181   3.194  0.2026  0.8715  0.6645
  194MOL0     C25495   9.086  10.288   3.132  0.5931 -0.3491 -0.9534
  194MOL0     C25496   9.010  10.293   3.002 -0.0336 -0.7027 -1.6808
  194MOL0     C25497   8.873  10.350   3.013  0.2174  0.5489 -0.0964
  194MOL0     C25498   8.808  10.350   2.872  0.4709  0.2136  0.4040
  194MOL0     C25499   8.886  10.437   2.780  0.2432  0.2855  0.2180
  194MOL0     O25500   8.827  10.445   2.651  0.0157 -0.3884  0.8243
  194MOL0     C25501   8.727  10.539   2.635  0.1211 -0.5903 -0.2531
  194MOL0     C25502   8.677  10.629   2.733  0.5999 -0.4295  0.0299
  194MOL0     C25503   8.565  10.714   2.703  0.1565  0.4554 -1.0465
  194MOL0     C25504   8.532  10.724   2.565  0.5405 -0.0097 -0.9129
  194MOL0     C25505   8.423  10.821   2.529  0.1123  0.4279 -0.0261
  194MOL0     O25506   8.328  10.837   2.617 -0.2955  0.4120  0.2494
  194MOL0     C25507   8.222  10.916   2.603 -0.5907 -0.6366  0.1555
  194MOL0     C25508   8.100  10.873   2.661  0.0781 -0.1777  0.2326
  194MOL0     C25509   7.985  10.951   2.656  0.3287 -1.2595  0.5922
  194MOL0     C25510   7.985  11.074   2.589 -0.4196  0.0303 -0.0730
  194MOL0     O25511   7.863  11.133   2.564  0.2116 -0.4830 -0.0702
  194MOL0     C25512   7.859  11.262   2.497 -0.6701 -0.4078  0.4001
  194MOL0     C25513   7.709  11.301   2.490 -0.5820  0.5726 -0.3445
  194MOL0     C25514   7.679  11.392   2.366  1.0354  0.6748 -0.5670
  194MOL0     C25515   7.648  11.531   2.401  0.1571  0.2291  0.1677
  194MOL0     C25516   7.603  11.620   2.290  0.5191 -0.1746 -0.1919
  194MOL0     C25517   7.582  11.765   2.349  0.0399  1.5641 -0.4980
  194MOL0     C25518   7.540  11.869   2.252 -0.3467  0.6862  0.5178
  194MOL0     C25519   7.522  12.005   2.326 -0.1007  0.5849 -0.0469
  194MOL0    Cl25520   7.473  12.124   2.205  0.1652 -0.1397  0.1905
  194MOL0     C25521   8.113  11.123   2.546  0.4170 -0.2447  0.2673
  194MOL0     C25522   8.229  11.048   2.561 -0.2885  0.2842 -0.3582
  194MOL0     O25523   8.423  10.871   2.414 -1.1550  0.1738 -0.4372
  194MOL0     C25524   8.584  10.642   2.468 -0.4663 -0.7652 -0.4359
  194MOL0     C25525   8.680  10.548   2.498 -0.9136  1.1089 -0.4018
  194MOL0     N25526   9.147  10.401   3.200  1.0027 -0.7365  0.7192
  194MOL0     N25527   9.193  10.358   3.307 -0.3410  0.0884 -0.5772
  194MOL0     C25528  10.089   9.381   3.354 -0.3918  0.9250  0.7218
  194MOL0     C25529  10.169   9.268   3.367 -1.1210  0.7223 -0.8268
  194MOL0     C25530  10.375   8.920   3.574 -1.1178 -0.6365 -0.0020
  194MOL0     C25531  10.479   8.928   3.672  0.4035 -0.3872  0.2643
  194MOL0     C25532  10.566   8.826   3.710 -0.2543 -1.1644 -1.0277
  194MOL0     C25533  10.550   8.704   3.644  0.9354 -0.4704 -0.2557
  194MOL0     O25534  10.612   8.598   3.690  0.1310  0.5904 -0.2307
  194MOL0     C25535  10.537   8.502   3.768 -0.0539  0.0999  1.0885
  194MOL0     C25536  10.630   8.414   3.851 -0.6605  0.2793 -0.5429
  194MOL0     C25537  10.576   8.332   3.970 -0.0107 -0.2802  0.0118
  194MOL0     C25538  10.512   8.204   3.913  0.2919 -0.2039 -0.7098
  194MOL0     C25539  10.521   8.091   4.016  0.9146 -0.2754 -0.8472
  194MOL0     C25540  10.549   7.991   4.081  0.0886  0.8817  0.1641
  194MOL0     C25541  10.454   8.692   3.543  0.3812  0.1793  0.0118
  194MOL0     C25542  10.364   8.798   3.511 -0.0952  0.0758  0.6032
  194MOL0     H25543   9.946   9.034   3.462 -0.3487  1.3064  2.3323
  194MOL0     H25544   9.801   9.218   3.437  0.4709  0.0548  1.2965
  194MOL0     H25545   9.812   9.436   3.577 -0.6013  0.3529  0.3798
  194MOL0     H25546   9.683   9.444   3.458 -0.2698 -2.7345  1.9831
  194MOL0     H25547   9.871   9.688   3.512  1.2452 -2.6017  0.8322
  194MOL0     H25548   9.745   9.644   3.629  0.1794 -1.1096  0.4902
  194MOL0     H25549   9.680   9.694   3.323  1.4162 -0.4113  0.2685
  194MOL0     H25550   9.709   9.827   3.430 -0.3045 -0.3518 -1.9562
  194MOL0     H25551   9.526   9.584   3.493  2.0975 -0.0094  2.0722
  194MOL0     H25552   9.541   9.731   3.588 -1.0303  2.0327 -0.2579
  194MOL0     H25553   9.329   9.728   3.427  0.4670 -2.2999 -0.0055
  194MOL0     H25554   9.448   9.758   3.296  0.9250 -0.3142 -0.2072
  194MOL0     H25555   9.519   9.950   3.439  0.9708 -0.6419  1.0286
  194MOL0     H25556   9.370   9.920   3.539  1.3584  1.7257  0.5528
  194MOL0     H25557   9.348   9.988   3.241  3.7795  1.2777  0.4246
  194MOL0     H25558   9.217   9.939   3.351  0.7699 -2.9799 -1.6328
  194MOL0     H25559   9.397  10.193   3.377 -0.2147  0.3484  2.2402
  194MOL0     H25560   9.266  10.147   3.485  1.1659 -0.6464  0.3276
  194MOL0     H25561   9.114  10.079   3.166 -1.4707  1.1705  0.8494
  194MOL0     H25562   8.991  10.191   2.970 -1.5300 -0.3989 -1.8068
  194MOL0     H25563   9.073  10.344   2.928  2.1150  0.7550  0.9719
  194MOL0     H25564   8.878  10.449   3.059 -0.0973 -0.7105  2.8547
  194MOL0     H25565   8.805  10.295   3.078 -0.5187  2.7232  1.0721
  194MOL0     H25566   8.799  10.249   2.832 -4.9396  1.0472 -1.4272
  194MOL0     H25567   8.706  10.389   2.886  0.0904  0.3092 -2.1901
  194MOL0     H25568   8.986  10.397   2.761  0.5031  1.3317 -0.7076
  194MOL0     H25569   8.907  10.536   2.822  2.7849  0.3139 -0.9250
  194MOL0     H25570   8.704  10.639   2.838 -0.3028 -0.1735  0.2485
  194MOL0     H25571   8.513  10.774   2.778 -1.0559 -1.7762  0.0005
  194MOL0     H25572   8.096  10.784   2.723  1.2716  0.0872  0.7122
  194MOL0     H25573   7.896  10.914   2.706  1.0603 -0.1442  2.9085
  194MOL0     H25574   7.893  11.250   2.394 -0.3396 -2.1204  0.6818
  194MOL0     H25575   7.926  11.336   2.541  0.7818 -1.3190 -0.2031
  194MOL0     H25576   7.682  11.351   2.584  0.6118 -1.3017  1.0898
  194MOL0     H25577   7.648  11.210   2.491 -0.7824  0.6988 -1.0745
  194MOL0     H25578   7.601  11.354   2.300  0.9316  0.0146 -0.0705
  194MOL0     H25579   7.759  11.385   2.291  1.0199 -1.0817 -0.4612
  194MOL0     H25580   7.570  11.535   2.477  1.0038  2.4804  1.0141
  194MOL0     H25581   7.738  11.576   2.446  0.7581 -1.1589  0.4047
  194MOL0     H25582   7.506  11.583   2.255  0.7987 -0.9920 -0.1247
  194MOL0     H25583   7.668  11.621   2.202  1.5742  0.5913  0.5791
  194MOL0     H25584   7.677  11.793   2.394 -0.1323  3.0444 -1.0099
  194MOL0     H25585   7.504  11.752   2.424 -0.3254  3.8855 -0.3929
  194MOL0     H25586   7.603  11.878   2.164 -0.9331 -0.8734 -0.1013
  194MOL0     H25587   7.441  11.829   2.227  0.6066 -1.6817  0.3071
  194MOL0     H25588   7.603  12.036   2.392  0.1779 -0.2259  0.0014
  194MOL0     H25589   7.432  12.003   2.388 -2.7209 -1.1237 -3.5034
  194MOL0     H25590   8.118  11.224   2.506  1.4139  0.9488  3.1653
  194MOL0     H25591   8.326  11.091   2.538  1.8691 -3.6601  0.4874
  194MOL0     H25592   8.578  10.642   2.359  1.2346  0.5798 -0.5670
  194MOL0     H25593   8.727  10.477   2.431 -0.0052 -0.2262  1.5607
  194MOL0     H25594  10.120   9.478   3.317 -0.8982  0.4421 -1.1102
  194MOL0     H25595  10.273   9.285   3.337 -0.2994  1.6067  2.1538
  194MOL0     H25596  10.484   9.021   3.728  0.0321  0.5027 -1.1435
  194MOL0     H25597  10.646   8.831   3.783 -0.6446  0.6265 -0.6545
  194MOL0     H25598  10.463   8.457   3.701  1.6511 -2.0969  0.5884
  194MOL0     H25599  10.473   8.551   3.842 -0.7021  2.7194 -1.0671
  194MOL0     H25600  10.667   8.344   3.775 -1.4011 -0.6604 -0.0647
  194MOL0     H25601  10.712   8.474   3.889  0.8732 -2.9297  1.7281
  194MOL0     H25602  10.502   8.392   4.025 -0.1046 -0.4786  0.1019
  194MOL0     H25603  10.669   8.311   4.023  0.6761  0.0293 -1.0503
  194MOL0     H25604  10.409   8.233   3.886  0.7007  0.0230 -2.1160
  194MOL0     H25605  10.565   8.160   3.828  1.0439 -1.9319  0.6122
  194MOL0     H25606  10.573   7.904   4.138  1.7474 -1.0025 -3.1566
  194MOL0     H25607  10.449   8.606   3.477 -3.5348  1.2888 -1.3880
  194MOL0     H25608  10.297   8.793   3.426  2.2141  2.5290 -1.5716
  195MOL0     O25609   6.646   8.952   1.972  0.4942 -0.2057  0.2229
  195MOL0     C25610   6.648   8.872   2.063 -0.2148 -0.6964  0.5677
  195MOL0     O25611   6.568   8.766   2.073  0.2384  0.1904 -0.1034
  195MOL0     C25612   6.474   8.737   1.975  0.7977 -0.0877  0.5400
  195MOL0     C25613   6.493   8.732   1.834 -0.5417  0.9003  0.5847
  195MOL0     C25614   6.385   8.722   1.742 -1.1631 -0.0962  0.0344
  195MOL0     C25615   6.251   8.723   1.781  0.1219 -0.3012  0.5174
  195MOL0     O25616   6.147   8.708   1.697 -0.1243 -0.8581  0.3241
  195MOL0     C25617   6.175   8.637   1.572 -0.0252 -0.4744  0.3215
  195MOL0     C25618   6.176   8.485   1.591  0.6655 -0.1083 -0.2696
  195MOL0     C25619   6.034   8.417   1.574 -0.4060 -0.4725  0.1214
  195MOL0     C25620   6.003   8.404   1.424  0.0208 -0.5000 -0.1200
  195MOL0     C25621   5.911   8.295   1.393 -0.0687 -0.1378  0.1728
  195MOL0     C25622   5.920   8.280   1.236 -0.7931  0.0155  0.6123
  195MOL0     C25623   6.016   8.162   1.186  0.1201  0.4262  0.8787
  195MOL0     C25624   6.027   8.127   1.035 -0.3878  0.5936  1.4478
  195MOL0     N25625   5.916   8.039   0.990  0.0669 -0.6562  0.4242
  195MOL0     C25626   5.817   7.991   1.065 -0.3923 -0.6350 -0.5140
  195MOL0     C25627   5.735   7.931   0.983 -0.3593  0.2185 -0.0616
  195MOL0     C25628   5.597   7.874   1.023 -0.6173 -0.1978  1.1369
  195MOL0     C25629   5.582   7.742   0.948 -1.1857 -0.8513 -0.7202
  195MOL0     C25630   5.444   7.698   0.971 -0.0166  0.1477 -0.4405
  195MOL0     C25631   5.422   7.564   0.891 -1.1281  0.5234 -0.4996
  195MOL0     O25632   5.335   7.486   0.969 -0.3900 -0.2534  0.9830
  195MOL0     C25633   5.314   7.351   0.939  0.3711  1.1536  0.7530
  195MOL0     C25634   5.374   7.288   0.831 -0.2366  0.5510 -0.6928
  195MOL0     C25635   5.374   7.149   0.826 -0.4602  0.1889 -0.6660
  195MOL0     C25636   5.310   7.069   0.921  1.3399 -0.6385  0.7218
  195MOL0     C25637   5.321   6.924   0.916  0.1483  0.3637  0.7885
  195MOL0     O25638   5.270   6.850   1.015  0.1875 -0.2703  0.4258
  195MOL0     C25639   5.271   6.716   1.012 -0.8358  1.1007  0.5579
  195MOL0     C25640   5.148   6.653   0.984  0.1019 -0.4635 -0.9124
  195MOL0     C25641   5.135   6.516   0.988  0.3076 -0.6482  0.4905
  195MOL0     C25642   5.253   6.437   1.002  1.0237  0.0161 -0.7065
  195MOL0     O25643   5.242   6.295   1.020 -0.1960  0.2319  0.6344
  195MOL0     C25644   5.116   6.236   1.004  0.2106 -0.9584 -0.0358
  195MOL0     C25645   5.095   6.089   0.998  0.2100  0.9004 -0.6073
  195MOL0     C25646   5.138   6.013   0.873  0.6842 -0.0780 -0.1975
  195MOL0     C25647   5.072   5.882   0.871 -0.3369 -0.1745 -0.0537
  195MOL0     C25648   5.137   5.776   0.791 -0.8097  0.0336 -1.2564
  195MOL0     C25649   5.050   5.648   0.780 -0.3204 -0.3186  0.2294
  195MOL0     C25650   4.947   5.656   0.670  0.4758 -0.2692  1.0577
  195MOL0     C25651   4.996   5.657   0.528  0.2821  0.3766  0.3674
  195MOL0    Cl25652   4.850   5.623   0.438 -0.3027 -0.2017  0.5987
  195MOL0     C25653   5.374   6.495   1.041 -0.3515  0.1611 -0.1409
  195MOL0     C25654   5.386   6.634   1.039  0.1233 -0.5729 -0.3990
  195MOL0     O25655   5.380   6.869   0.816  0.3121 -0.0298 -0.7930
  195MOL0     C25656   5.238   7.130   1.029  0.0379 -0.3421 -0.0094
  195MOL0     C25657   5.252   7.268   1.030  0.1601 -0.4248 -0.0249
  195MOL0     N25658   5.772   7.950   0.853 -0.4681 -0.3669 -0.8292
  195MOL0     N25659   5.888   8.006   0.858  1.0901 -0.3119  0.5373
  195MOL0     C25660   6.230   8.716   1.922  0.9454  0.9655 -0.0262
  195MOL0     C25661   6.340   8.729   2.008 -0.1550 -0.3521  0.0010
  195MOL0     C25662   6.766   8.876   2.168  0.6374 -0.0716 -0.4515
  195MOL0     C25663   6.782   8.779   2.269 -0.7220  0.2751  0.1687
  195MOL0     C25664   6.897   8.791   2.358 -0.2377 -0.6169 -0.1927
  195MOL0     C25665   6.981   8.902   2.342 -0.4708 -0.4456 -0.5642
  195MOL0     O25666   7.098   8.910   2.418 -0.1982  1.0041  0.4986
  195MOL0     C25667   7.057   8.993   2.530  0.1106 -0.2873  0.1165
  195MOL0     C25668   7.170   9.017   2.625 -0.4259 -0.1121  0.4030
  195MOL0     C25669   7.187   8.887   2.714  0.3184 -0.4662  0.3182
  195MOL0     C25670   7.322   8.904   2.792  0.6710 -0.8045  0.9282
  195MOL0     C25671   7.361   8.781   2.861 -0.0740 -0.1126  0.6788
  195MOL0     C25672   7.362   8.665   2.897 -0.8018  0.4069  0.2044
  195MOL0     C25673   6.967   8.992   2.241 -0.6460 -0.5215  0.6583
  195MOL0     C25674   6.863   8.979   2.144 -0.3033 -0.0189  0.6615
  195MOL0     H25675   6.597   8.739   1.806 -0.3841  0.9092  1.1505
  195MOL0     H25676   6.411   8.728   1.637  2.1277  2.9364  0.7951
  195MOL0     H25677   6.263   8.664   1.513 -0.2131  0.6549  0.5431
  195MOL0     H25678   6.089   8.632   1.505  2.0466 -2.6677 -2.4324
  195MOL0     H25679   6.215   8.457   1.689 -3.1440 -0.3320  1.3437
  195MOL0     H25680   6.251   8.444   1.523  3.3403  1.8761  1.3076
  195MOL0     H25681   5.952   8.470   1.622 -0.5585  2.0300 -2.6167
  195MOL0     H25682   6.059   8.324   1.627  1.5531 -0.5656 -0.8601
  195MOL0     H25683   5.960   8.494   1.378  1.1365  0.5621  0.8367
  195MOL0     H25684   6.095   8.383   1.370  1.4407  4.2847 -0.0931
  195MOL0     H25685   5.807   8.311   1.420 -0.4656 -2.7833  0.4908
  195MOL0     H25686   5.935   8.197   1.436  1.4872  1.2485  2.7194
  195MOL0     H25687   5.942   8.373   1.182  3.3629 -1.4894 -0.7022
  195MOL0     H25688   5.831   8.240   1.188  1.1670 -0.0234 -3.3532
  195MOL0     H25689   6.117   8.194   1.213  1.4461  0.1240 -3.1146
  195MOL0     H25690   5.989   8.075   1.248  0.1769  0.2969  0.7230
  195MOL0     H25691   6.119   8.072   1.018  0.2820  2.5063 -2.1100
  195MOL0     H25692   6.035   8.221   0.980  3.6996 -0.3135  0.1909
  195MOL0     H25693   5.812   8.014   1.171  2.1703 -0.0821 -0.4399
  195MOL0     H25694   5.516   7.938   0.988 -1.1243  0.6697  3.6613
  195MOL0     H25695   5.585   7.835   1.125  0.4322 -2.1130  0.5712
  195MOL0     H25696   5.652   7.662   0.974  1.0964  0.3544 -2.7311
  195MOL0     H25697   5.604   7.754   0.842  0.0971  0.8395 -0.3103
  195MOL0     H25698   5.431   7.683   1.079  0.9799  0.4696 -0.2679
  195MOL0     H25699   5.369   7.771   0.939 -0.4380 -0.5178 -1.0155
  195MOL0     H25700   5.515   7.507   0.892  0.2862  2.6786  0.4521
  195MOL0     H25701   5.402   7.579   0.785  1.3309  0.5293 -1.0104
  195MOL0     H25702   5.437   7.340   0.760  1.1822  1.4426  1.1347
  195MOL0     H25703   5.429   7.110   0.741  1.4098  0.8770  0.1679
  195MOL0     H25704   5.063   6.719   0.975  0.1653 -0.0575  1.0347
  195MOL0     H25705   5.036   6.479   0.962  0.2355 -0.3312  0.3079
  195MOL0     H25706   5.071   6.273   0.911 -0.0130 -0.2838  0.3386
  195MOL0     H25707   5.052   6.269   1.086 -2.2056 -0.5846 -1.9420
  195MOL0     H25708   4.987   6.077   1.007  0.3401  0.7590  1.2972
  195MOL0     H25709   5.128   6.021   1.077 -0.5088 -2.3285 -2.8909
  195MOL0     H25710   5.247   6.007   0.867  0.9346 -3.0292  3.7624
  195MOL0     H25711   5.101   6.062   0.782  1.3992  1.4484  0.3048
  195MOL0     H25712   5.086   5.840   0.971 -0.9390  1.6788  0.8474
  195MOL0     H25713   4.965   5.893   0.856 -0.7584  0.0398  2.6599
  195MOL0     H25714   5.230   5.742   0.838 -2.6461 -1.2093  1.7792
  195MOL0     H25715   5.160   5.817   0.692  0.0886  0.9468 -0.6975
  195MOL0     H25716   4.996   5.639   0.875 -0.5442  0.3464  0.1705
  195MOL0     H25717   5.127   5.572   0.767 -2.2194 -2.5301  1.1709
  195MOL0     H25718   4.887   5.565   0.678  0.0240 -0.2638 -1.4418
  195MOL0     H25719   4.882   5.742   0.689  0.5769  0.7926 -2.6173
  195MOL0     H25720   5.062   5.570   0.518  2.1939  1.6713  1.2877
  195MOL0     H25721   5.035   5.756   0.503 -1.8821  1.0892 -0.4602
  195MOL0     H25722   5.456   6.427   1.060  1.5286  2.1999 -0.5164
  195MOL0     H25723   5.483   6.673   1.068 -0.6271 -0.4677  2.2604
  195MOL0     H25724   5.189   7.073   1.108  0.3407 -1.8197 -0.8369
  195MOL0     H25725   5.212   7.313   1.120  2.9173 -1.3344  1.7863
  195MOL0     H25726   6.136   8.684   1.966  3.0391 -3.4808  1.8713
  195MOL0     H25727   6.322   8.733   2.115  0.4341  1.4157  0.0703
  195MOL0     H25728   6.703   8.705   2.280 -0.9768  0.0582 -2.3967
  195MOL0     H25729   6.899   8.726   2.445 -2.5631  1.1511  1.3127
  195MOL0     H25730   6.981   8.926   2.570  1.7320 -2.7830 -0.7693
  195MOL0     H25731   7.017   9.089   2.496 -1.6624 -1.8215 -2.5600
  195MOL0     H25732   7.257   9.046   2.565 -1.4618 -0.9599 -1.5966
  195MOL0     H25733   7.140   9.099   2.691 -1.5477 -0.8046  0.7755
  195MOL0     H25734   7.192   8.796   2.653 -4.6111 -1.8389  1.4973
  195MOL0     H25735   7.099   8.878   2.778  0.0910 -1.9985 -0.1585
  195MOL0     H25736   7.397   8.924   2.715 -1.7068 -1.6067 -1.7892
  195MOL0     H25737   7.311   8.982   2.868  0.1492  2.7813 -2.4843
  195MOL0     H25738   7.345   8.567   2.939  1.3720 -0.4468 -0.7740
  195MOL0     H25739   7.044   9.067   2.228 -2.0536  0.6127 -2.0481
  195MOL0     H25740   6.858   9.062   2.074  2.7904 -0.1218  0.1739
  196MOL0     O25741   8.529   1.921  10.659 -1.1585 -0.0866 -0.0437
  196MOL0     C25742   8.552   1.796  10.661 -0.2432 -0.6086  0.2344
  196MOL0     O25743   8.574   1.718  10.545  0.0714  0.0509 -0.1868
  196MOL0     C25744   8.577   1.762  10.419 -0.0476 -0.7330  0.7477
  196MOL0     C25745   8.600   1.651  10.324  0.5680 -0.4489 -0.5621
  196MOL0     C25746   8.617   1.670  10.194 -0.0475 -0.2105  0.9948
  196MOL0     C25747   8.612   1.804  10.139  0.0270 -0.1509 -0.4326
  196MOL0     O25748   8.634   1.834  10.007  0.3406 -0.4541 -0.2170
  196MOL0     C25749   8.624   1.737   9.906 -0.3022  0.3574  0.4721
  196MOL0     C25750   8.485   1.683   9.860 -0.3361  0.4112  0.0783
  196MOL0     C25751   8.379   1.788   9.823  0.3028  0.4911  0.3124
  196MOL0     C25752   8.277   1.725   9.723  0.5917  0.0913 -0.2863
  196MOL0     C25753   8.212   1.587   9.773 -0.3085  0.4009  0.5112
  196MOL0     C25754   8.123   1.523   9.680  0.1124  0.8063  0.8143
  196MOL0     C25755   8.046   1.421   9.754 -0.7825 -0.4127  0.1787
  196MOL0     C25756   7.950   1.351   9.642  1.2473 -0.0291 -0.4038
  196MOL0     N25757   7.853   1.448   9.596  0.3006 -0.6953  0.4444
  196MOL0     C25758   7.814   1.466   9.462 -0.4114  0.8936 -0.6340
  196MOL0     C25759   7.702   1.541   9.484  0.0097  0.1553 -0.4392
  196MOL0     C25760   7.618   1.596   9.382 -0.0293 -0.3365  0.0297
  196MOL0     C25761   7.643   1.744   9.337  0.5239  0.2361 -0.8891
  196MOL0     C25762   7.790   1.767   9.299  0.1885 -0.2993  0.2415
  196MOL0     C25763   7.803   1.871   9.191  0.1898  0.4428  0.0007
  196MOL0     O25764   7.757   1.996   9.235 -0.8757 -0.7994 -0.2943
  196MOL0     C25765   7.768   2.108   9.151 -0.1364  0.4819 -0.7043
  196MOL0     C25766   7.743   2.234   9.202  0.8160  0.5690 -0.2466
  196MOL0     C25767   7.749   2.352   9.138 -0.1363 -0.0470 -0.2987
  196MOL0     C25768   7.805   2.356   9.015 -0.9509 -0.3755  0.6536
  196MOL0     C25769   7.820   2.483   8.953 -1.4746 -0.2098 -0.6564
  196MOL0     O25770   7.840   2.476   8.822  0.2608 -1.1860 -0.2234
  196MOL0     C25771   7.851   2.594   8.747 -0.1134  0.2483 -0.3447
  196MOL0     C25772   7.767   2.605   8.633  0.7747  0.1703  0.4535
  196MOL0     C25773   7.777   2.717   8.548  0.0643  0.7707 -0.8138
  196MOL0     C25774   7.855   2.825   8.583  0.4781  0.1169 -0.2056
  196MOL0     O25775   7.865   2.937   8.503 -0.3135 -0.1449  0.9506
  196MOL0     C25776   7.815   2.931   8.357 -0.2275  0.4125 -1.0422
  196MOL0     C25777   7.889   3.036   8.288 -0.0766 -0.7351  0.3526
  196MOL0     C25778   7.860   3.021   8.135  0.2552 -0.4402  0.1761
  196MOL0     C25779   7.879   3.151   8.063 -0.2357 -0.2143  0.1561
  196MOL0     C25780   7.859   3.140   7.913  0.0204  0.0353  0.1964
  196MOL0     C25781   7.888   3.268   7.846 -0.0465 -0.3918  0.8928
  196MOL0     C25782   8.032   3.322   7.867  1.3467 -0.7107 -0.3729
  196MOL0     C25783   8.053   3.463   7.809 -0.6482 -0.6651  0.3292
  196MOL0    Cl25784   7.943   3.584   7.875  0.1755 -0.0144 -0.3113
  196MOL0     C25785   7.936   2.817   8.703 -0.7301 -0.1431  0.1612
  196MOL0     C25786   7.934   2.696   8.782  0.1166 -0.6943  0.0900
  196MOL0     O25787   7.784   2.586   9.004 -0.0381 -0.1722  0.2278
  196MOL0     C25788   7.844   2.231   8.956 -0.3285  0.3223  0.0697
  196MOL0     C25789   7.816   2.110   9.022  0.0140  0.4120 -0.0100
  196MOL0     N25790   7.670   1.555   9.621 -0.0147  0.0232  0.0485
  196MOL0     N25791   7.763   1.495   9.683 -0.2479  0.1951 -0.6823
  196MOL0     C25792   8.588   1.910  10.224 -0.1663 -0.1128 -0.5419
  196MOL0     C25793   8.569   1.897  10.367  0.1175 -0.2894 -0.0136
  196MOL0     C25794   8.542   1.743  10.798  0.1048 -0.2288  0.5860
  196MOL0     C25795   8.530   1.820  10.909 -0.0482 -1.0271 -1.0798
  196MOL0     C25796   8.527   1.771  11.040  0.1417 -0.3593 -0.4426
  196MOL0     C25797   8.545   1.630  11.058  1.1828  0.1247 -0.0875
  196MOL0     O25798   8.551   1.587  11.189 -1.4313  0.3730  0.4010
  196MOL0     C25799   8.579   1.450  11.214  0.1426 -0.4356  0.3948
  196MOL0     C25800   8.727   1.442  11.238  0.0968  0.9351 -0.5841
  196MOL0     C25801   8.778   1.520  11.362 -0.1099  0.0165  0.1443
  196MOL0     C25802   8.926   1.506  11.363 -0.5629 -0.2151 -0.8455
  196MOL0     C25803   8.990   1.552  11.493  0.1784 -0.4269 -1.1404
  196MOL0     C25804   9.028   1.608  11.592 -0.5679  0.9213 -0.2286
  196MOL0     C25805   8.563   1.551  10.949  0.4125 -0.3418  0.5268
  196MOL0     C25806   8.554   1.597  10.813  0.0077  0.4125  0.3129
  196MOL0     H25807   8.605   1.553  10.371  0.3804  0.2235  0.9163
  196MOL0     H25808   8.634   1.588  10.125 -0.7421  2.7089 -3.0390
  196MOL0     H25809   8.688   1.649   9.923 -3.0034 -1.7418  0.5728
  196MOL0     H25810   8.659   1.799   9.823 -0.5244  0.2872  0.3268
  196MOL0     H25811   8.447   1.624   9.943  0.2038 -2.0689 -1.3292
  196MOL0     H25812   8.499   1.621   9.770  1.3772  0.4611  0.2764
  196MOL0     H25813   8.419   1.885   9.791 -1.3548  0.5858 -1.7193
  196MOL0     H25814   8.318   1.805   9.912  0.2871  1.3339  0.1519
  196MOL0     H25815   8.190   1.791   9.708  0.7153 -0.0439 -1.7447
  196MOL0     H25816   8.322   1.704   9.626 -0.8213 -0.1345 -0.9123
  196MOL0     H25817   8.166   1.605   9.871 -0.4750 -1.5902  0.8372
  196MOL0     H25818   8.297   1.520   9.780  0.3808  1.3901  2.1762
  196MOL0     H25819   8.183   1.468   9.606  0.9101 -0.8929  2.6428
  196MOL0     H25820   8.063   1.598   9.628 -0.9002 -0.3920  0.2169
  196MOL0     H25821   8.108   1.356   9.817 -1.1389 -1.0493 -0.1195
  196MOL0     H25822   7.999   1.483   9.831  0.8617  1.7754 -0.4607
  196MOL0     H25823   7.889   1.273   9.689  0.9418  0.2335 -0.3699
  196MOL0     H25824   8.012   1.316   9.559  1.2993 -0.7602 -0.0678
  196MOL0     H25825   7.849   1.434   9.365  0.1240 -0.1344 -0.1165
  196MOL0     H25826   7.514   1.578   9.411 -0.2971  1.8570  0.5817
  196MOL0     H25827   7.639   1.542   9.289 -1.5636 -0.0312 -0.5361
  196MOL0     H25828   7.605   1.810   9.416  1.4525 -0.0568 -0.1694
  196MOL0     H25829   7.581   1.753   9.248 -1.4367 -0.4912  0.3266
  196MOL0     H25830   7.847   1.798   9.387  0.1145 -0.8994  0.5085
  196MOL0     H25831   7.838   1.676   9.261  2.0202  0.9847 -0.6466
  196MOL0     H25832   7.757   1.817   9.108  0.4940  0.3038 -0.0799
  196MOL0     H25833   7.905   1.899   9.163  1.1731  0.7303  3.4380
  196MOL0     H25834   7.721   2.238   9.308 -1.7366  1.6788 -0.7512
  196MOL0     H25835   7.707   2.442   9.182  1.0331 -0.2887  1.3841
  196MOL0     H25836   7.702   2.521   8.610  0.3452  0.4537  0.6155
  196MOL0     H25837   7.722   2.709   8.455  0.6675 -4.1260 -1.0088
  196MOL0     H25838   7.708   2.953   8.356 -0.1493  1.4114  2.1431
  196MOL0     H25839   7.832   2.842   8.295  3.5005 -0.8994  1.5290
  196MOL0     H25840   7.996   3.021   8.305 -0.3569 -1.0478  1.9660
  196MOL0     H25841   7.871   3.137   8.325  3.4853  0.5158 -0.9655
  196MOL0     H25842   7.754   2.997   8.129  0.5411 -1.5182 -0.8973
  196MOL0     H25843   7.908   2.931   8.093  1.0818  0.5208 -1.0111
  196MOL0     H25844   7.800   3.220   8.093 -2.7071 -1.7000 -2.3782
  196MOL0     H25845   7.978   3.187   8.092 -0.9722  1.5532  0.5824
  196MOL0     H25846   7.755   3.109   7.900 -0.7691  2.6224 -0.3416
  196MOL0     H25847   7.914   3.059   7.866  0.2130  0.7495 -0.8467
  196MOL0     H25848   7.821   3.341   7.893  1.0455  0.1058  1.7112
  196MOL0     H25849   7.863   3.274   7.740  0.1642  4.3050  0.9210
  196MOL0     H25850   8.055   3.331   7.974  0.2464 -0.7448 -0.1192
  196MOL0     H25851   8.098   3.246   7.824 -0.9397 -3.0545 -0.0518
  196MOL0     H25852   8.041   3.466   7.700 -1.8137 -0.7250  0.4470
  196MOL0     H25853   8.152   3.510   7.818 -1.0503  1.0040 -2.6240
  196MOL0     H25854   8.018   2.884   8.725 -0.5151 -0.4446  0.2881
  196MOL0     H25855   7.998   2.679   8.867  0.9028 -0.6568 -0.4828
  196MOL0     H25856   7.893   2.231   8.859 -1.1786 -1.7662 -0.4098
  196MOL0     H25857   7.850   2.020   8.971  0.7516  0.2045  0.8143
  196MOL0     H25858   8.584   2.008  10.177 -1.8743 -0.5669 -1.4241
  196MOL0     H25859   8.560   1.984  10.432 -0.1568  1.3440 -2.1391
  196MOL0     H25860   8.529   1.928  10.894 -4.0261 -0.1706  2.7826
  196MOL0     H25861   8.512   1.842  11.121 -0.1640 -1.0493  0.1266
  196MOL0     H25862   8.552   1.375  11.139  2.5246 -0.7627 -0.2299
  196MOL0     H25863   8.517   1.418  11.298 -0.7798 -1.6085 -0.7006
  196MOL0     H25864   8.765   1.340  11.243  1.4558  1.4665  1.4468
  196MOL0     H25865   8.771   1.494  11.153  1.4974 -0.8252 -0.9896
  196MOL0     H25866   8.733   1.475  11.451 -1.3017  1.8150  0.5078
  196MOL0     H25867   8.747   1.625  11.355 -1.3733 -0.4361 -2.2739
  196MOL0     H25868   8.948   1.400  11.376 -0.7303  0.0639  2.8774
  196MOL0     H25869   8.973   1.559  11.280 -1.1327 -2.2264 -2.5390
  196MOL0     H25870   9.065   1.654  11.681 -0.2190  0.9571 -0.3921
  196MOL0     H25871   8.584   1.445  10.953 -0.1897 -0.5023 -0.2862
  196MOL0     H25872   8.569   1.538  10.723  1.0784  2.0790 -0.6478
  197MOL0     O25873   9.100  11.298   8.102 -1.0094 -0.5304 -0.2018
  197MOL0     C25874   9.033  11.216   8.156 -0.0445  0.0483 -0.0468
  197MOL0     O25875   9.001  11.091   8.108 -0.1442 -0.0482 -0.0414
  197MOL0     C25876   9.059  11.042   7.998 -0.0667  0.2562  0.3171
  197MOL0     C25877   9.066  11.102   7.878  0.1799  0.2212 -0.3201
  197MOL0     C25878   9.145  11.051   7.773  0.2616 -0.0063 -0.1234
  197MOL0     C25879   9.225  10.948   7.788 -0.7507 -0.1987  0.1254
  197MOL0     O25880   9.298  10.894   7.695  0.1524 -0.4015  0.7684
  197MOL0     C25881   9.411  10.984   7.651  0.1635 -0.1522  0.5313
  197MOL0     C25882   9.412  10.967   7.498  0.3712 -1.0458 -0.4401
  197MOL0     C25883   9.547  11.015   7.447  0.2645 -0.3372  0.0158
  197MOL0     C25884   9.660  10.916   7.445  0.0619 -0.4559  0.1107
  197MOL0     C25885   9.793  10.988   7.405 -0.2953 -0.2197 -0.7535
  197MOL0     C25886   9.930  10.926   7.457  0.5090 -0.1106  0.2074
  197MOL0     C25887   9.948  10.788   7.392 -0.0419  0.0380  1.0449
  197MOL0     C25888   9.987  10.800   7.246  0.0027  0.5988  0.0947
  197MOL0     N25889  10.022  10.669   7.191  0.2046 -0.0369  0.2871
  197MOL0     C25890  10.145  10.603   7.205 -0.7989  0.0204  0.4992
  197MOL0     C25891  10.115  10.476   7.161  0.5122  0.6953  0.1510
  197MOL0     C25892  10.226  10.376   7.133 -1.1352  0.1395  0.1257
  197MOL0     C25893  10.340  10.448   7.043 -0.6080 -0.4875  0.1500
  197MOL0     C25894  10.432  10.339   6.996  0.1964  0.3731 -0.7532
  197MOL0     C25895  10.559  10.382   6.912  0.2747 -0.4499  0.7891
  197MOL0     O25896  10.612  10.270   6.832  0.5051  0.1235  0.1787
  197MOL0     C25897  10.708  10.186   6.884  1.7740  0.5611  0.0148
  197MOL0     C25898  10.768  10.097   6.792  0.5213 -0.8624  1.1105
  197MOL0     C25899  10.844   9.992   6.825 -0.5389 -0.0195  0.0922
  197MOL0     C25900  10.883   9.973   6.963 -0.4517 -0.1454  0.6727
  197MOL0     C25901  10.952   9.851   7.017 -0.0829 -0.3899 -0.3047
  197MOL0     O25902  11.014   9.775   6.917  0.5424  0.0483 -0.3959
  197MOL0     C25903  11.063   9.655   6.951  0.0910  0.6914  1.1574
  197MOL0     C25904  11.198   9.631   6.920 -0.7437  0.0532 -0.4116
  197MOL0     C25905  11.250   9.505   6.938 -0.4078  0.2284  0.0725
  197MOL0     C25906  11.165   9.401   6.977 -0.3978  0.1149 -0.3106
  197MOL0     O25907  11.211   9.275   6.991  0.1399  0.9034  0.3199
  197MOL0     C25908  11.344   9.242   6.942  0.5527  0.6359 -0.0015
  197MOL0     C25909  11.336   9.095   6.905 -0.2694  0.8528  0.9689
  197MOL0     C25910  11.471   9.028   6.905 -0.8214 -0.1825  0.6742
  197MOL0     C25911  11.474   8.899   6.819 -0.0743 -0.1784  0.0079
  197MOL0     C25912  11.617   8.855   6.812 -0.8716  0.6484 -1.0799
  197MOL0     C25913  11.692   8.819   6.941  0.6631 -0.0267  0.2450
  197MOL0     C25914  11.804   8.715   6.925  0.1583 -0.1156 -0.3511
  197MOL0     C25915  11.821   8.619   7.043  0.6078 -0.2445  0.2232
  197MOL0    Cl25916  11.932   8.487   6.993 -0.1186 -0.0103  0.0466
  197MOL0     C25917  11.028   9.423   7.007 -0.0159  0.1923  0.2206
  197MOL0     C25918  10.979   9.551   6.994 -0.4739  0.1294 -0.9310
  197MOL0     O25919  10.953   9.833   7.136 -0.4017 -0.2145  0.5789
  197MOL0     C25920  10.831  10.065   7.055  0.3891  1.1211  0.0708
  197MOL0     C25921  10.742  10.167   7.017 -0.6993  0.0912  0.1505
  197MOL0     N25922   9.987  10.471   7.111  0.3008 -0.0949 -0.5122
  197MOL0     N25923   9.935  10.589   7.130  0.3597  0.4053  0.5652
  197MOL0     C25924   9.219  10.877   7.905  0.3620  0.2424 -0.7803
  197MOL0     C25925   9.140  10.920   8.011 -0.5050 -0.3041  0.4438
  197MOL0     C25926   8.972  11.265   8.284  1.2539  0.0467 -0.4724
  197MOL0     C25927   9.018  11.384   8.349  0.5343 -0.3335 -0.0410
  197MOL0     C25928   8.962  11.433   8.475  0.1261  1.0974  0.1299
  197MOL0     C25929   8.864  11.353   8.534 -1.3399 -1.7063 -1.9974
  197MOL0     O25930   8.794  11.400   8.652  0.2077  0.0145  0.1544
  197MOL0     C25931   8.876  11.472   8.757  0.0867  0.8141  0.1826
  197MOL0     C25932   8.820  11.417   8.894 -0.1995 -0.3817  1.0277
  197MOL0     C25933   8.695  11.507   8.919 -0.3978  0.0620 -0.5326
  197MOL0     C25934   8.623  11.468   9.044  0.1787  0.4011  0.6324
  197MOL0     C25935   8.495  11.544   9.051 -0.9929  0.4042 -0.6037
  197MOL0     C25936   8.393  11.608   9.067 -0.0990 -0.2940 -0.3424
  197MOL0     C25937   8.811  11.246   8.463  0.4169  0.4286  0.0528
  197MOL0     C25938   8.868  11.192   8.348 -0.3765 -0.1541  0.2629
  197MOL0     H25939   9.019  11.200   7.883 -0.2781  0.0056 -0.3353
  197MOL0     H25940   9.143  11.111   7.682  0.9346 -0.1349 -0.2223
  197MOL0     H25941   9.506  10.947   7.691 -0.2692 -0.0208  1.7212
  197MOL0     H25942   9.393  11.089   7.672 -1.5574 -0.3695  0.2797
  197MOL0     H25943   9.333  11.026   7.453  0.1848 -0.9030  0.0709
  197MOL0     H25944   9.399  10.861   7.475  1.5431 -1.0511 -1.1354
  197MOL0     H25945   9.574  11.096   7.515  0.3590  0.3065 -0.7672
  197MOL0     H25946   9.526  11.048   7.345 -0.7091  0.5717  0.4925
  197MOL0     H25947   9.671  10.873   7.545 -0.1187  0.4835  0.5457
  197MOL0     H25948   9.646  10.834   7.374 -0.4549 -1.8854  1.7774
  197MOL0     H25949   9.783  11.093   7.433 -2.0728 -0.2970 -0.9818
  197MOL0     H25950   9.802  10.985   7.296  1.7821  0.3462 -0.6319
  197MOL0     H25951   9.928  10.929   7.566 -2.1169 -0.1160  0.2243
  197MOL0     H25952  10.016  10.989   7.432 -1.4995  2.7099 -0.1734
  197MOL0     H25953  10.027  10.735   7.446  1.7204  1.2161 -0.2915
  197MOL0     H25954   9.857  10.726   7.399 -0.8812  1.3348  2.2671
  197MOL0     H25955  10.056  10.883   7.236 -4.0185  4.1583 -1.1836
  197MOL0     H25956   9.901  10.829   7.184 -1.0019 -1.4702  0.4355
  197MOL0     H25957  10.245  10.632   7.235  0.1720 -0.5862 -1.8992
  197MOL0     H25958  10.196  10.287   7.076 -0.2249 -0.8752  1.1718
  197MOL0     H25959  10.273  10.335   7.223  0.8086 -1.0939 -1.3464
  197MOL0     H25960  10.400  10.513   7.108  0.9976 -1.3108 -0.4455
  197MOL0     H25961  10.307  10.502   6.954 -0.7775  0.2007  0.6224
  197MOL0     H25962  10.464  10.285   7.085 -3.5803  0.6359  0.9525
  197MOL0     H25963  10.357  10.281   6.941  0.1884 -1.1985  0.8383
  197MOL0     H25964  10.633  10.421   6.982 -0.5773 -1.7989  2.5008
  197MOL0     H25965  10.533  10.465   6.846  1.7149 -1.2211 -0.8392
  197MOL0     H25966  10.733  10.107   6.690 -2.3864  1.9378  2.1933
  197MOL0     H25967  10.885   9.933   6.744 -1.5119 -1.5566  0.6742
  197MOL0     H25968  11.266   9.707   6.882  0.8532 -1.3325 -0.4268
  197MOL0     H25969  11.354   9.484   6.917 -0.3595 -1.2522  1.6014
  197MOL0     H25970  11.428   9.247   7.012  0.7051  0.1477 -0.1478
  197MOL0     H25971  11.378   9.300   6.856  0.0934  1.5920  0.4365
  197MOL0     H25972  11.299   9.090   6.802  1.5953  3.7295  0.0427
  197MOL0     H25973  11.273   9.036   6.973 -0.5686  1.2870  1.0735
  197MOL0     H25974  11.498   8.995   7.006 -0.2947 -2.2089 -0.0662
  197MOL0     H25975  11.549   9.099   6.876 -1.3048  1.0682  2.2853
  197MOL0     H25976  11.404   8.828   6.865 -0.4569  0.0237 -0.2638
  197MOL0     H25977  11.447   8.918   6.715 -1.2289  1.9795  0.6443
  197MOL0     H25978  11.670   8.941   6.770  1.4495  1.2274  2.5527
  197MOL0     H25979  11.619   8.764   6.750  1.4589 -1.5162  1.8805
  197MOL0     H25980  11.632   8.776   7.021  4.4764  0.6704  3.7969
  197MOL0     H25981  11.736   8.909   6.984  1.8708 -0.4806 -0.0038
  197MOL0     H25982  11.772   8.655   6.839 -2.1744  1.0105 -0.3545
  197MOL0     H25983  11.900   8.765   6.908  1.9742 -3.3749 -0.6536
  197MOL0     H25984  11.723   8.586   7.080 -0.7807  2.2619 -0.9675
  197MOL0     H25985  11.874   8.676   7.119  0.9878  0.2615 -0.4041
  197MOL0     H25986  10.961   9.340   7.027  0.7441 -0.3831  0.3754
  197MOL0     H25987  10.875   9.569   7.019 -0.5670 -3.3432  1.9330
  197MOL0     H25988  10.859  10.057   7.159 -0.3207 -0.2702  0.1770
  197MOL0     H25989  10.700  10.219   7.102  0.4999  2.0793 -0.4061
  197MOL0     H25990   9.285  10.791   7.917  0.9039  0.9356  1.6720
  197MOL0     H25991   9.124  10.870   8.106 -1.3536  1.6545  1.3963
  197MOL0     H25992   9.099  11.441   8.306  2.4326 -1.7712  1.4677
  197MOL0     H25993   8.997  11.525   8.521  0.9322  0.8622 -0.0045
  197MOL0     H25994   8.868  11.578   8.731 -2.2589 -0.0235 -3.1396
  197MOL0     H25995   8.981  11.441   8.752 -0.2495 -0.7151  1.7189
  197MOL0     H25996   8.795  11.310   8.898 -3.3616  0.1923 -0.2406
  197MOL0     H25997   8.904  11.433   8.963  0.9145 -2.2537  0.1662
  197MOL0     H25998   8.622  11.497   8.838 -2.6935  0.3649  1.3844
  197MOL0     H25999   8.726  11.612   8.916  2.7443 -0.7875 -3.0302
  197MOL0     H26000   8.604  11.360   9.048  0.6737  0.3143  0.7027
  197MOL0     H26001   8.694  11.494   9.123 -1.1517  1.6922  1.4549
  197MOL0     H26002   8.311  11.671   9.094 -1.2927 -3.1507  3.6438
  197MOL0     H26003   8.720  11.202   8.503 -1.2213  3.6000  0.1613
  197MOL0     H26004   8.835  11.095   8.313 -0.4280 -0.7605  1.8888
  198MOL0     O26005   5.916   6.459   3.635  0.7233 -0.8485  0.8331
  198MOL0     C26006   5.925   6.352   3.574  0.0041 -0.2280 -0.4025
  198MOL0     O26007   6.038   6.278   3.547  0.6217  0.1157 -0.0951
  198MOL0     C26008   6.164   6.323   3.574 -0.6074  0.7370  0.0516
  198MOL0     C26009   6.246   6.234   3.644 -0.1719  0.0514 -0.0147
  198MOL0     C26010   6.376   6.260   3.671  0.0918  0.4379 -0.6742
  198MOL0     C26011   6.432   6.388   3.649 -0.0591 -1.1421  1.1290
  198MOL0     O26012   6.565   6.411   3.668 -0.3167  0.2289 -0.8082
  198MOL0     C26013   6.664   6.310   3.689 -0.1868 -0.0904  0.7282
  198MOL0     C26014   6.802   6.377   3.666  1.1999 -0.2838 -0.4628
  198MOL0     C26015   6.841   6.470   3.778 -0.6605 -0.1361  0.6603
  198MOL0     C26016   6.824   6.617   3.756  0.1667 -0.3170  0.3624
  198MOL0     C26017   6.864   6.686   3.888  0.5530 -0.3081 -0.1988
  198MOL0     C26018   6.837   6.837   3.868 -0.0964  1.2079  0.6456
  198MOL0     C26019   6.844   6.921   4.000 -0.3691 -0.2347 -0.5292
  198MOL0     C26020   6.780   7.067   3.986 -0.1321  0.4236  0.2617
  198MOL0     N26021   6.745   7.118   4.119 -1.0543  0.3072  0.2933
  198MOL0     C26022   6.811   7.105   4.229  0.8991  0.0211 -0.7032
  198MOL0     C26023   6.734   7.167   4.326  0.0220 -0.0868 -1.3302
  198MOL0     C26024   6.763   7.185   4.476 -0.5106  0.0602  0.3743
  198MOL0     C26025   6.672   7.101   4.565  0.1415 -0.6838 -0.1006
  198MOL0     C26026   6.678   7.139   4.719 -0.6301 -0.3031 -1.0892
  198MOL0     C26027   6.576   7.052   4.804 -0.3698 -0.3372 -0.4044
  198MOL0     O26028   6.567   7.106   4.937  0.3581 -0.1074  0.5705
  198MOL0     C26029   6.659   7.113   5.036 -0.3873  0.3349  0.9317
  198MOL0     C26030   6.747   7.008   5.066  1.5349 -0.3774 -0.7802
  198MOL0     C26031   6.854   7.032   5.151  0.1860 -0.2813 -0.5651
  198MOL0     C26032   6.869   7.165   5.206 -0.3432 -0.5257  0.3394
  198MOL0     C26033   6.989   7.191   5.286  0.8835  0.2789 -0.4631
  198MOL0     O26034   7.055   7.084   5.345  0.0132  0.3941  0.1346
  198MOL0     C26035   7.141   7.093   5.445  0.3261 -0.3585 -0.5932
  198MOL0     C26036   7.156   6.983   5.527 -0.6794 -0.8437  0.6215
  198MOL0     C26037   7.235   6.984   5.643 -0.8047 -0.4125  0.7187
  198MOL0     C26038   7.309   7.096   5.673 -0.2149 -0.1261  0.3854
  198MOL0     O26039   7.396   7.083   5.782 -0.6913 -0.5568  0.7272
  198MOL0     C26040   7.431   7.214   5.838  1.2601 -0.1603  0.5716
  198MOL0     C26041   7.504   7.193   5.974  0.3785  1.2408 -0.4563
  198MOL0     C26042   7.423   7.216   6.102  0.4600 -0.3523 -0.5987
  198MOL0     C26043   7.516   7.203   6.226 -0.4183  0.3613 -0.0846
  198MOL0     C26044   7.438   7.257   6.343  1.0611  0.2633 -0.4012
  198MOL0     C26045   7.494   7.212   6.480  0.3074  0.1746  0.5448
  198MOL0     C26046   7.644   7.253   6.518 -0.2665  0.0256  0.1445
  198MOL0     C26047   7.670   7.239   6.666 -0.4906  0.6684  0.3812
  198MOL0    Cl26048   7.606   7.083   6.719 -0.1446  0.6193  0.0765
  198MOL0     C26049   7.304   7.209   5.585  1.0820  0.1764 -0.7218
  198MOL0     C26050   7.210   7.205   5.480 -0.2760 -0.3539  0.0343
  198MOL0     O26051   7.012   7.305   5.307  0.5591 -0.9271  0.8366
  198MOL0     C26052   6.781   7.270   5.174  0.0588 -0.4839  0.4516
  198MOL0     C26053   6.671   7.240   5.095  0.3634  1.3135  0.0677
  198MOL0     N26054   6.628   7.222   4.261 -0.4014  0.0738  0.3441
  198MOL0     N26055   6.631   7.175   4.142  0.3872  0.4805 -0.4059
  198MOL0     C26056   6.352   6.485   3.592  1.0879  0.1506 -0.2292
  198MOL0     C26057   6.221   6.452   3.545  0.3991 -0.7193  0.2245
  198MOL0     C26058   5.792   6.296   3.530 -0.4888  0.0375 -0.4031
  198MOL0     C26059   5.669   6.341   3.588  0.2963 -0.2771  0.1605
  198MOL0     C26060   5.546   6.312   3.532 -0.4417 -0.5820  0.3404
  198MOL0     C26061   5.536   6.215   3.436  0.0718 -0.4642 -0.5108
  198MOL0     O26062   5.411   6.171   3.401  0.3965 -0.8485  0.3017
  198MOL0     C26063   5.394   6.065   3.312 -1.0152  1.7787 -0.2213
  198MOL0     C26064   5.444   5.937   3.371  0.5791 -0.2854  0.8990
  198MOL0     C26065   5.418   5.820   3.274  0.2995  0.5699 -1.4874
  198MOL0     C26066   5.270   5.785   3.261 -0.8230 -0.1991 -0.6707
  198MOL0     C26067   5.237   5.715   3.143  0.1494  0.8504  0.2088
  198MOL0     C26068   5.218   5.646   3.045 -0.3526  0.2268  0.0568
  198MOL0     C26069   5.657   6.168   3.378 -0.0611  0.9192 -0.2705
  198MOL0     C26070   5.785   6.204   3.426  0.5643  0.3817  0.2153
  198MOL0     H26071   6.211   6.138   3.682  1.1373  0.9032  3.7363
  198MOL0     H26072   6.443   6.194   3.725  0.1633  2.7130  2.2356
  198MOL0     H26073   6.663   6.228   3.617 -3.8914  1.1674 -0.8889
  198MOL0     H26074   6.654   6.267   3.789  0.0556  0.3893  0.9646
  198MOL0     H26075   6.807   6.431   3.571  1.1756  1.0943  0.2879
  198MOL0     H26076   6.883   6.304   3.660  1.9214  0.2751  1.6931
  198MOL0     H26077   6.945   6.453   3.807 -1.2178 -1.6431  1.9080
  198MOL0     H26078   6.781   6.437   3.863 -0.9674  0.6801  0.7678
  198MOL0     H26079   6.885   6.648   3.671  1.7001  0.2964  1.6459
  198MOL0     H26080   6.721   6.639   3.726  1.3632  0.8864 -3.4326
  198MOL0     H26081   6.963   6.666   3.930  0.2218  0.9545  1.2724
  198MOL0     H26082   6.783   6.646   3.950 -1.7728 -0.4384 -3.1048
  198MOL0     H26083   6.737   6.856   3.830  0.1941 -0.0752 -0.8617
  198MOL0     H26084   6.902   6.873   3.787 -0.1074  2.1081  1.0247
  198MOL0     H26085   6.793   6.865   4.080  0.5411  1.5880  1.4044
  198MOL0     H26086   6.946   6.928   4.038 -0.4171 -0.8827 -0.2635
  198MOL0     H26087   6.688   7.062   3.926 -0.5045  4.7538  0.2112
  198MOL0     H26088   6.857   7.133   3.946  3.7281 -3.8832 -0.3222
  198MOL0     H26089   6.896   7.040   4.245  0.0413 -1.0675 -0.3947
  198MOL0     H26090   6.765   7.294   4.490  2.5207  0.4343 -1.8513
  198MOL0     H26091   6.869   7.162   4.495 -0.6238 -0.4797  0.3729
  198MOL0     H26092   6.700   6.996   4.561  0.7957 -0.4761 -1.4563
  198MOL0     H26093   6.567   7.106   4.537  0.2770 -1.3026 -0.7321
  198MOL0     H26094   6.780   7.126   4.755 -1.7063 -3.1624  1.4455
  198MOL0     H26095   6.651   7.245   4.725 -0.9568 -0.3845 -1.1053
  198MOL0     H26096   6.619   6.954   4.829  1.1264  0.4149  0.1092
  198MOL0     H26097   6.486   7.030   4.746  0.7534 -2.5484 -1.4318
  198MOL0     H26098   6.737   6.907   5.027  0.6670 -0.3692 -0.5977
  198MOL0     H26099   6.932   6.957   5.161 -0.7579 -1.5377 -2.1474
  198MOL0     H26100   7.090   6.900   5.505 -0.5576 -0.2805 -2.2658
  198MOL0     H26101   7.235   6.897   5.708  2.4980 -0.9100  0.2341
  198MOL0     H26102   7.332   7.256   5.858 -1.1445 -4.0130 -1.8745
  198MOL0     H26103   7.499   7.278   5.781  3.4634 -1.9286  1.0724
  198MOL0     H26104   7.589   7.261   5.987 -2.2686  4.8751 -0.5462
  198MOL0     H26105   7.525   7.086   5.980 -2.9364  0.5621  1.8033
  198MOL0     H26106   7.337   7.149   6.096 -0.7384  1.1434 -0.8514
  198MOL0     H26107   7.396   7.323   6.102  0.1803 -0.4015  0.6493
  198MOL0     H26108   7.548   7.101   6.247 -0.5317  0.3181 -0.1208
  198MOL0     H26109   7.605   7.265   6.224 -0.0444  0.0311  2.5742
  198MOL0     H26110   7.338   7.212   6.349  1.5072 -0.5977  2.5541
  198MOL0     H26111   7.426   7.365   6.340 -1.0373  0.0699 -1.0565
  198MOL0     H26112   7.488   7.103   6.483  2.6197 -0.0507 -0.5023
  198MOL0     H26113   7.419   7.253   6.548  0.8598 -0.7909  1.7597
  198MOL0     H26114   7.719   7.199   6.460 -0.9064  0.3944 -1.0731
  198MOL0     H26115   7.659   7.359   6.494  1.8708 -0.3845 -0.5451
  198MOL0     H26116   7.615   7.316   6.720 -3.3265 -1.8463  1.3535
  198MOL0     H26117   7.775   7.259   6.692  0.1373 -0.4909 -1.0669
  198MOL0     H26118   7.361   7.301   5.590  0.5396  0.6057 -2.1593
  198MOL0     H26119   7.200   7.295   5.420 -0.4164  0.8122  1.7313
  198MOL0     H26120   6.789   7.370   5.218 -3.4849 -0.5378  1.5896
  198MOL0     H26121   6.604   7.322   5.071 -1.3935 -0.1551 -0.2921
  198MOL0     H26122   6.392   6.585   3.587  1.1998  0.0645 -1.5551
  198MOL0     H26123   6.159   6.520   3.487 -0.9831 -0.7407  1.6115
  198MOL0     H26124   5.677   6.406   3.675  1.0246 -1.1243  0.7525
  198MOL0     H26125   5.465   6.353   3.592 -0.9447 -0.3596 -0.4715
  198MOL0     H26126   5.449   6.079   3.218 -2.6713 -1.7547 -1.9132
  198MOL0     H26127   5.286   6.072   3.294 -0.8448  2.3627 -1.0754
  198MOL0     H26128   5.551   5.932   3.392  0.4039  1.2954  2.3886
  198MOL0     H26129   5.387   5.922   3.464 -1.8575 -1.5446 -0.7028
  198MOL0     H26130   5.474   5.737   3.318  0.7488  3.1674  3.6433
  198MOL0     H26131   5.461   5.835   3.174 -0.5181  0.2589 -1.8961
  198MOL0     H26132   5.244   5.720   3.345 -1.4008 -1.0496 -1.4961
  198MOL0     H26133   5.208   5.875   3.262 -1.7192 -0.6270  3.6406
  198MOL0     H26134   5.203   5.586   2.958 -4.4799 -2.3381  2.2305
  198MOL0     H26135   5.652   6.098   3.296  1.2589  1.3687 -0.7584
  198MOL0     H26136   5.879   6.159   3.394 -0.7346 -4.4943  2.4291
  199MOL0     O26137   6.261   0.295   3.966  0.0816  0.8698  0.3449
  199MOL0     C26138   6.291   0.189   4.022  0.9674  0.4081 -0.1295
  199MOL0     O26139   6.419   0.154   4.035 -0.1878 -0.0909 -0.1925
  199MOL0     C26140   6.520   0.248   4.011 -0.6243 -0.1181  0.5720
  199MOL0     C26141   6.571   0.337   4.104  0.5610  0.7711  0.2470
  199MOL0     C26142   6.688   0.409   4.071  0.0815 -0.0392 -0.0342
  199MOL0     C26143   6.750   0.396   3.950  0.1711 -0.1849 -0.1639
  199MOL0     O26144   6.859   0.482   3.945  0.0712 -0.6358 -0.1978
  199MOL0     C26145   6.981   0.442   3.871  0.0996  0.6707  0.6492
  199MOL0     C26146   7.061   0.567   3.824 -0.0813  0.7127  1.6960
  199MOL0     C26147   7.191   0.548   3.746 -0.6251 -0.4671 -0.8214
  199MOL0     C26148   7.228   0.688   3.697  0.5636  0.8339  0.5469
  199MOL0     C26149   7.367   0.702   3.633 -0.2060 -0.1635  0.9892
  199MOL0     C26150   7.401   0.610   3.521  0.1536  0.8488  0.9914
  199MOL0     C26151   7.557   0.615   3.495  0.0110  0.2246  0.2215
  199MOL0     C26152   7.602   0.576   3.355  0.4954  0.9108  0.4083
  199MOL0     N26153   7.600   0.678   3.255  0.4632 -0.2286 -0.3651
  199MOL0     C26154   7.525   0.796   3.254  0.9438  1.2431 -0.6197
  199MOL0     C26155   7.582   0.871   3.156 -0.4125 -0.7548  0.5328
  199MOL0     C26156   7.534   1.011   3.111 -0.1879  0.0585 -0.6028
  199MOL0     C26157   7.625   1.102   3.187 -0.2161 -1.2130  0.3359
  199MOL0     C26158   7.564   1.240   3.183 -0.1581 -0.5417  0.1351
  199MOL0     C26159   7.663   1.328   3.244 -0.2531 -0.1859  0.3835
  199MOL0     O26160   7.787   1.340   3.170  0.3489 -0.3888 -0.1926
  199MOL0     C26161   7.867   1.449   3.199 -0.9860  0.2072  0.5167
  199MOL0     C26162   7.882   1.507   3.328  0.2236  0.1615 -1.1541
  199MOL0     C26163   7.970   1.615   3.357  0.3520  0.5321 -0.0322
  199MOL0     C26164   8.027   1.681   3.242 -0.0318 -0.0581 -1.6060
  199MOL0     C26165   8.107   1.804   3.258  0.0555 -0.1925 -1.0243
  199MOL0     O26166   8.147   1.858   3.142 -0.3867 -0.4705 -0.1671
  199MOL0     C26167   8.192   1.988   3.128 -0.0887 -0.3941 -0.0737
  199MOL0     C26168   8.148   2.094   3.218 -0.3337  0.7059  0.4846
  199MOL0     C26169   8.196   2.227   3.208  0.8041  0.3302  0.1561
  199MOL0     C26170   8.288   2.264   3.104  0.1216 -0.0268  0.5754
  199MOL0     O26171   8.315   2.402   3.095  0.5749  0.3839  0.0922
  199MOL0     C26172   8.274   2.505   3.188 -0.0102  0.5296  0.5748
  199MOL0     C26173   8.337   2.647   3.155  0.1147  0.0759 -1.2039
  199MOL0     C26174   8.342   2.737   3.277  0.5649  0.1139  0.0725
  199MOL0     C26175   8.428   2.686   3.388  0.6057  0.2810  0.2684
  199MOL0     C26176   8.407   2.762   3.519 -0.0420  0.4406  0.3139
  199MOL0     C26177   8.254   2.767   3.570  0.8646  0.1189 -0.1365
  199MOL0     C26178   8.171   2.882   3.541  0.6083 -0.7486 -0.3606
  199MOL0     C26179   8.161   2.972   3.672  0.0838 -0.7681 -0.1682
  199MOL0    Cl26180   8.311   3.070   3.693  0.0700 -0.1367 -0.1944
  199MOL0     C26181   8.319   2.159   3.020  0.9045 -0.6565  0.5237
  199MOL0     C26182   8.281   2.026   3.028 -0.0767 -0.6400  0.4737
  199MOL0     O26183   8.128   1.855   3.372 -0.1447 -0.1093  0.4899
  199MOL0     C26184   8.019   1.619   3.115  0.5527  0.4868  0.7252
  199MOL0     C26185   7.950   1.499   3.100 -0.7988  1.3253  0.1384
  199MOL0     N26186   7.705   0.809   3.116 -0.2757 -0.5704 -0.3137
  199MOL0     N26187   7.704   0.690   3.165 -0.0367 -0.0832 -0.7312
  199MOL0     C26188   6.704   0.299   3.859 -0.6628  0.7198 -0.5101
  199MOL0     C26189   6.586   0.222   3.888 -0.4758 -0.8251  0.6618
  199MOL0     C26190   6.176   0.100   4.067 -0.1950 -0.1735 -1.0465
  199MOL0     C26191   6.049   0.113   4.009 -0.7955 -0.1563  0.1578
  199MOL0     C26192   5.947   0.027   4.046 -0.0966 -0.4031 -0.2445
  199MOL0     C26193   5.960  -0.080   4.133  0.3473 -0.5649  0.1302
  199MOL0     O26194   5.842  -0.155   4.158 -0.0615  0.0985 -0.3829
  199MOL0     C26195   5.855  -0.292   4.192  0.2590 -0.8395 -0.2999
  199MOL0     C26196   5.717  -0.318   4.266  0.0506  0.2774 -0.5545
  199MOL0     C26197   5.713  -0.438   4.364  0.6539 -0.2647 -0.0054
  199MOL0     C26198   5.790  -0.569   4.323 -0.5967 -0.4977 -0.7190
  199MOL0     C26199   5.723  -0.621   4.200  1.1537 -0.5687  0.4562
  199MOL0     C26200   5.641  -0.668   4.122  0.0523  0.3055 -0.0262
  199MOL0     C26201   6.085  -0.097   4.187 -0.2547  0.3694  0.6256
  199MOL0     C26202   6.191  -0.012   4.155 -0.3987  0.7186  0.3724
  199MOL0     H26203   6.528   0.349   4.203  3.1424 -1.4389  1.7596
  199MOL0     H26204   6.724   0.486   4.139 -1.3000  2.2472 -1.7297
  199MOL0     H26205   6.949   0.377   3.789 -2.2155 -1.2475  2.8907
  199MOL0     H26206   7.050   0.382   3.931  3.4675  1.9350 -1.6977
  199MOL0     H26207   7.077   0.645   3.899  0.9073  1.0574  1.1419
  199MOL0     H26208   6.991   0.605   3.750  1.4420  0.3611  0.0195
  199MOL0     H26209   7.180   0.470   3.670  2.8973 -0.3635 -1.6126
  199MOL0     H26210   7.271   0.506   3.807  0.7267  2.7052 -0.1897
  199MOL0     H26211   7.146   0.703   3.626  2.2309 -1.8509 -2.2201
  199MOL0     H26212   7.221   0.759   3.780 -5.0048  0.5205  0.6934
  199MOL0     H26213   7.436   0.674   3.713 -1.6896 -0.7516  2.1246
  199MOL0     H26214   7.390   0.807   3.611  3.4909 -1.2188 -0.8493
  199MOL0     H26215   7.341   0.647   3.437  0.0167  2.1028  1.6268
  199MOL0     H26216   7.382   0.502   3.525  1.7230  0.4624 -0.4607
  199MOL0     H26217   7.603   0.711   3.521  1.4891 -0.3496 -0.1553
  199MOL0     H26218   7.587   0.539   3.567 -0.7062 -0.2435  0.0383
  199MOL0     H26219   7.531   0.501   3.316 -1.0038  2.2383  0.4700
  199MOL0     H26220   7.702   0.535   3.369  1.0911  1.3286 -2.0651
  199MOL0     H26221   7.440   0.812   3.320 -0.2631  0.8739 -2.0186
  199MOL0     H26222   7.433   1.034   3.147  0.5523 -0.2939  1.8434
  199MOL0     H26223   7.521   1.019   3.002  0.1005 -3.0693 -0.9674
  199MOL0     H26224   7.730   1.099   3.156  0.2573 -0.8716  1.7881
  199MOL0     H26225   7.629   1.074   3.293  0.0246 -0.3699  0.5602
  199MOL0     H26226   7.553   1.264   3.077  4.7961 -0.4269 -0.5534
  199MOL0     H26227   7.474   1.257   3.243 -1.0127 -0.4692 -1.1256
  199MOL0     H26228   7.704   1.289   3.338  1.9389  7.0396  3.0615
  199MOL0     H26229   7.612   1.424   3.255 -2.8664 -1.2137 -1.5540
  199MOL0     H26230   7.830   1.470   3.416  1.5600 -1.3241 -0.9558
  199MOL0     H26231   7.967   1.659   3.456 -1.0032  0.6960 -0.1372
  199MOL0     H26232   8.070   2.082   3.292 -0.0918  0.1869  0.6609
  199MOL0     H26233   8.166   2.298   3.285 -0.2298  0.4934 -0.3723
  199MOL0     H26234   8.300   2.469   3.289 -2.0334  2.8977  2.0354
  199MOL0     H26235   8.165   2.503   3.193  0.0068 -1.3364  1.0026
  199MOL0     H26236   8.290   2.701   3.072  0.3549  2.5795  0.1626
  199MOL0     H26237   8.442   2.628   3.129  0.3706  0.6604 -0.6331
  199MOL0     H26238   8.240   2.752   3.314  0.1347  1.4043 -1.5480
  199MOL0     H26239   8.387   2.829   3.239 -0.0546 -0.0912 -1.2037
  199MOL0     H26240   8.401   2.583   3.412 -1.0322  0.2001 -1.6738
  199MOL0     H26241   8.535   2.688   3.364  0.0288  0.4207 -2.5487
  199MOL0     H26242   8.447   2.863   3.511 -2.7227  1.5449 -0.2722
  199MOL0     H26243   8.465   2.718   3.601  1.2377 -1.6339 -1.5814
  199MOL0     H26244   8.237   2.734   3.673 -2.1528 -1.5670 -1.0659
  199MOL0     H26245   8.198   2.685   3.525  1.6991 -0.2334 -0.5554
  199MOL0     H26246   8.217   2.946   3.465 -4.0935  6.1420  1.6334
  199MOL0     H26247   8.071   2.861   3.501 -0.6489  0.3278  2.0131
  199MOL0     H26248   8.142   2.904   3.756  2.6076 -3.2790 -1.4395
  199MOL0     H26249   8.075   3.037   3.657 -0.2017 -1.3315 -1.0427
  199MOL0     H26250   8.375   2.193   2.933  3.2211  0.7020  2.4139
  199MOL0     H26251   8.320   1.954   2.957 -1.2045  0.0718 -0.9278
  199MOL0     H26252   8.082   1.651   3.033  2.1159 -1.6376  1.0301
  199MOL0     H26253   7.952   1.446   3.005  0.6740  3.7764 -1.3220
  199MOL0     H26254   6.749   0.288   3.761 -0.0152 -0.8928 -0.0593
  199MOL0     H26255   6.549   0.155   3.812  1.0286  0.0358 -0.9081
  199MOL0     H26256   6.025   0.201   3.950  0.5720  0.9455  1.2069
  199MOL0     H26257   5.845   0.034   4.010 -0.7907 -0.1799  1.6569
  199MOL0     H26258   5.931  -0.322   4.264  1.2262 -0.7726 -1.2613
  199MOL0     H26259   5.880  -0.356   4.107 -2.7284 -2.1070 -0.3152
  199MOL0     H26260   5.696  -0.230   4.327  1.6585 -0.4056  1.0799
  199MOL0     H26261   5.639  -0.321   4.189  0.5400 -1.6821 -1.0271
  199MOL0     H26262   5.609  -0.470   4.381 -0.5105  1.8815 -2.4470
  199MOL0     H26263   5.743  -0.401   4.462  0.7698  1.5711 -0.7030
  199MOL0     H26264   5.898  -0.555   4.313 -0.4809  2.1645  2.6507
  199MOL0     H26265   5.780  -0.655   4.391  1.0551 -3.2690 -3.6823
  199MOL0     H26266   5.576  -0.694   4.041  1.4642  3.0303 -2.1860
  199MOL0     H26267   6.102  -0.184   4.250  0.7198  0.4123  0.4479
  199MOL0     H26268   6.289  -0.024   4.200 -0.1978 -0.9309 -0.4241
  200MOL0     O26269   8.110   7.491   1.248 -0.1048 -0.3644  0.5185
  200MOL0     C26270   8.167   7.583   1.188 -0.6995  0.0058  0.0909
  200MOL0     O26271   8.287   7.574   1.124  0.5249  0.4065  0.1860
  200MOL0     C26272   8.359   7.460   1.114 -0.1834 -0.3736  0.2086
  200MOL0     C26273   8.376   7.363   1.212 -1.0056 -0.0183  0.0579
  200MOL0     C26274   8.450   7.248   1.200  0.3064 -0.1891 -0.3370
  200MOL0     C26275   8.517   7.225   1.084  1.5351  0.2316 -0.4055
  200MOL0     O26276   8.594   7.113   1.067  0.3815 -0.4353  0.0432
  200MOL0     C26277   8.554   7.014   0.973 -0.3510 -0.9297 -0.6482
  200MOL0     C26278   8.583   6.871   1.026 -0.5218 -0.3832 -0.3506
  200MOL0     C26279   8.464   6.813   1.105 -0.1417  0.0387  0.7322
  200MOL0     C26280   8.488   6.666   1.140 -0.0231 -0.4048 -0.8440
  200MOL0     C26281   8.370   6.612   1.223 -0.0185  0.1462  0.3925
  200MOL0     C26282   8.374   6.458   1.232 -0.3383  0.1674  0.8548
  200MOL0     C26283   8.303   6.405   1.364 -0.0128 -0.6577  0.5283
  200MOL0     C26284   8.228   6.281   1.334  0.2069  0.1853 -0.4373
  200MOL0     N26285   8.096   6.305   1.273  0.0900 -0.3891 -0.1735
  200MOL0     C26286   7.986   6.318   1.351 -0.3561  0.8528 -0.0138
  200MOL0     C26287   7.888   6.311   1.268 -0.9242 -0.7646  0.0582
  200MOL0     C26288   7.738   6.297   1.311  0.0348  0.2521 -0.1870
  200MOL0     C26289   7.719   6.153   1.370 -0.8730 -1.1555 -0.1916
  200MOL0     C26290   7.606   6.143   1.477 -0.9707  0.2309  0.0977
  200MOL0     C26291   7.460   6.133   1.437  0.2563  1.2848 -0.1093
  200MOL0     O26292   7.386   6.253   1.422 -0.1140 -0.0517  0.6386
  200MOL0     C26293   7.293   6.259   1.324 -0.6762 -0.0488 -0.4396
  200MOL0     C26294   7.163   6.214   1.341  0.5099 -0.1575  0.0826
  200MOL0     C26295   7.074   6.217   1.236  0.1893  0.2409  0.8386
  200MOL0     C26296   7.119   6.246   1.105 -0.3775  0.1744 -0.5200
  200MOL0     C26297   7.028   6.256   0.991  0.7212 -0.8246  0.0290
  200MOL0     O26298   7.072   6.296   0.870  0.6269  0.8145 -0.5986
  200MOL0     C26299   6.972   6.350   0.795  0.0266 -0.7557  0.6601
  200MOL0     C26300   6.928   6.483   0.814  0.0531  0.1670 -0.5196
  200MOL0     C26301   6.814   6.525   0.744  0.4952  0.1697 -0.1898
  200MOL0     C26302   6.736   6.444   0.659 -0.0976 -0.2015  0.0653
  200MOL0     O26303   6.633   6.504   0.592  0.1602 -0.1575 -0.9071
  200MOL0     C26304   6.556   6.431   0.504  0.6625  0.8055  0.6533
  200MOL0     C26305   6.438   6.523   0.456  0.3293  0.0351 -1.0147
  200MOL0     C26306   6.375   6.481   0.331  0.1775 -0.3335  0.2783
  200MOL0     C26307   6.309   6.343   0.317 -0.6904 -0.2757 -0.2481
  200MOL0     C26308   6.248   6.331   0.183  0.6917  0.1246 -0.1988
  200MOL0     C26309   6.133   6.222   0.173  0.3389 -0.0478 -0.6966
  200MOL0     C26310   6.053   6.219   0.043  0.3770 -0.2178 -0.1244
  200MOL0     C26311   5.941   6.101   0.027  0.5755  0.0734  0.0666
  200MOL0    Cl26312   5.820   6.104   0.154 -0.2214  0.0169  0.4947
  200MOL0     C26313   6.790   6.319   0.641  1.1910  0.8767  0.8333
  200MOL0     C26314   6.907   6.268   0.706  0.1893 -0.2378  0.6767
  200MOL0     O26315   6.910   6.233   1.012 -0.4345  0.4819 -0.1404
  200MOL0     C26316   7.261   6.286   1.090  0.4398 -0.8085  0.1762
  200MOL0     C26317   7.343   6.291   1.199  0.1209 -0.4349  0.5465
  200MOL0     N26318   7.933   6.294   1.139 -0.2736  0.2858 -0.2292
  200MOL0     N26319   8.062   6.295   1.145 -0.1963  0.1064  0.0940
  200MOL0     C26320   8.507   7.320   0.981 -0.1511  0.4458 -0.8477
  200MOL0     C26321   8.426   7.432   0.991  0.5057  0.1464  0.3872
  200MOL0     C26322   8.089   7.701   1.173  0.1832 -0.6822  0.7004
  200MOL0     C26323   7.975   7.730   1.252 -1.0420 -0.4550  0.0770
  200MOL0     C26324   7.917   7.856   1.242 -0.4616  0.5473  0.1520
  200MOL0     C26325   7.959   7.954   1.151 -0.7581  0.6119 -0.5569
  200MOL0     O26326   7.900   8.073   1.117  0.3827  0.0944 -0.0094
  200MOL0     C26327   7.753   8.077   1.095  0.2367  0.5834  0.0903
  200MOL0     C26328   7.690   8.123   1.225  0.0792  0.2164 -0.3685
  200MOL0     C26329   7.739   8.263   1.270  0.8174  0.0176 -0.2365
  200MOL0     C26330   7.679   8.297   1.406 -0.1756 -0.1245  0.7879
  200MOL0     C26331   7.555   8.377   1.406  0.4801  0.7115 -0.1029
  200MOL0     C26332   7.444   8.424   1.383  0.0367  0.8183  0.0800
  200MOL0     C26333   8.078   7.932   1.087  0.2817  0.2826 -0.2086
  200MOL0     C26334   8.136   7.808   1.085 -0.5506  0.3934  0.1849
  200MOL0     H26335   8.337   7.391   1.310 -0.7486  1.1291 -0.1468
  200MOL0     H26336   8.463   7.180   1.284  0.7536  0.9456  0.5384
  200MOL0     H26337   8.601   7.013   0.875 -1.0890 -2.6997 -1.0339
  200MOL0     H26338   8.451   7.024   0.938  0.1309  1.4506 -1.5535
  200MOL0     H26339   8.677   6.868   1.082 -2.1251  2.2001  2.7897
  200MOL0     H26340   8.607   6.801   0.945  2.1526 -0.4747  0.4066
  200MOL0     H26341   8.377   6.838   1.045 -2.0499 -0.6480  3.0792
  200MOL0     H26342   8.461   6.878   1.193 -1.0108  0.8990  0.0826
  200MOL0     H26343   8.500   6.598   1.055  0.5596  1.3305 -2.1976
  200MOL0     H26344   8.579   6.657   1.200  0.9121  0.1629 -2.1299
  200MOL0     H26345   8.276   6.654   1.186  0.0233 -1.6226 -1.9613
  200MOL0     H26346   8.383   6.653   1.324 -0.4112 -2.7375  1.7357
  200MOL0     H26347   8.479   6.434   1.253 -0.2752  0.3943  0.8051
  200MOL0     H26348   8.348   6.404   1.140  1.3156  2.7557 -1.2961
  200MOL0     H26349   8.381   6.401   1.441  0.0556  2.5823  0.7490
  200MOL0     H26350   8.238   6.483   1.405  1.0436  0.3916  0.2746
  200MOL0     H26351   8.211   6.223   1.425  3.0345  1.9998  1.3664
  200MOL0     H26352   8.280   6.213   1.266  1.6914  0.0717  0.7711
  200MOL0     H26353   7.977   6.314   1.459 -5.5331  0.0852 -0.2499
  200MOL0     H26354   7.680   6.307   1.219 -0.4636  2.1205  0.2718
  200MOL0     H26355   7.715   6.367   1.392  2.1567 -1.3844  1.9665
  200MOL0     H26356   7.815   6.142   1.422 -0.2602  0.1466 -0.9850
  200MOL0     H26357   7.709   6.068   1.302 -1.0085 -1.6993  0.4961
  200MOL0     H26358   7.643   6.058   1.535 -0.1964 -0.6734 -1.6262
  200MOL0     H26359   7.620   6.233   1.538 -2.3621  2.0332 -2.0784
  200MOL0     H26360   7.419   6.077   1.521 -0.7394 -2.4284 -2.8079
  200MOL0     H26361   7.453   6.069   1.348  2.2472  0.3860  0.3190
  200MOL0     H26362   7.127   6.182   1.438  0.5551 -1.7861 -0.4196
  200MOL0     H26363   6.969   6.207   1.261  0.3394  0.2535  1.4906
  200MOL0     H26364   6.973   6.549   0.887  1.0045 -0.8163 -0.1871
  200MOL0     H26365   6.779   6.628   0.747  1.6949  0.5828  0.5462
  200MOL0     H26366   6.515   6.344   0.556  2.5011 -1.2332 -1.0441
  200MOL0     H26367   6.624   6.396   0.425 -2.0393 -2.4229 -0.4814
  200MOL0     H26368   6.466   6.629   0.451  0.6247  0.1091  1.2456
  200MOL0     H26369   6.360   6.516   0.532  0.1251  0.5583 -1.1665
  200MOL0     H26370   6.445   6.480   0.247 -0.8470 -0.4058 -0.6032
  200MOL0     H26371   6.298   6.558   0.319  1.2617  1.2542  2.6488
  200MOL0     H26372   6.386   6.271   0.344 -1.3068 -2.0523 -2.9027
  200MOL0     H26373   6.233   6.329   0.394  0.3634 -2.1219  0.4897
  200MOL0     H26374   6.316   6.309   0.101  0.9705  0.3242 -0.0235
  200MOL0     H26375   6.203   6.429   0.167  1.2084  0.6080  1.1894
  200MOL0     H26376   6.064   6.254   0.252  0.3442 -0.3137 -0.5834
  200MOL0     H26377   6.175   6.124   0.195  0.4949  0.5843  2.2265
  200MOL0     H26378   6.002   6.312   0.018 -0.6153 -0.1782  1.9008
  200MOL0     H26379   6.133   6.208  -0.031 -0.1943  1.9655 -1.1438
  200MOL0     H26380   5.982   6.000   0.021 -1.5467 -0.8063 -1.0052
  200MOL0     H26381   5.902   6.120  -0.074  1.3794  1.1806 -0.0494
  200MOL0     H26382   6.728   6.249   0.585 -0.3450  0.6081  2.7496
  200MOL0     H26383   6.928   6.162   0.697 -1.1588 -0.5676  1.0626
  200MOL0     H26384   7.277   6.319   0.988  0.0992  1.6161  0.8454
  200MOL0     H26385   7.451   6.304   1.191  0.1127 -1.1497 -0.9222
  200MOL0     H26386   8.568   7.294   0.895  2.5373  4.6187 -0.4863
  200MOL0     H26387   8.425   7.499   0.906  1.7260 -0.1145  0.1558
  200MOL0     H26388   7.942   7.663   1.331  1.5749 -1.5274  0.3455
  200MOL0     H26389   7.828   7.875   1.302  0.3236 -1.8796  2.2742
  200MOL0     H26390   7.720   7.979   1.062  3.1705 -1.1797  1.9486
  200MOL0     H26391   7.735   8.145   1.011 -5.0000  0.0737  0.4747
  200MOL0     H26392   7.583   8.128   1.201  0.1264  1.4600 -0.3990
  200MOL0     H26393   7.689   8.043   1.299  2.2275 -1.2566 -1.8276
  200MOL0     H26394   7.698   8.343   1.207  1.6380  1.9734  1.5876
  200MOL0     H26395   7.848   8.265   1.279  0.7050 -0.3683  1.6438
  200MOL0     H26396   7.673   8.210   1.472 -1.1007 -0.6810  0.0062
  200MOL0     H26397   7.741   8.373   1.454 -1.2572  1.1534  0.2449
  200MOL0     H26398   7.343   8.451   1.357 -0.4383 -0.0834  0.8861
  200MOL0     H26399   8.126   8.014   1.036 -0.7512 -0.6860 -2.9404
  200MOL0     H26400   8.220   7.802   1.017  0.1082  0.8637  0.9440
  201MOL0     O26401   9.218   9.379  11.418  0.1100  0.5442  0.1820
  201MOL0     C26402   9.136   9.443  11.355 -0.9809 -0.3823  0.7773
  201MOL0     O26403   9.052   9.542  11.408  0.3441  0.1182  0.6147
  201MOL0     C26404   9.037   9.594  11.538  0.6024 -0.0753  0.3062
  201MOL0     C26405   8.965   9.717  11.545  1.1993  1.2622  0.0300
  201MOL0     C26406   8.928   9.773  11.668 -0.4297  0.5195 -0.6763
  201MOL0     C26407   8.971   9.711  11.784 -0.5231 -0.7000  0.0194
  201MOL0     O26408   8.950   9.777  11.910 -0.0589  0.3734 -1.0620
  201MOL0     C26409   8.994   9.723  12.028  0.2132  0.6659 -0.5710
  201MOL0     C26410   8.994   9.820  12.147  0.3264  0.4303  0.4548
  201MOL0     C26411   9.069   9.768  12.266  0.4220  0.0828 -1.0256
  201MOL0     C26412   9.055   9.849  12.397  0.8295  0.0998 -0.8198
  201MOL0     C26413   8.910   9.837  12.437  0.9788  0.5133  1.2407
  201MOL0     C26414   8.874   9.902  12.563 -0.9299 -0.2016  0.2695
  201MOL0     C26415   8.723   9.911  12.581 -0.3628  0.2858  0.5113
  201MOL0     C26416   8.692   9.948  12.727  0.0226  0.1251 -0.3361
  201MOL0     N26417   8.550   9.967  12.748 -0.2417 -0.0424 -0.3466
  201MOL0     C26418   8.477   9.909  12.842 -0.2753 -0.5465  0.0593
  201MOL0     C26419   8.363   9.976  12.839  0.1473  0.0671  0.2089
  201MOL0     C26420   8.243   9.949  12.923 -0.1199  1.0405  0.5388
  201MOL0     C26421   8.238  10.064  13.032 -0.9227 -1.0206  0.5354
  201MOL0     C26422   8.356  10.074  13.125  0.1196  0.5048  0.1204
  201MOL0     C26423   8.389   9.951  13.207 -0.6602 -0.3135  0.3990
  201MOL0     O26424   8.275   9.909  13.290 -0.0191 -0.1937 -0.6150
  201MOL0     C26425   8.305   9.798  13.361 -0.0698  1.0333 -0.5936
  201MOL0     C26426   8.414   9.713  13.347 -1.0765  0.0966  0.4608
  201MOL0     C26427   8.419   9.591  13.407 -0.1051 -0.2579 -0.7171
  201MOL0     C26428   8.328   9.564  13.516 -1.2262 -0.5171  0.6654
  201MOL0     C26429   8.349   9.451  13.602  0.4695 -0.4106 -0.6418
  201MOL0     O26430   8.470   9.401  13.606  0.5511  0.2258  0.1279
  201MOL0     C26431   8.510   9.288  13.674 -0.2550  0.3352 -0.3052
  201MOL0     C26432   8.650   9.282  13.710  0.0811 -0.4414  0.0392
  201MOL0     C26433   8.699   9.168  13.767  0.1043 -1.1852  0.5935
  201MOL0     C26434   8.618   9.055  13.789  0.2349 -0.2613 -0.5418
  201MOL0     O26435   8.673   8.939  13.845  0.0367  0.6957 -0.5643
  201MOL0     C26436   8.613   8.818  13.802 -0.0608 -0.5243 -0.1168
  201MOL0     C26437   8.680   8.687  13.833 -1.1498  0.6892  0.0266
  201MOL0     C26438   8.814   8.672  13.742  0.5389 -0.7972  0.8270
  201MOL0     C26439   8.872   8.529  13.736  0.1257 -0.5218  0.2964
  201MOL0     C26440   8.949   8.496  13.864  0.0720 -0.2686 -0.8980
  201MOL0     C26441   9.075   8.589  13.878  0.1251 -0.7596 -1.5491
  201MOL0     C26442   9.191   8.509  13.936 -0.1179 -0.1007 -0.4098
  201MOL0     C26443   9.317   8.586  13.951 -0.4198 -0.2931 -0.5757
  201MOL0    Cl26444   9.325   8.733  14.056  0.1019  0.2633  0.6522
  201MOL0     C26445   8.484   9.065  13.762 -0.1724  0.8416  0.4421
  201MOL0     C26446   8.427   9.185  13.698 -0.5830  0.1609 -0.8399
  201MOL0     O26447   8.264   9.428  13.686 -0.3010 -0.1976 -0.2718
  201MOL0     C26448   8.219   9.652  13.533 -0.7470 -0.0143  0.0572
  201MOL0     C26449   8.202   9.756  13.447 -0.1743 -0.1399 -0.7966
  201MOL0     N26450   8.371  10.087  12.750  0.3205 -0.5062 -0.3875
  201MOL0     N26451   8.483  10.074  12.694  0.4268 -0.3380  0.2090
  201MOL0     C26452   9.037   9.590  11.774 -0.5771  0.7157 -1.0876
  201MOL0     C26453   9.070   9.530  11.652  0.0705  0.3643  0.7660
  201MOL0     C26454   9.115   9.413  11.211 -0.1083 -0.2315  0.5657
  201MOL0     C26455   9.023   9.491  11.141 -0.2318 -1.0864 -0.1021
  201MOL0     C26456   8.982   9.448  11.014 -0.0892  0.0505  0.2628
  201MOL0     C26457   9.048   9.347  10.943  0.2182 -1.4254  0.6389
  201MOL0     O26458   9.006   9.295  10.824 -0.1194 -0.1749  1.0059
  201MOL0     C26459   8.867   9.321  10.787 -0.4228  0.2346 -0.1146
  201MOL0     C26460   8.834   9.243  10.658 -0.4039 -0.9679 -0.1900
  201MOL0     C26461   8.709   9.298  10.587 -0.4296  0.0515  0.4974
  201MOL0     C26462   8.743   9.438  10.525 -0.5531  0.1256  0.0234
  201MOL0     C26463   8.838   9.439  10.414 -0.5113 -0.3785  0.2062
  201MOL0     C26464   8.914   9.458  10.321  0.2029 -0.5425  0.5878
  201MOL0     C26465   9.155   9.285  11.005  1.0084  0.2815  0.0095
  201MOL0     C26466   9.176   9.307  11.138 -1.0690  0.0563 -0.9027
  201MOL0     H26467   8.961   9.769  11.449  0.7985 -1.5746 -1.5801
  201MOL0     H26468   8.878   9.869  11.661 -0.6748  0.4095 -0.4182
  201MOL0     H26469   9.095   9.687  12.010  0.7311  2.4411 -1.4662
  201MOL0     H26470   8.932   9.636  12.050 -0.4480  0.8687 -1.5854
  201MOL0     H26471   8.887   9.817  12.167 -0.0850 -5.6801 -0.7080
  201MOL0     H26472   9.026   9.914  12.102  0.9595 -1.1723 -2.7117
  201MOL0     H26473   9.172   9.772  12.228  0.7244 -1.3336 -0.4120
  201MOL0     H26474   9.046   9.664  12.289  0.4700 -0.3825 -2.9330
  201MOL0     H26475   9.126   9.823  12.476  0.4201 -0.5003 -0.6387
  201MOL0     H26476   9.071   9.954  12.371 -1.1866  0.0535 -2.5615
  201MOL0     H26477   8.869   9.736  12.429 -0.2163  1.0956 -0.6171
  201MOL0     H26478   8.853   9.886  12.358  1.0709 -1.8573 -0.4208
  201MOL0     H26479   8.906  10.006  12.569  1.1791 -0.8327  0.8829
  201MOL0     H26480   8.920   9.844  12.644 -0.4739  2.7568  2.2640
  201MOL0     H26481   8.668   9.983  12.519 -0.2040  1.8558  2.0872
  201MOL0     H26482   8.676   9.817  12.553  1.1787 -0.5880  0.7529
  201MOL0     H26483   8.743  10.041  12.754 -1.8339  0.7791  1.1230
  201MOL0     H26484   8.736   9.864  12.782  0.5063 -0.7472 -1.9927
  201MOL0     H26485   8.505   9.835  12.916  0.6041  0.2111  0.5125
  201MOL0     H26486   8.247   9.851  12.971  1.5448  0.5988 -0.4099
  201MOL0     H26487   8.148   9.953  12.870 -0.7170 -0.7804  1.4072
  201MOL0     H26488   8.151  10.048  13.097  0.3943 -1.1724  2.3247
  201MOL0     H26489   8.243  10.158  12.975  2.0263 -1.3435  0.1017
  201MOL0     H26490   8.448  10.107  13.077  0.7026 -1.5897 -0.2966
  201MOL0     H26491   8.325  10.151  13.197  1.5538  0.6095  0.6593
  201MOL0     H26492   8.467   9.977  13.279 -0.6573 -0.0222  0.2967
  201MOL0     H26493   8.421   9.867  13.145 -2.4185 -0.7804  0.0714
  201MOL0     H26494   8.497   9.738  13.281 -3.4305  1.5242 -2.1477
  201MOL0     H26495   8.501   9.526  13.379  1.0947  0.9850 -0.2242
  201MOL0     H26496   8.712   9.364  13.676 -0.9756  0.2200 -0.3319
  201MOL0     H26497   8.802   9.185  13.800  0.6567  3.0167 -2.4897
  201MOL0     H26498   8.602   8.819  13.693 -0.8611  4.2367 -0.2053
  201MOL0     H26499   8.509   8.821  13.836 -1.4103  2.8505 -3.7180
  201MOL0     H26500   8.603   8.616  13.803 -1.1076  0.5174  0.3225
  201MOL0     H26501   8.696   8.679  13.941 -2.9411  0.7940  0.3216
  201MOL0     H26502   8.888   8.746  13.777  2.8435 -2.3229 -0.5150
  201MOL0     H26503   8.791   8.703  13.640 -0.7939  2.5104  1.9942
  201MOL0     H26504   8.797   8.453  13.712 -0.2210 -0.4520  1.1269
  201MOL0     H26505   8.938   8.530  13.649 -0.3613  2.7164 -0.1622
  201MOL0     H26506   8.962   8.387  13.871  2.5406 -0.0454 -0.9732
  201MOL0     H26507   8.884   8.521  13.948  0.9183 -0.8904 -0.0240
  201MOL0     H26508   9.058   8.677  13.940 -1.9782 -0.7524 -2.0587
  201MOL0     H26509   9.105   8.615  13.776  1.0040  0.1565 -1.0665
  201MOL0     H26510   9.158   8.470  14.033  0.3361 -1.9818 -0.9642
  201MOL0     H26511   9.202   8.416  13.879 -2.5386 -0.0326 -1.1045
  201MOL0     H26512   9.339   8.611  13.847 -0.9035 -1.5860 -1.0039
  201MOL0     H26513   9.390   8.519  13.998  2.2847  1.8619 -1.4261
  201MOL0     H26514   8.412   8.991  13.797  1.2763 -2.3496 -2.6304
  201MOL0     H26515   8.321   9.194  13.678 -0.4440 -0.8235 -2.1863
  201MOL0     H26516   8.147   9.623  13.609  0.2097 -0.9509  0.6419
  201MOL0     H26517   8.109   9.809  13.462 -0.1504  0.7956 -3.4091
  201MOL0     H26518   9.068   9.533  11.861  0.6190 -0.2358 -2.0950
  201MOL0     H26519   9.127   9.438  11.643  0.8270  1.0434 -2.2922
  201MOL0     H26520   8.975   9.581  11.180  0.2159  0.3992 -2.7285
  201MOL0     H26521   8.906   9.516  10.978 -0.2453 -0.9504 -1.3895
  201MOL0     H26522   8.862   9.429  10.770 -2.2399  0.4320  1.3759
  201MOL0     H26523   8.795   9.276  10.856  0.8425 -2.1201 -0.2253
  201MOL0     H26524   8.916   9.254  10.586 -1.4486  1.8641 -1.0815
  201MOL0     H26525   8.804   9.142  10.688 -3.5200  0.0975  0.6225
  201MOL0     H26526   8.633   9.308  10.664  1.0258  0.9019  1.8796
  201MOL0     H26527   8.683   9.235  10.501 -2.6154  1.6941 -0.1417
  201MOL0     H26528   8.653   9.487  10.487  0.1713  1.2194 -0.3304
  201MOL0     H26529   8.770   9.504  10.608 -1.0176  1.1899 -0.6397
  201MOL0     H26530   8.991   9.481  10.250 -0.6276  2.5274  0.5571
  201MOL0     H26531   9.184   9.196  10.950 -1.2871  0.1048 -1.0494
  201MOL0     H26532   9.252   9.243  11.182 -0.7559 -0.1366 -1.7130
  202MOL0     O26533   2.393  11.162   2.764  0.3448 -0.3337 -0.0231
  202MOL0     C26534   2.419  11.155   2.888 -0.6308 -0.0382  0.4917
  202MOL0     O26535   2.363  11.066   2.981 -0.2233  0.2454  0.1280
  202MOL0     C26536   2.269  10.977   2.940  0.0912 -0.5828 -0.0003
  202MOL0     C26537   2.301  10.846   2.920 -0.5472  0.0707  0.2580
  202MOL0     C26538   2.194  10.758   2.883 -0.6014 -0.8717  0.3323
  202MOL0     C26539   2.066  10.810   2.855  0.4220  1.0792  0.2606
  202MOL0     O26540   1.973  10.719   2.813  0.0750 -0.4461  0.6458
  202MOL0     C26541   1.836  10.756   2.822 -0.3751 -0.5237 -0.4992
  202MOL0     C26542   1.742  10.642   2.821 -0.0679  0.3583 -0.8121
  202MOL0     C26543   1.743  10.560   2.692  0.6930  0.6489  0.1263
  202MOL0     C26544   1.632  10.440   2.693 -0.2176  0.2370  0.3515
  202MOL0     C26545   1.623  10.358   2.563  0.5768 -0.0310  0.6349
  202MOL0     C26546   1.758  10.280   2.532  0.2439  0.5973 -0.1808
  202MOL0     C26547   1.746  10.153   2.439  0.3395  0.0697 -0.6906
  202MOL0     C26548   1.631  10.054   2.453 -0.0443 -0.6614  0.0893
  202MOL0     N26549   1.651   9.971   2.564  0.1189  0.7041 -0.4571
  202MOL0     C26550   1.633  10.006   2.696 -0.5042  0.4219  0.7558
  202MOL0     C26551   1.689   9.904   2.772 -0.5572  0.4650  0.8563
  202MOL0     C26552   1.669   9.891   2.916  0.3577 -0.8656 -0.5839
  202MOL0     C26553   1.581   9.777   2.972  0.3445 -0.4989  0.0048
  202MOL0     C26554   1.625   9.643   2.931  0.0393 -0.1121  0.9355
  202MOL0     C26555   1.774   9.615   2.968 -0.5472  0.4785 -0.1182
  202MOL0     O26556   1.789   9.470   2.972 -0.7740 -0.4886  0.8904
  202MOL0     C26557   1.777   9.393   2.854 -0.0282 -0.3507 -0.6853
  202MOL0     C26558   1.795   9.446   2.724 -0.4851 -0.2053 -0.1165
  202MOL0     C26559   1.788   9.359   2.619  0.4989  0.8585  0.0266
  202MOL0     C26560   1.766   9.223   2.632 -0.2080 -0.6230 -0.2707
  202MOL0     C26561   1.753   9.136   2.514 -0.0390  0.5592  0.4663
  202MOL0     O26562   1.711   8.996   2.536  0.3835 -0.0387  0.3259
  202MOL0     C26563   1.704   8.920   2.427  0.6678 -0.3450 -0.1064
  202MOL0     C26564   1.598   8.824   2.435 -1.0056  0.6475 -0.3902
  202MOL0     C26565   1.586   8.726   2.341 -0.5433  0.1983  0.1552
  202MOL0     C26566   1.669   8.721   2.224  0.1196  0.3709 -0.4544
  202MOL0     O26567   1.669   8.623   2.123  0.4104 -0.7171 -0.4852
  202MOL0     C26568   1.634   8.494   2.178  0.2681  0.7950  1.3479
  202MOL0     C26569   1.643   8.382   2.074 -0.2771  0.7911 -0.4044
  202MOL0     C26570   1.526   8.364   1.978  0.2579 -0.1472  0.2731
  202MOL0     C26571   1.393   8.352   2.062  0.2791 -0.5289 -0.7037
  202MOL0     C26572   1.292   8.248   2.006  1.0455  0.3373  0.5645
  202MOL0     C26573   1.168   8.238   2.095  0.5156  0.0432  1.1289
  202MOL0     C26574   1.184   8.127   2.195  0.1807  1.0253  0.2451
  202MOL0     C26575   1.072   8.102   2.297 -0.1318 -0.1461 -0.7660
  202MOL0    Cl26576   1.061   8.208   2.428 -0.3379 -0.1872  0.3429
  202MOL0     C26577   1.774   8.816   2.216  0.5313  0.1432 -0.1097
  202MOL0     C26578   1.782   8.916   2.309 -0.5958 -0.2461  0.3032
  202MOL0     O26579   1.754   9.194   2.406 -0.0223 -0.1908  0.3601
  202MOL0     C26580   1.762   9.171   2.763  0.2162 -0.1041 -0.1300
  202MOL0     C26581   1.764   9.253   2.873  0.5428 -0.6040  0.5897
  202MOL0     N26582   1.740   9.811   2.682 -0.8678  0.6026 -0.4945
  202MOL0     N26583   1.734   9.860   2.562 -0.0077  0.2818 -0.4607
  202MOL0     C26584   2.044  10.951   2.859 -0.6156 -0.1417 -0.1277
  202MOL0     C26585   2.145  11.032   2.909  0.7373 -0.8761  0.1318
  202MOL0     C26586   2.516  11.251   2.950 -0.1491 -0.5163 -0.2249
  202MOL0     C26587   2.540  11.257   3.081  0.6145  0.1657  0.5526
  202MOL0     C26588   2.627  11.359   3.137  0.1700  0.7466  0.5841
  202MOL0     C26589   2.720  11.430   3.065 -0.4029 -0.2653 -0.2211
  202MOL0     O26590   2.811  11.518   3.132 -0.1824 -0.6596 -0.2775
  202MOL0     C26591   2.939  11.541   3.075  0.7103  0.2472 -1.1395
  202MOL0     C26592   2.926  11.694   3.040  0.0096 -0.4408  0.6928
  202MOL0     C26593   2.920  11.786   3.156  0.4320  0.0819 -0.1453
  202MOL0     C26594   3.056  11.808   3.218  0.3218 -0.3361 -0.5234
  202MOL0     C26595   3.057  11.873   3.351  0.0232  1.3239  0.7089
  202MOL0     C26596   3.053  11.913   3.464  0.5475 -0.7205  0.8381
  202MOL0     C26597   2.703  11.420   2.931 -0.6795 -0.8706  0.5374
  202MOL0     C26598   2.609  11.334   2.875 -0.0116 -0.7894 -0.3453
  202MOL0     H26599   2.400  10.806   2.939  0.4388  1.6518 -1.3626
  202MOL0     H26600   2.205  10.651   2.871  2.6193 -0.5698 -0.3205
  202MOL0     H26601   1.819  10.809   2.728  5.2999  0.5848 -1.2408
  202MOL0     H26602   1.827  10.823   2.909  2.7170  1.4793 -1.5616
  202MOL0     H26603   1.641  10.682   2.828  0.1367  0.7717 -0.1643
  202MOL0     H26604   1.758  10.582   2.911 -0.9521 -4.5938 -3.5931
  202MOL0     H26605   1.841  10.520   2.663 -0.4617 -1.1165 -1.6075
  202MOL0     H26606   1.730  10.616   2.599 -0.1197  0.2125 -0.0259
  202MOL0     H26607   1.659  10.378   2.779 -3.5231 -0.3905  1.0757
  202MOL0     H26608   1.531  10.476   2.716  0.6378  1.8439  1.8442
  202MOL0     H26609   1.599  10.436   2.490 -0.6475  0.6168  1.6930
  202MOL0     H26610   1.542  10.286   2.577 -1.2963  2.4024  3.5569
  202MOL0     H26611   1.800  10.259   2.631 -1.1090  1.5484  0.6390
  202MOL0     H26612   1.821  10.360   2.492  0.8379  0.2822  0.1108
  202MOL0     H26613   1.745  10.192   2.337 -1.2045 -1.6616 -1.3940
  202MOL0     H26614   1.841  10.100   2.445  1.4574  2.0583  0.7508
  202MOL0     H26615   1.627   9.987   2.367 -1.0909 -0.5384  0.0240
  202MOL0     H26616   1.534  10.104   2.446 -0.1247 -0.2959  2.6893
  202MOL0     H26617   1.579  10.083   2.751 -1.7648 -0.7641  1.2384
  202MOL0     H26618   1.628   9.983   2.958  1.2637  0.3995 -2.3147
  202MOL0     H26619   1.773   9.891   2.952 -0.0734  0.1449  0.7313
  202MOL0     H26620   1.481   9.802   2.935  0.3287  1.0885  1.0371
  202MOL0     H26621   1.581   9.765   3.081  0.1218  1.1528  0.2140
  202MOL0     H26622   1.562   9.569   2.980  0.2199 -1.2187 -0.4516
  202MOL0     H26623   1.607   9.643   2.823 -1.2666  0.8730  1.1287
  202MOL0     H26624   1.802   9.653   3.066  0.7137  0.9680 -0.6519
  202MOL0     H26625   1.836   9.661   2.890  1.6723 -0.5929  0.9298
  202MOL0     H26626   1.803   9.553   2.708 -0.9300  0.0447  1.1512
  202MOL0     H26627   1.773   9.395   2.517 -1.4753  0.8931  0.2827
  202MOL0     H26628   1.528   8.827   2.518 -1.4024 -0.2901 -0.6706
  202MOL0     H26629   1.498   8.663   2.342 -0.5988  0.2285 -1.2095
  202MOL0     H26630   1.530   8.506   2.208 -1.2076 -1.8087 -1.9990
  202MOL0     H26631   1.687   8.468   2.270  0.0758 -1.4271  0.8926
  202MOL0     H26632   1.650   8.288   2.130  1.6954  0.0809 -1.7358
  202MOL0     H26633   1.735   8.388   2.017  1.0738 -3.0936  1.0155
  202MOL0     H26634   1.543   8.289   1.900 -0.4149  1.7075 -1.7784
  202MOL0     H26635   1.520   8.458   1.921  0.5190  0.3817  1.1017
  202MOL0     H26636   1.413   8.335   2.168  1.4876 -0.7405 -0.9480
  202MOL0     H26637   1.345   8.450   2.062  3.4839  1.1583 -0.5925
  202MOL0     H26638   1.340   8.151   1.993  2.9566  1.3828 -0.7153
  202MOL0     H26639   1.260   8.285   1.908  2.0722  0.0334  0.1032
  202MOL0     H26640   1.088   8.206   2.028 -0.8296  1.8707  1.7847
  202MOL0     H26641   1.152   8.332   2.149 -0.2832  1.5629 -1.5641
  202MOL0     H26642   1.192   8.036   2.135 -1.9309  1.1981 -0.3665
  202MOL0     H26643   1.282   8.133   2.244 -1.1196 -0.0831  3.2872
  202MOL0     H26644   1.082   7.997   2.328 -0.0405 -0.0120 -0.3356
  202MOL0     H26645   0.978   8.115   2.242  0.1558  0.8218 -1.0357
  202MOL0     H26646   1.842   8.811   2.132  1.6032 -0.0091  0.7453
  202MOL0     H26647   1.866   8.985   2.308  0.3746 -1.1587 -4.3797
  202MOL0     H26648   1.745   9.065   2.778  1.0329 -0.4949 -1.7537
  202MOL0     H26649   1.748   9.204   2.968 -0.8233  0.1603  0.7914
  202MOL0     H26650   1.946  10.993   2.839 -0.3700  0.1749 -0.6931
  202MOL0     H26651   2.134  11.140   2.907 -0.8429 -1.0239 -2.1192
  202MOL0     H26652   2.474  11.197   3.143 -1.3335  2.7225  1.1023
  202MOL0     H26653   2.628  11.367   3.245  1.2256  3.9963  0.4159
  202MOL0     H26654   2.958  11.472   2.992  2.8366 -4.7175  2.9331
  202MOL0     H26655   3.012  11.512   3.152 -0.6070  0.7476  0.3473
  202MOL0     H26656   3.009  11.719   2.974 -2.4917  1.2672 -2.0760
  202MOL0     H26657   2.837  11.717   2.982  1.5858  1.9560 -0.9547
  202MOL0     H26658   2.859  11.730   3.228  2.1508 -2.5240 -0.5524
  202MOL0     H26659   2.875  11.883   3.134  1.2405  1.0590  2.1428
  202MOL0     H26660   3.115  11.717   3.216  0.1836 -0.4656  0.8775
  202MOL0     H26661   3.108  11.887   3.162  2.3678  0.0944  1.8016
  202MOL0     H26662   3.033  11.948   3.563  2.3884  2.5795  0.2188
  202MOL0     H26663   2.763  11.475   2.859  1.6535 -3.0764  0.6421
  202MOL0     H26664   2.615  11.340   2.767  0.5231  1.0267 -0.2358
  203MOL0     O26665   0.766   6.043   4.438  0.9006  0.3280  0.2569
  203MOL0     C26666   0.803   6.134   4.366 -0.5591 -0.5753  0.0285
  203MOL0     O26667   0.856   6.125   4.240  0.0062  0.1364 -0.3629
  203MOL0     C26668   0.880   5.993   4.189  0.3457  0.5895 -0.8722
  203MOL0     C26669   0.988   5.974   4.101 -0.4114  0.2066  0.4153
  203MOL0     C26670   1.001   5.851   4.038  0.5151  0.8655  0.8432
  203MOL0     C26671   0.909   5.743   4.052  0.9471  0.1833  0.2171
  203MOL0     O26672   0.927   5.621   3.986  0.0518 -0.3067  0.2456
  203MOL0     C26673   0.996   5.618   3.856 -0.1337 -1.0235  0.0264
  203MOL0     C26674   0.995   5.483   3.780 -1.5809  0.5710 -0.1985
  203MOL0     C26675   0.873   5.434   3.707 -0.6377 -0.2194  0.3344
  203MOL0     C26676   0.803   5.535   3.615 -0.2566  0.6450  0.4935
  203MOL0     C26677   0.720   5.456   3.515  0.4817  0.2997  0.3075
  203MOL0     C26678   0.602   5.389   3.577 -0.1359 -0.4868 -0.1774
  203MOL0     C26679   0.540   5.288   3.480 -0.5255 -0.4878 -0.0465
  203MOL0     C26680   0.470   5.352   3.355  0.1931 -0.9996 -0.6063
  203MOL0     N26681   0.413   5.242   3.283  0.0137 -0.6168  1.3669
  203MOL0     C26682   0.490   5.159   3.208  0.0469  0.4312 -0.1345
  203MOL0     C26683   0.405   5.085   3.142  0.2534  0.5058  0.1734
  203MOL0     C26684   0.434   5.014   3.012 -0.3097  0.3206 -0.6597
  203MOL0     C26685   0.299   5.001   2.933 -1.6843 -0.9215  0.0508
  203MOL0     C26686   0.331   4.951   2.793 -0.2077 -0.2392  0.3428
  203MOL0     C26687   0.215   4.989   2.702  0.5374 -0.9155 -0.2743
  203MOL0     O26688   0.263   4.937   2.577  0.1881 -0.9741 -0.5184
  203MOL0     C26689   0.180   4.842   2.521 -0.5852  0.5418  0.6617
  203MOL0     C26690   0.148   4.839   2.386 -0.6241  0.2880  0.2162
  203MOL0     C26691   0.076   4.730   2.328 -0.5946 -1.1800 -0.2691
  203MOL0     C26692   0.018   4.626   2.409  0.3417 -0.0363 -0.3504
  203MOL0     C26693  -0.067   4.517   2.342 -0.5331 -0.4829 -0.4031
  203MOL0     O26694  -0.103   4.540   2.215  0.2831  0.6558  0.2567
  203MOL0     C26695  -0.240   4.504   2.196 -0.3162  0.1915  0.0598
  203MOL0     C26696  -0.279   4.379   2.148 -0.2870  0.0725  0.3487
  203MOL0     C26697  -0.410   4.353   2.121  0.6977 -0.7011  1.3683
  203MOL0     C26698  -0.515   4.449   2.146 -0.3648 -0.7681 -1.0709
  203MOL0     O26699  -0.649   4.435   2.129  0.7732  0.7746  0.1598
  203MOL0     C26700  -0.698   4.317   2.065  0.5135  1.1162 -0.7135
  203MOL0     C26701  -0.846   4.297   2.040  0.5176 -0.1926 -0.4154
  203MOL0     C26702  -0.892   4.181   1.963 -1.0865 -0.4365 -0.2493
  203MOL0     C26703  -1.044   4.177   1.936  0.0989  0.9122  0.2302
  203MOL0     C26704  -1.136   4.190   2.062 -0.4454  0.3349 -1.2045
  203MOL0     C26705  -1.287   4.189   2.040  0.0550 -0.5107  0.2253
  203MOL0     C26706  -1.318   4.324   1.970 -0.1152  0.3276  0.5429
  203MOL0     C26707  -1.334   4.434   2.078  0.4586  0.1448  0.6108
  203MOL0    Cl26708  -1.309   4.587   1.982 -0.0424 -0.0374 -0.1414
  203MOL0     C26709  -0.476   4.580   2.186 -0.1868  0.0518  0.5138
  203MOL0     C26710  -0.338   4.600   2.225 -0.2156 -0.2754  0.4190
  203MOL0     O26711  -0.107   4.428   2.409  0.4230  0.7162  0.4395
  203MOL0     C26712   0.057   4.629   2.547  0.2493 -1.1104  0.3019
  203MOL0     C26713   0.125   4.741   2.603 -0.1460  0.4404 -0.3812
  203MOL0     N26714   0.276   5.107   3.197 -0.4687  0.5532 -0.3009
  203MOL0     N26715   0.286   5.198   3.286  0.1663  1.4968  0.8008
  203MOL0     C26716   0.789   5.772   4.136  0.3227  0.2789  0.5176
  203MOL0     C26717   0.773   5.893   4.202  0.1166  0.7667 -0.8730
  203MOL0     C26718   0.811   6.266   4.438 -0.0630 -0.0124 -1.2309
  203MOL0     C26719   0.772   6.274   4.577  0.2555  0.2027  0.0694
  203MOL0     C26720   0.798   6.396   4.643 -0.3183  0.6529 -1.1603
  203MOL0     C26721   0.851   6.511   4.579 -0.5136  0.3497  0.8367
  203MOL0     O26722   0.869   6.636   4.632  0.6389 -0.3723 -0.1696
  203MOL0     C26723   0.816   6.668   4.766 -1.0104  0.6925 -0.7198
  203MOL0     C26724   0.840   6.811   4.790 -0.2875  0.5555 -0.0985
  203MOL0     C26725   0.990   6.858   4.781  0.4386 -0.2634  0.2570
  203MOL0     C26726   1.060   6.826   4.907 -1.0818 -0.8160  0.4738
  203MOL0     C26727   1.013   6.887   5.024  0.0407  0.0012  0.3793
  203MOL0     C26728   0.979   6.911   5.141  0.6189 -0.4693 -0.5666
  203MOL0     C26729   0.904   6.491   4.452  0.4241 -0.0677 -0.4555
  203MOL0     C26730   0.888   6.362   4.389 -0.6791  0.2904  0.0509
  203MOL0     H26731   1.069   6.043   4.086  1.0965 -0.9324  2.6893
  203MOL0     H26732   1.087   5.846   3.973 -0.8940  0.2492 -1.0481
  203MOL0     H26733   1.101   5.642   3.875 -0.1394 -0.2584 -0.8437
  203MOL0     H26734   0.962   5.704   3.797 -2.4529 -1.5937  0.4298
  203MOL0     H26735   1.014   5.409   3.859 -0.8374  0.9605  0.0048
  203MOL0     H26736   1.078   5.479   3.709  0.4315  0.1180  2.0373
  203MOL0     H26737   0.807   5.382   3.777  0.4658 -0.8888  0.8853
  203MOL0     H26738   0.909   5.360   3.634 -0.6462  0.7693 -0.7052
  203MOL0     H26739   0.739   5.600   3.675 -1.2564 -0.0698  0.2217
  203MOL0     H26740   0.873   5.602   3.564  0.3501 -0.9130 -0.8116
  203MOL0     H26741   0.787   5.392   3.458  2.5245  1.1067  1.7145
  203MOL0     H26742   0.675   5.538   3.458 -0.4595 -1.0674 -0.9603
  203MOL0     H26743   0.526   5.466   3.594  1.4441  0.5555  2.8126
  203MOL0     H26744   0.621   5.351   3.678 -1.5038 -3.0383 -0.7821
  203MOL0     H26745   0.621   5.219   3.453  0.7078  0.4150  1.1513
  203MOL0     H26746   0.453   5.255   3.537 -2.2495  2.7278 -0.5532
  203MOL0     H26747   0.540   5.413   3.297  0.4771 -0.8426 -0.1046
  203MOL0     H26748   0.399   5.424   3.397 -0.9440 -2.5502  0.2470
  203MOL0     H26749   0.598   5.159   3.201 -0.0536  0.4717 -2.2139
  203MOL0     H26750   0.471   4.915   3.042  1.4963  1.8425  2.7227
  203MOL0     H26751   0.503   5.080   2.959 -1.2155  2.0820  0.2624
  203MOL0     H26752   0.256   5.101   2.930  3.3506  1.6336  1.7300
  203MOL0     H26753   0.233   4.931   2.985  0.1872 -2.7028  0.1513
  203MOL0     H26754   0.425   4.994   2.759  0.3075 -2.8288 -1.9334
  203MOL0     H26755   0.345   4.842   2.789 -0.8639 -0.3198  0.0886
  203MOL0     H26756   0.218   5.097   2.685  4.0787 -1.4731 -5.6320
  203MOL0     H26757   0.115   4.961   2.739  1.0744  0.7226  2.7008
  203MOL0     H26758   0.180   4.924   2.326 -0.6106 -1.1848 -1.9927
  203MOL0     H26759   0.038   4.708   2.229 -3.9157 -2.4385  1.1559
  203MOL0     H26760  -0.211   4.296   2.132 -0.5297 -1.1010  4.3710
  203MOL0     H26761  -0.431   4.254   2.082  1.0111 -0.6132  0.9748
  203MOL0     H26762  -0.667   4.229   2.122 -1.0060  2.5538  2.5202
  203MOL0     H26763  -0.663   4.315   1.961 -0.3879 -1.5734 -1.0448
  203MOL0     H26764  -0.884   4.381   1.981  4.8311  0.2320 -3.0179
  203MOL0     H26765  -0.900   4.290   2.135  1.0329  1.6450  0.0540
  203MOL0     H26766  -0.855   4.097   2.023  1.1873  1.1836  0.7400
  203MOL0     H26767  -0.830   4.174   1.873  0.1544 -1.9425  0.6679
  203MOL0     H26768  -1.070   4.259   1.868 -0.6386  1.1587  0.7967
  203MOL0     H26769  -1.070   4.084   1.885  1.7323  1.1202 -1.0549
  203MOL0     H26770  -1.109   4.280   2.118  2.3082  0.3638 -2.4556
  203MOL0     H26771  -1.111   4.109   2.132 -0.0278  2.7319  1.5935
  203MOL0     H26772  -1.346   4.175   2.131  1.2836  0.9698  1.3050
  203MOL0     H26773  -1.305   4.108   1.969  3.5367 -0.3976 -1.0002
  203MOL0     H26774  -1.243   4.357   1.898 -0.9515 -0.5512 -0.7844
  203MOL0     H26775  -1.417   4.318   1.924 -1.3429  3.9010  2.3593
  203MOL0     H26776  -1.251   4.428   2.150  4.8142  0.5136 -3.8322
  203MOL0     H26777  -1.432   4.420   2.124 -0.9056  1.9115 -1.5928
  203MOL0     H26778  -0.556   4.653   2.189 -1.4135 -1.2639  2.1453
  203MOL0     H26779  -0.306   4.701   2.248  0.1028  0.2124 -1.8591
  203MOL0     H26780   0.023   4.549   2.611  1.1233 -2.3559 -0.7466
  203MOL0     H26781   0.142   4.731   2.710  1.6025 -0.1815 -0.6837
  203MOL0     H26782   0.720   5.693   4.160 -0.8039  1.3716  0.9983
  203MOL0     H26783   0.677   5.900   4.253 -0.2677 -0.9258 -1.2922
  203MOL0     H26784   0.726   6.189   4.625  2.6574 -2.2005 -1.6056
  203MOL0     H26785   0.749   6.405   4.739  1.0344  0.9066 -0.4633
  203MOL0     H26786   0.888   6.621   4.834 -0.8758  1.7467 -0.1253
  203MOL0     H26787   0.714   6.634   4.788 -0.4247 -0.3589  0.5452
  203MOL0     H26788   0.774   6.860   4.717 -2.0028  0.2615  1.1974
  203MOL0     H26789   0.793   6.837   4.885  2.9484  1.3961  1.3843
  203MOL0     H26790   0.992   6.967   4.767 -0.6763 -0.3123 -0.4364
  203MOL0     H26791   1.034   6.809   4.694 -2.0764 -1.7496 -0.2910
  203MOL0     H26792   1.066   6.717   4.919 -0.0633 -0.9105 -0.7049
  203MOL0     H26793   1.163   6.859   4.890 -1.2951 -1.1109 -1.7103
  203MOL0     H26794   0.952   6.907   5.245  1.4467 -2.5144 -0.3947
  203MOL0     H26795   0.937   6.578   4.396  3.7251 -1.1790 -0.4155
  203MOL0     H26796   0.934   6.356   4.292  0.5236 -0.6970  0.6538
  204MOL0     O26797   7.713   1.437   2.314 -0.4087  0.1039  0.9693
  204MOL0     C26798   7.710   1.311   2.320  0.3183  0.1343 -0.6094
  204MOL0     O26799   7.824   1.228   2.324  0.2972 -0.6098  0.2130
  204MOL0     C26800   7.949   1.282   2.294 -0.5589  0.9379 -0.1289
  204MOL0     C26801   8.051   1.227   2.362 -0.0607 -0.7478 -1.0382
  204MOL0     C26802   8.185   1.274   2.344  0.2640 -0.4986 -1.1196
  204MOL0     C26803   8.220   1.363   2.243 -0.9839  0.2779  1.3869
  204MOL0     O26804   8.352   1.380   2.213  0.4627  0.0478  0.1227
  204MOL0     C26805   8.396   1.492   2.126  0.3420 -1.1251  0.2708
  204MOL0     C26806   8.555   1.502   2.111  0.4310 -0.6839 -0.0307
  204MOL0     C26807   8.619   1.356   2.069  0.6214 -0.7291  0.3580
  204MOL0     C26808   8.761   1.343   2.131  0.6085 -0.0740 -0.5789
  204MOL0     C26809   8.823   1.213   2.108  0.7704 -0.2237  0.2962
  204MOL0     C26810   8.934   1.177   2.209  0.5105  0.2939  0.4941
  204MOL0     C26811   8.998   1.026   2.200  0.1779  0.4702 -0.5976
  204MOL0     C26812   8.888   0.925   2.219 -0.4670  0.9198  0.7621
  204MOL0     N26813   8.931   0.783   2.226  0.7213 -0.4617 -0.6722
  204MOL0     C26814   8.960   0.742   2.359 -0.8125 -0.4293  0.8879
  204MOL0     C26815   9.032   0.634   2.340 -0.2726 -0.1508 -1.1166
  204MOL0     C26816   9.125   0.561   2.447  0.5435 -0.8264 -0.5247
  204MOL0     C26817   9.273   0.613   2.450 -0.8942  0.6362 -0.7142
  204MOL0     C26818   9.362   0.576   2.334  0.7905  0.3969  0.2990
  204MOL0     C26819   9.384   0.432   2.291 -0.1862  0.0186 -0.2086
  204MOL0     O26820   9.439   0.363   2.404  0.8191  0.0738  0.6736
  204MOL0     C26821   9.447   0.233   2.392 -0.1208  1.3751  0.2549
  204MOL0     C26822   9.397   0.151   2.286 -0.9086 -0.3678 -0.2188
  204MOL0     C26823   9.417   0.010   2.290 -0.1332  0.0450  0.3591
  204MOL0     C26824   9.488  -0.055   2.392  0.1740  0.5940 -0.3670
  204MOL0     C26825   9.506  -0.201   2.391 -0.0201 -0.6630 -0.3272
  204MOL0     O26826   9.551  -0.258   2.509  0.7841 -0.2196 -0.6586
  204MOL0     C26827   9.575  -0.396   2.520 -0.1270 -0.3632  1.3161
  204MOL0     C26828   9.689  -0.452   2.454  0.1263  0.1685  0.2031
  204MOL0     C26829   9.704  -0.593   2.485 -0.4445  0.1743  0.0357
  204MOL0     C26830   9.625  -0.672   2.564  0.1603 -0.0290 -1.3592
  204MOL0     O26831   9.631  -0.807   2.588 -0.1536  0.4334 -0.6827
  204MOL0     C26832   9.752  -0.889   2.562  0.5820  0.0177 -0.5499
  204MOL0     C26833   9.728  -1.020   2.639 -0.6452  0.3003 -0.2403
  204MOL0     C26834   9.861  -1.094   2.650  0.0143  0.9867 -0.1845
  204MOL0     C26835   9.862  -1.218   2.748  0.1086  0.6180 -0.0694
  204MOL0     C26836  10.007  -1.236   2.801 -0.0586 -0.2795  0.3003
  204MOL0     C26837  10.015  -1.358   2.891  0.4729 -0.2209  0.4750
  204MOL0     C26838  10.152  -1.371   2.963  0.4011  0.1669  0.5384
  204MOL0     C26839  10.189  -1.257   3.061 -0.2079  0.9171 -0.1250
  204MOL0    Cl26840  10.335  -1.297   3.145 -0.2227  0.1579 -0.3609
  204MOL0     C26841   9.523  -0.603   2.633 -0.1536  0.4492  1.6718
  204MOL0     C26842   9.493  -0.469   2.608 -0.3148  0.1214  0.6152
  204MOL0     O26843   9.503  -0.258   2.283 -0.2166 -0.3841  0.2262
  204MOL0     C26844   9.538   0.019   2.501  0.0327  0.2781 -0.6233
  204MOL0     C26845   9.521   0.163   2.499  0.4112 -0.0141 -0.1985
  204MOL0     N26846   9.037   0.609   2.202  0.1815 -0.4553  0.2003
  204MOL0     N26847   8.966   0.688   2.133  0.0944 -0.0263 -0.1660
  204MOL0     C26848   8.121   1.412   2.160  0.7953 -0.4567 -0.8116
  204MOL0     C26849   7.983   1.372   2.184  0.8064  0.7683  0.1630
  204MOL0     C26850   7.580   1.250   2.301  1.1558  0.4145 -0.3678
  204MOL0     C26851   7.460   1.314   2.328 -0.4480 -0.2787  0.2875
  204MOL0     C26852   7.334   1.260   2.301  0.2205  0.1045  0.1475
  204MOL0     C26853   7.316   1.139   2.236 -0.0682 -0.2300  0.0402
  204MOL0     O26854   7.194   1.090   2.202  0.4499 -0.6336  0.3624
  204MOL0     C26855   7.176   0.958   2.140 -1.4836 -0.1045  0.0386
  204MOL0     C26856   7.116   0.875   2.252  0.1713  0.3555  0.6356
  204MOL0     C26857   7.109   0.726   2.214  0.1179  0.2223 -0.4409
  204MOL0     C26858   7.085   0.645   2.334  0.0831  0.0891  0.3332
  204MOL0     C26859   7.168   0.672   2.455  0.0368  0.3088  0.1953
  204MOL0     C26860   7.249   0.685   2.545 -1.1433 -0.7728  0.1778
  204MOL0     C26861   7.437   1.071   2.213  0.3198 -0.0860  0.4285
  204MOL0     C26862   7.564   1.122   2.245  0.8192  0.0426 -0.5280
  204MOL0     H26863   8.029   1.149   2.435  1.0256  0.4004  0.5699
  204MOL0     H26864   8.270   1.234   2.399 -0.2941 -1.8683 -1.2045
  204MOL0     H26865   8.350   1.587   2.154  1.0486 -0.5416 -0.5271
  204MOL0     H26866   8.364   1.473   2.023 -3.8906  1.1313  0.9240
  204MOL0     H26867   8.602   1.534   2.204  3.9272 -0.5337 -1.6880
  204MOL0     H26868   8.580   1.582   2.041 -1.0214 -0.0572  0.1322
  204MOL0     H26869   8.631   1.345   1.961  1.8214  0.2040  0.3702
  204MOL0     H26870   8.551   1.284   2.115 -0.4353  1.2266  2.0001
  204MOL0     H26871   8.825   1.420   2.086  1.2041 -0.0886  0.2254
  204MOL0     H26872   8.751   1.351   2.240  3.7705 -2.3662  0.0399
  204MOL0     H26873   8.866   1.234   2.010 -1.5899  0.6525 -0.6362
  204MOL0     H26874   8.751   1.131   2.114  0.0342  0.5070  2.0671
  204MOL0     H26875   8.899   1.194   2.311  1.9872 -4.3382  2.0358
  204MOL0     H26876   9.018   1.243   2.183 -0.5360  0.2760 -3.6550
  204MOL0     H26877   9.054   1.013   2.108  0.9247  1.0248 -0.2309
  204MOL0     H26878   9.064   1.017   2.287 -2.3788  0.5331  1.5048
  204MOL0     H26879   8.816   0.932   2.137  0.7945 -0.2828 -0.5222
  204MOL0     H26880   8.827   0.956   2.304 -0.9102  2.7526 -0.1813
  204MOL0     H26881   8.949   0.790   2.455  3.4879  0.6989  1.0125
  204MOL0     H26882   9.114   0.454   2.429 -3.3026 -0.9862  1.8100
  204MOL0     H26883   9.072   0.557   2.543  0.9940 -1.7230 -0.3034
  204MOL0     H26884   9.318   0.569   2.539  0.1823  0.6512 -1.2301
  204MOL0     H26885   9.271   0.722   2.465 -3.3672  0.6616 -0.8601
  204MOL0     H26886   9.327   0.625   2.243  2.5558 -3.7055 -2.9356
  204MOL0     H26887   9.456   0.630   2.346  1.1030  0.4020 -1.7980
  204MOL0     H26888   9.465   0.442   2.219 -0.7544  1.6673 -0.6593
  204MOL0     H26889   9.298   0.387   2.240  0.6553 -1.7321 -0.1501
  204MOL0     H26890   9.334   0.183   2.203 -2.4239 -1.8598  0.3134
  204MOL0     H26891   9.381  -0.044   2.203 -2.3289 -0.4242  1.5177
  204MOL0     H26892   9.760  -0.404   2.388 -0.1749 -1.0105 -1.0265
  204MOL0     H26893   9.789  -0.643   2.439  0.6664 -1.2003  3.2712
  204MOL0     H26894   9.843  -0.838   2.593 -0.7250  0.8902  2.1437
  204MOL0     H26895   9.764  -0.920   2.458  5.1516 -0.7343  0.0175
  204MOL0     H26896   9.650  -1.076   2.585  1.6364 -0.1367 -3.3877
  204MOL0     H26897   9.703  -1.003   2.744  1.4834 -1.5351  0.6517
  204MOL0     H26898   9.937  -1.018   2.669  3.4576 -1.9614 -1.1076
  204MOL0     H26899   9.883  -1.132   2.550 -2.5388 -0.5707 -0.2505
  204MOL0     H26900   9.784  -1.197   2.821 -0.6106  2.6644 -1.3634
  204MOL0     H26901   9.828  -1.314   2.707 -0.6881  1.1342 -0.6263
  204MOL0     H26902  10.026  -1.144   2.856 -2.1863  0.4397 -0.0451
  204MOL0     H26903  10.080  -1.253   2.722  1.1325 -2.7211  1.8074
  204MOL0     H26904   9.998  -1.448   2.831  0.1612  1.5289 -2.2404
  204MOL0     H26905   9.935  -1.351   2.965 -1.7859  0.0259 -1.8735
  204MOL0     H26906  10.140  -1.461   3.024 -3.0943 -0.2627 -0.5324
  204MOL0     H26907  10.240  -1.386   2.900  0.0610 -0.7761  0.2779
  204MOL0     H26908  10.105  -1.247   3.129 -0.7372  1.3371 -0.8237
  204MOL0     H26909  10.224  -1.168   3.007  2.8633  0.5210  0.9872
  204MOL0     H26910   9.452  -0.667   2.685 -1.0143 -0.6427 -0.6877
  204MOL0     H26911   9.415  -0.424   2.668 -1.2526 -3.7293  2.6470
  204MOL0     H26912   9.570  -0.029   2.593 -0.1556 -0.4749 -0.9415
  204MOL0     H26913   9.557   0.226   2.580 -0.3614  0.9787 -0.5923
  204MOL0     H26914   8.139   1.480   2.077 -0.7278 -1.3907 -1.9698
  204MOL0     H26915   7.899   1.420   2.134 -0.8953  0.6519  2.6755
  204MOL0     H26916   7.456   1.414   2.368 -3.8823 -0.4356  0.5954
  204MOL0     H26917   7.248   1.317   2.334  1.0321  1.3819  0.1414
  204MOL0     H26918   7.268   0.914   2.101  0.5213 -0.7306  4.8145
  204MOL0     H26919   7.104   0.961   2.057  1.5064  0.7607 -2.7438
  204MOL0     H26920   7.192   0.886   2.329 -0.4612 -1.1607  1.5344
  204MOL0     H26921   7.022   0.908   2.297 -0.5823 -1.3637  0.4141
  204MOL0     H26922   7.197   0.687   2.163  0.2226 -1.0928  0.7038
  204MOL0     H26923   7.031   0.714   2.139 -1.2653 -1.5055  1.1741
  204MOL0     H26924   6.977   0.652   2.353  0.0577  1.4081 -0.2108
  204MOL0     H26925   7.105   0.543   2.300 -2.4852  0.6543 -3.5383
  204MOL0     H26926   7.319   0.709   2.623 -0.6721 -4.1688  0.9432
  204MOL0     H26927   7.456   0.975   2.167 -0.2511 -0.1785  0.3775
  204MOL0     H26928   7.656   1.066   2.233 -0.7942 -2.4927 -1.6904
  205MOL0     O26929   0.108   2.343  10.423  0.0834  0.1992  0.6900
  205MOL0     C26930   0.130   2.326  10.299  0.3912 -0.0425 -0.5901
  205MOL0     O26931   0.119   2.209  10.234  0.4530  0.3960 -0.4119
  205MOL0     C26932   0.083   2.095  10.303  0.5970 -0.3724  0.1426
  205MOL0     C26933   0.183   2.002  10.329  0.1305 -0.0164  0.7936
  205MOL0     C26934   0.148   1.888  10.401 -0.0190 -0.3516  0.4320
  205MOL0     C26935   0.022   1.856  10.434 -0.2097 -0.0127  0.3841
  205MOL0     O26936   0.010   1.727  10.489 -0.1105  0.0081  0.0986
  205MOL0     C26937  -0.129   1.669  10.494 -0.0999  0.4901 -0.6919
  205MOL0     C26938  -0.145   1.552  10.405 -0.1948 -0.1527  0.6570
  205MOL0     C26939  -0.027   1.465  10.399  0.9698 -0.3285  0.5276
  205MOL0     C26940  -0.079   1.323  10.350 -0.7005 -1.2219  0.6914
  205MOL0     C26941   0.040   1.228  10.356 -0.1230 -0.0430  0.7658
  205MOL0     C26942   0.009   1.091  10.297  0.4557  0.0866 -0.0211
  205MOL0     C26943  -0.103   1.028  10.383  1.0777  0.7115 -0.5505
  205MOL0     C26944  -0.147   0.872  10.361 -0.6734 -0.2783  0.0647
  205MOL0     N26945  -0.196   0.843  10.228  0.1042  0.6282 -0.4100
  205MOL0     C26946  -0.220   0.922  10.113 -0.3349  0.2249  0.2010
  205MOL0     C26947  -0.292   0.836  10.027 -0.0299  0.0008  0.3860
  205MOL0     C26948  -0.317   0.854   9.881  0.0475  0.5077  0.8324
  205MOL0     C26949  -0.452   0.909   9.860 -0.4238 -0.0389  0.0923
  205MOL0     C26950  -0.556   0.799   9.842  0.3982  0.2767  0.5127
  205MOL0     C26951  -0.699   0.847   9.842  0.7748 -0.2006 -0.2219
  205MOL0     O26952  -0.740   0.881   9.707 -0.2773  0.4774 -0.0754
  205MOL0     C26953  -0.849   0.960   9.704  0.0835 -0.5477  1.1998
  205MOL0     C26954  -0.846   1.084   9.772  0.3891  0.0514  0.1838
  205MOL0     C26955  -0.961   1.168   9.779  0.5052 -0.0989 -0.1544
  205MOL0     C26956  -1.078   1.126   9.705 -0.2010 -0.6596  0.4249
  205MOL0     C26957  -1.201   1.214   9.717  0.5506  0.3741  0.5252
  205MOL0     O26958  -1.183   1.344   9.755  0.2461  0.0919  0.1060
  205MOL0     C26959  -1.273   1.451   9.761 -0.5704 -0.3538  0.5144
  205MOL0     C26960  -1.406   1.456   9.722 -0.1915 -0.9598  0.1229
  205MOL0     C26961  -1.494   1.566   9.745  0.4807  0.3802 -0.3522
  205MOL0     C26962  -1.443   1.683   9.799  0.7463  0.1482  0.8324
  205MOL0     O26963  -1.542   1.780   9.829  0.5789  0.2317  0.2632
  205MOL0     C26964  -1.521   1.918   9.793  0.0767 -0.8430  0.9046
  205MOL0     C26965  -1.649   1.988   9.777 -0.1142  0.1980  1.0682
  205MOL0     C26966  -1.658   2.054   9.641  0.0059 -0.9362  0.0972
  205MOL0     C26967  -1.784   2.143   9.638 -0.0397  1.1266  0.0586
  205MOL0     C26968  -1.841   2.152   9.492 -0.2868  0.6097  0.1541
  205MOL0     C26969  -1.737   2.226   9.404  0.4456  0.4616  0.3081
  205MOL0     C26970  -1.806   2.277   9.274 -0.2071  0.7007 -0.2305
  205MOL0     C26971  -1.734   2.393   9.194  0.1136  0.0694 -0.9005
  205MOL0    Cl26972  -1.711   2.528   9.314 -0.7162  0.1627  0.1687
  205MOL0     C26973  -1.308   1.687   9.840 -0.0265 -0.0773 -0.2446
  205MOL0     C26974  -1.224   1.570   9.829  0.9551 -1.0624 -0.2393
  205MOL0     O26975  -1.306   1.154   9.694  0.3115 -0.6913 -0.1801
  205MOL0     C26976  -1.078   1.003   9.645  0.2974 -1.1655 -0.2272
  205MOL0     C26977  -0.960   0.924   9.634  0.5153 -0.4150 -0.1995
  205MOL0     N26978  -0.307   0.715  10.099 -0.1753 -0.3089  0.6355
  205MOL0     N26979  -0.244   0.716  10.207  0.3794 -0.0702  0.8827
  205MOL0     C26980  -0.083   1.952  10.402 -0.5855  0.3748  0.1129
  205MOL0     C26981  -0.050   2.066  10.340  0.0400  0.5642 -0.2275
  205MOL0     C26982   0.161   2.450  10.224 -0.6130 -0.2133  0.2012
  205MOL0     C26983   0.159   2.445  10.081 -0.3738  0.8088  0.4080
  205MOL0     C26984   0.174   2.564  10.013  0.3388 -0.8982 -0.8615
  205MOL0     C26985   0.190   2.694  10.076  1.0186  0.4036 -0.0006
  205MOL0     O26986   0.196   2.811  10.001 -0.3149 -0.1707 -0.8044
  205MOL0     C26987   0.287   2.818   9.892  0.4120  0.4505 -0.4728
  205MOL0     C26988   0.432   2.789   9.911 -0.0734 -0.4585  0.0247
  205MOL0     C26989   0.498   2.825   9.780  0.0243 -1.0230  0.6072
  205MOL0     C26990   0.643   2.856   9.790 -0.0249 -1.1987 -0.2028
  205MOL0     C26991   0.731   2.754   9.840  0.9595  0.3202  0.5048
  205MOL0     C26992   0.810   2.674   9.880  1.2607  0.6383  0.0985
  205MOL0     C26993   0.194   2.689  10.217 -0.5867  0.1061  0.6682
  205MOL0     C26994   0.179   2.576  10.291 -0.3557  1.2330  0.5791
  205MOL0     H26995   0.287   2.017  10.303  0.2556 -1.7332  0.2101
  205MOL0     H26996   0.230   1.825  10.433  0.7109  1.1556  1.6503
  205MOL0     H26997  -0.217   1.732  10.476 -0.2954  1.6138  3.1708
  205MOL0     H26998  -0.143   1.632  10.596 -1.5062  0.8850 -0.7158
  205MOL0     H26999  -0.175   1.586  10.306 -1.5256  0.6739  1.3002
  205MOL0     H27000  -0.225   1.485  10.438  0.1262 -1.1918 -0.6113
  205MOL0     H27001   0.010   1.445  10.501 -1.1692 -1.3911  1.1537
  205MOL0     H27002   0.053   1.504  10.336  1.9186 -3.3980 -0.3445
  205MOL0     H27003  -0.165   1.294  10.411 -1.2218 -2.3720 -0.5345
  205MOL0     H27004  -0.119   1.324  10.248  0.0432  0.9075  0.3634
  205MOL0     H27005   0.076   1.221  10.459  1.5688 -0.7613  0.1584
  205MOL0     H27006   0.128   1.259  10.300  1.7867 -1.4656  2.8068
  205MOL0     H27007   0.092   1.025  10.268 -0.1337 -0.7563  0.1741
  205MOL0     H27008  -0.034   1.108  10.198 -0.3970 -1.4002  0.0706
  205MOL0     H27009  -0.067   1.036  10.486  2.2321 -2.2359 -0.6046
  205MOL0     H27010  -0.195   1.085  10.373  0.8881  0.4027 -0.5820
  205MOL0     H27011  -0.226   0.839  10.429 -0.1719 -1.0544  0.2803
  205MOL0     H27012  -0.063   0.806  10.385 -0.3575  0.0428 -0.1480
  205MOL0     H27013  -0.184   1.022  10.090 -0.5130  0.3235  0.3476
  205MOL0     H27014  -0.314   0.765   9.816 -3.6949  1.2721 -0.6372
  205MOL0     H27015  -0.245   0.917   9.828  1.6878 -3.4197 -2.2068
  205MOL0     H27016  -0.445   0.951   9.759  1.0728 -3.6213 -1.4988
  205MOL0     H27017  -0.472   0.985   9.935  0.1323  0.8852 -0.6609
  205MOL0     H27018  -0.526   0.734   9.758  1.0514  1.0118  0.1679
  205MOL0     H27019  -0.548   0.731   9.927 -1.7674  2.0235  2.1961
  205MOL0     H27020  -0.704   0.928   9.915 -1.9936 -1.7658  1.5209
  205MOL0     H27021  -0.758   0.763   9.879 -0.3696  0.1537 -1.1952
  205MOL0     H27022  -0.753   1.128   9.806 -0.3984  2.3711 -0.4236
  205MOL0     H27023  -0.954   1.264   9.829 -0.3522  0.5601 -1.2605
  205MOL0     H27024  -1.449   1.365   9.681 -0.1717 -0.5600 -0.8166
  205MOL0     H27025  -1.603   1.570   9.749  0.3876  0.0967 -1.8598
  205MOL0     H27026  -1.475   1.920   9.694 -4.7428 -4.2679 -1.8411
  205MOL0     H27027  -1.457   1.966   9.868  0.4849  1.9936 -1.1242
  205MOL0     H27028  -1.667   2.048   9.867 -1.3589 -1.4853  2.0243
  205MOL0     H27029  -1.721   1.905   9.769  1.3881 -1.2080  1.6055
  205MOL0     H27030  -1.669   1.980   9.561 -1.4121 -0.2528 -0.3631
  205MOL0     H27031  -1.572   2.116   9.614  0.4201 -1.0605  1.0994
  205MOL0     H27032  -1.861   2.093   9.698  2.2291 -3.8924 -0.6922
  205MOL0     H27033  -1.772   2.240   9.687 -3.4354  1.3186  0.7496
  205MOL0     H27034  -1.937   2.203   9.488 -0.0601  1.0394  0.1171
  205MOL0     H27035  -1.843   2.051   9.449 -0.1935  0.3106  0.8499
  205MOL0     H27036  -1.663   2.147   9.387 -0.6884 -1.1242  2.2480
  205MOL0     H27037  -1.684   2.302   9.462 -0.3787  1.6931 -0.5274
  205MOL0     H27038  -1.847   2.196   9.213 -0.7391  2.4834 -2.3799
  205MOL0     H27039  -1.904   2.307   9.311 -0.9004 -0.5019 -1.0298
  205MOL0     H27040  -1.784   2.432   9.106 -0.2230  1.0232 -0.3042
  205MOL0     H27041  -1.629   2.373   9.173  1.0471 -0.1382  3.0775
  205MOL0     H27042  -1.271   1.779   9.884  0.6184  0.2686 -1.4551
  205MOL0     H27043  -1.121   1.584   9.860  0.4061  2.8075  0.2583
  205MOL0     H27044  -1.171   0.981   9.594  0.5486 -0.9841 -0.7697
  205MOL0     H27045  -0.954   0.827   9.585  2.3843 -1.1224  1.3240
  205MOL0     H27046  -0.188   1.932  10.422 -1.0832  0.2778 -2.2923
  205MOL0     H27047  -0.111   2.149  10.306  1.4901  2.2125  1.0020
  205MOL0     H27048   0.122   2.352  10.037 -0.6427  1.1674 -0.1320
  205MOL0     H27049   0.161   2.564   9.906 -3.2248 -1.2460 -0.5582
  205MOL0     H27050   0.276   2.923   9.865 -3.0244  0.4983  0.7092
  205MOL0     H27051   0.248   2.744   9.821 -3.9096  1.2581  0.8130
  205MOL0     H27052   0.474   2.836  10.000  1.1068 -1.5746  0.0898
  205MOL0     H27053   0.432   2.681   9.927 -0.1965 -0.7864 -1.9058
  205MOL0     H27054   0.443   2.912   9.744 -2.3514 -1.3908  3.0626
  205MOL0     H27055   0.493   2.744   9.706 -1.8201  0.4503 -0.9921
  205MOL0     H27056   0.678   2.870   9.687  2.2088  0.5920  0.7301
  205MOL0     H27057   0.655   2.944   9.853  1.9698  1.5668 -4.0296
  205MOL0     H27058   0.885   2.607   9.916  1.8237  1.4328  0.4479
  205MOL0     H27059   0.207   2.788  10.261 -1.1167 -0.3688  1.9304
  205MOL0     H27060   0.189   2.571  10.399 -1.1950  0.6332  0.6340
  206MOL0     O27061   0.573   2.694  11.182  0.0653 -0.7789  1.1446
  206MOL0     C27062   0.658   2.782  11.191 -1.1989 -0.0477 -0.2432
  206MOL0     O27063   0.632   2.921  11.198 -0.6463 -0.4969 -0.8641
  206MOL0     C27064   0.517   2.978  11.144 -0.4915  0.3380 -0.5821
  206MOL0     C27065   0.526   3.077  11.042  0.5829  0.6287 -0.3884
  206MOL0     C27066   0.413   3.135  11.004  0.8010 -0.7522 -0.2008
  206MOL0     C27067   0.283   3.101  11.056 -0.0749  0.4918 -0.2205
  206MOL0     O27068   0.165   3.159  10.999  0.0952 -0.6098 -0.0322
  206MOL0     C27069   0.046   3.085  11.001 -0.0193  0.3121  0.9379
  206MOL0     C27070  -0.052   3.140  11.096 -0.3853 -0.0235 -0.1712
  206MOL0     C27071  -0.197   3.090  11.102 -0.3922  0.3005 -0.2418
  206MOL0     C27072  -0.252   3.078  10.966 -0.2271 -0.6282  0.0706
  206MOL0     C27073  -0.407   3.056  10.962  0.2455 -0.1010  0.0134
  206MOL0     C27074  -0.448   3.003  10.829  0.8152 -0.4794  0.4745
  206MOL0     C27075  -0.446   3.124  10.740 -0.3580  0.2070  0.7700
  206MOL0     C27076  -0.577   3.192  10.732 -0.1937 -0.3774  0.4215
  206MOL0     N27077  -0.604   3.243  10.592 -0.5418 -0.0707 -0.2378
  206MOL0     C27078  -0.525   3.332  10.517 -0.4702 -0.0075  0.1890
  206MOL0     C27079  -0.581   3.309  10.394  0.6121  0.9642 -0.4733
  206MOL0     C27080  -0.529   3.362  10.263  0.8313 -0.5345  0.4569
  206MOL0     C27081  -0.501   3.256  10.155 -0.3444  0.5269  1.1238
  206MOL0     C27082  -0.370   3.186  10.183  0.5554 -0.2112  0.2557
  206MOL0     C27083  -0.325   3.070  10.092  0.0017  0.3705  0.6215
  206MOL0     O27084  -0.422   2.967  10.056  0.4766 -0.4522 -0.0195
  206MOL0     C27085  -0.434   2.854  10.147  0.1610  0.3409  0.6009
  206MOL0     C27086  -0.366   2.857  10.275  0.3203  0.3462  0.2624
  206MOL0     C27087  -0.360   2.743  10.343  0.1556  0.6444  0.1090
  206MOL0     C27088  -0.431   2.625  10.312 -1.3918 -0.4918 -0.1645
  206MOL0     C27089  -0.430   2.506  10.398 -0.3123  0.5744  0.8579
  206MOL0     O27090  -0.356   2.504  10.511 -0.4620  0.7844  0.5272
  206MOL0     C27091  -0.357   2.382  10.578  0.2419  0.4110 -0.0245
  206MOL0     C27092  -0.246   2.295  10.587  0.1411  0.0017 -0.1062
  206MOL0     C27093  -0.253   2.163  10.629 -0.3101 -0.1828 -0.4304
  206MOL0     C27094  -0.375   2.101  10.647 -0.2144 -0.8504  0.4653
  206MOL0     O27095  -0.374   1.968  10.677 -0.3522 -0.3892 -0.0140
  206MOL0     C27096  -0.476   1.880  10.631 -1.2494 -0.5134 -0.3208
  206MOL0     C27097  -0.541   1.804  10.741  0.2660 -0.2192 -1.1494
  206MOL0     C27098  -0.455   1.696  10.808 -0.1493 -0.6973 -0.3814
  206MOL0     C27099  -0.546   1.615  10.900  0.1580  0.6153 -1.2201
  206MOL0     C27100  -0.464   1.507  10.984  0.1278 -0.2999 -0.3429
  206MOL0     C27101  -0.559   1.422  11.072  0.2114  0.0233 -0.4722
  206MOL0     C27102  -0.494   1.363  11.198 -0.0879 -0.1104  0.0705
  206MOL0     C27103  -0.567   1.233  11.248  0.5175 -0.9776 -0.3130
  206MOL0    Cl27104  -0.479   1.150  11.374 -0.7537  0.3142  0.0965
  206MOL0     C27105  -0.485   2.180  10.664  0.8339 -0.1693  0.0126
  206MOL0     C27106  -0.476   2.318  10.622 -0.3200  0.2587  0.1919
  206MOL0     O27107  -0.494   2.419  10.351 -0.0669  0.1765  1.1861
  206MOL0     C27108  -0.507   2.633  10.193  0.1257  0.3113 -0.0954
  206MOL0     C27109  -0.500   2.738  10.106  0.6246  0.8267  0.0327
  206MOL0     N27110  -0.691   3.228  10.406  0.4975 -0.3772  0.5602
  206MOL0     N27111  -0.711   3.191  10.526 -0.1653  0.9482  0.9563
  206MOL0     C27112   0.273   3.005  11.166 -0.4589  0.2528 -0.8770
  206MOL0     C27113   0.394   2.945  11.207  0.2808 -0.4090 -1.2625
  206MOL0     C27114   0.798   2.745  11.241  0.1386 -0.9475  0.6762
  206MOL0     C27115   0.887   2.851  11.285  0.1222 -1.0371  0.8786
  206MOL0     C27116   1.015   2.814  11.324 -0.4987 -0.3841  1.3513
  206MOL0     C27117   1.066   2.681  11.308 -0.1928  0.1243 -0.2147
  206MOL0     O27118   1.197   2.632  11.329  0.7331 -0.1416 -0.1242
  206MOL0     C27119   1.295   2.726  11.364 -0.4237  0.6320  0.1385
  206MOL0     C27120   1.430   2.656  11.391  0.4242  0.4615 -0.0262
  206MOL0     C27121   1.533   2.761  11.415 -1.1068 -0.2387  1.0851
  206MOL0     C27122   1.676   2.699  11.431 -0.2168 -0.1747  0.4794
  206MOL0     C27123   1.704   2.599  11.531 -0.3475  0.1968 -0.7920
  206MOL0     C27124   1.721   2.520  11.619  0.3874  0.7319 -0.4065
  206MOL0     C27125   0.972   2.584  11.261  0.2318  0.0509 -0.1435
  206MOL0     C27126   0.839   2.615  11.225  0.2712 -0.9856 -0.4128
  206MOL0     H27127   0.621   3.094  10.992  0.4899  4.7202  0.5156
  206MOL0     H27128   0.409   3.202  10.919 -3.7412 -0.0667  0.3533
  206MOL0     H27129   0.055   2.977  11.015 -0.2707 -0.0336 -1.2429
  206MOL0     H27130   0.005   3.094  10.900 -0.8249 -1.4834  1.0539
  206MOL0     H27131  -0.054   3.245  11.067 -0.2825  0.9684  3.0079
  206MOL0     H27132  -0.006   3.139  11.196 -2.2085 -1.1693  0.7003
  206MOL0     H27133  -0.254   3.138  11.181 -0.2563  1.1289 -0.6338
  206MOL0     H27134  -0.186   2.984  11.128 -2.4088  0.7868  3.0741
  206MOL0     H27135  -0.222   3.167  10.909 -1.0189  0.0596  0.6862
  206MOL0     H27136  -0.192   3.000  10.918  1.0041 -0.4804  1.3119
  206MOL0     H27137  -0.466   3.144  10.986 -1.9496 -1.4410 -0.2270
  206MOL0     H27138  -0.426   2.996  11.051 -1.1137  0.7461  0.3148
  206MOL0     H27139  -0.543   2.950  10.830 -0.8037  2.2277 -0.3696
  206MOL0     H27140  -0.359   2.945  10.801  1.2544  0.0852  0.6672
  206MOL0     H27141  -0.364   3.194  10.761  2.3140 -2.8932  1.6207
  206MOL0     H27142  -0.418   3.082  10.643  3.4197  0.3565  1.6356
  206MOL0     H27143  -0.589   3.271  10.806 -0.1353  0.8835 -0.8701
  206MOL0     H27144  -0.657   3.119  10.747 -0.1763 -0.3237  0.7753
  206MOL0     H27145  -0.440   3.390  10.550 -0.4629 -0.1820  0.4758
  206MOL0     H27146  -0.442   3.428  10.269 -2.0674  3.6434  0.8732
  206MOL0     H27147  -0.612   3.429  10.236  1.7176  0.3961 -0.0330
  206MOL0     H27148  -0.483   3.303  10.058 -0.8165 -1.6150 -0.0666
  206MOL0     H27149  -0.589   3.192  10.149 -2.6712  3.6388 -1.8834
  206MOL0     H27150  -0.295   3.265  10.197 -1.9881  2.3175  0.4830
  206MOL0     H27151  -0.384   3.145  10.284 -0.7658 -1.6065 -0.4566
  206MOL0     H27152  -0.231   3.035  10.136 -0.1245 -1.7113 -0.6244
  206MOL0     H27153  -0.294   3.107   9.994 -0.3268  2.6442  1.3239
  206MOL0     H27154  -0.335   2.954  10.313 -1.9007  1.7520 -1.2903
  206MOL0     H27155  -0.293   2.749  10.428  1.9080  0.7341 -1.2119
  206MOL0     H27156  -0.152   2.330  10.545  0.5643 -0.8349  0.0987
  206MOL0     H27157  -0.161   2.105  10.629 -2.4162 -3.8271 -0.9200
  206MOL0     H27158  -0.429   1.819  10.553  1.5282 -1.1467  1.6603
  206MOL0     H27159  -0.549   1.940  10.578  0.8701  2.1952 -0.3762
  206MOL0     H27160  -0.625   1.755  10.692  0.8560 -1.9068 -0.5345
  206MOL0     H27161  -0.561   1.866  10.829  2.1443  1.0225 -1.5228
  206MOL0     H27162  -0.373   1.738  10.866 -0.8879 -1.3484  1.1986
  206MOL0     H27163  -0.414   1.632  10.729  0.9941  0.8209 -1.0720
  206MOL0     H27164  -0.600   1.686  10.963  2.6470  1.5302  0.0216
  206MOL0     H27165  -0.616   1.559  10.837  0.9930 -0.5584 -1.1534
  206MOL0     H27166  -0.384   1.549  11.045  0.8279 -3.4844  1.1754
  206MOL0     H27167  -0.420   1.430  10.920  0.2609  0.0808 -0.7174
  206MOL0     H27168  -0.599   1.342  11.010 -2.0643 -0.5478  1.5694
  206MOL0     H27169  -0.643   1.483  11.106  1.7217  1.6445  0.5827
  206MOL0     H27170  -0.392   1.333  11.173  0.9710  2.6263  0.7616
  206MOL0     H27171  -0.494   1.444  11.271  1.9443  4.5296 -4.5122
  206MOL0     H27172  -0.587   1.162  11.166  1.8092 -1.0735 -0.5659
  206MOL0     H27173  -0.663   1.267  11.288  1.7736  3.0283 -0.2879
  206MOL0     H27174  -0.575   2.129  10.696  0.0353  0.5257 -1.0674
  206MOL0     H27175  -0.550   2.397  10.628  0.6828  1.1863  0.8939
  206MOL0     H27176  -0.562   2.547  10.155 -1.3952  1.1570  0.1191
  206MOL0     H27177  -0.524   2.728  10.001  1.0886 -1.9914  0.1143
  206MOL0     H27178   0.182   2.980  11.218  0.3059  2.5500  1.8383
  206MOL0     H27179   0.391   2.882  11.295 -0.6117  1.4784  0.1485
  206MOL0     H27180   0.871   2.958  11.293  3.5853 -0.3949  1.0303
  206MOL0     H27181   1.085   2.894  11.346  0.6336 -0.0019 -2.7995
  206MOL0     H27182   1.269   2.781  11.455  1.2850  2.1323 -0.2168
  206MOL0     H27183   1.302   2.807  11.290 -3.1787 -0.6381 -1.6697
  206MOL0     H27184   1.427   2.587  11.476 -1.5282  0.1628 -0.2770
  206MOL0     H27185   1.458   2.599  11.303 -2.3417  0.4383 -0.9910
  206MOL0     H27186   1.506   2.811  11.509 -2.0263  2.0908 -0.3202
  206MOL0     H27187   1.538   2.827  11.328  1.0408 -0.7421  0.7614
  206MOL0     H27188   1.713   2.660  11.336 -0.4740 -2.4772  1.2724
  206MOL0     H27189   1.747   2.780  11.451  0.3422 -0.8595  1.3482
  206MOL0     H27190   1.740   2.440  11.688 -0.5856 -1.4714 -2.5273
  206MOL0     H27191   0.997   2.481  11.237 -1.6954 -0.6550  0.7159
  206MOL0     H27192   0.775   2.537  11.184  1.5495 -3.4403  1.9760
  207MOL0     O27193   7.433   7.811   2.974  0.4159  0.2807 -0.0501
  207MOL0     C27194   7.427   7.818   3.096  0.1965  0.4343 -0.2472
  207MOL0     O27195   7.484   7.919   3.168  0.4502  1.1441  0.7440
  207MOL0     C27196   7.529   8.031   3.105 -1.0399  0.5473  0.6409
  207MOL0     C27197   7.491   8.154   3.151  0.5497 -0.7117  0.5915
  207MOL0     C27198   7.533   8.269   3.082  0.4138  0.3824  0.5902
  207MOL0     C27199   7.602   8.261   2.959 -0.2479 -0.3527 -0.7278
  207MOL0     O27200   7.634   8.379   2.910 -0.0478 -0.6457 -0.0290
  207MOL0     C27201   7.722   8.388   2.793  0.3522  0.8146 -0.5542
  207MOL0     C27202   7.734   8.535   2.750  0.3043  0.0677 -0.7116
  207MOL0     C27203   7.819   8.613   2.851  0.2609  0.6926  0.4886
  207MOL0     C27204   7.836   8.761   2.813  0.1981  0.0735  0.2875
  207MOL0     C27205   7.722   8.864   2.827  0.2681 -1.1713  0.3806
  207MOL0     C27206   7.680   8.893   2.978 -0.2535  0.8079 -0.9794
  207MOL0     C27207   7.597   9.029   2.985 -0.0553  0.6573 -0.6866
  207MOL0     C27208   7.486   9.018   3.099 -0.1585 -0.3683  0.1487
  207MOL0     N27209   7.540   8.994   3.241 -0.0961 -0.1197 -0.3002
  207MOL0     C27210   7.527   8.872   3.304  0.3079 -0.3137 -0.7964
  207MOL0     C27211   7.574   8.893   3.430 -0.0265  0.0401 -0.0372
  207MOL0     C27212   7.582   8.788   3.541  0.3107  0.8032 -0.3137
  207MOL0     C27213   7.474   8.790   3.640 -0.1276 -0.7255 -0.1253
  207MOL0     C27214   7.426   8.638   3.660 -0.6306  0.7191  0.3091
  207MOL0     C27215   7.356   8.628   3.799 -0.3195  0.1294 -0.1779
  207MOL0     O27216   7.460   8.611   3.902  0.2144 -0.2396  0.6948
  207MOL0     C27217   7.411   8.571   4.023  0.3328  0.3329  0.3751
  207MOL0     C27218   7.494   8.496   4.109 -0.3310  0.5857 -0.2627
  207MOL0     C27219   7.448   8.438   4.230  0.0471 -0.5317 -0.5573
  207MOL0     C27220   7.310   8.464   4.268 -0.1977  0.9191 -0.8369
  207MOL0     C27221   7.246   8.401   4.383  0.7347  0.0591  0.7625
  207MOL0     O27222   7.116   8.422   4.406  1.9032  0.1021  0.7322
  207MOL0     C27223   7.028   8.335   4.481 -0.6187 -0.6012 -0.4682
  207MOL0     C27224   6.886   8.377   4.495  0.1308 -0.3732  0.3406
  207MOL0     C27225   6.799   8.313   4.586  0.3467 -0.6728  0.3997
  207MOL0     C27226   6.842   8.198   4.656 -0.5385 -0.7682  0.5852
  207MOL0     O27227   6.751   8.131   4.742  0.1525 -0.5423  0.0440
  207MOL0     C27228   6.614   8.106   4.701  0.4774  0.5967 -0.4243
  207MOL0     C27229   6.565   8.011   4.808 -0.1356 -0.5899 -0.5061
  207MOL0     C27230   6.414   8.015   4.816  0.4948  1.1972 -0.1721
  207MOL0     C27231   6.350   7.972   4.684 -0.8384 -0.2526  0.1172
  207MOL0     C27232   6.202   7.939   4.694 -0.0660  0.3419  0.6828
  207MOL0     C27233   6.104   8.056   4.690 -0.3119 -0.7536  0.4485
  207MOL0     C27234   5.962   8.009   4.695 -0.0432 -0.1398 -0.1602
  207MOL0     C27235   5.907   7.941   4.569  0.5004 -1.0372 -0.4507
  207MOL0    Cl27236   5.758   7.845   4.624  0.1172  0.0064 -0.3140
  207MOL0     C27237   6.984   8.170   4.662  0.2581 -0.7626 -0.4134
  207MOL0     C27238   7.070   8.231   4.568  0.6086 -0.6318 -0.2059
  207MOL0     O27239   7.329   8.347   4.464  0.4148  0.3896 -0.2111
  207MOL0     C27240   7.232   8.548   4.189  0.0802  0.4336 -0.6903
  207MOL0     C27241   7.279   8.603   4.072 -0.8819 -0.0904  0.4843
  207MOL0     N27242   7.615   9.033   3.441 -0.6635  0.6033 -0.2571
  207MOL0     N27243   7.600   9.088   3.326  0.8937  0.6778 -0.1568
  207MOL0     C27244   7.647   8.135   2.918 -0.3512 -0.1748  0.5816
  207MOL0     C27245   7.618   8.021   2.996  0.2937 -0.8074  0.5591
  207MOL0     C27246   7.355   7.703   3.170  0.3188 -0.9936 -0.0991
  207MOL0     C27247   7.304   7.598   3.087  0.3506  0.8077 -0.1286
  207MOL0     C27248   7.248   7.487   3.146  0.6512  0.2147 -0.3323
  207MOL0     C27249   7.257   7.469   3.286 -1.2238 -0.3254 -0.2414
  207MOL0     O27250   7.205   7.365   3.355 -0.0479 -0.0014 -0.3868
  207MOL0     C27251   7.087   7.308   3.297 -0.4862  0.0636 -1.0291
  207MOL0     C27252   6.969   7.406   3.287  0.9679 -0.3355 -0.6351
  207MOL0     C27253   6.939   7.471   3.425  0.6634  0.2927  0.2849
  207MOL0     C27254   6.804   7.537   3.434  0.6407 -0.1271  0.1825
  207MOL0     C27255   6.803   7.661   3.353  1.0987  0.6193  0.0110
  207MOL0     C27256   6.817   7.761   3.286 -0.1384  0.0324 -0.1609
  207MOL0     C27257   7.308   7.576   3.362  0.0767 -0.2440  0.1671
  207MOL0     C27258   7.361   7.693   3.309  1.0637  0.3299 -0.6506
  207MOL0     H27259   7.408   8.161   3.221 -0.6892 -3.2605 -0.5032
  207MOL0     H27260   7.492   8.363   3.116 -0.9515 -1.0883  3.3609
  207MOL0     H27261   7.676   8.330   2.713 -0.3682  3.1338 -1.9276
  207MOL0     H27262   7.823   8.352   2.816  0.6958  0.3304 -2.6264
  207MOL0     H27263   7.632   8.574   2.747  0.9713  1.9122 -0.6726
  207MOL0     H27264   7.785   8.546   2.654  0.4285 -1.0206 -0.7808
  207MOL0     H27265   7.918   8.566   2.853  0.4198  1.0106  0.1782
  207MOL0     H27266   7.769   8.612   2.948 -1.0317 -0.9886 -0.1350
  207MOL0     H27267   7.922   8.806   2.864  0.9004 -0.6944 -0.1890
  207MOL0     H27268   7.853   8.754   2.706  3.3337  1.9029  0.5434
  207MOL0     H27269   7.627   8.839   2.779  1.1138  1.7963 -3.3187
  207MOL0     H27270   7.753   8.955   2.775  1.5687 -2.3263 -0.9403
  207MOL0     H27271   7.769   8.903   3.041 -1.1742 -0.7249  0.6195
  207MOL0     H27272   7.620   8.805   3.001  0.1276  0.9415  0.6369
  207MOL0     H27273   7.661   9.116   3.002  1.1102 -0.1407 -0.9111
  207MOL0     H27274   7.548   9.044   2.888 -0.2106 -2.5667 -1.2230
  207MOL0     H27275   7.430   8.926   3.076  0.8728 -0.9800 -0.0008
  207MOL0     H27276   7.415   9.101   3.101 -0.2045 -0.0895 -4.0116
  207MOL0     H27277   7.480   8.785   3.260 -0.2479  1.4556 -4.0165
  207MOL0     H27278   7.667   8.819   3.602  0.0837 -3.6246  2.7570
  207MOL0     H27279   7.602   8.689   3.499 -0.5193 -2.1036  5.2509
  207MOL0     H27280   7.390   8.848   3.600 -0.6650 -2.1067 -1.0669
  207MOL0     H27281   7.508   8.831   3.736 -1.3816  2.5818 -0.9659
  207MOL0     H27282   7.348   8.612   3.588 -3.5952  0.6461  3.3304
  207MOL0     H27283   7.514   8.573   3.655 -2.0001 -1.8013  4.4632
  207MOL0     H27284   7.287   8.543   3.795  2.3369 -2.1406 -2.1037
  207MOL0     H27285   7.292   8.715   3.809 -1.1070 -0.4750  0.1395
  207MOL0     H27286   7.598   8.477   4.087 -0.5080 -0.7945 -0.0409
  207MOL0     H27287   7.505   8.374   4.296 -1.8953 -0.5439  1.2163
  207MOL0     H27288   6.858   8.465   4.436  1.9814  2.0371  2.8100
  207MOL0     H27289   6.700   8.353   4.602  1.7568  2.6836  1.6414
  207MOL0     H27290   6.611   8.061   4.601 -0.2241  3.0804 -1.5892
  207MOL0     H27291   6.555   8.198   4.700 -1.2730 -0.3957 -3.6059
  207MOL0     H27292   6.605   8.043   4.905 -1.8071 -0.2789  0.1101
  207MOL0     H27293   6.608   7.914   4.783  1.9652 -0.0871  0.8771
  207MOL0     H27294   6.382   8.118   4.831 -0.8671  0.5939  1.4497
  207MOL0     H27295   6.382   7.944   4.893  4.0975 -0.6315 -0.1630
  207MOL0     H27296   6.358   8.056   4.614  1.9669 -2.2326 -2.1901
  207MOL0     H27297   6.409   7.886   4.651  1.7093  0.9123  1.4085
  207MOL0     H27298   6.186   7.873   4.779  1.4609 -0.6859  0.2055
  207MOL0     H27299   6.185   7.870   4.612  0.2819  0.3331  0.6157
  207MOL0     H27300   6.123   8.115   4.600  0.8593  0.7846  1.6515
  207MOL0     H27301   6.127   8.122   4.773  3.6292 -2.9324  1.3745
  207MOL0     H27302   5.953   7.950   4.787  2.1014 -0.0195  0.1866
  207MOL0     H27303   5.894   8.093   4.709  0.5456  0.1985  0.7519
  207MOL0     H27304   5.987   7.885   4.519  0.7692 -1.4756  0.4526
  207MOL0     H27305   5.869   8.021   4.504  0.4469  2.5308  3.5433
  207MOL0     H27306   7.013   8.077   4.710 -0.9703 -0.9756 -0.0400
  207MOL0     H27307   7.174   8.211   4.592  0.5776 -0.7966 -0.2100
  207MOL0     H27308   7.130   8.565   4.224  0.9434  0.7150  1.9310
  207MOL0     H27309   7.216   8.668   4.012 -1.6575  0.0821  1.4626
  207MOL0     H27310   7.714   8.116   2.834 -3.2315 -0.0695 -1.8916
  207MOL0     H27311   7.663   7.927   2.965 -0.9861 -1.1288 -0.4023
  207MOL0     H27312   7.298   7.608   2.979  1.7075 -0.6979 -0.3775
  207MOL0     H27313   7.206   7.411   3.080  0.1719  1.2753 -1.2788
  207MOL0     H27314   7.058   7.223   3.360 -0.6375  1.6813  1.2024
  207MOL0     H27315   7.108   7.267   3.198  1.4071 -0.3189 -0.4979
  207MOL0     H27316   6.993   7.480   3.210  0.5237  0.6749  0.1831
  207MOL0     H27317   6.888   7.344   3.249  2.2506 -3.0984  0.8387
  207MOL0     H27318   7.008   7.552   3.451  0.8095 -0.7495  3.7577
  207MOL0     H27319   6.955   7.392   3.499 -0.9135 -1.1853 -0.8982
  207MOL0     H27320   6.724   7.468   3.405  1.8212 -2.0439  1.2698
  207MOL0     H27321   6.796   7.569   3.538  2.4867  0.7586  0.0926
  207MOL0     H27322   6.822   7.852   3.230  3.6889  0.1460  0.0572
  207MOL0     H27323   7.321   7.561   3.469  0.4020 -0.9207  0.0376
  207MOL0     H27324   7.407   7.775   3.363 -0.4844  0.8690 -0.1105
  208MOL0     O27325  10.174   5.875   4.692 -0.0297  1.0197 -0.0221
  208MOL0     C27326  10.160   5.780   4.760  0.4426 -0.1998 -0.1774
  208MOL0     O27327  10.175   5.646   4.716  0.3189  0.0133  0.3714
  208MOL0     C27328  10.194   5.637   4.574  0.4330 -0.1964 -1.2272
  208MOL0     C27329  10.325   5.627   4.526 -0.0203  0.8825 -0.3112
  208MOL0     C27330  10.353   5.619   4.392 -0.3540  0.1787  0.0756
  208MOL0     C27331  10.253   5.619   4.294 -0.5162 -0.7656  0.6433
  208MOL0     O27332  10.306   5.599   4.167  0.3942  0.7160  0.5135
  208MOL0     C27333  10.211   5.579   4.062 -0.0543 -0.2656 -0.3835
  208MOL0     C27334  10.165   5.723   4.017 -0.6244 -0.3199 -0.2027
  208MOL0     C27335  10.254   5.785   3.916 -0.5083  0.1200  0.0557
  208MOL0     C27336  10.225   5.939   3.910  0.8576 -0.1608 -0.1674
  208MOL0     C27337  10.287   6.005   3.782 -0.0363  0.2496 -0.4057
  208MOL0     C27338  10.277   6.163   3.803 -0.0893  1.1863 -0.4277
  208MOL0     C27339  10.146   6.220   3.751 -0.1006  0.4063  0.1715
  208MOL0     C27340  10.149   6.377   3.746  0.0067  0.1787 -0.3675
  208MOL0     N27341  10.256   6.430   3.651 -0.2638  0.2042 -0.4934
  208MOL0     C27342  10.222   6.445   3.518  0.2831 -0.0951  0.6194
  208MOL0     C27343  10.334   6.494   3.462 -0.2994 -0.4927 -0.4902
  208MOL0     C27344  10.334   6.570   3.327 -0.1277 -0.5000  0.2277
  208MOL0     C27345  10.450   6.523   3.236 -0.4111  0.9045  0.7914
  208MOL0     C27346  10.406   6.396   3.160 -0.3539 -0.3550  0.1741
  208MOL0     C27347  10.511   6.343   3.061 -0.1297  0.5125 -0.2732
  208MOL0     O27348  10.607   6.268   3.134  0.0340 -0.5059 -1.0020
  208MOL0     C27349  10.713   6.255   3.062 -0.8925 -0.4790  0.5156
  208MOL0     C27350  10.832   6.290   3.123 -0.5236  0.6293 -0.8166
  208MOL0     C27351  10.952   6.275   3.057  0.7940 -0.2075  1.8743
  208MOL0     C27352  10.956   6.226   2.923  0.5724  0.3938 -0.1723
  208MOL0     C27353  11.083   6.218   2.846  0.0297 -0.3667 -0.3388
  208MOL0     O27354  11.078   6.169   2.722 -0.0358 -0.6609 -0.8104
  208MOL0     C27355  11.188   6.159   2.641 -0.3945  0.1521 -0.1888
  208MOL0     C27356  11.158   6.176   2.509 -0.7062 -0.2942  0.8741
  208MOL0     C27357  11.245   6.134   2.411  0.8769 -0.1223  0.5894
  208MOL0     C27358  11.369   6.087   2.442  0.1768  0.6483 -0.2320
  208MOL0     O27359  11.451   6.032   2.345  0.3559 -0.6581  0.5885
  208MOL0     C27360  11.465   6.087   2.210 -0.0012 -0.0459 -0.3978
  208MOL0     C27361  11.375   6.007   2.128  0.1450 -0.5209  0.1392
  208MOL0     C27362  11.368   6.055   1.980  0.0069  0.0249  0.1673
  208MOL0     C27363  11.295   6.188   1.949 -1.5109  0.1335 -1.4177
  208MOL0     C27364  11.320   6.218   1.800 -0.1824 -0.3863  0.3791
  208MOL0     C27365  11.331   6.369   1.779 -0.0831  0.0350  0.7894
  208MOL0     C27366  11.355   6.410   1.622 -0.1346 -0.2807 -0.3225
  208MOL0     C27367  11.242   6.495   1.573  0.2869 -1.0800  0.8816
  208MOL0    Cl27368  11.104   6.405   1.522  0.4963  0.3694 -0.4031
  208MOL0     C27369  11.408   6.074   2.581  0.2751 -0.6201 -0.4898
  208MOL0     C27370  11.317   6.110   2.684  1.0076 -0.2937 -0.1994
  208MOL0     O27371  11.180   6.265   2.903 -0.2819  0.6985 -0.1524
  208MOL0     C27372  10.835   6.185   2.862  0.6339  0.3889  0.6661
  208MOL0     C27373  10.718   6.197   2.933  0.2646 -0.1691 -0.2533
  208MOL0     N27374  10.431   6.506   3.554 -0.0123 -0.7910  0.3370
  208MOL0     N27375  10.388   6.468   3.669 -0.2874 -0.3211 -0.1668
  208MOL0     C27376  10.119   5.629   4.346  0.3473 -0.3763  1.0462
  208MOL0     C27377  10.091   5.641   4.481  0.2577 -0.0775 -0.5177
  208MOL0     C27378  10.124   5.798   4.899 -0.8613 -0.6489  0.3182
  208MOL0     C27379  10.100   5.920   4.958  1.0287 -0.4934 -0.4144
  208MOL0     C27380  10.069   5.937   5.095  0.1707  0.5450  1.1297
  208MOL0     C27381  10.049   5.836   5.180 -0.1643  0.3176 -0.0596
  208MOL0     O27382  10.045   5.856   5.311 -0.0331 -0.0949  0.2477
  208MOL0     C27383  10.139   5.952   5.376  0.5713  0.4733  1.0533
  208MOL0     C27384  10.051   6.066   5.424  0.3387 -1.6565  0.0114
  208MOL0     C27385  10.132   6.197   5.439  0.3575 -0.3444  0.3461
  208MOL0     C27386  10.120   6.299   5.323 -1.2963  0.3905  0.4994
  208MOL0     C27387  10.206   6.261   5.209  0.2443  0.7779  0.5707
  208MOL0     C27388  10.267   6.203   5.121 -0.4346 -0.7062 -0.3055
  208MOL0     C27389  10.072   5.713   5.125 -0.6918 -0.1449 -0.3368
  208MOL0     C27390  10.100   5.691   4.996  0.0644 -0.4706  0.1031
  208MOL0     H27391  10.403   5.607   4.599 -1.5394  1.6829  1.6575
  208MOL0     H27392  10.454   5.624   4.353 -0.3325 -0.2332  0.0743
  208MOL0     H27393  10.125   5.517   4.092  2.6833 -4.1675  0.1728
  208MOL0     H27394  10.249   5.535   3.970  2.2352 -0.1523  0.4492
  208MOL0     H27395  10.166   5.787   4.106 -2.9895 -1.4545  0.7447
  208MOL0     H27396  10.061   5.730   3.982 -1.1278  5.0382  1.4920
  208MOL0     H27397  10.241   5.734   3.820  1.0363  0.7043 -0.5017
  208MOL0     H27398  10.358   5.776   3.948 -0.3736  1.3768  0.0257
  208MOL0     H27399  10.118   5.957   3.920  0.7839  1.6801 -3.0093
  208MOL0     H27400  10.274   5.981   3.998 -0.9302  0.4304  0.5819
  208MOL0     H27401  10.219   5.970   3.703 -0.0842 -4.7996  1.4719
  208MOL0     H27402  10.392   5.977   3.766  0.2932  0.8080  0.6984
  208MOL0     H27403  10.364   6.214   3.760  0.0364  0.3027 -1.2518
  208MOL0     H27404  10.283   6.182   3.910  0.1654  1.2619 -0.4544
  208MOL0     H27405  10.121   6.179   3.653 -1.5226 -0.7127  0.9656
  208MOL0     H27406  10.065   6.187   3.817 -0.7787  2.1659  0.2658
  208MOL0     H27407  10.178   6.416   3.844 -0.5016 -0.3261 -0.0084
  208MOL0     H27408  10.058   6.432   3.722  0.2907 -0.1193 -2.3299
  208MOL0     H27409  10.118   6.425   3.492  0.0567 -0.3932  1.7203
  208MOL0     H27410  10.358   6.675   3.350 -0.7618 -0.2147 -0.3696
  208MOL0     H27411  10.237   6.569   3.277  0.5531  3.5658 -1.5664
  208MOL0     H27412  10.539   6.510   3.299  0.6372  0.1799 -0.7814
  208MOL0     H27413  10.475   6.604   3.167 -0.6997  0.0032 -0.3976
  208MOL0     H27414  10.379   6.322   3.236 -2.0843  1.0915  1.0324
  208MOL0     H27415  10.321   6.428   3.100 -0.3634  1.3591  1.0513
  208MOL0     H27416  10.557   6.417   2.995  3.9851  0.4579  2.1883
  208MOL0     H27417  10.463   6.274   2.991 -1.0048  0.8881 -0.0501
  208MOL0     H27418  10.816   6.335   3.221 -1.6786 -0.2634 -0.5698
  208MOL0     H27419  11.042   6.309   3.109  1.0134  0.2593  1.2145
  208MOL0     H27420  11.064   6.210   2.466  0.3722 -0.6693 -2.0524
  208MOL0     H27421  11.216   6.148   2.307  0.5419 -2.5536  0.3038
  208MOL0     H27422  11.568   6.061   2.184  0.5682  2.0497 -0.4028
  208MOL0     H27423  11.444   6.194   2.195 -2.9951 -0.9676 -4.6036
  208MOL0     H27424  11.273   6.009   2.168 -0.3817 -0.9015 -1.1442
  208MOL0     H27425  11.402   5.901   2.133 -2.1543 -1.1110  1.6014
  208MOL0     H27426  11.306   5.981   1.929 -2.2863  1.0461  1.2834
  208MOL0     H27427  11.471   6.045   1.946  0.2874  1.9803  0.2920
  208MOL0     H27428  11.190   6.180   1.977 -0.9472 -0.7161  0.7287
  208MOL0     H27429  11.344   6.269   2.004 -1.5802  1.2437 -2.9461
  208MOL0     H27430  11.239   6.172   1.744 -1.5563  1.9635  0.3115
  208MOL0     H27431  11.413   6.175   1.761  0.8032  3.6336 -2.2804
  208MOL0     H27432  11.406   6.406   1.849  0.2475 -1.6365  1.3799
  208MOL0     H27433  11.233   6.414   1.798  0.0733  1.3877 -1.3457
  208MOL0     H27434  11.439   6.481   1.615  0.6811 -1.2602 -0.7375
  208MOL0     H27435  11.375   6.327   1.554 -1.6312 -1.9281  1.1549
  208MOL0     H27436  11.273   6.533   1.475  1.3246 -5.0295 -0.5172
  208MOL0     H27437  11.210   6.573   1.642 -1.7031  1.0400 -2.1463
  208MOL0     H27438  11.509   6.042   2.605  0.3918  1.0780  1.5115
  208MOL0     H27439  11.325   6.099   2.791  1.2236 -0.6183 -0.2467
  208MOL0     H27440  10.838   6.149   2.759  4.5177 -0.2271  0.8340
  208MOL0     H27441  10.626   6.163   2.888  0.2081 -1.4651  0.7830
  208MOL0     H27442  10.033   5.632   4.281 -0.3069  2.3751  1.9475
  208MOL0     H27443   9.991   5.639   4.522  0.3929  0.0154 -0.1849
  208MOL0     H27444  10.109   6.010   4.898  1.6346 -1.4795 -1.8301
  208MOL0     H27445  10.047   6.037   5.132 -1.9947 -0.2705  2.2495
  208MOL0     H27446  10.212   5.987   5.302 -0.0696 -1.7237 -0.7210
  208MOL0     H27447  10.195   5.916   5.463 -0.8849 -3.3661  0.5757
  208MOL0     H27448   9.967   6.082   5.355 -0.2233 -2.0255  0.6057
  208MOL0     H27449  10.022   6.035   5.524  2.6971  1.4158  1.8469
  208MOL0     H27450  10.238   6.173   5.455  0.1703 -1.7688 -0.3990
  208MOL0     H27451  10.102   6.258   5.525  1.9748  0.6322  0.2778
  208MOL0     H27452  10.020   6.304   5.278  0.0585 -0.0141 -2.8860
  208MOL0     H27453  10.173   6.390   5.351  2.9005 -2.1424  1.7343
  208MOL0     H27454  10.325   6.182   5.034  2.1988  3.9288  0.0057
  208MOL0     H27455  10.061   5.621   5.181 -1.0176 -0.6021 -1.1502
  208MOL0     H27456  10.103   5.593   4.950 -1.2618 -1.6701  2.4023
  209MOL0     O27457   0.193   7.297   4.906  0.3655 -0.7277 -1.0715
  209MOL0     C27458   0.076   7.272   4.876 -0.9629 -0.4921 -0.7657
  209MOL0     O27459   0.037   7.243   4.749  0.0497  0.5941  0.2782
  209MOL0     C27460   0.129   7.254   4.643  0.1429 -0.9530  0.3282
  209MOL0     C27461   0.118   7.368   4.559 -0.4866 -0.4021  0.8417
  209MOL0     C27462   0.185   7.363   4.434  0.1521  0.0973  0.5025
  209MOL0     C27463   0.260   7.252   4.391 -0.3787 -0.7446 -0.7293
  209MOL0     O27464   0.308   7.252   4.263 -0.0407 -0.0460 -1.5214
  209MOL0     C27465   0.240   7.182   4.170  0.5397 -0.3260  0.1560
  209MOL0     C27466   0.302   7.206   4.037 -0.9717  0.9599 -0.2048
  209MOL0     C27467   0.456   7.186   4.019  0.7185  1.0290 -0.1564
  209MOL0     C27468   0.511   7.063   4.088  0.5779 -0.2915  0.1701
  209MOL0     C27469   0.471   6.940   4.005 -0.2294 -0.0420  0.4953
  209MOL0     C27470   0.550   6.819   4.064  0.4919 -0.4925 -0.1255
  209MOL0     C27471   0.504   6.685   3.993  0.1168 -0.0177 -0.3345
  209MOL0     C27472   0.600   6.567   4.029 -0.1292 -0.7957  0.8266
  209MOL0     N27473   0.551   6.464   3.932 -0.6371  0.2893 -0.6777
  209MOL0     C27474   0.425   6.412   3.930 -0.4683 -1.1228 -0.4088
  209MOL0     C27475   0.412   6.353   3.809 -0.3105  0.8427  0.3636
  209MOL0     C27476   0.280   6.286   3.769  0.2190  0.6973  0.0207
  209MOL0     C27477   0.239   6.176   3.874 -0.2336 -0.0367  0.3309
  209MOL0     C27478   0.130   6.080   3.820 -0.0271 -0.2822 -0.7833
  209MOL0     C27479   0.075   6.008   3.938 -0.3227 -0.2181  0.1910
  209MOL0     O27480   0.159   5.886   3.963  0.6738  0.0150  0.4325
  209MOL0     C27481   0.104   5.799   4.048  0.0714 -0.6921 -1.1839
  209MOL0     C27482   0.194   5.742   4.139 -0.8548 -0.5737  0.6531
  209MOL0     C27483   0.151   5.650   4.234 -0.4831  0.1142  0.7968
  209MOL0     C27484   0.010   5.612   4.240 -0.1185 -0.1669  0.3124
  209MOL0     C27485  -0.040   5.525   4.346 -0.9276 -0.4466  0.1035
  209MOL0     O27486  -0.154   5.460   4.311 -0.2701 -0.4538  0.5981
  209MOL0     C27487  -0.219   5.378   4.391 -0.1297 -0.4870 -0.3903
  209MOL0     C27488  -0.353   5.368   4.373  0.1091  0.1488  1.1816
  209MOL0     C27489  -0.432   5.292   4.464 -0.0213  0.2400  1.2833
  209MOL0     C27490  -0.376   5.200   4.548  0.0200  0.1598 -0.2534
  209MOL0     O27491  -0.448   5.122   4.636 -0.2325  0.6928  1.3691
  209MOL0     C27492  -0.381   5.031   4.722 -0.5015  0.2787 -0.1140
  209MOL0     C27493  -0.494   4.974   4.806 -0.6297 -0.5023 -0.5287
  209MOL0     C27494  -0.448   4.871   4.911 -0.2011  0.1247 -0.7496
  209MOL0     C27495  -0.563   4.809   4.988  1.2127  0.2142  0.1421
  209MOL0     C27496  -0.535   4.711   5.101  0.5857  0.6190  0.2412
  209MOL0     C27497  -0.465   4.583   5.059  0.2609  0.3710  0.6346
  209MOL0     C27498  -0.389   4.519   5.179 -0.5194  0.4691  0.9064
  209MOL0     C27499  -0.481   4.473   5.280  0.3071  1.4222 -0.6459
  209MOL0    Cl27500  -0.565   4.329   5.203 -0.5198  0.6145 -0.6539
  209MOL0     C27501  -0.236   5.208   4.568  0.4106  0.3916 -1.0894
  209MOL0     C27502  -0.157   5.292   4.491  0.0841  0.4396  0.2553
  209MOL0     O27503   0.014   5.528   4.461  0.1898 -0.1561  0.1825
  209MOL0     C27504  -0.078   5.661   4.147  0.0043 -0.6738  0.5010
  209MOL0     C27505  -0.029   5.759   4.062 -0.6509 -0.9015  0.2122
  209MOL0     N27506   0.537   6.349   3.746  0.2569  0.6588 -0.3965
  209MOL0     N27507   0.617   6.427   3.821 -0.3531  0.8930 -0.8511
  209MOL0     C27508   0.274   7.145   4.480 -0.8142 -0.4554 -0.2944
  209MOL0     C27509   0.208   7.141   4.605  0.2614  0.5083  0.2221
  209MOL0     C27510  -0.037   7.313   4.962  0.0881  0.1442 -0.1677
  209MOL0     C27511  -0.172   7.318   4.909  0.2700 -0.1082 -0.1491
  209MOL0     C27512  -0.283   7.352   4.986 -0.3793  0.3858 -0.8420
  209MOL0     C27513  -0.267   7.366   5.133 -0.5025 -0.2277 -0.6904
  209MOL0     O27514  -0.359   7.393   5.238  0.0287 -0.1533 -0.4607
  209MOL0     C27515  -0.490   7.417   5.188  0.1302  0.6198  0.7147
  209MOL0     C27516  -0.588   7.424   5.298 -0.5040  0.2799 -0.2994
  209MOL0     C27517  -0.724   7.477   5.244  0.4448  0.1665  0.1998
  209MOL0     C27518  -0.786   7.375   5.140 -0.9480 -0.0628  0.3419
  209MOL0     C27519  -0.901   7.430   5.077 -0.2918 -0.1280  0.0183
  209MOL0     C27520  -1.000   7.474   5.023 -0.0247  0.8844  0.1375
  209MOL0     C27521  -0.137   7.363   5.179  0.4267 -0.0733 -0.6562
  209MOL0     C27522  -0.028   7.343   5.099  0.1674  0.1534 -0.2470
  209MOL0     H27523   0.065   7.460   4.584 -0.2844  0.4241 -1.4866
  209MOL0     H27524   0.173   7.452   4.374  2.1173 -0.1789 -0.3693
  209MOL0     H27525   0.141   7.230   4.164 -0.1140 -1.8009 -1.7927
  209MOL0     H27526   0.237   7.076   4.195  2.7396 -0.8927 -1.6804
  209MOL0     H27527   0.280   7.304   3.995  0.4787  0.4623 -2.2558
  209MOL0     H27528   0.270   7.125   3.971  0.9489  2.2857 -2.9661
  209MOL0     H27529   0.502   7.277   4.060  0.3034  1.5570 -0.8317
  209MOL0     H27530   0.486   7.186   3.914 -0.1170 -0.5050 -0.4228
  209MOL0     H27531   0.619   7.079   4.096  0.4723  0.2588  0.5693
  209MOL0     H27532   0.467   7.065   4.188  0.4003  1.0699  0.0884
  209MOL0     H27533   0.504   6.961   3.903 -3.0165  0.8459 -0.3275
  209MOL0     H27534   0.367   6.905   4.007 -0.8225  1.6538  0.8290
  209MOL0     H27535   0.537   6.802   4.171 -0.7174 -2.9288 -0.5920
  209MOL0     H27536   0.657   6.831   4.046  0.1115  2.7390 -1.0202
  209MOL0     H27537   0.397   6.666   4.004 -0.1183  1.9682  1.4894
  209MOL0     H27538   0.512   6.701   3.885  0.3854  0.4543 -0.2471
  209MOL0     H27539   0.581   6.528   4.129 -1.1787 -0.8341  0.6272
  209MOL0     H27540   0.706   6.588   4.014  0.4631 -4.2651 -0.9370
  209MOL0     H27541   0.355   6.436   4.010 -1.7853 -1.5934 -1.3948
  209MOL0     H27542   0.299   6.236   3.674  1.9344 -2.0300  1.6676
  209MOL0     H27543   0.211   6.370   3.764 -0.5095  0.0255 -1.7991
  209MOL0     H27544   0.208   6.214   3.971 -1.2029 -0.9532  0.4029
  209MOL0     H27545   0.333   6.121   3.887 -0.2055 -0.5825 -1.6808
  209MOL0     H27546   0.061   6.142   3.761  0.9767  0.9285 -0.7366
  209MOL0     H27547   0.179   6.005   3.758  2.4903  0.4664  0.1803
  209MOL0     H27548  -0.023   5.973   3.904  0.0496 -0.7953 -0.2976
  209MOL0     H27549   0.074   6.067   4.030  1.6016 -0.4153  0.3804
  209MOL0     H27550   0.300   5.758   4.119 -1.0078 -1.0123 -0.5757
  209MOL0     H27551   0.226   5.614   4.304  1.0738  1.6565  0.0047
  209MOL0     H27552  -0.409   5.424   4.300  0.7427 -0.2081  0.4119
  209MOL0     H27553  -0.540   5.285   4.459 -0.6251  5.7284 -0.5019
  209MOL0     H27554  -0.314   5.072   4.797 -3.1269  0.6891  2.1866
  209MOL0     H27555  -0.330   4.949   4.670  1.6097  0.8617  0.9403
  209MOL0     H27556  -0.572   4.919   4.752  0.3610 -2.0117 -0.4812
  209MOL0     H27557  -0.534   5.059   4.862  0.2168 -0.8292  0.6323
  209MOL0     H27558  -0.374   4.901   4.985 -0.7048 -0.3191 -0.0543
  209MOL0     H27559  -0.384   4.792   4.872  1.2845  0.4630  0.8617
  209MOL0     H27560  -0.611   4.890   5.042 -0.0174 -2.1411  2.8716
  209MOL0     H27561  -0.639   4.775   4.916 -2.5263  1.1280  3.2979
  209MOL0     H27562  -0.633   4.688   5.144  1.4281 -0.5512  1.6045
  209MOL0     H27563  -0.474   4.765   5.174  0.8893 -1.3824  1.5436
  209MOL0     H27564  -0.395   4.597   4.976  0.6017  0.5910  0.9561
  209MOL0     H27565  -0.535   4.505   5.025 -1.2011  1.8131  0.2083
  209MOL0     H27566  -0.328   4.440   5.134 -3.4221  0.4305 -3.6791
  209MOL0     H27567  -0.306   4.583   5.211  2.7597 -2.1348 -1.6675
  209MOL0     H27568  -0.546   4.557   5.307 -0.2446  0.6866  0.3747
  209MOL0     H27569  -0.446   4.429   5.374 -2.0483 -2.8836 -1.5461
  209MOL0     H27570  -0.177   5.150   4.637 -0.8722 -0.5298 -0.7218
  209MOL0     H27571  -0.057   5.293   4.534 -0.6864  0.6550  2.1230
  209MOL0     H27572  -0.182   5.632   4.140  0.5021 -2.7783  1.0721
  209MOL0     H27573  -0.092   5.805   3.987 -3.5686  0.0433  3.0303
  209MOL0     H27574   0.318   7.056   4.437 -1.0351 -1.9678  2.3979
  209MOL0     H27575   0.216   7.049   4.663  3.1204  0.7495  0.3355
  209MOL0     H27576  -0.183   7.304   4.802 -1.4983  0.3256 -0.0439
  209MOL0     H27577  -0.385   7.366   4.952 -2.9297 -1.0330  4.9417
  209MOL0     H27578  -0.522   7.334   5.126  0.0034  0.0422  1.5396
  209MOL0     H27579  -0.482   7.494   5.110  1.2767  0.0465  0.2431
  209MOL0     H27580  -0.590   7.334   5.359  2.5752  1.1538  1.3260
  209MOL0     H27581  -0.551   7.505   5.362  0.0174  0.0185 -0.2676
  209MOL0     H27582  -0.713   7.581   5.213 -2.0991  0.5729  0.4495
  209MOL0     H27583  -0.798   7.481   5.325 -2.4287  0.6107 -2.2686
  209MOL0     H27584  -0.720   7.373   5.053 -3.0982  4.6509 -1.8150
  209MOL0     H27585  -0.799   7.278   5.188  2.0094 -1.2640 -1.0218
  209MOL0     H27586  -1.087   7.514   4.976 -0.6178  1.0107  1.3293
  209MOL0     H27587  -0.130   7.376   5.286 -1.4804 -3.6891  0.0487
  209MOL0     H27588   0.071   7.362   5.140  0.5597 -1.0414 -0.6054
  210MOL0     O27589   9.635   7.806   8.616  0.8797  0.6367  1.1822
  210MOL0     C27590   9.658   7.707   8.691 -0.3741 -0.1511  0.3280
  210MOL0     O27591   9.768   7.709   8.772  0.2199  0.3539  0.2128
  210MOL0     C27592   9.882   7.779   8.744  0.2852 -0.5481  0.0087
  210MOL0     C27593   9.931   7.806   8.612  1.0163  0.4800 -0.8316
  210MOL0     C27594  10.051   7.875   8.581 -0.3503  0.0866 -0.9046
  210MOL0     C27595  10.128   7.930   8.683  0.0623 -0.3152  0.8115
  210MOL0     O27596  10.233   8.010   8.643 -0.3793  0.8202  0.0659
  210MOL0     C27597  10.335   8.038   8.743  0.4485 -0.4533  1.2383
  210MOL0     C27598  10.311   8.158   8.841  0.7534 -0.5139 -0.0072
  210MOL0     C27599  10.219   8.260   8.774 -0.2507 -0.3453 -0.3913
  210MOL0     C27600  10.304   8.337   8.669  0.9509 -0.5044  0.2540
  210MOL0     C27601  10.235   8.471   8.631  0.6259 -0.7309 -0.0942
  210MOL0     C27602  10.144   8.537   8.737  0.0219  0.2506  0.3536
  210MOL0     C27603  10.095   8.679   8.701 -0.4858 -0.0572  0.6349
  210MOL0     C27604  10.002   8.744   8.795  0.1724  0.1617 -0.2831
  210MOL0     N27605   9.983   8.891   8.773 -0.4896 -0.2098  0.5315
  210MOL0     C27606   9.877   8.959   8.826 -0.2318 -0.6929  1.4358
  210MOL0     C27607   9.890   9.080   8.760  0.2092 -0.2811  1.4137
  210MOL0     C27608   9.781   9.184   8.755  0.6041  0.1727  0.1190
  210MOL0     C27609   9.657   9.123   8.688 -0.0260  0.5274  0.8189
  210MOL0     C27610   9.534   9.219   8.696 -0.8946  0.2821  0.5496
  210MOL0     C27611   9.407   9.176   8.614 -0.7994  0.0608  0.7693
  210MOL0     O27612   9.350   9.065   8.682  0.7033 -0.3958  0.5062
  210MOL0     C27613   9.213   9.048   8.690 -0.2352  0.7384 -0.1678
  210MOL0     C27614   9.119   9.133   8.626 -0.8146  0.0988 -0.1840
  210MOL0     C27615   8.979   9.110   8.625 -0.1829 -0.4230 -0.1319
  210MOL0     C27616   8.929   8.989   8.673 -0.2730 -0.4963  0.4644
  210MOL0     C27617   8.781   8.960   8.664 -0.9182 -0.5301  0.2098
  210MOL0     O27618   8.700   9.060   8.614  0.0734 -0.3800  0.1197
  210MOL0     C27619   8.564   9.034   8.600 -0.4691 -0.0464 -1.3250
  210MOL0     C27620   8.501   8.914   8.563 -0.7397  0.5531  0.4283
  210MOL0     C27621   8.360   8.909   8.544 -0.6799  0.0503 -0.0225
  210MOL0     C27622   8.286   9.031   8.558 -0.3897 -1.3973  0.4811
  210MOL0     O27623   8.148   9.017   8.546  0.5449 -0.3317 -0.8400
  210MOL0     C27624   8.064   9.132   8.531 -0.1870 -1.3174  0.1305
  210MOL0     C27625   7.913   9.104   8.523 -0.5218 -1.2982  0.4467
  210MOL0     C27626   7.866   9.033   8.402 -0.1929 -0.7656  1.0569
  210MOL0     C27627   7.720   8.994   8.418  0.0558  0.1847  0.0802
  210MOL0     C27628   7.624   9.116   8.431 -0.5666  0.9609 -0.6030
  210MOL0     C27629   7.475   9.079   8.426  0.1365 -0.1312 -0.3306
  210MOL0     C27630   7.377   9.198   8.446 -0.2355  0.6524  0.6033
  210MOL0     C27631   7.246   9.192   8.371  0.2596 -0.7754  1.2275
  210MOL0    Cl27632   7.148   9.340   8.402  0.2739 -0.6344  0.0432
  210MOL0     C27633   8.348   9.153   8.599  0.4238  0.4853 -0.2853
  210MOL0     C27634   8.488   9.150   8.616  1.1391 -0.3565 -0.3762
  210MOL0     O27635   8.751   8.847   8.695 -0.1631 -0.0056 -0.1918
  210MOL0     C27636   9.024   8.900   8.729 -0.1593  0.8047  0.2137
  210MOL0     C27637   9.163   8.930   8.742  0.4441  0.8276 -0.5668
  210MOL0     N27638  10.008   9.084   8.693 -0.7747  0.3057 -0.0311
  210MOL0     N27639  10.064   8.969   8.704  0.3297  0.1697 -0.3842
  210MOL0     C27640  10.092   7.885   8.810 -0.2418 -0.6252 -0.4622
  210MOL0     C27641   9.975   7.815   8.839  0.5554  0.8446 -0.3579
  210MOL0     C27642   9.567   7.594   8.704 -0.4517 -0.4610 -0.1534
  210MOL0     C27643   9.608   7.473   8.770 -1.0966  0.2770 -1.2714
  210MOL0     C27644   9.514   7.373   8.802 -0.0928 -0.1970  0.2997
  210MOL0     C27645   9.381   7.392   8.764 -0.3943  1.0862 -0.2772
  210MOL0     O27646   9.293   7.291   8.806  0.1832 -0.1420 -0.0428
  210MOL0     C27647   9.176   7.345   8.871  0.0797  1.1850  0.5691
  210MOL0     C27648   9.084   7.230   8.918 -0.8609 -0.0324 -0.8737
  210MOL0     C27649   9.118   7.192   9.072 -0.4941 -0.2665  0.6804
  210MOL0     C27650   9.027   7.089   9.145  1.4649 -0.3370  0.4979
  210MOL0     C27651   9.039   6.950   9.097 -0.6805 -1.6157  0.2528
  210MOL0     C27652   9.022   6.846   9.038 -0.6827 -0.2477  0.0677
  210MOL0     C27653   9.340   7.510   8.701 -0.4099 -0.6046 -1.1739
  210MOL0     C27654   9.433   7.614   8.673 -0.4268  0.4013 -0.9201
  210MOL0     H27655   9.867   7.777   8.529  1.3684  1.7007 -1.5621
  210MOL0     H27656  10.071   7.905   8.479  1.0351  1.5665 -0.2466
  210MOL0     H27657  10.430   8.054   8.691  1.3377 -1.8211  2.3758
  210MOL0     H27658  10.355   7.952   8.807 -1.7401  0.3714  3.1846
  210MOL0     H27659  10.408   8.191   8.880 -0.2693  0.8099  1.5835
  210MOL0     H27660  10.252   8.121   8.926 -1.2292 -3.4000 -2.4064
  210MOL0     H27661  10.202   8.322   8.862  0.6163 -0.4797 -0.1293
  210MOL0     H27662  10.119   8.231   8.739 -0.4808  0.6539 -0.6197
  210MOL0     H27663  10.407   8.349   8.703  0.0509  2.0996  2.4877
  210MOL0     H27664  10.300   8.274   8.579 -3.1351  0.7301 -0.6640
  210MOL0     H27665  10.170   8.448   8.546 -0.5667 -0.5027  0.7380
  210MOL0     H27666  10.310   8.544   8.599  1.2489 -1.3838 -0.1501
  210MOL0     H27667  10.193   8.543   8.835 -1.6635  0.0695  1.2472
  210MOL0     H27668  10.058   8.475   8.761  0.8180 -0.9575  0.1884
  210MOL0     H27669  10.185   8.741   8.704 -0.3420 -0.1972 -0.4761
  210MOL0     H27670  10.053   8.676   8.600  1.1213  1.0610 -0.1119
  210MOL0     H27671  10.032   8.729   8.899  0.4939  0.0096 -0.3996
  210MOL0     H27672   9.911   8.687   8.772  0.9001  0.3205 -4.2525
  210MOL0     H27673   9.798   8.939   8.898  0.9232 -0.7938  2.7039
  210MOL0     H27674   9.806   9.268   8.690  1.4203 -0.3861 -0.3075
  210MOL0     H27675   9.762   9.225   8.854 -1.4857  2.5104 -1.1291
  210MOL0     H27676   9.620   9.039   8.748  0.1003 -0.9407 -1.0627
  210MOL0     H27677   9.670   9.096   8.583  1.8265  3.6832  0.1066
  210MOL0     H27678   9.515   9.243   8.801  0.5624  0.7810  0.7206
  210MOL0     H27679   9.565   9.312   8.648 -1.1205  0.6290  1.0732
  210MOL0     H27680   9.432   9.153   8.511  0.3159 -1.6576  1.3795
  210MOL0     H27681   9.343   9.262   8.637 -0.4081  0.2859  1.0267
  210MOL0     H27682   9.155   9.230   8.594 -0.3905  0.4348  1.2586
  210MOL0     H27683   8.921   9.186   8.573 -1.7791 -0.9686  0.7750
  210MOL0     H27684   8.563   8.827   8.543  0.4517  1.0806  1.7403
  210MOL0     H27685   8.301   8.819   8.536 -2.3464  0.9374  1.5709
  210MOL0     H27686   8.101   9.181   8.440 -0.5229 -0.4042  0.4812
  210MOL0     H27687   8.072   9.203   8.613 -3.6071 -0.7273  0.0939
  210MOL0     H27688   7.867   9.201   8.538  0.9830 -0.7533  1.8761
  210MOL0     H27689   7.890   9.055   8.618  0.6457 -1.0117  0.8936
  210MOL0     H27690   7.935   8.951   8.380  1.6915  0.8337  0.7684
  210MOL0     H27691   7.883   9.095   8.314 -0.4625 -2.6724 -0.4115
  210MOL0     H27692   7.689   8.951   8.322 -0.6336 -0.0020  0.3796
  210MOL0     H27693   7.703   8.922   8.499  0.5290  0.5830  0.5359
  210MOL0     H27694   7.644   9.183   8.346  1.3537  0.1545 -0.8421
  210MOL0     H27695   7.641   9.162   8.528 -1.6634 -0.1278  0.1405
  210MOL0     H27696   7.451   9.008   8.505 -1.9764  1.7976  0.8834
  210MOL0     H27697   7.441   9.023   8.339 -4.0296  1.8113 -0.1751
  210MOL0     H27698   7.355   9.207   8.552  0.2092 -3.1053  1.1691
  210MOL0     H27699   7.428   9.288   8.410  1.4745 -0.1172  0.9951
  210MOL0     H27700   7.183   9.105   8.394 -1.1844 -0.4546 -1.1513
  210MOL0     H27701   7.253   9.195   8.262 -3.5591  0.1524  0.8699
  210MOL0     H27702   8.295   9.244   8.624  0.6840  0.7132 -0.5483
  210MOL0     H27703   8.548   9.234   8.651 -0.7939  1.6650 -1.6326
  210MOL0     H27704   8.986   8.803   8.759  2.7290 -0.0292  1.6055
  210MOL0     H27705   9.224   8.856   8.792  1.2607  2.4970  1.0566
  210MOL0     H27706  10.162   7.907   8.890 -2.2887  1.5904  0.8435
  210MOL0     H27707   9.949   7.778   8.938  0.6891  2.0065  0.1280
  210MOL0     H27708   9.710   7.471   8.807 -1.8698  2.4338  1.3069
  210MOL0     H27709   9.540   7.289   8.865 -2.6293  1.2886  3.6768
  210MOL0     H27710   9.121   7.411   8.804 -1.1966 -0.7206 -0.3514
  210MOL0     H27711   9.205   7.402   8.960 -3.0438 -1.1005  3.2794
  210MOL0     H27712   8.984   7.268   8.892 -0.1770 -0.5455 -4.9284
  210MOL0     H27713   9.113   7.154   8.845  2.2876  1.8093 -1.7379
  210MOL0     H27714   9.112   7.288   9.124  0.5245  1.6244 -2.3858
  210MOL0     H27715   9.221   7.156   9.068 -1.1725 -2.2753 -0.1873
  210MOL0     H27716   9.044   7.090   9.253  2.1360 -1.0344  0.4085
  210MOL0     H27717   8.926   7.126   9.125  1.7247 -0.7446 -1.7965
  210MOL0     H27718   9.007   6.752   8.988  0.8775 -0.0361 -0.8569
  210MOL0     H27719   9.237   7.523   8.671 -0.3077 -2.0009 -2.2006
  210MOL0     H27720   9.401   7.706   8.626 -0.2328  1.2199  0.4769
  211MOL0     O27721  10.557   9.099   4.045  0.4657 -0.8157 -0.0761
  211MOL0     C27722  10.449   9.070   4.090  0.0716  0.8346 -0.1011
  211MOL0     O27723  10.345   9.156   4.107  0.6573  0.1031 -0.7894
  211MOL0     C27724  10.366   9.282   4.064  0.0812 -0.6469 -0.2211
  211MOL0     C27725  10.376   9.382   4.155  0.0382 -0.2342  0.1945
  211MOL0     C27726  10.378   9.518   4.109  0.8049 -0.1881  0.2838
  211MOL0     C27727  10.379   9.550   3.971 -0.9166 -0.0099 -0.0830
  211MOL0     O27728  10.377   9.678   3.918  0.4580  1.3976 -0.0602
  211MOL0     C27729  10.414   9.783   4.009 -0.2705  0.3751  1.2573
  211MOL0     C27730  10.407   9.918   3.943 -0.8133 -1.3365 -0.0367
  211MOL0     C27731  10.276   9.961   3.893  0.0495 -0.2817 -0.0623
  211MOL0     C27732  10.262  10.108   3.851 -0.3026  0.3010 -0.2380
  211MOL0     C27733  10.290  10.210   3.969  0.3095  0.3969  0.2361
  211MOL0     C27734  10.255  10.347   3.928 -0.6679 -0.0636 -0.7752
  211MOL0     C27735  10.106  10.382   3.953 -0.0025  0.3939 -0.8209
  211MOL0     C27736  10.062  10.505   3.877 -0.1091  0.3021  0.0516
  211MOL0     N27737   9.929  10.561   3.914  0.3578 -0.0871  0.1147
  211MOL0     C27738   9.804  10.526   3.861 -0.5271  0.5339  0.5090
  211MOL0     C27739   9.726  10.625   3.907  0.6010 -0.2917 -0.1673
  211MOL0     C27740   9.585  10.645   3.859 -0.6648  1.3213  0.3766
  211MOL0     C27741   9.471  10.627   3.970  0.3728  0.7079  0.4310
  211MOL0     C27742   9.338  10.660   3.915 -0.3096 -0.3135 -1.3530
  211MOL0     C27743   9.231  10.624   4.007 -0.8653  0.3324 -0.7939
  211MOL0     O27744   9.206  10.730   4.096  0.3959 -0.0599  0.4651
  211MOL0     C27745   9.081  10.727   4.158 -0.4768 -0.1591 -0.1443
  211MOL0     C27746   8.995  10.617   4.187 -0.6648  0.3931 -0.5208
  211MOL0     C27747   8.871  10.636   4.254  0.0776  0.6549  0.4300
  211MOL0     C27748   8.832  10.758   4.307 -0.0943  0.3672  0.9736
  211MOL0     C27749   8.696  10.764   4.372 -0.8546  0.4926 -0.5152
  211MOL0     O27750   8.624  10.654   4.368  0.2341 -0.2131 -0.7322
  211MOL0     C27751   8.499  10.646   4.435 -0.6268 -0.4517  0.4370
  211MOL0     C27752   8.480  10.703   4.566  0.0050 -0.1607  0.3731
  211MOL0     C27753   8.373  10.658   4.641 -0.5867 -1.4563  0.4282
  211MOL0     C27754   8.281  10.573   4.589  0.0530  0.5092 -0.8386
  211MOL0     O27755   8.187  10.529   4.682 -0.3036 -0.2041  0.1157
  211MOL0     C27756   8.064  10.474   4.627  0.3611 -0.6858  0.0261
  211MOL0     C27757   7.959  10.527   4.725  0.7427  0.6834  0.0840
  211MOL0     C27758   7.976  10.484   4.869  0.7670 -0.1511  0.6500
  211MOL0     C27759   7.867  10.547   4.955 -0.4834  0.0668 -0.1156
  211MOL0     C27760   7.746  10.450   4.962  0.3912 -0.5598 -0.5746
  211MOL0     C27761   7.677  10.451   5.087 -0.1698 -0.4883 -0.9678
  211MOL0     C27762   7.554  10.352   5.098  0.1773 -0.2470 -0.8269
  211MOL0     C27763   7.596  10.208   5.069 -0.9589  0.6952 -0.1591
  211MOL0    Cl27764   7.703  10.155   5.205  0.2582 -0.1873 -0.2082
  211MOL0     C27765   8.287  10.533   4.454  0.2355  0.9602 -0.3281
  211MOL0     C27766   8.405  10.561   4.387  0.2772  0.3786 -0.5033
  211MOL0     O27767   8.664  10.868   4.426  0.2893 -0.1831  0.8352
  211MOL0     C27768   8.918  10.867   4.284 -0.5356  0.1740  0.1608
  211MOL0     C27769   9.038  10.851   4.214 -0.6162 -0.3103 -0.2700
  211MOL0     N27770   9.795  10.707   3.993  0.8686  0.3457  0.7324
  211MOL0     N27771   9.916  10.658   4.002  0.0243 -0.3206  0.3914
  211MOL0     C27772  10.358   9.449   3.878  0.3457  0.1362 -0.3756
  211MOL0     C27773  10.341   9.319   3.931  0.1422  0.1413  0.4472
  211MOL0     C27774  10.422   8.918   4.124  0.7579 -0.8096  0.2414
  211MOL0     C27775  10.319   8.881   4.211  0.5062 -0.9601 -0.7991
  211MOL0     C27776  10.284   8.745   4.242 -0.1389 -0.3208 -0.5353
  211MOL0     C27777  10.355   8.642   4.183 -0.6011 -0.3652  0.4687
  211MOL0     O27778  10.336   8.504   4.203  0.2411  0.3461  0.1963
  211MOL0     C27779  10.222   8.456   4.274  0.6682 -0.7193 -0.5050
  211MOL0     C27780  10.211   8.305   4.247  0.6285 -0.1398  0.6055
  211MOL0     C27781  10.066   8.268   4.286  0.4080 -0.3252 -0.4719
  211MOL0     C27782  10.026   8.121   4.254  0.4595  0.1027  0.0248
  211MOL0     C27783  10.065   8.077   4.114  0.0634  0.6288 -0.1315
  211MOL0     C27784  10.111   8.041   4.007  0.6301 -1.2534  0.0313
  211MOL0     C27785  10.466   8.683   4.101  0.2426  0.0968 -0.8809
  211MOL0     C27786  10.501   8.817   4.067 -0.1217  0.0777 -0.0684
  211MOL0     H27787  10.369   9.352   4.259  0.2371 -2.4785 -0.3845
  211MOL0     H27788  10.405   9.594   4.182  1.1128  2.4145 -2.3522
  211MOL0     H27789  10.514   9.755   4.043 -0.3499 -2.5642 -0.6548
  211MOL0     H27790  10.341   9.794   4.091 -1.3450  3.2168  0.0708
  211MOL0     H27791  10.470   9.905   3.854  3.2192 -1.2916  2.5732
  211MOL0     H27792  10.458   9.992   4.004 -2.2466 -0.7334  0.4796
  211MOL0     H27793  10.203   9.943   3.972  2.6589 -0.4913  2.4486
  211MOL0     H27794  10.238   9.897   3.812 -2.5897 -1.2304  1.7809
  211MOL0     H27795  10.338  10.122   3.774 -0.2826  3.4360  0.2266
  211MOL0     H27796  10.158  10.117   3.818 -1.5244  2.6884  3.6223
  211MOL0     H27797  10.399  10.215   3.981  0.4367  0.2219 -0.7209
  211MOL0     H27798  10.241  10.181   4.062  1.2265 -0.8988  0.3483
  211MOL0     H27799  10.293  10.371   3.828  0.7765 -0.7817 -0.4195
  211MOL0     H27800  10.317  10.412   3.992 -2.0013 -1.1555  1.7762
  211MOL0     H27801  10.035  10.310   3.912 -0.0114  1.6690 -3.1675
  211MOL0     H27802  10.084  10.392   4.060 -0.8197  1.8648 -1.0972
  211MOL0     H27803  10.064  10.476   3.772  0.6159  1.6934 -0.3437
  211MOL0     H27804  10.131  10.589   3.891 -0.5522  0.3734  2.1531
  211MOL0     H27805   9.782  10.463   3.776  0.9213  0.3468  0.2465
  211MOL0     H27806   9.578  10.589   3.766  2.0251  1.9391 -0.2693
  211MOL0     H27807   9.587  10.753   3.837  1.1218  0.7986 -2.5379
  211MOL0     H27808   9.484  10.691   4.058  1.8657 -0.1333  0.8568
  211MOL0     H27809   9.463  10.522   3.997  2.6648  0.3602 -0.0900
  211MOL0     H27810   9.327  10.764   3.883  0.0890 -0.5260 -2.2078
  211MOL0     H27811   9.320  10.606   3.822 -1.4632 -0.8140 -0.8600
  211MOL0     H27812   9.265  10.536   4.061 -2.7473  1.2666  2.1465
  211MOL0     H27813   9.134  10.599   3.962 -1.4848  1.6242 -0.2252
  211MOL0     H27814   9.036  10.522   4.154  2.3180  1.8999 -1.5574
  211MOL0     H27815   8.813  10.544   4.259  0.0358  0.5044 -1.7394
  211MOL0     H27816   8.552  10.763   4.620 -1.2541  0.1772  1.7540
  211MOL0     H27817   8.360  10.682   4.746 -0.1176  0.1162  0.1551
  211MOL0     H27818   8.048  10.366   4.633 -1.5097 -0.3891  3.9849
  211MOL0     H27819   8.040  10.505   4.525  1.0966  1.5296  0.4691
  211MOL0     H27820   7.864  10.481   4.696  1.0601 -0.4234  0.7324
  211MOL0     H27821   7.928  10.631   4.724  1.7516  1.0162 -1.7047
  211MOL0     H27822   8.063  10.537   4.908  0.3153  0.0856  1.3673
  211MOL0     H27823   7.988  10.380   4.903 -2.2719  0.4227  4.2122
  211MOL0     H27824   7.916  10.561   5.051 -0.2548  0.4073 -0.2786
  211MOL0     H27825   7.840  10.648   4.921  2.7213  0.9271 -0.4254
  211MOL0     H27826   7.781  10.347   4.951  1.5726 -0.0530 -2.1195
  211MOL0     H27827   7.671  10.478   4.888 -0.0511  3.0907  1.0298
  211MOL0     H27828   7.635  10.548   5.117 -0.7869 -0.8444 -0.6598
  211MOL0     H27829   7.755  10.422   5.158  0.0552 -3.0745 -2.1670
  211MOL0     H27830   7.513  10.368   5.198 -1.9732 -0.7627 -1.5738
  211MOL0     H27831   7.471  10.374   5.030 -2.0531 -5.5147 -0.2762
  211MOL0     H27832   7.632  10.194   4.966 -3.0983  0.7123 -0.9829
  211MOL0     H27833   7.511  10.138   5.073  0.0457 -0.6315 -1.0480
  211MOL0     H27834   8.213  10.461   4.419  2.7006 -3.6431  2.8345
  211MOL0     H27835   8.424  10.528   4.285  0.2646  1.8977 -1.0284
  211MOL0     H27836   8.896  10.965   4.326  1.3993  1.0208 -0.7004
  211MOL0     H27837   9.089  10.946   4.199 -0.9480 -0.5892 -4.3138
  211MOL0     H27838  10.356   9.460   3.770  3.2777 -0.9097 -0.6230
  211MOL0     H27839  10.305   9.242   3.863 -2.9680  0.8925  1.1029
  211MOL0     H27840  10.260   8.967   4.241  2.0349 -0.0756 -0.2142
  211MOL0     H27841  10.198   8.729   4.306  0.6842  1.6935  1.1932
  211MOL0     H27842  10.132   8.505   4.235  0.8282 -1.0024 -1.2540
  211MOL0     H27843  10.222   8.481   4.380  1.3826 -0.2288 -0.6176
  211MOL0     H27844  10.227   8.289   4.141 -1.8623  2.1274 -0.2497
  211MOL0     H27845  10.281   8.248   4.309  2.1964  0.6338 -0.3909
  211MOL0     H27846  10.007   8.335   4.223  1.7383  1.9955  0.5844
  211MOL0     H27847  10.056   8.284   4.394  0.7746 -1.8949 -0.1735
  211MOL0     H27848  10.089   8.052   4.312  4.5255  2.4853 -1.1636
  211MOL0     H27849   9.920   8.101   4.274  0.2627 -0.2072 -1.2538
  211MOL0     H27850  10.145   8.021   3.907  1.5780  0.0785  0.0606
  211MOL0     H27851  10.530   8.604   4.064  1.8649 -0.7112  3.1157
  211MOL0     H27852  10.590   8.838   4.008  0.1486 -1.0548 -0.0972
  212MOL0     O27853   4.026   8.522   4.011 -0.0200  0.9163 -0.4844
  212MOL0     C27854   3.995   8.572   3.904 -0.1528  0.7608  0.1640
  212MOL0     O27855   3.962   8.701   3.887  0.6572  0.6770  0.2503
  212MOL0     C27856   3.954   8.781   4.005 -0.1029 -0.1733  0.3086
  212MOL0     C27857   4.056   8.880   4.016 -0.1588 -0.8738 -0.0108
  212MOL0     C27858   4.066   8.954   4.140  0.3159 -1.0604 -1.0125
  212MOL0     C27859   3.969   8.941   4.239 -0.1633 -0.6904  0.3300
  212MOL0     O27860   3.978   9.028   4.351  0.1485  0.1538 -0.5874
  212MOL0     C27861   4.077   8.995   4.456  0.2524  0.8184 -0.2018
  212MOL0     C27862   4.053   8.859   4.530  0.0365 -1.0498  0.8912
  212MOL0     C27863   3.914   8.865   4.584  0.6144 -0.3900 -0.4132
  212MOL0     C27864   3.897   8.739   4.679 -0.3726  0.0079 -0.0008
  212MOL0     C27865   3.882   8.608   4.589 -0.6502 -0.8824 -0.7176
  212MOL0     C27866   3.972   8.491   4.637  0.3568  0.4160  0.1956
  212MOL0     C27867   3.942   8.361   4.549 -0.4373 -0.2902 -0.1761
  212MOL0     C27868   3.997   8.235   4.617  0.0902 -0.7694  0.0723
  212MOL0     N27869   4.009   8.106   4.547 -0.1710 -0.3670 -0.2929
  212MOL0     C27870   3.913   8.064   4.461 -0.3696 -0.3476  0.3872
  212MOL0     C27871   3.946   7.939   4.426  0.3541  0.9600  0.4568
  212MOL0     C27872   3.850   7.856   4.341 -0.8585  0.1398 -0.1572
  212MOL0     C27873   3.736   7.802   4.425  0.4640 -0.2011 -0.3280
  212MOL0     C27874   3.664   7.704   4.339  0.6690  0.5214  0.7051
  212MOL0     C27875   3.541   7.637   4.406 -0.4155  0.3553  0.1400
  212MOL0     O27876   3.584   7.568   4.525  0.0969 -0.0765 -0.9083
  212MOL0     C27877   3.668   7.460   4.521  0.2637 -0.1086 -0.2356
  212MOL0     C27878   3.702   7.381   4.407 -0.2900 -0.5657 -0.1527
  212MOL0     C27879   3.763   7.256   4.418 -0.8717  0.2703  0.3214
  212MOL0     C27880   3.798   7.203   4.541 -0.6504  0.3197 -0.1077
  212MOL0     C27881   3.884   7.083   4.557  0.2768 -0.1522  0.2715
  212MOL0     O27882   3.904   7.008   4.438  0.5550  0.6102 -0.0124
  212MOL0     C27883   3.972   6.889   4.448 -0.3518 -0.6218  0.6775
  212MOL0     C27884   4.115   6.881   4.470  0.7794 -0.1348  0.2512
  212MOL0     C27885   4.173   6.753   4.456  0.1153 -0.6471 -0.9690
  212MOL0     C27886   4.098   6.636   4.456  1.1951  0.2792 -0.2074
  212MOL0     O27887   4.165   6.515   4.451  0.5497 -0.4108  0.3681
  212MOL0     C27888   4.182   6.458   4.324  0.1453 -0.1280  0.2993
  212MOL0     C27889   4.242   6.315   4.315 -0.2808 -0.0846  0.1844
  212MOL0     C27890   4.372   6.300   4.387 -0.1313  0.0990  0.7106
  212MOL0     C27891   4.444   6.165   4.334  0.1728 -0.8314 -0.3853
  212MOL0     C27892   4.572   6.129   4.411  0.2701 -0.5574 -0.7334
  212MOL0     C27893   4.690   6.231   4.380  0.4822  0.0864  0.0458
  212MOL0     C27894   4.833   6.210   4.439  0.8207  0.8824 -0.4200
  212MOL0     C27895   4.902   6.087   4.371 -0.6141  1.3221 -0.5718
  212MOL0    Cl27896   5.047   6.045   4.462 -0.4046  0.4427 -0.3399
  212MOL0     C27897   3.958   6.648   4.438  0.5780 -0.1200 -0.0280
  212MOL0     C27898   3.898   6.772   4.428 -0.2242 -0.3351 -0.1386
  212MOL0     O27899   3.898   7.039   4.673 -0.0778 -0.0093 -0.3529
  212MOL0     C27900   3.771   7.289   4.652  0.1702  0.1723  0.0317
  212MOL0     C27901   3.724   7.420   4.645  0.4601  0.1011  0.6801
  212MOL0     N27902   4.074   7.919   4.472  0.2767  0.1446 -0.5644
  212MOL0     N27903   4.113   8.015   4.543  0.4267 -0.4258 -0.4689
  212MOL0     C27904   3.868   8.849   4.219 -0.4102  0.7875  0.4338
  212MOL0     C27905   3.856   8.772   4.105 -0.6022  0.1747 -0.9955
  212MOL0     C27906   4.008   8.477   3.796 -0.0861 -0.8841  0.4435
  212MOL0     C27907   3.932   8.501   3.685 -0.4363 -0.5905 -0.0711
  212MOL0     C27908   3.924   8.416   3.580 -0.4030  0.8402  0.4445
  212MOL0     C27909   4.018   8.308   3.571 -0.1167  0.0115 -0.2189
  212MOL0     O27910   4.035   8.231   3.452 -0.2523 -0.1669 -0.5128
  212MOL0     C27911   4.073   8.310   3.328 -0.1675  0.6209 -0.0310
  212MOL0     C27912   4.215   8.275   3.293 -0.3592 -0.1511  0.7405
  212MOL0     C27913   4.259   8.340   3.154 -0.0337 -0.2368  0.1715
  212MOL0     C27914   4.342   8.248   3.069  0.6564 -0.7328  0.4216
  212MOL0     C27915   4.385   8.329   2.958 -0.2588 -0.4128 -0.3216
  212MOL0     C27916   4.433   8.377   2.859 -0.0373 -0.0627 -0.5200
  212MOL0     C27917   4.106   8.282   3.688 -0.2214  0.2919  0.0567
  212MOL0     C27918   4.093   8.362   3.799 -0.2784 -0.3043 -1.0436
  212MOL0     H27919   4.126   8.885   3.934 -0.1826 -0.4781 -0.0075
  212MOL0     H27920   4.148   9.022   4.157 -0.0369 -1.0276  0.7589
  212MOL0     H27921   4.074   9.083   4.521 -1.2764  2.6282 -2.5489
  212MOL0     H27922   4.176   8.988   4.409  0.4883  1.6862  0.1482
  212MOL0     H27923   4.128   8.844   4.608 -0.4431  1.0909  1.8412
  212MOL0     H27924   4.068   8.774   4.462 -1.6356  0.3261 -1.3408
  212MOL0     H27925   3.847   8.872   4.499  3.7405  4.4447 -2.9325
  212MOL0     H27926   3.909   8.959   4.640  1.2290  2.2876 -4.4819
  212MOL0     H27927   3.977   8.722   4.751  1.7214  3.3004 -1.3280
  212MOL0     H27928   3.807   8.762   4.737  2.1891  2.7151  3.3197
  212MOL0     H27929   3.892   8.634   4.483  1.0278  3.6829  0.3520
  212MOL0     H27930   3.777   8.576   4.598 -0.7505 -0.3550  0.1122
  212MOL0     H27931   3.945   8.461   4.738 -3.9804  0.5193 -0.7472
  212MOL0     H27932   4.080   8.506   4.630  0.6698 -2.0071 -2.9088
  212MOL0     H27933   3.835   8.350   4.532 -0.5208  1.3433 -0.8374
  212MOL0     H27934   3.998   8.369   4.455  0.2568 -4.1637 -0.2867
  212MOL0     H27935   3.926   8.219   4.699  0.2007  1.3572  0.6575
  212MOL0     H27936   4.093   8.262   4.661 -0.5512 -1.2265  1.8463
  212MOL0     H27937   3.821   8.121   4.451  0.1735  0.4906 -0.0308
  212MOL0     H27938   3.911   7.772   4.307 -1.0135 -0.1206  0.1944
  212MOL0     H27939   3.812   7.906   4.251 -5.1315 -2.3433 -0.0259
  212MOL0     H27940   3.672   7.886   4.452  0.4077 -0.6550  1.0344
  212MOL0     H27941   3.770   7.755   4.518  4.0743 -1.7049 -2.2032
  212MOL0     H27942   3.625   7.742   4.243 -2.4471  0.4363  1.8169
  212MOL0     H27943   3.738   7.630   4.306 -1.1445 -0.8113 -0.5978
  212MOL0     H27944   3.494   7.562   4.342  3.9148 -0.5007 -2.4656
  212MOL0     H27945   3.467   7.714   4.427 -2.6496 -1.7874  0.4995
  212MOL0     H27946   3.665   7.401   4.307  2.2043 -1.0273 -1.2253
  212MOL0     H27947   3.779   7.204   4.324  0.9300 -0.1132  0.7960
  212MOL0     H27948   4.168   6.975   4.484  0.2892 -0.1510  2.6225
  212MOL0     H27949   4.277   6.742   4.483 -0.4158 -0.4962  1.3646
  212MOL0     H27950   4.243   6.526   4.264  0.5328 -1.9174 -1.4406
  212MOL0     H27951   4.084   6.465   4.275 -0.4270  0.0213  1.4312
  212MOL0     H27952   4.257   6.276   4.214  0.5641 -4.5305  1.8363
  212MOL0     H27953   4.173   6.245   4.361  2.5005 -4.5788 -1.8406
  212MOL0     H27954   4.372   6.273   4.493 -0.7554 -0.3057  0.6173
  212MOL0     H27955   4.433   6.388   4.369  3.2838 -2.3095 -0.5518
  212MOL0     H27956   4.375   6.081   4.339 -0.0834 -0.5587  1.6960
  212MOL0     H27957   4.469   6.171   4.228 -1.2247 -0.4325 -0.7168
  212MOL0     H27958   4.606   6.027   4.391  0.6037 -0.2436 -1.8154
  212MOL0     H27959   4.539   6.126   4.515 -0.2805 -2.4769 -0.9251
  212MOL0     H27960   4.662   6.328   4.423  0.3956 -0.1249  0.4675
  212MOL0     H27961   4.691   6.248   4.272 -2.0760  2.8627  0.3303
  212MOL0     H27962   4.897   6.298   4.425  1.0856  0.3350 -3.2248
  212MOL0     H27963   4.829   6.196   4.548  1.7956 -0.8039 -0.5673
  212MOL0     H27964   4.917   6.122   4.269  1.4141 -0.1144 -0.8105
  212MOL0     H27965   4.847   5.992   4.367 -0.1840  0.7597  3.1567
  212MOL0     H27966   3.904   6.554   4.445  0.1354  0.1898  0.9383
  212MOL0     H27967   3.794   6.787   4.402 -0.4749  0.4347  1.1759
  212MOL0     H27968   3.811   7.254   4.747  0.5422 -0.3578 -0.3180
  212MOL0     H27969   3.707   7.471   4.739  0.8185 -0.5710  1.1215
  212MOL0     H27970   3.777   8.839   4.277 -0.0780  0.7534  0.9517
  212MOL0     H27971   3.790   8.686   4.097 -1.1542  0.3455  1.1442
  212MOL0     H27972   3.872   8.591   3.680 -0.7775 -0.7556  0.8708
  212MOL0     H27973   3.861   8.450   3.499  0.3783  2.7399  0.5805
  212MOL0     H27974   4.072   8.410   3.371 -1.0243 -0.5123  2.8412
  212MOL0     H27975   4.005   8.284   3.247 -1.5057 -1.1707  1.5620
  212MOL0     H27976   4.282   8.321   3.366 -0.6907 -0.7736  1.4448
  212MOL0     H27977   4.224   8.166   3.293 -1.9166 -0.3098  1.7980
  212MOL0     H27978   4.319   8.428   3.176  1.1429 -0.6715 -1.1902
  212MOL0     H27979   4.171   8.380   3.103 -0.1301 -2.0452 -1.1947
  212MOL0     H27980   4.429   8.216   3.128  2.2011  2.3953 -0.0014
  212MOL0     H27981   4.290   8.159   3.030  0.1310 -1.7066  3.1074
  212MOL0     H27982   4.485   8.416   2.774  0.0446 -2.7795 -1.8032
  212MOL0     H27983   4.163   8.190   3.675  0.1886  0.9545 -4.0398
  212MOL0     H27984   4.162   8.346   3.881 -1.3966 -0.5625 -0.1302
  213MOL0     O27985  10.592   4.466   8.578 -0.6322  0.3398  0.0075
  213MOL0     C27986  10.532   4.426   8.672  0.7305 -0.4585 -0.0666
  213MOL0     O27987  10.548   4.485   8.798  0.5463 -0.0964  0.5368
  213MOL0     C27988  10.623   4.596   8.808  0.8796  1.1193  0.5520
  213MOL0     C27989  10.762   4.592   8.834  0.5220 -0.0752 -0.0848
  213MOL0     C27990  10.833   4.708   8.848  0.2642  1.0583  0.2641
  213MOL0     C27991  10.770   4.836   8.838 -0.1141  1.2374 -0.3245
  213MOL0     O27992  10.850   4.951   8.850 -0.0055  0.5454 -0.1200
  213MOL0     C27993  10.800   5.055   8.756 -0.2917  1.5271  0.2544
  213MOL0     C27994  10.910   5.167   8.751 -0.2889 -0.0676 -0.2440
  213MOL0     C27995  11.025   5.121   8.670  0.2715  0.9990 -0.1840
  213MOL0     C27996  11.113   5.248   8.651 -0.3306 -0.3454  0.0843
  213MOL0     C27997  11.239   5.202   8.563  0.5752  0.1950 -0.6340
  213MOL0     C27998  11.329   5.321   8.525  0.1198 -0.5809 -0.7541
  213MOL0     C27999  11.466   5.298   8.483 -0.0309  0.2201  0.1683
  213MOL0     C28000  11.490   5.207   8.358  0.7101 -0.9010  0.7381
  213MOL0     N28001  11.585   5.288   8.259 -0.0041 -0.4849 -0.6879
  213MOL0     C28002  11.703   5.353   8.286  0.9478 -0.0817  0.1748
  213MOL0     C28003  11.738   5.411   8.172  0.6380 -0.6226  0.2909
  213MOL0     C28004  11.861   5.491   8.160 -0.4674 -0.9429  0.5879
  213MOL0     C28005  11.831   5.639   8.180 -0.2468 -1.0847  0.2272
  213MOL0     C28006  11.961   5.707   8.227 -0.2314  0.2381  1.5676
  213MOL0     C28007  12.045   5.779   8.121  0.4842  1.0853 -0.1580
  213MOL0     O28008  11.983   5.903   8.100  0.2483  0.2929  0.2805
  213MOL0     C28009  12.034   5.982   7.998 -0.8308  0.7224  0.6839
  213MOL0     C28010  11.949   6.084   7.955  1.1809  0.4484 -0.2381
  213MOL0     C28011  11.977   6.167   7.849 -0.1661  0.6059 -0.7036
  213MOL0     C28012  12.111   6.156   7.794  0.6410 -0.5018  0.1713
  213MOL0     C28013  12.133   6.261   7.694 -0.4291 -0.3626 -1.0414
  213MOL0     O28014  12.098   6.392   7.714 -0.5028 -0.1865  0.2396
  213MOL0     C28015  12.136   6.479   7.618  0.1387 -0.0923  0.1419
  213MOL0     C28016  12.199   6.597   7.658  0.1337 -0.0469 -0.1440
  213MOL0     C28017  12.237   6.698   7.556  0.0033 -0.9024 -0.0956
  213MOL0     C28018  12.212   6.685   7.425 -0.4818  0.6713  0.6545
  213MOL0     O28019  12.260   6.790   7.342 -0.1651  0.4013 -0.0169
  213MOL0     C28020  12.262   6.761   7.206  0.8535 -0.1173  0.6694
  213MOL0     C28021  12.304   6.884   7.133 -0.2253 -0.2827  0.1130
  213MOL0     C28022  12.309   6.889   6.980  0.6954 -0.4845  0.4403
  213MOL0     C28023  12.167   6.883   6.914 -0.2570  0.0897  0.9176
  213MOL0     C28024  12.061   6.985   6.958 -0.4553  0.0604 -0.8523
  213MOL0     C28025  11.927   6.954   6.911 -0.1295 -0.4084 -0.1632
  213MOL0     C28026  11.841   7.080   6.944  0.6073 -0.2900 -0.1451
  213MOL0     C28027  11.704   7.065   6.884 -0.2610 -0.3453 -0.2530
  213MOL0    Cl28028  11.603   6.928   6.957  0.2331  0.0882 -0.1926
  213MOL0     C28029  12.155   6.563   7.386 -0.1612  0.2381 -0.1249
  213MOL0     C28030  12.111   6.469   7.479 -0.3022  0.6030  0.1544
  213MOL0     O28031  12.190   6.219   7.596  0.0942  0.4364 -0.7454
  213MOL0     C28032  12.194   6.058   7.834  0.2990  0.6341 -0.3628
  213MOL0     C28033  12.153   5.971   7.936 -0.8582  0.0261 -0.4531
  213MOL0     N28034  11.641   5.392   8.073  0.4347  0.0920  0.1385
  213MOL0     N28035  11.553   5.314   8.131  0.0403  0.0860 -0.0012
  213MOL0     C28036  10.638   4.841   8.818 -0.4390 -0.3132  0.3718
  213MOL0     C28037  10.567   4.726   8.816  0.4820 -0.3979  0.0980
  213MOL0     C28038  10.445   4.313   8.656 -0.7408 -0.3068 -1.2694
  213MOL0     C28039  10.399   4.279   8.527 -0.0311 -0.0160  0.1645
  213MOL0     C28040  10.310   4.172   8.502 -0.2218 -0.2994  0.2387
  213MOL0     C28041  10.267   4.093   8.614 -1.0247 -0.0666  0.1389
  213MOL0     O28042  10.185   3.992   8.574  0.0662  1.0253  0.4055
  213MOL0     C28043  10.107   3.935   8.676  0.6261  0.3478  0.7610
  213MOL0     C28044  10.023   3.820   8.610  0.2466 -0.5908 -0.1825
  213MOL0     C28045   9.976   3.720   8.719  0.2619 -0.2120  0.6635
  213MOL0     C28046   9.909   3.596   8.671 -0.1241  0.1928  0.3301
  213MOL0     C28047   9.981   3.512   8.577 -0.7617  0.8907 -0.0646
  213MOL0     C28048  10.059   3.443   8.503  0.7504  0.2535  0.7131
  213MOL0     C28049  10.319   4.129   8.751 -0.8857  0.0205  0.1861
  213MOL0     C28050  10.411   4.234   8.770  0.5534 -0.0284  0.9850
  213MOL0     H28051  10.809   4.495   8.846 -0.3486 -0.6038 -0.8067
  213MOL0     H28052  10.938   4.715   8.872  0.9218 -4.1181 -0.0464
  213MOL0     H28053  10.710   5.097   8.801  0.3996  0.3296  2.9522
  213MOL0     H28054  10.775   5.017   8.657  0.0974  1.2868  0.2464
  213MOL0     H28055  10.950   5.199   8.848 -0.5853  1.2327 -0.5225
  213MOL0     H28056  10.857   5.247   8.699 -1.6891 -0.0498  1.1370
  213MOL0     H28057  10.992   5.088   8.571  1.3685 -0.0973 -0.2165
  213MOL0     H28058  11.083   5.041   8.717  3.6067  2.5056 -1.3631
  213MOL0     H28059  11.049   5.322   8.602 -0.9926 -1.4719 -0.8159
  213MOL0     H28060  11.155   5.297   8.739  2.2653  0.4911 -1.5280
  213MOL0     H28061  11.208   5.146   8.475  0.6506 -0.9516  0.0521
  213MOL0     H28062  11.302   5.136   8.623 -1.5167 -1.2045  0.1005
  213MOL0     H28063  11.340   5.380   8.617 -4.2705  0.8401 -0.8713
  213MOL0     H28064  11.275   5.383   8.452 -2.9417 -2.2944 -0.1430
  213MOL0     H28065  11.499   5.401   8.472 -0.5913  0.6268  1.9120
  213MOL0     H28066  11.527   5.264   8.568  1.9337  1.7902 -0.5347
  213MOL0     H28067  11.393   5.180   8.314  0.9155 -1.4666  0.6230
  213MOL0     H28068  11.547   5.118   8.386  2.4993  0.2598  0.8991
  213MOL0     H28069  11.760   5.345   8.378 -1.7239 -2.2230  1.8026
  213MOL0     H28070  11.896   5.467   8.059 -2.0134 -1.6309  0.1885
  213MOL0     H28071  11.946   5.463   8.223  2.0898  1.7339 -1.4033
  213MOL0     H28072  11.746   5.652   8.247 -1.6340  2.3744 -1.9438
  213MOL0     H28073  11.802   5.687   8.086 -2.1194  0.4146  1.4925
  213MOL0     H28074  11.919   5.788   8.287 -0.5890  1.5804 -0.4098
  213MOL0     H28075  12.025   5.651   8.297  0.5855  1.6106  1.9535
  213MOL0     H28076  12.029   5.717   8.033 -1.4481  0.9758  0.2320
  213MOL0     H28077  12.150   5.784   8.153  0.2690 -0.9120  1.0233
  213MOL0     H28078  11.853   6.098   8.004  0.7199 -1.7541 -0.4427
  213MOL0     H28079  11.908   6.243   7.812  0.1051  1.7076  0.9285
  213MOL0     H28080  12.234   6.606   7.761  2.1590  2.4340 -0.9190
  213MOL0     H28081  12.289   6.789   7.582 -0.7887 -0.5426  0.2795
  213MOL0     H28082  12.163   6.730   7.171 -0.2827  0.0302  3.5080
  213MOL0     H28083  12.314   6.669   7.179  3.3775  0.9729  1.5608
  213MOL0     H28084  12.410   6.889   7.159 -0.0793 -0.5802 -0.4128
  213MOL0     H28085  12.242   6.965   7.173  0.4059  0.5428 -0.5419
  213MOL0     H28086  12.366   6.801   6.948 -1.4422 -3.5677  4.2288
  213MOL0     H28087  12.352   6.984   6.945 -2.8735  1.3274  0.4859
  213MOL0     H28088  12.173   6.892   6.805 -3.6118 -2.9340  0.3044
  213MOL0     H28089  12.120   6.786   6.928 -2.1644 -0.4766 -5.9107
  213MOL0     H28090  12.080   7.085   6.919 -1.3369  1.7524  2.7013
  213MOL0     H28091  12.059   7.002   7.066  1.2582 -1.6168 -0.5018
  213MOL0     H28092  11.878   6.870   6.962 -1.5299  1.5200  1.8476
  213MOL0     H28093  11.918   6.912   6.810 -1.0522 -1.2428  0.2401
  213MOL0     H28094  11.843   7.077   7.053  0.6235  0.5611 -0.1174
  213MOL0     H28095  11.883   7.178   6.920 -2.2560  1.3294  0.9049
  213MOL0     H28096  11.716   7.055   6.776  2.5649  0.1126 -0.0651
  213MOL0     H28097  11.669   7.165   6.908  0.6812 -0.6353  2.8672
  213MOL0     H28098  12.123   6.540   7.285  2.0300  1.2998 -1.1449
  213MOL0     H28099  12.045   6.388   7.448 -1.6127  1.2790  1.0761
  213MOL0     H28100  12.287   6.045   7.779  0.8528  1.3254  0.3897
  213MOL0     H28101  12.227   5.898   7.967 -1.3481 -0.4498 -0.4069
  213MOL0     H28102  10.589   4.938   8.815  3.4040  1.8062 -1.6374
  213MOL0     H28103  10.459   4.717   8.803  0.5082  0.1085 -0.5332
  213MOL0     H28104  10.420   4.339   8.440 -3.6641  1.3486  0.0470
  213MOL0     H28105  10.273   4.153   8.401 -0.1619 -3.0451  0.6582
  213MOL0     H28106  10.039   4.009   8.720 -0.3723 -0.0621 -0.0528
  213MOL0     H28107  10.166   3.894   8.759 -1.1996 -0.7032  1.5859
  213MOL0     H28108   9.945   3.863   8.547  1.5802  1.9593 -0.2583
  213MOL0     H28109  10.076   3.752   8.543 -1.2485 -6.3410  3.7346
  213MOL0     H28110   9.911   3.769   8.792 -0.9992 -2.4657  1.1572
  213MOL0     H28111  10.060   3.692   8.783  0.5394 -2.2681 -0.5114
  213MOL0     H28112   9.909   3.543   8.767 -1.2498  2.1111  1.4471
  213MOL0     H28113   9.804   3.606   8.642  0.3970  0.8039 -1.4633
  213MOL0     H28114  10.133   3.401   8.438  0.0021 -0.5664  0.3543
  213MOL0     H28115  10.286   4.066   8.833  0.1535  2.1694  2.3671
  213MOL0     H28116  10.447   4.263   8.868 -0.2061  2.0998  0.6757
  214MOL0     O28117   9.609   8.759   1.174  0.6555 -0.5388  0.2817
  214MOL0     C28118   9.503   8.813   1.131  0.0213 -0.5475  0.1544
  214MOL0     O28119   9.409   8.901   1.204 -0.5702  0.2498 -0.3632
  214MOL0     C28120   9.441   8.938   1.329 -0.0397  0.7379  0.4938
  214MOL0     C28121   9.564   8.977   1.378  0.0331  0.5463  0.0985
  214MOL0     C28122   9.598   8.995   1.513  0.7998 -0.5722  0.7362
  214MOL0     C28123   9.498   8.978   1.614  1.0077 -0.1062  0.7538
  214MOL0     O28124   9.519   9.000   1.746  0.0037 -0.3361  0.2565
  214MOL0     C28125   9.635   8.939   1.801  1.3576  0.1789 -0.2408
  214MOL0     C28126   9.630   8.939   1.958 -0.7851  0.6979 -0.7875
  214MOL0     C28127   9.612   9.083   2.015  0.5871  0.7528  0.0154
  214MOL0     C28128   9.597   9.072   2.167 -0.5515 -0.0247 -0.3167
  214MOL0     C28129   9.535   9.198   2.225  0.5026 -1.2460  0.6646
  214MOL0     C28130   9.563   9.225   2.378  1.0715  0.2063  0.4530
  214MOL0     C28131   9.507   9.093   2.465  0.5608  0.1013  0.1704
  214MOL0     C28132   9.580   8.973   2.491  0.4433  0.3420  0.1989
  214MOL0     N28133   9.666   8.991   2.610 -0.5926 -0.5756  0.9604
  214MOL0     C28134   9.795   9.044   2.596  0.4025  0.6535 -0.2799
  214MOL0     C28135   9.858   8.994   2.699 -0.0984  0.4437 -0.7936
  214MOL0     C28136   9.994   9.039   2.744 -0.2275 -0.8496  0.5829
  214MOL0     C28137  10.006   9.048   2.901 -0.2714  0.2039  0.2691
  214MOL0     C28138  10.149   9.040   2.958  0.1511  0.8572  0.4597
  214MOL0     C28139  10.158   9.038   3.107 -0.4585  0.0198 -0.4352
  214MOL0     O28140  10.295   9.082   3.140  0.2263 -0.5521 -0.2230
  214MOL0     C28141  10.398   8.993   3.154 -0.1078 -0.2612 -0.3349
  214MOL0     C28142  10.376   8.849   3.142 -0.0983 -0.4132  0.7179
  214MOL0     C28143  10.480   8.757   3.183  0.2206 -0.4084  0.3736
  214MOL0     C28144  10.605   8.803   3.234 -0.7725 -0.4157 -0.9017
  214MOL0     C28145  10.720   8.709   3.259 -0.9028 -0.1616 -0.2459
  214MOL0     O28146  10.836   8.758   3.293 -0.2891  1.2538  0.6600
  214MOL0     C28147  10.920   8.685   3.370  0.9992  0.5577  0.0957
  214MOL0     C28148  10.887   8.579   3.459  0.1539 -1.3315  0.8651
  214MOL0     C28149  10.995   8.513   3.511 -0.5117  0.0823 -0.8556
  214MOL0     C28150  11.129   8.554   3.500 -0.1644 -0.1406 -0.2127
  214MOL0     O28151  11.242   8.488   3.543 -0.6013 -0.0664 -0.4979
  214MOL0     C28152  11.237   8.346   3.571  0.6235 -0.4608  0.0223
  214MOL0     C28153  11.389   8.314   3.589 -0.5622  0.9597 -0.0203
  214MOL0     C28154  11.418   8.182   3.667 -0.3613  0.5225 -0.6870
  214MOL0     C28155  11.381   8.187   3.818  0.1291 -0.4730 -0.0090
  214MOL0     C28156  11.392   8.058   3.886  0.1036  0.4939 -0.5602
  214MOL0     C28157  11.386   8.090   4.039 -0.0327 -0.7717  0.4460
  214MOL0     C28158  11.383   7.967   4.120  0.1890  0.6197  0.9001
  214MOL0     C28159  11.328   7.987   4.262 -0.1628 -0.6303  0.8535
  214MOL0    Cl28160  11.439   8.078   4.369 -0.2038  0.3904 -0.1858
  214MOL0     C28161  11.157   8.667   3.422  1.3536  0.0053 -0.5071
  214MOL0     C28162  11.049   8.726   3.359 -0.2362 -0.3946 -0.5079
  214MOL0     O28163  10.692   8.588   3.253 -0.6131  1.0709  0.5763
  214MOL0     C28164  10.620   8.942   3.246 -0.8456 -0.3436  0.2467
  214MOL0     C28165  10.519   9.032   3.212  0.6518  0.1813 -0.2049
  214MOL0     N28166   9.774   8.917   2.777  0.0695  0.0636  0.5050
  214MOL0     N28167   9.657   8.920   2.722  0.1467  0.2094 -0.0203
  214MOL0     C28168   9.371   8.940   1.563  0.0307  1.1194  0.3997
  214MOL0     C28169   9.346   8.915   1.427  0.5440 -0.0097 -0.2096
  214MOL0     C28170   9.477   8.773   0.995  0.5325  0.0838 -0.1889
  214MOL0     C28171   9.406   8.861   0.907 -0.1715  0.6302  0.2950
  214MOL0     C28172   9.379   8.826   0.772 -0.4121 -0.2363  0.5241
  214MOL0     C28173   9.434   8.704   0.719  1.3973  0.0995  0.1576
  214MOL0     O28174   9.410   8.658   0.594  0.5629 -0.1627 -0.5285
  214MOL0     C28175   9.355   8.729   0.481 -0.4914  0.0886  0.1608
  214MOL0     C28176   9.400   8.677   0.340 -0.0819 -0.6700 -1.2670
  214MOL0     C28177   9.334   8.732   0.218  0.0808 -0.2489  0.1779
  214MOL0     C28178   9.191   8.675   0.213 -0.8785 -0.6873 -0.2822
  214MOL0     C28179   9.149   8.659   0.075  0.7369 -0.8633 -0.4279
  214MOL0     C28180   9.120   8.646  -0.046  0.9977 -0.5626 -0.6477
  214MOL0     C28181   9.496   8.617   0.803  1.0574 -0.1429  0.8498
  214MOL0     C28182   9.517   8.649   0.934 -0.6443  0.5110 -0.1902
  214MOL0     H28183   9.649   8.973   1.311  2.1352  1.0842  2.5430
  214MOL0     H28184   9.693   9.038   1.541 -1.3145  5.1954  0.2707
  214MOL0     H28185   9.717   9.001   1.764  0.7691  1.5452  0.6620
  214MOL0     H28186   9.658   8.841   1.759 -1.6895  0.1054 -1.9962
  214MOL0     H28187   9.710   8.881   2.006 -2.0204 -0.1970  0.2455
  214MOL0     H28188   9.549   8.871   1.986  0.7586 -0.9447 -0.1056
  214MOL0     H28189   9.512   9.103   1.976  0.5124 -0.0328 -0.2114
  214MOL0     H28190   9.688   9.157   1.990  0.7709  0.2201 -1.0209
  214MOL0     H28191   9.533   8.988   2.196 -1.5371  1.4034  2.0078
  214MOL0     H28192   9.698   9.058   2.207 -1.4962 -0.9566  1.9384
  214MOL0     H28193   9.428   9.200   2.202  0.6772 -2.3147 -0.3528
  214MOL0     H28194   9.583   9.285   2.180 -1.8227 -0.2580 -0.0549
  214MOL0     H28195   9.513   9.320   2.397  0.3715 -0.4625  2.1938
  214MOL0     H28196   9.671   9.236   2.376  1.0208  0.7203 -1.7261
  214MOL0     H28197   9.460   9.117   2.560 -0.7172  0.0322 -0.4223
  214MOL0     H28198   9.416   9.068   2.409 -0.9849  3.0071  1.2007
  214MOL0     H28199   9.654   8.946   2.416  3.8146  2.5078  2.4215
  214MOL0     H28200   9.513   8.892   2.524 -1.2150  2.4985  2.5528
  214MOL0     H28201   9.837   9.128   2.541 -1.0020  0.7057 -1.3141
  214MOL0     H28202  10.024   9.137   2.706 -0.1729 -1.0343  0.1538
  214MOL0     H28203  10.063   8.963   2.706  0.2754  0.7181 -1.8846
  214MOL0     H28204   9.950   8.965   2.945  1.1455  0.2044  2.2374
  214MOL0     H28205   9.950   9.131   2.945 -1.7174 -0.2942 -0.5861
  214MOL0     H28206  10.191   8.945   2.922 -2.9821 -0.6448  0.4803
  214MOL0     H28207  10.204   9.125   2.916  1.5814  0.4450  1.4057
  214MOL0     H28208  10.125   8.947   3.158 -1.5721  1.0861  0.8512
  214MOL0     H28209  10.090   9.120   3.133  3.2708  3.3719 -0.2915
  214MOL0     H28210  10.288   8.817   3.087  1.6888 -1.9918 -1.3776
  214MOL0     H28211  10.451   8.655   3.160 -0.8773 -0.4835  1.8580
  214MOL0     H28212  10.783   8.552   3.475 -1.1527  1.9110 -1.1530
  214MOL0     H28213  10.974   8.428   3.575 -3.4001 -2.1528 -4.3333
  214MOL0     H28214  11.217   8.296   3.475  0.1069 -2.2141  1.0031
  214MOL0     H28215  11.175   8.320   3.658 -0.3012  1.9583  0.1744
  214MOL0     H28216  11.435   8.394   3.647 -3.5119  2.1621  0.8606
  214MOL0     H28217  11.429   8.307   3.488 -1.7477  1.7160 -0.5598
  214MOL0     H28218  11.527   8.170   3.665 -0.2483  0.7640  1.5678
  214MOL0     H28219  11.369   8.099   3.615  1.4540 -2.0088  1.3435
  214MOL0     H28220  11.453   8.259   3.858  0.1743 -0.6772  0.2727
  214MOL0     H28221  11.278   8.220   3.833  0.7200  3.3103 -2.6547
  214MOL0     H28222  11.487   8.016   3.851  0.0570  0.2307 -0.3633
  214MOL0     H28223  11.313   7.987   3.862 -0.6545  1.6605 -1.6386
  214MOL0     H28224  11.287   8.129   4.064 -0.1489  1.3891 -2.8194
  214MOL0     H28225  11.462   8.160   4.075  0.0123 -0.8107  0.4274
  214MOL0     H28226  11.331   7.883   4.073  5.6810 -2.8833  0.0745
  214MOL0     H28227  11.487   7.933   4.125 -0.1457 -0.2793  2.9585
  214MOL0     H28228  11.306   7.883   4.291 -5.4680 -0.4234 -1.3055
  214MOL0     H28229  11.229   8.033   4.259 -2.2327 -4.5372 -3.9219
  214MOL0     H28230  11.259   8.693   3.395  1.1263 -0.4836 -1.9365
  214MOL0     H28231  11.060   8.814   3.297 -1.7554 -1.3362 -2.2316
  214MOL0     H28232  10.718   8.986   3.261 -0.1502 -2.1339  1.3104
  214MOL0     H28233  10.527   9.141   3.214  0.2592  0.3295  4.3208
  214MOL0     H28234   9.284   8.921   1.624  0.0818 -0.8125 -0.0755
  214MOL0     H28235   9.248   8.879   1.398 -0.0724 -0.1257  1.8468
  214MOL0     H28236   9.372   8.962   0.926  0.1663  1.0052 -0.9782
  214MOL0     H28237   9.323   8.892   0.706 -2.3177 -1.7259  0.5560
  214MOL0     H28238   9.391   8.833   0.485  2.4728 -0.7234 -1.8138
  214MOL0     H28239   9.246   8.720   0.488 -1.3813  2.7012 -5.0100
  214MOL0     H28240   9.504   8.711   0.334 -0.6855  1.7578  0.3649
  214MOL0     H28241   9.398   8.568   0.353 -0.4004 -0.7399 -1.8864
  214MOL0     H28242   9.397   8.698   0.136 -1.1172 -1.5788 -0.2390
  214MOL0     H28243   9.307   8.837   0.208 -1.7796 -0.3840  2.7372
  214MOL0     H28244   9.187   8.572   0.251 -2.1641 -0.4828  0.1896
  214MOL0     H28245   9.119   8.737   0.266 -1.1918  0.6396 -2.1783
  214MOL0     H28246   9.093   8.629  -0.148 -0.1936 -1.3960 -0.2210
  214MOL0     H28247   9.517   8.517   0.768  3.0394  0.9249 -1.2658
  214MOL0     H28248   9.558   8.574   1.001 -1.7666  1.9182  2.1867
  215MOL0     O28249   4.874   4.185   1.603 -0.9115  0.0030 -0.1561
  215MOL0     C28250   4.777   4.155   1.540 -0.5625 -1.4366  0.0619
  215MOL0     O28251   4.721   4.240   1.444  0.2649 -0.6213 -0.5971
  215MOL0     C28252   4.765   4.371   1.421  0.3353 -0.5676  0.7254
  215MOL0     C28253   4.664   4.451   1.363  0.1478 -1.0522 -0.0996
  215MOL0     C28254   4.690   4.584   1.338  0.3642 -0.5960 -0.1011
  215MOL0     C28255   4.820   4.634   1.357  0.9967  0.2485  0.8131
  215MOL0     O28256   4.838   4.764   1.342 -0.0989 -0.2079  0.1431
  215MOL0     C28257   4.834   4.811   1.206 -0.2388  0.1170  0.7929
  215MOL0     C28258   4.877   4.960   1.182 -0.4217  0.3375 -0.5357
  215MOL0     C28259   4.811   5.052   1.291 -0.6918  0.0307 -0.7467
  215MOL0     C28260   4.860   5.191   1.271  0.2670  0.5110 -0.4499
  215MOL0     C28261   4.770   5.297   1.342 -0.6161  0.8922  0.1944
  215MOL0     C28262   4.737   5.264   1.486  0.6448 -0.0516  0.2463
  215MOL0     C28263   4.665   5.374   1.563 -0.9989  0.0054  0.5021
  215MOL0     C28264   4.737   5.508   1.557 -0.5211  0.4322  0.8584
  215MOL0     N28265   4.865   5.498   1.629 -0.1766 -0.3887 -0.8025
  215MOL0     C28266   4.927   5.605   1.691 -0.2241 -0.2780 -0.0337
  215MOL0     C28267   5.051   5.553   1.735  0.7958 -0.2404 -0.0224
  215MOL0     C28268   5.173   5.640   1.789  0.5825 -0.8017 -0.2687
  215MOL0     C28269   5.114   5.744   1.896  0.0021  0.1038 -0.4861
  215MOL0     C28270   5.231   5.819   1.944  0.2340  0.2153  0.2110
  215MOL0     C28271   5.196   5.948   2.023  0.1458  0.3510  0.9210
  215MOL0     O28272   5.146   6.043   1.933  0.4306 -1.1291  0.0433
  215MOL0     C28273   5.141   6.173   1.974 -0.0488 -0.0365 -0.1224
  215MOL0     C28274   5.191   6.229   2.090  0.0281 -0.3118  0.4163
  215MOL0     C28275   5.173   6.362   2.130  1.2725  0.0633  0.4664
  215MOL0     C28276   5.109   6.450   2.044 -0.0578 -0.9745  0.0765
  215MOL0     C28277   5.090   6.601   2.066 -0.2259 -0.2689 -0.1189
  215MOL0     O28278   5.113   6.639   2.200 -1.0251 -0.0268 -0.4034
  215MOL0     C28279   5.106   6.772   2.231  0.4542 -0.7059  0.4962
  215MOL0     C28280   5.226   6.852   2.248 -0.1341  0.3674 -0.1913
  215MOL0     C28281   5.224   6.979   2.291  0.6129 -0.2837 -0.9865
  215MOL0     C28282   5.105   7.047   2.315 -0.6806  0.1828  0.2760
  215MOL0     O28283   5.125   7.174   2.368  0.0602  0.0257 -0.3828
  215MOL0     C28284   5.008   7.253   2.410 -0.5504  1.1709  0.3886
  215MOL0     C28285   5.047   7.394   2.447 -0.4399  0.4230 -0.4127
  215MOL0     C28286   5.087   7.407   2.599 -0.2809 -0.4472  0.6109
  215MOL0     C28287   5.228   7.348   2.636  0.2332  0.5445 -0.3003
  215MOL0     C28288   5.300   7.417   2.740  0.0479  0.0341 -0.0956
  215MOL0     C28289   5.222   7.413   2.872  0.4432  1.2128  0.1966
  215MOL0     C28290   5.315   7.425   2.993  0.1517  0.1878  0.1694
  215MOL0     C28291   5.222   7.458   3.117  0.0974  0.1688 -0.1285
  215MOL0    Cl28292   5.090   7.332   3.122  0.3247  0.1261  0.1957
  215MOL0     C28293   4.988   6.972   2.314  0.1819 -0.8362 -0.4734
  215MOL0     C28294   4.989   6.838   2.271 -0.2214 -0.1862  0.5535
  215MOL0     O28295   5.058   6.683   1.978 -0.0141  0.3347  0.3394
  215MOL0     C28296   5.071   6.394   1.916 -0.0255 -0.2956 -0.4091
  215MOL0     C28297   5.090   6.264   1.885 -0.2467 -0.7185  0.2582
  215MOL0     N28298   5.051   5.417   1.719  0.8482 -0.7191  0.3073
  215MOL0     N28299   4.940   5.387   1.654 -0.1829  1.3331 -0.0540
  215MOL0     C28300   4.911   4.550   1.414 -0.4279  0.5059 -0.1068
  215MOL0     C28301   4.885   4.421   1.456 -0.3361 -1.1553  1.3499
  215MOL0     C28302   4.687   4.040   1.572  0.6296 -0.1882 -1.3738
  215MOL0     C28303   4.575   4.011   1.498  1.3790 -0.5168  0.0872
  215MOL0     C28304   4.495   3.903   1.538 -0.4623  0.1379 -0.1096
  215MOL0     C28305   4.516   3.839   1.665  1.1375  0.4076 -0.0306
  215MOL0     O28306   4.456   3.730   1.708  0.3959  0.4659  0.1974
  215MOL0     C28307   4.324   3.701   1.660 -0.4655 -0.0834 -0.8802
  215MOL0     C28308   4.246   3.619   1.767  0.4856  0.5517 -0.7808
  215MOL0     C28309   4.280   3.634   1.914  0.2446  0.3082 -0.2616
  215MOL0     C28310   4.252   3.776   1.948 -0.3422 -0.1990 -0.0161
  215MOL0     C28311   4.284   3.799   2.088 -0.6958  0.3145 -0.2738
  215MOL0     C28312   4.295   3.824   2.205  0.9965  0.5164 -0.4610
  215MOL0     C28313   4.636   3.871   1.737 -0.4609 -0.7962  0.3792
  215MOL0     C28314   4.723   3.969   1.688 -0.2042  0.5071 -1.1600
  215MOL0     H28315   4.567   4.416   1.330  1.0254 -0.4054 -3.7869
  215MOL0     H28316   4.612   4.642   1.291  0.7200  0.0582  0.1088
  215MOL0     H28317   4.736   4.795   1.161  0.3296  0.1767 -0.5096
  215MOL0     H28318   4.909   4.754   1.151 -1.5885 -1.3320  0.3912
  215MOL0     H28319   4.834   4.997   1.089 -0.2091  2.5400  0.1794
  215MOL0     H28320   4.986   4.966   1.172 -0.2590 -0.0137  0.7549
  215MOL0     H28321   4.824   5.012   1.392 -1.0388  0.7992 -0.3897
  215MOL0     H28322   4.702   5.048   1.282 -0.7544  1.2674 -0.7315
  215MOL0     H28323   4.956   5.206   1.322 -1.3966  3.4936  2.1649
  215MOL0     H28324   4.866   5.224   1.167 -0.0024  1.5557 -0.1534
  215MOL0     H28325   4.679   5.308   1.282 -2.8104 -0.6736  2.9420
  215MOL0     H28326   4.824   5.391   1.333  1.4454 -0.3142 -1.1386
  215MOL0     H28327   4.825   5.227   1.540  0.0066  0.0789  1.4204
  215MOL0     H28328   4.653   5.195   1.475  1.5447 -0.7437 -3.3644
  215MOL0     H28329   4.568   5.389   1.515  0.7406  0.1012 -3.4282
  215MOL0     H28330   4.646   5.351   1.668 -0.3502 -1.3511  0.3524
  215MOL0     H28331   4.682   5.587   1.609 -0.2647  1.8263 -0.8876
  215MOL0     H28332   4.761   5.546   1.458  0.0093 -1.4929  0.2151
  215MOL0     H28333   4.890   5.707   1.697 -3.4323 -1.3277 -0.2935
  215MOL0     H28334   5.207   5.689   1.697  0.7298  0.1880  0.3010
  215MOL0     H28335   5.261   5.587   1.824  0.3869 -1.5152 -0.8340
  215MOL0     H28336   5.081   5.685   1.981  2.0484 -0.7840 -0.2608
  215MOL0     H28337   5.037   5.812   1.857 -2.4992 -1.7110  1.0426
  215MOL0     H28338   5.302   5.749   1.990  0.6660 -0.4406 -1.3754
  215MOL0     H28339   5.279   5.850   1.850 -1.6856 -0.8432 -1.1905
  215MOL0     H28340   5.285   5.985   2.074 -0.6331  0.5596  2.1762
  215MOL0     H28341   5.123   5.914   2.097  1.0178 -1.1402  1.1368
  215MOL0     H28342   5.230   6.156   2.161  2.4707  1.1526  0.7231
  215MOL0     H28343   5.209   6.400   2.225  3.9466  1.1732 -0.8977
  215MOL0     H28344   5.316   6.794   2.231 -0.6375 -0.5726  0.2272
  215MOL0     H28345   5.322   7.026   2.298 -0.8448  2.9666 -0.3849
  215MOL0     H28346   4.960   7.203   2.496 -0.8225 -2.5318 -1.6916
  215MOL0     H28347   4.941   7.253   2.323  0.5300  1.6563 -0.4602
  215MOL0     H28348   4.963   7.461   2.424 -0.3239 -0.1334 -2.6553
  215MOL0     H28349   5.132   7.427   2.386 -2.4709  3.0347 -2.0448
  215MOL0     H28350   5.007   7.372   2.665 -1.2021 -2.9298 -1.6466
  215MOL0     H28351   5.101   7.515   2.612  1.7507 -0.4668 -0.9296
  215MOL0     H28352   5.208   7.246   2.670 -0.1615  0.3991 -0.9469
  215MOL0     H28353   5.286   7.350   2.544 -1.1265  0.6306 -1.1819
  215MOL0     H28354   5.306   7.523   2.713 -0.8280  0.8084  2.4814
  215MOL0     H28355   5.400   7.375   2.757 -0.2794 -0.6218  0.2341
  215MOL0     H28356   5.154   7.328   2.882 -0.4716  1.9691  0.5422
  215MOL0     H28357   5.158   7.502   2.869  1.3838  1.8769 -0.5168
  215MOL0     H28358   5.370   7.332   3.011 -2.7473 -1.3227  2.1067
  215MOL0     H28359   5.389   7.504   2.984  1.9759 -1.5566 -0.8036
  215MOL0     H28360   5.182   7.558   3.094 -0.0118 -0.0465 -0.9014
  215MOL0     H28361   5.282   7.461   3.208 -2.4583 -3.2617  1.8909
  215MOL0     H28362   4.893   7.017   2.342 -0.3865  0.6196 -4.1833
  215MOL0     H28363   4.896   6.783   2.259 -0.2429  0.3015 -1.9334
  215MOL0     H28364   5.039   6.451   1.829  1.6504 -0.8029 -1.3944
  215MOL0     H28365   5.051   6.239   1.786 -1.4971  2.3067 -0.1265
  215MOL0     H28366   5.010   4.592   1.434 -0.6236  0.8644  0.1262
  215MOL0     H28367   4.960   4.359   1.504 -0.0750  0.0713  2.6087
  215MOL0     H28368   4.551   4.072   1.411 -1.1628 -2.1557 -0.4656
  215MOL0     H28369   4.410   3.881   1.474 -0.2653  1.2813 -0.7982
  215MOL0     H28370   4.330   3.649   1.564  5.1236  0.4383 -1.1586
  215MOL0     H28371   4.271   3.796   1.643 -0.7867  0.0302  0.6432
  215MOL0     H28372   4.145   3.654   1.746 -0.5653  1.2129  4.1500
  215MOL0     H28373   4.254   3.516   1.732 -2.2657  0.5047 -1.5068
  215MOL0     H28374   4.384   3.605   1.934  0.0340 -0.2624  0.0185
  215MOL0     H28375   4.216   3.582   1.985  0.4652  1.0242  0.4816
  215MOL0     H28376   4.305   3.853   1.891 -1.5934  1.3971  0.8741
  215MOL0     H28377   4.145   3.796   1.942 -0.6173 -0.9977  1.6753
  215MOL0     H28378   4.312   3.864   2.303  0.8662  0.0767 -0.2548
  215MOL0     H28379   4.671   3.818   1.825  1.3915 -1.8001 -0.8949
  215MOL0     H28380   4.805   3.989   1.755 -1.5662  0.2728  0.6520
  216MOL0     O28381   9.069   7.107   5.512  0.0313  0.2292  0.7214
  216MOL0     C28382   9.142   7.011   5.538  0.0570 -0.0386  0.0798
  216MOL0     O28383   9.110   6.890   5.607  0.3705  0.7865  0.2574
  216MOL0     C28384   8.983   6.862   5.652 -1.0887  0.1892  0.7047
  216MOL0     C28385   8.907   6.936   5.738  0.5075 -0.1490 -0.1772
  216MOL0     C28386   8.776   6.888   5.789 -0.4422  1.0251 -0.0230
  216MOL0     C28387   8.739   6.760   5.751 -0.2841 -0.1863 -0.1793
  216MOL0     O28388   8.621   6.691   5.776 -0.4540  0.7620  0.0169
  216MOL0     C28389   8.533   6.742   5.869  0.2762 -0.2670  0.3692
  216MOL0     C28390   8.448   6.628   5.914 -0.4050 -0.7529  0.4777
  216MOL0     C28391   8.503   6.554   6.028  0.7716  0.4369  0.1735
  216MOL0     C28392   8.417   6.447   6.091 -0.9184 -0.3532  0.0920
  216MOL0     C28393   8.492   6.329   6.145  0.5466 -0.4588  0.5879
  216MOL0     C28394   8.590   6.365   6.257  0.5956 -0.4454 -0.2030
  216MOL0     C28395   8.648   6.227   6.306 -0.7332 -0.2385  0.2080
  216MOL0     C28396   8.767   6.233   6.403  0.6445  0.1529  0.9200
  216MOL0     N28397   8.726   6.264   6.539 -0.0714 -0.0414 -0.5401
  216MOL0     C28398   8.736   6.169   6.639 -0.8851  0.4217 -0.2332
  216MOL0     C28399   8.727   6.237   6.752  0.5595 -0.5542  0.0285
  216MOL0     C28400   8.708   6.184   6.896  0.5027  0.0832  1.5008
  216MOL0     C28401   8.564   6.205   6.953  0.0036  0.9930 -0.2935
  216MOL0     C28402   8.556   6.136   7.093 -0.0531 -0.5163  0.0089
  216MOL0     C28403   8.420   6.105   7.152  0.9460  0.1437 -0.0896
  216MOL0     O28404   8.414   6.001   7.256  0.1791 -0.2537 -0.3844
  216MOL0     C28405   8.453   6.051   7.378 -1.2089 -0.1816 -0.3599
  216MOL0     C28406   8.586   6.069   7.411  0.1742  1.2953  0.5147
  216MOL0     C28407   8.626   6.130   7.534  0.3791 -0.1347  0.2058
  216MOL0     C28408   8.525   6.169   7.631  0.3677  0.3528 -0.5211
  216MOL0     C28409   8.584   6.220   7.762  0.2130  0.8266  1.3855
  216MOL0     O28410   8.720   6.254   7.756 -0.3252  0.1325 -0.9525
  216MOL0     C28411   8.775   6.330   7.861  0.6039 -0.7131  0.1027
  216MOL0     C28412   8.706   6.440   7.917 -0.1704  1.2694 -0.7947
  216MOL0     C28413   8.769   6.515   8.021 -0.9100 -0.1156  0.2478
  216MOL0     C28414   8.896   6.480   8.065 -0.0721  0.0406  0.5561
  216MOL0     O28415   8.942   6.559   8.173  0.2283  0.5548  0.6475
  216MOL0     C28416   9.061   6.515   8.246 -0.2836  1.3696  0.1442
  216MOL0     C28417   9.083   6.588   8.375  0.2690 -0.5978 -0.4814
  216MOL0     C28418   9.198   6.517   8.463  0.0280 -0.6654 -0.3411
  216MOL0     C28419   9.189   6.584   8.602 -0.8547  0.4026  0.0021
  216MOL0     C28420   9.322   6.564   8.670 -0.8523 -0.3148 -0.2480
  216MOL0     C28421   9.334   6.650   8.793 -0.3915  0.4196 -0.1397
  216MOL0     C28422   9.302   6.792   8.762  0.7519 -0.8490  0.2436
  216MOL0     C28423   9.334   6.896   8.877 -0.5406  0.0441  0.3135
  216MOL0    Cl28424   9.513   6.930   8.906  0.7349 -0.2869  0.1343
  216MOL0     C28425   8.959   6.366   8.010 -0.1182 -0.8447  0.5585
  216MOL0     C28426   8.900   6.294   7.906 -0.3020 -0.7119 -0.0564
  216MOL0     O28427   8.508   6.231   7.857 -0.1519  0.4499  1.6447
  216MOL0     C28428   8.390   6.158   7.593 -0.4991  0.3614  0.1525
  216MOL0     C28429   8.350   6.094   7.468  0.8179 -0.9407 -0.4781
  216MOL0     N28430   8.713   6.366   6.718  0.1446  0.7223 -0.1168
  216MOL0     N28431   8.717   6.383   6.591  0.3465 -0.4205 -0.2286
  216MOL0     C28432   8.819   6.692   5.661 -0.1846 -0.0638  0.1899
  216MOL0     C28433   8.937   6.737   5.610  0.6006 -0.2623 -0.3725
  216MOL0     C28434   9.275   7.027   5.476  0.2210  0.5556  0.8434
  216MOL0     C28435   9.365   6.910   5.475  0.3857 -0.0783  0.8813
  216MOL0     C28436   9.498   6.920   5.425  1.3471  0.2446  0.3172
  216MOL0     C28437   9.543   7.041   5.370 -0.1232 -0.1234 -0.7591
  216MOL0     O28438   9.672   7.039   5.314 -0.8886 -0.3181  0.0940
  216MOL0     C28439   9.700   7.159   5.240 -0.4337 -0.7439 -0.1725
  216MOL0     C28440   9.839   7.126   5.178  0.6569 -0.4704 -0.6286
  216MOL0     C28441   9.888   7.246   5.093 -0.1621  0.0780  0.6259
  216MOL0     C28442  10.034   7.249   5.068 -0.9723  0.2218  0.1582
  216MOL0     C28443  10.109   7.290   5.179  0.3399 -0.2719 -0.5801
  216MOL0     C28444  10.166   7.333   5.282  0.4114 -0.1091 -0.0335
  216MOL0     C28445   9.455   7.155   5.380  0.4798  0.0918 -0.0262
  216MOL0     C28446   9.324   7.144   5.422 -0.2132 -0.1333 -0.2259
  216MOL0     H28447   8.956   7.026   5.775 -2.8448  1.4829  0.7499
  216MOL0     H28448   8.728   6.958   5.857 -3.4943 -0.8967 -0.0573
  216MOL0     H28449   8.475   6.818   5.816  1.0562 -1.4544 -2.3597
  216MOL0     H28450   8.575   6.804   5.949  0.9476 -0.0331 -0.1469
  216MOL0     H28451   8.433   6.573   5.821  1.9632  2.5901 -2.1617
  216MOL0     H28452   8.357   6.672   5.956 -0.4397  1.3206 -1.6131
  216MOL0     H28453   8.540   6.613   6.112  1.7504 -0.5547  0.4533
  216MOL0     H28454   8.594   6.509   5.988 -0.1566 -0.9971 -0.4216
  216MOL0     H28455   8.331   6.483   6.147 -1.9515  0.4982 -1.9230
  216MOL0     H28456   8.361   6.409   6.005 -0.7528  1.0608 -0.6894
  216MOL0     H28457   8.549   6.275   6.068 -0.3983 -0.7792  0.0930
  216MOL0     H28458   8.413   6.265   6.186 -2.2886  1.8675 -0.8610
  216MOL0     H28459   8.550   6.418   6.344  0.4367 -0.8187 -0.0453
  216MOL0     H28460   8.653   6.441   6.211 -0.0097  0.9923  1.2521
  216MOL0     H28461   8.564   6.167   6.343 -0.2903  0.4032  2.4417
  216MOL0     H28462   8.696   6.183   6.219  0.4941 -1.5401  1.4783
  216MOL0     H28463   8.832   6.310   6.360 -0.5207  0.4898 -0.3053
  216MOL0     H28464   8.827   6.141   6.400  1.1412  0.4975 -0.8905
  216MOL0     H28465   8.729   6.061   6.632 -2.1256  0.4714  0.0975
  216MOL0     H28466   8.775   6.236   6.965 -1.1492  1.0543  2.4470
  216MOL0     H28467   8.723   6.075   6.896 -0.5130 -0.0958 -0.4536
  216MOL0     H28468   8.492   6.151   6.891  2.6700 -1.5489 -1.3889
  216MOL0     H28469   8.534   6.311   6.958 -2.4355  0.3606 -0.2184
  216MOL0     H28470   8.592   6.035   7.071  1.4740 -1.1535  4.5496
  216MOL0     H28471   8.632   6.182   7.157 -1.6183  3.0035 -0.4027
  216MOL0     H28472   8.356   6.072   7.070  1.5048 -0.5489 -0.2584
  216MOL0     H28473   8.386   6.207   7.172  0.3007 -0.2986  1.1815
  216MOL0     H28474   8.666   6.028   7.350 -2.0930 -2.4163 -0.2608
  216MOL0     H28475   8.731   6.129   7.561  1.6020  1.6758 -3.6648
  216MOL0     H28476   8.602   6.459   7.889 -0.6112 -2.6327 -2.4301
  216MOL0     H28477   8.735   6.591   8.090  1.1492  0.2848  0.8768
  216MOL0     H28478   9.149   6.539   8.184  0.8151 -1.8814  0.2669
  216MOL0     H28479   9.074   6.407   8.254 -0.0895  1.3539 -0.3051
  216MOL0     H28480   8.987   6.570   8.426 -0.3736  2.2502 -0.5365
  216MOL0     H28481   9.106   6.695   8.369  0.7099 -0.3426  3.3046
  216MOL0     H28482   9.293   6.529   8.409  0.2559 -1.5477 -0.1568
  216MOL0     H28483   9.167   6.413   8.475  1.7136 -1.3249 -1.3196
  216MOL0     H28484   9.171   6.690   8.583 -3.4892  0.2607  1.2377
  216MOL0     H28485   9.103   6.554   8.663 -1.1851 -1.8695 -1.4510
  216MOL0     H28486   9.412   6.583   8.610 -0.5824  1.3271  0.6373
  216MOL0     H28487   9.350   6.461   8.694  0.5105  0.1105  0.1074
  216MOL0     H28488   9.433   6.644   8.839  0.9209  1.0144 -2.7366
  216MOL0     H28489   9.265   6.613   8.870  0.3110 -0.8193 -0.0818
  216MOL0     H28490   9.360   6.824   8.674 -0.1285 -0.7788 -0.3219
  216MOL0     H28491   9.196   6.798   8.739  0.6868 -3.8855 -0.6860
  216MOL0     H28492   9.287   6.847   8.963 -0.9125 -0.1198  0.0176
  216MOL0     H28493   9.285   6.989   8.846  1.9195  0.6498 -2.1632
  216MOL0     H28494   9.061   6.338   8.031 -0.0376 -0.9559  0.0468
  216MOL0     H28495   8.949   6.205   7.870  2.6317  0.4452  0.7364
  216MOL0     H28496   8.319   6.179   7.672 -1.1396  2.1696 -0.8442
  216MOL0     H28497   8.244   6.087   7.447  0.2270 -3.7531  2.6108
  216MOL0     H28498   8.786   6.592   5.634  0.1938 -0.1205 -0.0628
  216MOL0     H28499   8.993   6.676   5.540 -0.4505  1.0917 -2.5354
  216MOL0     H28500   9.333   6.808   5.494 -0.1278  0.1190  1.1051
  216MOL0     H28501   9.561   6.831   5.432  1.7174  0.4609 -0.1723
  216MOL0     H28502   9.698   7.251   5.299 -2.6199  0.8717 -2.5444
  216MOL0     H28503   9.623   7.176   5.165 -2.0512  1.9923  1.9162
  216MOL0     H28504   9.908   7.116   5.262  2.5625  3.7491 -1.4043
  216MOL0     H28505   9.849   7.036   5.116  1.8972 -0.0154 -1.1241
  216MOL0     H28506   9.876   7.344   5.140  4.2749  0.6019  1.1626
  216MOL0     H28507   9.834   7.243   4.998  0.4445 -0.3305  0.2849
  216MOL0     H28508  10.072   7.157   5.021  1.1254  0.5193  1.1383
  216MOL0     H28509  10.057   7.324   4.992  1.3691 -2.6800 -2.2960
  216MOL0     H28510  10.211   7.383   5.366  0.6241 -0.4341  0.0464
  216MOL0     H28511   9.489   7.250   5.341  0.8216 -0.0918 -0.1827
  216MOL0     H28512   9.267   7.236   5.434  1.1011  0.5517  1.1412
  217MOL0     O28513   0.515   4.549  10.989 -1.0314  0.7730  0.1887
  217MOL0     C28514   0.544   4.663  11.030 -0.3677 -0.7200  0.6530
  217MOL0     O28515   0.666   4.732  11.014 -0.4532 -0.7265  0.1624
  217MOL0     C28516   0.784   4.676  10.961  0.0556  0.2302  1.3695
  217MOL0     C28517   0.873   4.767  10.895 -0.2217  0.3392  0.0288
  217MOL0     C28518   0.994   4.727  10.842  0.9915 -0.2449  0.4315
  217MOL0     C28519   1.031   4.587  10.862  0.5582 -0.4305  1.0323
  217MOL0     O28520   1.154   4.560  10.810  0.5861  0.6843  0.0600
  217MOL0     C28521   1.219   4.435  10.840 -0.4429  0.3329 -0.5020
  217MOL0     C28522   1.345   4.429  10.753 -0.3997  0.0150  0.2936
  217MOL0     C28523   1.411   4.284  10.761  0.4837 -0.1834 -0.5974
  217MOL0     C28524   1.533   4.285  10.670  0.8459  0.1073 -0.3759
  217MOL0     C28525   1.653   4.366  10.723  0.3323 -0.5386  0.8427
  217MOL0     C28526   1.779   4.320  10.656  0.6652  0.2875  0.1475
  217MOL0     C28527   1.793   4.374  10.508  0.6047 -0.4907 -0.0724
  217MOL0     C28528   1.897   4.304  10.424  0.0611 -1.0088  0.1886
  217MOL0     N28529   1.979   4.398  10.340  0.0212  1.0818  0.0325
  217MOL0     C28530   1.970   4.421  10.203  0.1980  0.0613 -0.5595
  217MOL0     C28531   2.074   4.502  10.180 -0.0896 -0.5787  0.1346
  217MOL0     C28532   2.101   4.570  10.047 -0.2110  0.0828  0.1218
  217MOL0     C28533   2.244   4.624  10.053  0.5535 -0.1835 -1.2787
  217MOL0     C28534   2.271   4.723   9.934 -0.4018 -0.3314 -0.6374
  217MOL0     C28535   2.416   4.726   9.900  0.1829  0.0385 -0.1157
  217MOL0     O28536   2.422   4.811   9.787  0.1529  0.4822 -0.0124
  217MOL0     C28537   2.547   4.828   9.726 -0.0769  1.0170  1.1589
  217MOL0     C28538   2.560   4.925   9.625 -0.0925 -0.2773 -0.8961
  217MOL0     C28539   2.669   4.941   9.543 -0.2117  0.1433 -0.3405
  217MOL0     C28540   2.792   4.886   9.577 -0.6416 -0.3885  0.2351
  217MOL0     C28541   2.910   4.931   9.499 -0.0244  0.0675  0.0664
  217MOL0     O28542   3.031   4.893   9.549 -0.0084  1.1785  0.5051
  217MOL0     C28543   3.145   4.921   9.472 -0.4373 -0.0931 -0.3175
  217MOL0     C28544   3.147   4.909   9.329  0.2376 -0.0424  0.0686
  217MOL0     C28545   3.271   4.927   9.265 -0.2310  0.0713 -0.3766
  217MOL0     C28546   3.388   4.950   9.336 -0.1168 -0.0445  0.2830
  217MOL0     O28547   3.515   4.971   9.275  0.2850  0.3006 -0.3458
  217MOL0     C28548   3.551   4.859   9.192  0.0698 -0.0141  0.1058
  217MOL0     C28549   3.703   4.853   9.187  0.8840 -0.6864 -0.5436
  217MOL0     C28550   3.751   4.712   9.127 -0.8473  0.2116  0.4012
  217MOL0     C28551   3.710   4.679   8.983  0.5027  0.8655 -0.3174
  217MOL0     C28552   3.771   4.544   8.932  0.5462 -0.3846  0.3574
  217MOL0     C28553   3.730   4.505   8.791  0.8944 -0.5138  0.4911
  217MOL0     C28554   3.778   4.582   8.672  0.5148  0.5740 -1.0758
  217MOL0     C28555   3.702   4.596   8.542  0.7157 -0.6249  0.4651
  217MOL0    Cl28556   3.688   4.440   8.446 -0.2102 -0.2921 -0.4199
  217MOL0     C28557   3.386   4.940   9.477 -0.0139  0.1609  0.2019
  217MOL0     C28558   3.266   4.920   9.540 -1.2737 -0.3881 -0.8658
  217MOL0     O28559   2.894   5.007   9.409 -0.1683  0.8465  0.4030
  217MOL0     C28560   2.787   4.795   9.681  0.1676  0.7580 -0.4669
  217MOL0     C28561   2.663   4.756   9.752  0.0356 -0.6424 -0.5925
  217MOL0     N28562   2.110   4.549  10.306 -0.0366  0.1593 -0.7618
  217MOL0     N28563   2.060   4.485  10.401  0.2816 -0.7788 -0.4907
  217MOL0     C28564   0.937   4.496  10.921  1.1672  0.2995  0.2528
  217MOL0     C28565   0.816   4.539  10.970  0.2463 -0.2782  0.9418
  217MOL0     C28566   0.435   4.743  11.085 -0.8511 -0.3770  0.1376
  217MOL0     C28567   0.457   4.874  11.143 -0.5564  0.7825  0.8248
  217MOL0     C28568   0.349   4.947  11.200 -0.4087  0.0248 -0.5123
  217MOL0     C28569   0.220   4.889  11.203 -1.3940 -0.1779  0.1391
  217MOL0     O28570   0.121   4.951  11.278  0.1766  0.0683  0.7547
  217MOL0     C28571  -0.009   4.891  11.291  0.7320  0.0594 -1.5831
  217MOL0     C28572  -0.105   4.983  11.377 -0.2379 -0.0084 -0.4106
  217MOL0     C28573  -0.041   4.988  11.516 -0.3020  0.2218 -0.4381
  217MOL0     C28574   0.072   5.084  11.533 -0.0421  0.5321  0.7688
  217MOL0     C28575   0.124   5.075  11.668  0.1730  0.0386 -0.6455
  217MOL0     C28576   0.177   5.076  11.777 -0.1664  0.0275  0.0261
  217MOL0     C28577   0.197   4.769  11.138 -0.2448  0.1450 -0.4530
  217MOL0     C28578   0.298   4.695  11.087 -0.9177  0.4700  0.6185
  217MOL0     H28579   0.843   4.870  10.878 -2.6862 -0.2580  0.4166
  217MOL0     H28580   1.079   4.785  10.807  0.9614 -1.3389 -1.6178
  217MOL0     H28581   1.150   4.352  10.819 -0.7926 -0.2193  2.3094
  217MOL0     H28582   1.250   4.432  10.945  2.2848 -2.1827 -1.2598
  217MOL0     H28583   1.420   4.506  10.772  2.4892 -1.5035 -3.5989
  217MOL0     H28584   1.313   4.456  10.652 -1.3836  0.1707  0.6335
  217MOL0     H28585   1.343   4.204  10.731  1.6286 -0.8193 -1.5445
  217MOL0     H28586   1.441   4.270  10.866 -2.0803  3.6271  0.8769
  217MOL0     H28587   1.569   4.182  10.666 -1.2503 -0.9304  3.0986
  217MOL0     H28588   1.510   4.326  10.571  0.3556 -3.5592 -1.9531
  217MOL0     H28589   1.663   4.344  10.830  1.5759 -0.2308  0.8052
  217MOL0     H28590   1.634   4.472  10.711 -0.3647 -0.5841  1.4826
  217MOL0     H28591   1.796   4.213  10.669  3.4506  0.5442 -0.7736
  217MOL0     H28592   1.853   4.370  10.720 -0.5550 -0.0054  1.8709
  217MOL0     H28593   1.694   4.357  10.464  0.2001  0.9651  0.2236
  217MOL0     H28594   1.809   4.482  10.500 -3.2015  0.1011 -1.7508
  217MOL0     H28595   1.843   4.232  10.361 -0.5940 -0.6137  0.2922
  217MOL0     H28596   1.966   4.244  10.483  1.1145 -2.8275 -2.6707
  217MOL0     H28597   1.918   4.369  10.123  0.8335 -0.8311 -0.4078
  217MOL0     H28598   2.022   4.640  10.020 -0.2966 -1.1999 -3.6551
  217MOL0     H28599   2.091   4.507   9.957 -1.4951  1.4963 -0.7651
  217MOL0     H28600   2.317   4.544  10.042  1.1221  0.2992 -1.0580
  217MOL0     H28601   2.258   4.686  10.142 -1.6552  2.1977 -2.4258
  217MOL0     H28602   2.206   4.698   9.850 -2.3552  1.6095  0.2109
  217MOL0     H28603   2.241   4.826   9.958 -0.4331 -0.2081 -1.1972
  217MOL0     H28604   2.454   4.625   9.880 -2.0558 -0.9433  0.2543
  217MOL0     H28605   2.465   4.774   9.985 -1.9396 -0.6818  1.6227
  217MOL0     H28606   2.466   4.974   9.600 -2.8805 -4.0812  1.1610
  217MOL0     H28607   2.669   5.030   9.481  1.0943  2.6630  2.9714
  217MOL0     H28608   3.072   4.877   9.258  0.3310 -0.5579  0.1954
  217MOL0     H28609   3.274   4.940   9.157  1.4610  0.9252 -0.2544
  217MOL0     H28610   3.507   4.873   9.093  1.1966  0.3834 -0.3505
  217MOL0     H28611   3.506   4.769   9.236  0.6516 -0.9431 -1.1333
  217MOL0     H28612   3.743   4.855   9.289 -1.7086 -1.0242  0.5494
  217MOL0     H28613   3.743   4.936   9.127  3.7175 -2.0071 -0.6761
  217MOL0     H28614   3.715   4.639   9.200  3.9760 -1.2282  1.7423
  217MOL0     H28615   3.860   4.707   9.130 -0.8503 -0.5489 -0.4730
  217MOL0     H28616   3.601   4.671   8.970  0.6824  0.8171 -1.9753
  217MOL0     H28617   3.738   4.765   8.921 -0.6942  0.7471 -1.0524
  217MOL0     H28618   3.742   4.460   8.995  1.5576 -0.1440  1.1747
  217MOL0     H28619   3.879   4.532   8.945  0.5384 -1.4997 -0.4715
  217MOL0     H28620   3.625   4.510   8.760  1.1022  2.2376 -0.0583
  217MOL0     H28621   3.765   4.402   8.781  1.4840 -0.1610 -1.7708
  217MOL0     H28622   3.814   4.680   8.704 -0.5524  0.6853 -0.1416
  217MOL0     H28623   3.872   4.534   8.646  1.8092  1.6198  1.4053
  217MOL0     H28624   3.759   4.663   8.476 -1.8491  0.3645 -0.8674
  217MOL0     H28625   3.599   4.624   8.564 -0.9044 -1.3002 -4.8315
  217MOL0     H28626   3.478   4.939   9.534  1.1368 -0.2599 -1.6123
  217MOL0     H28627   3.267   4.902   9.647  1.2451 -2.8624 -1.1947
  217MOL0     H28628   2.876   4.737   9.705 -1.2672 -1.9139 -1.2705
  217MOL0     H28629   2.665   4.681   9.831  0.5635  0.8604  0.8777
  217MOL0     H28630   0.968   4.392  10.931  2.9380  0.3496 -3.1093
  217MOL0     H28631   0.749   4.455  10.986  0.3365 -1.5112 -3.6859
  217MOL0     H28632   0.560   4.906  11.145 -0.0138 -0.1838 -2.8594
  217MOL0     H28633   0.361   5.033  11.265  1.9750  1.6706 -2.8868
  217MOL0     H28634   0.000   4.796  11.344  0.0656  0.9880  0.2670
  217MOL0     H28635  -0.051   4.871  11.192 -0.5252 -2.7045 -0.6178
  217MOL0     H28636  -0.111   5.076  11.320 -0.6792  0.6864  0.7442
  217MOL0     H28637  -0.209   4.959  11.397  0.7099 -2.7572  1.9218
  217MOL0     H28638  -0.008   4.890  11.551 -0.8705  1.0943  2.8789
  217MOL0     H28639  -0.118   5.003  11.592  0.6158  0.2107  0.5218
  217MOL0     H28640   0.154   5.069  11.462 -0.4489  1.5607  0.0644
  217MOL0     H28641   0.035   5.186  11.518  2.0871  1.0721 -1.4288
  217MOL0     H28642   0.208   5.083  11.879  1.2901  3.8126 -0.5439
  217MOL0     H28643   0.103   4.715  11.139  0.7097 -1.6539 -2.0135
  217MOL0     H28644   0.279   4.597  11.045  2.1950  0.2335 -0.4740
  218MOL0     O28645   6.681   2.544   6.797 -0.5948 -0.1000  0.2122
  218MOL0     C28646   6.743   2.523   6.904 -0.3889  0.2061  0.2844
  218MOL0     O28647   6.689   2.531   7.032  0.3013  0.0783 -0.1838
  218MOL0     C28648   6.561   2.571   7.034  0.6280 -0.0725  0.2512
  218MOL0     C28649   6.531   2.679   7.114 -0.1550 -0.2983  0.4904
  218MOL0     C28650   6.404   2.734   7.133  0.4346 -0.1158 -0.9069
  218MOL0     C28651   6.292   2.670   7.089 -0.5801 -0.2426  0.8658
  218MOL0     O28652   6.168   2.719   7.109 -0.3276  0.3516 -0.4107
  218MOL0     C28653   6.076   2.709   6.999  0.1407 -0.4575 -0.1518
  218MOL0     C28654   5.977   2.834   7.012 -0.0281  0.2938 -0.1437
  218MOL0     C28655   5.829   2.793   6.980  0.5350  0.6374 -0.0663
  218MOL0     C28656   5.738   2.921   6.968  0.3214 -0.4093  1.0285
  218MOL0     C28657   5.583   2.906   6.993  0.0174 -0.2006 -0.1061
  218MOL0     C28658   5.536   3.050   7.033 -1.0835 -0.5725 -1.6575
  218MOL0     C28659   5.390   3.063   7.057 -0.1576 -0.1082  0.4706
  218MOL0     C28660   5.301   3.041   6.933 -0.0843  1.1027 -0.1712
  218MOL0     N28661   5.155   3.020   6.969 -0.3104  0.8668 -0.2514
  218MOL0     C28662   5.081   2.915   6.923 -0.8226 -0.1025  0.5314
  218MOL0     C28663   4.953   2.940   6.974 -0.1680 -0.0971  0.6459
  218MOL0     C28664   4.825   2.852   6.972 -0.5166  0.2358 -0.4589
  218MOL0     C28665   4.860   2.716   7.034 -0.6990  1.3709 -0.6066
  218MOL0     C28666   4.774   2.592   6.992 -0.1496  0.3538 -0.0679
  218MOL0     C28667   4.827   2.466   7.049 -0.1539  0.4717  0.0660
  218MOL0     O28668   4.820   2.464   7.195 -0.2948 -0.0415  0.3387
  218MOL0     C28669   4.837   2.345   7.273 -0.1715  0.1139 -0.0128
  218MOL0     C28670   4.782   2.221   7.241 -0.6321 -1.0961 -0.3143
  218MOL0     C28671   4.800   2.122   7.333 -0.2983  0.1315  0.9167
  218MOL0     C28672   4.877   2.133   7.444 -0.3661 -0.5385  0.9273
  218MOL0     C28673   4.889   2.018   7.534  0.0574  0.1706  0.6796
  218MOL0     O28674   4.803   1.911   7.524 -0.2595 -0.5783  0.3698
  218MOL0     C28675   4.831   1.799   7.601 -0.2164  0.3710 -1.1082
  218MOL0     C28676   4.825   1.677   7.535  0.8385  0.2797 -0.5482
  218MOL0     C28677   4.843   1.550   7.607 -0.6143  0.0234  0.0079
  218MOL0     C28678   4.877   1.554   7.741 -0.4402  0.0752  0.2621
  218MOL0     O28679   4.902   1.450   7.825 -0.0299  0.0339  0.1894
  218MOL0     C28680   4.825   1.331   7.804 -0.1489  0.2622  0.6329
  218MOL0     C28681   4.871   1.224   7.905 -0.1202  0.5555  0.0612
  218MOL0     C28682   4.840   1.265   8.054 -0.2188  0.1847  0.2196
  218MOL0     C28683   4.897   1.176   8.162 -0.3610 -0.1719 -0.0563
  218MOL0     C28684   5.042   1.176   8.179 -0.1661 -0.5195  0.2589
  218MOL0     C28685   5.095   1.086   8.288  0.4945 -0.1313 -0.6141
  218MOL0     C28686   5.037   1.105   8.432 -0.4113  0.1241 -0.6390
  218MOL0     C28687   5.069   1.246   8.488 -0.8722  0.2123 -0.3219
  218MOL0    Cl28688   5.235   1.259   8.553 -0.0051  0.3921 -0.3178
  218MOL0     C28689   4.878   1.675   7.805 -0.5818 -0.4222  0.9495
  218MOL0     C28690   4.857   1.799   7.734 -0.1127 -0.0580 -0.0715
  218MOL0     O28691   4.970   2.033   7.629 -0.1677 -0.1838 -0.4315
  218MOL0     C28692   4.944   2.250   7.469 -0.1852 -0.0136  0.9093
  218MOL0     C28693   4.925   2.352   7.383  0.6222  0.2314  0.5244
  218MOL0     N28694   4.955   3.061   7.041 -0.3921  0.7372 -0.3190
  218MOL0     N28695   5.075   3.105   7.040  0.8705  0.1057  0.4795
  218MOL0     C28696   6.318   2.545   7.017  0.6055  0.4866 -0.3262
  218MOL0     C28697   6.450   2.506   6.976  0.1360 -1.1415  0.2884
  218MOL0     C28698   6.856   2.423   6.891  0.3612 -0.1296 -0.0229
  218MOL0     C28699   6.889   2.322   6.983 -0.4457  0.3952 -0.3411
  218MOL0     C28700   7.017   2.250   6.979 -0.0209 -1.7343 -0.0299
  218MOL0     C28701   7.117   2.291   6.889 -0.8144  0.4648  0.2609
  218MOL0     O28702   7.243   2.243   6.901  0.0516 -0.7071 -0.6152
  218MOL0     C28703   7.338   2.234   6.793 -0.0327 -0.0743 -0.1401
  218MOL0     C28704   7.417   2.111   6.781 -0.6690 -0.2682 -0.0394
  218MOL0     C28705   7.330   1.987   6.765 -0.6876 -0.5530  0.6294
  218MOL0     C28706   7.425   1.860   6.771 -0.0048 -0.5915  0.1154
  218MOL0     C28707   7.354   1.757   6.697  0.5868  0.4184  0.4270
  218MOL0     C28708   7.298   1.672   6.629  0.7994  0.3493 -0.7293
  218MOL0     C28709   7.073   2.380   6.791 -0.6827 -0.0853 -0.0711
  218MOL0     C28710   6.948   2.450   6.792 -0.3922  0.0093  0.4091
  218MOL0     H28711   6.612   2.726   7.169 -3.5105  3.2829  2.9288
  218MOL0     H28712   6.412   2.829   7.185  0.4577 -0.2365 -0.6886
  218MOL0     H28713   6.024   2.613   7.003  1.8625 -1.4240 -0.0150
  218MOL0     H28714   6.118   2.716   6.898 -1.8096  2.4617 -0.8947
  218MOL0     H28715   6.006   2.918   6.948  2.5295  0.2791  0.8890
  218MOL0     H28716   5.993   2.872   7.114  0.1194 -0.9094  0.2945
  218MOL0     H28717   5.796   2.716   7.051  0.9562  2.3460  2.0947
  218MOL0     H28718   5.815   2.748   6.881 -1.5518  4.1092 -1.5331
  218MOL0     H28719   5.783   2.995   7.035  1.6832 -0.4945  0.2397
  218MOL0     H28720   5.748   2.971   6.871 -0.1086  0.0258  1.2064
  218MOL0     H28721   5.551   2.845   7.079  1.0644 -0.6533 -0.0277
  218MOL0     H28722   5.519   2.870   6.912 -0.0305 -2.7205  0.9289
  218MOL0     H28723   5.569   3.122   6.958  2.2296  0.3613  0.4803
  218MOL0     H28724   5.594   3.074   7.122 -0.3530 -0.2247 -2.2222
  218MOL0     H28725   5.364   2.977   7.120 -0.0714 -0.6932 -0.2793
  218MOL0     H28726   5.373   3.155   7.113  0.0948  0.8420 -0.9570
  218MOL0     H28727   5.338   2.952   6.882  1.3919  3.3119 -3.2872
  218MOL0     H28728   5.306   3.123   6.861 -2.0909  1.9485  0.5617
  218MOL0     H28729   5.111   2.828   6.865  0.9963  0.6256  0.3158
  218MOL0     H28730   4.796   2.845   6.867  1.3477  2.4492 -1.2056
  218MOL0     H28731   4.744   2.891   7.034  0.1793  0.6824  0.1953
  218MOL0     H28732   4.858   2.714   7.144 -0.4937 -2.2404 -0.5487
  218MOL0     H28733   4.963   2.687   7.011 -0.8433  0.1637  0.1370
  218MOL0     H28734   4.678   2.615   7.039 -1.1953  0.4480 -2.1273
  218MOL0     H28735   4.765   2.579   6.884  1.4397 -0.2573 -0.1548
  218MOL0     H28736   4.920   2.447   6.995 -1.0216 -0.3568 -1.1902
  218MOL0     H28737   4.751   2.394   7.018  0.9945 -2.1316  2.7893
  218MOL0     H28738   4.708   2.212   7.163 -4.1073  3.6921  1.9152
  218MOL0     H28739   4.757   2.023   7.321  0.1175 -0.6921  4.7589
  218MOL0     H28740   4.810   1.685   7.427 -2.4881 -0.1001 -0.2210
  218MOL0     H28741   4.847   1.455   7.556  0.2804  0.7643 -1.3891
  218MOL0     H28742   4.855   1.298   7.704 -1.3955  2.2659 -0.4821
  218MOL0     H28743   4.716   1.344   7.803 -0.2896 -0.8210 -0.0071
  218MOL0     H28744   4.976   1.201   7.888  0.0737  1.1759  0.3744
  218MOL0     H28745   4.814   1.133   7.885 -0.5517  0.7263  0.4795
  218MOL0     H28746   4.732   1.253   8.071 -0.1060 -0.7057  0.3676
  218MOL0     H28747   4.875   1.367   8.073  0.5906 -0.2330  1.0513
  218MOL0     H28748   4.857   1.218   8.255  2.1801  0.7493  0.6992
  218MOL0     H28749   4.863   1.075   8.139  0.5821 -0.7808  1.1041
  218MOL0     H28750   5.080   1.276   8.200  1.2552 -0.9678 -0.0835
  218MOL0     H28751   5.088   1.140   8.087  1.6395  2.7545 -0.2457
  218MOL0     H28752   5.203   1.103   8.282  0.9531 -2.5271 -0.2673
  218MOL0     H28753   5.087   0.978   8.267 -0.8823 -0.5821  1.8685
  218MOL0     H28754   4.928   1.097   8.439 -0.3162  0.2172  1.3551
  218MOL0     H28755   5.075   1.026   8.498 -0.0126 -1.1608 -2.3072
  218MOL0     H28756   5.000   1.256   8.573 -2.2031 -1.0744 -1.2065
  218MOL0     H28757   5.062   1.324   8.412 -0.2394  1.4682  0.8508
  218MOL0     H28758   4.897   1.679   7.912 -0.8378  2.2832  0.9519
  218MOL0     H28759   4.870   1.893   7.787  1.0916 -0.3024  0.0929
  218MOL0     H28760   5.014   2.264   7.551  0.4731  5.1431 -0.2055
  218MOL0     H28761   4.961   2.451   7.407  2.6327 -0.7689  1.8789
  218MOL0     H28762   6.229   2.487   6.998 -0.4317  0.5525  3.6123
  218MOL0     H28763   6.457   2.416   6.916  1.1421  1.3846 -3.7593
  218MOL0     H28764   6.812   2.304   7.057 -0.9327  1.3338 -0.5997
  218MOL0     H28765   7.031   2.169   7.050 -1.5878 -2.5724 -0.6297
  218MOL0     H28766   7.409   2.316   6.805  0.2885 -0.1010 -1.6230
  218MOL0     H28767   7.288   2.254   6.698 -1.0607  3.3395  0.9740
  218MOL0     H28768   7.485   2.119   6.696  1.3813 -0.4580  1.5114
  218MOL0     H28769   7.470   2.102   6.876 -0.5945 -2.1956 -0.2231
  218MOL0     H28770   7.268   1.992   6.675 -3.8927 -0.4086  2.6932
  218MOL0     H28771   7.253   1.996   6.843 -0.0114 -0.2754  1.2737
  218MOL0     H28772   7.521   1.862   6.718 -0.5440 -0.6912 -0.8972
  218MOL0     H28773   7.442   1.837   6.876 -0.6715 -0.3268  0.2895
  218MOL0     H28774   7.258   1.586   6.578 -1.5030  1.7364 -1.4320
  218MOL0     H28775   7.149   2.392   6.715 -0.9152 -1.3111 -0.5213
  218MOL0     H28776   6.926   2.530   6.721 -0.2303  2.9933  3.4507
  219MOL0     O28777   1.449   4.032   5.754 -0.0074 -1.2241  0.2677
  219MOL0     C28778   1.492   4.009   5.641  1.2526 -0.0384 -0.5021
  219MOL0     O28779   1.450   3.907   5.563  0.5361 -0.5157  0.1401
  219MOL0     C28780   1.361   3.809   5.610  0.4857 -0.4075  1.0752
  219MOL0     C28781   1.342   3.773   5.746 -0.4520  0.7726 -0.0449
  219MOL0     C28782   1.239   3.688   5.786  0.5405  0.4887 -0.1174
  219MOL0     C28783   1.147   3.638   5.697 -0.2927  1.2880  0.4366
  219MOL0     O28784   1.052   3.551   5.737 -0.5291 -0.7815  0.6571
  219MOL0     C28785   1.063   3.418   5.684 -0.6179  0.0244 -0.0700
  219MOL0     C28786   0.916   3.371   5.651  1.1289 -0.0993 -0.3323
  219MOL0     C28787   0.866   3.448   5.526  0.4130 -0.7993  0.2202
  219MOL0     C28788   0.724   3.415   5.498 -0.5106 -0.3268  0.8505
  219MOL0     C28789   0.675   3.444   5.357  0.5619  0.0174  0.0931
  219MOL0     C28790   0.718   3.330   5.266 -0.4292 -0.2328  0.7721
  219MOL0     C28791   0.652   3.320   5.127 -1.2615 -0.3114 -0.6191
  219MOL0     C28792   0.681   3.433   5.028  0.3285 -0.2520 -0.1229
  219MOL0     N28793   0.825   3.442   4.974  0.2110 -0.3111 -0.3986
  219MOL0     C28794   0.909   3.552   4.985 -0.9354  0.1331 -0.3192
  219MOL0     C28795   1.012   3.528   4.894  0.2225 -0.1477 -0.1640
  219MOL0     C28796   1.129   3.608   4.855  0.3038 -0.3133  0.1047
  219MOL0     C28797   1.228   3.623   4.965 -0.1220  0.2466  0.0919
  219MOL0     C28798   1.351   3.694   4.929 -0.4581 -0.3315  0.3570
  219MOL0     C28799   1.457   3.691   5.032  0.2667  0.7177 -0.3552
  219MOL0     O28800   1.577   3.721   4.962 -0.3522 -0.0418  1.0114
  219MOL0     C28801   1.693   3.729   5.030  0.2040 -0.9537  0.8493
  219MOL0     C28802   1.716   3.703   5.167  0.2228 -0.7111 -0.4669
  219MOL0     C28803   1.832   3.764   5.230  1.1028 -1.0263  0.1103
  219MOL0     C28804   1.926   3.845   5.154 -0.2412  0.7909 -1.0049
  219MOL0     C28805   2.032   3.942   5.220  0.3210  0.6413 -0.2042
  219MOL0     O28806   2.039   3.935   5.358 -0.3116 -0.2708  0.0107
  219MOL0     C28807   2.090   4.028   5.444 -0.9108  0.2762  0.2888
  219MOL0     C28808   2.102   3.973   5.568  0.8191 -0.0722  0.3790
  219MOL0     C28809   2.142   4.045   5.683  0.4496  0.0408 -0.5596
  219MOL0     C28810   2.169   4.182   5.674  0.3899 -0.5285  0.2840
  219MOL0     O28811   2.192   4.238   5.799 -0.5314  0.4664  0.7166
  219MOL0     C28812   2.228   4.371   5.806  0.9072 -0.7337 -0.5641
  219MOL0     C28813   2.104   4.464   5.791  0.0611 -0.1648  0.4155
  219MOL0     C28814   2.005   4.427   5.906  0.9846  0.1834  0.0452
  219MOL0     C28815   1.906   4.539   5.932 -0.4564 -0.2602  0.7044
  219MOL0     C28816   1.802   4.509   6.042  0.3719 -0.9166  0.7982
  219MOL0     C28817   1.707   4.630   6.060 -0.4912 -0.4058  0.7271
  219MOL0     C28818   1.659   4.647   6.205  0.8066 -0.3793 -0.5623
  219MOL0     C28819   1.548   4.746   6.225 -0.8800 -0.0616 -0.7526
  219MOL0    Cl28820   1.446   4.707   6.368  0.2394  0.5915 -0.1062
  219MOL0     C28821   2.154   4.239   5.543  0.2705 -0.2310 -0.3199
  219MOL0     C28822   2.121   4.166   5.426  0.6051 -0.5085  0.7337
  219MOL0     O28823   2.083   4.023   5.151  0.1187  0.5130 -0.1217
  219MOL0     C28824   1.906   3.839   5.013 -0.2716 -0.6317 -0.3979
  219MOL0     C28825   1.795   3.783   4.953 -0.5597  0.5198 -0.9309
  219MOL0     N28826   0.977   3.412   4.825  0.7168  0.6572 -0.1637
  219MOL0     N28827   0.868   3.368   4.864  0.6537 -0.3965 -0.3657
  219MOL0     C28828   1.164   3.672   5.560 -0.8699 -0.6211  0.0879
  219MOL0     C28829   1.270   3.756   5.523 -0.2774 -0.4284  0.8367
  219MOL0     C28830   1.609   4.091   5.594 -0.2230  0.1409 -0.0331
  219MOL0     C28831   1.647   4.198   5.666 -0.7800  0.0753 -0.3797
  219MOL0     C28832   1.739   4.283   5.618  0.5115 -0.8882 -0.2841
  219MOL0     C28833   1.791   4.286   5.490 -0.6154  0.0807  0.5691
  219MOL0     O28834   1.880   4.369   5.439  0.3853 -0.0715  0.3747
  219MOL0     C28835   1.872   4.407   5.303 -0.7984 -0.3954  0.1985
  219MOL0     C28836   1.987   4.509   5.285  0.5621 -0.0318  0.0061
  219MOL0     C28837   1.947   4.656   5.307  0.5163  0.5692 -0.8064
  219MOL0     C28838   2.054   4.763   5.311  0.1063  0.8375 -0.0909
  219MOL0     C28839   2.162   4.739   5.205  0.4015  0.3135  0.8822
  219MOL0     C28840   2.242   4.723   5.116  0.6723  0.1192 -0.9220
  219MOL0     C28841   1.770   4.164   5.417  0.8657  0.5973 -0.1505
  219MOL0     C28842   1.668   4.071   5.466 -0.6538 -0.5157  0.3403
  219MOL0     H28843   1.401   3.813   5.828 -0.8607  0.2093  0.5339
  219MOL0     H28844   1.221   3.658   5.889 -0.5749 -0.5901 -0.5970
  219MOL0     H28845   1.092   3.359   5.771 -1.0945 -0.1238 -0.0091
  219MOL0     H28846   1.138   3.407   5.605  0.8095  1.1274  1.0951
  219MOL0     H28847   0.846   3.395   5.732 -1.0535 -0.0793 -2.1494
  219MOL0     H28848   0.918   3.267   5.618  1.6783 -0.6053  1.1832
  219MOL0     H28849   0.926   3.407   5.445  1.1526 -1.4841  1.0961
  219MOL0     H28850   0.875   3.557   5.522  0.4827 -0.7296  1.6614
  219MOL0     H28851   0.699   3.310   5.511  1.6438 -1.0538 -0.3944
  219MOL0     H28852   0.661   3.479   5.561 -5.2781 -0.4229 -3.1893
  219MOL0     H28853   0.697   3.545   5.320 -1.5674  0.3919 -0.2914
  219MOL0     H28854   0.566   3.430   5.351  0.7978 -2.3247  0.5126
  219MOL0     H28855   0.696   3.241   5.324  0.2263 -3.4807 -3.4665
  219MOL0     H28856   0.827   3.329   5.256 -0.4421  1.6917 -0.0314
  219MOL0     H28857   0.678   3.227   5.076 -1.5901  0.4159 -2.1670
  219MOL0     H28858   0.542   3.315   5.127 -1.3636  0.3489 -3.1652
  219MOL0     H28859   0.652   3.516   5.093 -1.5910 -0.9018 -0.0754
  219MOL0     H28860   0.613   3.436   4.942  0.1119  2.3264  0.0569
  219MOL0     H28861   0.891   3.638   5.050 -1.1449 -0.0651 -0.1121
  219MOL0     H28862   1.095   3.710   4.836 -1.7805 -0.3370  2.9657
  219MOL0     H28863   1.163   3.565   4.760 -1.1884 -0.9280 -0.1842
  219MOL0     H28864   1.245   3.523   5.005  0.3757  0.4799  0.4735
  219MOL0     H28865   1.182   3.679   5.047  2.2199 -1.6544  2.9127
  219MOL0     H28866   1.391   3.650   4.838  2.1191 -0.6121  1.5261
  219MOL0     H28867   1.322   3.796   4.900  1.3703 -0.6355 -2.9732
  219MOL0     H28868   1.473   3.592   5.075 -2.5142 -0.3894 -1.5976
  219MOL0     H28869   1.432   3.761   5.112 -2.3979  0.2284 -0.6575
  219MOL0     H28870   1.632   3.669   5.227  2.8550 -1.4121  3.1684
  219MOL0     H28871   1.846   3.751   5.337  1.5831 -1.9325 -0.0534
  219MOL0     H28872   2.080   3.868   5.585 -1.0587  0.1176 -0.6191
  219MOL0     H28873   2.159   3.992   5.776 -2.2545 -1.7706 -0.9968
  219MOL0     H28874   2.315   4.384   5.741  2.4398 -1.4773  1.2174
  219MOL0     H28875   2.285   4.391   5.898  1.0799 -2.8251 -0.1473
  219MOL0     H28876   2.077   4.448   5.686  0.0789  1.9099  0.0591
  219MOL0     H28877   2.127   4.569   5.808 -3.7415  0.5758  1.8788
  219MOL0     H28878   2.060   4.420   6.000  2.3776  0.7239 -0.6946
  219MOL0     H28879   1.957   4.332   5.881  1.3253 -0.0270  0.1766
  219MOL0     H28880   1.966   4.625   5.963  2.2721 -1.6555 -0.3353
  219MOL0     H28881   1.867   4.569   5.835  0.9891 -0.6636 -0.0302
  219MOL0     H28882   1.857   4.495   6.135  1.9693  0.1762  0.0663
  219MOL0     H28883   1.751   4.417   6.012  1.9779 -1.0845 -1.7646
  219MOL0     H28884   1.626   4.617   5.987  0.1346  2.0270 -0.5189
  219MOL0     H28885   1.765   4.719   6.033  2.4045 -2.7959 -1.6407
  219MOL0     H28886   1.628   4.544   6.222  0.0324  0.5027  5.4828
  219MOL0     H28887   1.735   4.662   6.281 -0.3585  0.8806  0.4042
  219MOL0     H28888   1.483   4.730   6.138  0.4712  0.7661 -1.9615
  219MOL0     H28889   1.591   4.847   6.227  3.7912 -1.7785 -2.1403
  219MOL0     H28890   2.164   4.347   5.542 -1.9672  0.0465  1.1311
  219MOL0     H28891   2.116   4.217   5.331  0.4551 -3.0024 -0.6774
  219MOL0     H28892   1.971   3.884   4.938 -0.3013 -1.0905 -0.7023
  219MOL0     H28893   1.786   3.804   4.847 -2.4766  2.2648 -0.4688
  219MOL0     H28894   1.105   3.637   5.475  2.3934  3.1328 -4.2871
  219MOL0     H28895   1.290   3.776   5.418  0.2395  0.4463  1.0920
  219MOL0     H28896   1.602   4.234   5.757 -0.5004  1.5084 -0.7811
  219MOL0     H28897   1.769   4.368   5.679 -1.1238  0.2219 -0.9424
  219MOL0     H28898   1.774   4.448   5.276 -1.4856 -4.2531 -4.6258
  219MOL0     H28899   1.876   4.321   5.235  1.6072  0.1804 -0.4706
  219MOL0     H28900   2.063   4.494   5.362  3.1673  0.6986 -2.2518
  219MOL0     H28901   2.024   4.504   5.182 -0.6323  3.3644 -0.7118
  219MOL0     H28902   1.893   4.661   5.402 -1.8871  2.2596 -2.1717
  219MOL0     H28903   1.879   4.687   5.228  2.6137  0.3955 -2.7833
  219MOL0     H28904   2.005   4.857   5.287  0.8187  0.7141 -2.2605
  219MOL0     H28905   2.098   4.765   5.411 -0.0355 -2.7520  0.1913
  219MOL0     H28906   2.332   4.710   5.059  1.0057 -2.7854  0.1299
  219MOL0     H28907   1.843   4.145   5.339  0.7922 -0.6259  0.0542
  219MOL0     H28908   1.642   3.995   5.393  3.2362 -1.4081 -0.3525
  220MOL0     O28909   2.024   1.741  10.805 -0.5197 -0.2743 -0.3008
  220MOL0     C28910   1.913   1.698  10.793  0.1606  0.7852 -0.3607
  220MOL0     O28911   1.882   1.575  10.744 -0.2897  0.6705 -0.5466
  220MOL0     C28912   1.996   1.509  10.700 -0.1768  1.1063 -0.6943
  220MOL0     C28913   2.057   1.551  10.576  0.0522  0.9341  1.1497
  220MOL0     C28914   2.160   1.473  10.520 -0.3955  0.1875 -0.2787
  220MOL0     C28915   2.239   1.386  10.598  0.9620 -0.0104  0.7063
  220MOL0     O28916   2.352   1.332  10.539  0.0100 -0.0953  0.6474
  220MOL0     C28917   2.452   1.276  10.623 -0.5166  0.4779  0.2276
  220MOL0     C28918   2.597   1.296  10.564  0.8125  0.1280  0.1585
  220MOL0     C28919   2.618   1.234  10.422 -0.0212  0.1331 -0.5184
  220MOL0     C28920   2.751   1.249  10.357 -0.5545 -0.5621 -1.1462
  220MOL0     C28921   2.735   1.191  10.216 -0.6267 -0.1060  0.3067
  220MOL0     C28922   2.878   1.202  10.140 -0.4816  0.1860 -0.1596
  220MOL0     C28923   2.974   1.095  10.195  0.2123  0.9162  0.0418
  220MOL0     C28924   3.120   1.142  10.156  0.5705 -0.6449  1.0316
  220MOL0     N28925   3.139   1.172  10.019 -0.4197  0.3248  0.2214
  220MOL0     C28926   3.161   1.073   9.921  0.0660 -1.0551 -0.4721
  220MOL0     C28927   3.182   1.148   9.810 -0.3481  0.0933  0.6152
  220MOL0     C28928   3.196   1.092   9.662 -0.2070  0.8402 -0.3582
  220MOL0     C28929   3.078   1.004   9.617  1.0746 -0.5858 -0.4982
  220MOL0     C28930   2.943   1.073   9.622  0.5266  0.0488 -0.0073
  220MOL0     C28931   2.941   1.205   9.550  0.1572  0.3738  0.8605
  220MOL0     O28932   2.807   1.257   9.563 -0.7597 -0.2946 -1.0056
  220MOL0     C28933   2.760   1.305   9.681  0.3681 -0.2979 -0.0288
  220MOL0     C28934   2.851   1.343   9.778 -0.0596  0.5215 -0.0956
  220MOL0     C28935   2.821   1.425   9.882 -1.1157  0.7385  0.2715
  220MOL0     C28936   2.684   1.450   9.904  1.1416 -0.0418 -0.5405
  220MOL0     C28937   2.634   1.503  10.029  0.6768  0.3344 -0.7168
  220MOL0     O28938   2.501   1.511  10.059  0.5668 -0.5707  0.3949
  220MOL0     C28939   2.466   1.579  10.174 -0.0260 -0.5324 -0.5267
  220MOL0     C28940   2.368   1.677  10.155  0.2865  0.1768  0.8734
  220MOL0     C28941   2.310   1.739  10.261  0.7291  0.1753 -0.3035
  220MOL0     C28942   2.353   1.712  10.392 -0.0366  0.4802  0.7692
  220MOL0     O28943   2.282   1.783  10.490 -0.5324 -0.0178  0.3600
  220MOL0     C28944   2.309   1.782  10.636 -0.0790 -0.3419  0.1197
  220MOL0     C28945   2.398   1.896  10.678  0.3379  0.4605 -0.6876
  220MOL0     C28946   2.427   1.912  10.832  1.1770  0.0944 -0.6753
  220MOL0     C28947   2.292   1.962  10.899 -0.3660 -0.8318 -0.6995
  220MOL0     C28948   2.302   1.979  11.058 -0.8552  0.3062 -0.0253
  220MOL0     C28949   2.422   2.071  11.095  0.2250 -0.0799 -0.9817
  220MOL0     C28950   2.425   2.103  11.247 -1.5533  0.2508 -1.0639
  220MOL0     C28951   2.552   2.186  11.277  0.0914  0.2064 -0.3493
  220MOL0    Cl28952   2.555   2.331  11.198 -0.2315  0.3045  0.3407
  220MOL0     C28953   2.465   1.624  10.412 -0.5665 -0.2914  0.7762
  220MOL0     C28954   2.520   1.553  10.299  0.4345 -0.1348  0.3638
  220MOL0     O28955   2.721   1.542  10.112  0.2711 -1.1636  0.0139
  220MOL0     C28956   2.588   1.402   9.805  0.8631 -0.1516 -0.5117
  220MOL0     C28957   2.626   1.334   9.694 -0.5082 -0.2384  0.0264
  220MOL0     N28958   3.185   1.280   9.834 -1.0545  0.2519 -0.0221
  220MOL0     N28959   3.158   1.303   9.967 -0.2275 -0.4535 -0.4552
  220MOL0     C28960   2.184   1.351  10.729  0.1474  0.9860  0.5719
  220MOL0     C28961   2.064   1.407  10.773 -0.8247 -0.0037  0.4916
  220MOL0     C28962   1.810   1.768  10.864  0.8163 -0.9383  0.8266
  220MOL0     C28963   1.693   1.701  10.917 -0.5526 -0.3266 -0.7032
  220MOL0     C28964   1.585   1.773  10.975 -0.5527  0.4374 -0.5413
  220MOL0     C28965   1.596   1.903  10.993  0.5415 -1.1619 -0.1175
  220MOL0     O28966   1.487   1.969  11.048  0.0871  0.3187 -0.0417
  220MOL0     C28967   1.510   2.104  11.089 -0.0273 -0.4145 -0.6651
  220MOL0     C28968   1.381   2.163  11.140 -0.4503 -0.2213  0.5569
  220MOL0     C28969   1.322   2.095  11.261  0.1653 -0.5775 -0.3491
  220MOL0     C28970   1.282   2.188  11.374 -0.6638  0.9766  0.2184
  220MOL0     C28971   1.409   2.208  11.451  0.2175 -0.2970 -0.0142
  220MOL0     C28972   1.519   2.246  11.486 -0.6085  1.1460  0.2233
  220MOL0     C28973   1.715   1.971  10.951  0.1889 -0.0467  0.3387
  220MOL0     C28974   1.816   1.905  10.890 -0.0000  0.2973  1.0271
  220MOL0     H28975   2.003   1.619  10.511 -0.6039 -1.5083 -1.0399
  220MOL0     H28976   2.180   1.479  10.414  1.3784 -2.7586 -0.2153
  220MOL0     H28977   2.450   1.171  10.654 -0.2120 -0.0213 -1.3158
  220MOL0     H28978   2.450   1.330  10.718 -4.1340  3.7708 -1.4660
  220MOL0     H28979   2.678   1.252  10.624  1.5509  0.8320 -0.3058
  220MOL0     H28980   2.619   1.402  10.549 -0.0435  0.3448  0.4029
  220MOL0     H28981   2.541   1.271  10.352  1.0756  1.0455 -1.2842
  220MOL0     H28982   2.596   1.128  10.435  2.9703 -0.4221  0.7862
  220MOL0     H28983   2.780   1.355  10.351 -0.2297 -0.3461  2.2503
  220MOL0     H28984   2.818   1.197  10.427 -0.5939  1.0288  0.1411
  220MOL0     H28985   2.654   1.233  10.156  0.7801  2.2280 -0.1259
  220MOL0     H28986   2.713   1.085  10.230 -2.2199  0.3401  1.4331
  220MOL0     H28987   2.922   1.302  10.155  0.4112 -0.5776  3.4388
  220MOL0     H28988   2.875   1.201  10.031 -0.4129  0.4414 -0.1653
  220MOL0     H28989   2.963   1.081  10.303 -0.3895  1.6319  0.0807
  220MOL0     H28990   2.963   0.994  10.153 -1.2066  0.1184  2.1214
  220MOL0     H28991   3.205   1.075  10.171  0.8188 -1.6607 -3.4879
  220MOL0     H28992   3.146   1.230  10.215 -1.1874 -1.8591  3.8353
  220MOL0     H28993   3.159   0.965   9.912  3.0474 -1.1729 -0.9578
  220MOL0     H28994   3.282   1.025   9.656 -1.1602 -0.3314 -2.6121
  220MOL0     H28995   3.204   1.176   9.592 -0.5053  0.1437 -1.2567
  220MOL0     H28996   3.074   0.910   9.674 -1.7052 -1.1945 -1.5355
  220MOL0     H28997   3.096   0.973   9.514  2.6232  0.1264 -0.4629
  220MOL0     H28998   2.873   1.005   9.572  0.7165  0.5283 -0.9508
  220MOL0     H28999   2.921   1.090   9.728 -0.7708 -1.4305 -0.0040
  220MOL0     H29000   2.969   1.189   9.446  0.8494 -0.3707  1.1512
  220MOL0     H29001   3.020   1.274   9.582  0.6668  1.2582 -2.0505
  220MOL0     H29002   2.956   1.317   9.769  0.0159 -0.1395  2.0563
  220MOL0     H29003   2.902   1.450   9.950  1.0014 -4.2830  0.0726
  220MOL0     H29004   2.330   1.687  10.054 -1.4268  1.1127  1.5682
  220MOL0     H29005   2.237   1.814  10.233  2.2593  1.4195 -1.1006
  220MOL0     H29006   2.354   1.685  10.658 -0.0517 -0.2232  0.6000
  220MOL0     H29007   2.217   1.778  10.694  0.4148  0.0947  0.9499
  220MOL0     H29008   2.354   1.989  10.641 -2.3516 -0.1425  0.6993
  220MOL0     H29009   2.490   1.888  10.620 -0.3924  1.0521 -1.9615
  220MOL0     H29010   2.505   1.986  10.851  1.6275 -1.0443  2.4823
  220MOL0     H29011   2.455   1.818  10.880 -0.8146  0.5153  1.4731
  220MOL0     H29012   2.272   2.061  10.856 -1.2210 -0.6746  0.0280
  220MOL0     H29013   2.210   1.896  10.873 -0.8025 -0.8920  0.7346
  220MOL0     H29014   2.334   1.887  11.108 -0.2437  0.3266 -0.3673
  220MOL0     H29015   2.208   2.010  11.103  0.1809  0.1578  2.3972
  220MOL0     H29016   2.414   2.158  11.029 -3.4056 -0.5896 -1.4271
  220MOL0     H29017   2.512   2.017  11.068  0.8131  0.5597 -0.3558
  220MOL0     H29018   2.331   2.147  11.282  0.6296  1.3336  4.5174
  220MOL0     H29019   2.430   2.010  11.305 -0.2125  0.4797 -0.7774
  220MOL0     H29020   2.643   2.140  11.236  0.8769  2.4403 -1.2488
  220MOL0     H29021   2.556   2.202  11.385 -0.2382 -1.0061 -0.1362
  220MOL0     H29022   2.504   1.601  10.510  5.5989 -2.4850 -1.6906
  220MOL0     H29023   2.599   1.478  10.304  0.1756 -0.4097  0.3531
  220MOL0     H29024   2.487   1.434   9.826  1.7185  2.8344 -0.5861
  220MOL0     H29025   2.573   1.317   9.600  1.7635 -0.3172 -1.3019
  220MOL0     H29026   2.245   1.285  10.789  0.2469 -3.1695 -3.5711
  220MOL0     H29027   2.037   1.383  10.875  1.2843 -2.9126  0.4989
  220MOL0     H29028   1.669   1.596  10.900  0.8820 -0.6125 -1.0804
  220MOL0     H29029   1.493   1.718  10.991  1.0767 -1.9101  1.3644
  220MOL0     H29030   1.530   2.171  11.005 -1.1026  1.2110  0.3096
  220MOL0     H29031   1.592   2.123  11.160  3.0714  0.4254 -4.1486
  220MOL0     H29032   1.380   2.268  11.170 -0.2675  0.0545 -0.3796
  220MOL0     H29033   1.305   2.162  11.061 -3.3293  2.2564  3.0459
  220MOL0     H29034   1.397   2.024  11.299 -1.8777 -1.3868  2.5960
  220MOL0     H29035   1.234   2.042  11.224  1.2156 -0.2944 -3.5096
  220MOL0     H29036   1.241   2.286  11.349  2.7930  2.8230  1.0933
  220MOL0     H29037   1.218   2.147  11.452 -1.7444 -0.1173 -1.1774
  220MOL0     H29038   1.605   2.294  11.526 -0.5994  0.8208  0.6040
  220MOL0     H29039   1.727   2.078  10.963  0.8853  0.3104 -2.6607
  220MOL0     H29040   1.903   1.962  10.861  1.4495 -1.4449  1.7915
  221MOL0     O29041  10.449   0.076   2.641 -0.2632 -0.1406  0.4415
  221MOL0     C29042  10.427   0.071   2.522 -0.2082  0.3046 -0.1365
  221MOL0     O29043  10.320   0.009   2.464  1.2841  0.5905  0.7059
  221MOL0     C29044  10.228  -0.064   2.527 -0.6009 -0.5082 -0.0359
  221MOL0     C29045  10.105  -0.074   2.471  0.2597  0.6829 -0.4166
  221MOL0     C29046  10.003  -0.152   2.531 -0.1142  0.1567  0.0759
  221MOL0     C29047  10.028  -0.223   2.648  1.3960 -0.1412  0.6557
  221MOL0     O29048   9.921  -0.287   2.702  0.5925 -0.3946 -0.2609
  221MOL0     C29049   9.895  -0.276   2.848 -0.4795  0.5692 -0.0628
  221MOL0     C29050   9.765  -0.352   2.878  0.5712  0.5105  0.1785
  221MOL0     C29051   9.779  -0.506   2.855  0.3375 -0.1188  0.2376
  221MOL0     C29052   9.846  -0.590   2.965 -0.0185 -0.4448 -0.2412
  221MOL0     C29053   9.996  -0.606   2.932  1.0533 -0.3252 -0.5956
  221MOL0     C29054  10.022  -0.699   2.807  0.1368  0.2864 -0.0431
  221MOL0     C29055  10.180  -0.698   2.777  0.7111  0.5865  0.6561
  221MOL0     C29056  10.196  -0.768   2.640 -0.0156 -0.1408 -0.6139
  221MOL0     N29057  10.325  -0.806   2.608 -0.0014 -0.5515 -0.0728
  221MOL0     C29058  10.409  -0.747   2.518  0.1957  0.1343  0.0956
  221MOL0     C29059  10.527  -0.816   2.533  0.8518 -0.8602 -0.5348
  221MOL0     C29060  10.641  -0.784   2.439  1.0956 -0.3423  0.0443
  221MOL0     C29061  10.669  -0.902   2.348  0.2493 -0.5086  0.9932
  221MOL0     C29062  10.737  -0.871   2.211 -1.1910 -0.6837 -0.1954
  221MOL0     C29063  10.847  -0.969   2.162  0.7019 -0.2795  0.1731
  221MOL0     O29064  10.788  -1.091   2.101 -1.2093 -0.3840  0.2534
  221MOL0     C29065  10.744  -1.089   1.975  0.5303  0.4973  0.2345
  221MOL0     C29066  10.732  -0.976   1.892  0.1945 -1.1478  0.2223
  221MOL0     C29067  10.703  -0.989   1.755  1.1110 -0.6664  0.1866
  221MOL0     C29068  10.657  -1.107   1.708 -0.7780  0.1015  0.8080
  221MOL0     C29069  10.631  -1.119   1.567 -0.1453  0.1711  0.0031
  221MOL0     O29070  10.637  -1.000   1.492 -0.1878 -0.3242 -0.4647
  221MOL0     C29071  10.642  -0.993   1.353 -0.3451 -1.1521 -0.3510
  221MOL0     C29072  10.740  -1.053   1.282  0.4491  1.2760 -0.4298
  221MOL0     C29073  10.764  -1.023   1.144 -0.3257  0.3334  0.8290
  221MOL0     C29074  10.659  -0.947   1.075 -0.2496  0.4508  0.1136
  221MOL0     O29075  10.685  -0.913   0.945 -0.1857  0.5885 -0.5010
  221MOL0     C29076  10.623  -0.995   0.841 -0.2397  0.6047  0.8839
  221MOL0     C29077  10.555  -0.908   0.733  0.2893  0.4625  0.3636
  221MOL0     C29078  10.418  -0.855   0.785 -0.4960 -0.0667  0.1982
  221MOL0     C29079  10.328  -0.799   0.679  0.5336 -0.6770  0.2303
  221MOL0     C29080  10.188  -0.770   0.735  0.0477  0.1364 -0.0582
  221MOL0     C29081  10.109  -0.681   0.643  0.1589 -0.7541 -0.4586
  221MOL0     C29082   9.972  -0.647   0.699  0.1264 -0.9381 -0.2911
  221MOL0     C29083   9.905  -0.564   0.601  0.1513 -0.2901  0.6131
  221MOL0    Cl29084   9.986  -0.408   0.611  0.1476  0.0483 -0.0077
  221MOL0     C29085  10.549  -0.890   1.155  0.7931  0.5148  0.1915
  221MOL0     C29086  10.547  -0.912   1.291 -0.6779  0.0073 -0.2830
  221MOL0     O29087  10.616  -1.236   1.518 -0.1050 -0.6207 -0.1745
  221MOL0     C29088  10.656  -1.222   1.792 -0.7019 -0.7152  0.0296
  221MOL0     C29089  10.703  -1.214   1.926  0.9992  0.1925  0.6060
  221MOL0     N29090  10.506  -0.927   2.616 -0.1201 -0.6207  0.0613
  221MOL0     N29091  10.381  -0.921   2.654 -0.1373  0.1085 -0.6174
  221MOL0     C29092  10.155  -0.221   2.704  0.7434  0.6627 -0.1226
  221MOL0     C29093  10.251  -0.143   2.645  0.0463  0.2365 -0.4787
  221MOL0     C29094  10.527   0.130   2.432  0.0488 -0.0773 -0.2575
  221MOL0     C29095  10.624   0.216   2.495  0.6773  0.2260 -0.0469
  221MOL0     C29096  10.701   0.295   2.409  1.0895 -1.1181 -0.6391
  221MOL0     C29097  10.685   0.300   2.275  0.3849  0.2119  0.4578
  221MOL0     O29098  10.757   0.396   2.215 -0.3946 -0.3068 -0.0386
  221MOL0     C29099  10.751   0.422   2.075  0.1028  0.8126 -0.5352
  221MOL0     C29100  10.846   0.537   2.032 -0.0924 -0.2900  0.5472
  221MOL0     C29101  10.868   0.542   1.882 -0.5320 -0.5232 -0.1069
  221MOL0     C29102  10.982   0.640   1.855 -0.3487 -0.0328  0.3297
  221MOL0     C29103  10.948   0.781   1.883  0.4547 -0.0038  0.0728
  221MOL0     C29104  10.927   0.901   1.900 -0.4019 -0.1220 -0.2102
  221MOL0     C29105  10.592   0.213   2.211  1.1298  0.0456  0.2470
  221MOL0     C29106  10.514   0.124   2.292  0.6870 -0.3308  0.3616
  221MOL0     H29107  10.078  -0.009   2.389 -2.1251  0.3288  0.0128
  221MOL0     H29108   9.904  -0.153   2.487  0.5418 -0.1880 -1.4592
  221MOL0     H29109   9.882  -0.173   2.880 -0.5794  0.4931  0.1395
  221MOL0     H29110   9.980  -0.324   2.897 -1.5402 -2.4782 -0.9599
  221MOL0     H29111   9.688  -0.309   2.814  2.2992  1.8708 -1.0738
  221MOL0     H29112   9.729  -0.346   2.981 -1.7425 -0.4571 -0.5202
  221MOL0     H29113   9.810  -0.526   2.752  1.4847  1.6561  0.2033
  221MOL0     H29114   9.677  -0.548   2.855 -0.3656  1.3676  3.2737
  221MOL0     H29115   9.837  -0.536   3.059  1.4867 -1.9944  0.8552
  221MOL0     H29116   9.801  -0.689   2.973 -2.2601  0.5447  0.1966
  221MOL0     H29117  10.045  -0.653   3.018  0.7861  2.5272  1.2352
  221MOL0     H29118  10.039  -0.507   2.919  2.2045 -0.4480  1.7893
  221MOL0     H29119   9.968  -0.677   2.715 -2.1952 -3.0073  0.3457
  221MOL0     H29120   9.997  -0.801   2.839  2.0929 -1.1113 -2.6438
  221MOL0     H29121  10.212  -0.594   2.772 -1.8184  1.8889  5.5739
  221MOL0     H29122  10.229  -0.749   2.860 -2.6243  1.2813  3.2439
  221MOL0     H29123  10.157  -0.694   2.570 -2.9465  1.9765  2.9135
  221MOL0     H29124  10.135  -0.858   2.627 -0.2021  0.2189 -2.4829
  221MOL0     H29125  10.379  -0.656   2.465 -1.2072 -0.7290 -0.6515
  221MOL0     H29126  10.727  -0.750   2.497 -1.3536  2.7949  2.2110
  221MOL0     H29127  10.612  -0.704   2.370  1.4574  0.7563  1.1176
  221MOL0     H29128  10.567  -0.934   2.326  0.4046  0.7585 -2.0556
  221MOL0     H29129  10.729  -0.979   2.397  1.4405 -0.3937 -0.2334
  221MOL0     H29130  10.658  -0.857   2.136  0.0846 -0.1942 -1.4914
  221MOL0     H29131  10.779  -0.771   2.223  3.0097 -1.9313 -2.4995
  221MOL0     H29132  10.901  -0.994   2.253 -2.5879 -1.4782  1.9600
  221MOL0     H29133  10.923  -0.923   2.098  1.4407  0.0480  1.2569
  221MOL0     H29134  10.744  -0.879   1.939  0.5924 -1.9348  1.8430
  221MOL0     H29135  10.699  -0.902   1.689  2.5800 -2.6606 -2.7484
  221MOL0     H29136  10.799  -1.125   1.338 -0.6302 -0.1972 -1.1326
  221MOL0     H29137  10.845  -1.074   1.094 -2.0426 -0.4533 -1.3002
  221MOL0     H29138  10.546  -1.057   0.887 -3.4663  2.2435 -1.7652
  221MOL0     H29139  10.692  -1.060   0.786 -2.3242  1.8960 -3.8193
  221MOL0     H29140  10.538  -0.964   0.641  0.6483  0.0418  0.5535
  221MOL0     H29141  10.621  -0.830   0.693 -1.9913  2.9907  1.1623
  221MOL0     H29142  10.432  -0.767   0.849  0.2091 -1.9971  2.8469
  221MOL0     H29143  10.357  -0.933   0.832 -2.7960  1.8093  0.5490
  221MOL0     H29144  10.369  -0.703   0.645 -0.9460  0.3757  1.2825
  221MOL0     H29145  10.321  -0.871   0.597 -2.6126  0.4234 -0.5968
  221MOL0     H29146  10.200  -0.704   0.821  3.0518  0.3083 -0.5047
  221MOL0     H29147  10.146  -0.868   0.760 -0.0303  0.2302  0.1824
  221MOL0     H29148  10.093  -0.735   0.549 -1.3522  1.8227 -1.7881
  221MOL0     H29149  10.158  -0.587   0.615 -0.2545 -0.8180 -1.4464
  221MOL0     H29150   9.911  -0.737   0.708 -0.7325 -0.2560  1.0758
  221MOL0     H29151   9.975  -0.596   0.796  0.8406  0.1690 -0.8680
  221MOL0     H29152   9.802  -0.561   0.637 -0.4151  1.4688 -0.9735
  221MOL0     H29153   9.907  -0.602   0.498 -1.4497  2.4114 -0.5159
  221MOL0     H29154  10.475  -0.831   1.101  2.3159  0.1595 -2.4607
  221MOL0     H29155  10.473  -0.869   1.358 -1.1542 -0.7974 -0.2722
  221MOL0     H29156  10.641  -1.324   1.758  1.2323 -1.8921  2.4545
  221MOL0     H29157  10.695  -1.303   1.989 -1.0883 -1.1157 -1.3445
  221MOL0     H29158  10.184  -0.279   2.791  0.7447 -0.4358 -0.8361
  221MOL0     H29159  10.349  -0.162   2.687 -0.4533 -1.3310  0.0342
  221MOL0     H29160  10.629   0.233   2.602  1.1419  3.2731 -0.4508
  221MOL0     H29161  10.767   0.371   2.450 -1.4509  0.8279  0.0872
  221MOL0     H29162  10.647   0.445   2.053 -0.7360 -1.2565  0.9553
  221MOL0     H29163  10.768   0.335   2.011 -2.1670  1.2168 -1.7673
  221MOL0     H29164  10.806   0.631   2.072  0.6919  0.6830 -0.8260
  221MOL0     H29165  10.943   0.515   2.078  0.1794 -1.6261 -0.5884
  221MOL0     H29166  10.776   0.576   1.832 -0.1727  4.8957  2.2051
  221MOL0     H29167  10.887   0.445   1.835  1.2390  0.6555 -2.0065
  221MOL0     H29168  11.066   0.605   1.916 -2.0151  1.0141  3.4199
  221MOL0     H29169  11.006   0.631   1.748 -1.5176  0.9496 -0.0308
  221MOL0     H29170  10.941   1.005   1.881 -0.2165 -0.6270 -3.3716
  221MOL0     H29171  10.579   0.216   2.103  0.0271 -1.1682  0.3298
  221MOL0     H29172  10.451   0.056   2.235 -1.9580  1.8440  0.4835
  222MOL0     O29173   8.113   6.054   8.104  0.6025 -0.4032 -0.1227
  222MOL0     C29174   8.123   6.071   8.222 -0.7938 -0.5846  0.6137
  222MOL0     O29175   8.051   6.005   8.313 -0.3863 -0.2959  0.9490
  222MOL0     C29176   7.993   5.887   8.289 -0.3738 -0.9263 -0.5604
  222MOL0     C29177   7.847   5.875   8.300 -0.4603  0.0184  0.0935
  222MOL0     C29178   7.782   5.754   8.266  0.2857 -0.9552 -0.1975
  222MOL0     C29179   7.863   5.642   8.230 -0.1130 -0.6940 -0.6148
  222MOL0     O29180   7.806   5.523   8.198  0.9394 -0.1603  0.0445
  222MOL0     C29181   7.723   5.461   8.294 -0.2908  0.3839 -0.3752
  222MOL0     C29182   7.658   5.326   8.254 -0.4032  0.1230  0.8383
  222MOL0     C29183   7.747   5.218   8.192  0.8663 -0.2310  0.1871
  222MOL0     C29184   7.865   5.167   8.289 -0.0177 -0.7233  0.7617
  222MOL0     C29185   7.959   5.062   8.225 -0.4401 -1.0479 -0.0108
  222MOL0     C29186   7.898   4.921   8.208  0.1874 -0.9038 -0.0255
  222MOL0     C29187   8.006   4.817   8.230  0.1149 -0.0735 -0.4037
  222MOL0     C29188   8.144   4.831   8.161  0.4248  0.4697 -1.3228
  222MOL0     N29189   8.224   4.712   8.200 -0.1848 -0.1251 -0.3327
  222MOL0     C29190   8.267   4.676   8.326  0.1622  1.1441  0.3991
  222MOL0     C29191   8.310   4.545   8.310 -0.5006  0.3711  0.7669
  222MOL0     C29192   8.375   4.454   8.419  0.6456 -0.2131 -0.1872
  222MOL0     C29193   8.520   4.431   8.409  0.3159 -0.2925  0.0862
  222MOL0     C29194   8.595   4.541   8.494  0.4823  1.0992  0.3141
  222MOL0     C29195   8.745   4.516   8.491 -0.7403 -0.0016 -0.0482
  222MOL0     O29196   8.799   4.579   8.608  0.3172  0.7199  0.2002
  222MOL0     C29197   8.820   4.507   8.720 -0.1460 -0.4662 -0.0318
  222MOL0     C29198   8.858   4.590   8.827  0.4690 -0.0490 -0.3170
  222MOL0     C29199   8.895   4.517   8.951 -0.2889 -1.1457 -0.3977
  222MOL0     C29200   8.861   4.376   8.964  0.2371 -0.7715 -1.2544
  222MOL0     C29201   8.907   4.305   9.083 -0.0357 -0.2456 -0.3467
  222MOL0     O29202   8.885   4.167   9.082 -0.2307 -0.2037  0.3621
  222MOL0     C29203   8.927   4.098   9.191  0.1448  0.1797 -0.2298
  222MOL0     C29204   9.044   4.019   9.188  0.6694 -0.8899 -1.3365
  222MOL0     C29205   9.076   3.955   9.301  0.0414 -0.3422  0.0016
  222MOL0     C29206   8.994   3.953   9.419  0.6462 -0.0820 -1.4570
  222MOL0     O29207   9.029   3.877   9.524  0.5165 -0.1064 -0.3178
  222MOL0     C29208   8.962   3.753   9.534  0.4027  0.1818 -0.8004
  222MOL0     C29209   8.992   3.651   9.426 -0.4582 -0.2792  0.4650
  222MOL0     C29210   8.920   3.519   9.445 -0.5534  1.3746 -0.1807
  222MOL0     C29211   8.951   3.407   9.350 -0.7663  0.3298 -0.0135
  222MOL0     C29212   8.918   3.259   9.396 -0.4933 -0.5386 -0.2772
  222MOL0     C29213   8.989   3.214   9.523  0.6342 -0.4940  0.2591
  222MOL0     C29214   8.987   3.065   9.545  0.4175  0.2515  0.8763
  222MOL0     C29215   9.070   3.014   9.661 -0.5070  0.0242 -1.0884
  222MOL0    Cl29216   8.984   3.044   9.806  0.5447  0.4120 -0.0732
  222MOL0     C29217   8.880   4.038   9.418  0.3973 -0.9695  0.4788
  222MOL0     C29218   8.849   4.114   9.304 -1.2006 -0.1274 -0.7669
  222MOL0     O29219   8.985   4.360   9.168  0.3920  0.0912 -0.2154
  222MOL0     C29220   8.792   4.312   8.867  1.7172 -0.3496 -0.0464
  222MOL0     C29221   8.778   4.377   8.740 -0.0069 -0.3760 -1.2972
  222MOL0     N29222   8.286   4.505   8.181  0.6431 -0.2939  0.5327
  222MOL0     N29223   8.256   4.613   8.113 -0.9240 -0.0302 -0.1394
  222MOL0     C29224   7.999   5.652   8.230  0.4201  0.5258  0.2305
  222MOL0     C29225   8.062   5.769   8.260  0.1815 -0.3826  0.0046
  222MOL0     C29226   8.236   6.160   8.260  0.2540  0.2392  0.2017
  222MOL0     C29227   8.259   6.199   8.395  0.0034  0.4181  0.5845
  222MOL0     C29228   8.361   6.297   8.426  0.3612  0.3348  0.5586
  222MOL0     C29229   8.452   6.331   8.324 -0.1170 -0.1332  0.1102
  222MOL0     O29230   8.554   6.414   8.357 -0.1931 -0.0344 -0.2425
  222MOL0     C29231   8.681   6.354   8.345  0.8458 -0.2011  0.3778
  222MOL0     C29232   8.727   6.337   8.488  0.3924  0.1221  0.4750
  222MOL0     C29233   8.867   6.297   8.502  0.4029 -0.3418 -0.9264
  222MOL0     C29234   8.887   6.158   8.545 -1.0483  0.4216  1.0035
  222MOL0     C29235   8.835   6.131   8.681  0.2993  1.5286 -0.4178
  222MOL0     C29236   8.774   6.096   8.787  0.4276 -0.2322  0.6112
  222MOL0     C29237   8.445   6.278   8.195  0.1644  0.2183 -1.1229
  222MOL0     C29238   8.337   6.201   8.162 -0.2901  0.0864 -0.2946
  222MOL0     H29239   7.801   5.965   8.340  1.4618  1.3314 -0.4872
  222MOL0     H29240   7.674   5.743   8.262  0.2781 -2.1460  1.8828
  222MOL0     H29241   7.644   5.529   8.328  0.5543  0.9405  0.5114
  222MOL0     H29242   7.777   5.443   8.387 -0.9714  2.8523  0.5932
  222MOL0     H29243   7.564   5.352   8.203 -0.4256 -0.7176  0.4367
  222MOL0     H29244   7.612   5.278   8.341 -2.2002 -2.5942 -1.4345
  222MOL0     H29245   7.779   5.261   8.097 -1.4547  3.7257  0.9785
  222MOL0     H29246   7.689   5.129   8.164  0.0062 -0.5618  2.7155
  222MOL0     H29247   7.924   5.257   8.310 -1.3206  0.2530  0.4226
  222MOL0     H29248   7.829   5.123   8.383 -0.1675  0.8792  1.4904
  222MOL0     H29249   8.050   5.059   8.285  0.2412 -1.2854 -1.0353
  222MOL0     H29250   7.976   5.107   8.126 -1.5339 -1.9671 -0.6464
  222MOL0     H29251   7.852   4.912   8.109 -1.2609 -1.8441  0.7020
  222MOL0     H29252   7.817   4.912   8.281  0.7944  0.3657  0.8459
  222MOL0     H29253   8.018   4.804   8.338  2.4449  0.6195 -0.5266
  222MOL0     H29254   7.965   4.719   8.204 -0.3017 -0.7655  2.5051
  222MOL0     H29255   8.194   4.919   8.204 -2.0466  0.7689  1.2359
  222MOL0     H29256   8.137   4.843   8.053 -1.1180 -1.9591 -1.5568
  222MOL0     H29257   8.271   4.731   8.419  2.1843  1.9866 -0.1097
  222MOL0     H29258   8.338   4.355   8.390  1.3950 -1.8994  3.8698
  222MOL0     H29259   8.332   4.483   8.516  0.1642 -2.5222  0.3492
  222MOL0     H29260   8.551   4.433   8.304 -1.4716 -0.9937 -0.4883
  222MOL0     H29261   8.535   4.331   8.451 -2.9510 -1.1962 -0.6413
  222MOL0     H29262   8.570   4.644   8.467  0.7159  1.5489  1.7368
  222MOL0     H29263   8.562   4.533   8.598  1.7315 -1.7225  0.6003
  222MOL0     H29264   8.782   4.568   8.401  0.0422  2.0904  1.4077
  222MOL0     H29265   8.780   4.412   8.489  3.4252  1.1922  0.7900
  222MOL0     H29266   8.863   4.698   8.828 -1.4834  0.0685  0.8225
  222MOL0     H29267   8.930   4.580   9.032  0.7799 -2.0316 -0.1471
  222MOL0     H29268   9.094   4.019   9.092 -0.7399  1.3940 -2.1583
  222MOL0     H29269   9.166   3.896   9.309  0.2009  0.1173  2.0049
  222MOL0     H29270   8.856   3.767   9.556  0.2114 -2.3601  0.2408
  222MOL0     H29271   8.997   3.707   9.627 -0.9156  2.6055  1.0167
  222MOL0     H29272   9.100   3.645   9.414 -0.7944 -2.0173 -3.6505
  222MOL0     H29273   8.952   3.687   9.331  2.6245  0.7407 -0.5482
  222MOL0     H29274   8.812   3.526   9.458 -1.0372 -0.9386 -2.3262
  222MOL0     H29275   8.960   3.473   9.536  1.5381 -2.2889 -2.6874
  222MOL0     H29276   8.897   3.431   9.258 -0.5772  0.0218 -0.2065
  222MOL0     H29277   9.055   3.413   9.317 -0.9317  1.1133 -0.4407
  222MOL0     H29278   8.927   3.191   9.310 -4.2402 -0.1268 -1.1557
  222MOL0     H29279   8.810   3.262   9.413 -0.2920 -0.0495  0.9921
  222MOL0     H29280   8.928   3.265   9.598 -0.1886  2.0490 -1.9625
  222MOL0     H29281   9.092   3.249   9.533  0.1082  0.9790  0.8872
  222MOL0     H29282   8.891   3.015   9.560  0.7336 -0.1600  1.5914
  222MOL0     H29283   9.028   3.018   9.456 -1.7887  1.4925 -0.8850
  222MOL0     H29284   9.166   3.067   9.664  1.1635 -2.6968 -2.5668
  222MOL0     H29285   9.084   2.905   9.658 -0.3355  0.0063 -0.1238
  222MOL0     H29286   8.844   4.055   9.518  2.1611  1.6811  0.7827
  222MOL0     H29287   8.764   4.181   9.320 -1.2070 -0.5801  1.4508
  222MOL0     H29288   8.768   4.208   8.885 -0.8552  0.6681  3.6059
  222MOL0     H29289   8.722   4.316   8.670 -1.4230 -1.1164  0.3995
  222MOL0     H29290   8.049   5.569   8.181 -4.2800 -2.1240 -0.6984
  222MOL0     H29291   8.170   5.770   8.253  0.2384 -0.4014  0.7549
  222MOL0     H29292   8.195   6.164   8.475 -0.4232  1.3982  0.6968
  222MOL0     H29293   8.346   6.338   8.525 -1.3933 -3.8462  2.3076
  222MOL0     H29294   8.750   6.416   8.287  2.1735 -3.1128 -1.4043
  222MOL0     H29295   8.688   6.266   8.280  1.4839  2.8531 -4.1318
  222MOL0     H29296   8.711   6.429   8.544 -2.5303  0.3229 -0.5145
  222MOL0     H29297   8.663   6.260   8.533 -2.8699  2.2552 -0.1976
  222MOL0     H29298   8.917   6.369   8.567 -1.5270  0.4535 -0.2321
  222MOL0     H29299   8.920   6.302   8.406  1.1190  2.1772 -0.4739
  222MOL0     H29300   8.839   6.096   8.469 -0.8168 -1.0669  2.0145
  222MOL0     H29301   8.990   6.120   8.552 -1.6381 -1.8550 -1.2081
  222MOL0     H29302   8.731   6.043   8.870 -0.8476 -0.8740 -0.4160
  222MOL0     H29303   8.527   6.298   8.126  0.6047 -4.4120 -2.2690
  222MOL0     H29304   8.336   6.158   8.062  1.5889  1.3373 -0.9026
  223MOL0     O29305   4.924   3.321   5.923 -0.2193  0.3828 -0.3773
  223MOL0     C29306   4.969   3.231   5.996  0.3996  0.9170 -0.1979
  223MOL0     O29307   5.087   3.171   5.987  0.1383 -0.8276 -0.2072
  223MOL0     C29308   5.153   3.164   5.868  0.6681  0.1870  1.2524
  223MOL0     C29309   5.210   3.042   5.835  0.2656 -0.0914  0.6657
  223MOL0     C29310   5.280   3.012   5.706 -0.1221 -0.7060 -1.0158
  223MOL0     C29311   5.272   3.114   5.608 -0.5326  0.7700 -0.8311
  223MOL0     O29312   5.321   3.084   5.484  0.0782 -0.0834 -0.0665
  223MOL0     C29313   5.454   3.050   5.475 -0.0399 -0.4027 -1.0658
  223MOL0     C29314   5.480   3.036   5.328  0.5670  0.4475 -0.2347
  223MOL0     C29315   5.626   3.003   5.320 -0.3618 -0.2032  1.0449
  223MOL0     C29316   5.673   2.951   5.182 -0.3406  0.6782 -0.8996
  223MOL0     C29317   5.828   2.945   5.177  0.1876 -0.0115 -1.1921
  223MOL0     C29318   5.883   2.922   5.037  0.4227  0.5327 -0.5666
  223MOL0     C29319   5.817   2.812   4.959  0.1430  0.4261  0.3091
  223MOL0     C29320   5.900   2.756   4.835 -0.3391 -0.3654  1.0518
  223MOL0     N29321   5.923   2.861   4.737 -0.4335 -0.0573  0.2918
  223MOL0     C29322   5.839   2.962   4.697 -0.9183 -0.5220 -0.6738
  223MOL0     C29323   5.921   3.058   4.642 -0.7588  0.0429 -0.2954
  223MOL0     C29324   5.878   3.183   4.579  0.0449 -0.3320  1.4137
  223MOL0     C29325   5.830   3.291   4.671 -0.4772 -0.6881  0.9287
  223MOL0     C29326   5.934   3.316   4.780 -0.3142  0.0504 -0.0024
  223MOL0     C29327   5.901   3.437   4.872  0.7127  0.6648 -0.1043
  223MOL0     O29328   5.820   3.377   4.982 -0.0773 -0.8647  0.7152
  223MOL0     C29329   5.858   3.390   5.116  0.1085 -0.9655 -0.3286
  223MOL0     C29330   5.986   3.433   5.167  0.7278 -0.3777 -0.1238
  223MOL0     C29331   6.012   3.446   5.297 -0.1745 -1.7101  0.8787
  223MOL0     C29332   5.918   3.408   5.389 -0.4532  0.5696  0.7870
  223MOL0     C29333   5.945   3.444   5.528  0.5940  1.2266  0.6382
  223MOL0     O29334   5.839   3.413   5.611 -0.1344  0.4774  0.5298
  223MOL0     C29335   5.862   3.412   5.748  0.7287  0.8686 -1.2795
  223MOL0     C29336   5.977   3.349   5.807  0.3361  0.1964  0.1857
  223MOL0     C29337   5.976   3.359   5.948 -1.0598 -0.5691  0.1440
  223MOL0     C29338   5.896   3.440   6.028 -0.0814  0.1474 -0.4781
  223MOL0     O29339   5.925   3.449   6.166 -0.2537 -0.1861  0.1948
  223MOL0     C29340   5.828   3.526   6.241  0.8948 -0.7238 -0.2772
  223MOL0     C29341   5.905   3.547   6.377 -0.7189 -0.3420  1.7555
  223MOL0     C29342   6.026   3.649   6.348 -0.4606  0.7547  0.9995
  223MOL0     C29343   6.070   3.727   6.469 -0.4315  0.4366  0.9734
  223MOL0     C29344   6.207   3.793   6.442  0.4066  0.8690  0.4614
  223MOL0     C29345   6.275   3.835   6.570  0.3651 -0.1365  0.1493
  223MOL0     C29346   6.408   3.892   6.521 -0.8219  0.4410 -0.4172
  223MOL0     C29347   6.511   3.802   6.459 -0.0407  0.1185  0.6008
  223MOL0    Cl29348   6.525   3.640   6.547 -0.0025 -0.1794 -0.2313
  223MOL0     C29349   5.780   3.502   5.967  0.4118  0.4180  0.8387
  223MOL0     C29350   5.763   3.470   5.829 -0.9251 -0.0579 -0.0433
  223MOL0     O29351   6.057   3.469   5.570 -0.6915 -0.1941  0.3047
  223MOL0     C29352   5.793   3.358   5.345 -0.2315 -0.1123  0.5262
  223MOL0     C29353   5.762   3.357   5.213 -0.7144  0.0681 -0.1337
  223MOL0     N29354   6.055   3.009   4.647 -0.7019 -0.3274  0.0876
  223MOL0     N29355   6.056   2.896   4.707  1.5896  0.1157  0.3083
  223MOL0     C29356   5.216   3.238   5.639 -0.1335  1.0152 -0.0880
  223MOL0     C29357   5.155   3.265   5.765 -1.3830 -0.1478  0.8372
  223MOL0     C29358   4.872   3.185   6.112 -0.4802  0.3056  0.0694
  223MOL0     C29359   4.901   3.067   6.186  0.5857  0.5094 -0.3973
  223MOL0     C29360   4.804   3.008   6.262  0.0338  0.4409 -0.5966
  223MOL0     C29361   4.682   3.067   6.291  0.3326 -0.0629 -0.0907
  223MOL0     O29362   4.608   2.998   6.384  0.7451 -0.5295 -0.3972
  223MOL0     C29363   4.601   3.059   6.507  0.2577  0.2722  0.0464
  223MOL0     C29364   4.652   2.986   6.634  0.3747 -0.5763  0.0813
  223MOL0     C29365   4.595   2.840   6.641  0.5230  0.2381 -0.4042
  223MOL0     C29366   4.443   2.838   6.640  0.0433  0.1935  1.3914
  223MOL0     C29367   4.397   2.698   6.617  0.7890 -0.1974  0.2703
  223MOL0     C29368   4.379   2.584   6.600  0.3130 -0.1976  0.1707
  223MOL0     C29369   4.652   3.183   6.223  0.1872  0.2061  0.9423
  223MOL0     C29370   4.750   3.243   6.136  0.1589  1.2342  0.2767
  223MOL0     H29371   5.207   2.959   5.905 -0.7384 -2.6510 -2.1482
  223MOL0     H29372   5.324   2.914   5.691  3.5768  0.7401 -0.5288
  223MOL0     H29373   5.466   2.949   5.515  1.6116 -0.7938 -2.4468
  223MOL0     H29374   5.519   3.121   5.528 -2.7093  0.5113  1.2139
  223MOL0     H29375   5.466   3.135   5.283  2.8357  1.7746  1.6954
  223MOL0     H29376   5.421   2.971   5.264 -0.0815  1.0048 -0.2203
  223MOL0     H29377   5.647   2.933   5.402 -1.8220 -1.4946  0.3738
  223MOL0     H29378   5.682   3.096   5.333  2.1199 -0.8279 -3.1767
  223MOL0     H29379   5.637   2.851   5.157 -1.4382  0.9797 -0.5842
  223MOL0     H29380   5.622   3.006   5.102  1.4193 -0.3618 -2.8232
  223MOL0     H29381   5.875   2.866   5.236 -0.1165  1.1247  0.6214
  223MOL0     H29382   5.870   3.038   5.217 -0.1855 -0.4842  0.3509
  223MOL0     H29383   5.992   2.918   5.043  0.3106 -1.5015  1.7404
  223MOL0     H29384   5.867   3.013   4.979 -2.7611  1.1745  1.1076
  223MOL0     H29385   5.796   2.728   5.026 -3.3550  1.8798  1.2554
  223MOL0     H29386   5.720   2.850   4.927 -0.5412 -0.4175  1.3286
  223MOL0     H29387   5.839   2.671   4.802  1.3269 -2.5030  3.0678
  223MOL0     H29388   5.996   2.713   4.866  0.4737  0.4783 -0.2208
  223MOL0     H29389   5.731   2.964   4.706 -0.9720  1.6397 -1.1435
  223MOL0     H29390   5.798   3.171   4.505  1.4004 -1.5358  0.0909
  223MOL0     H29391   5.961   3.222   4.519  1.0908  0.0928  3.0887
  223MOL0     H29392   5.734   3.255   4.710 -1.7335  1.5069  0.0451
  223MOL0     H29393   5.808   3.387   4.624 -0.6139 -0.8659  0.6249
  223MOL0     H29394   5.941   3.226   4.843 -1.9515 -0.1212 -0.0190
  223MOL0     H29395   6.032   3.337   4.737  0.0365 -2.3043 -0.5006
  223MOL0     H29396   5.844   3.505   4.808 -4.4215  0.0774  3.3431
  223MOL0     H29397   5.991   3.494   4.899  0.4277  1.7110 -1.2319
  223MOL0     H29398   6.071   3.456   5.104 -0.0530  2.8710 -0.1660
  223MOL0     H29399   6.107   3.495   5.318 -0.2513 -2.2149  2.6492
  223MOL0     H29400   6.046   3.291   5.747  0.0464 -0.2012  0.2341
  223MOL0     H29401   6.055   3.303   5.996  1.9200  2.5216 -0.7693
  223MOL0     H29402   5.735   3.470   6.253 -0.3765  0.8278 -2.3432
  223MOL0     H29403   5.803   3.618   6.189 -0.0590 -0.9382 -0.2119
  223MOL0     H29404   5.942   3.452   6.417  1.2022 -0.3469  0.1337
  223MOL0     H29405   5.839   3.595   6.449 -1.3522  0.9734  0.3468
  223MOL0     H29406   6.006   3.711   6.260 -2.0954 -0.0495  0.7663
  223MOL0     H29407   6.112   3.588   6.319  1.3205  2.1680  2.9408
  223MOL0     H29408   5.994   3.806   6.472 -0.4496  0.6933 -2.2725
  223MOL0     H29409   6.087   3.663   6.556 -0.1192  0.4475  0.9206
  223MOL0     H29410   6.198   3.884   6.383  1.4005 -0.0158 -1.1462
  223MOL0     H29411   6.270   3.719   6.390 -2.9279 -0.8173 -1.5304
  223MOL0     H29412   6.287   3.742   6.628 -0.7213 -0.3292  0.0907
  223MOL0     H29413   6.210   3.904   6.625  0.8277  1.2544 -0.9988
  223MOL0     H29414   6.395   3.971   6.446  2.3542  0.5980 -0.9455
  223MOL0     H29415   6.461   3.937   6.606  3.1826  1.2099 -3.0533
  223MOL0     H29416   6.605   3.855   6.478 -0.3258  0.2719  1.7092
  223MOL0     H29417   6.480   3.789   6.355 -1.8594  0.6885  1.0200
  223MOL0     H29418   5.708   3.556   6.028  0.4800 -0.4551  1.7123
  223MOL0     H29419   5.672   3.497   5.776 -1.4429 -2.7054 -0.6408
  223MOL0     H29420   5.726   3.325   5.424  0.6924  2.5401  2.5547
  223MOL0     H29421   5.668   3.323   5.170  0.7869 -1.9127 -2.0043
  223MOL0     H29422   5.219   3.315   5.562 -0.0423  1.0335 -0.0660
  223MOL0     H29423   5.119   3.366   5.785 -1.5784 -0.5011  2.3921
  223MOL0     H29424   4.996   3.015   6.177 -0.3085 -1.3427  0.3611
  223MOL0     H29425   4.816   2.924   6.330 -1.4760  1.8570  1.5286
  223MOL0     H29426   4.500   3.090   6.537  0.1386 -1.7580  1.9900
  223MOL0     H29427   4.647   3.158   6.502 -4.0570  2.5617  0.4310
  223MOL0     H29428   4.761   2.977   6.639  0.3713 -0.1209  1.1838
  223MOL0     H29429   4.624   3.042   6.723  1.0202  1.2527 -0.8131
  223MOL0     H29430   4.621   2.808   6.742  0.3452  1.8362  0.1707
  223MOL0     H29431   4.642   2.778   6.564 -0.8224 -0.8795 -0.3652
  223MOL0     H29432   4.399   2.875   6.733 -0.5010  1.0151  0.8232
  223MOL0     H29433   4.414   2.900   6.554  0.6465 -1.5351 -0.1212
  223MOL0     H29434   4.365   2.482   6.571 -1.3319 -0.7730  2.6708
  223MOL0     H29435   4.555   3.231   6.229  0.2246  0.5453 -0.8205
  223MOL0     H29436   4.716   3.334   6.086 -3.1424  1.3262  2.3826
  224MOL0     O29437  11.264   4.343   4.468  0.2631 -0.2268 -0.8488
  224MOL0     C29438  11.323   4.440   4.435 -0.4654  0.8867 -0.0347
  224MOL0     O29439  11.366   4.460   4.304 -0.7976  0.4116 -0.1108
  224MOL0     C29440  11.308   4.397   4.199 -0.7434 -0.1799  0.0042
  224MOL0     C29441  11.186   4.332   4.189  0.5088 -0.1353  0.3175
  224MOL0     C29442  11.129   4.301   4.065 -0.3664  0.3248 -1.1189
  224MOL0     C29443  11.208   4.312   3.950 -0.0503 -0.1001  0.7596
  224MOL0     O29444  11.143   4.262   3.833  0.7962 -0.3988  0.3574
  224MOL0     C29445  11.212   4.276   3.709 -0.6821  0.1245 -0.1208
  224MOL0     C29446  11.120   4.245   3.590  0.1733  0.8163 -0.3887
  224MOL0     C29447  11.164   4.302   3.457  0.4466 -0.0417 -0.4063
  224MOL0     C29448  11.154   4.461   3.454  0.5699 -0.0414  0.2459
  224MOL0     C29449  11.152   4.516   3.314  0.3027  0.5659  0.5520
  224MOL0     C29450  11.011   4.488   3.252  0.3714 -0.1024 -0.2675
  224MOL0     C29451  10.990   4.564   3.117 -0.5169 -0.1800 -0.4278
  224MOL0     C29452  10.865   4.500   3.057 -0.0321 -1.4412 -0.8057
  224MOL0     N29453  10.816   4.590   2.960  0.8842 -0.2725  0.5252
  224MOL0     C29454  10.882   4.628   2.845  0.2543 -0.2308  1.0302
  224MOL0     C29455  10.786   4.671   2.764 -0.4253  0.1308 -0.4593
  224MOL0     C29456  10.808   4.723   2.627 -0.0345 -0.3698  0.5782
  224MOL0     C29457  10.696   4.691   2.527 -0.4747  1.0888  0.4844
  224MOL0     C29458  10.693   4.795   2.412  0.9502 -0.3759 -0.6582
  224MOL0     C29459  10.582   4.771   2.307  0.4106  0.4057  0.4048
  224MOL0     O29460  10.593   4.873   2.205  0.8312 -0.6009 -0.0018
  224MOL0     C29461  10.487   4.971   2.196 -0.3832 -0.4421  0.4360
  224MOL0     C29462  10.356   4.945   2.207  0.4719  0.1430  0.3341
  224MOL0     C29463  10.255   5.046   2.204 -0.9478 -0.3910 -0.1017
  224MOL0     C29464  10.293   5.179   2.182 -0.4744  0.2820  0.7798
  224MOL0     C29465  10.190   5.294   2.168 -0.2174 -0.2635 -0.0007
  224MOL0     O29466  10.245   5.414   2.130 -0.7069  0.2375  0.6142
  224MOL0     C29467  10.178   5.534   2.104 -0.4874  0.1735 -0.7838
  224MOL0     C29468  10.043   5.556   2.107 -0.4572 -1.0923  0.6116
  224MOL0     C29469   9.992   5.679   2.085 -0.0801  0.1667 -0.5412
  224MOL0     C29470  10.077   5.789   2.049  0.4576 -0.7732 -0.6567
  224MOL0     O29471  10.013   5.904   2.024  0.2053  0.1456  0.5277
  224MOL0     C29472  10.073   6.017   1.953  0.1766 -0.7496 -0.0580
  224MOL0     C29473   9.968   6.109   1.897  0.2119 -0.4290 -0.0982
  224MOL0     C29474   9.917   6.210   2.007 -0.4560 -0.6136  0.2189
  224MOL0     C29475   9.847   6.323   1.941 -0.5633 -0.3535 -0.2635
  224MOL0     C29476   9.810   6.416   2.055  0.4324 -0.2003 -0.7181
  224MOL0     C29477   9.763   6.548   1.998 -0.0730  1.2516  0.2481
  224MOL0     C29478   9.698   6.656   2.089 -1.0917 -0.1651 -0.1658
  224MOL0     C29479   9.817   6.724   2.163 -0.5028  0.4720 -0.3667
  224MOL0    Cl29480   9.726   6.843   2.280 -0.0184  0.6792  0.4842
  224MOL0     C29481  10.214   5.770   2.046  0.3247 -0.0852 -0.0027
  224MOL0     C29482  10.263   5.637   2.068  1.2765 -0.9707  0.1340
  224MOL0     O29483  10.070   5.265   2.183 -0.4748 -0.1640  0.2130
  224MOL0     C29484  10.433   5.198   2.158  0.8104 -0.7129  0.4737
  224MOL0     C29485  10.529   5.099   2.161  0.5150  0.7042 -0.4482
  224MOL0     N29486  10.662   4.661   2.831 -0.5190 -0.1741  0.8889
  224MOL0     N29487  10.683   4.614   2.950  0.1388 -0.3814 -0.3448
  224MOL0     C29488  11.337   4.370   3.959  1.0675  0.1015  1.5121
  224MOL0     C29489  11.378   4.420   4.081  0.1756  0.1348  1.0882
  224MOL0     C29490  11.368   4.531   4.542  0.3350 -0.1723 -0.0801
  224MOL0     C29491  11.295   4.535   4.665 -0.7085  0.1517 -0.4799
  224MOL0     C29492  11.329   4.606   4.772 -0.1653  0.1985 -0.4834
  224MOL0     C29493  11.446   4.694   4.760 -0.2172  0.1718  0.1825
  224MOL0     O29494  11.473   4.793   4.853  0.9437 -0.6315 -0.2883
  224MOL0     C29495  11.373   4.830   4.950 -0.0882 -1.1597  0.0553
  224MOL0     C29496  11.411   4.962   5.020 -0.5909  0.3538  0.1028
  224MOL0     C29497  11.418   5.086   4.928  1.0405  0.4129 -0.1275
  224MOL0     C29498  11.388   5.225   4.990 -0.4112 -0.5172  0.7795
  224MOL0     C29499  11.396   5.334   4.889 -0.4501 -0.0766  0.1870
  224MOL0     C29500  11.421   5.414   4.801 -0.1975  0.1787  0.4755
  224MOL0     C29501  11.516   4.689   4.637  0.0569 -0.1568 -0.2230
  224MOL0     C29502  11.479   4.613   4.528  0.2367  0.4436 -0.6429
  224MOL0     H29503  11.125   4.299   4.273 -0.7308  0.4357 -0.3319
  224MOL0     H29504  11.026   4.265   4.066  0.0318 -1.2206  2.3694
  224MOL0     H29505  11.303   4.216   3.711 -1.6037 -1.3390 -0.5198
  224MOL0     H29506  11.236   4.382   3.691  1.3886  0.1735  2.4137
  224MOL0     H29507  11.023   4.287   3.615  0.2343  0.6217  0.1889
  224MOL0     H29508  11.105   4.137   3.599 -0.5649  0.8699 -0.9119
  224MOL0     H29509  11.107   4.251   3.379 -2.1918  1.6453  0.2982
  224MOL0     H29510  11.269   4.273   3.442  0.8452  0.9006  0.4549
  224MOL0     H29511  11.071   4.487   3.520  0.6907 -2.1878  1.3081
  224MOL0     H29512  11.252   4.490   3.493  0.5002  1.0748 -0.3696
  224MOL0     H29513  11.232   4.464   3.260 -0.3754 -1.0811  1.0449
  224MOL0     H29514  11.171   4.623   3.309 -0.0682  0.5955 -3.3432
  224MOL0     H29515  10.932   4.509   3.325  0.0712 -2.1137  0.0574
  224MOL0     H29516  11.016   4.382   3.225 -2.7608 -0.4349  0.0785
  224MOL0     H29517  10.973   4.671   3.127 -2.2117 -0.1990 -2.4486
  224MOL0     H29518  11.080   4.544   3.059  0.9181  1.5893  1.0650
  224MOL0     H29519  10.790   4.469   3.131 -1.3993  2.1608 -0.4822
  224MOL0     H29520  10.896   4.412   3.000  0.4445  0.1946 -3.2099
  224MOL0     H29521  10.986   4.622   2.814 -0.5314  1.7314 -2.5082
  224MOL0     H29522  10.904   4.698   2.583  0.3382 -0.4563  1.4250
  224MOL0     H29523  10.809   4.832   2.638  1.9536 -0.1638 -1.1105
  224MOL0     H29524  10.600   4.715   2.573 -1.3974 -1.0974 -0.1620
  224MOL0     H29525  10.700   4.589   2.488  0.0630  1.1691  0.3230
  224MOL0     H29526  10.682   4.900   2.442  0.4301  0.3665 -3.2379
  224MOL0     H29527  10.788   4.788   2.358 -0.2734 -3.6326 -2.6670
  224MOL0     H29528  10.483   4.771   2.354  0.1515  0.4482 -0.1425
  224MOL0     H29529  10.596   4.676   2.255 -3.3429 -1.0563  1.7089
  224MOL0     H29530  10.311   4.853   2.245 -0.6587 -0.0532 -1.3635
  224MOL0     H29531  10.155   5.014   2.234 -0.7448  0.3833  1.5060
  224MOL0     H29532   9.971   5.478   2.129 -1.9987  0.8589  2.9618
  224MOL0     H29533   9.885   5.690   2.104  0.2030  0.6332  0.8760
  224MOL0     H29534  10.143   5.987   1.875  2.0473  2.5895  0.1217
  224MOL0     H29535  10.140   6.073   2.019 -0.1502  0.8682 -1.0317
  224MOL0     H29536   9.881   6.049   1.867 -0.2200  0.5267 -0.7917
  224MOL0     H29537  10.001   6.166   1.810 -1.3869  0.4819 -0.1476
  224MOL0     H29538  10.005   6.250   2.057 -2.2416  1.4391  1.9765
  224MOL0     H29539   9.863   6.160   2.089  2.7094 -1.1520  2.1367
  224MOL0     H29540   9.918   6.372   1.874 -1.0244  0.2353 -0.3351
  224MOL0     H29541   9.760   6.301   1.880  0.9479  0.8716 -3.0437
  224MOL0     H29542   9.896   6.422   2.123  0.2223 -3.0613 -0.0800
  224MOL0     H29543   9.730   6.369   2.112 -0.3928 -0.5338 -2.1145
  224MOL0     H29544   9.688   6.540   1.919  0.6061  1.2912 -0.4100
  224MOL0     H29545   9.850   6.590   1.946  0.0513 -0.2823 -0.8319
  224MOL0     H29546   9.642   6.731   2.033  1.7159  0.7134 -1.9699
  224MOL0     H29547   9.633   6.605   2.162 -1.9129  0.2724 -0.5699
  224MOL0     H29548   9.876   6.776   2.087  0.8037  1.1600  1.0695
  224MOL0     H29549   9.880   6.645   2.204  1.2067  0.4110 -2.9028
  224MOL0     H29550  10.272   5.857   2.018  1.5274 -0.3148  1.6041
  224MOL0     H29551  10.370   5.622   2.065  2.2152  3.7312  2.1946
  224MOL0     H29552  10.460   5.299   2.129 -1.6714 -0.2465 -0.4397
  224MOL0     H29553  10.632   5.125   2.138 -0.1345  2.9027 -1.0969
  224MOL0     H29554  11.403   4.372   3.873 -1.7924 -1.6598 -0.9290
  224MOL0     H29555  11.467   4.482   4.074  0.2969 -0.0616  0.8595
  224MOL0     H29556  11.203   4.479   4.680 -0.9198  0.3778 -0.8878
  224MOL0     H29557  11.273   4.621   4.864 -2.5358 -1.6355 -1.5296
  224MOL0     H29558  11.386   4.754   5.028 -2.8338 -0.5387  1.2384
  224MOL0     H29559  11.272   4.839   4.908 -1.7994  1.3671  4.0655
  224MOL0     H29560  11.332   4.978   5.093 -1.5560 -0.2687 -0.7855
  224MOL0     H29561  11.507   4.957   5.073 -1.4176  0.4613  1.6545
  224MOL0     H29562  11.345   5.076   4.847  0.8183  1.2196 -0.0304
  224MOL0     H29563  11.514   5.106   4.879  1.3472  0.4729  0.4856
  224MOL0     H29564  11.286   5.230   5.029 -1.3024 -0.2112 -1.4088
  224MOL0     H29565  11.446   5.249   5.079 -0.9921  1.7248  0.6214
  224MOL0     H29566  11.427   5.496   4.732  2.9716 -1.1055 -0.9947
  224MOL0     H29567  11.599   4.758   4.630 -1.8902  2.1674 -1.7667
  224MOL0     H29568  11.527   4.618   4.432 -3.3570  1.5672 -2.5718
  225MOL0     O29569  10.913   4.828  11.144 -0.1131 -1.0165 -0.1231
  225MOL0     C29570  10.805   4.881  11.121 -0.3248 -0.0447 -0.5155
  225MOL0     O29571  10.710   4.817  11.047  0.3410 -0.4670  0.1183
  225MOL0     C29572  10.738   4.684  11.021 -0.7260 -0.0961 -0.6313
  225MOL0     C29573  10.828   4.648  10.913 -0.1610 -0.9324 -0.0102
  225MOL0     C29574  10.861   4.521  10.888 -0.0303  0.4403  0.4773
  225MOL0     C29575  10.801   4.417  10.955  0.6920  0.7495 -0.4453
  225MOL0     O29576  10.826   4.283  10.943  0.1041  0.5722  0.1616
  225MOL0     C29577  10.918   4.225  10.845  0.7008  0.4033 -0.0595
  225MOL0     C29578  10.849   4.093  10.790  0.3525 -0.4364 -0.4629
  225MOL0     C29579  10.951   4.013  10.709 -1.1586 -0.5918  0.5441
  225MOL0     C29580  10.887   3.880  10.662  0.0398 -0.7892  0.1375
  225MOL0     C29581  10.934   3.834  10.524 -0.4036 -0.1529  0.2282
  225MOL0     C29582  10.881   3.694  10.489 -0.1021 -0.2278  0.7777
  225MOL0     C29583  10.727   3.676  10.476 -0.9086 -0.1909 -0.3957
  225MOL0     C29584  10.655   3.604  10.589 -0.1158 -1.1428 -0.6581
  225MOL0     N29585  10.519   3.567  10.553  0.2822 -0.1355  0.0414
  225MOL0     C29586  10.495   3.456  10.472  0.8068  0.2371  0.6711
  225MOL0     C29587  10.364   3.430  10.478  0.0281 -0.5696  0.7468
  225MOL0     C29588  10.272   3.329  10.406 -0.1993 -0.2709 -0.6166
  225MOL0     C29589  10.315   3.181  10.430 -0.2081  0.1820  1.5099
  225MOL0     C29590  10.264   3.118  10.565  0.0522  1.5899 -0.0940
  225MOL0     C29591  10.321   3.181  10.692 -0.2355  0.2899  0.5316
  225MOL0     O29592  10.286   3.107  10.807 -0.3968 -0.8552 -0.2682
  225MOL0     C29593  10.379   3.013  10.850  0.0673  0.2993 -0.1228
  225MOL0     C29594  10.373   3.000  10.988  1.2381  0.5599 -0.2101
  225MOL0     C29595  10.470   2.939  11.070 -0.3208  0.5852  0.7280
  225MOL0     C29596  10.587   2.886  11.007 -0.1145  0.0022  0.1030
  225MOL0     C29597  10.694   2.830  11.089  0.0636  0.1497 -0.1561
  225MOL0     O29598  10.676   2.831  11.224  1.0533 -0.3563  0.0356
  225MOL0     C29599  10.765   2.773  11.310 -0.1584 -0.7225  0.2929
  225MOL0     C29600  10.893   2.839  11.335  1.4584 -0.1681 -0.3286
  225MOL0     C29601  10.969   2.787  11.438 -0.1103 -0.7645 -0.9244
  225MOL0     C29602  10.925   2.675  11.517 -0.8962  0.2528 -0.4197
  225MOL0     O29603  10.985   2.631  11.630  0.0496 -0.9292 -0.6491
  225MOL0     C29604  11.135   2.635  11.641  0.3195 -0.6404  0.0002
  225MOL0     C29605  11.175   2.511  11.722  0.7331  1.1945  0.4282
  225MOL0     C29606  11.144   2.520  11.874  0.2216 -0.8305 -0.4767
  225MOL0     C29607  11.222   2.420  11.954  0.5647  0.1058  0.4121
  225MOL0     C29608  11.217   2.438  12.106  0.6287 -0.4374  0.3655
  225MOL0     C29609  11.286   2.559  12.167 -0.4720  0.5114 -0.0198
  225MOL0     C29610  11.435   2.549  12.150 -0.2411  0.2099 -0.4612
  225MOL0     C29611  11.488   2.689  12.188  0.1114  0.0582  0.1918
  225MOL0    Cl29612  11.443   2.827  12.071 -0.0587  0.2753  0.1674
  225MOL0     C29613  10.809   2.615  11.486 -0.4098  1.2592  0.1301
  225MOL0     C29614  10.728   2.667  11.388  0.2983 -0.1722 -0.2650
  225MOL0     O29615  10.802   2.788  11.035  0.0385  0.1661  0.6353
  225MOL0     C29616  10.594   2.907  10.860  0.5154 -0.0607  0.2630
  225MOL0     C29617  10.497   2.972  10.782  0.0062 -0.4476 -0.1340
  225MOL0     N29618  10.310   3.521  10.563 -0.1552 -0.8124 -0.3192
  225MOL0     N29619  10.401   3.608  10.611 -0.8415 -0.4107 -0.2592
  225MOL0     C29620  10.720   4.444  11.068 -0.2946 -0.0064 -0.5333
  225MOL0     C29621  10.685   4.578  11.098  0.5249 -0.3180  0.5082
  225MOL0     C29622  10.775   5.026  11.166 -0.5894  0.4710  0.5745
  225MOL0     C29623  10.871   5.098  11.236  0.4819 -1.1030  0.2360
  225MOL0     C29624  10.832   5.220  11.295  0.5447 -0.4914 -0.5106
  225MOL0     C29625  10.698   5.266  11.295  0.5535  0.4413  0.0109
  225MOL0     O29626  10.674   5.394  11.351  0.6357  0.6036 -0.0096
  225MOL0     C29627  10.543   5.410  11.423 -1.4113 -0.7501 -0.3880
  225MOL0     C29628  10.554   5.540  11.514  0.4313  0.3792  1.2785
  225MOL0     C29629  10.650   5.536  11.628  1.1614  0.3437  0.2413
  225MOL0     C29630  10.644   5.658  11.707 -0.0333  0.0367 -0.2647
  225MOL0     C29631  10.685   5.785  11.646 -0.8542 -0.0784  0.3076
  225MOL0     C29632  10.720   5.892  11.613 -0.3409 -0.6357  0.4636
  225MOL0     C29633  10.605   5.182  11.230 -0.0670 -0.3647 -0.0453
  225MOL0     C29634  10.649   5.072  11.168 -0.1634  0.6590 -0.8285
  225MOL0     H29635  10.879   4.730  10.864 -2.1719  1.2544  1.3378
  225MOL0     H29636  10.936   4.496  10.815 -1.1422 -1.3944 -0.1069
  225MOL0     H29637  11.021   4.218  10.880  0.1779  1.1624  1.7820
  225MOL0     H29638  10.924   4.290  10.757 -0.9088  0.9953  0.2163
  225MOL0     H29639  10.760   4.109  10.729  0.6482 -0.6368 -0.9537
  225MOL0     H29640  10.826   4.044  10.885  3.4490 -0.2040  0.5415
  225MOL0     H29641  11.042   4.008  10.770 -1.7366 -4.9076  1.3636
  225MOL0     H29642  10.986   4.070  10.622  0.4445  1.9875  2.7323
  225MOL0     H29643  10.899   3.798  10.734  3.6225  1.2344  2.1236
  225MOL0     H29644  10.781   3.907  10.654  0.6243  3.3883  3.1265
  225MOL0     H29645  11.042   3.827  10.514 -0.5030 -0.2788 -0.8562
  225MOL0     H29646  10.909   3.898  10.439  2.3826 -1.5545 -1.8038
  225MOL0     H29647  10.935   3.639  10.567  1.9126  3.0866  1.9188
  225MOL0     H29648  10.931   3.666  10.396 -0.9681  2.0028 -0.4214
  225MOL0     H29649  10.684   3.776  10.460  3.0763  2.1798  1.9946
  225MOL0     H29650  10.723   3.610  10.390 -0.2855  0.3161 -0.8230
  225MOL0     H29651  10.663   3.674  10.673  3.1413 -1.5077 -0.5626
  225MOL0     H29652  10.710   3.513  10.615 -0.0704 -1.0057 -0.2611
  225MOL0     H29653  10.562   3.401  10.406  0.0228 -0.3016  0.3068
  225MOL0     H29654  10.293   3.341  10.299  2.1219  4.0180  0.1023
  225MOL0     H29655  10.169   3.355  10.431  1.0234  3.2262  1.3696
  225MOL0     H29656  10.425   3.185  10.429 -0.1640  1.4394  3.6163
  225MOL0     H29657  10.275   3.122  10.347  2.2495  1.5442 -0.8162
  225MOL0     H29658  10.156   3.130  10.580  0.4272  2.2474  2.4864
  225MOL0     H29659  10.297   3.014  10.561  1.6884  2.1015 -0.4653
  225MOL0     H29660  10.281   3.283  10.696 -0.8175  0.0641  0.6632
  225MOL0     H29661  10.429   3.197  10.690  0.1725 -1.2779  3.6807
  225MOL0     H29662  10.292   3.046  11.045  2.6360  1.5544  1.0354
  225MOL0     H29663  10.458   2.942  11.178  4.7739 -2.8559  1.7344
  225MOL0     H29664  10.924   2.917  11.266  3.0149  1.7944  2.4296
  225MOL0     H29665  11.054   2.850  11.464 -0.7048 -0.0632 -0.6551
  225MOL0     H29666  11.150   2.734  11.685 -1.7295  1.2976 -3.2745
  225MOL0     H29667  11.185   2.638  11.544  0.0411  0.8853 -0.1141
  225MOL0     H29668  11.275   2.478  11.693  0.0923 -0.3206 -0.1923
  225MOL0     H29669  11.110   2.434  11.679 -0.8740  1.7154  1.8156
  225MOL0     H29670  11.035   2.522  11.888  0.3934  0.1584  0.9141
  225MOL0     H29671  11.176   2.619  11.908  1.7403 -1.3491 -0.3663
  225MOL0     H29672  11.170   2.324  11.937  2.5771 -0.7314 -1.5002
  225MOL0     H29673  11.315   2.398  11.901 -0.4457  2.6532 -2.7761
  225MOL0     H29674  11.272   2.353  12.148  2.5677 -0.2900 -1.6929
  225MOL0     H29675  11.111   2.436  12.133  0.5252 -0.1750 -0.0093
  225MOL0     H29676  11.260   2.557  12.273  2.2386  1.4030  0.7373
  225MOL0     H29677  11.241   2.650  12.126  0.9338  1.7676  1.1127
  225MOL0     H29678  11.474   2.466  12.209 -0.6430  0.6186  0.3929
  225MOL0     H29679  11.467   2.535  12.046  0.0492  0.4238 -0.4005
  225MOL0     H29680  11.597   2.680  12.193  0.0631  0.2795  2.5544
  225MOL0     H29681  11.463   2.713  12.292  0.7407  4.4190 -0.4438
  225MOL0     H29682  10.775   2.532  11.549 -1.9499  0.2516 -1.9172
  225MOL0     H29683  10.633   2.615  11.380  0.3491 -0.4586  0.9075
  225MOL0     H29684  10.687   2.875  10.813  1.7896 -0.2532  2.7214
  225MOL0     H29685  10.518   2.998  10.679 -1.8172 -1.8143 -0.9109
  225MOL0     H29686  10.680   4.362  11.127 -1.7306  0.0442 -1.3919
  225MOL0     H29687  10.626   4.598  11.187  3.5703 -0.2668  2.6868
  225MOL0     H29688  10.974   5.068  11.250  1.5151  2.3201  0.8094
  225MOL0     H29689  10.907   5.277  11.349  0.9293 -2.1290  0.7667
  225MOL0     H29690  10.526   5.335  11.501 -1.0829 -0.2475  0.1779
  225MOL0     H29691  10.458   5.400  11.355 -3.5007  1.3132  1.7175
  225MOL0     H29692  10.589   5.617  11.444  0.8748  0.4873  1.6161
  225MOL0     H29693  10.453   5.567  11.544 -0.3389 -0.2625 -0.5634
  225MOL0     H29694  10.750   5.506  11.599  1.4154  0.7361  0.6934
  225MOL0     H29695  10.624   5.452  11.692  1.9461  0.3400  0.5615
  225MOL0     H29696  10.545   5.686  11.745  0.6249  2.5071 -0.2200
  225MOL0     H29697  10.716   5.640  11.787  1.0863 -0.4602 -1.3608
  225MOL0     H29698  10.760   5.988  11.588 -0.1018 -0.8538 -0.0110
  225MOL0     H29699  10.503   5.219  11.222 -0.4103 -0.2239  3.4363
  225MOL0     H29700  10.571   5.001  11.139  0.1802 -0.5581  1.0674
  226MOL0     O29701   0.875   1.922   5.455  0.6909 -0.9942 -0.6340
  226MOL0     C29702   0.857   1.877   5.567  0.3472 -0.6595 -0.7866
  226MOL0     O29703   0.737   1.864   5.628  0.5445 -0.9130  0.0573
  226MOL0     C29704   0.621   1.879   5.556  1.0717 -0.2889 -0.3976
  226MOL0     C29705   0.515   1.959   5.609 -0.0855  0.3704 -0.2706
  226MOL0     C29706   0.391   1.966   5.543  0.2248 -0.3681  0.7889
  226MOL0     C29707   0.381   1.921   5.415  0.0620 -0.2318  0.7283
  226MOL0     O29708   0.262   1.946   5.351  0.4140  0.1457 -0.0552
  226MOL0     C29709   0.280   2.019   5.236  1.5143 -0.1482  0.8344
  226MOL0     C29710   0.137   2.052   5.172 -0.3801 -0.2283  0.0999
  226MOL0     C29711   0.178   2.112   5.036  0.3831 -0.4183 -0.5846
  226MOL0     C29712   0.217   2.260   5.029 -0.1747  0.5313 -0.3908
  226MOL0     C29713   0.242   2.305   4.887  0.3671 -0.8111 -0.6225
  226MOL0     C29714   0.126   2.399   4.842 -0.9946  0.3305 -0.1214
  226MOL0     C29715   0.111   2.411   4.689 -0.6294  0.5752 -1.0789
  226MOL0     C29716   0.094   2.284   4.606 -0.3359 -0.1672  0.7004
  226MOL0     N29717  -0.010   2.195   4.665 -0.4551  0.3649  0.6180
  226MOL0     C29718   0.011   2.070   4.704 -0.6707  0.0294  0.0412
  226MOL0     C29719  -0.111   2.011   4.713  0.6830 -0.5574 -0.0667
  226MOL0     C29720  -0.134   1.873   4.772 -0.0221 -0.5412 -0.4482
  226MOL0     C29721  -0.156   1.778   4.661  0.1133 -0.9721 -0.1508
  226MOL0     C29722  -0.111   1.637   4.702 -0.4923  0.3182  0.5814
  226MOL0     C29723  -0.127   1.542   4.580  0.6253 -0.0096  0.3833
  226MOL0     O29724  -0.264   1.526   4.540 -0.0508 -0.3281  0.0425
  226MOL0     C29725  -0.350   1.440   4.608  0.5082  0.1905  1.3063
  226MOL0     C29726  -0.412   1.466   4.726  0.4253 -1.2194  0.7048
  226MOL0     C29727  -0.503   1.388   4.775 -0.4994 -0.0243 -1.1645
  226MOL0     C29728  -0.527   1.252   4.736 -0.8939 -0.6626  0.8116
  226MOL0     C29729  -0.627   1.160   4.790  0.7667 -0.3311 -0.1762
  226MOL0     O29730  -0.687   1.192   4.913  0.0838 -0.7073  0.0050
  226MOL0     C29731  -0.773   1.098   4.968 -0.7221  0.5110  0.9653
  226MOL0     C29732  -0.711   1.014   5.058  0.0374  0.8375 -0.2699
  226MOL0     C29733  -0.793   0.922   5.126 -0.8907 -0.1381  0.0060
  226MOL0     C29734  -0.921   0.903   5.075 -0.1712 -0.2464  0.0490
  226MOL0     O29735  -1.005   0.807   5.127  0.3550  0.3109  0.0712
  226MOL0     C29736  -0.949   0.674   5.138 -0.1464 -0.0570 -0.4996
  226MOL0     C29737  -1.045   0.582   5.205  0.4661 -0.2122  0.0104
  226MOL0     C29738  -1.184   0.588   5.143 -0.0819 -0.9000  0.2638
  226MOL0     C29739  -1.180   0.580   4.990  0.4142 -0.1902  0.5541
  226MOL0     C29740  -1.315   0.543   4.936  0.4634  0.4412  0.4503
  226MOL0     C29741  -1.305   0.563   4.787 -0.2705  1.2424 -0.3315
  226MOL0     C29742  -1.407   0.488   4.706 -0.0477 -0.2125 -0.3840
  226MOL0     C29743  -1.549   0.511   4.748 -0.1890 -0.2685  0.0894
  226MOL0    Cl29744  -1.645   0.407   4.640  0.0161  0.0769 -0.1534
  226MOL0     C29745  -0.980   0.994   4.990 -1.0398  0.2042  0.6605
  226MOL0     C29746  -0.905   1.100   4.937  0.5006  0.1434 -0.0343
  226MOL0     O29747  -0.635   1.052   4.732 -0.2215  0.4156  0.0463
  226MOL0     C29748  -0.449   1.210   4.624 -0.6774  0.7067  0.3853
  226MOL0     C29749  -0.364   1.309   4.555 -0.0278  0.2215 -0.6151
  226MOL0     N29750  -0.199   2.100   4.657  0.2534  0.5910  0.1666
  226MOL0     N29751  -0.137   2.212   4.634 -0.3552 -0.2542 -0.0417
  226MOL0     C29752   0.484   1.834   5.364 -0.0723 -0.4615  0.0214
  226MOL0     C29753   0.605   1.818   5.433 -0.4677  0.4205  0.0239
  226MOL0     C29754   0.979   1.832   5.634  0.6177 -0.2299 -0.3847
  226MOL0     C29755   1.108   1.861   5.583  0.4538  0.6525 -0.7441
  226MOL0     C29756   1.223   1.829   5.651  0.2215 -1.1142  0.0437
  226MOL0     C29757   1.221   1.768   5.778 -0.8188  0.1147  0.2837
  226MOL0     O29758   1.337   1.750   5.846 -0.1001  0.2723  0.3190
  226MOL0     C29759   1.343   1.650   5.936  0.7099  0.8425  0.5276
  226MOL0     C29760   1.489   1.600   5.961 -0.2978 -0.0667  0.3429
  226MOL0     C29761   1.559   1.576   5.831  0.1618 -0.8297  0.0711
  226MOL0     C29762   1.685   1.492   5.853 -0.4937 -1.1017  0.0062
  226MOL0     C29763   1.808   1.566   5.902  0.4748 -0.4558 -1.0334
  226MOL0     C29764   1.913   1.611   5.947 -1.1051 -0.1345  0.4100
  226MOL0     C29765   1.094   1.726   5.824  0.0711 -1.2003  0.7562
  226MOL0     C29766   0.973   1.767   5.759 -0.3396 -0.2077 -0.2760
  226MOL0     H29767   0.528   1.998   5.710  1.0434 -1.3867  0.3234
  226MOL0     H29768   0.309   2.020   5.590 -0.7774  1.4656 -2.7227
  226MOL0     H29769   0.341   1.954   5.173  0.3117 -1.7938  1.3036
  226MOL0     H29770   0.334   2.110   5.264  1.1731  0.7017 -1.1079
  226MOL0     H29771   0.080   2.122   5.233 -3.7064  1.8151 -4.7550
  226MOL0     H29772   0.081   1.959   5.157 -0.3786 -0.0680 -1.0012
  226MOL0     H29773   0.088   2.106   4.973 -2.3121  3.1583  2.4689
  226MOL0     H29774   0.249   2.044   4.988 -0.3125 -3.0350  1.8072
  226MOL0     H29775   0.162   2.332   5.090  0.2926  2.2479 -1.9153
  226MOL0     H29776   0.321   2.258   5.062  0.5737  2.3023 -2.3921
  226MOL0     H29777   0.256   2.216   4.825  2.6300 -2.4091  1.9259
  226MOL0     H29778   0.336   2.357   4.867 -1.2101  2.3792 -0.2654
  226MOL0     H29779   0.149   2.500   4.877  0.0660  0.0061  0.1657
  226MOL0     H29780   0.033   2.356   4.881  0.3817 -3.0721 -0.2976
  226MOL0     H29781   0.017   2.464   4.671 -0.5386  0.4858 -1.8409
  226MOL0     H29782   0.196   2.466   4.648 -0.1016 -0.5510 -1.5107
  226MOL0     H29783   0.190   2.237   4.584  0.8990  3.6097 -3.5343
  226MOL0     H29784   0.058   2.332   4.515 -1.9091  1.5258  2.1152
  226MOL0     H29785   0.104   2.027   4.740 -1.0586 -0.6194  0.2890
  226MOL0     H29786  -0.220   1.859   4.838  0.4283 -2.2575 -0.1851
  226MOL0     H29787  -0.042   1.853   4.828 -1.5456 -4.0501  1.0360
  226MOL0     H29788  -0.103   1.814   4.572 -0.7066  1.8252  0.3862
  226MOL0     H29789  -0.264   1.773   4.644 -0.2200  2.9639 -0.2401
  226MOL0     H29790  -0.012   1.633   4.748  0.2889 -3.3029 -1.0599
  226MOL0     H29791  -0.172   1.596   4.783 -0.0454  1.7746  1.7096
  226MOL0     H29792  -0.084   1.451   4.622  0.9022  0.1508  0.4524
  226MOL0     H29793  -0.071   1.577   4.493  2.0593 -1.8411  0.4928
  226MOL0     H29794  -0.397   1.567   4.761 -1.9983 -0.2419 -0.7709
  226MOL0     H29795  -0.577   1.421   4.848 -0.8200 -4.0097  0.5763
  226MOL0     H29796  -0.606   1.031   5.078  0.7687 -1.7252 -1.5566
  226MOL0     H29797  -0.746   0.862   5.203 -1.7068 -5.2657 -3.0406
  226MOL0     H29798  -0.857   0.673   5.198 -0.7286 -2.3738  0.4531
  226MOL0     H29799  -0.934   0.631   5.038 -1.4049 -0.9054 -0.3471
  226MOL0     H29800  -1.061   0.602   5.311  0.8874  0.0300  0.0337
  226MOL0     H29801  -1.007   0.482   5.180  2.2864  1.0075 -2.6369
  226MOL0     H29802  -1.234   0.676   5.183  1.9926  1.4177 -1.8854
  226MOL0     H29803  -1.240   0.499   5.174  0.8009 -1.9750 -1.0893
  226MOL0     H29804  -1.160   0.676   4.942 -1.7605 -0.7334 -1.6636
  226MOL0     H29805  -1.111   0.498   4.965  1.2419  0.8388 -0.6517
  226MOL0     H29806  -1.391   0.606   4.983  0.3173 -0.7344  1.8738
  226MOL0     H29807  -1.347   0.440   4.952 -3.9508  1.4860 -0.2421
  226MOL0     H29808  -1.213   0.516   4.750  0.9747  1.8766  1.7692
  226MOL0     H29809  -1.294   0.668   4.759  3.9379  0.9701 -0.3531
  226MOL0     H29810  -1.406   0.526   4.604 -0.1264 -0.7244 -0.5774
  226MOL0     H29811  -1.376   0.383   4.706  2.2493  0.3756  1.6235
  226MOL0     H29812  -1.579   0.616   4.743 -1.9179 -0.7267 -4.4043
  226MOL0     H29813  -1.556   0.485   4.853  2.8902  2.0788  1.0495
  226MOL0     H29814  -1.083   0.977   4.960 -0.1269 -2.6346 -1.2930
  226MOL0     H29815  -0.943   1.183   4.878  0.6638  1.0893  1.1526
  226MOL0     H29816  -0.469   1.117   4.571 -2.3957  0.7168  0.9484
  226MOL0     H29817  -0.301   1.276   4.473 -0.7655 -0.0057 -1.1040
  226MOL0     H29818   0.480   1.789   5.265 -2.7276  0.8786 -0.5713
  226MOL0     H29819   0.692   1.768   5.392 -0.3953  0.1743  0.4716
  226MOL0     H29820   1.116   1.902   5.482 -2.3535 -2.7311 -2.5632
  226MOL0     H29821   1.322   1.854   5.614 -1.1142 -0.1792 -3.2029
  226MOL0     H29822   1.277   1.567   5.909  0.8743  0.3748  1.5059
  226MOL0     H29823   1.305   1.682   6.033  0.1615 -1.0365  0.9879
  226MOL0     H29824   1.542   1.670   6.027 -0.9138 -0.0281  0.8061
  226MOL0     H29825   1.478   1.508   6.019  1.5796 -1.6981 -1.7494
  226MOL0     H29826   1.586   1.670   5.782 -2.1442  2.9437  5.0900
  226MOL0     H29827   1.494   1.528   5.757  1.3433 -1.6549 -0.4495
  226MOL0     H29828   1.667   1.400   5.910  2.8530 -1.3997  0.7801
  226MOL0     H29829   1.716   1.453   5.756  0.0566 -2.6171  0.7573
  226MOL0     H29830   2.007   1.652   5.978  0.3533 -2.8695 -0.0550
  226MOL0     H29831   1.095   1.670   5.917 -0.7663 -1.9392  0.3410
  226MOL0     H29832   0.880   1.759   5.814 -0.9389  0.1269 -1.2183
  227MOL0     O29833   3.819   1.816  10.145  0.0714 -0.3166 -0.4994
  227MOL0     C29834   3.841   1.813  10.263  0.2028  0.5631  0.1343
  227MOL0     O29835   3.961   1.802  10.319  0.6842 -0.1159  0.2859
  227MOL0     C29836   4.077   1.772  10.252  0.3592 -0.2559  0.2106
  227MOL0     C29837   4.090   1.648  10.194  0.6049  0.8117  1.7151
  227MOL0     C29838   4.210   1.611  10.133 -0.2259 -0.5375  0.2802
  227MOL0     C29839   4.324   1.684  10.141  0.1018 -0.1216 -0.6199
  227MOL0     O29840   4.444   1.642  10.072  0.4859 -0.4678  0.0840
  227MOL0     C29841   4.547   1.638  10.162 -0.1540  0.1537 -1.0715
  227MOL0     C29842   4.553   1.515  10.254 -0.4105  0.4261  0.0734
  227MOL0     C29843   4.596   1.394  10.169  0.0267  0.3897  0.3826
  227MOL0     C29844   4.566   1.269  10.243 -0.3085  0.8439  0.4016
  227MOL0     C29845   4.592   1.145  10.152  0.5308 -0.6146 -0.2884
  227MOL0     C29846   4.525   1.019  10.220  0.1120 -0.6808  0.0991
  227MOL0     C29847   4.567   0.878  10.171 -0.5427 -0.3802 -0.5639
  227MOL0     C29848   4.508   0.852  10.030 -0.2484 -1.0007 -0.2631
  227MOL0     N29849   4.519   0.707   9.999  0.0157  0.4739  0.0556
  227MOL0     C29850   4.432   0.607  10.035 -0.0282  0.5972 -1.7564
  227MOL0     C29851   4.486   0.497   9.970  0.0194 -0.1799 -1.0860
  227MOL0     C29852   4.430   0.358   9.964  0.1944 -0.8683  0.3513
  227MOL0     C29853   4.311   0.358   9.877 -0.4725 -0.7320  0.4270
  227MOL0     C29854   4.352   0.350   9.729  0.3181  1.0108  1.0592
  227MOL0     C29855   4.328   0.481   9.650  0.5342 -0.2886  0.2454
  227MOL0     O29856   4.190   0.522   9.667  0.4851 -0.2004 -0.2909
  227MOL0     C29857   4.150   0.640   9.620 -0.0780  0.3054 -0.1656
  227MOL0     C29858   4.075   0.726   9.710 -0.8057 -0.4423 -0.1499
  227MOL0     C29859   4.036   0.846   9.651 -0.0263  0.4367  0.5763
  227MOL0     C29860   4.081   0.891   9.522 -0.0324  0.5427 -0.3062
  227MOL0     C29861   4.036   1.023   9.468 -0.2103 -0.2221  0.9209
  227MOL0     O29862   4.085   1.049   9.345 -0.2058  0.1863 -0.1209
  227MOL0     C29863   4.038   1.160   9.285  0.2479  0.0982  0.2840
  227MOL0     C29864   4.076   1.286   9.331  0.0833 -0.2820 -1.4374
  227MOL0     C29865   4.028   1.406   9.266  0.0068  0.3162 -0.6372
  227MOL0     C29866   3.951   1.396   9.155  1.3940 -0.5807  0.7082
  227MOL0     O29867   3.891   1.515   9.111  0.8537 -0.5183 -0.2802
  227MOL0     C29868   3.833   1.526   8.980  0.3548  0.1525 -0.4142
  227MOL0     C29869   3.937   1.566   8.870  0.5568  0.4741  0.6412
  227MOL0     C29870   3.990   1.702   8.883 -0.4821  0.2814  0.7352
  227MOL0     C29871   4.064   1.756   8.756 -0.1448  0.3451 -0.1593
  227MOL0     C29872   4.138   1.893   8.794 -0.0704  0.2401  0.3008
  227MOL0     C29873   4.058   2.014   8.757  0.1368  0.0509 -0.6674
  227MOL0     C29874   4.147   2.137   8.722  0.6036 -0.8652  0.5110
  227MOL0     C29875   4.063   2.268   8.742 -0.0999  0.0449  0.2667
  227MOL0    Cl29876   4.042   2.297   8.911  0.1471 -0.2635  0.0629
  227MOL0     C29877   3.928   1.266   9.103  0.0988  0.0377  1.2440
  227MOL0     C29878   3.973   1.152   9.166  0.6317 -0.0887 -0.1349
  227MOL0     O29879   3.950   1.081   9.525  0.1029  0.2348 -0.4666
  227MOL0     C29880   4.156   0.808   9.442 -0.6559  0.1960 -0.2726
  227MOL0     C29881   4.200   0.681   9.487 -0.4265  0.3252  0.1560
  227MOL0     N29882   4.596   0.537   9.908 -0.6828  0.3579  0.3221
  227MOL0     N29883   4.625   0.664   9.934  0.1109 -0.3217 -1.1486
  227MOL0     C29884   4.303   1.816  10.203 -0.9478  0.2836 -0.0102
  227MOL0     C29885   4.184   1.859  10.249  0.1960  0.0517 -0.2272
  227MOL0     C29886   3.737   1.821  10.369 -0.3849 -0.1906  0.4845
  227MOL0     C29887   3.608   1.794  10.349  0.1561  0.1844 -0.4655
  227MOL0     C29888   3.510   1.804  10.453 -0.1412 -0.2491 -0.5396
  227MOL0     C29889   3.553   1.816  10.584  0.7747 -0.7050 -0.1321
  227MOL0     O29890   3.462   1.833  10.691 -0.2928  0.0138  0.2854
  227MOL0     C29891   3.343   1.758  10.696 -0.0230 -0.0622  0.3022
  227MOL0     C29892   3.315   1.684  10.822 -0.2054 -1.0197  0.0292
  227MOL0     C29893   3.176   1.710  10.883  0.1013  0.2244 -0.0270
  227MOL0     C29894   3.141   1.597  10.982  0.6614 -0.2145  0.2990
  227MOL0     C29895   3.219   1.597  11.109  0.5935  0.5168 -0.2556
  227MOL0     C29896   3.278   1.616  11.211  0.7464  0.2738 -0.7726
  227MOL0     C29897   3.684   1.843  10.614 -0.6390 -0.4891  1.5785
  227MOL0     C29898   3.769   1.858  10.503 -0.7245  0.0058 -1.1174
  227MOL0     H29899   4.006   1.579  10.184  0.7020  0.3590  3.6937
  227MOL0     H29900   4.211   1.527  10.063  0.4008 -0.3543  0.0627
  227MOL0     H29901   4.562   1.729  10.221  0.9462  1.5734 -3.3750
  227MOL0     H29902   4.634   1.641  10.096 -0.8174 -0.6792 -2.0187
  227MOL0     H29903   4.460   1.490  10.307 -1.5952 -3.6119 -3.2922
  227MOL0     H29904   4.632   1.532  10.327  0.0816  0.1120 -0.3796
  227MOL0     H29905   4.702   1.389  10.144  0.0244 -1.2521  0.6405
  227MOL0     H29906   4.543   1.399  10.073  0.5131  0.6526  0.1228
  227MOL0     H29907   4.639   1.268  10.324 -1.7966  0.0086  1.7718
  227MOL0     H29908   4.463   1.262  10.280 -0.2209  0.4058  0.5689
  227MOL0     H29909   4.702   1.138  10.152  0.6361  0.8301 -0.3040
  227MOL0     H29910   4.552   1.161  10.051 -0.9922  3.4440  0.7773
  227MOL0     H29911   4.417   1.025  10.204  0.1525 -0.7217 -0.1981
  227MOL0     H29912   4.543   1.017  10.328 -1.4998 -2.8499  0.3945
  227MOL0     H29913   4.677   0.877  10.173 -0.5363 -1.2519 -1.1137
  227MOL0     H29914   4.543   0.797  10.239  0.5344 -1.2442 -1.1845
  227MOL0     H29915   4.570   0.898   9.952  1.0854 -1.2435  0.6360
  227MOL0     H29916   4.411   0.900  10.013  0.6152  0.8842 -0.1271
  227MOL0     H29917   4.336   0.618  10.084  0.2353 -0.3936 -0.9888
  227MOL0     H29918   4.377   0.348  10.059 -2.8508  1.8183 -0.8837
  227MOL0     H29919   4.509   0.284   9.950  3.0414  2.0822 -0.4033
  227MOL0     H29920   4.243   0.442   9.894  1.7201  1.2695 -0.1888
  227MOL0     H29921   4.256   0.267   9.904 -2.6929  1.4915  4.3899
  227MOL0     H29922   4.459   0.328   9.725 -0.4126 -3.1469 -0.5652
  227MOL0     H29923   4.301   0.264   9.684  1.1138  0.8029  0.5386
  227MOL0     H29924   4.348   0.458   9.545  1.4115  0.1740  0.3020
  227MOL0     H29925   4.401   0.558   9.676  1.6913 -0.6418 -1.7516
  227MOL0     H29926   4.049   0.685   9.806 -0.9149  1.3364  0.6280
  227MOL0     H29927   3.974   0.916   9.707 -1.0227  1.0941 -1.2538
  227MOL0     H29928   4.131   1.279   9.424  0.7684 -0.7114 -1.8720
  227MOL0     H29929   4.053   1.505   9.303 -1.4217 -0.4359  2.7781
  227MOL0     H29930   3.761   1.608   8.995  0.4446  0.1141  0.2707
  227MOL0     H29931   3.771   1.441   8.950  0.1537  0.9902 -2.5311
  227MOL0     H29932   3.888   1.547   8.774  0.4601 -1.1234  0.9831
  227MOL0     H29933   4.016   1.490   8.874 -0.7656 -0.9578  0.2694
  227MOL0     H29934   4.059   1.701   8.969  1.8829  1.1930 -1.0374
  227MOL0     H29935   3.913   1.774   8.912  0.8979  1.1978  2.3307
  227MOL0     H29936   4.136   1.682   8.718 -0.2576 -0.0804  0.4376
  227MOL0     H29937   3.988   1.784   8.683  1.0442  4.2138 -0.1337
  227MOL0     H29938   4.222   1.885   8.725 -1.2348  3.1916 -1.6661
  227MOL0     H29939   4.184   1.896   8.893  0.8645 -1.0422 -0.0693
  227MOL0     H29940   3.978   2.036   8.829 -0.6886 -0.5308 -1.3798
  227MOL0     H29941   3.995   2.008   8.668  0.7649  1.0163 -1.1893
  227MOL0     H29942   4.245   2.149   8.769  1.0243  0.1543 -0.5706
  227MOL0     H29943   4.182   2.132   8.618  5.8409  0.6996  1.8862
  227MOL0     H29944   3.973   2.258   8.681  0.6664 -1.2408 -0.7210
  227MOL0     H29945   4.124   2.345   8.694  0.5138  1.0082  2.4655
  227MOL0     H29946   3.870   1.248   9.014  1.1202 -0.6754  0.6962
  227MOL0     H29947   3.953   1.053   9.127 -0.7742 -0.6128  1.8008
  227MOL0     H29948   4.196   0.834   9.345  1.1142 -3.5779 -0.7468
  227MOL0     H29949   4.262   0.606   9.439  0.0614 -1.4316  3.2863
  227MOL0     H29950   4.391   1.878  10.203 -0.1151 -0.8672  0.2498
  227MOL0     H29951   4.185   1.957  10.295  1.4002  0.9927 -2.1860
  227MOL0     H29952   3.551   1.762  10.262 -2.7396 -1.5661  1.8834
  227MOL0     H29953   3.403   1.800  10.431  0.3843 -1.4860 -3.3245
  227MOL0     H29954   3.334   1.679  10.621 -0.0287 -0.4546  0.7109
  227MOL0     H29955   3.258   1.826  10.686 -0.3203 -0.6013 -1.1587
  227MOL0     H29956   3.344   1.582  10.797  1.4328 -0.3862 -0.8092
  227MOL0     H29957   3.376   1.723  10.905 -0.7858 -0.6120  0.2742
  227MOL0     H29958   3.113   1.714  10.794  3.3106 -0.2539 -2.5353
  227MOL0     H29959   3.168   1.810  10.927 -0.3181  0.4246 -0.5564
  227MOL0     H29960   3.036   1.607  11.010  0.4302  0.9973 -0.9247
  227MOL0     H29961   3.160   1.508  10.921 -1.9216 -1.5297  1.2860
  227MOL0     H29962   3.328   1.647  11.300  3.1182 -1.7433 -1.2749
  227MOL0     H29963   3.719   1.875  10.712 -1.2761  0.6293  1.4553
  227MOL0     H29964   3.869   1.895  10.521 -0.0139 -0.0401 -4.3691
  228MOL0     O29965   7.000   0.355   0.798 -0.0671 -0.3866  0.5453
  228MOL0     C29966   7.046   0.274   0.717  0.2311 -0.4650  0.0323
  228MOL0     O29967   7.108   0.308   0.599 -0.0556  0.1606  0.0093
  228MOL0     C29968   7.103   0.442   0.564  0.2888 -0.2368 -0.7529
  228MOL0     C29969   7.221   0.507   0.563 -0.8602 -0.0536  0.3614
  228MOL0     C29970   7.225   0.637   0.524  1.1848  0.2889  0.6677
  228MOL0     C29971   7.113   0.706   0.487 -0.4706 -1.0241  0.3470
  228MOL0     O29972   7.132   0.841   0.459  0.3137 -0.5262  0.4990
  228MOL0     C29973   7.018   0.920   0.434  0.2216  0.2785 -0.0301
  228MOL0     C29974   7.057   1.060   0.386  1.1910  0.0855  0.7551
  228MOL0     C29975   7.151   1.136   0.480 -1.0538 -0.0851 -0.1652
  228MOL0     C29976   7.288   1.069   0.494 -0.0585  0.1007  0.6258
  228MOL0     C29977   7.406   1.163   0.501  0.1769 -0.1890 -0.4293
  228MOL0     C29978   7.535   1.088   0.544 -0.3737 -0.0853 -0.1451
  228MOL0     C29979   7.641   1.173   0.595 -0.9253  0.2578 -0.0183
  228MOL0     C29980   7.707   1.252   0.478 -0.1058  0.6347 -0.1436
  228MOL0     N29981   7.815   1.340   0.548  1.0616 -0.0824 -0.3503
  228MOL0     C29982   7.787   1.470   0.588 -1.0260  0.3269  0.1379
  228MOL0     C29983   7.902   1.513   0.637  0.0234 -0.9512  0.0657
  228MOL0     C29984   7.935   1.654   0.697 -0.7564  0.9213  0.3790
  228MOL0     C29985   8.038   1.735   0.631  0.0930 -0.1284 -0.4755
  228MOL0     C29986   8.184   1.722   0.691  0.1768  0.8393 -0.2695
  228MOL0     C29987   8.277   1.823   0.630 -0.2170  0.1830  0.5484
  228MOL0     O29988   8.245   1.959   0.669 -0.3097 -0.4425 -0.6962
  228MOL0     C29989   8.289   2.060   0.582 -0.5503  1.2373  0.8855
  228MOL0     C29990   8.411   2.051   0.499 -0.2869  0.5535 -0.2966
  228MOL0     C29991   8.440   2.149   0.405 -0.3657 -0.7010 -1.0210
  228MOL0     C29992   8.348   2.257   0.390 -0.4436 -0.0042 -0.0952
  228MOL0     C29993   8.377   2.364   0.292 -0.4832  0.6546 -1.0510
  228MOL0     O29994   8.495   2.349   0.230 -0.0616 -0.7706  0.0982
  228MOL0     C29995   8.530   2.468   0.157  0.0583  0.6312  0.4335
  228MOL0     C29996   8.568   2.584   0.211 -0.2366 -0.1041 -0.3386
  228MOL0     C29997   8.598   2.701   0.132 -0.3680  0.2161 -0.3403
  228MOL0     C29998   8.587   2.691  -0.003  0.5354 -1.5874 -0.0407
  228MOL0     O29999   8.640   2.796  -0.075 -0.0392 -0.6896  0.5725
  228MOL0     C30000   8.668   2.757  -0.208  0.1843 -0.8557 -0.1322
  228MOL0     C30001   8.749   2.866  -0.288 -1.0342 -0.5438 -0.0922
  228MOL0     C30002   8.893   2.891  -0.247 -0.0397 -0.3545  0.2518
  228MOL0     C30003   8.969   2.983  -0.345  0.3701 -0.0197 -0.5396
  228MOL0     C30004   9.109   3.021  -0.286 -0.1247 -0.3079 -0.1123
  228MOL0     C30005   9.206   2.910  -0.301  0.1092 -0.0293  0.5093
  228MOL0     C30006   9.327   2.929  -0.213  0.4105 -0.0818  0.1716
  228MOL0     C30007   9.431   2.819  -0.221 -0.1725  0.3542 -0.1278
  228MOL0    Cl30008   9.459   2.774  -0.384  0.1384  0.3211 -0.4372
  228MOL0     C30009   8.510   2.578  -0.051  0.2757 -0.6853  0.6769
  228MOL0     C30010   8.487   2.471   0.025  0.2894  0.2691  0.7090
  228MOL0     O30011   8.307   2.459   0.294 -0.5109 -0.6948  0.9297
  228MOL0     C30012   8.230   2.269   0.470  0.4068  0.3167 -0.2804
  228MOL0     C30013   8.201   2.171   0.561 -0.0502 -0.0406  0.6698
  228MOL0     N30014   7.999   1.410   0.633  1.1859  0.7145 -0.8153
  228MOL0     N30015   7.941   1.304   0.578 -0.4704 -0.3283  0.5259
  228MOL0     C30016   6.990   0.643   0.473  0.6034  0.7666  0.8643
  228MOL0     C30017   6.984   0.506   0.524  0.5838  1.0614  0.6894
  228MOL0     C30018   7.031   0.129   0.749 -0.0160  0.4171 -0.9542
  228MOL0     C30019   7.102   0.040   0.671  0.6789  0.0365  0.3203
  228MOL0     C30020   7.111  -0.091   0.713 -0.7336  0.9180 -1.2377
  228MOL0     C30021   7.055  -0.142   0.834  0.7510  0.0456 -0.2371
  228MOL0     O30022   7.055  -0.283   0.865 -0.7731 -1.0532 -0.3493
  228MOL0     C30023   7.009  -0.319   0.993 -1.2402  0.1001  0.2342
  228MOL0     C30024   7.098  -0.443   1.011 -0.0626  0.1255 -0.1373
  228MOL0     C30025   7.031  -0.570   0.959  0.5621  0.3705  0.0093
  228MOL0     C30026   7.085  -0.710   0.999 -0.4209 -0.7598 -0.3815
  228MOL0     C30027   7.228  -0.706   0.973  0.0840  0.5996 -0.3305
  228MOL0     C30028   7.348  -0.712   0.948  0.0972  0.5418  0.6197
  228MOL0     C30029   6.965  -0.059   0.900 -1.3345 -0.6724 -0.1620
  228MOL0     C30030   6.964   0.077   0.870  1.3393  0.5084 -0.0342
  228MOL0     H30031   7.313   0.458   0.594 -1.7166 -1.4984  0.7118
  228MOL0     H30032   7.323   0.683   0.528  2.0017 -1.2671 -0.3190
  228MOL0     H30033   6.962   0.935   0.528  3.3503  1.6324  1.7929
  228MOL0     H30034   6.952   0.878   0.358 -0.5647  2.3398 -0.5755
  228MOL0     H30035   6.968   1.116   0.354  0.5737 -2.2453 -2.1436
  228MOL0     H30036   7.111   1.052   0.291 -1.5599  1.4554 -1.0728
  228MOL0     H30037   7.103   1.170   0.572 -1.3607 -0.6098 -0.1280
  228MOL0     H30038   7.180   1.227   0.426  0.0310 -0.8750 -0.9504
  228MOL0     H30039   7.282   1.007   0.585  1.7082  0.8145  1.2702
  228MOL0     H30040   7.311   1.016   0.401 -2.2287  0.8352 -0.3724
  228MOL0     H30041   7.382   1.233   0.583  0.5336  1.3702 -1.6099
  228MOL0     H30042   7.415   1.209   0.402  1.5601  1.4838  0.4175
  228MOL0     H30043   7.575   1.029   0.461  0.0040 -0.4042  0.2606
  228MOL0     H30044   7.505   1.015   0.620  1.5879  0.9659  1.7557
  228MOL0     H30045   7.617   1.243   0.676  4.6826  2.3962  0.2247
  228MOL0     H30046   7.721   1.114   0.640 -0.9906 -1.8216 -2.4281
  228MOL0     H30047   7.627   1.307   0.427 -1.9249 -2.5204 -0.9863
  228MOL0     H30048   7.760   1.187   0.408 -0.9513 -2.8744  2.1911
  228MOL0     H30049   7.693   1.522   0.570 -2.3481 -2.2520 -1.0861
  228MOL0     H30050   7.964   1.647   0.802 -2.7500  2.2875  1.0754
  228MOL0     H30051   7.845   1.714   0.709 -0.4749  0.9892  2.4213
  228MOL0     H30052   8.011   1.840   0.619  3.9715  1.2407  1.2082
  228MOL0     H30053   8.048   1.699   0.528  0.6859 -0.5002 -0.2948
  228MOL0     H30054   8.189   1.758   0.795 -1.1091 -1.0845  0.5069
  228MOL0     H30055   8.222   1.620   0.685 -0.8880  0.5160 -1.9506
  228MOL0     H30056   8.286   1.815   0.522 -0.2715 -1.8138  0.6476
  228MOL0     H30057   8.373   1.799   0.677 -0.3014 -1.7493 -0.1976
  228MOL0     H30058   8.486   1.975   0.520  0.9905  2.0125  0.7441
  228MOL0     H30059   8.532   2.139   0.349  0.2302  1.5789 -0.5376
  228MOL0     H30060   8.567   2.585   0.320 -2.8173  1.9065 -0.2737
  228MOL0     H30061   8.630   2.797   0.173  0.6292  1.7245 -4.1802
  228MOL0     H30062   8.570   2.741  -0.255  0.4455 -2.0520 -0.2950
  228MOL0     H30063   8.728   2.667  -0.200  2.8792  0.6711 -1.7416
  228MOL0     H30064   8.688   2.956  -0.300 -1.9110 -1.2015 -0.6214
  228MOL0     H30065   8.761   2.824  -0.388  0.3995 -2.0606  0.6470
  228MOL0     H30066   8.935   2.791  -0.234 -1.0622 -1.1835 -2.2740
  228MOL0     H30067   8.900   2.945  -0.152 -0.6190 -0.9449  0.6395
  228MOL0     H30068   8.978   2.926  -0.438  0.1912 -1.1204  0.1026
  228MOL0     H30069   8.919   3.075  -0.377  3.0166  1.0308 -1.9678
  228MOL0     H30070   9.104   3.045  -0.179 -1.8677 -1.2800  0.0541
  228MOL0     H30071   9.150   3.099  -0.351 -2.1397 -0.4465 -1.6484
  228MOL0     H30072   9.232   2.909  -0.407  0.7712 -0.3254  0.6647
  228MOL0     H30073   9.161   2.812  -0.284 -0.6195  0.3822  1.0106
  228MOL0     H30074   9.369   3.021  -0.254 -1.8839  1.6657  1.4985
  228MOL0     H30075   9.301   2.969  -0.115 -1.8192  3.3945 -1.6337
  228MOL0     H30076   9.372   2.738  -0.177 -3.5475  0.2238 -4.2083
  228MOL0     H30077   9.522   2.853  -0.171 -1.4498  1.0543  1.8050
  228MOL0     H30078   8.475   2.559  -0.152 -0.8405 -0.2355  0.9708
  228MOL0     H30079   8.420   2.400  -0.021 -1.7888  0.8872  2.5971
  228MOL0     H30080   8.157   2.349   0.457  0.7478  0.8466  0.8949
  228MOL0     H30081   8.107   2.184   0.614  0.2134  1.9538  0.7366
  228MOL0     H30082   6.898   0.691   0.441  1.6036  2.4807  0.4159
  228MOL0     H30083   6.907   0.431   0.535  2.5365 -1.3482 -0.8671
  228MOL0     H30084   7.138   0.067   0.573  1.0439 -1.8785 -0.1076
  228MOL0     H30085   7.161  -0.160   0.646 -0.1590 -0.3147  0.4100
  228MOL0     H30086   6.903  -0.345   1.002 -1.0945 -0.4948  0.2660
  228MOL0     H30087   7.042  -0.247   1.068  2.3866  0.5393 -1.6126
  228MOL0     H30088   7.196  -0.424   0.965 -0.3205  2.5742  0.2288
  228MOL0     H30089   7.115  -0.463   1.118  1.0415  0.2896 -0.2676
  228MOL0     H30090   7.023  -0.566   0.850  0.9187  0.2873 -0.0196
  228MOL0     H30091   6.930  -0.571   1.000  0.6520 -1.8572  0.2703
  228MOL0     H30092   7.066  -0.736   1.103  0.6368  1.7255  0.5117
  228MOL0     H30093   7.035  -0.784   0.936 -1.4623  0.8096 -1.5082
  228MOL0     H30094   7.454  -0.725   0.944 -0.0039  0.0292 -1.6366
  228MOL0     H30095   6.908  -0.099   0.983 -2.5636 -0.2000 -0.7561
  228MOL0     H30096   6.914   0.143   0.940 -0.2163 -1.2536  0.5959
  229MOL0     O30097   5.831   9.945   6.747  0.4753  0.0717 -0.1447
  229MOL0     C30098   5.902   9.975   6.842  1.3843  0.0491  0.4203
  229MOL0     O30099   6.027   9.930   6.844  0.3469  0.0950  0.6233
  229MOL0     C30100   6.078   9.862   6.737  0.3808  0.0382 -0.0524
  229MOL0     C30101   6.068   9.897   6.602 -0.4772  0.2625  0.8503
  229MOL0     C30102   6.112   9.829   6.495  0.4805 -1.2965  0.6729
  229MOL0     C30103   6.160   9.698   6.511 -0.8050 -0.4659 -0.2768
  229MOL0     O30104   6.196   9.608   6.418  0.1616 -0.3802  0.2630
  229MOL0     C30105   6.233   9.665   6.294 -0.0211  0.0687  0.0219
  229MOL0     C30106   6.277   9.564   6.194 -0.0380  0.1864 -0.8729
  229MOL0     C30107   6.370   9.461   6.255 -0.3994 -0.1612 -0.5665
  229MOL0     C30108   6.452   9.400   6.140 -0.0587 -0.0306  0.6772
  229MOL0     C30109   6.586   9.335   6.192 -0.7392 -0.1065 -0.0576
  229MOL0     C30110   6.552   9.226   6.300  0.5571 -1.1712  0.2542
  229MOL0     C30111   6.663   9.132   6.339 -0.6276  0.1937  0.2717
  229MOL0     C30112   6.721   9.046   6.224 -0.0924 -0.9460  0.5928
  229MOL0     N30113   6.808   8.941   6.272 -0.5863 -0.2522 -0.1400
  229MOL0     C30114   6.769   8.843   6.366  0.3536  0.2217  0.6382
  229MOL0     C30115   6.862   8.743   6.366 -0.2573 -1.3028 -0.2352
  229MOL0     C30116   6.873   8.614   6.430 -1.0218  0.1670  0.7488
  229MOL0     C30117   6.965   8.623   6.554 -0.5854 -0.0689 -0.4873
  229MOL0     C30118   7.116   8.633   6.500  0.3781 -0.9070 -0.5953
  229MOL0     C30119   7.217   8.659   6.621 -0.2765 -1.0977  1.0145
  229MOL0     O30120   7.228   8.544   6.703 -0.3506 -0.2673 -0.3981
  229MOL0     C30121   7.347   8.509   6.758  0.2384  0.9819  0.3482
  229MOL0     C30122   7.468   8.538   6.711  1.2523  1.0788  0.4489
  229MOL0     C30123   7.590   8.501   6.772  0.4957  0.2249 -0.6302
  229MOL0     C30124   7.582   8.429   6.889  0.3108 -0.0553  0.2198
  229MOL0     C30125   7.703   8.394   6.961 -0.2333 -0.7197  0.3371
  229MOL0     O30126   7.689   8.296   7.050 -0.2104 -0.0272 -0.1501
  229MOL0     C30127   7.786   8.237   7.133  1.0180  0.5257 -0.0676
  229MOL0     C30128   7.762   8.115   7.196 -0.1035 -0.0415 -0.1376
  229MOL0     C30129   7.861   8.043   7.256 -1.5996  0.0574  1.2851
  229MOL0     C30130   7.996   8.090   7.256 -0.2878  0.5035 -0.4269
  229MOL0     O30131   8.094   8.017   7.317  0.0765 -0.0403 -0.3564
  229MOL0     C30132   8.245   8.055   7.321  0.1077 -0.5048 -0.2655
  229MOL0     C30133   8.310   8.021   7.185 -0.1216 -0.5705 -0.5187
  229MOL0     C30134   8.399   8.137   7.146  1.4137  0.0291 -0.5207
  229MOL0     C30135   8.514   8.173   7.237  1.3872  0.6115 -0.7363
  229MOL0     C30136   8.640   8.216   7.164 -0.4993 -0.2268 -0.0288
  229MOL0     C30137   8.728   8.099   7.112  0.7251 -0.7317 -0.4810
  229MOL0     C30138   8.840   8.162   7.040 -0.1008  0.2473 -0.1691
  229MOL0     C30139   8.956   8.058   7.024  0.5423 -0.3343 -0.0290
  229MOL0    Cl30140   9.044   8.003   7.159 -0.2274 -0.2247 -0.2869
  229MOL0     C30141   8.024   8.214   7.195  0.7956 -0.0995 -1.5294
  229MOL0     C30142   7.919   8.287   7.138  0.3962 -0.0516 -0.8246
  229MOL0     O30143   7.810   8.450   6.926  0.0830 -0.2695 -0.1176
  229MOL0     C30144   7.453   8.406   6.948  0.1126  0.2737 -0.3619
  229MOL0     C30145   7.337   8.444   6.884  0.4282 -0.4263  0.4028
  229MOL0     N30146   6.955   8.796   6.269  1.2921  0.1144  0.4831
  229MOL0     N30147   6.933   8.915   6.230  0.9458  0.0353  0.0763
  229MOL0     C30148   6.198   9.662   6.641  0.5243 -0.1163  0.1616
  229MOL0     C30149   6.150   9.736   6.756 -0.5537 -0.7488 -0.4102
  229MOL0     C30150   5.843  10.050   6.950  0.3466  0.6961 -0.0420
  229MOL0     C30151   5.701  10.067   6.943  0.6301 -0.6678 -0.1762
  229MOL0     C30152   5.636  10.120   7.057  0.1845 -0.3983 -0.1199
  229MOL0     C30153   5.694  10.160   7.174 -0.3653 -0.8709  0.2140
  229MOL0     O30154   5.614  10.215   7.276 -0.5325  0.5690 -0.3129
  229MOL0     C30155   5.667  10.281   7.395 -0.8098 -0.0813 -0.1530
  229MOL0     C30156   5.731  10.414   7.343  0.3309  0.8167 -0.2518
  229MOL0     C30157   5.747  10.513   7.458  0.4244 -0.5667 -0.3035
  229MOL0     C30158   5.770  10.651   7.404 -0.7425  0.9497  0.8481
  229MOL0     C30159   5.772  10.760   7.500  0.0815  0.1440  0.4410
  229MOL0     C30160   5.792  10.845   7.583  0.2549 -0.2333 -0.4326
  229MOL0     C30161   5.828  10.133   7.185 -0.2498 -0.1674  0.4957
  229MOL0     C30162   5.899  10.079   7.076 -0.3057  0.2126 -0.5172
  229MOL0     H30163   6.021   9.994   6.587  0.4463  0.4147 -1.4405
  229MOL0     H30164   6.099   9.880   6.401  1.2424 -0.0726  1.2077
  229MOL0     H30165   6.325   9.724   6.305  0.5002 -0.7279 -0.0137
  229MOL0     H30166   6.159   9.737   6.256  1.5211  1.9621  0.3997
  229MOL0     H30167   6.322   9.622   6.112  3.4568  1.7731  1.8916
  229MOL0     H30168   6.182   9.519   6.163 -1.5873  1.4286  1.7625
  229MOL0     H30169   6.316   9.390   6.317 -1.3516  0.3091 -0.8438
  229MOL0     H30170   6.449   9.506   6.317 -3.2618 -0.0595  3.4004
  229MOL0     H30171   6.392   9.328   6.083  0.0310  0.9703 -0.7176
  229MOL0     H30172   6.486   9.472   6.065 -0.7356 -0.5518 -0.1355
  229MOL0     H30173   6.655   9.411   6.233 -2.2619  0.3182  1.8587
  229MOL0     H30174   6.635   9.291   6.105  1.9775 -1.5015  2.0024
  229MOL0     H30175   6.464   9.170   6.267  0.0373  0.8570 -2.0761
  229MOL0     H30176   6.522   9.283   6.389  2.5088 -1.2381  1.0141
  229MOL0     H30177   6.749   9.189   6.377 -1.2801 -0.0149  2.1478
  229MOL0     H30178   6.630   9.077   6.427 -0.9813 -2.2193 -1.2837
  229MOL0     H30179   6.774   9.107   6.151  0.4635 -1.6510  0.3999
  229MOL0     H30180   6.645   9.003   6.158 -0.8407  0.1053  0.7360
  229MOL0     H30181   6.669   8.843   6.408 -0.1151  0.3344 -0.4401
  229MOL0     H30182   6.892   8.534   6.357 -1.3595  1.3224 -0.6341
  229MOL0     H30183   6.779   8.595   6.482 -1.0574  2.0918  1.4693
  229MOL0     H30184   6.949   8.537   6.621 -0.1275  0.3994  0.2460
  229MOL0     H30185   6.935   8.714   6.607 -2.2205 -1.3523  0.9351
  229MOL0     H30186   7.149   8.542   6.448  3.3765  0.2669 -0.9296
  229MOL0     H30187   7.129   8.717   6.431  2.4490  0.9019  1.8076
  229MOL0     H30188   7.180   8.746   6.677 -2.7057 -1.4279  0.0342
  229MOL0     H30189   7.307   8.698   6.572 -2.1566 -2.0043 -3.6528
  229MOL0     H30190   7.485   8.584   6.614  3.9832  1.0002  0.8137
  229MOL0     H30191   7.679   8.537   6.722  0.8808 -1.6111 -1.3264
  229MOL0     H30192   7.657   8.089   7.187 -0.3567 -0.4002  2.6904
  229MOL0     H30193   7.849   7.946   7.303 -0.4908  0.3557  2.2375
  229MOL0     H30194   8.292   8.004   7.406 -1.3604  0.0273  0.9215
  229MOL0     H30195   8.259   8.162   7.340  1.2418 -0.8728  1.0818
  229MOL0     H30196   8.233   8.015   7.107  0.9366  0.7462 -1.7108
  229MOL0     H30197   8.378   7.936   7.191  3.5400  1.8852 -3.1204
  229MOL0     H30198   8.343   8.230   7.136  0.5330 -0.4680 -0.2511
  229MOL0     H30199   8.445   8.105   7.052  1.7661 -2.2658  0.3863
  229MOL0     H30200   8.476   8.249   7.306  0.7626  1.4708 -1.9966
  229MOL0     H30201   8.531   8.090   7.307  1.5966  1.1172 -0.1800
  229MOL0     H30202   8.679   8.295   7.229 -2.5080  0.2337  0.6783
  229MOL0     H30203   8.600   8.260   7.072 -4.8446 -0.5011  1.4828
  229MOL0     H30204   8.672   8.032   7.045  0.3244  1.7132 -2.7970
  229MOL0     H30205   8.765   8.044   7.198  0.0197 -2.0420 -0.9936
  229MOL0     H30206   8.816   8.190   6.937  1.0806 -1.3655 -0.9295
  229MOL0     H30207   8.884   8.248   7.091  3.4632 -0.2039 -2.1639
  229MOL0     H30208   9.026   8.089   6.946  1.3261  0.4415  0.9488
  229MOL0     H30209   8.913   7.965   6.985 -3.5764  1.3130  0.0171
  229MOL0     H30210   8.124   8.255   7.187  0.7608  0.1669 -0.7042
  229MOL0     H30211   7.954   8.377   7.089  1.3096  0.1636  0.2044
  229MOL0     H30212   7.449   8.360   7.046  3.1403 -3.6744 -1.8376
  229MOL0     H30213   7.238   8.433   6.926 -1.5614  0.5274 -3.5610
  229MOL0     H30214   6.262   9.580   6.670  1.7454 -0.7390 -3.7640
  229MOL0     H30215   6.156   9.692   6.856 -2.8137 -0.1003  0.0737
  229MOL0     H30216   5.647  10.038   6.854 -0.0274 -3.7084  1.0952
  229MOL0     H30217   5.528  10.131   7.048  0.2050 -0.9975 -1.3809
  229MOL0     H30218   5.730  10.209   7.449 -0.5140 -0.6515 -1.2399
  229MOL0     H30219   5.576  10.299   7.453  0.0199 -2.2737  2.0296
  229MOL0     H30220   5.823  10.401   7.286  1.0345  3.6579  0.1140
  229MOL0     H30221   5.662  10.464   7.275  0.5868 -0.1705 -1.2738
  229MOL0     H30222   5.838  10.493   7.516  1.1793  4.1283  0.4987
  229MOL0     H30223   5.661  10.509   7.526  0.7344  0.0618  0.1402
  229MOL0     H30224   5.860  10.641   7.343 -0.1647 -0.2750  1.8652
  229MOL0     H30225   5.695  10.678   7.329 -0.5575 -0.8435 -0.0341
  229MOL0     H30226   5.809  10.928   7.648 -2.0392  0.7452 -0.9769
  229MOL0     H30227   5.895  10.172   7.261  1.9681  1.1351 -1.9086
  229MOL0     H30228   6.007  10.077   7.070 -0.1895  1.1525  0.8232
  230MOL0     O30229   9.735   2.286   8.918  0.3464  0.2502 -0.4523
  230MOL0     C30230   9.700   2.260   8.798  0.2783  0.5578  0.7067
  230MOL0     O30231   9.637   2.151   8.747 -0.2552 -0.2534 -0.0167
  230MOL0     C30232   9.670   2.021   8.779 -0.9657  0.0928 -0.1954
  230MOL0     C30233   9.787   1.969   8.726 -1.0267  0.3052  0.3166
  230MOL0     C30234   9.822   1.840   8.745  0.2292  0.7902  0.1591
  230MOL0     C30235   9.747   1.754   8.827  1.1780  1.0529  0.7459
  230MOL0     O30236   9.776   1.623   8.849  0.1631  0.5995  0.3168
  230MOL0     C30237   9.909   1.576   8.820 -0.7085  0.1502  0.6307
  230MOL0     C30238   9.938   1.443   8.884  0.7390 -0.3772  0.3302
  230MOL0     C30239  10.079   1.398   8.850 -0.1848 -0.3771  0.5259
  230MOL0     C30240  10.111   1.269   8.913  0.6039 -0.0955  0.5400
  230MOL0     C30241  10.230   1.182   8.856  0.0507 -0.2591  0.3708
  230MOL0     C30242  10.363   1.255   8.842 -0.1215  0.6083  0.0189
  230MOL0     C30243  10.390   1.312   8.702  0.3023 -0.2489 -0.3765
  230MOL0     C30244  10.477   1.437   8.706  0.1037 -0.6468  0.1618
  230MOL0     N30245  10.418   1.548   8.774  0.2333  0.8930 -0.6097
  230MOL0     C30246  10.341   1.655   8.730 -0.9408  0.2268 -0.0499
  230MOL0     C30247  10.310   1.720   8.850  0.0653 -0.8756 -0.8953
  230MOL0     C30248  10.231   1.844   8.864 -0.8210  0.4521  0.2466
  230MOL0     C30249  10.269   1.960   8.774  1.0680  0.0086  1.1802
  230MOL0     C30250  10.170   2.086   8.788  0.8097  0.0913  0.2034
  230MOL0     C30251  10.214   2.202   8.697 -0.9844 -0.1157  0.4124
  230MOL0     O30252  10.322   2.283   8.751 -0.6855  0.7146  0.1051
  230MOL0     C30253  10.294   2.369   8.853 -0.7099  0.1670  0.2486
  230MOL0     C30254  10.401   2.443   8.910 -0.0111 -0.2367 -0.7111
  230MOL0     C30255  10.380   2.551   9.000 -0.8040  0.1893 -0.4515
  230MOL0     C30256  10.249   2.598   9.027  0.5361  0.5687  0.2760
  230MOL0     C30257  10.224   2.730   9.089 -0.0839 -0.6944 -0.1405
  230MOL0     O30258  10.334   2.800   9.123 -0.4524 -0.0536 -0.3568
  230MOL0     C30259  10.329   2.924   9.183  0.3465 -1.0541 -0.2426
  230MOL0     C30260  10.320   3.036   9.100 -0.8692 -0.4662  0.2837
  230MOL0     C30261  10.311   3.164   9.157 -0.1404  0.1864 -0.0367
  230MOL0     C30262  10.322   3.178   9.301  0.6113 -0.1627  0.8016
  230MOL0     O30263  10.309   3.298   9.367 -0.3435 -0.2957  0.9087
  230MOL0     C30264  10.341   3.426   9.308 -0.5761  0.2887  0.4290
  230MOL0     C30265  10.436   3.507   9.411  0.1201  0.2071  0.2997
  230MOL0     C30266  10.472   3.653   9.363 -1.2605  0.2846 -0.5049
  230MOL0     C30267  10.513   3.748   9.473  0.4191 -1.0133  0.5282
  230MOL0     C30268  10.391   3.806   9.561  0.3233 -0.0048 -0.7484
  230MOL0     C30269  10.446   3.896   9.672  0.6161 -0.0691 -0.1621
  230MOL0     C30270  10.488   3.824   9.801 -0.4589 -0.7065 -0.4583
  230MOL0     C30271  10.536   3.917   9.920  0.5736  0.4902 -0.3471
  230MOL0    Cl30272  10.505   4.100   9.904  0.2830 -0.3047  0.1901
  230MOL0     C30273  10.331   3.061   9.377 -0.2734  0.2562 -0.1612
  230MOL0     C30274  10.334   2.938   9.316 -0.3912 -0.1287  0.4892
  230MOL0     O30275  10.113   2.768   9.098 -0.3086 -0.4880  0.0334
  230MOL0     C30276  10.145   2.521   8.962 -0.1883 -0.0807 -0.2127
  230MOL0     C30277  10.162   2.409   8.886 -0.8848 -0.6103  0.0938
  230MOL0     N30278  10.378   1.665   8.956 -0.0444 -0.4197  1.3001
  230MOL0     N30279  10.438   1.560   8.905  0.1672  0.1720 -0.5960
  230MOL0     C30280   9.628   1.804   8.878  0.6765 -0.1072 -0.3372
  230MOL0     C30281   9.588   1.937   8.854 -0.3948  0.6191 -0.0294
  230MOL0     C30282   9.750   2.355   8.700  0.1818 -0.6610  1.2488
  230MOL0     C30283   9.792   2.488   8.741 -0.9126 -0.5131  0.1053
  230MOL0     C30284   9.843   2.577   8.644  0.3491 -0.1249  0.5974
  230MOL0     C30285   9.845   2.548   8.507  0.1058  0.6381 -0.1499
  230MOL0     O30286   9.899   2.648   8.432  0.0889 -0.4810 -0.1387
  230MOL0     C30287   9.889   2.630   8.288  0.4839 -1.7676  0.3710
  230MOL0     C30288   9.923   2.763   8.212 -0.8439 -0.1907  0.5753
  230MOL0     C30289   9.980   2.737   8.068  0.2778 -0.2478  0.2061
  230MOL0     C30290   9.871   2.719   7.965  0.4641  0.5336  0.1398
  230MOL0     C30291   9.835   2.845   7.900  0.3175  0.6797  0.4484
  230MOL0     C30292   9.800   2.940   7.845  0.3331 -0.3689 -0.3653
  230MOL0     C30293   9.809   2.416   8.469  0.2690  0.4185 -0.5157
  230MOL0     C30294   9.764   2.324   8.565  0.3166 -0.0136 -0.0529
  230MOL0     H30295   9.851   2.029   8.663 -1.0638  0.8693  0.8051
  230MOL0     H30296   9.900   1.805   8.679 -1.5243 -0.1965 -1.5101
  230MOL0     H30297   9.977   1.654   8.855  0.4936 -0.8694  0.6159
  230MOL0     H30298   9.929   1.551   8.716  0.4127 -3.8147  1.6563
  230MOL0     H30299   9.858   1.376   8.850  1.1245 -0.9172  0.4822
  230MOL0     H30300   9.941   1.449   8.993  0.4184  2.9749  0.2453
  230MOL0     H30301  10.152   1.474   8.881  1.6576 -3.0662  3.3903
  230MOL0     H30302  10.090   1.377   8.743  2.3290  3.6291 -0.2617
  230MOL0     H30303  10.130   1.283   9.020  0.9616 -2.1769  0.7883
  230MOL0     H30304  10.024   1.203   8.903  1.3963 -1.2571  1.0016
  230MOL0     H30305  10.213   1.134   8.759  2.3899 -2.8085  1.1251
  230MOL0     H30306  10.235   1.093   8.918  0.7066 -0.8995 -0.5764
  230MOL0     H30307  10.435   1.173   8.856 -0.2106 -0.0204 -2.5568
  230MOL0     H30308  10.359   1.335   8.916  0.5804  2.7094 -2.0826
  230MOL0     H30309  10.462   1.248   8.651  1.3387  1.3023 -0.9291
  230MOL0     H30310  10.301   1.333   8.641  1.3788 -1.6339 -2.5246
  230MOL0     H30311  10.510   1.469   8.607  1.4668 -0.1852  0.7519
  230MOL0     H30312  10.571   1.409   8.753 -0.0903 -1.6314 -0.0106
  230MOL0     H30313  10.332   1.688   8.627  1.6006  3.1844  0.5295
  230MOL0     H30314  10.228   1.882   8.966 -4.3572 -2.3758  1.4162
  230MOL0     H30315  10.136   1.803   8.829  0.8573 -3.0098 -0.6815
  230MOL0     H30316  10.256   1.926   8.670 -0.5428 -1.9392  1.9508
  230MOL0     H30317  10.373   1.985   8.795  1.6669 -2.2787  1.2303
  230MOL0     H30318  10.068   2.058   8.763  0.4689 -0.4664  2.0699
  230MOL0     H30319  10.182   2.121   8.891  2.6945 -2.6045  1.0065
  230MOL0     H30320  10.127   2.264   8.673 -2.1424 -1.6021  0.6238
  230MOL0     H30321  10.252   2.156   8.606 -2.8387 -0.1874 -0.3563
  230MOL0     H30322  10.505   2.417   8.894  0.0503  1.5613 -3.9938
  230MOL0     H30323  10.467   2.605   9.037 -0.8567  0.5186 -0.7987
  230MOL0     H30324  10.308   3.012   8.995  1.8509 -3.5130  0.4950
  230MOL0     H30325  10.293   3.244   9.086 -1.4721  1.6311  1.8168
  230MOL0     H30326  10.261   3.497   9.286 -0.9233 -0.5333 -1.1176
  230MOL0     H30327  10.393   3.410   9.213  0.0922 -0.0805  0.8469
  230MOL0     H30328  10.532   3.460   9.432 -0.0110  0.3036  1.1262
  230MOL0     H30329  10.381   3.523   9.503 -1.1450 -1.7053 -0.0724
  230MOL0     H30330  10.386   3.693   9.307 -0.6842 -1.2042 -2.5656
  230MOL0     H30331  10.554   3.654   9.290  0.2029  0.1824  1.0861
  230MOL0     H30332  10.595   3.710   9.535  2.3134 -0.7587 -1.6955
  230MOL0     H30333  10.566   3.834   9.429 -0.5605  1.8845  4.4242
  230MOL0     H30334  10.337   3.728   9.616  1.3938  2.0202  3.6117
  230MOL0     H30335  10.317   3.868   9.510 -1.6196  1.7856  3.7280
  230MOL0     H30336  10.366   3.965   9.703  1.4052  0.5933  0.4718
  230MOL0     H30337  10.533   3.955   9.639  1.7485 -0.5384  1.7855
  230MOL0     H30338  10.409   3.766   9.850 -0.5411  1.2278  1.9064
  230MOL0     H30339  10.566   3.756   9.766 -1.2765 -0.5045 -2.8572
  230MOL0     H30340  10.645   3.907   9.927  0.5747  0.0301 -0.9229
  230MOL0     H30341  10.485   3.889  10.012 -3.5397  0.8072 -2.3052
  230MOL0     H30342  10.323   3.074   9.485  0.0835 -2.5399  0.2695
  230MOL0     H30343  10.357   2.853   9.378  4.5355  0.6754  0.1477
  230MOL0     H30344  10.047   2.540   9.005  0.1015  1.1371 -0.0393
  230MOL0     H30345  10.071   2.357   8.859  0.3410 -2.8752  0.1156
  230MOL0     H30346   9.556   1.743   8.933  1.6559 -0.7372  0.2804
  230MOL0     H30347   9.495   1.975   8.896 -0.9509  1.7979 -2.1849
  230MOL0     H30348   9.813   2.523   8.842 -0.8177 -1.4041  0.4030
  230MOL0     H30349   9.873   2.675   8.679 -3.4281  2.3085 -2.2751
  230MOL0     H30350   9.785   2.604   8.267  0.1780 -1.8397  1.8837
  230MOL0     H30351   9.958   2.546   8.278  1.5215 -0.8481 -0.3710
  230MOL0     H30352   9.830   2.821   8.204 -1.7066 -1.4319  1.3811
  230MOL0     H30353   9.990   2.822   8.275 -0.5727  1.3538 -1.0462
  230MOL0     H30354  10.042   2.648   8.079 -1.0908 -1.1083  1.1835
  230MOL0     H30355  10.053   2.813   8.038 -1.1735  0.6177 -1.2953
  230MOL0     H30356   9.905   2.651   7.887  2.1936  0.9451  0.4968
  230MOL0     H30357   9.784   2.670   8.011 -0.5905  2.6824  0.5602
  230MOL0     H30358   9.779   3.040   7.812  1.9627  0.6401  1.4705
  230MOL0     H30359   9.840   2.377   8.373 -1.0654  2.8271 -2.0521
  230MOL0     H30360   9.745   2.223   8.530  1.0210 -0.2957  0.3625
  231MOL0     O30361   0.988   0.314   8.682 -0.8213 -0.4569 -0.5262
  231MOL0     C30362   1.003   0.438   8.690 -0.2746  0.8616 -0.3717
  231MOL0     O30363   1.126   0.509   8.679 -0.4395  0.3061 -0.4106
  231MOL0     C30364   1.243   0.438   8.681  1.3226  0.1414  1.0470
  231MOL0     C30365   1.324   0.431   8.798 -0.1551 -0.1251  0.3758
  231MOL0     C30366   1.435   0.360   8.785 -1.0670  0.6472  0.1176
  231MOL0     C30367   1.477   0.285   8.672  0.1242 -0.6295 -0.9885
  231MOL0     O30368   1.573   0.202   8.693  0.1074 -0.1475 -0.6021
  231MOL0     C30369   1.564   0.072   8.638  1.1810 -0.2228  0.1118
  231MOL0     C30370   1.645   0.055   8.501  0.2532  1.2544 -0.2912
  231MOL0     C30371   1.625  -0.083   8.464  0.1694  0.5368  0.3818
  231MOL0     C30372   1.669  -0.125   8.325  0.0868 -0.4722 -0.3675
  231MOL0     C30373   1.694  -0.273   8.307  0.9609 -0.6465  0.2083
  231MOL0     C30374   1.773  -0.304   8.185  0.7303  0.5807  0.2962
  231MOL0     C30375   1.841  -0.441   8.172 -0.7779  0.5031 -0.7932
  231MOL0     C30376   1.748  -0.547   8.105  1.4929 -0.9550 -0.9208
  231MOL0     N30377   1.816  -0.652   8.043 -0.6493  1.4065 -1.0488
  231MOL0     C30378   1.902  -0.729   8.116  0.9129  1.0460 -0.3277
  231MOL0     C30379   1.968  -0.791   8.016 -0.0901  0.5939  0.2247
  231MOL0     C30380   2.060  -0.906   8.042  0.2738 -0.3603  0.5348
  231MOL0     C30381   1.987  -1.034   8.067 -0.1371 -0.1632  1.0067
  231MOL0     C30382   2.090  -1.161   8.056 -0.9131  0.5140 -0.1551
  231MOL0     C30383   2.124  -1.198   7.916 -0.2365 -1.1554  0.3131
  231MOL0     O30384   2.200  -1.312   7.896 -0.2166  0.0189  0.7067
  231MOL0     C30385   2.325  -1.309   7.927 -0.4426  0.7164  0.1916
  231MOL0     C30386   2.383  -1.428   7.952  0.1831  0.8380 -0.4134
  231MOL0     C30387   2.519  -1.447   7.998 -0.2846  0.0641  0.0777
  231MOL0     C30388   2.602  -1.335   8.011  0.0558 -0.7383  0.1491
  231MOL0     C30389   2.753  -1.352   8.035  0.6767  0.2464 -0.0789
  231MOL0     O30390   2.798  -1.487   8.029 -0.4826 -0.5352 -0.2712
  231MOL0     C30391   2.938  -1.507   8.044  0.6338 -1.1034 -0.6284
  231MOL0     C30392   2.990  -1.602   7.965 -0.0177 -0.1977 -0.1225
  231MOL0     C30393   3.131  -1.637   7.967  0.2831 -1.1383 -1.2850
  231MOL0     C30394   3.210  -1.575   8.066  0.9058  0.6192 -0.5315
  231MOL0     O30395   3.346  -1.613   8.067  0.2622 -0.6281  0.0696
  231MOL0     C30396   3.408  -1.643   8.188  0.4133 -0.7180  0.5050
  231MOL0     C30397   3.510  -1.750   8.165 -1.4100 -0.2220 -0.5676
  231MOL0     C30398   3.453  -1.879   8.127 -0.0223  1.2717 -0.5960
  231MOL0     C30399   3.355  -1.936   8.221  0.5168  0.6479  0.4763
  231MOL0     C30400   3.277  -2.061   8.168 -0.1840  0.7215  0.3174
  231MOL0     C30401   3.363  -2.186   8.178 -0.3896  0.3349  0.5061
  231MOL0     C30402   3.305  -2.309   8.103 -0.6494  0.8123 -0.9781
  231MOL0     C30403   3.353  -2.442   8.166  0.6386  0.2002  0.2486
  231MOL0    Cl30404   3.241  -2.577   8.140 -0.1258  0.2065  0.2812
  231MOL0     C30405   3.154  -1.481   8.150 -0.8598 -0.3459 -0.6436
  231MOL0     C30406   3.018  -1.450   8.144  0.1409 -0.6849 -0.2146
  231MOL0     O30407   2.826  -1.250   8.054 -0.0942 -0.6571  0.5746
  231MOL0     C30408   2.540  -1.211   7.977 -0.4075 -0.0433 -0.5472
  231MOL0     C30409   2.410  -1.200   7.934 -0.5607  0.3453 -1.0063
  231MOL0     N30410   1.919  -0.749   7.895  0.9233 -0.0023  0.2316
  231MOL0     N30411   1.830  -0.660   7.916 -0.4143  0.2367 -0.0405
  231MOL0     C30412   1.411   0.305   8.556  0.8593  0.2706 -1.0271
  231MOL0     C30413   1.292   0.374   8.558  0.4518 -0.2916  0.2345
  231MOL0     C30414   0.893   0.526   8.729  0.5717  0.4038 -0.1121
  231MOL0     C30415   0.780   0.481   8.800 -1.1248  0.9621 -0.2053
  231MOL0     C30416   0.681   0.568   8.831  0.6572  0.2917  0.0181
  231MOL0     C30417   0.672   0.700   8.778 -0.2743 -0.2388 -0.4354
  231MOL0     O30418   0.580   0.801   8.799  0.2111  0.5589 -0.3301
  231MOL0     C30419   0.454   0.767   8.859  0.3043  0.9635 -0.2820
  231MOL0     C30420   0.356   0.871   8.853 -0.2251  0.7495  0.6761
  231MOL0     C30421   0.313   0.912   8.709  0.3359  0.1489 -1.2673
  231MOL0     C30422   0.177   0.992   8.714  0.7713 -0.0462  0.0896
  231MOL0     C30423   0.186   1.129   8.762  0.7186  0.7093  0.6061
  231MOL0     C30424   0.199   1.246   8.800 -0.6458 -0.4242  0.3541
  231MOL0     C30425   0.779   0.750   8.715 -1.3999  0.6386  0.5547
  231MOL0     C30426   0.889   0.662   8.696 -0.5133  0.2026 -0.1607
  231MOL0     H30427   1.297   0.494   8.882  1.9817  1.2153  0.1432
  231MOL0     H30428   1.483   0.347   8.881  0.0300 -0.5161 -0.5460
  231MOL0     H30429   1.459   0.045   8.621  0.9481  0.4903  0.3794
  231MOL0     H30430   1.606   0.000   8.709 -0.8824  0.5190  2.2148
  231MOL0     H30431   1.753   0.071   8.508  0.4257 -0.5201  2.2757
  231MOL0     H30432   1.593   0.114   8.424 -2.2507 -3.3251 -2.5075
  231MOL0     H30433   1.516  -0.094   8.467  0.1948 -0.0438 -0.4982
  231MOL0     H30434   1.678  -0.143   8.539 -0.6186  1.8401  2.0352
  231MOL0     H30435   1.592  -0.090   8.255 -0.1255 -2.5572 -1.2270
  231MOL0     H30436   1.771  -0.085   8.319  1.9275 -4.3516  1.6168
  231MOL0     H30437   1.593  -0.316   8.301  1.2516 -1.3475  0.2555
  231MOL0     H30438   1.747  -0.308   8.395  0.7069 -0.0628  0.5992
  231MOL0     H30439   1.851  -0.227   8.186 -0.6649  2.0576  0.0404
  231MOL0     H30440   1.706  -0.293   8.099  1.1295  1.3797  0.0779
  231MOL0     H30441   1.938  -0.434   8.120 -0.1013  1.1791  0.5181
  231MOL0     H30442   1.868  -0.481   8.270 -2.6744  0.7444 -0.1326
  231MOL0     H30443   1.680  -0.507   8.030  1.4248 -2.0736 -1.4878
  231MOL0     H30444   1.686  -0.570   8.192  3.3352  3.6145  1.9527
  231MOL0     H30445   1.907  -0.734   8.224 -0.1986 -0.9494 -0.3193
  231MOL0     H30446   2.113  -0.883   8.135  2.3106 -0.4405 -0.5580
  231MOL0     H30447   2.133  -0.909   7.960 -0.2588  0.6547 -0.0031
  231MOL0     H30448   1.905  -1.042   7.994  0.1997  0.0345  0.6042
  231MOL0     H30449   1.941  -1.026   8.166  1.0449 -1.4928  1.6946
  231MOL0     H30450   2.179  -1.142   8.117 -2.3430 -0.8473  2.5200
  231MOL0     H30451   2.039  -1.247   8.100 -0.6830 -1.2119 -3.0274
  231MOL0     H30452   2.169  -1.110   7.869 -0.6192 -2.3623 -2.5452
  231MOL0     H30453   2.031  -1.219   7.862 -0.9475 -1.9412  1.7729
  231MOL0     H30454   2.322  -1.518   7.943  1.3947  0.2285 -4.5446
  231MOL0     H30455   2.562  -1.543   8.028  3.8572  2.2993  2.1432
  231MOL0     H30456   2.926  -1.652   7.893  1.4374  0.0506 -1.6550
  231MOL0     H30457   3.173  -1.704   7.892  0.6323 -0.0317 -2.0951
  231MOL0     H30458   3.331  -1.664   8.263 -0.5967  2.2718  0.4366
  231MOL0     H30459   3.450  -1.555   8.239 -0.5291  0.7039 -1.0917
  231MOL0     H30460   3.567  -1.770   8.256 -2.6832  2.9271  1.0676
  231MOL0     H30461   3.571  -1.709   8.084  0.3730 -0.4035  0.6385
  231MOL0     H30462   3.535  -1.951   8.116  0.6567  1.4336  2.5750
  231MOL0     H30463   3.415  -1.865   8.025 -0.7859  1.0910 -0.3444
  231MOL0     H30464   3.391  -1.950   8.324  0.4309  1.3307  0.5995
  231MOL0     H30465   3.275  -1.861   8.223 -0.7971 -0.6644 -0.4537
  231MOL0     H30466   3.244  -2.045   8.065  4.5386  0.1723 -1.5039
  231MOL0     H30467   3.195  -2.090   8.234 -2.7731 -0.1020 -2.9905
  231MOL0     H30468   3.363  -2.213   8.285 -0.8405 -1.0851  0.1684
  231MOL0     H30469   3.462  -2.155   8.143 -0.8704  0.1201 -1.0987
  231MOL0     H30470   3.198  -2.304   8.122 -0.8435 -0.4495 -1.6613
  231MOL0     H30471   3.326  -2.308   7.996  0.9587 -0.7777 -0.7439
  231MOL0     H30472   3.353  -2.425   8.274 -1.3044  3.0463 -0.1087
  231MOL0     H30473   3.450  -2.469   8.123  0.7897  0.8689  0.1631
  231MOL0     H30474   3.221  -1.435   8.222 -0.1335 -2.7459  0.3300
  231MOL0     H30475   2.994  -1.363   8.205 -1.4414 -0.0929 -1.6069
  231MOL0     H30476   2.606  -1.126   7.989  2.7331 -2.1392 -1.9081
  231MOL0     H30477   2.369  -1.101   7.917 -1.6677 -0.4583 -3.4189
  231MOL0     H30478   1.429   0.254   8.461 -1.6875 -2.8450 -0.0242
  231MOL0     H30479   1.242   0.390   8.463 -0.3800  2.9027  1.1139
  231MOL0     H30480   0.779   0.376   8.829 -0.4981 -0.6606 -5.0961
  231MOL0     H30481   0.609   0.529   8.903  0.8881  1.3162  0.8233
  231MOL0     H30482   0.461   0.738   8.964  2.5693  0.1364 -0.5955
  231MOL0     H30483   0.410   0.683   8.805  0.9187 -2.3845  3.8712
  231MOL0     H30484   0.267   0.833   8.905 -0.0427  0.8042  1.0350
  231MOL0     H30485   0.386   0.952   8.921  3.7906  0.5722 -0.6273
  231MOL0     H30486   0.287   0.821   8.654  0.0054 -0.1469 -0.6340
  231MOL0     H30487   0.391   0.963   8.652 -0.5546  0.4517 -2.2341
  231MOL0     H30488   0.152   0.999   8.607  0.2548 -1.9824  0.0498
  231MOL0     H30489   0.101   0.934   8.767  1.7394 -1.5123 -0.0740
  231MOL0     H30490   0.218   1.343   8.841  2.3055 -0.3342 -1.0072
  231MOL0     H30491   0.805   0.856   8.715  2.7301  0.0420 -4.3904
  231MOL0     H30492   0.976   0.696   8.640  0.7402 -1.7581  0.4679
  232MOL0     O30493  11.237   4.881   7.340 -0.4574  0.7411 -0.5614
  232MOL0     C30494  11.328   4.801   7.376 -0.4840  0.0425  0.2039
  232MOL0     O30495  11.312   4.664   7.414 -0.2939 -0.1866  0.4138
  232MOL0     C30496  11.190   4.607   7.419 -1.1315 -0.2669 -0.3940
  232MOL0     C30497  11.069   4.666   7.450 -0.5422 -0.3179 -0.7264
  232MOL0     C30498  10.957   4.583   7.462 -0.0379 -0.3961 -0.5631
  232MOL0     C30499  10.973   4.443   7.461  0.1149 -0.1888 -0.8171
  232MOL0     O30500  10.864   4.370   7.488  0.5260  0.2364  0.0455
  232MOL0     C30501  10.875   4.291   7.614  0.6422 -0.6229  1.1782
  232MOL0     C30502  10.739   4.224   7.623 -1.0835 -0.0018  0.6748
  232MOL0     C30503  10.712   4.119   7.522  0.1282 -0.3866 -0.7964
  232MOL0     C30504  10.583   4.041   7.555 -0.2860  0.1874  0.4886
  232MOL0     C30505  10.584   3.912   7.461  0.0150 -0.2208 -0.4518
  232MOL0     C30506  10.686   3.794   7.490  0.1767  0.0583  0.6332
  232MOL0     C30507  10.655   3.659   7.417 -0.3711  0.1160  0.2566
  232MOL0     C30508  10.727   3.539   7.485 -0.2096  0.1217  0.0835
  232MOL0     N30509  10.666   3.412   7.447 -0.2516  1.3615 -0.3503
  232MOL0     C30510  10.713   3.315   7.356 -0.0139  0.2086  0.6551
  232MOL0     C30511  10.633   3.209   7.376 -0.6340  0.6498  0.0613
  232MOL0     C30512  10.661   3.081   7.301  0.4787 -0.1195 -0.3086
  232MOL0     C30513  10.589   3.068   7.166  1.0278  0.2812  0.0840
  232MOL0     C30514  10.433   3.048   7.196  0.1876 -0.1451  0.2367
  232MOL0     C30515  10.353   3.058   7.067  0.2025 -1.1639  0.1730
  232MOL0     O30516  10.396   2.939   6.990  0.0833 -0.2541  0.5094
  232MOL0     C30517  10.295   2.844   6.970 -1.3489  1.1247 -0.1853
  232MOL0     C30518  10.282   2.800   6.836  0.5430 -0.7716 -0.1680
  232MOL0     C30519  10.163   2.731   6.797 -0.4874  0.3162 -0.4889
  232MOL0     C30520  10.050   2.734   6.888 -0.0116 -0.2928  1.4714
  232MOL0     C30521   9.920   2.678   6.840 -0.4759  0.9129 -0.2307
  232MOL0     O30522   9.903   2.643   6.715  0.4690 -0.6459  0.3049
  232MOL0     C30523   9.788   2.580   6.675  0.8901 -0.0425 -1.4605
  232MOL0     C30524   9.692   2.626   6.577 -0.2327  0.2590  0.0441
  232MOL0     C30525   9.580   2.553   6.533 -0.5475  0.0309  0.8801
  232MOL0     C30526   9.548   2.427   6.589 -0.2810 -0.9075  0.6761
  232MOL0     O30527   9.455   2.331   6.545 -0.2845 -0.0407  0.5139
  232MOL0     C30528   9.413   2.353   6.413  0.4372  0.0006  0.2332
  232MOL0     C30529   9.348   2.230   6.363 -0.2479  0.1684 -1.6814
  232MOL0     C30530   9.345   2.222   6.219  0.5434 -0.0727  0.4700
  232MOL0     C30531   9.239   2.310   6.157 -0.5277 -0.1015  0.5567
  232MOL0     C30532   9.241   2.292   6.002  0.2234 -0.3498 -0.0610
  232MOL0     C30533   9.180   2.161   5.962  0.3285  0.3307 -0.9326
  232MOL0     C30534   9.165   2.138   5.810  0.0879 -0.0157 -0.0394
  232MOL0     C30535   9.052   2.043   5.788 -0.0419 -0.2759 -0.2293
  232MOL0    Cl30536   9.009   2.056   5.617  0.0882 -0.0233  0.3548
  232MOL0     C30537   9.631   2.391   6.699  0.3003  0.7117  0.5019
  232MOL0     C30538   9.745   2.471   6.739  0.2942 -0.1632  1.0180
  232MOL0     O30539   9.843   2.669   6.932 -0.0463 -0.6546 -0.2195
  232MOL0     C30540  10.074   2.764   7.021 -0.5234 -0.5297  0.1321
  232MOL0     C30541  10.193   2.823   7.057 -0.3820  0.6568 -0.2533
  232MOL0     N30542  10.544   3.230   7.473  0.0310 -0.3043 -0.5416
  232MOL0     N30543  10.558   3.353   7.510  0.8726 -0.0360  0.0017
  232MOL0     C30544  11.092   4.379   7.448 -0.8870 -0.6801  0.2168
  232MOL0     C30545  11.198   4.466   7.418 -0.3576 -0.1669  0.1040
  232MOL0     C30546  11.469   4.853   7.361  0.2556 -0.2820  0.8324
  232MOL0     C30547  11.510   4.954   7.269  0.6126  0.5095 -0.4044
  232MOL0     C30548  11.642   4.996   7.272  0.2849  1.2983 -0.0829
  232MOL0     C30549  11.736   4.946   7.355 -0.1294 -0.0513  0.2492
  232MOL0     O30550  11.868   4.976   7.330 -0.4306 -0.4341 -0.3763
  232MOL0     C30551  11.915   4.966   7.202  0.5035 -0.8065  0.4477
  232MOL0     C30552  11.951   4.823   7.165 -0.2302 -0.8359 -0.0885
  232MOL0     C30553  12.009   4.811   7.030 -0.1479 -0.3276 -0.4586
  232MOL0     C30554  12.054   4.668   6.999  0.3387 -0.4739 -0.0822
  232MOL0     C30555  12.137   4.668   6.873 -0.0557 -0.8238 -0.6230
  232MOL0     C30556  12.203   4.698   6.773  0.3029 -0.0272  0.1293
  232MOL0     C30557  11.703   4.844   7.445  0.4401  0.1605 -1.1524
  232MOL0     C30558  11.569   4.801   7.450  0.5321  0.3640  0.0846
  232MOL0     H30559  11.060   4.771   7.476  0.7904  0.0932 -1.8056
  232MOL0     H30560  10.865   4.635   7.487  0.9894  0.9663  0.5327
  232MOL0     H30561  10.885   4.366   7.693 -4.2618  0.9600  0.6130
  232MOL0     H30562  10.954   4.216   7.614  0.9919 -0.2602  1.3797
  232MOL0     H30563  10.666   4.305   7.616  2.4918  3.6802  1.7312
  232MOL0     H30564  10.719   4.186   7.724  0.7274  4.3918  2.9622
  232MOL0     H30565  10.803   4.059   7.535  2.1520  2.7541  1.0117
  232MOL0     H30566  10.704   4.169   7.424 -2.3845  0.9954  0.0210
  232MOL0     H30567  10.563   4.023   7.661 -0.1128  0.8808  0.6419
  232MOL0     H30568  10.500   4.101   7.516 -0.0298  1.2250  1.5112
  232MOL0     H30569  10.611   3.945   7.360 -1.0227  1.3633 -0.2470
  232MOL0     H30570  10.482   3.875   7.457 -0.4808  1.0633 -0.1835
  232MOL0     H30571  10.681   3.769   7.597 -1.1393 -2.4587  0.0614
  232MOL0     H30572  10.787   3.822   7.457  0.4530 -2.8991 -1.3993
  232MOL0     H30573  10.547   3.658   7.431 -0.3392  0.9914  0.7215
  232MOL0     H30574  10.698   3.662   7.316  2.6499  1.1491  1.4305
  232MOL0     H30575  10.716   3.546   7.594  2.0320  2.1280  0.2529
  232MOL0     H30576  10.830   3.556   7.452 -0.1822 -0.2439 -0.0200
  232MOL0     H30577  10.799   3.328   7.291 -0.4832  0.4692  0.0791
  232MOL0     H30578  10.644   2.993   7.365  3.6417 -1.9001 -1.7200
  232MOL0     H30579  10.766   3.090   7.274  0.5822  1.1969  0.4809
  232MOL0     H30580  10.611   2.977   7.109 -2.7791 -1.2572  0.7587
  232MOL0     H30581  10.602   3.163   7.113  2.2784  0.7924  1.2640
  232MOL0     H30582  10.420   2.952   7.247 -0.9283 -0.5405 -0.7522
  232MOL0     H30583  10.415   3.130   7.267  2.0954 -0.8172  1.6021
  232MOL0     H30584  10.373   3.147   7.008  0.5663 -0.5066  1.2591
  232MOL0     H30585  10.244   3.059   7.076  0.0201  3.8999  0.1176
  232MOL0     H30586  10.363   2.804   6.764  0.0844 -2.3658 -0.8244
  232MOL0     H30587  10.165   2.675   6.705  0.1871 -1.5502  0.6077
  232MOL0     H30588   9.719   2.723   6.534  1.6407  0.9242  2.4835
  232MOL0     H30589   9.520   2.594   6.452  3.0808  2.2640 -0.9234
  232MOL0     H30590   9.493   2.387   6.346 -0.0711  1.8929  0.5307
  232MOL0     H30591   9.339   2.434   6.411  1.5299  1.0226 -0.0695
  232MOL0     H30592   9.244   2.228   6.398  0.4446 -0.2968  0.5474
  232MOL0     H30593   9.408   2.148   6.404 -1.8080 -0.1624  0.0699
  232MOL0     H30594   9.322   2.118   6.193 -0.6517 -0.5105  2.9693
  232MOL0     H30595   9.446   2.241   6.180 -0.9327  1.0680 -3.2977
  232MOL0     H30596   9.135   2.298   6.189 -2.4851  3.7063 -3.2594
  232MOL0     H30597   9.276   2.410   6.184 -1.0473 -0.0516  1.0848
  232MOL0     H30598   9.341   2.306   5.961  0.4509  0.4417  0.7159
  232MOL0     H30599   9.185   2.371   5.951 -0.2157 -1.0213 -0.6238
  232MOL0     H30600   9.081   2.170   6.009  1.4836  2.2522  1.3661
  232MOL0     H30601   9.235   2.075   5.999  1.3571  0.7177 -1.5280
  232MOL0     H30602   9.142   2.237   5.769 -1.2032 -1.5414 -3.3413
  232MOL0     H30603   9.243   2.085   5.756 -3.0451 -3.8507 -1.2155
  232MOL0     H30604   8.971   2.068   5.857  0.3849 -0.2484  0.2657
  232MOL0     H30605   9.102   1.953   5.825  0.7018  1.1223  2.4409
  232MOL0     H30606   9.604   2.298   6.747  1.6334  0.7724  1.4158
  232MOL0     H30607   9.814   2.432   6.814  0.8688  0.1941  0.6814
  232MOL0     H30608   9.995   2.764   7.096 -0.6827 -1.0018 -0.0335
  232MOL0     H30609  10.206   2.863   7.158  0.9177  1.5438 -0.7474
  232MOL0     H30610  11.111   4.272   7.457 -2.8142 -1.0267  0.7460
  232MOL0     H30611  11.297   4.427   7.394 -0.1844  0.2868  0.0733
  232MOL0     H30612  11.435   5.002   7.207  0.9389  2.3415  0.5448
  232MOL0     H30613  11.674   5.079   7.209  3.6861  1.0051  1.0268
  232MOL0     H30614  12.016   5.007   7.203 -0.3319  1.6224 -1.9103
  232MOL0     H30615  11.849   5.012   7.127  1.3175 -0.2755  0.0439
  232MOL0     H30616  12.015   4.792   7.249 -0.9669  0.4273  0.9869
  232MOL0     H30617  11.860   4.761   7.167 -2.0487  1.6891 -0.7154
  232MOL0     H30618  12.094   4.879   7.019 -1.2475  1.6051  1.9381
  232MOL0     H30619  11.935   4.838   6.954  0.3362 -1.8568 -1.5093
  232MOL0     H30620  12.130   4.631   7.068  2.6624 -0.8549 -2.6340
  232MOL0     H30621  11.973   4.594   7.000  0.2808 -0.4097  1.1296
  232MOL0     H30622  12.273   4.700   6.692  0.7088 -0.9833  0.4419
  232MOL0     H30623  11.785   4.803   7.503  1.4566  1.3897 -1.7041
  232MOL0     H30624  11.547   4.716   7.515 -2.6518 -1.5499 -3.1292
  233MOL0     O30625   4.782   0.372   7.599 -0.7207 -0.4645 -0.1972
  233MOL0     C30626   4.900   0.363   7.571 -0.0289  1.4909  0.5438
  233MOL0     O30627   4.961   0.275   7.486 -0.2103 -0.8566 -0.5663
  233MOL0     C30628   4.889   0.196   7.405 -0.6388 -0.1288  0.2230
  233MOL0     C30629   4.952   0.179   7.278 -0.1032 -0.1773  1.8768
  233MOL0     C30630   4.880   0.094   7.178  0.8611  0.1312  0.2684
  233MOL0     C30631   4.758   0.031   7.213  0.0192 -0.4709 -0.6830
  233MOL0     O30632   4.690  -0.057   7.136 -0.7475  0.1136  0.1567
  233MOL0     C30633   4.758  -0.171   7.078 -0.6369 -1.5291  0.3028
  233MOL0     C30634   4.728  -0.281   7.177 -0.4214  0.1216  0.5596
  233MOL0     C30635   4.747  -0.420   7.104 -0.6845 -0.4595 -0.9746
  233MOL0     C30636   4.882  -0.438   7.032  0.8710 -1.0758 -0.1380
  233MOL0     C30637   4.899  -0.570   6.969 -0.6145 -0.1671 -0.2251
  233MOL0     C30638   4.824  -0.604   6.837  0.5301 -0.1242 -0.2693
  233MOL0     C30639   4.793  -0.756   6.822 -0.8226 -0.1293 -0.1060
  233MOL0     C30640   4.913  -0.852   6.829 -0.1824  0.7952  0.0160
  233MOL0     N30641   5.013  -0.814   6.726 -0.0822  0.0444 -0.1576
  233MOL0     C30642   5.036  -0.898   6.621  0.0747 -0.1274  0.7699
  233MOL0     C30643   5.138  -0.833   6.558 -0.0128  0.1594 -0.2018
  233MOL0     C30644   5.195  -0.880   6.432  0.2881  0.5552  0.3418
  233MOL0     C30645   5.202  -0.775   6.330  0.4484  1.7309  1.4561
  233MOL0     C30646   5.282  -0.824   6.207 -0.5276  0.4852  1.3772
  233MOL0     C30647   5.432  -0.804   6.227 -0.1780 -0.1805  0.2692
  233MOL0     O30648   5.515  -0.824   6.107  0.9263  0.0797  0.5387
  233MOL0     C30649   5.516  -0.943   6.045 -0.1603 -0.4229  0.3713
  233MOL0     C30650   5.543  -0.943   5.908 -0.2804  0.0505 -0.8402
  233MOL0     C30651   5.547  -1.070   5.838  0.4513 -0.3774 -0.2922
  233MOL0     C30652   5.530  -1.194   5.909 -0.3152 -0.7897  0.8818
  233MOL0     C30653   5.514  -1.325   5.840 -0.6377 -1.0738 -0.4218
  233MOL0     O30654   5.567  -1.324   5.713 -0.4516  0.5602  0.1394
  233MOL0     C30655   5.580  -1.440   5.644 -0.6885  0.4823 -0.4335
  233MOL0     C30656   5.481  -1.539   5.626 -0.3612  1.0837 -0.0810
  233MOL0     C30657   5.494  -1.651   5.551  0.7991  0.5718 -0.1840
  233MOL0     C30658   5.621  -1.679   5.498 -0.2819 -0.1268  0.0648
  233MOL0     O30659   5.655  -1.791   5.416 -1.0141 -0.1455  0.4294
  233MOL0     C30660   5.612  -1.916   5.451  0.5286  0.1418 -0.6221
  233MOL0     C30661   5.731  -2.014   5.448  0.6109  0.2386  0.1569
  233MOL0     C30662   5.692  -2.160   5.468  0.1842  0.1850  0.0124
  233MOL0     C30663   5.804  -2.256   5.449  0.2572  0.4475  0.0913
  233MOL0     C30664   5.747  -2.394   5.459  0.2306  0.4482  0.8555
  233MOL0     C30665   5.864  -2.497   5.457 -0.4790 -0.0741 -0.1160
  233MOL0     C30666   5.927  -2.512   5.598  1.0672 -0.1615 -0.0744
  233MOL0     C30667   6.024  -2.625   5.606 -0.6390 -0.0885 -0.3422
  233MOL0    Cl30668   6.092  -2.637   5.772  0.3582  0.0002  0.2495
  233MOL0     C30669   5.733  -1.593   5.523  0.4111 -0.5421 -0.4380
  233MOL0     C30670   5.703  -1.467   5.587  0.3480  0.2395  0.5977
  233MOL0     O30671   5.474  -1.423   5.906  0.0162 -0.4166 -0.6093
  233MOL0     C30672   5.504  -1.188   6.041 -0.4209 -0.6651 -0.4901
  233MOL0     C30673   5.488  -1.066   6.111 -0.6063  0.9831 -0.6740
  233MOL0     N30674   5.173  -0.720   6.622 -0.2662  0.4900  0.4237
  233MOL0     N30675   5.097  -0.705   6.724  0.4571 -0.3606  0.2726
  233MOL0     C30676   4.701   0.057   7.340  0.8524 -1.1874  0.1677
  233MOL0     C30677   4.765   0.136   7.428  0.4735 -0.3509 -0.0569
  233MOL0     C30678   4.989   0.457   7.644  0.4135 -0.4599  0.0671
  233MOL0     C30679   5.116   0.418   7.680 -0.5162 -0.1996  0.4663
  233MOL0     C30680   5.189   0.495   7.760  0.5701 -0.0549  0.5083
  233MOL0     C30681   5.151   0.615   7.830 -0.1550 -0.1176 -0.6007
  233MOL0     O30682   5.229   0.695   7.913 -0.2108 -0.2273  0.3274
  233MOL0     C30683   5.355   0.644   7.965  0.9332  0.2428  0.0909
  233MOL0     C30684   5.340   0.566   8.094  0.2021 -0.0415  0.2197
  233MOL0     C30685   5.479   0.516   8.138  0.0756 -0.3445  0.5502
  233MOL0     C30686   5.480   0.444   8.278 -0.0643 -0.1125  0.3115
  233MOL0     C30687   5.614   0.448   8.336  0.1552  0.2597 -0.6386
  233MOL0     C30688   5.731   0.461   8.362 -0.1505  0.7060  0.7346
  233MOL0     C30689   5.023   0.653   7.795 -0.1077 -0.1166  0.7953
  233MOL0     C30690   4.938   0.573   7.705  0.4095 -0.6018  0.3721
  233MOL0     H30691   5.047   0.225   7.255 -1.3653  1.6721  0.0105
  233MOL0     H30692   4.923   0.062   7.084 -1.1031 -0.4800 -0.4759
  233MOL0     H30693   4.866  -0.156   7.069 -1.1598  2.2455 -4.2752
  233MOL0     H30694   4.732  -0.195   6.974  0.8355  3.4342 -1.5367
  233MOL0     H30695   4.622  -0.272   7.203  0.5134  3.2993  4.0813
  233MOL0     H30696   4.803  -0.270   7.255  1.3790 -1.6995 -0.8057
  233MOL0     H30697   4.662  -0.447   7.041  0.4360 -3.5575 -1.3649
  233MOL0     H30698   4.730  -0.506   7.171 -0.6161 -2.2218 -3.1042
  233MOL0     H30699   4.898  -0.366   6.951  1.4937 -1.2569 -0.1854
  233MOL0     H30700   4.959  -0.438   7.110  2.1886  0.2430 -1.3644
  233MOL0     H30701   4.876  -0.646   7.044  1.0423 -1.2081 -0.7044
  233MOL0     H30702   5.007  -0.577   6.953 -0.6680  1.1129 -1.3240
  233MOL0     H30703   4.889  -0.567   6.757  1.1676 -1.4621 -0.3918
  233MOL0     H30704   4.731  -0.547   6.831  0.0544 -0.8519  0.1008
  233MOL0     H30705   4.726  -0.764   6.907  0.1095  0.7365  0.7309
  233MOL0     H30706   4.742  -0.768   6.726  0.0885  1.2413 -0.7993
  233MOL0     H30707   4.870  -0.949   6.802  1.6129 -1.1296  3.3440
  233MOL0     H30708   4.948  -0.846   6.933 -0.8551 -0.7464  0.3652
  233MOL0     H30709   4.973  -0.983   6.598 -2.8041  1.3423  2.6060
  233MOL0     H30710   5.131  -0.961   6.398  0.1434  0.3257  1.1354
  233MOL0     H30711   5.295  -0.917   6.454 -0.6115 -0.3405  3.5227
  233MOL0     H30712   5.249  -0.688   6.378 -0.2791  1.2160  3.1931
  233MOL0     H30713   5.100  -0.750   6.298 -0.5513 -2.7174  0.5265
  233MOL0     H30714   5.271  -0.933   6.197 -1.1782  0.7457 -1.4355
  233MOL0     H30715   5.259  -0.774   6.113  0.0539 -0.7253  0.5629
  233MOL0     H30716   5.472  -0.859   6.313  0.4968  0.7402  0.5617
  233MOL0     H30717   5.436  -0.698   6.254 -0.5782  0.5565 -2.2972
  233MOL0     H30718   5.570  -0.849   5.861  0.6899 -0.5361 -1.4845
  233MOL0     H30719   5.564  -1.066   5.731  1.3500 -0.6950 -0.1682
  233MOL0     H30720   5.377  -1.544   5.657 -0.0738 -1.6407  0.6973
  233MOL0     H30721   5.414  -1.719   5.526 -0.3690  0.8343  2.4948
  233MOL0     H30722   5.531  -1.948   5.384 -1.6781 -0.2657  2.0319
  233MOL0     H30723   5.572  -1.924   5.553  1.1766 -3.1841 -0.4986
  233MOL0     H30724   5.789  -1.992   5.537 -0.4953  1.6339  0.5549
  233MOL0     H30725   5.787  -2.000   5.355 -1.2841  0.3608 -1.0170
  233MOL0     H30726   5.619  -2.193   5.395  0.5945 -2.2600  0.6093
  233MOL0     H30727   5.654  -2.172   5.570 -0.2645  2.3482  0.1406
  233MOL0     H30728   5.848  -2.244   5.349  1.2776  2.1133  0.7060
  233MOL0     H30729   5.886  -2.234   5.518 -0.1379 -1.5635  1.2704
  233MOL0     H30730   5.692  -2.401   5.365  1.0063  2.5288  0.1886
  233MOL0     H30731   5.686  -2.404   5.550  0.0825  0.5034  0.7623
  233MOL0     H30732   5.935  -2.451   5.389  0.4485  2.6416  2.4773
  233MOL0     H30733   5.838  -2.599   5.428  3.6676 -0.7381 -2.2033
  233MOL0     H30734   5.975  -2.415   5.613  0.1050  0.7197 -2.2701
  233MOL0     H30735   5.849  -2.531   5.672  0.7823  1.3786  0.0382
  233MOL0     H30736   6.101  -2.602   5.532 -0.6620  0.5323 -0.1813
  233MOL0     H30737   5.979  -2.721   5.581  0.3007 -0.1721 -1.7526
  233MOL0     H30738   5.819  -1.623   5.464 -1.9819 -3.3237 -2.8474
  233MOL0     H30739   5.791  -1.405   5.598  0.3433  0.3076  0.2582
  233MOL0     H30740   5.471  -1.282   6.084 -4.7524  0.2737 -1.2996
  233MOL0     H30741   5.455  -1.075   6.214 -3.2051  0.4379 -1.4850
  233MOL0     H30742   4.605   0.016   7.369  0.6235 -1.0485 -0.3936
  233MOL0     H30743   4.715   0.170   7.519 -0.3819  1.5826 -1.1878
  233MOL0     H30744   5.154   0.322   7.648 -0.1371  0.7191 -2.0301
  233MOL0     H30745   5.288   0.457   7.784 -0.0276 -0.9022  1.7882
  233MOL0     H30746   5.426   0.727   7.975  0.2307  0.7932  0.6993
  233MOL0     H30747   5.403   0.569   7.903 -3.5269 -1.2988 -1.9403
  233MOL0     H30748   5.298   0.625   8.176  3.6549  1.6862  0.9159
  233MOL0     H30749   5.283   0.473   8.084 -2.5495  1.1748  2.9307
  233MOL0     H30750   5.552   0.598   8.130  0.7015 -0.8751  0.7145
  233MOL0     H30751   5.516   0.440   8.069  0.3507 -1.4179  1.8258
  233MOL0     H30752   5.403   0.481   8.346 -1.9223 -0.0516 -1.7268
  233MOL0     H30753   5.463   0.341   8.245  1.7637 -0.2019 -0.4862
  233MOL0     H30754   5.830   0.474   8.401  0.7648 -1.3706 -0.7394
  233MOL0     H30755   4.982   0.748   7.828  2.0305  0.5283  1.7862
  233MOL0     H30756   4.836   0.612   7.699  1.3493  2.6657  2.5506
  234MOL0     O30757   8.128  10.255   5.608 -0.6339 -0.6124 -1.0539
  234MOL0     C30758   8.044  10.170   5.577 -0.0539 -0.1082  0.2240
  234MOL0     O30759   7.918  10.153   5.632  0.2868 -0.3788  0.1682
  234MOL0     C30760   7.868  10.243   5.722  0.3024 -1.5106 -0.5785
  234MOL0     C30761   7.926  10.254   5.853 -0.8541  0.0989 -0.7700
  234MOL0     C30762   7.855  10.332   5.940 -0.3540 -0.6702  0.4912
  234MOL0     C30763   7.750  10.417   5.895  0.4915 -1.4758  0.3339
  234MOL0     O30764   7.723  10.532   5.969  0.1476  0.2226  0.9398
  234MOL0     C30765   7.607  10.610   5.954 -0.0729  0.7433  0.3975
  234MOL0     C30766   7.582  10.670   6.090 -0.1911 -0.3401 -0.4079
  234MOL0     C30767   7.447  10.743   6.092 -0.8163 -0.3239 -0.4499
  234MOL0     C30768   7.329  10.645   6.092 -0.1672 -1.5699  0.0735
  234MOL0     C30769   7.193  10.715   6.046 -0.5932  1.1968  0.0597
  234MOL0     C30770   7.141  10.821   6.147 -0.4354  0.5830  0.0664
  234MOL0     C30771   7.032  10.925   6.107 -0.8454  0.2377  0.4092
  234MOL0     C30772   6.952  10.904   5.975 -0.1462  0.2055  0.8519
  234MOL0     N30773   6.836  10.806   5.991  0.2462 -0.1176 -0.0428
  234MOL0     C30774   6.797  10.725   6.094 -0.3955  0.9950  0.5759
  234MOL0     C30775   6.688  10.662   6.034 -0.7347  0.0465 -0.0242
  234MOL0     C30776   6.605  10.573   6.116  0.3116  0.6249  0.1701
  234MOL0     C30777   6.549  10.627   6.243 -0.6058 -0.6884 -1.0744
  234MOL0     C30778   6.423  10.557   6.282 -0.3928  0.1410  0.2461
  234MOL0     C30779   6.456  10.418   6.341 -0.8474  0.1169 -0.1108
  234MOL0     O30780   6.347  10.356   6.400 -0.2458  0.4916  0.1074
  234MOL0     C30781   6.336  10.370   6.536 -0.5077  0.3397 -0.8457
  234MOL0     C30782   6.243  10.285   6.594 -0.0356  0.7480 -0.0494
  234MOL0     C30783   6.209  10.292   6.730 -0.9544 -0.7921  1.0394
  234MOL0     C30784   6.277  10.375   6.813  0.1794  0.7893 -0.5614
  234MOL0     C30785   6.246  10.363   6.961  0.7536 -0.9930 -0.2046
  234MOL0     O30786   6.269  10.464   7.046 -0.2930 -0.4854 -0.0131
  234MOL0     C30787   6.228  10.469   7.179 -0.1754 -0.7117 -0.9189
  234MOL0     C30788   6.212  10.370   7.270 -0.2018  0.5554  0.2686
  234MOL0     C30789   6.174  10.388   7.406  0.1869  0.4304  1.0587
  234MOL0     C30790   6.166  10.520   7.455 -0.3842  0.0567 -0.6387
  234MOL0     O30791   6.123  10.551   7.585  0.4219 -0.2408  0.7562
  234MOL0     C30792   6.120  10.440   7.674 -0.4262 -0.6864 -0.4574
  234MOL0     C30793   6.107  10.499   7.813 -0.0905 -0.9702  0.0619
  234MOL0     C30794   5.990  10.592   7.815 -0.5650 -0.2119  0.0290
  234MOL0     C30795   5.957  10.626   7.962  0.7718  0.4208  0.5956
  234MOL0     C30796   5.894  10.767   7.981  0.0565  0.6965  0.8389
  234MOL0     C30797   5.740  10.757   7.959  0.1784 -0.0143 -0.0206
  234MOL0     C30798   5.670  10.891   7.982 -0.4209  0.2708 -1.2488
  234MOL0     C30799   5.660  10.955   8.126 -0.2788 -0.1787  0.0072
  234MOL0    Cl30800   5.821  11.021   8.189 -0.4814  0.8539 -0.2880
  234MOL0     C30801   6.201  10.625   7.363 -0.3595 -0.4228  0.1624
  234MOL0     C30802   6.216  10.599   7.227 -0.6814 -0.4304 -0.0666
  234MOL0     O30803   6.206  10.253   6.996  0.6796 -1.1012  0.0416
  234MOL0     C30804   6.376  10.470   6.763  0.0705  0.9938 -0.7277
  234MOL0     C30805   6.401  10.457   6.619  0.2502 -0.1005  0.0356
  234MOL0     N30806   6.663  10.699   5.909 -0.1877 -0.7236  0.2590
  234MOL0     N30807   6.751  10.789   5.884  0.2688 -1.0551 -0.0420
  234MOL0     C30808   7.694  10.411   5.765 -0.3847 -0.2482 -0.5911
  234MOL0     C30809   7.759  10.319   5.683 -0.3279 -1.3267  1.5575
  234MOL0     C30810   8.086  10.058   5.488  0.0724  0.5257 -0.3438
  234MOL0     C30811   7.990   9.967   5.445  1.1111  0.1076  0.3140
  234MOL0     C30812   8.025   9.871   5.350  0.2487 -0.0974  0.0738
  234MOL0     C30813   8.163   9.855   5.307  0.9636  0.3961 -0.6884
  234MOL0     O30814   8.204   9.764   5.219  0.3026  0.1797 -0.3785
  234MOL0     C30815   8.126   9.719   5.104 -0.3579  0.3042 -0.9286
  234MOL0     C30816   8.125   9.817   4.994  0.1398  0.6138  0.1027
  234MOL0     C30817   8.268   9.856   4.953  0.6893 -0.3553 -0.2068
  234MOL0     C30818   8.265   9.931   4.829  0.8090  0.6350  0.7614
  234MOL0     C30819   8.400   9.958   4.774  0.1280  0.1439 -0.3913
  234MOL0     C30820   8.516   9.992   4.766 -1.2515 -0.6224  0.4940
  234MOL0     C30821   8.261   9.932   5.369  0.8203 -0.1870 -0.7601
  234MOL0     C30822   8.221  10.037   5.459  0.7337  0.7289  0.0240
  234MOL0     H30823   8.019  10.205   5.880 -2.0408 -0.1183  3.7552
  234MOL0     H30824   7.865  10.337   6.048 -3.7953  0.9122  0.8518
  234MOL0     H30825   7.525  10.540   5.936 -0.5631  2.1117 -3.6378
  234MOL0     H30826   7.613  10.685   5.875 -1.4237  0.8029  0.3216
  234MOL0     H30827   7.654  10.748   6.113 -0.4895 -0.1525 -0.0981
  234MOL0     H30828   7.570  10.596   6.170 -1.3410  0.6732  0.3760
  234MOL0     H30829   7.449  10.816   6.011  1.2625  1.3185  0.9697
  234MOL0     H30830   7.444  10.788   6.192  4.2345 -1.2658  0.3924
  234MOL0     H30831   7.346  10.565   6.021  0.4494 -0.9340 -0.5045
  234MOL0     H30832   7.312  10.609   6.194 -3.4126  1.2422  0.7534
  234MOL0     H30833   7.126  10.630   6.032  0.5665  0.4751 -1.3781
  234MOL0     H30834   7.217  10.769   5.954  1.8384  0.3109  0.0934
  234MOL0     H30835   7.222  10.880   6.189 -2.6993  1.7937  3.0870
  234MOL0     H30836   7.112  10.759   6.233  5.5062  0.0665  2.1613
  234MOL0     H30837   6.959  10.931   6.188 -2.6019 -4.8000 -0.4668
  234MOL0     H30838   7.071  11.027   6.100 -0.4651  0.0092 -1.3077
  234MOL0     H30839   7.029  10.864   5.907 -1.3904  1.3730 -1.3523
  234MOL0     H30840   6.913  10.998   5.936  2.2601  0.7221 -0.4994
  234MOL0     H30841   6.847  10.701   6.187 -1.8721 -4.2187  0.3153
  234MOL0     H30842   6.663  10.483   6.138 -0.6383  0.6937  3.4399
  234MOL0     H30843   6.523  10.542   6.051  1.9776  0.3060 -1.8876
  234MOL0     H30844   6.518  10.728   6.214 -4.1514 -1.4092 -0.1981
  234MOL0     H30845   6.621  10.638   6.325 -4.1060  0.2221  2.1435
  234MOL0     H30846   6.384  10.624   6.359 -0.8907  0.2094 -0.0632
  234MOL0     H30847   6.342  10.558   6.208 -1.3773 -1.6334  1.2467
  234MOL0     H30848   6.539  10.419   6.411 -1.9129 -0.9985  1.2200
  234MOL0     H30849   6.493  10.372   6.249  0.5657  2.3568 -0.7644
  234MOL0     H30850   6.178  10.210   6.549 -1.4226  0.1221  2.7958
  234MOL0     H30851   6.139  10.217   6.766 -1.2051 -0.1342  1.9451
  234MOL0     H30852   6.221  10.265   7.242  1.5248  0.1059  2.2590
  234MOL0     H30853   6.158  10.294   7.458 -3.2178 -1.6041 -2.9799
  234MOL0     H30854   6.212  10.383   7.665  0.6323  0.8190  0.4080
  234MOL0     H30855   6.043  10.365   7.656  0.5484 -2.0077  0.6892
  234MOL0     H30856   6.188  10.569   7.837 -1.6265  0.8143  0.2640
  234MOL0     H30857   6.099  10.424   7.892  0.5692  0.5156  1.5830
  234MOL0     H30858   5.903  10.541   7.773  0.5906 -4.0889  1.8089
  234MOL0     H30859   6.001  10.686   7.762  4.1585 -0.9248 -0.6542
  234MOL0     H30860   5.891  10.550   8.005 -1.1379  0.6626 -1.7001
  234MOL0     H30861   6.049  10.637   8.020 -0.7662 -0.4855  3.3754
  234MOL0     H30862   5.934  10.831   7.902 -0.7357 -0.3357 -0.4597
  234MOL0     H30863   5.920  10.802   8.081 -0.2851  3.0808  0.1355
  234MOL0     H30864   5.707  10.674   8.021  1.2103  0.3395  1.0554
  234MOL0     H30865   5.721  10.735   7.854 -0.0446  2.2604 -0.5184
  234MOL0     H30866   5.710  10.961   7.908  0.6007 -1.1673 -2.0961
  234MOL0     H30867   5.569  10.876   7.941 -0.1115 -4.1474 -0.8625
  234MOL0     H30868   5.625  10.866   8.179 -1.2815 -1.0042 -1.9330
  234MOL0     H30869   5.573  11.021   8.139 -2.2515 -2.9548  2.0860
  234MOL0     H30870   6.189  10.725   7.403  0.3222  1.1475 -3.1969
  234MOL0     H30871   6.230  10.685   7.162 -3.1951 -0.5209 -0.8290
  234MOL0     H30872   6.428  10.524   6.842 -0.7989  0.3786  0.3064
  234MOL0     H30873   6.479  10.524   6.586  0.3763 -0.5946 -0.6944
  234MOL0     H30874   7.623  10.487   5.737 -2.8002 -1.2425  2.2851
  234MOL0     H30875   7.726  10.313   5.580  2.6235 -2.5079  0.5934
  234MOL0     H30876   7.889   9.957   5.482  1.4111  1.0163  1.4330
  234MOL0     H30877   7.944   9.810   5.313 -1.6335  1.0522  2.0601
  234MOL0     H30878   8.025   9.694   5.137 -0.5691 -0.0529 -1.8300
  234MOL0     H30879   8.175   9.633   5.057  3.7330  1.2529  1.1290
  234MOL0     H30880   8.076   9.758   4.916  2.2419 -1.6090  0.3430
  234MOL0     H30881   8.072   9.905   5.033  1.0155  2.1059 -1.9222
  234MOL0     H30882   8.338   9.774   4.935  0.0697 -0.7819 -0.6803
  234MOL0     H30883   8.321   9.924   5.021  0.0653  2.2943 -2.2114
  234MOL0     H30884   8.200   9.886   4.754 -0.2822  0.4909  1.7692
  234MOL0     H30885   8.212  10.027   4.838 -0.6382 -0.0993  0.3993
  234MOL0     H30886   8.619  10.015   4.747 -2.0677 -0.0634 -4.7096
  234MOL0     H30887   8.361   9.917   5.331  1.5350  1.5092  0.3075
  234MOL0     H30888   8.296  10.104   5.501  1.2441  0.5858 -0.6475
  235MOL0     O30889   4.931   6.488   6.905  0.0902  0.8014  0.0631
  235MOL0     C30890   4.821   6.466   6.950 -0.0591  0.1172 -0.1645
  235MOL0     O30891   4.706   6.506   6.897  1.4957 -0.2180  1.2683
  235MOL0     C30892   4.700   6.524   6.763 -0.6869  0.3921  0.1686
  235MOL0     C30893   4.768   6.443   6.670  0.7697  0.7195  0.3479
  235MOL0     C30894   4.756   6.468   6.534  0.3457 -1.4119 -0.2677
  235MOL0     C30895   4.673   6.568   6.488  0.9633  0.1923  0.6436
  235MOL0     O30896   4.649   6.589   6.359 -0.0530 -0.0519 -0.4819
  235MOL0     C30897   4.763   6.651   6.291  0.0523 -0.2222 -0.1837
  235MOL0     C30898   4.781   6.796   6.332  0.6466 -0.1082  1.0215
  235MOL0     C30899   4.885   6.872   6.258 -0.7686  0.6321  0.1298
  235MOL0     C30900   4.883   7.015   6.299  0.8509  0.0673  0.1255
  235MOL0     C30901   4.973   7.108   6.206 -0.0317 -0.0125 -0.2814
  235MOL0     C30902   4.920   7.249   6.227 -1.0508 -0.2583 -0.1298
  235MOL0     C30903   5.020   7.367   6.165  0.1023 -0.1433  0.5321
  235MOL0     C30904   5.115   7.347   6.050 -0.4632 -0.5219 -0.4811
  235MOL0     N30905   5.205   7.463   6.040 -0.6666  1.0314  0.0266
  235MOL0     C30906   5.180   7.585   5.994  0.7339  0.0556 -0.6057
  235MOL0     C30907   5.304   7.648   5.991  0.4106  0.9613  0.4068
  235MOL0     C30908   5.343   7.790   5.945  0.2063  0.2211  0.8837
  235MOL0     C30909   5.292   7.814   5.802  0.4101  0.4240  0.0629
  235MOL0     C30910   5.332   7.960   5.768  0.4994 -0.0722  0.2592
  235MOL0     C30911   5.272   7.998   5.632 -0.2057  0.3070  0.0942
  235MOL0     O30912   5.293   8.140   5.592  0.5848  0.1485  0.3719
  235MOL0     C30913   5.417   8.182   5.550 -1.1825  0.2927 -0.7491
  235MOL0     C30914   5.492   8.106   5.463 -0.4272  0.4005  0.5667
  235MOL0     C30915   5.629   8.138   5.435 -0.9533  0.0373  0.0969
  235MOL0     C30916   5.694   8.245   5.503  0.4889  0.5238 -0.5513
  235MOL0     C30917   5.834   8.288   5.497  0.3977  0.4698  0.7837
  235MOL0     O30918   5.877   8.394   5.567  0.1793  0.1285  0.3913
  235MOL0     C30919   6.001   8.428   5.553  1.0393 -0.2256  0.0508
  235MOL0     C30920   6.043   8.477   5.427 -0.2203 -0.0991 -0.3196
  235MOL0     C30921   6.177   8.527   5.412 -1.4245  0.2135  0.1590
  235MOL0     C30922   6.265   8.535   5.524  0.9781 -0.2304  0.1356
  235MOL0     O30923   6.379   8.593   5.521 -0.2611  0.0613 -0.1482
  235MOL0     C30924   6.497   8.526   5.572  0.0290 -0.5044 -0.0148
  235MOL0     C30925   6.601   8.632   5.580 -0.7637 -0.2860 -0.2689
  235MOL0     C30926   6.554   8.760   5.645  1.0032 -1.2160 -0.4594
  235MOL0     C30927   6.491   8.744   5.780  0.4367  0.3201 -0.0342
  235MOL0     C30928   6.446   8.868   5.858  0.4730 -0.5566  0.0885
  235MOL0     C30929   6.372   8.992   5.790  0.6095 -0.2332 -0.0626
  235MOL0     C30930   6.290   9.086   5.880  0.5666 -0.3883  0.4121
  235MOL0     C30931   6.239   9.204   5.799  0.1329 -0.9828 -0.6794
  235MOL0    Cl30932   6.152   9.314   5.915  0.1911  0.3292 -0.4309
  235MOL0     C30933   6.220   8.471   5.646  0.4270  0.8394  1.1837
  235MOL0     C30934   6.088   8.424   5.654  0.4192  1.2311  0.8559
  235MOL0     O30935   5.904   8.222   5.415 -0.5850 -0.1155 -0.5228
  235MOL0     C30936   5.611   8.333   5.584  0.0328  0.1910  0.1407
  235MOL0     C30937   5.484   8.290   5.614  0.4690 -0.2738 -0.3816
  235MOL0     N30938   5.400   7.559   6.045  0.0977  0.5100 -0.0253
  235MOL0     N30939   5.336   7.445   6.072 -0.5758  0.1229  0.3821
  235MOL0     C30940   4.602   6.644   6.584  0.5520  0.1215 -0.5824
  235MOL0     C30941   4.622   6.624   6.719 -0.2613  0.7336  0.9644
  235MOL0     C30942   4.814   6.382   7.066 -0.3709  0.0742 -0.1029
  235MOL0     C30943   4.699   6.338   7.115 -0.7393  0.7846  0.6625
  235MOL0     C30944   4.699   6.263   7.230  0.1897 -0.1634 -0.5178
  235MOL0     C30945   4.814   6.239   7.307  0.0085 -0.6198 -0.8203
  235MOL0     O30946   4.806   6.175   7.427 -0.2838  0.4144 -0.0034
  235MOL0     C30947   4.775   6.039   7.426 -0.3239 -0.5991  0.0858
  235MOL0     C30948   4.637   6.029   7.482  0.5748 -0.3455  0.3632
  235MOL0     C30949   4.629   6.057   7.635  0.3791  0.5701  1.0062
  235MOL0     C30950   4.482   6.062   7.687 -0.3951  0.3875 -0.2117
  235MOL0     C30951   4.487   6.069   7.833 -0.7601  0.3922 -0.1947
  235MOL0     C30952   4.507   6.048   7.946 -0.1472 -0.5718 -0.8229
  235MOL0     C30953   4.935   6.281   7.251  0.4330 -0.4375  0.4927
  235MOL0     C30954   4.930   6.363   7.137  0.4463  0.5230  0.3288
  235MOL0     H30955   4.836   6.363   6.700 -1.9319 -1.3000  1.5394
  235MOL0     H30956   4.814   6.402   6.470  4.4837  0.1800  1.4807
  235MOL0     H30957   4.754   6.638   6.183 -0.7369 -3.2546  0.1350
  235MOL0     H30958   4.854   6.593   6.310 -1.2276 -3.6307 -3.2663
  235MOL0     H30959   4.778   6.803   6.441  0.3415 -1.3319  1.1126
  235MOL0     H30960   4.684   6.836   6.299  1.8770  2.2444  0.0312
  235MOL0     H30961   4.864   6.868   6.151  0.0655  0.7491 -0.0445
  235MOL0     H30962   4.987   6.841   6.284 -0.5953  3.1094  2.9405
  235MOL0     H30963   4.778   7.047   6.296 -0.0226 -2.6046 -0.3970
  235MOL0     H30964   4.918   7.009   6.402  1.1957 -3.6199 -0.0729
  235MOL0     H30965   4.958   7.074   6.103 -2.6774 -0.0312  0.0616
  235MOL0     H30966   5.075   7.100   6.246 -0.1445  1.5574  0.4153
  235MOL0     H30967   4.901   7.245   6.334  0.9617  0.2184  0.2916
  235MOL0     H30968   4.826   7.271   6.175 -0.0756  1.8510 -1.1564
  235MOL0     H30969   4.951   7.450   6.153 -1.2811 -1.2770  0.3714
  235MOL0     H30970   5.089   7.401   6.242  0.5716  0.8506 -0.2975
  235MOL0     H30971   5.046   7.349   5.964  0.9787 -0.3940 -1.6821
  235MOL0     H30972   5.169   7.251   6.048  2.0113  0.7630  0.3004
  235MOL0     H30973   5.083   7.613   5.956  0.1644 -1.1423 -0.0858
  235MOL0     H30974   5.452   7.801   5.951  0.2981 -0.8777  1.3660
  235MOL0     H30975   5.279   7.860   5.999 -3.2846  0.6019 -3.2179
  235MOL0     H30976   5.183   7.806   5.800  0.5269 -1.8648  0.4294
  235MOL0     H30977   5.340   7.748   5.729  2.2679 -2.0414  3.2370
  235MOL0     H30978   5.296   8.031   5.843 -2.6889 -1.6865  0.4503
  235MOL0     H30979   5.440   7.976   5.767  0.3639  0.8615 -0.2099
  235MOL0     H30980   5.164   7.998   5.647 -0.2990  0.7137 -0.5442
  235MOL0     H30981   5.308   7.935   5.550  4.3383  1.7417  0.7034
  235MOL0     H30982   5.461   8.015   5.413  1.2384  0.1762 -0.1028
  235MOL0     H30983   5.706   8.075   5.392  0.5008 -1.0027  3.8426
  235MOL0     H30984   5.977   8.485   5.341 -0.2575 -0.2782 -0.3059
  235MOL0     H30985   6.203   8.546   5.309  2.1731 -2.0669  0.4422
  235MOL0     H30986   6.526   8.444   5.505 -0.6843  0.5432 -1.6639
  235MOL0     H30987   6.483   8.468   5.664  1.4740 -1.5564 -0.4119
  235MOL0     H30988   6.647   8.645   5.482 -1.2159  2.8583 -0.1469
  235MOL0     H30989   6.677   8.593   5.649  0.5515  2.4785  0.0018
  235MOL0     H30990   6.488   8.817   5.579  1.3426  1.7036  1.5482
  235MOL0     H30991   6.634   8.835   5.654 -0.7577  0.7388 -0.2446
  235MOL0     H30992   6.405   8.677   5.777 -0.4133  0.9843  4.1430
  235MOL0     H30993   6.573   8.696   5.833  1.2332  0.1815 -1.3367
  235MOL0     H30994   6.531   8.912   5.910 -0.5435  1.3130  0.2748
  235MOL0     H30995   6.373   8.818   5.923  0.6368 -1.4659 -0.3987
  235MOL0     H30996   6.293   8.946   5.730  1.1584 -0.6657 -0.4627
  235MOL0     H30997   6.429   9.057   5.723  1.2498 -1.3522 -0.6418
  235MOL0     H30998   6.201   9.036   5.919 -0.6332  0.2882 -1.2947
  235MOL0     H30999   6.358   9.113   5.961  2.4420  0.2827 -1.3052
  235MOL0     H31000   6.168   9.175   5.720 -0.9651 -1.2548  0.3860
  235MOL0     H31001   6.319   9.265   5.756 -0.0211 -0.0449  0.3245
  235MOL0     H31002   6.282   8.468   5.735  1.2422  0.0112  0.6025
  235MOL0     H31003   6.045   8.387   5.747 -1.7011  3.1769  0.7179
  235MOL0     H31004   5.646   8.428   5.624 -1.0037  3.1282 -5.1076
  235MOL0     H31005   5.429   8.333   5.697 -1.3668 -1.2826 -1.0233
  235MOL0     H31006   4.542   6.730   6.555 -0.2180  0.5615  2.0505
  235MOL0     H31007   4.587   6.684   6.803 -0.0405 -1.8122  3.0268
  235MOL0     H31008   4.604   6.362   7.066 -0.5128  0.9463  0.2992
  235MOL0     H31009   4.595   6.245   7.255 -0.0664 -0.5231 -1.7991
  235MOL0     H31010   4.848   5.991   7.492  0.6792 -0.6036 -1.0002
  235MOL0     H31011   4.795   5.987   7.332 -1.0498 -1.6878  0.5053
  235MOL0     H31012   4.575   6.098   7.424 -0.3247 -2.0662 -0.8011
  235MOL0     H31013   4.601   5.927   7.469  1.8799 -1.0666  1.9661
  235MOL0     H31014   4.679   6.151   7.664  1.6670 -0.4125  2.0859
  235MOL0     H31015   4.691   5.978   7.678  0.6711 -1.2083 -2.4078
  235MOL0     H31016   4.435   6.155   7.656 -1.2327  0.5042  1.2861
  235MOL0     H31017   4.427   5.974   7.655 -0.2770 -1.2112  3.4414
  235MOL0     H31018   4.523   6.012   8.046  2.6198 -1.0934 -1.3784
  235MOL0     H31019   5.022   6.267   7.314 -0.9778 -0.5482  2.5217
  235MOL0     H31020   5.025   6.405   7.108  0.1113  3.5211  3.0482
  236MOL0     O31021   7.821   8.133   4.056 -0.2714 -0.0732  0.3502
  236MOL0     C31022   7.825   8.256   4.050 -0.8980 -0.2930  1.8131
  236MOL0     O31023   7.839   8.342   4.158  0.1740 -0.0171  0.3381
  236MOL0     C31024   7.865   8.290   4.286 -0.0396  0.0098  0.4881
  236MOL0     C31025   7.964   8.192   4.310 -0.0946 -0.4343 -0.0782
  236MOL0     C31026   8.009   8.156   4.444 -0.4045 -0.3947 -0.5458
  236MOL0     C31027   7.957   8.229   4.551 -1.3003  0.3344 -0.7570
  236MOL0     O31028   8.006   8.191   4.674  0.2450  0.1106  0.2338
  236MOL0     C31029   7.990   8.286   4.779 -0.6372 -0.1714  0.1360
  236MOL0     C31030   7.889   8.254   4.884  0.5058  0.3356 -1.0560
  236MOL0     C31031   7.804   8.365   4.932  0.4092 -0.6432  1.4885
  236MOL0     C31032   7.757   8.339   5.077  0.0380 -0.0641  0.5644
  236MOL0     C31033   7.718   8.474   5.131  0.0313 -0.2152  0.1188
  236MOL0     C31034   7.659   8.474   5.270  0.4963  0.4593 -0.1111
  236MOL0     C31035   7.764   8.431   5.377  0.1719  0.1303 -0.2312
  236MOL0     C31036   7.717   8.439   5.524  0.1258 -0.0478 -0.5380
  236MOL0     N31037   7.682   8.568   5.556 -0.2954  0.1605  0.0794
  236MOL0     C31038   7.754   8.678   5.547  0.5121 -0.7146  0.0900
  236MOL0     C31039   7.666   8.777   5.579  0.0731  0.0933  0.0577
  236MOL0     C31040   7.715   8.916   5.595  0.1759 -0.1360 -1.2539
  236MOL0     C31041   7.596   9.015   5.616  1.3964 -0.1460  0.3810
  236MOL0     C31042   7.650   9.157   5.630 -0.4768 -0.0675  0.5701
  236MOL0     C31043   7.534   9.256   5.633 -0.4874  0.2790 -0.0442
  236MOL0     O31044   7.504   9.282   5.492 -0.3694  0.6006 -0.1823
  236MOL0     C31045   7.371   9.304   5.473 -0.2069  0.3383 -0.3785
  236MOL0     C31046   7.308   9.246   5.364  0.2464  0.0655  0.2592
  236MOL0     C31047   7.167   9.264   5.336  0.2556  0.3512  0.5377
  236MOL0     C31048   7.092   9.350   5.421  0.7980  0.0649  0.3439
  236MOL0     C31049   6.947   9.372   5.386 -0.4753 -0.0523  0.3524
  236MOL0     O31050   6.898   9.313   5.270  0.6907  0.3727 -0.3398
  236MOL0     C31051   6.767   9.289   5.245  0.2603 -0.2424  0.0897
  236MOL0     C31052   6.708   9.315   5.116  0.9404 -0.3760 -0.6877
  236MOL0     C31053   6.568   9.298   5.102 -0.9596  0.2799  0.5541
  236MOL0     C31054   6.478   9.252   5.194  0.1951 -0.0939 -0.3875
  236MOL0     O31055   6.339   9.247   5.185 -0.0827  0.4293  0.2643
  236MOL0     C31056   6.272   9.361   5.123 -0.5889  0.3163  0.4599
  236MOL0     C31057   6.267   9.474   5.225  0.5123  1.3694 -0.9294
  236MOL0     C31058   6.176   9.437   5.362 -0.4369 -0.8583  0.2034
  236MOL0     C31059   6.182   9.554   5.450 -0.8834 -0.2580  0.0138
  236MOL0     C31060   6.115   9.516   5.586  0.5356 -0.0683 -0.6014
  236MOL0     C31061   6.102   9.645   5.672  0.4678  0.4688 -0.0909
  236MOL0     C31062   6.232   9.697   5.719 -0.3081 -0.6410 -0.8892
  236MOL0     C31063   6.213   9.818   5.808  1.4765 -0.6491 -0.4934
  236MOL0    Cl31064   6.117   9.944   5.729  0.5473 -0.2106  0.1975
  236MOL0     C31065   6.540   9.202   5.305  0.3593 -0.2289  0.7488
  236MOL0     C31066   6.678   9.213   5.330 -0.4667 -0.1548  0.3442
  236MOL0     O31067   6.882   9.441   5.468  0.1386  0.4699 -0.0434
  236MOL0     C31068   7.153   9.402   5.539 -0.0837  0.3678  1.4081
  236MOL0     C31069   7.286   9.367   5.567 -0.1092  0.7422  0.3514
  236MOL0     N31070   7.543   8.730   5.597 -0.0776  0.8988 -0.8109
  236MOL0     N31071   7.551   8.605   5.568  0.0603  0.3097 -0.1421
  236MOL0     C31072   7.861   8.337   4.525 -0.3858  0.7653  0.0481
  236MOL0     C31073   7.829   8.374   4.391 -0.3410  0.5714  0.0595
  236MOL0     C31074   7.821   8.315   3.912  0.8554  0.2754 -0.1222
  236MOL0     C31075   7.785   8.447   3.893  0.6890 -0.1016  0.2598
  236MOL0     C31076   7.769   8.511   3.769 -1.0990  0.7880 -0.3005
  236MOL0     C31077   7.801   8.437   3.652  0.1043 -0.5120  0.7862
  236MOL0     O31078   7.775   8.502   3.532  1.3210 -0.2937 -0.2138
  236MOL0     C31079   7.776   8.448   3.397  0.5938  0.0781 -0.1044
  236MOL0     C31080   7.800   8.552   3.287  0.8833  0.8519  0.0148
  236MOL0     C31081   7.948   8.582   3.304  0.7303 -0.0866  1.0555
  236MOL0     C31082   8.007   8.709   3.236  0.7655 -0.8916 -0.5610
  236MOL0     C31083   7.958   8.829   3.300  1.1351 -0.8965 -0.4522
  236MOL0     C31084   7.924   8.943   3.348  0.7964 -0.0117  0.9639
  236MOL0     C31085   7.832   8.308   3.659  0.8096 -0.0747 -1.1383
  236MOL0     C31086   7.842   8.244   3.787 -0.8446  0.0997  0.4163
  236MOL0     H31087   8.009   8.147   4.223 -0.5397 -0.3965 -0.3347
  236MOL0     H31088   8.094   8.090   4.457 -0.1490  0.2579  1.4760
  236MOL0     H31089   7.975   8.389   4.746 -0.6567 -0.0886  0.4051
  236MOL0     H31090   8.086   8.285   4.831 -1.9814 -1.6628  2.7991
  236MOL0     H31091   7.939   8.216   4.974 -2.2018 -0.7987  0.1049
  236MOL0     H31092   7.831   8.166   4.855 -0.6600  0.7616 -0.1420
  236MOL0     H31093   7.726   8.378   4.856  1.5738 -2.1957 -0.0664
  236MOL0     H31094   7.871   8.451   4.935 -0.3156 -0.0512  1.0900
  236MOL0     H31095   7.678   8.264   5.089 -2.3355  2.1692 -0.0863
  236MOL0     H31096   7.845   8.302   5.130  0.2042 -4.7981 -2.4395
  236MOL0     H31097   7.650   8.519   5.059 -1.4829 -2.7485 -0.1490
  236MOL0     H31098   7.802   8.545   5.130 -2.2651  2.7064  1.0071
  236MOL0     H31099   7.573   8.407   5.279 -0.3703  1.6485  0.6989
  236MOL0     H31100   7.626   8.578   5.283 -1.0333 -0.0782  0.5125
  236MOL0     H31101   7.792   8.326   5.360 -0.3209 -0.2065  0.9244
  236MOL0     H31102   7.850   8.497   5.367 -0.2039  1.4250  3.5763
  236MOL0     H31103   7.801   8.408   5.586  3.1729  2.0938 -3.2516
  236MOL0     H31104   7.636   8.368   5.545  0.4858  0.1591  1.7848
  236MOL0     H31105   7.849   8.694   5.498  0.1126 -2.3112 -1.2830
  236MOL0     H31106   7.766   8.949   5.504  0.8544  2.9938  0.1144
  236MOL0     H31107   7.776   8.910   5.685 -1.9397  1.3924  0.3884
  236MOL0     H31108   7.528   8.989   5.698 -2.2242  1.3696 -1.9017
  236MOL0     H31109   7.524   9.012   5.534 -0.3847 -0.6655  1.8836
  236MOL0     H31110   7.701   9.169   5.727  1.7715 -1.2609 -0.4032
  236MOL0     H31111   7.726   9.175   5.554  0.0013  2.1076  1.4816
  236MOL0     H31112   7.569   9.344   5.688  3.2018  0.1359 -1.8062
  236MOL0     H31113   7.448   9.220   5.690  0.2253  0.4961  1.2119
  236MOL0     H31114   7.375   9.198   5.293 -0.4428  3.4930 -2.9736
  236MOL0     H31115   7.119   9.217   5.251  0.3243 -0.4948  0.9585
  236MOL0     H31116   6.767   9.347   5.031  1.6184  0.1329 -0.0393
  236MOL0     H31117   6.545   9.340   5.004  4.1728 -2.4259 -2.2519
  236MOL0     H31118   6.171   9.338   5.088  0.3275 -1.0696 -1.4900
  236MOL0     H31119   6.318   9.395   5.030 -2.5637  2.1621  0.0992
  236MOL0     H31120   6.217   9.561   5.180 -1.0758  1.9810  1.7889
  236MOL0     H31121   6.372   9.493   5.249  0.6362  0.2586 -0.5242
  236MOL0     H31122   6.214   9.343   5.404 -0.0300 -0.5921  0.4364
  236MOL0     H31123   6.079   9.423   5.314 -0.9225  1.3633  0.4153
  236MOL0     H31124   6.289   9.561   5.473 -0.3851 -1.7842 -1.6133
  236MOL0     H31125   6.140   9.650   5.420  1.8865  1.4736  1.1976
  236MOL0     H31126   6.165   9.432   5.637  0.3905 -0.5628 -1.2682
  236MOL0     H31127   6.010   9.488   5.575 -0.0913  1.2497  1.4583
  236MOL0     H31128   6.026   9.630   5.749 -2.1349 -0.0080 -2.5877
  236MOL0     H31129   6.057   9.718   5.604  0.8040  0.6997 -0.0631
  236MOL0     H31130   6.294   9.616   5.757  0.4860 -0.3752 -1.5815
  236MOL0     H31131   6.298   9.723   5.636  0.5257 -0.5762 -0.2103
  236MOL0     H31132   6.307   9.867   5.837  1.2051  0.2501 -1.0902
  236MOL0     H31133   6.160   9.796   5.901 -1.1043  0.8174 -1.5252
  236MOL0     H31134   6.486   9.139   5.375  2.2783 -1.7113  0.9811
  236MOL0     H31135   6.715   9.168   5.422 -2.0947  1.4819  1.8833
  236MOL0     H31136   7.101   9.465   5.611 -0.3995  4.9267 -2.3457
  236MOL0     H31137   7.330   9.420   5.651  1.8941  0.0113 -0.1764
  236MOL0     H31138   7.821   8.391   4.610 -0.7227  2.2146 -1.0112
  236MOL0     H31139   7.770   8.462   4.366  0.0765  0.2032 -2.5398
  236MOL0     H31140   7.761   8.517   3.973 -2.0170 -0.6523 -0.0071
  236MOL0     H31141   7.723   8.610   3.767 -2.7256  0.0584 -2.2452
  236MOL0     H31142   7.675   8.409   3.386  0.8597 -0.2049 -1.7398
  236MOL0     H31143   7.848   8.366   3.390 -0.2239 -1.0277  2.9926
  236MOL0     H31144   7.767   8.533   3.185  0.5259 -1.7898  0.5402
  236MOL0     H31145   7.745   8.640   3.321 -3.2394 -1.0434 -1.1187
  236MOL0     H31146   8.010   8.502   3.264  2.6181  1.6689  0.2941
  236MOL0     H31147   7.983   8.592   3.408  2.9488 -5.1066  1.0500
  236MOL0     H31148   8.113   8.705   3.261  0.2159 -0.8891  2.1377
  236MOL0     H31149   7.994   8.703   3.128  0.4483 -0.9785 -0.5215
  236MOL0     H31150   7.896   9.041   3.380  0.8403  0.4656 -0.3962
  236MOL0     H31151   7.855   8.255   3.567 -0.7819 -1.0318 -1.0304
  236MOL0     H31152   7.880   8.143   3.780  0.7530  0.7054 -0.2751
  237MOL0     O31153   6.637   5.224   7.598 -0.4976 -0.2768 -0.2820
  237MOL0     C31154   6.757   5.242   7.642 -0.7556 -0.2592 -0.0525
  237MOL0     O31155   6.826   5.365   7.638  0.7681  0.2391  0.5143
  237MOL0     C31156   6.766   5.440   7.543  0.8037  0.8913 -0.3267
  237MOL0     C31157   6.677   5.544   7.583 -0.3240  0.4556 -0.1444
  237MOL0     C31158   6.610   5.616   7.497  0.0429  0.2581 -0.7266
  237MOL0     C31159   6.638   5.600   7.362 -0.5001 -0.4000  0.4807
  237MOL0     O31160   6.562   5.667   7.272  0.4809 -0.0620 -0.3157
  237MOL0     C31161   6.635   5.741   7.171 -0.4409  0.1622 -0.2130
  237MOL0     C31162   6.558   5.823   7.063 -0.2482 -0.5585  0.4753
  237MOL0     C31163   6.445   5.748   6.987 -0.3040  0.0766  0.2910
  237MOL0     C31164   6.312   5.727   7.056 -0.5227 -0.2360 -0.4237
  237MOL0     C31165   6.219   5.667   6.957 -0.8411 -0.4737 -0.7231
  237MOL0     C31166   6.081   5.640   7.002  0.4652 -0.8565  0.1753
  237MOL0     C31167   6.044   5.545   7.123  0.0853 -0.3309  0.4264
  237MOL0     C31168   6.052   5.399   7.107  0.0690  0.4139 -0.7639
  237MOL0     N31169   6.185   5.353   7.074  0.1999  0.2973  0.5530
  237MOL0     C31170   6.291   5.367   7.156  0.9912 -0.0967  0.8473
  237MOL0     C31171   6.381   5.283   7.110 -0.4771 -0.5916 -0.1040
  237MOL0     C31172   6.518   5.263   7.175 -0.2338 -0.0770  0.2218
  237MOL0     C31173   6.530   5.120   7.231  0.0542 -0.0559 -0.2361
  237MOL0     C31174   6.651   5.051   7.171 -0.4905  0.9861  0.6567
  237MOL0     C31175   6.681   4.911   7.214 -0.3573 -0.0462 -0.6207
  237MOL0     O31176   6.559   4.831   7.235 -0.2172  0.0450  0.3578
  237MOL0     C31177   6.597   4.704   7.275  0.6809 -0.9924 -0.0707
  237MOL0     C31178   6.578   4.665   7.407 -1.1033  0.2479  0.4809
  237MOL0     C31179   6.590   4.534   7.443 -0.8226 -0.1944  0.2921
  237MOL0     C31180   6.617   4.430   7.343  0.8553 -1.1622  0.8923
  237MOL0     C31181   6.615   4.288   7.380 -0.6564  0.1265 -0.6630
  237MOL0     O31182   6.593   4.254   7.511 -0.0191 -0.3500 -0.0770
  237MOL0     C31183   6.608   4.124   7.564 -0.2221 -0.4276  0.2986
  237MOL0     C31184   6.680   4.017   7.499  0.1927 -0.4016 -0.3407
  237MOL0     C31185   6.695   3.891   7.565 -0.4263  0.0688  0.1845
  237MOL0     C31186   6.627   3.869   7.686  1.0800  0.7205 -0.3314
  237MOL0     O31187   6.606   3.751   7.748 -0.7560  0.5018 -0.1251
  237MOL0     C31188   6.662   3.636   7.697 -0.7898  0.4255  0.5450
  237MOL0     C31189   6.605   3.537   7.796  0.3348 -0.0337 -0.1864
  237MOL0     C31190   6.615   3.396   7.747  0.4632  0.6543 -0.2367
  237MOL0     C31191   6.570   3.288   7.846  0.2700  0.1089 -2.0063
  237MOL0     C31192   6.562   3.151   7.779 -0.4055  0.4108  0.0423
  237MOL0     C31193   6.517   3.037   7.887 -0.3318  0.5814 -0.2971
  237MOL0     C31194   6.379   3.067   7.951 -0.2669 -0.7991  0.5009
  237MOL0     C31195   6.321   2.928   7.987 -0.5271 -0.6019 -0.1672
  237MOL0    Cl31196   6.166   2.935   8.083  0.3565  0.0800 -0.6905
  237MOL0     C31197   6.556   3.975   7.744 -0.4580 -1.2328  0.7174
  237MOL0     C31198   6.543   4.098   7.681 -0.7822  0.6922 -1.0177
  237MOL0     O31199   6.606   4.208   7.288 -0.0974 -0.0902  0.3337
  237MOL0     C31200   6.642   4.474   7.211 -0.3478  0.1434  0.6349
  237MOL0     C31201   6.635   4.617   7.175  0.1378 -0.8538  0.5953
  237MOL0     N31202   6.338   5.237   6.988  0.8006 -0.8235  0.9139
  237MOL0     N31203   6.219   5.286   6.960  0.3280 -0.7516 -0.0153
  237MOL0     C31204   6.734   5.503   7.317  0.5584  0.2772  0.7911
  237MOL0     C31205   6.797   5.430   7.410 -0.8030  0.1428 -0.2762
  237MOL0     C31206   6.822   5.143   7.733  0.5670  0.5165  0.6977
  237MOL0     C31207   6.747   5.035   7.770  1.1461  0.1932 -0.0198
  237MOL0     C31208   6.807   4.930   7.842 -1.0502 -0.6971  0.2296
  237MOL0     C31209   6.942   4.940   7.891 -0.2300  0.4419 -0.2132
  237MOL0     O31210   6.987   4.821   7.944 -0.2251 -0.8862 -0.4421
  237MOL0     C31211   7.111   4.826   8.005 -0.2464 -0.9235  0.2278
  237MOL0     C31212   7.122   4.721   8.111 -0.0450 -0.1278 -0.8671
  237MOL0     C31213   7.087   4.790   8.238  0.3326  1.0989  0.4088
  237MOL0     C31214   7.032   4.708   8.358 -0.3646 -0.3517  0.0501
  237MOL0     C31215   7.131   4.606   8.407  0.3468 -0.1172  1.3495
  237MOL0     C31216   7.203   4.523   8.458  0.0976 -0.5830  0.7006
  237MOL0     C31217   7.011   5.059   7.862  0.3136 -0.3492 -0.0705
  237MOL0     C31218   6.952   5.159   7.786 -0.6323  0.7156  0.5358
  237MOL0     H31219   6.643   5.546   7.686 -2.0220 -0.1644 -0.6593
  237MOL0     H31220   6.531   5.684   7.527 -0.5655 -0.3540 -0.8976
  237MOL0     H31221   6.685   5.669   7.105  2.0213  0.3803  1.2710
  237MOL0     H31222   6.706   5.798   7.232  2.3425 -2.2193 -1.0252
  237MOL0     H31223   6.634   5.857   6.991 -0.7811 -0.1989  0.0727
  237MOL0     H31224   6.522   5.917   7.105 -0.8935  1.3101 -3.7156
  237MOL0     H31225   6.498   5.655   6.966  1.1179  0.6696  1.1374
  237MOL0     H31226   6.424   5.798   6.891  3.1830 -2.4589 -2.0303
  237MOL0     H31227   6.336   5.661   7.140  3.0099  0.1321 -0.9752
  237MOL0     H31228   6.274   5.822   7.094 -2.4538 -1.5961  1.2309
  237MOL0     H31229   6.259   5.572   6.921 -2.2849 -1.4672  0.1736
  237MOL0     H31230   6.204   5.733   6.871 -2.9348 -2.0752 -1.6686
  237MOL0     H31231   6.026   5.594   6.919 -0.4347 -2.1801  1.4674
  237MOL0     H31232   6.038   5.737   7.029  3.2869  0.7799 -0.7546
  237MOL0     H31233   6.124   5.571   7.193  0.7924  1.4948 -0.9888
  237MOL0     H31234   5.940   5.567   7.151 -0.3580 -0.1542 -1.2248
  237MOL0     H31235   5.978   5.364   7.035 -0.1786 -1.8164  0.4838
  237MOL0     H31236   6.018   5.354   7.201  0.5137  1.1455 -0.2377
  237MOL0     H31237   6.293   5.414   7.253  2.8134  1.9649 -0.0979
  237MOL0     H31238   6.544   5.331   7.256  2.0349  0.4163 -0.8325
  237MOL0     H31239   6.590   5.279   7.094 -0.1142  3.5643  0.8680
  237MOL0     H31240   6.446   5.058   7.197 -1.0581  0.4630  1.4366
  237MOL0     H31241   6.542   5.124   7.340 -1.5357 -1.7129  0.0546
  237MOL0     H31242   6.640   5.041   7.063  2.8294 -0.2414  0.3173
  237MOL0     H31243   6.737   5.111   7.204  0.2452 -0.3658  1.2973
  237MOL0     H31244   6.742   4.908   7.305 -2.3635  0.3683  0.8118
  237MOL0     H31245   6.731   4.868   7.127 -1.6569 -2.4971 -0.2335
  237MOL0     H31246   6.558   4.745   7.478  1.6429 -0.3307  2.0417
  237MOL0     H31247   6.579   4.519   7.550 -1.3223  1.8330  0.5487
  237MOL0     H31248   6.716   4.023   7.397  1.4352 -0.8121  0.0512
  237MOL0     H31249   6.736   3.805   7.513 -2.3996 -1.0262  0.3314
  237MOL0     H31250   6.771   3.639   7.703 -0.6203 -0.6170 -1.3075
  237MOL0     H31251   6.619   3.619   7.597 -3.6948  1.3220  1.5212
  237MOL0     H31252   6.497   3.540   7.816  0.0051 -3.4497 -0.8555
  237MOL0     H31253   6.659   3.541   7.891 -0.6792  0.4757  0.3856
  237MOL0     H31254   6.723   3.380   7.738  0.4376 -0.0540  0.5653
  237MOL0     H31255   6.559   3.374   7.656  1.3674 -0.1215 -0.6292
  237MOL0     H31256   6.631   3.269   7.935 -4.0439 -0.5270  1.1144
  237MOL0     H31257   6.478   3.314   7.898  1.5969 -2.5811  2.1522
  237MOL0     H31258   6.659   3.117   7.741  0.7745  1.8676  1.5897
  237MOL0     H31259   6.488   3.147   7.699 -1.3464 -2.0087  0.9603
  237MOL0     H31260   6.590   3.025   7.967 -0.6933  0.2838 -0.0146
  237MOL0     H31261   6.520   2.938   7.842  1.9794  0.9698 -1.1590
  237MOL0     H31262   6.379   3.130   8.040  0.0702  2.0568 -1.3884
  237MOL0     H31263   6.324   3.131   7.882 -0.8098  0.0492  1.6851
  237MOL0     H31264   6.391   2.858   8.034  0.0610  0.2416  0.2344
  237MOL0     H31265   6.316   2.872   7.893 -1.2709  0.7909 -0.9979
  237MOL0     H31266   6.513   3.951   7.841  2.5141 -4.6219  1.4257
  237MOL0     H31267   6.468   4.165   7.722 -2.0277 -0.0963 -1.9441
  237MOL0     H31268   6.680   4.422   7.124  2.8684  2.4035  0.5162
  237MOL0     H31269   6.633   4.655   7.074 -2.9656  1.0405  1.2534
  237MOL0     H31270   6.733   5.500   7.208 -3.2625  0.6741  0.6599
  237MOL0     H31271   6.863   5.359   7.361 -1.2118 -0.6717  0.3512
  237MOL0     H31272   6.643   5.035   7.740  0.7226  0.8681  1.3794
  237MOL0     H31273   6.750   4.840   7.865 -1.4906 -1.6828 -3.9487
  237MOL0     H31274   7.130   4.927   8.044  0.8543 -0.3536 -1.6482
  237MOL0     H31275   7.180   4.800   7.924  2.5832  2.5978  1.2690
  237MOL0     H31276   7.062   4.634   8.080 -0.0320 -0.6305  0.4727
  237MOL0     H31277   7.225   4.690   8.130  0.6162  0.6323 -2.9358
  237MOL0     H31278   7.009   4.865   8.229  1.4322  2.7955  3.5313
  237MOL0     H31279   7.177   4.847   8.263 -0.2790  2.3577 -0.1721
  237MOL0     H31280   7.009   4.781   8.436 -0.5021 -2.5807  2.2281
  237MOL0     H31281   6.941   4.656   8.327  2.1418 -4.3711 -1.3178
  237MOL0     H31282   7.262   4.440   8.490  1.7197 -0.1305 -0.9660
  237MOL0     H31283   7.117   5.073   7.883  0.3352  2.9624 -1.6673
  237MOL0     H31284   7.009   5.249   7.767  1.5270 -0.9859 -1.6157
  238MOL0     O31285   9.323   3.388   2.017  0.7108  0.5010 -0.6385
  238MOL0     C31286   9.402   3.472   1.982  0.1194 -0.2117  0.5281
  238MOL0     O31287   9.361   3.598   1.932 -0.4572  0.6143  0.0347
  238MOL0     C31288   9.228   3.628   1.920  1.1190  0.3653 -0.0624
  238MOL0     C31289   9.172   3.746   1.972 -0.5380 -0.2398  0.0550
  238MOL0     C31290   9.046   3.790   1.948  0.0678  0.2776 -0.2461
  238MOL0     C31291   8.959   3.705   1.884  0.0811  0.2070 -0.7301
  238MOL0     O31292   8.833   3.757   1.877 -0.3722  0.3076  0.9878
  238MOL0     C31293   8.726   3.684   1.808  0.2771  0.7022 -0.6309
  238MOL0     C31294   8.611   3.784   1.817 -0.7587  0.1190 -0.5059
  238MOL0     C31295   8.492   3.735   1.734  0.4970  0.0784  0.4322
  238MOL0     C31296   8.387   3.846   1.746  1.6719 -0.9078 -1.5098
  238MOL0     C31297   8.263   3.795   1.674 -1.3905  0.0520 -0.4694
  238MOL0     C31298   8.159   3.908   1.670 -0.2658  0.5677 -0.2589
  238MOL0     C31299   8.111   3.960   1.805 -0.3124  0.9748  0.2726
  238MOL0     C31300   7.996   4.057   1.791 -1.0800  0.1835  0.1269
  238MOL0     N31301   7.957   4.110   1.921  0.3304  0.5416 -0.8371
  238MOL0     C31302   8.011   4.214   1.984 -0.6661 -0.3107  0.3399
  238MOL0     C31303   7.973   4.211   2.108  0.7662 -0.4211 -0.9379
  238MOL0     C31304   8.036   4.293   2.228 -0.2396 -0.1668  1.0804
  238MOL0     C31305   7.925   4.319   2.338  0.3666 -0.5554  0.2521
  238MOL0     C31306   7.796   4.376   2.278  0.1946 -0.0912  0.1193
  238MOL0     C31307   7.698   4.404   2.401 -0.4410 -0.6434 -0.0186
  238MOL0     O31308   7.776   4.490   2.488  0.3938 -0.2171 -0.3023
  238MOL0     C31309   7.694   4.549   2.583 -0.1618 -0.4938  0.3792
  238MOL0     C31310   7.558   4.529   2.611 -0.3550  0.2139 -0.5637
  238MOL0     C31311   7.493   4.593   2.720  0.4039 -0.7076  0.7144
  238MOL0     C31312   7.553   4.695   2.792  0.8088 -0.3177  0.2524
  238MOL0     C31313   7.485   4.783   2.888  0.5132 -0.6374 -0.2334
  238MOL0     O31314   7.577   4.840   2.985  0.0970  0.5916 -0.5514
  238MOL0     C31315   7.515   4.921   3.075 -0.2898 -1.1899 -0.5813
  238MOL0     C31316   7.563   5.050   3.067 -0.7117 -0.0506  0.3237
  238MOL0     C31317   7.532   5.147   3.156  0.7463  0.9579  0.0645
  238MOL0     C31318   7.448   5.110   3.266 -0.5324  0.5396  0.3007
  238MOL0     O31319   7.415   5.204   3.368 -0.8477  0.4434 -0.8783
  238MOL0     C31320   7.513   5.297   3.397  0.1685 -0.6392 -0.1316
  238MOL0     C31321   7.486   5.366   3.532  1.3105 -0.3667  0.2093
  238MOL0     C31322   7.574   5.323   3.645  0.2132  0.0593  1.0307
  238MOL0     C31323   7.536   5.181   3.686 -0.1280 -0.2603 -0.6504
  238MOL0     C31324   7.571   5.155   3.828 -0.1661 -0.1036 -0.6107
  238MOL0     C31325   7.710   5.194   3.865 -0.2151  0.0714  0.5657
  238MOL0     C31326   7.746   5.123   3.995 -0.5789 -0.1167  0.2193
  238MOL0     C31327   7.866   5.207   4.038 -0.5581  0.4076 -0.7448
  238MOL0    Cl31328   7.915   5.192   4.211 -0.0623  0.0456  0.3820
  238MOL0     C31329   7.406   4.976   3.285 -0.2294 -1.4683  0.3320
  238MOL0     C31330   7.446   4.877   3.192 -0.3990  0.3764 -0.4602
  238MOL0     O31331   7.366   4.810   2.870  0.3661 -0.3413 -0.7318
  238MOL0     C31332   7.683   4.721   2.756 -0.6284  0.2315  0.1501
  238MOL0     C31333   7.755   4.652   2.650  0.2526 -0.1196 -0.0093
  238MOL0     N31334   7.886   4.108   2.127  0.5302 -0.1567  0.0575
  238MOL0     N31335   7.880   4.040   2.020  0.3019 -0.2346  0.4316
  238MOL0     C31336   9.003   3.575   1.843 -0.0966 -0.4843  0.5837
  238MOL0     C31337   9.142   3.537   1.853  0.2402 -0.5395  0.0824
  238MOL0     C31338   9.540   3.429   1.992  0.1644 -0.4721 -0.5262
  238MOL0     C31339   9.577   3.301   2.048 -0.2968 -0.5527 -0.3868
  238MOL0     C31340   9.710   3.275   2.065  0.0921  0.4737 -0.3749
  238MOL0     C31341   9.808   3.364   2.025 -0.2114 -0.6703  0.4731
  238MOL0     O31342   9.940   3.325   2.038 -0.1898 -0.7032 -0.2199
  238MOL0     C31343  10.056   3.413   2.029  1.1714  0.6482 -0.3105
  238MOL0     C31344  10.184   3.354   2.091 -0.1598  0.5230  0.5800
  238MOL0     C31345  10.186   3.362   2.236  0.3235  0.4275  0.1421
  238MOL0     C31346  10.200   3.506   2.293 -0.7010  0.0600  0.5996
  238MOL0     C31347  10.199   3.497   2.434 -0.1580 -0.7167 -0.3328
  238MOL0     C31348  10.190   3.497   2.559  0.4505 -0.0353  0.0775
  238MOL0     C31349   9.773   3.486   1.965  0.5927 -1.0031  0.0360
  238MOL0     C31350   9.640   3.519   1.952 -0.0354 -1.0080  0.4006
  238MOL0     H31351   9.235   3.805   2.037 -4.2157  1.4421  2.4598
  238MOL0     H31352   9.012   3.878   2.001  1.6431  0.7584  0.0130
  238MOL0     H31353   8.716   3.585   1.854  1.1539 -0.3855 -2.6293
  238MOL0     H31354   8.743   3.673   1.701 -0.4238  0.8870 -0.7708
  238MOL0     H31355   8.642   3.883   1.784 -1.0428 -0.0706 -1.3793
  238MOL0     H31356   8.584   3.792   1.922  1.0309  2.4331 -0.1581
  238MOL0     H31357   8.453   3.639   1.770  2.8053 -0.6726  1.1348
  238MOL0     H31358   8.527   3.721   1.631 -0.8550  1.9016 -0.3315
  238MOL0     H31359   8.367   3.861   1.852 -0.4105 -2.1309 -1.6742
  238MOL0     H31360   8.413   3.945   1.707 -1.1562 -0.4306 -2.3859
  238MOL0     H31361   8.226   3.704   1.722 -0.3007 -1.5113 -2.4182
  238MOL0     H31362   8.297   3.762   1.576  1.3196  0.9284  0.0929
  238MOL0     H31363   8.074   3.869   1.612 -0.4027  0.8750 -0.2651
  238MOL0     H31364   8.199   3.996   1.619  0.3760  1.3555  1.5348
  238MOL0     H31365   8.073   3.877   1.865 -1.0667  0.3245 -1.0731
  238MOL0     H31366   8.199   4.004   1.853  2.4225 -2.2024 -1.4372
  238MOL0     H31367   7.918   3.994   1.749  1.0943 -1.6071 -1.4946
  238MOL0     H31368   8.035   4.147   1.741 -0.0679 -0.5578 -0.4587
  238MOL0     H31369   8.073   4.289   1.937  1.2196 -1.4117  0.9779
  238MOL0     H31370   8.084   4.385   2.195 -0.7601 -1.0878 -2.6384
  238MOL0     H31371   8.109   4.229   2.279  2.1489  2.3998  1.1053
  238MOL0     H31372   7.959   4.377   2.425  1.1556 -5.3024  3.5003
  238MOL0     H31373   7.897   4.222   2.380  1.3905 -1.1358 -0.3701
  238MOL0     H31374   7.822   4.471   2.230 -0.0994 -0.9045 -1.7215
  238MOL0     H31375   7.748   4.316   2.200 -1.4732  1.1312  0.1421
  238MOL0     H31376   7.696   4.309   2.455  4.1618  0.3491  2.4034
  238MOL0     H31377   7.601   4.449   2.374 -0.0635  0.7525  0.8509
  238MOL0     H31378   7.514   4.442   2.564  0.9829 -0.2290 -1.0269
  238MOL0     H31379   7.391   4.559   2.734  0.0673 -0.2114 -0.3945
  238MOL0     H31380   7.638   5.065   2.990  1.0825 -1.8763  1.5933
  238MOL0     H31381   7.582   5.243   3.144  2.0770  0.6507  2.4963
  238MOL0     H31382   7.514   5.368   3.315  1.5054 -0.1683  0.2601
  238MOL0     H31383   7.613   5.253   3.386 -0.4105 -1.5810 -1.9688
  238MOL0     H31384   7.381   5.366   3.561  0.2725 -0.3885 -3.1232
  238MOL0     H31385   7.515   5.469   3.509  0.7321  0.1980  1.8598
  238MOL0     H31386   7.574   5.397   3.725  3.4145  0.9192  0.3947
  238MOL0     H31387   7.678   5.325   3.612  0.7821 -0.4638  2.7037
  238MOL0     H31388   7.428   5.164   3.688 -0.8050  3.3346  0.3426
  238MOL0     H31389   7.597   5.123   3.616  1.0164  0.6916 -0.4660
  238MOL0     H31390   7.550   5.048   3.841 -0.3500  0.2877  3.9678
  238MOL0     H31391   7.502   5.217   3.885  1.7178  2.8991 -1.3457
  238MOL0     H31392   7.705   5.302   3.881 -1.2884 -0.0591  1.1903
  238MOL0     H31393   7.782   5.166   3.788 -0.9583 -3.9846  1.1448
  238MOL0     H31394   7.668   5.128   4.072 -0.4401 -2.3237  0.5777
  238MOL0     H31395   7.755   5.015   3.981 -1.0055 -0.2230  0.7306
  238MOL0     H31396   7.844   5.313   4.026 -0.1298  0.8973  1.9844
  238MOL0     H31397   7.951   5.175   3.978  0.0605 -2.0430  1.2425
  238MOL0     H31398   7.348   4.950   3.372  2.8935 -1.5686  2.5692
  238MOL0     H31399   7.426   4.771   3.203  2.5705 -0.3323 -1.0643
  238MOL0     H31400   7.742   4.803   2.796  0.4581  0.8854 -2.6152
  238MOL0     H31401   7.854   4.684   2.617  0.7866 -2.4066 -0.8764
  238MOL0     H31402   8.934   3.503   1.801  0.6174 -1.3943  0.9431
  238MOL0     H31403   9.181   3.442   1.818  1.4565  0.6385 -1.9913
  238MOL0     H31404   9.502   3.237   2.092  3.1675 -1.8210  4.4892
  238MOL0     H31405   9.731   3.177   2.107 -0.3215 -0.3344 -2.0102
  238MOL0     H31406  10.025   3.510   2.070 -0.8719  0.4641 -1.2940
  238MOL0     H31407  10.078   3.443   1.926  0.6310  0.9072 -0.3516
  238MOL0     H31408  10.202   3.252   2.055  2.7183  0.9270  0.5871
  238MOL0     H31409  10.262   3.421   2.053  0.0680  0.1178  0.3263
  238MOL0     H31410  10.271   3.298   2.260  0.7817  1.1451  0.5076
  238MOL0     H31411  10.101   3.312   2.281 -1.5359  1.4941 -1.9672
  238MOL0     H31412  10.292   3.560   2.269  0.1115 -2.3217 -2.2139
  238MOL0     H31413  10.116   3.569   2.260 -0.6423 -0.9449 -1.6687
  238MOL0     H31414  10.181   3.506   2.665 -1.1784 -0.5841  0.0055
  238MOL0     H31415   9.847   3.564   1.948 -0.2813  0.0785  1.0034
  238MOL0     H31416   9.609   3.605   1.894 -0.2141 -1.2585  0.1179
  239MOL0     O31417   0.435  10.452   9.427 -0.0186 -0.5158  0.0440
  239MOL0     C31418   0.325  10.397   9.405 -0.6241  0.0179 -0.3897
  239MOL0     O31419   0.301  10.295   9.314 -0.8692 -0.4536  0.7562
  239MOL0     C31420   0.412  10.231   9.258 -0.1199 -0.0669 -0.3364
  239MOL0     C31421   0.483  10.139   9.333  0.2818 -0.4489 -0.0335
  239MOL0     C31422   0.609  10.092   9.288 -0.4924 -0.6624  0.6958
  239MOL0     C31423   0.642  10.117   9.153 -0.8548  0.9126  0.1236
  239MOL0     O31424   0.753  10.046   9.100  0.4330 -0.1523 -0.4412
  239MOL0     C31425   0.854  10.142   9.088 -0.3565  0.2191 -0.7325
  239MOL0     C31426   0.995  10.075   9.065  0.1670  0.2019 -0.2884
  239MOL0     C31427   0.996  10.002   8.922  0.0194  1.3069 -0.4431
  239MOL0     C31428   0.956   9.849   8.924 -0.3697  0.3572  0.1483
  239MOL0     C31429   0.939   9.789   8.776  0.0837  0.8744  0.0013
  239MOL0     C31430   1.072   9.740   8.728  0.0511 -0.3496  0.1981
  239MOL0     C31431   1.035   9.660   8.598  0.1738 -0.7077  0.0534
  239MOL0     C31432   1.146   9.618   8.509 -0.5161  1.2267 -1.5412
  239MOL0     N31433   1.246   9.540   8.574 -0.2677  0.2075 -0.2630
  239MOL0     C31434   1.219   9.411   8.617  0.1579 -0.1698  0.1138
  239MOL0     C31435   1.329   9.376   8.691  0.6745 -0.4356 -0.3867
  239MOL0     C31436   1.342   9.256   8.789  0.3859 -0.2670  0.2378
  239MOL0     C31437   1.250   9.264   8.915 -0.9022  0.0757 -0.8923
  239MOL0     C31438   1.270   9.382   9.001  0.3955 -0.8182  0.7547
  239MOL0     C31439   1.411   9.415   9.036  0.6095 -0.1131 -0.0742
  239MOL0     O31440   1.414   9.517   9.139 -1.2971  0.2341  0.2545
  239MOL0     C31441   1.406   9.652   9.110  0.4418 -0.3069  0.3364
  239MOL0     C31442   1.371   9.711   8.987 -0.4700  0.3559  0.1614
  239MOL0     C31443   1.381   9.850   8.961  0.6831 -0.2487  0.3973
  239MOL0     C31444   1.408   9.947   9.064 -0.0974  0.2660  0.1489
  239MOL0     C31445   1.403  10.095   9.035 -0.0046 -0.1500 -0.4217
  239MOL0     O31446   1.384  10.169   9.146 -0.0545  0.3605  0.6242
  239MOL0     C31447   1.397  10.305   9.141 -0.4721  0.2674  0.6057
  239MOL0     C31448   1.505  10.370   9.077 -1.4070  0.8641 -0.4002
  239MOL0     C31449   1.500  10.504   9.053 -0.9654  0.6017 -0.2605
  239MOL0     C31450   1.412  10.586   9.117  0.6663  0.1154 -0.6801
  239MOL0     O31451   1.418  10.722   9.098  0.3669 -0.1375 -0.4116
  239MOL0     C31452   1.403  10.810   9.216  0.1563  0.4353  0.7908
  239MOL0     C31453   1.271  10.877   9.233  0.6410 -0.3483 -0.4118
  239MOL0     C31454   1.252  11.004   9.137  0.0873 -0.1432 -0.5354
  239MOL0     C31455   1.222  10.957   8.995  0.8001  0.2446  1.2726
  239MOL0     C31456   1.118  11.047   8.908  0.4080 -0.1712 -1.0754
  239MOL0     C31457   0.984  11.035   8.972  0.9448 -0.0823 -0.1694
  239MOL0     C31458   0.856  11.060   8.887 -0.6822 -0.7609  0.1829
  239MOL0     C31459   0.729  11.018   8.953  0.3155  0.1186 -0.4569
  239MOL0    Cl31460   0.699  10.846   8.956 -0.0695  0.2068  0.1258
  239MOL0     C31461   1.311  10.530   9.195 -0.5134 -1.1786  0.1155
  239MOL0     C31462   1.307  10.385   9.209  1.0503 -0.0820  0.6507
  239MOL0     O31463   1.403  10.135   8.918 -0.3906 -0.6213  0.6480
  239MOL0     C31464   1.440   9.887   9.191 -0.4215 -0.1354 -0.0297
  239MOL0     C31465   1.442   9.752   9.217 -0.6329  0.5361  0.9709
  239MOL0     N31466   1.433   9.476   8.668 -0.2568  0.0373  0.3204
  239MOL0     N31467   1.382   9.565   8.590  0.4312 -1.1084 -0.6971
  239MOL0     C31468   0.566  10.210   9.077 -0.6382  0.7372  0.2019
  239MOL0     C31469   0.461  10.278   9.134  0.6129  0.3241 -0.1268
  239MOL0     C31470   0.213  10.449   9.482  0.4457 -0.1960  0.8897
  239MOL0     C31471   0.098  10.366   9.491  0.6145  0.1035 -1.2232
  239MOL0     C31472  -0.007  10.417   9.560  0.0177 -0.5072 -1.0099
  239MOL0     C31473  -0.015  10.553   9.614  0.9095 -0.4907  0.7717
  239MOL0     O31474  -0.126  10.615   9.679 -0.0741  0.2327  0.0083
  239MOL0     C31475  -0.216  10.522   9.745  0.5446 -0.7592  0.6674
  239MOL0     C31476  -0.161  10.477   9.880 -0.8602  0.2976  0.4609
  239MOL0     C31477  -0.173  10.591   9.983 -0.7146  0.7531 -0.5102
  239MOL0     C31478  -0.297  10.569  10.074  0.0705 -0.5451  0.3119
  239MOL0     C31479  -0.283  10.626  10.206 -0.4603  0.0077  0.0094
  239MOL0     C31480  -0.273  10.666  10.318 -0.3171  0.0292  0.3754
  239MOL0     C31481   0.097  10.629   9.595  0.0856 -0.1160 -0.0003
  239MOL0     C31482   0.210  10.581   9.531  0.6952 -0.7301 -0.4832
  239MOL0     H31483   0.471  10.109   9.437 -2.6736  0.9805  0.1504
  239MOL0     H31484   0.669  10.019   9.340  4.9270 -0.7822 -4.6723
  239MOL0     H31485   0.878  10.198   9.179  2.9335  0.6551 -1.7492
  239MOL0     H31486   0.822  10.215   9.013 -2.1819 -0.3742 -0.5835
  239MOL0     H31487   1.027  10.008   9.145 -0.6264  0.4452  0.2371
  239MOL0     H31488   1.075  10.150   9.061  2.6548 -2.1724  1.2864
  239MOL0     H31489   1.102   9.995   8.898  0.2915 -1.7371  1.1532
  239MOL0     H31490   0.942  10.059   8.846  0.4892  0.1551 -1.6915
  239MOL0     H31491   1.028   9.787   8.978 -1.1440  0.1581  0.9681
  239MOL0     H31492   0.856   9.853   8.969  0.1348  2.1984  1.2366
  239MOL0     H31493   0.898   9.863   8.708 -0.0170 -0.4063 -1.3953
  239MOL0     H31494   0.866   9.707   8.782  2.2377 -1.2853 -1.2203
  239MOL0     H31495   1.106   9.678   8.811 -1.9158  0.4788  1.7001
  239MOL0     H31496   1.136   9.824   8.699 -0.2592  0.1288  0.8762
  239MOL0     H31497   0.990   9.570   8.642 -0.4346  0.0068  0.9300
  239MOL0     H31498   0.964   9.709   8.531 -2.2423 -2.2775  1.3040
  239MOL0     H31499   1.189   9.711   8.471 -2.6629  2.6004 -0.7713
  239MOL0     H31500   1.111   9.570   8.417 -0.2621 -0.0098 -1.0138
  239MOL0     H31501   1.118   9.373   8.627  0.7874 -2.6843 -1.9596
  239MOL0     H31502   1.448   9.243   8.813  0.3902 -3.7131 -1.0613
  239MOL0     H31503   1.309   9.174   8.724 -0.7545 -0.1166  0.5965
  239MOL0     H31504   1.263   9.171   8.969 -2.3869  0.3483  0.0109
  239MOL0     H31505   1.147   9.264   8.877 -2.3285 -2.8726  2.4183
  239MOL0     H31506   1.217   9.458   8.942  2.3901  0.4308  0.4855
  239MOL0     H31507   1.206   9.366   9.087  1.7483 -2.5421  1.4910
  239MOL0     H31508   1.457   9.461   8.948 -0.3832  0.0310 -0.5281
  239MOL0     H31509   1.476   9.337   9.077  2.1333 -0.5685 -3.0320
  239MOL0     H31510   1.347   9.645   8.904  0.9565  1.1838 -0.9454
  239MOL0     H31511   1.348   9.888   8.864 -0.5105 -0.8812  0.5362
  239MOL0     H31512   1.587  10.311   9.037 -0.2479  1.1214  1.5163
  239MOL0     H31513   1.577  10.549   8.991 -1.4235  0.6677 -0.7943
  239MOL0     H31514   1.482  10.885   9.212 -0.0438  0.6269 -2.7593
  239MOL0     H31515   1.393  10.748   9.305 -2.9327  2.2267  1.8325
  239MOL0     H31516   1.260  10.900   9.339  3.6762  0.8584 -0.2347
  239MOL0     H31517   1.194  10.801   9.218  2.4400 -2.6215  1.1251
  239MOL0     H31518   1.331  11.079   9.131 -1.3896  1.5085 -0.3912
  239MOL0     H31519   1.155  11.046   9.164 -0.8446 -2.3463 -0.2153
  239MOL0     H31520   1.322  10.953   8.951 -0.5615  1.4537 -2.3349
  239MOL0     H31521   1.174  10.859   9.001 -1.1877  1.0976  0.3898
  239MOL0     H31522   1.128  11.012   8.805 -0.5947 -1.8119 -0.6541
  239MOL0     H31523   1.140  11.154   8.900  0.8498  0.0266  1.6138
  239MOL0     H31524   0.983  11.117   9.044  1.1844 -0.6486  0.4900
  239MOL0     H31525   0.963  10.943   9.028  1.6871  0.2669  0.7059
  239MOL0     H31526   0.858  11.167   8.864  1.3472 -1.5117 -4.3329
  239MOL0     H31527   0.864  11.018   8.786 -1.9789  2.8982 -1.6335
  239MOL0     H31528   0.645  11.051   8.891  0.1119 -1.1643 -0.8906
  239MOL0     H31529   0.720  11.062   9.053 -0.8742 -0.3878 -0.3276
  239MOL0     H31530   1.246  10.591   9.257 -0.7337  0.0525 -1.2754
  239MOL0     H31531   1.238  10.328   9.270  0.6162 -0.5962 -0.2920
  239MOL0     H31532   1.462   9.956   9.272 -0.3043 -0.0050 -0.1718
  239MOL0     H31533   1.475   9.712   9.312 -0.6285  0.9855  1.1577
  239MOL0     H31534   0.615  10.227   8.982 -0.7643 -0.8327 -0.1679
  239MOL0     H31535   0.401  10.353   9.084 -1.0955 -0.8316  0.1298
  239MOL0     H31536   0.082  10.263   9.459 -2.5074 -0.1744  0.7900
  239MOL0     H31537  -0.085  10.342   9.563 -2.0142  1.5225  0.5841
  239MOL0     H31538  -0.253  10.444   9.677 -0.8765  1.3101 -1.0451
  239MOL0     H31539  -0.306  10.580   9.765  1.6014  1.5519 -0.8706
  239MOL0     H31540  -0.218  10.391   9.916  0.9326 -0.4880  1.5741
  239MOL0     H31541  -0.056  10.447   9.870 -0.2341  2.0871  1.1589
  239MOL0     H31542  -0.190  10.687   9.934  1.2510  1.5274  0.2074
  239MOL0     H31543  -0.078  10.587  10.036 -1.0945  0.0240  0.1292
  239MOL0     H31544  -0.367  10.639  10.026  0.3055  0.3867  1.2844
  239MOL0     H31545  -0.349  10.473  10.068 -2.3395  0.7357 -1.5593
  239MOL0     H31546  -0.261  10.694  10.420 -0.3080 -0.1050  0.4121
  239MOL0     H31547   0.106  10.731   9.630  1.0827 -0.0449 -0.4163
  239MOL0     H31548   0.298  10.642   9.512  1.9713 -2.2455  0.3196
  240MOL0     O31549   9.624   9.298   9.144  0.9255 -0.0301  0.0687
  240MOL0     C31550   9.717   9.229   9.181 -0.1242 -0.1926  0.7998
  240MOL0     O31551   9.738   9.099   9.133  0.3396 -0.2186 -0.3614
  240MOL0     C31552   9.626   9.021   9.143  0.2779 -0.3259 -0.3174
  240MOL0     C31553   9.517   9.019   9.054 -0.3528  0.2522 -0.5990
  240MOL0     C31554   9.423   8.917   9.064  0.3546  0.1450  0.9025
  240MOL0     C31555   9.438   8.815   9.161  0.5672  0.4599 -0.0519
  240MOL0     O31556   9.343   8.725   9.191  0.7151 -0.8546  0.4150
  240MOL0     C31557   9.237   8.695   9.095 -0.8332 -0.3223  0.6313
  240MOL0     C31558   9.139   8.605   9.161  0.8670  0.6297  0.9051
  240MOL0     C31559   9.058   8.533   9.061 -0.9590  0.5474 -0.4816
  240MOL0     C31560   8.931   8.623   9.008 -0.6488  0.2207 -0.5281
  240MOL0     C31561   8.800   8.563   9.055 -0.2111 -0.0327 -0.1223
  240MOL0     C31562   8.673   8.640   9.019 -0.5988  0.1550  0.6238
  240MOL0     C31563   8.550   8.588   9.100 -0.4412  0.4144 -0.6870
  240MOL0     C31564   8.410   8.643   9.056 -0.9585  0.8665  0.4352
  240MOL0     N31565   8.363   8.550   8.949 -0.7258  0.2602  0.4364
  240MOL0     C31566   8.372   8.592   8.816 -0.0146 -0.3135  0.0708
  240MOL0     C31567   8.311   8.498   8.748 -0.3531  0.3046 -0.3017
  240MOL0     C31568   8.284   8.472   8.608 -0.4125 -0.1044  0.0423
  240MOL0     C31569   8.141   8.495   8.568 -0.3732 -0.3582  0.3982
  240MOL0     C31570   8.123   8.435   8.420 -0.2710  0.9020  0.0469
  240MOL0     C31571   7.984   8.471   8.355  0.0828 -0.5728 -0.0670
  240MOL0     O31572   8.020   8.594   8.302  0.9249  0.6223 -0.4589
  240MOL0     C31573   7.908   8.652   8.247 -0.9169 -0.0924  0.5027
  240MOL0     C31574   7.937   8.745   8.148 -0.7084  0.7889 -0.3332
  240MOL0     C31575   7.835   8.830   8.094  0.2311  0.2020 -0.5226
  240MOL0     C31576   7.692   8.807   8.111  0.1824  0.5901 -1.3935
  240MOL0     C31577   7.596   8.884   8.048  0.1154 -0.7005  0.2722
  240MOL0     O31578   7.632   8.945   7.926 -0.8686  1.2245  0.0070
  240MOL0     C31579   7.550   9.024   7.852  0.2211 -0.2745  0.2748
  240MOL0     C31580   7.451   9.110   7.916 -1.0302 -0.9124 -0.2551
  240MOL0     C31581   7.392   9.214   7.842 -0.7640  0.4167  0.5749
  240MOL0     C31582   7.408   9.218   7.700  0.1982 -0.0136 -0.3279
  240MOL0     O31583   7.339   9.303   7.616 -0.7000  0.1425  0.5201
  240MOL0     C31584   7.205   9.340   7.661 -0.0834  0.1991  0.4968
  240MOL0     C31585   7.128   9.421   7.562 -0.6916 -0.3307 -0.1715
  240MOL0     C31586   6.983   9.447   7.615 -0.9796 -0.5158 -0.0820
  240MOL0     C31587   6.923   9.568   7.541 -0.4377  1.0437 -0.3676
  240MOL0     C31588   6.770   9.584   7.571 -0.2140  0.3102  0.7926
  240MOL0     C31589   6.713   9.689   7.481 -0.6883  0.7898  0.1737
  240MOL0     C31590   6.763   9.824   7.520  0.7031 -0.4376  0.3101
  240MOL0     C31591   6.732   9.856   7.669  0.1201 -0.6504  0.4828
  240MOL0    Cl31592   6.566   9.808   7.721  0.0912 -0.0516 -0.3367
  240MOL0     C31593   7.500   9.135   7.642 -0.4915 -0.4141  1.1089
  240MOL0     C31594   7.571   9.037   7.718 -0.3723  0.8021  1.4642
  240MOL0     O31595   7.485   8.889   8.087 -0.7666  0.0770 -0.4237
  240MOL0     C31596   7.663   8.693   8.194  0.9089 -0.8413 -0.2897
  240MOL0     C31597   7.766   8.618   8.262 -0.4815  0.2182  0.6749
  240MOL0     N31598   8.270   8.404   8.840 -0.2144 -0.1004 -1.7178
  240MOL0     N31599   8.312   8.431   8.965  0.3172 -0.5533  0.6393
  240MOL0     C31600   9.551   8.812   9.239 -0.3156  0.7340 -0.2875
  240MOL0     C31601   9.642   8.918   9.230 -0.0361  0.2529 -0.1217
  240MOL0     C31602   9.806   9.285   9.289 -0.1946 -0.6471  0.3905
  240MOL0     C31603   9.897   9.204   9.353 -0.1933 -0.7455  1.0749
  240MOL0     C31604   9.964   9.253   9.468  0.3636 -1.1072 -0.9902
  240MOL0     C31605   9.932   9.380   9.517  0.2519 -0.8250 -0.1559
  240MOL0     O31606   9.974   9.423   9.644  0.3417 -0.5812  0.7187
  240MOL0     C31607   9.950   9.329   9.745 -0.4374 -0.3309 -0.4554
  240MOL0     C31608   9.898   9.397   9.874 -0.3935  0.3524  0.2531
  240MOL0     C31609   9.746   9.416   9.865 -1.2998  0.3288 -0.3827
  240MOL0     C31610   9.705   9.519   9.757  1.3903  0.1187 -0.8027
  240MOL0     C31611   9.559   9.552   9.765  0.4523  0.7892  0.2200
  240MOL0     C31612   9.434   9.556   9.757  0.0057  0.0519  0.1498
  240MOL0     C31613   9.833   9.461   9.454 -0.0312 -0.9853  0.1025
  240MOL0     C31614   9.768   9.414   9.344  0.1280  0.6578  0.2500
  240MOL0     H31615   9.501   9.102   8.986 -1.0120  1.2686  0.7579
  240MOL0     H31616   9.344   8.917   8.989  1.5932 -0.1256 -0.4510
  240MOL0     H31617   9.285   8.649   9.007 -0.5410 -1.7497  1.4990
  240MOL0     H31618   9.190   8.787   9.061  0.4605  0.9073  2.0402
  240MOL0     H31619   9.078   8.661   9.232 -0.5955 -1.9996  1.8590
  240MOL0     H31620   9.202   8.538   9.221  3.0402  2.6582  1.0478
  240MOL0     H31621   9.024   8.439   9.105  4.4178 -2.2090 -1.3079
  240MOL0     H31622   9.127   8.507   8.980 -1.0766 -1.3502 -0.0190
  240MOL0     H31623   8.944   8.714   9.068  0.1095 -3.0645  4.9633
  240MOL0     H31624   8.930   8.641   8.900 -1.4261 -0.3223 -0.6186
  240MOL0     H31625   8.809   8.561   9.164 -1.1788  2.3177  0.0653
  240MOL0     H31626   8.774   8.463   9.020  0.7314  0.0627 -1.1345
  240MOL0     H31627   8.662   8.631   8.911  1.7335  2.0052  0.1400
  240MOL0     H31628   8.682   8.747   9.039 -0.4074  0.4029 -0.6968
  240MOL0     H31629   8.560   8.479   9.090  1.6537  0.6791 -2.1634
  240MOL0     H31630   8.577   8.618   9.202  0.3582  0.6093 -0.9533
  240MOL0     H31631   8.434   8.739   9.009  0.6273 -0.2714 -1.2274
  240MOL0     H31632   8.342   8.661   9.140 -0.5003  2.9721  0.3960
  240MOL0     H31633   8.421   8.683   8.782 -0.4782 -0.5711 -1.3452
  240MOL0     H31634   8.311   8.366   8.604  2.4577  0.5027  0.5472
  240MOL0     H31635   8.345   8.531   8.539 -1.1373 -0.4919 -0.9424
  240MOL0     H31636   8.109   8.599   8.565 -3.0623 -1.1405 -0.7627
  240MOL0     H31637   8.073   8.443   8.636  1.4603 -2.1954  0.9440
  240MOL0     H31638   8.204   8.475   8.358 -0.3705  3.6321  1.5132
  240MOL0     H31639   8.134   8.328   8.436  0.7695  1.0752  0.6237
  240MOL0     H31640   7.914   8.479   8.439 -0.8224 -2.1665 -0.6179
  240MOL0     H31641   7.953   8.407   8.271 -0.1252  1.8081 -1.9294
  240MOL0     H31642   8.040   8.763   8.118  1.2726 -3.8634  2.5398
  240MOL0     H31643   7.866   8.911   8.028  1.0437  0.7219  0.4634
  240MOL0     H31644   7.447   9.105   8.025 -1.2308 -2.4872 -0.3108
  240MOL0     H31645   7.327   9.284   7.893  1.6764  1.7917  1.9864
  240MOL0     H31646   7.206   9.399   7.753 -5.1855  1.3314  0.1384
  240MOL0     H31647   7.146   9.252   7.689  2.1069 -1.2105  0.9458
  240MOL0     H31648   7.128   9.367   7.467  1.7827  0.6064 -0.7740
  240MOL0     H31649   7.177   9.517   7.542  0.4943 -0.0910  3.2563
  240MOL0     H31650   6.994   9.474   7.720  0.7803 -0.2181 -0.3048
  240MOL0     H31651   6.915   9.362   7.610 -0.2461 -1.3158  2.3354
  240MOL0     H31652   6.994   9.646   7.571  2.3537 -1.7384  0.7391
  240MOL0     H31653   6.918   9.551   7.433  0.9691 -2.4235 -0.0135
  240MOL0     H31654   6.749   9.594   7.678  3.4001 -2.8732  2.0763
  240MOL0     H31655   6.727   9.487   7.542  0.5099  1.4168 -5.3071
  240MOL0     H31656   6.606   9.675   7.500 -0.6058 -0.4874 -0.2169
  240MOL0     H31657   6.746   9.668   7.379  3.1301  2.5156  0.8628
  240MOL0     H31658   6.870   9.840   7.503  0.6226  0.3772  0.5348
  240MOL0     H31659   6.708   9.892   7.453  2.5142 -1.7519 -2.7226
  240MOL0     H31660   6.745   9.963   7.689  3.0417 -0.9864  0.7426
  240MOL0     H31661   6.794   9.808   7.745 -4.0608 -0.8796  4.1593
  240MOL0     H31662   7.518   9.159   7.538 -0.3800  0.9183  1.4166
  240MOL0     H31663   7.642   8.967   7.674  1.2996  1.6292  2.7396
  240MOL0     H31664   7.561   8.658   8.204  0.4495  0.7299  0.9357
  240MOL0     H31665   7.722   8.533   8.314 -1.8846  0.5889  0.1535
  240MOL0     H31666   9.571   8.742   9.319  0.7586  1.3677  0.0105
  240MOL0     H31667   9.730   8.920   9.294  0.8654 -1.5473 -1.2545
  240MOL0     H31668   9.915   9.110   9.302  0.2827 -0.0751 -0.0238
  240MOL0     H31669  10.024   9.180   9.521  1.9771  0.8185 -0.0557
  240MOL0     H31670  10.052   9.300   9.771  0.8279  1.8269 -2.6002
  240MOL0     H31671   9.879   9.254   9.708 -1.4847  0.0639  0.6752
  240MOL0     H31672   9.924   9.342   9.965 -1.6926  1.6981  1.4726
  240MOL0     H31673   9.959   9.486   9.890 -1.9180  1.8151 -1.6783
  240MOL0     H31674   9.704   9.459   9.957 -2.4230  1.1628 -1.2525
  240MOL0     H31675   9.690   9.322   9.855 -0.5962  0.0240 -1.5980
  240MOL0     H31676   9.776   9.603   9.756  2.2083 -0.5500 -0.5427
  240MOL0     H31677   9.696   9.470   9.660 -4.5669  2.5451 -1.8663
  240MOL0     H31678   9.327   9.570   9.761 -0.0026  0.7501 -1.6208
  240MOL0     H31679   9.819   9.562   9.490 -1.2266 -1.8302  2.1575
  240MOL0     H31680   9.685   9.471   9.303 -0.4550 -0.4711 -0.1755
  241MOL0     O31681   3.655   7.259   0.554 -0.2992 -0.1046  0.4773
  241MOL0     C31682   3.667   7.356   0.475  0.3234 -0.1583  0.3762
  241MOL0     O31683   3.717   7.338   0.347  0.4693 -0.8961  0.4305
  241MOL0     C31684   3.736   7.212   0.311  0.5441  0.3072  0.5084
  241MOL0     C31685   3.855   7.145   0.329  0.3966 -0.2665  0.3522
  241MOL0     C31686   3.864   7.011   0.280 -0.4026  0.2185  0.2600
  241MOL0     C31687   3.753   6.937   0.228 -0.2335  0.1099 -0.3026
  241MOL0     O31688   3.761   6.803   0.203  0.5949  0.0649  0.7790
  241MOL0     C31689   3.840   6.792   0.086  0.2000  0.6091  1.1001
  241MOL0     C31690   3.824   6.649   0.038  0.7558 -0.5649  0.5512
  241MOL0     C31691   3.853   6.629  -0.108  0.3351 -0.5184  0.4667
  241MOL0     C31692   3.826   6.475  -0.138 -0.9893 -0.4374 -0.4260
  241MOL0     C31693   3.949   6.387  -0.107 -0.6179 -0.2289 -0.0169
  241MOL0     C31694   4.061   6.396  -0.220 -0.1340 -0.0696  0.3778
  241MOL0     C31695   4.199   6.341  -0.185  0.2188 -0.2435  0.1597
  241MOL0     C31696   4.199   6.187  -0.204  0.0519 -1.0213 -0.3860
  241MOL0     N31697   4.148   6.117  -0.085  0.1895  0.7291 -0.0136
  241MOL0     C31698   4.199   6.114   0.038 -0.3796  0.2630  0.8904
  241MOL0     C31699   4.149   6.012   0.107 -0.5112  1.3206 -0.0640
  241MOL0     C31700   4.142   5.995   0.258 -0.0105  0.0610  0.1688
  241MOL0     C31701   4.275   5.980   0.318  0.0096  0.2089 -0.3929
  241MOL0     C31702   4.345   5.850   0.279 -0.9057  0.1216  0.8502
  241MOL0     C31703   4.473   5.825   0.373  0.2858 -1.1240 -0.1121
  241MOL0     O31704   4.441   5.828   0.513  0.0492  0.0244 -0.2167
  241MOL0     C31705   4.505   5.920   0.591  0.1552 -0.3735  0.4646
  241MOL0     C31706   4.437   6.015   0.666  0.1144  0.3959  0.3238
  241MOL0     C31707   4.510   6.100   0.740 -0.6459 -0.3086  0.1380
  241MOL0     C31708   4.648   6.081   0.761 -0.3370  0.1565 -0.0224
  241MOL0     C31709   4.713   6.161   0.868  0.4676  1.2339  1.4695
  241MOL0     O31710   4.651   6.176   0.984  0.2656 -0.5546 -0.5866
  241MOL0     C31711   4.722   6.225   1.087  0.6933  0.9555  0.5706
  241MOL0     C31712   4.745   6.361   1.095 -0.7041 -0.1142  1.1148
  241MOL0     C31713   4.810   6.423   1.207 -0.1063  0.0851  1.4681
  241MOL0     C31714   4.846   6.343   1.315 -0.7578 -0.3083 -0.8482
  241MOL0     O31715   4.908   6.388   1.425 -0.3614 -1.1238 -0.2007
  241MOL0     C31716   4.972   6.521   1.412 -1.4124  0.1151 -0.2842
  241MOL0     C31717   5.079   6.526   1.539  0.2167  0.0180  1.0628
  241MOL0     C31718   5.190   6.622   1.497 -0.7316  0.0340 -1.3887
  241MOL0     C31719   5.127   6.769   1.484  0.4156  0.2316 -0.0954
  241MOL0     C31720   5.242   6.870   1.451  0.3871 -0.9397 -0.6982
  241MOL0     C31721   5.172   7.006   1.423 -0.2228  0.1300  0.9116
  241MOL0     C31722   5.272   7.114   1.457  1.0525  0.1885  0.0108
  241MOL0     C31723   5.219   7.259   1.424  1.3729 -0.4567  0.4658
  241MOL0    Cl31724   5.345   7.377   1.470  0.6490  0.4903 -0.1556
  241MOL0     C31725   4.822   6.207   1.309 -0.3286 -0.0795 -0.4275
  241MOL0     C31726   4.776   6.149   1.191  1.6004 -0.4096 -0.5055
  241MOL0     O31727   4.821   6.217   0.837 -0.1236 -0.9227  0.3484
  241MOL0     C31728   4.718   5.983   0.686 -0.0465 -0.6583  0.0180
  241MOL0     C31729   4.643   5.903   0.597  1.1138 -0.2002  0.1053
  241MOL0     N31730   4.063   5.942   0.024 -0.2343 -0.7772  0.5651
  241MOL0     N31731   4.070   6.007  -0.093 -0.7208 -0.3544 -0.2194
  241MOL0     C31732   3.626   7.013   0.210 -0.8021 -1.1410 -0.4219
  241MOL0     C31733   3.624   7.148   0.250 -0.6191 -0.6246  0.3656
  241MOL0     C31734   3.631   7.493   0.521 -0.5304  0.9836  0.1154
  241MOL0     C31735   3.659   7.593   0.439  0.4766 -0.1867 -0.0254
  241MOL0     C31736   3.636   7.726   0.469  0.9260 -0.9296 -0.3392
  241MOL0     C31737   3.565   7.756   0.587 -0.5520  0.3870  1.2011
  241MOL0     O31738   3.550   7.891   0.612 -0.7270 -0.1635  0.8066
  241MOL0     C31739   3.458   7.946   0.713  0.3067  0.1422 -0.0096
  241MOL0     C31740   3.313   7.918   0.671  0.9139  0.1126 -0.6822
  241MOL0     C31741   3.294   7.968   0.530 -1.0452 -0.1090  0.6219
  241MOL0     C31742   3.267   8.119   0.528 -0.1390  0.2819  0.7111
  241MOL0     C31743   3.186   8.153   0.405 -1.3079  0.3518 -0.4978
  241MOL0     C31744   3.137   8.193   0.305 -0.0626  0.2449 -0.0667
  241MOL0     C31745   3.528   7.646   0.666 -0.2599  0.1042  0.2980
  241MOL0     C31746   3.558   7.507   0.635 -0.4461  0.3145  0.7801
  241MOL0     H31747   3.932   7.193   0.389 -1.7665  0.3132  2.8292
  241MOL0     H31748   3.955   6.958   0.306 -0.1124  1.6639  2.5219
  241MOL0     H31749   3.944   6.815   0.109  1.2955 -3.8778  1.6152
  241MOL0     H31750   3.802   6.860   0.009  0.3829 -0.9003 -0.3682
  241MOL0     H31751   3.720   6.620   0.055  0.9442 -1.0201  0.9638
  241MOL0     H31752   3.897   6.590   0.095  2.1311 -1.8434 -2.3521
  241MOL0     H31753   3.943   6.673  -0.151 -1.2218  1.5894 -0.8020
  241MOL0     H31754   3.781   6.693  -0.159 -0.2000 -0.9032  0.7240
  241MOL0     H31755   3.736   6.438  -0.086 -0.6685 -0.4134  0.1540
  241MOL0     H31756   3.804   6.477  -0.245 -1.2929  1.8665 -0.3602
  241MOL0     H31757   3.912   6.287  -0.085  0.1619 -0.1599  1.8141
  241MOL0     H31758   4.002   6.427  -0.020  1.7915  1.3687 -2.0688
  241MOL0     H31759   4.083   6.501  -0.240 -3.2002  0.8076  1.0650
  241MOL0     H31760   4.027   6.366  -0.319  4.7235  2.4247 -2.4388
  241MOL0     H31761   4.272   6.377  -0.259 -0.0414  0.8433  0.4185
  241MOL0     H31762   4.235   6.366  -0.085 -1.2962 -2.4408  1.3255
  241MOL0     H31763   4.306   6.166  -0.210 -0.2025 -2.3535 -0.6500
  241MOL0     H31764   4.151   6.163  -0.299  0.4864 -1.7293 -0.4332
  241MOL0     H31765   4.255   6.198   0.078 -2.6565  1.1988  2.3324
  241MOL0     H31766   4.071   5.924   0.302  0.2790 -0.6159 -0.4509
  241MOL0     H31767   4.106   6.092   0.294  0.0202  0.6495 -1.3227
  241MOL0     H31768   4.264   5.986   0.426 -5.6900  1.9682 -0.7313
  241MOL0     H31769   4.345   6.064   0.307 -1.2839  1.3025 -0.5491
  241MOL0     H31770   4.286   5.759   0.294  0.7179 -0.7269  2.6023
  241MOL0     H31771   4.383   5.852   0.177  1.0630 -0.8002  1.5172
  241MOL0     H31772   4.551   5.901   0.365 -0.6966  0.1389  1.6649
  241MOL0     H31773   4.512   5.725   0.351 -0.7932 -2.5190  3.5701
  241MOL0     H31774   4.330   6.026   0.678  0.3473  0.5785  2.9969
  241MOL0     H31775   4.447   6.171   0.794 -0.2458 -0.3924  0.7217
  241MOL0     H31776   4.708   6.437   1.027  1.3708  0.5978  0.6991
  241MOL0     H31777   4.821   6.531   1.200 -0.7619  0.0517 -2.1798
  241MOL0     H31778   4.907   6.609   1.409 -1.3169  0.2778  1.4272
  241MOL0     H31779   5.024   6.517   1.316 -0.8312 -1.4542  0.0554
  241MOL0     H31780   5.127   6.429   1.554  1.2690  0.1971 -0.8500
  241MOL0     H31781   5.025   6.560   1.628 -0.7215 -0.4524  0.6881
  241MOL0     H31782   5.242   6.588   1.407  2.6784 -1.1276  0.8013
  241MOL0     H31783   5.260   6.636   1.580  0.4767  2.3637 -2.6756
  241MOL0     H31784   5.049   6.779   1.408 -0.1496  1.0110  0.5662
  241MOL0     H31785   5.081   6.791   1.581 -1.7712  0.9298 -1.2317
  241MOL0     H31786   5.301   6.824   1.371  3.3788 -0.6658  1.2134
  241MOL0     H31787   5.308   6.881   1.537 -2.6665 -2.0513  1.9811
  241MOL0     H31788   5.087   7.023   1.490 -1.2039  1.3476 -0.5606
  241MOL0     H31789   5.126   7.025   1.325 -0.5481  3.2506  1.5414
  241MOL0     H31790   5.302   7.105   1.562  3.1658 -2.1967 -0.7078
  241MOL0     H31791   5.369   7.105   1.408  2.1018  0.7151  1.8769
  241MOL0     H31792   5.123   7.281   1.473  1.3583 -0.6376  0.5199
  241MOL0     H31793   5.186   7.276   1.321 -1.4392 -2.1648  0.9495
  241MOL0     H31794   4.850   6.138   1.389 -0.3567  4.2798  3.8384
  241MOL0     H31795   4.755   6.042   1.192  0.2799 -0.1658  0.8945
  241MOL0     H31796   4.825   5.978   0.698  0.2269  1.8814 -0.6771
  241MOL0     H31797   4.699   5.828   0.542  2.3217  2.5290 -2.7096
  241MOL0     H31798   3.543   6.954   0.172  0.1795 -1.4463 -2.2144
  241MOL0     H31799   3.536   7.205   0.221  0.2807 -0.0019 -1.2379
  241MOL0     H31800   3.688   7.585   0.334 -1.0582  2.6223 -0.7551
  241MOL0     H31801   3.673   7.809   0.409  1.0510 -2.2317 -2.1522
  241MOL0     H31802   3.465   8.055   0.717 -3.1810  0.5273 -0.8938
  241MOL0     H31803   3.474   7.898   0.810 -1.9088 -2.0115 -0.6098
  241MOL0     H31804   3.285   7.813   0.680 -3.9341  1.0711 -2.0916
  241MOL0     H31805   3.240   7.965   0.737  0.4387 -3.8633  1.9173
  241MOL0     H31806   3.212   7.912   0.483 -0.4787  0.1922 -0.7741
  241MOL0     H31807   3.375   7.942   0.461 -2.4224  0.0548 -1.1532
  241MOL0     H31808   3.207   8.152   0.613 -0.4033  1.5237  0.0741
  241MOL0     H31809   3.357   8.180   0.526  0.4295 -0.5208 -1.9126
  241MOL0     H31810   3.109   8.209   0.203  1.5992 -2.7036 -1.1196
  241MOL0     H31811   3.478   7.660   0.761 -0.7433 -1.1589  0.2523
  241MOL0     H31812   3.519   7.428   0.697  1.0437  0.3986  1.8956
  242MOL0     O31813   8.188   6.483   1.783  0.2190  0.2990  0.0444
  242MOL0     C31814   8.191   6.375   1.728  0.0622  0.0631 -0.6513
  242MOL0     O31815   8.076   6.303   1.689 -0.8303 -0.1012 -0.4908
  242MOL0     C31816   7.942   6.347   1.711 -0.2144 -0.3772  0.2276
  242MOL0     C31817   7.856   6.253   1.736  0.8210  0.6732 -0.1728
  242MOL0     C31818   7.724   6.287   1.743 -0.2371 -0.6703 -0.1896
  242MOL0     C31819   7.670   6.419   1.740  0.0459  0.0105  0.6149
  242MOL0     O31820   7.536   6.429   1.786 -0.2049 -0.1526 -0.8552
  242MOL0     C31821   7.487   6.563   1.816  0.6942  0.3011 -0.4156
  242MOL0     C31822   7.341   6.549   1.795  0.7793  0.0599  0.3109
  242MOL0     C31823   7.266   6.676   1.826 -0.2560 -0.7842 -0.5649
  242MOL0     C31824   7.124   6.686   1.782 -0.1719  1.5189  0.2878
  242MOL0     C31825   7.072   6.825   1.788  0.2454 -0.0429  0.1549
  242MOL0     C31826   6.939   6.837   1.727  0.0526  0.1966  0.8517
  242MOL0     C31827   6.855   6.959   1.772  0.6406 -0.0427 -0.0775
  242MOL0     C31828   6.714   6.949   1.713 -1.6105 -1.4706  0.1150
  242MOL0     N31829   6.720   7.024   1.578 -0.3922  0.1960 -0.7239
  242MOL0     C31830   6.716   6.973   1.447 -0.8915  0.1078  0.4832
  242MOL0     C31831   6.694   7.079   1.365  0.9522  0.3511  0.6682
  242MOL0     C31832   6.692   7.062   1.220 -0.3008 -1.1450  0.6648
  242MOL0     C31833   6.641   6.933   1.155  0.1402  0.4125 -0.5690
  242MOL0     C31834   6.674   6.930   1.003  0.0799 -0.1984 -0.4714
  242MOL0     C31835   6.605   6.815   0.926 -0.2265 -0.0884  0.2535
  242MOL0     O31836   6.650   6.689   0.978 -0.0068  0.4684 -0.4462
  242MOL0     C31837   6.580   6.571   0.948 -0.6116 -0.5792  0.9249
  242MOL0     C31838   6.634   6.453   0.992 -0.4271  1.6720 -0.2510
  242MOL0     C31839   6.582   6.322   0.967  0.6919  0.3485 -0.2261
  242MOL0     C31840   6.480   6.319   0.872  0.0968  0.2878 -1.1885
  242MOL0     C31841   6.445   6.200   0.794 -0.0556  0.8463 -0.0389
  242MOL0     O31842   6.320   6.192   0.742 -0.0610  0.6222  1.0768
  242MOL0     C31843   6.282   6.114   0.637  0.5549  0.2070  0.2471
  242MOL0     C31844   6.160   6.154   0.576 -0.6097  0.8302 -0.1793
  242MOL0     C31845   6.108   6.095   0.462  0.6272 -0.5241 -0.1755
  242MOL0     C31846   6.170   5.983   0.414  1.6323  0.0862 -1.3861
  242MOL0     O31847   6.138   5.898   0.317  0.4208 -0.0714  0.6983
  242MOL0     C31848   6.003   5.855   0.294 -0.8498 -0.4779 -0.5777
  242MOL0     C31849   5.977   5.722   0.371  0.3052 -0.2678  0.4784
  242MOL0     C31850   5.879   5.627   0.298  0.2924 -0.1215  0.4440
  242MOL0     C31851   5.730   5.643   0.349 -0.7941  0.0744 -0.7236
  242MOL0     C31852   5.711   5.794   0.363  0.7324  1.0500 -0.4237
  242MOL0     C31853   5.553   5.810   0.391 -0.5855  0.1133 -0.4269
  242MOL0     C31854   5.506   5.953   0.378  0.7526  0.7800  0.0351
  242MOL0     C31855   5.583   6.059   0.454 -0.6314 -0.4856  0.7142
  242MOL0    Cl31856   5.594   6.030   0.637 -0.2194 -0.4404  0.4572
  242MOL0     C31857   6.301   5.956   0.461  0.6335 -0.1519  1.1422
  242MOL0     C31858   6.353   6.013   0.577  0.2924  0.4037  1.1085
  242MOL0     O31859   6.536   6.123   0.765  0.5879  0.5952 -0.1195
  242MOL0     C31860   6.419   6.443   0.839  0.3450 -0.3212  0.5668
  242MOL0     C31861   6.458   6.568   0.878  0.6086  0.4904  0.3446
  242MOL0     N31862   6.699   7.194   1.446  0.2925 -0.2393  0.2982
  242MOL0     N31863   6.713   7.160   1.568  0.9393  0.2761  0.3347
  242MOL0     C31864   7.769   6.513   1.717 -0.9842 -1.3834  0.3653
  242MOL0     C31865   7.905   6.481   1.708  0.8912 -0.0725  0.8115
  242MOL0     C31866   8.328   6.321   1.709 -0.1171 -0.1315  0.1573
  242MOL0     C31867   8.351   6.196   1.651 -0.1926  0.4231  1.8093
  242MOL0     C31868   8.482   6.144   1.620  0.6866 -0.3195  0.6951
  242MOL0     C31869   8.589   6.231   1.661 -0.4444  0.3559  0.3450
  242MOL0     O31870   8.717   6.195   1.674 -0.1404 -0.2017 -0.3042
  242MOL0     C31871   8.778   6.072   1.619 -0.2208  0.3378  0.3837
  242MOL0     C31872   8.797   6.067   1.466  0.3098 -0.0544  0.7215
  242MOL0     C31873   8.881   5.949   1.417  0.0528  0.0554  0.5504
  242MOL0     C31874   8.859   5.945   1.268  0.3375  0.0333 -0.2397
  242MOL0     C31875   8.932   5.839   1.200  1.1440 -0.5466  0.8621
  242MOL0     C31876   8.990   5.748   1.147  0.6051 -0.1559  0.0527
  242MOL0     C31877   8.568   6.352   1.721  0.6883  0.6530 -0.5433
  242MOL0     C31878   8.442   6.393   1.757 -0.6652 -0.2607 -0.8653
  242MOL0     H31879   7.874   6.147   1.754 -0.8012  0.1954 -1.1656
  242MOL0     H31880   7.655   6.207   1.764 -1.1127  0.2060  0.3722
  242MOL0     H31881   7.530   6.636   1.748  1.1065  2.4428  1.9965
  242MOL0     H31882   7.498   6.586   1.922 -2.4989 -3.5296  1.0167
  242MOL0     H31883   7.293   6.472   1.857  1.9257 -0.8507  0.0939
  242MOL0     H31884   7.318   6.528   1.690 -1.5550 -2.2028  1.1544
  242MOL0     H31885   7.316   6.759   1.776  0.6255 -0.3038  1.0716
  242MOL0     H31886   7.265   6.677   1.935 -2.7602  2.2734 -0.4752
  242MOL0     H31887   7.122   6.657   1.677 -1.0281 -1.0628  0.9487
  242MOL0     H31888   7.069   6.606   1.831  2.8508 -0.7086  0.3222
  242MOL0     H31889   7.134   6.902   1.742 -3.4706  0.8786 -3.9775
  242MOL0     H31890   7.067   6.843   1.896 -0.4493  2.4016 -0.2246
  242MOL0     H31891   6.882   6.746   1.750 -0.8708  0.6538  0.4313
  242MOL0     H31892   6.949   6.848   1.618  1.2729  0.6009  0.9840
  242MOL0     H31893   6.847   6.946   1.880  0.1170 -3.1858 -0.3895
  242MOL0     H31894   6.899   7.051   1.733  2.0424 -0.7522 -0.2203
  242MOL0     H31895   6.644   6.994   1.785  0.7161  3.8709 -0.4437
  242MOL0     H31896   6.693   6.843   1.699  4.5083 -2.6796 -3.2488
  242MOL0     H31897   6.717   6.866   1.432  2.2664  0.2458 -1.0035
  242MOL0     H31898   6.795   7.077   1.189 -1.3966  3.1142 -1.7137
  242MOL0     H31899   6.638   7.148   1.180  0.2017 -1.8288 -1.6362
  242MOL0     H31900   6.536   6.925   1.185  1.2910 -2.9966  3.4810
  242MOL0     H31901   6.683   6.839   1.192 -1.7611 -0.3378 -0.2023
  242MOL0     H31902   6.650   7.021   0.946 -0.7171 -0.7466 -1.0347
  242MOL0     H31903   6.781   6.909   0.998  0.0354 -1.2537  1.7299
  242MOL0     H31904   6.620   6.810   0.818 -0.0654 -0.2090  0.2821
  242MOL0     H31905   6.498   6.830   0.944 -0.4844  1.9654 -2.3072
  242MOL0     H31906   6.726   6.454   1.050  1.2727  0.2614 -2.7758
  242MOL0     H31907   6.626   6.234   1.013  0.0503  1.3985  2.6232
  242MOL0     H31908   6.121   6.241   0.629 -1.8388  1.4540 -2.0242
  242MOL0     H31909   6.014   6.129   0.421  0.7391 -0.3386 -0.2835
  242MOL0     H31910   5.997   5.849   0.185  2.6571  2.0746 -1.0806
  242MOL0     H31911   5.933   5.927   0.336  0.5309  0.3837  0.3101
  242MOL0     H31912   5.948   5.740   0.475 -2.2024 -1.9134  0.1380
  242MOL0     H31913   6.074   5.672   0.384  1.1535  1.3713  0.8116
  242MOL0     H31914   5.907   5.522   0.311 -0.7839 -0.2484  1.9521
  242MOL0     H31915   5.886   5.648   0.191  1.1659 -2.7545 -0.1018
  242MOL0     H31916   5.680   5.594   0.265  2.0054 -0.9185 -1.9586
  242MOL0     H31917   5.698   5.605   0.447 -0.6621 -2.6182 -1.6223
  242MOL0     H31918   5.734   5.849   0.271 -4.2098 -1.0827 -3.3664
  242MOL0     H31919   5.749   5.828   0.459  2.5592 -0.6335 -0.4770
  242MOL0     H31920   5.522   5.774   0.489  0.3619  1.8145  0.5679
  242MOL0     H31921   5.500   5.745   0.322  0.2984  0.5546 -1.5536
  242MOL0     H31922   5.510   5.977   0.271  0.8365  0.7004  0.0208
  242MOL0     H31923   5.400   5.958   0.404  0.7258  1.9124 -0.2482
  242MOL0     H31924   5.540   6.156   0.427  1.1023  0.9181  2.6558
  242MOL0     H31925   5.685   6.051   0.414  0.1974  1.6494  2.2545
  242MOL0     H31926   6.357   5.872   0.421 -0.3423  0.5555 -1.9874
  242MOL0     H31927   6.453   5.984   0.610  1.3900  2.4934 -0.1829
  242MOL0     H31928   6.342   6.434   0.763  0.0136  0.2344  0.8310
  242MOL0     H31929   6.409   6.650   0.827 -1.5825 -0.9519 -0.0091
  242MOL0     H31930   7.736   6.616   1.728 -1.3127 -1.5570  1.0521
  242MOL0     H31931   7.983   6.551   1.681 -1.2432  1.8864 -0.6155
  242MOL0     H31932   8.270   6.141   1.605 -0.8873  1.0164  2.2970
  242MOL0     H31933   8.508   6.052   1.569  1.1491  0.3050 -0.2230
  242MOL0     H31934   8.727   5.977   1.636  2.3085 -1.1294  0.3002
  242MOL0     H31935   8.875   6.058   1.668 -0.7726 -1.5945  1.0229
  242MOL0     H31936   8.698   6.075   1.422  0.6813  3.8917  0.2723
  242MOL0     H31937   8.849   6.160   1.443 -1.5523  0.8933  0.1929
  242MOL0     H31938   8.849   5.853   1.457 -2.1490  0.6919  0.4842
  242MOL0     H31939   8.987   5.956   1.441 -0.0001 -1.4113  1.2620
  242MOL0     H31940   8.754   5.915   1.264  0.4238 -0.6729  1.6145
  242MOL0     H31941   8.877   6.044   1.224  1.1236 -0.2414 -0.5477
  242MOL0     H31942   9.043   5.657   1.127  1.4715  0.6995 -1.8394
  242MOL0     H31943   8.644   6.419   1.761  0.9061  0.2831 -0.3203
  242MOL0     H31944   8.417   6.489   1.802  0.9725  0.3515 -1.1740
  243MOL0     O31945   1.004   4.949   4.932 -0.5114 -0.1105 -0.3324
  243MOL0     C31946   0.942   5.041   4.875 -0.6933 -0.6834  0.4576
  243MOL0     O31947   0.922   5.045   4.743 -0.4206 -0.1529  0.3667
  243MOL0     C31948   0.952   4.951   4.644 -1.2850 -0.2637 -0.1528
  243MOL0     C31949   0.982   4.995   4.516  0.6448  0.0362  0.2581
  243MOL0     C31950   1.021   4.914   4.408  1.3556  0.5909  0.5546
  243MOL0     C31951   1.029   4.775   4.440 -0.2981 -0.0385 -0.4188
  243MOL0     O31952   1.049   4.693   4.335 -0.3993  0.6056  0.7244
  243MOL0     C31953   1.006   4.550   4.334  0.1155 -1.2992  0.6449
  243MOL0     C31954   1.048   4.482   4.198  0.2708 -0.1716 -0.5848
  243MOL0     C31955   0.957   4.556   4.096  0.4483 -0.9629  0.5915
  243MOL0     C31956   0.803   4.542   4.090  0.5671  0.2617  1.1034
  243MOL0     C31957   0.741   4.581   3.954  0.2163 -0.0435 -0.1001
  243MOL0     C31958   0.595   4.633   3.985 -0.1599 -0.3112 -0.5060
  243MOL0     C31959   0.512   4.606   3.858 -0.7817 -0.8965 -0.4058
  243MOL0     C31960   0.363   4.611   3.889  0.9229 -0.2397  0.3727
  243MOL0     N31961   0.278   4.601   3.770 -0.3544  0.6938  0.6897
  243MOL0     C31962   0.301   4.612   3.636 -0.0642  0.1778 -0.1585
  243MOL0     C31963   0.188   4.593   3.573  0.3107  0.1661  0.1142
  243MOL0     C31964   0.163   4.599   3.427 -0.5187  0.4209  1.1361
  243MOL0     C31965   0.202   4.732   3.370  0.3128 -0.0974  0.1561
  243MOL0     C31966   0.207   4.733   3.215 -0.7845  1.0934  0.5440
  243MOL0     C31967   0.073   4.705   3.145 -0.2591  0.1989  0.5801
  243MOL0     O31968   0.042   4.567   3.132  0.8304  0.8871  0.0319
  243MOL0     C31969   0.087   4.490   3.029 -0.1851  0.1188 -0.5017
  243MOL0     C31970   0.037   4.356   3.022 -0.1779 -0.1845 -0.1326
  243MOL0     C31971   0.061   4.283   2.901  1.4682 -0.7091 -0.6468
  243MOL0     C31972   0.153   4.334   2.804 -0.0224  0.4806  0.2817
  243MOL0     C31973   0.174   4.263   2.669 -0.0908 -0.0373 -0.2240
  243MOL0     O31974   0.098   4.148   2.646  0.0258 -0.0049  1.0837
  243MOL0     C31975   0.071   4.090   2.519 -0.2751  0.8466  0.4883
  243MOL0     C31976   0.078   4.155   2.387  0.1573  0.4960 -0.8312
  243MOL0     C31977   0.069   4.098   2.267  0.8039 -0.8940 -0.2873
  243MOL0     C31978   0.045   3.964   2.259 -0.1464 -0.1093  0.4542
  243MOL0     O31979   0.041   3.906   2.130 -0.6060 -0.2505 -0.8274
  243MOL0     C31980   0.045   3.765   2.122  0.3313 -0.5945 -0.2234
  243MOL0     C31981   0.020   3.730   1.977  0.1089  0.1169  0.2053
  243MOL0     C31982   0.158   3.719   1.913 -0.3591  0.1658  0.9695
  243MOL0     C31983   0.148   3.744   1.756  0.3592  0.4527 -0.2137
  243MOL0     C31984   0.266   3.809   1.688  0.4715  0.2556 -0.1943
  243MOL0     C31985   0.225   3.877   1.554  1.1635 -0.1936  0.0145
  243MOL0     C31986   0.354   3.936   1.490 -0.8665 -0.0436  0.7076
  243MOL0     C31987   0.312   4.061   1.406 -0.9677  0.3632  0.0760
  243MOL0    Cl31988   0.229   4.194   1.509 -0.1849  0.3434  0.2984
  243MOL0     C31989   0.034   3.894   2.384 -0.4902  0.3561 -0.5030
  243MOL0     C31990   0.049   3.956   2.511  0.1363  0.7096  0.4239
  243MOL0     O31991   0.257   4.301   2.586 -0.5235  0.0089  0.3865
  243MOL0     C31992   0.213   4.460   2.822  0.4003 -0.1793 -0.6495
  243MOL0     C31993   0.177   4.541   2.930 -0.2550  0.1962 -0.0508
  243MOL0     N31994   0.105   4.552   3.676 -0.6922 -0.3748  0.0279
  243MOL0     N31995   0.159   4.551   3.792  1.1649 -0.3199  0.7379
  243MOL0     C31996   1.006   4.729   4.570 -1.0164  0.8545  0.4315
  243MOL0     C31997   0.983   4.813   4.679  1.6473 -0.0194  0.6095
  243MOL0     C31998   0.905   5.170   4.952 -0.3038  0.1764 -0.8489
  243MOL0     C31999   0.894   5.159   5.089  0.2418 -0.2999  0.1743
  243MOL0     C32000   0.853   5.279   5.156 -0.8882 -0.0617  0.5312
  243MOL0     C32001   0.826   5.397   5.085  0.4601  0.8009  1.4768
  243MOL0     O32002   0.799   5.497   5.162  0.3853 -0.3601 -0.1914
  243MOL0     C32003   0.804   5.637   5.124 -0.0983 -0.1823  0.8955
  243MOL0     C32004   0.679   5.671   5.045 -0.1345 -0.0541 -0.2021
  243MOL0     C32005   0.675   5.824   4.991 -0.2671  0.7142 -0.6074
  243MOL0     C32006   0.559   5.852   4.909 -0.8251 -0.0785 -0.2238
  243MOL0     C32007   0.554   5.997   4.877  0.3647 -0.1903  0.1772
  243MOL0     C32008   0.548   6.115   4.881  0.2744 -0.1006  0.0369
  243MOL0     C32009   0.839   5.394   4.943 -1.6692  0.4574  0.4187
  243MOL0     C32010   0.882   5.286   4.876  0.6409 -0.3431  0.0154
  243MOL0     H32011   0.962   5.101   4.502  0.1208 -0.3365 -2.2853
  243MOL0     H32012   1.051   4.959   4.314  2.6021 -2.2555 -0.5503
  243MOL0     H32013   0.900   4.527   4.352 -0.7860  1.0943 -1.0568
  243MOL0     H32014   1.057   4.505   4.419  1.2982 -1.2432 -0.0039
  243MOL0     H32015   1.044   4.375   4.216 -0.7789  0.3331  2.7364
  243MOL0     H32016   1.153   4.511   4.185  0.2395  2.8758  3.8266
  243MOL0     H32017   0.983   4.512   3.999 -0.7954  0.0873 -0.2436
  243MOL0     H32018   0.986   4.662   4.096 -1.2336 -0.4131 -1.8044
  243MOL0     H32019   0.774   4.437   4.101  0.9490 -0.4061 -2.8401
  243MOL0     H32020   0.757   4.600   4.170  0.8989  0.7872  0.9194
  243MOL0     H32021   0.739   4.501   3.880 -0.7447 -0.9627  0.8905
  243MOL0     H32022   0.784   4.667   3.901 -2.9792  0.4663 -2.1465
  243MOL0     H32023   0.601   4.735   4.024  2.5732 -0.8777  0.7612
  243MOL0     H32024   0.561   4.568   4.066  1.3528  0.3530  0.7130
  243MOL0     H32025   0.520   4.688   3.786  0.1596 -1.0124 -0.4460
  243MOL0     H32026   0.531   4.507   3.817 -1.3461  0.2455 -3.7364
  243MOL0     H32027   0.344   4.707   3.938 -0.3273 -0.9900  1.4186
  243MOL0     H32028   0.329   4.541   3.966 -1.8748  1.6743  1.0031
  243MOL0     H32029   0.400   4.624   3.593 -0.0275  0.2342 -0.0593
  243MOL0     H32030   0.058   4.579   3.409  0.0895  0.7816 -4.7235
  243MOL0     H32031   0.223   4.521   3.378  0.3604 -0.6184  3.7046
  243MOL0     H32032   0.298   4.766   3.410  1.2852 -1.7517 -0.6695
  243MOL0     H32033   0.123   4.805   3.389  1.5370  1.5567 -0.9281
  243MOL0     H32034   0.241   4.830   3.177 -2.2223  1.4087  0.0261
  243MOL0     H32035   0.283   4.660   3.185 -1.4454  1.1941 -1.4756
  243MOL0     H32036   0.092   4.743   3.044 -0.7666 -0.9987  0.0144
  243MOL0     H32037  -0.007   4.765   3.189 -0.7816  1.1453 -1.5262
  243MOL0     H32038  -0.028   4.330   3.104  0.1721  1.9851  0.9102
  243MOL0     H32039   0.014   4.190   2.873  1.4208  0.0596 -3.3781
  243MOL0     H32040   0.083   4.264   2.381  1.0109  0.6871  1.9548
  243MOL0     H32041   0.087   4.159   2.179 -0.5149  0.7786  0.5498
  243MOL0     H32042  -0.032   3.728   2.191 -1.6426  0.0934 -1.9490
  243MOL0     H32043   0.145   3.728   2.147  1.4452  2.3179  0.0824
  243MOL0     H32044  -0.046   3.796   1.920 -1.2223 -1.5593 -0.2858
  243MOL0     H32045  -0.026   3.631   1.967  2.6774 -1.2072  0.7495
  243MOL0     H32046   0.203   3.623   1.941 -2.2533 -0.3515  2.4922
  243MOL0     H32047   0.216   3.799   1.959  0.3952 -1.2390  2.5431
  243MOL0     H32048   0.118   3.656   1.698 -3.2270  0.3298  1.5697
  243MOL0     H32049   0.071   3.820   1.739 -0.3109  0.0595  0.9739
  243MOL0     H32050   0.338   3.727   1.679 -4.0168 -4.1772  0.0073
  243MOL0     H32051   0.313   3.887   1.748  0.8329 -2.1926  2.9914
  243MOL0     H32052   0.144   3.948   1.571  1.3649  0.8083 -2.7041
  243MOL0     H32053   0.182   3.803   1.485 -1.2288 -1.5914  2.8148
  243MOL0     H32054   0.430   3.952   1.567 -0.2815 -2.7587  0.7892
  243MOL0     H32055   0.408   3.869   1.423  0.2356  0.9604  0.5580
  243MOL0     H32056   0.233   4.016   1.346 -0.8437 -0.3967  0.4695
  243MOL0     H32057   0.402   4.087   1.350 -0.5463 -2.9502 -1.0023
  243MOL0     H32058   0.011   3.788   2.384 -1.0061  0.1683  5.1497
  243MOL0     H32059   0.038   3.894   2.599 -2.3031 -1.1279 -1.0541
  243MOL0     H32060   0.280   4.505   2.749  0.2333  1.3899  0.1243
  243MOL0     H32061   0.216   4.642   2.930  1.1451 -0.3261 -0.6864
  243MOL0     H32062   1.009   4.622   4.587 -1.8682  0.4807 -1.4498
  243MOL0     H32063   0.957   4.762   4.771 -0.5834 -2.3743 -1.1847
  243MOL0     H32064   0.908   5.070   5.150 -2.2307 -0.6888  0.2545
  243MOL0     H32065   0.842   5.285   5.264  3.0035 -0.0939  1.0789
  243MOL0     H32066   0.888   5.650   5.054  0.5228 -1.9504  1.2496
  243MOL0     H32067   0.829   5.711   5.201  2.2791  0.3898 -0.3084
  243MOL0     H32068   0.680   5.614   4.951  0.9244 -0.7981  0.2467
  243MOL0     H32069   0.591   5.639   5.101  0.5082  0.8492  1.3842
  243MOL0     H32070   0.762   5.844   4.929 -0.3252 -1.4184 -1.4558
  243MOL0     H32071   0.659   5.895   5.073 -2.3784  0.0363 -0.3493
  243MOL0     H32072   0.584   5.796   4.818  0.0346  2.6429 -1.7744
  243MOL0     H32073   0.466   5.825   4.959 -2.3630  1.5059 -2.0315
  243MOL0     H32074   0.538   6.221   4.894 -4.1681 -0.0446 -1.9692
  243MOL0     H32075   0.824   5.485   4.885 -0.0380  0.0040 -0.8059
  243MOL0     H32076   0.880   5.289   4.767 -0.4309  2.6642  0.0188
  244MOL0     O32077   6.793   9.669   8.971 -1.0292 -0.3720 -0.1386
  244MOL0     C32078   6.895   9.728   9.010  0.7109  0.6076 -0.6468
  244MOL0     O32079   6.904   9.850   9.072 -0.1893  0.3294 -0.8324
  244MOL0     C32080   6.798   9.925   9.111  0.3869 -0.1242 -0.8284
  244MOL0     C32081   6.823  10.060   9.127 -0.2423 -0.3119 -0.3543
  244MOL0     C32082   6.724  10.151   9.178  0.3173  0.6346 -0.0480
  244MOL0     C32083   6.592  10.110   9.198 -0.6376 -0.1025 -0.1748
  244MOL0     O32084   6.486  10.189   9.247  0.3653  1.2341 -0.0598
  244MOL0     C32085   6.462  10.315   9.182 -0.6158  0.6156  0.8263
  244MOL0     C32086   6.314  10.330   9.197  0.1754  0.2554 -0.1627
  244MOL0     C32087   6.274  10.366   9.343  0.3708  0.2405  1.0848
  244MOL0     C32088   6.126  10.429   9.343 -0.1095  0.0068 -0.3405
  244MOL0     C32089   6.088  10.476   9.480  0.3183 -0.5117 -0.8895
  244MOL0     C32090   6.189  10.579   9.536 -0.6918 -0.9087  0.3909
  244MOL0     C32091   6.128  10.700   9.620 -0.1767  0.0407 -0.5340
  244MOL0     C32092   6.220  10.818   9.630  1.2035  0.9874  0.3005
  244MOL0     N32093   6.348  10.796   9.698  0.0890 -0.2728  0.3237
  244MOL0     C32094   6.371  10.703   9.794  0.6123  0.3616  0.2333
  244MOL0     C32095   6.503  10.671   9.786 -0.1808 -0.8221  0.0905
  244MOL0     C32096   6.580  10.584   9.872 -0.7913  1.3752 -0.1466
  244MOL0     C32097   6.653  10.473   9.801  0.4872  0.0200 -0.5919
  244MOL0     C32098   6.563  10.385   9.716 -0.4099  0.5106  0.2725
  244MOL0     C32099   6.635  10.292   9.612  0.7579 -0.4881 -0.1401
  244MOL0     O32100   6.740  10.349   9.539 -0.3215  0.0306  0.2858
  244MOL0     C32101   6.833  10.264   9.484  0.1921  0.9675 -0.4802
  244MOL0     C32102   6.947  10.326   9.430 -0.3924  0.6435  0.6366
  244MOL0     C32103   7.046  10.258   9.369 -0.0531  0.3615 -0.1176
  244MOL0     C32104   7.052  10.118   9.369 -0.2362 -0.2325  0.0591
  244MOL0     C32105   7.180  10.053   9.327  1.1114 -0.2252 -0.7223
  244MOL0     O32106   7.193   9.931   9.388  0.1476  0.1095 -0.4324
  244MOL0     C32107   7.321   9.879   9.390  0.2667 -0.2816  1.1461
  244MOL0     C32108   7.444   9.955   9.425  0.4220 -0.5295  0.0905
  244MOL0     C32109   7.565   9.893   9.435  0.2986  0.8154  0.4416
  244MOL0     C32110   7.574   9.752   9.418 -0.6521  0.4754 -0.1129
  244MOL0     O32111   7.696   9.690   9.440 -0.3668 -0.5180  0.2305
  244MOL0     C32112   7.802   9.748   9.360 -0.1339 -0.3582  1.0662
  244MOL0     C32113   7.934   9.751   9.421 -0.0191  0.3843 -1.3761
  244MOL0     C32114   7.960   9.851   9.541  1.2025  0.7111  1.4037
  244MOL0     C32115   7.871   9.840   9.668  0.7176  0.4614 -0.2148
  244MOL0     C32116   7.946   9.930   9.782 -0.0095  0.9225 -0.0763
  244MOL0     C32117   7.886   9.928   9.926  0.1839  0.7747 -0.8455
  244MOL0     C32118   7.903   9.777   9.970 -0.2025 -0.2482  0.0391
  244MOL0     C32119   7.885   9.761  10.115  0.1308  0.6097 -0.7308
  244MOL0    Cl32120   7.754   9.845  10.198 -0.0201  0.1571 -0.7287
  244MOL0     C32121   7.468   9.671   9.385  1.0374 -0.3398 -0.0802
  244MOL0     C32122   7.342   9.739   9.386 -0.0726 -1.0167 -0.1616
  244MOL0     O32123   7.266  10.114   9.268 -0.0778  0.1492  0.1990
  244MOL0     C32124   6.939  10.053   9.423 -0.0265 -0.4788  0.3621
  244MOL0     C32125   6.830  10.118   9.479 -0.3831 -0.4137 -1.5079
  244MOL0     N32126   6.555  10.752   9.682 -0.1675 -0.3014 -0.2296
  244MOL0     N32127   6.460  10.830   9.633  0.1089  0.4147  0.7993
  244MOL0     C32128   6.560   9.971   9.181  0.3310 -0.5939  0.7402
  244MOL0     C32129   6.665   9.888   9.130 -0.3051 -0.0769 -0.3507
  244MOL0     C32130   7.029   9.665   8.987  0.3161 -0.6187  0.2193
  244MOL0     C32131   7.030   9.562   8.889 -0.1504  0.1958  0.0783
  244MOL0     C32132   7.153   9.519   8.847 -0.5989  0.0947 -1.1931
  244MOL0     C32133   7.276   9.577   8.896  0.6736 -0.8319  1.0763
  244MOL0     O32134   7.400   9.530   8.871 -0.3143 -0.1816  0.2248
  244MOL0     C32135   7.420   9.492   8.731 -0.1511  0.2802 -0.7543
  244MOL0     C32136   7.568   9.495   8.701  0.5295  0.3682  0.9452
  244MOL0     C32137   7.641   9.617   8.740  0.3822 -0.6403  1.2966
  244MOL0     C32138   7.776   9.591   8.806  0.4643  0.3449 -0.0417
  244MOL0     C32139   7.753   9.521   8.936  0.4301 -0.4580 -0.7435
  244MOL0     C32140   7.765   9.476   9.051  0.2951  0.6473 -0.4501
  244MOL0     C32141   7.271   9.668   9.002 -0.5354  0.4617  0.7150
  244MOL0     C32142   7.148   9.713   9.053 -0.5123 -0.4152  0.2915
  244MOL0     H32143   6.924  10.084   9.096  0.3268 -0.0518  1.5862
  244MOL0     H32144   6.771  10.247   9.193  3.8226 -0.4628 -2.5764
  244MOL0     H32145   6.497  10.320   9.078  1.7354 -2.7133  1.3062
  244MOL0     H32146   6.522  10.391   9.233  1.9881 -0.8682  0.1308
  244MOL0     H32147   6.270  10.237   9.161  2.9431 -0.6004 -1.6154
  244MOL0     H32148   6.286  10.407   9.125  1.8207  1.4448  0.3949
  244MOL0     H32149   6.345  10.437   9.385 -0.0063 -0.9202  3.9262
  244MOL0     H32150   6.269  10.268   9.392 -2.7809 -1.1914 -1.7139
  244MOL0     H32151   6.111  10.509   9.270 -1.1819 -3.2202 -4.0259
  244MOL0     H32152   6.049  10.355   9.318 -3.3032  3.4255 -1.5258
  244MOL0     H32153   6.087  10.385   9.540  0.5592 -1.5268 -2.3555
  244MOL0     H32154   5.984  10.506   9.465 -0.7104 -2.3593  1.8011
  244MOL0     H32155   6.247  10.628   9.457 -0.6989 -1.1505  0.2348
  244MOL0     H32156   6.262  10.527   9.600  0.7977 -0.7085 -1.0852
  244MOL0     H32157   6.030  10.718   9.574 -1.3293 -0.5904  1.5118
  244MOL0     H32158   6.110  10.666   9.723 -0.2349  2.9341  0.4986
  244MOL0     H32159   6.169  10.904   9.673  1.1545  1.5159 -0.7904
  244MOL0     H32160   6.243  10.847   9.528 -0.5393 -1.5988 -0.9507
  244MOL0     H32161   6.291  10.663   9.855 -1.0302  0.1223 -1.9599
  244MOL0     H32162   6.505  10.545   9.941  0.5429 -0.8053  0.1895
  244MOL0     H32163   6.652  10.641   9.932  1.9459  1.5520 -3.2670
  244MOL0     H32164   6.712  10.410   9.869  0.3900  0.9242  0.3668
  244MOL0     H32165   6.731  10.519   9.740 -0.3362  4.6254  1.4026
  244MOL0     H32166   6.505  10.320   9.784  0.1068  0.0346  0.2647
  244MOL0     H32167   6.502  10.453   9.656  0.5850  1.1515 -0.0248
  244MOL0     H32168   6.564  10.249   9.541  1.4416  1.5379 -2.1719
  244MOL0     H32169   6.683  10.214   9.672  1.4551 -0.4229 -0.5959
  244MOL0     H32170   6.938  10.434   9.420 -2.5699  0.3603 -1.2365
  244MOL0     H32171   7.134  10.314   9.339 -0.3229  0.7390 -0.2024
  244MOL0     H32172   7.423  10.060   9.443 -1.2300 -0.3431 -2.3895
  244MOL0     H32173   7.655   9.946   9.464  0.3543 -1.2282  4.7812
  244MOL0     H32174   7.779   9.850   9.328 -1.2544 -0.7323  0.6551
  244MOL0     H32175   7.799   9.695   9.265  0.1336  4.9820 -2.3899
  244MOL0     H32176   8.017   9.761   9.351  2.8846 -1.8944  1.4292
  244MOL0     H32177   7.932   9.657   9.477  1.7491  2.2676  2.2194
  244MOL0     H32178   7.938   9.950   9.498 -2.3879 -0.7545 -0.6112
  244MOL0     H32179   8.067   9.839   9.557  1.9332 -0.5461 -2.9846
  244MOL0     H32180   7.773   9.879   9.638 -1.6851 -2.0247  3.5443
  244MOL0     H32181   7.868   9.736   9.700 -1.9540  0.4542 -0.2799
  244MOL0     H32182   7.943  10.036   9.755 -0.6831  0.6202 -1.2552
  244MOL0     H32183   8.047   9.891   9.796 -1.1720 -1.8532  1.4635
  244MOL0     H32184   7.782   9.960   9.912 -0.5805 -1.7134 -1.3041
  244MOL0     H32185   7.937   9.991   9.999  1.2802  2.1335 -2.6801
  244MOL0     H32186   7.830   9.718   9.914 -1.0532 -0.1392  0.9948
  244MOL0     H32187   8.004   9.740   9.951 -0.8554 -1.6999 -0.7656
  244MOL0     H32188   7.982   9.785  10.158  0.3205  0.8351 -1.2797
  244MOL0     H32189   7.883   9.652  10.127  3.0503  0.6720  1.4335
  244MOL0     H32190   7.479   9.564   9.372  1.3615 -0.1448 -1.6429
  244MOL0     H32191   7.259   9.669   9.382 -0.9882 -0.3807  3.6073
  244MOL0     H32192   6.929   9.945   9.426 -3.0895 -0.2661  2.1883
  244MOL0     H32193   6.747  10.069   9.529 -0.3814  2.0093  1.1611
  244MOL0     H32194   6.462   9.931   9.201  0.7803 -1.2090  1.7851
  244MOL0     H32195   6.634   9.784   9.131  3.8467 -1.5353  2.0533
  244MOL0     H32196   6.946   9.527   8.830  0.5001  1.1114 -1.4450
  244MOL0     H32197   7.150   9.446   8.766  1.5277 -0.2341 -1.0326
  244MOL0     H32198   7.358   9.554   8.666 -2.5007 -1.0947  0.0516
  244MOL0     H32199   7.396   9.389   8.705  0.1937  0.4834 -1.9654
  244MOL0     H32200   7.614   9.404   8.739 -0.4094  0.2569  1.8698
  244MOL0     H32201   7.570   9.481   8.592  0.4123  1.4342  0.7883
  244MOL0     H32202   7.580   9.675   8.811  1.3973  0.7919  1.0330
  244MOL0     H32203   7.656   9.676   8.649  0.3807 -1.1429  0.9660
  244MOL0     H32204   7.846   9.546   8.735  2.2694  2.6656  0.1542
  244MOL0     H32205   7.826   9.686   8.827  2.6043 -0.5120 -0.8790
  244MOL0     H32206   7.770   9.441   9.152  0.2448  0.8128 -0.3898
  244MOL0     H32207   7.367   9.700   9.040 -1.2899  6.9913 -1.5182
  244MOL0     H32208   7.138   9.797   9.122 -2.0106  1.3906 -1.9613
  245MOL0     O32209  10.563   6.849  10.506 -0.5980 -1.2488 -0.4464
  245MOL0     C32210  10.674   6.900  10.519 -0.0592  0.2953  0.8984
  245MOL0     O32211  10.711   7.025  10.475  0.0252  0.1409  0.3350
  245MOL0     C32212  10.651   7.107  10.376  0.3711  0.2826  0.2434
  245MOL0     C32213  10.550   7.196  10.403  0.5365 -0.5311 -0.1942
  245MOL0     C32214  10.494   7.278  10.300  0.0899  0.6337  0.2755
  245MOL0     C32215  10.534   7.262  10.172 -0.4531 -0.5482 -0.4162
  245MOL0     O32216  10.456   7.331  10.080 -0.1815 -0.1423  0.1989
  245MOL0     C32217  10.500   7.331   9.946  0.3270  0.4017 -0.3201
  245MOL0     C32218  10.412   7.414   9.855  0.4329 -0.8465  0.9360
  245MOL0     C32219  10.424   7.404   9.699  0.1220 -0.4848 -0.6477
  245MOL0     C32220  10.392   7.537   9.635 -0.3614 -1.0152  0.6966
  245MOL0     C32221  10.434   7.542   9.482  0.1433  0.2314  0.6572
  245MOL0     C32222  10.581   7.517   9.449  0.3368 -0.1558 -0.6459
  245MOL0     C32223  10.620   7.536   9.309 -0.9285 -0.5819 -0.0072
  245MOL0     C32224  10.657   7.681   9.282  0.2385  0.0720  0.4348
  245MOL0     N32225  10.742   7.695   9.162 -0.5377  0.7348  0.4315
  245MOL0     C32226  10.685   7.668   9.045 -0.4113 -0.2543  0.9290
  245MOL0     C32227  10.789   7.677   8.955 -0.2076  0.7693  0.9117
  245MOL0     C32228  10.783   7.655   8.808 -0.2492  0.7575 -1.0517
  245MOL0     C32229  10.896   7.722   8.735 -0.1956  0.3331 -0.4509
  245MOL0     C32230  10.882   7.680   8.584 -0.3360 -0.6494  0.3701
  245MOL0     C32231  11.003   7.714   8.502 -0.5562  0.4427 -1.1052
  245MOL0     O32232  10.987   7.661   8.368 -0.2374 -0.5438 -0.3495
  245MOL0     C32233  11.087   7.686   8.274  0.0196  1.3835  0.7937
  245MOL0     C32234  11.213   7.744   8.301 -1.0343  0.0883 -0.8023
  245MOL0     C32235  11.303   7.787   8.196 -0.6663  0.3662 -0.1479
  245MOL0     C32236  11.263   7.765   8.062 -1.0225  0.3384 -0.1744
  245MOL0     C32237  11.363   7.803   7.955  1.6894 -0.4060  1.4584
  245MOL0     O32238  11.464   7.880   7.983  0.8044  0.0781 -0.4680
  245MOL0     C32239  11.565   7.921   7.899 -0.0625 -0.0890 -0.1826
  245MOL0     C32240  11.558   7.910   7.752 -0.1917 -0.2085  0.4579
  245MOL0     C32241  11.674   7.921   7.676  0.5579 -0.7179 -0.5716
  245MOL0     C32242  11.795   7.950   7.737  0.0800 -1.0832 -0.1624
  245MOL0     O32243  11.917   7.949   7.671  0.6503  0.4959  0.4872
  245MOL0     C32244  11.922   7.996   7.537  0.1496  0.8516  0.3462
  245MOL0     C32245  12.051   8.074   7.528  0.8178 -0.3031 -0.3699
  245MOL0     C32246  12.046   8.148   7.390 -1.5884 -0.2293  0.1075
  245MOL0     C32247  12.182   8.230   7.382  0.3251 -0.3353  0.1304
  245MOL0     C32248  12.193   8.286   7.245  0.7279  0.5520 -0.0618
  245MOL0     C32249  12.326   8.357   7.233 -0.1821  0.1104  0.4581
  245MOL0     C32250  12.344   8.414   7.095 -0.5039 -0.4669 -0.0167
  245MOL0     C32251  12.434   8.540   7.101  0.0215 -0.2604  0.5324
  245MOL0    Cl32252  12.595   8.479   7.162  0.1077 -1.0175 -0.0968
  245MOL0     C32253  11.799   7.974   7.875 -0.3054 -0.1900 -0.5118
  245MOL0     C32254  11.690   7.950   7.954  0.6197 -1.0699 -0.1593
  245MOL0     O32255  11.323   7.777   7.839 -0.3646 -0.4626  0.3119
  245MOL0     C32256  11.144   7.698   8.039  0.4047 -0.4157  0.4088
  245MOL0     C32257  11.055   7.651   8.134  0.9240 -0.7017  0.3410
  245MOL0     N32258  10.908   7.708   9.025 -0.7062 -0.6585 -0.5197
  245MOL0     N32259  10.873   7.724   9.156 -0.1826  0.8432 -0.3284
  245MOL0     C32260  10.619   7.157  10.140 -0.5751  0.1810 -0.4574
  245MOL0     C32261  10.680   7.085  10.241  0.8176 -0.1636 -0.5436
  245MOL0     C32262  10.772   6.813  10.580 -0.5788  0.2624  0.6359
  245MOL0     C32263  10.902   6.851  10.562 -0.4141  0.2811 -0.4597
  245MOL0     C32264  11.000   6.781  10.622  0.3953 -0.0181 -0.3458
  245MOL0     C32265  10.977   6.659  10.691 -0.8704  0.7843 -0.5266
  245MOL0     O32266  11.081   6.582  10.732 -0.6672 -0.1207  0.0416
  245MOL0     C32267  11.103   6.480  10.635 -0.4293 -0.2546 -0.6184
  245MOL0     C32268  11.236   6.528  10.555 -0.1231 -0.1282 -0.6820
  245MOL0     C32269  11.365   6.499  10.638  1.0541 -0.3958 -0.1452
  245MOL0     C32270  11.499   6.549  10.579 -0.0094  0.2569 -0.0582
  245MOL0     C32271  11.618   6.461  10.583  0.1673 -0.1433  0.4573
  245MOL0     C32272  11.713   6.383  10.580  0.0055  0.7813 -0.6931
  245MOL0     C32273  10.843   6.628  10.726  0.0782  0.6906 -0.1647
  245MOL0     C32274  10.743   6.707  10.671 -0.0008  0.9837  0.8452
  245MOL0     H32275  10.498   7.211  10.497 -0.8344  1.0564 -1.1472
  245MOL0     H32276  10.417   7.351  10.325 -0.4043  0.3420 -0.3510
  245MOL0     H32277  10.506   7.231   9.902 -0.3766  0.3628 -0.3332
  245MOL0     H32278  10.602   7.371   9.946  0.8863 -0.6791  2.9224
  245MOL0     H32279  10.450   7.515   9.867 -2.1049  0.4650 -1.0296
  245MOL0     H32280  10.307   7.418   9.885  1.0672  0.1553  3.2769
  245MOL0     H32281  10.355   7.323   9.671 -0.6195 -1.0113  2.3209
  245MOL0     H32282  10.530   7.383   9.681  1.5342  4.8885 -0.3617
  245MOL0     H32283  10.287   7.567   9.639 -0.1382 -0.2586  1.1375
  245MOL0     H32284  10.457   7.612   9.683 -2.3389  1.6064 -0.4832
  245MOL0     H32285  10.397   7.631   9.429 -0.5666 -0.7825 -0.6080
  245MOL0     H32286  10.374   7.463   9.437 -0.1587  0.6819  0.2530
  245MOL0     H32287  10.608   7.415   9.476 -0.3295  0.3247  2.0657
  245MOL0     H32288  10.641   7.588   9.507 -1.1371  0.8642 -0.3164
  245MOL0     H32289  10.709   7.476   9.290 -0.4616  0.1324 -0.1166
  245MOL0     H32290  10.541   7.491   9.248  0.0724 -2.9391  0.3202
  245MOL0     H32291  10.726   7.701   9.365  2.0714  0.9171 -1.2292
  245MOL0     H32292  10.572   7.749   9.271 -0.1686 -0.6014 -0.7729
  245MOL0     H32293  10.584   7.641   9.014  0.6078 -3.6538  0.1101
  245MOL0     H32294  10.688   7.695   8.773 -0.3729  3.0199  1.5170
  245MOL0     H32295  10.792   7.546   8.796  1.7913  1.0663 -2.9370
  245MOL0     H32296  10.994   7.684   8.767  1.3090  4.9429  1.2683
  245MOL0     H32297  10.911   7.828   8.753  1.1801  0.3140 -1.2722
  245MOL0     H32298  10.859   7.575   8.564  1.8875 -1.0868 -0.1900
  245MOL0     H32299  10.806   7.739   8.531 -1.8961 -3.8460 -1.2590
  245MOL0     H32300  11.084   7.663   8.553 -3.2258 -0.6747  2.3969
  245MOL0     H32301  11.018   7.822   8.496 -4.2186  1.0833 -1.2224
  245MOL0     H32302  11.254   7.755   8.401  0.4989 -1.2194 -1.2507
  245MOL0     H32303  11.399   7.828   8.225 -1.3031  2.0196 -0.2597
  245MOL0     H32304  11.480   7.878   7.684  1.8157 -0.3961 -1.8813
  245MOL0     H32305  11.674   7.901   7.569  0.1016  0.5036 -0.8120
  245MOL0     H32306  11.836   8.058   7.511 -2.1804 -1.4560  2.1425
  245MOL0     H32307  11.925   7.908   7.472  2.4770 -0.0295  1.5300
  245MOL0     H32308  12.135   8.004   7.530  0.1449 -1.1222 -0.3234
  245MOL0     H32309  12.053   8.143   7.612 -1.2278 -0.7536  0.0893
  245MOL0     H32310  11.966   8.220   7.371 -0.0767  1.5303  0.0507
  245MOL0     H32311  12.039   8.072   7.312 -1.2295  1.3495 -1.5379
  245MOL0     H32312  12.189   8.300   7.465  0.6410 -1.7224  1.3241
  245MOL0     H32313  12.260   8.153   7.387  2.1408  1.0685 -3.2122
  245MOL0     H32314  12.103   8.342   7.218  1.2164  0.5497 -1.8557
  245MOL0     H32315  12.198   8.202   7.175  3.6524 -0.9066  1.6945
  245MOL0     H32316  12.412   8.290   7.246  1.3331  1.5794 -1.3713
  245MOL0     H32317  12.317   8.444   7.299 -1.4720  2.2212 -2.2966
  245MOL0     H32318  12.383   8.339   7.025 -0.4936  1.0414 -1.6853
  245MOL0     H32319  12.246   8.443   7.055 -1.0642 -1.2148  0.7601
  245MOL0     H32320  12.395   8.617   7.168  3.5652  2.0261  0.2197
  245MOL0     H32321  12.437   8.576   6.997 -3.7731  1.0053  0.7021
  245MOL0     H32322  11.897   7.983   7.921  0.4214  3.6969 -2.4402
  245MOL0     H32323  11.697   7.945   8.062  1.2278 -2.7735 -0.2409
  245MOL0     H32324  11.108   7.686   7.937  1.3342  2.8456 -0.4275
  245MOL0     H32325  10.964   7.603   8.101  0.0318  0.6445  0.7473
  245MOL0     H32326  10.645   7.128  10.038 -0.4679  0.8187 -0.6164
  245MOL0     H32327  10.737   6.997  10.213 -0.3940 -0.9499 -0.6006
  245MOL0     H32328  10.926   6.940  10.504 -0.1015 -1.9549 -4.0278
  245MOL0     H32329  11.097   6.829  10.610 -0.1824  1.7623  1.5209
  245MOL0     H32330  11.018   6.464  10.568 -2.9780 -3.6944  2.9971
  245MOL0     H32331  11.117   6.380  10.678 -1.4839 -0.4682 -0.7636
  245MOL0     H32332  11.235   6.481  10.457 -0.7748  4.5487 -3.2171
  245MOL0     H32333  11.237   6.636  10.541  2.6497  0.0755  0.4464
  245MOL0     H32334  11.369   6.391  10.655 -0.4007 -0.0961  2.6829
  245MOL0     H32335  11.357   6.529  10.743  2.7291 -1.3931  0.2994
  245MOL0     H32336  11.475   6.564  10.473 -2.3881  2.1775  0.6783
  245MOL0     H32337  11.509   6.647  10.626 -2.9047  0.1675  0.9837
  245MOL0     H32338  11.801   6.321  10.574 -1.0299 -0.6700 -1.5471
  245MOL0     H32339  10.818   6.548  10.795  2.6324  2.8426  3.5720
  245MOL0     H32340  10.640   6.677  10.691  0.6556 -1.5992  0.6616
  246MOL0     O32341   6.702   8.091   4.090  0.6452 -0.0791  0.2066
  246MOL0     C32342   6.613   8.071   4.003  0.0746  0.1460  0.0214
  246MOL0     O32343   6.536   7.960   3.996  0.2780 -0.0324 -0.2704
  246MOL0     C32344   6.512   7.888   4.104 -0.4176  0.6743 -0.7700
  246MOL0     C32345   6.579   7.763   4.110  1.1053  0.6860  0.6600
  246MOL0     C32346   6.556   7.676   4.218 -0.0300 -0.5772  0.8842
  246MOL0     C32347   6.486   7.725   4.331  0.0405  0.1216 -0.9164
  246MOL0     O32348   6.469   7.660   4.448 -0.8098 -0.5365 -0.3985
  246MOL0     C32349   6.523   7.535   4.491 -0.0563 -0.2745  0.6219
  246MOL0     C32350   6.454   7.494   4.622  0.2886 -0.5201  0.6638
  246MOL0     C32351   6.477   7.589   4.741 -0.3999  0.4236 -0.1669
  246MOL0     C32352   6.407   7.531   4.868 -1.0445  0.0205 -0.4506
  246MOL0     C32353   6.423   7.615   4.995  0.5125 -0.6243 -0.0660
  246MOL0     C32354   6.331   7.573   5.109 -0.5923  0.2611 -0.4688
  246MOL0     C32355   6.349   7.642   5.247  0.7902  0.8466 -0.1694
  246MOL0     C32356   6.490   7.609   5.311  1.0825 -0.2515  0.4453
  246MOL0     N32357   6.512   7.652   5.454  0.2836  0.0204  0.7494
  246MOL0     C32358   6.444   7.597   5.561  0.5718 -0.1672 -0.0478
  246MOL0     C32359   6.464   7.689   5.664  0.0964  0.5111  0.4461
  246MOL0     C32360   6.393   7.681   5.793 -0.2185  0.1508 -0.3835
  246MOL0     C32361   6.475   7.617   5.897 -1.3254  0.3022 -0.5406
  246MOL0     C32362   6.392   7.603   6.027 -0.0979  0.2399  0.0549
  246MOL0     C32363   6.322   7.732   6.088  0.1166 -0.7336 -0.3175
  246MOL0     O32364   6.281   7.704   6.230 -0.1803 -0.8667 -0.1663
  246MOL0     C32365   6.304   7.792   6.329  0.2754  0.3960  0.6971
  246MOL0     C32366   6.187   7.839   6.404  0.5845  0.6485 -0.0119
  246MOL0     C32367   6.217   7.917   6.521  0.7705 -0.1684 -0.1255
  246MOL0     C32368   6.352   7.937   6.571  1.0358 -0.3754  0.0674
  246MOL0     C32369   6.364   8.012   6.696  0.4627  0.0323 -0.1571
  246MOL0     O32370   6.254   8.048   6.756 -0.4232 -0.9046  0.1408
  246MOL0     C32371   6.254   8.129   6.871  0.3994 -0.5107  0.1219
  246MOL0     C32372   6.346   8.127   6.973 -0.3762  0.0562 -0.5830
  246MOL0     C32373   6.332   8.226   7.082 -0.2085  0.7525  0.2053
  246MOL0     C32374   6.225   8.307   7.103  0.1534  0.5291 -0.6305
  246MOL0     O32375   6.210   8.369   7.223  0.6477 -0.4064 -0.0753
  246MOL0     C32376   6.127   8.298   7.316  0.3230  0.9098  0.7999
  246MOL0     C32377   6.089   8.388   7.429 -0.2352 -0.2538 -0.1976
  246MOL0     C32378   5.946   8.349   7.461 -0.8919 -0.3560  0.1117
  246MOL0     C32379   5.901   8.433   7.580 -0.1912 -0.5444 -0.2377
  246MOL0     C32380   5.766   8.394   7.625 -0.1190  0.3730 -0.4895
  246MOL0     C32381   5.733   8.464   7.761  0.6777 -0.0871 -0.5044
  246MOL0     C32382   5.604   8.394   7.811  0.3831 -0.0842 -0.7813
  246MOL0     C32383   5.554   8.455   7.944 -0.8876 -0.4933 -0.3020
  246MOL0    Cl32384   5.432   8.579   7.922 -0.4122 -0.7255 -0.4859
  246MOL0     C32385   6.121   8.281   7.006 -0.8247  0.4783 -0.2448
  246MOL0     C32386   6.139   8.211   6.883  0.5611  1.1494 -0.5455
  246MOL0     O32387   6.480   8.044   6.722  0.6953  0.3940  0.6897
  246MOL0     C32388   6.457   7.900   6.489 -0.2770  0.8798  0.9091
  246MOL0     C32389   6.434   7.823   6.371 -1.1160 -0.1239 -1.3530
  246MOL0     N32390   6.549   7.779   5.618  0.2883 -0.1523 -0.6411
  246MOL0     N32391   6.578   7.765   5.496  0.3054  0.3861  0.6046
  246MOL0     C32392   6.433   7.856   4.329 -0.5988  0.7687 -0.8654
  246MOL0     C32393   6.440   7.934   4.216  0.4949 -0.8722 -0.6798
  246MOL0     C32394   6.593   8.182   3.904  0.9109  0.5288  0.6149
  246MOL0     C32395   6.506   8.165   3.794 -0.6630  0.1264 -0.0441
  246MOL0     C32396   6.500   8.267   3.694  0.7171 -0.6451 -0.5245
  246MOL0     C32397   6.579   8.379   3.713 -0.7476 -0.8908  1.1361
  246MOL0     O32398   6.543   8.486   3.631  0.5780  0.1981 -0.9577
  246MOL0     C32399   6.623   8.607   3.636  0.0579  0.1549  0.4088
  246MOL0     C32400   6.585   8.709   3.745 -0.7317 -0.4789  0.2504
  246MOL0     C32401   6.686   8.822   3.758  0.6635  0.2764  0.2842
  246MOL0     C32402   6.646   8.933   3.852  0.5829  0.4464 -0.1536
  246MOL0     C32403   6.749   9.033   3.858 -1.3359 -0.2396 -0.2377
  246MOL0     C32404   6.839   9.111   3.890 -0.0675 -0.5575 -1.1521
  246MOL0     C32405   6.674   8.383   3.811 -0.7305  0.2139  0.1269
  246MOL0     C32406   6.668   8.297   3.912 -1.2685 -1.4637  0.5082
  246MOL0     H32407   6.641   7.727   4.028 -3.1982 -0.2753 -2.5229
  246MOL0     H32408   6.605   7.580   4.229 -3.6433 -2.2914  4.2655
  246MOL0     H32409   6.631   7.534   4.508 -0.0504 -3.7833  0.9980
  246MOL0     H32410   6.511   7.467   4.406  0.3195 -0.9155  1.0771
  246MOL0     H32411   6.476   7.389   4.643 -1.8527 -1.4081 -1.2299
  246MOL0     H32412   6.346   7.494   4.605  0.0374  0.3681  2.0395
  246MOL0     H32413   6.444   7.692   4.724 -4.1167 -0.6642 -0.4210
  246MOL0     H32414   6.585   7.606   4.751 -0.3238 -0.3522  0.3564
  246MOL0     H32415   6.301   7.534   4.838 -0.9611  0.1355 -0.7405
  246MOL0     H32416   6.447   7.431   4.885 -1.7315 -0.4131 -1.2757
  246MOL0     H32417   6.407   7.723   4.987  0.8214 -0.3729  1.9475
  246MOL0     H32418   6.528   7.604   5.025  0.9357 -1.7388 -1.8100
  246MOL0     H32419   6.341   7.464   5.116 -0.7632  0.1586 -1.6587
  246MOL0     H32420   6.231   7.612   5.086  0.2587  4.7739  2.3503
  246MOL0     H32421   6.332   7.749   5.230 -0.1780  0.7163 -0.0873
  246MOL0     H32422   6.269   7.607   5.314 -0.1724  1.1028 -1.1517
  246MOL0     H32423   6.567   7.663   5.255  2.7014 -1.8431  1.0504
  246MOL0     H32424   6.502   7.500   5.308 -3.2964 -0.8920 -0.4438
  246MOL0     H32425   6.376   7.512   5.558 -0.8924  0.7213  3.3238
  246MOL0     H32426   6.292   7.640   5.788 -0.0724 -0.1755 -0.7478
  246MOL0     H32427   6.384   7.781   5.836  4.8634  1.0872 -0.7919
  246MOL0     H32428   6.555   7.689   5.918  0.5820 -1.0872 -2.5857
  246MOL0     H32429   6.513   7.517   5.874 -1.5301 -0.4478  2.0019
  246MOL0     H32430   6.320   7.521   6.017 -0.8217  0.5914  1.9769
  246MOL0     H32431   6.462   7.556   6.097 -1.4292  0.4123  1.5478
  246MOL0     H32432   6.229   7.757   6.037 -1.2646 -2.9412  1.0067
  246MOL0     H32433   6.398   7.809   6.068  2.0946 -2.4621  0.1461
  246MOL0     H32434   6.091   7.796   6.378  3.4931 -4.6901 -3.8208
  246MOL0     H32435   6.130   7.963   6.566  1.5330 -2.9153  4.9272
  246MOL0     H32436   6.440   8.072   6.976 -1.3474 -1.7170 -1.5581
  246MOL0     H32437   6.416   8.238   7.150  1.2269  3.3101 -1.8495
  246MOL0     H32438   6.173   8.203   7.342 -0.0319 -0.9193 -4.2612
  246MOL0     H32439   6.047   8.268   7.248  1.1329 -0.6341  0.5023
  246MOL0     H32440   6.090   8.491   7.392  2.4643 -0.2548 -0.3562
  246MOL0     H32441   6.159   8.374   7.513  1.2820 -5.0973 -1.9606
  246MOL0     H32442   5.934   8.244   7.489  3.2188 -0.8660  0.6624
  246MOL0     H32443   5.888   8.383   7.375  0.1495 -1.5151 -1.0956
  246MOL0     H32444   5.970   8.427   7.665 -0.3730  2.2441  0.1905
  246MOL0     H32445   5.899   8.536   7.544 -1.3106  0.0824  1.5191
  246MOL0     H32446   5.759   8.285   7.623 -2.0898  0.4654 -0.5574
  246MOL0     H32447   5.699   8.412   7.541 -1.4449 -1.3959  0.1239
  246MOL0     H32448   5.721   8.573   7.765 -0.3877 -0.2247  1.3081
  246MOL0     H32449   5.803   8.440   7.841 -1.8210 -2.2567  1.2172
  246MOL0     H32450   5.527   8.383   7.734  0.2944 -2.8854 -0.3906
  246MOL0     H32451   5.627   8.289   7.834  0.2766  0.3323  1.4617
  246MOL0     H32452   5.648   8.497   7.980 -1.7474  2.1190 -0.8836
  246MOL0     H32453   5.516   8.380   8.015 -2.0124  1.1012  0.8471
  246MOL0     H32454   6.023   8.320   7.031 -0.7847  2.3151 -2.6320
  246MOL0     H32455   6.066   8.198   6.804  2.6119  0.8822 -2.5031
  246MOL0     H32456   6.558   7.919   6.524  0.7817 -2.9069  0.4035
  246MOL0     H32457   6.519   7.788   6.314 -1.2909 -0.9402 -1.1352
  246MOL0     H32458   6.378   7.899   4.412  1.2442 -0.8842  1.3645
  246MOL0     H32459   6.398   8.034   4.210 -3.0479 -1.8531  3.1070
  246MOL0     H32460   6.450   8.072   3.790 -0.1803 -0.1946  0.4487
  246MOL0     H32461   6.425   8.271   3.616  0.7346  3.3905 -0.5614
  246MOL0     H32462   6.614   8.661   3.541 -2.6537 -1.1644 -0.1638
  246MOL0     H32463   6.729   8.582   3.646  1.0589  3.6469 -0.0528
  246MOL0     H32464   6.482   8.739   3.727 -1.3845 -3.5842 -1.9199
  246MOL0     H32465   6.583   8.659   3.842  0.8651  0.9712  1.0948
  246MOL0     H32466   6.700   8.873   3.662 -1.7221  0.3458 -0.0895
  246MOL0     H32467   6.772   8.770   3.801 -2.0479 -5.7224 -0.5210
  246MOL0     H32468   6.546   8.972   3.830  0.0714  1.9573  3.9323
  246MOL0     H32469   6.645   8.887   3.951  4.4778 -1.1516 -0.6696
  246MOL0     H32470   6.910   9.184   3.922  3.2065 -3.3546 -1.3698
  246MOL0     H32471   6.737   8.468   3.836  0.4231 -0.0581 -1.6552
  246MOL0     H32472   6.725   8.315   4.003  0.9753 -1.1429 -0.8983
  247MOL0     O32473   4.439   8.982   4.108 -0.6339  0.3097 -0.2222
  247MOL0     C32474   4.435   8.890   4.021  0.0574 -0.4689 -0.5899
  247MOL0     O32475   4.398   8.763   4.041 -0.0232  0.3619 -0.3085
  247MOL0     C32476   4.392   8.727   4.173  0.9308  0.9544 -0.1304
  247MOL0     C32477   4.499   8.735   4.263 -0.1253  0.4301  0.7189
  247MOL0     C32478   4.493   8.688   4.391 -0.1028 -0.5809 -0.0395
  247MOL0     C32479   4.367   8.637   4.434 -0.6281 -1.2386 -0.9694
  247MOL0     O32480   4.345   8.578   4.562  0.3543 -0.8650 -0.3623
  247MOL0     C32481   4.448   8.587   4.661  0.8330  1.2496 -0.1665
  247MOL0     C32482   4.438   8.728   4.726  1.2080  0.3915 -0.0019
  247MOL0     C32483   4.307   8.752   4.817  0.0950 -0.0111 -0.1129
  247MOL0     C32484   4.295   8.901   4.866 -1.1637  1.0471 -0.1626
  247MOL0     C32485   4.157   8.930   4.921 -0.2318  0.7487  0.0806
  247MOL0     C32486   4.130   9.080   4.930  1.2942 -0.2726 -0.0868
  247MOL0     C32487   4.238   9.168   4.992 -0.7046  0.3819 -0.4651
  247MOL0     C32488   4.300   9.254   4.880 -0.3075 -0.2800 -0.0358
  247MOL0     N32489   4.441   9.240   4.859 -0.1797 -0.4092  0.5322
  247MOL0     C32490   4.532   9.339   4.897  0.4109  0.7487  0.5113
  247MOL0     C32491   4.654   9.300   4.844  0.1834  0.6919  0.5478
  247MOL0     C32492   4.785   9.361   4.867 -0.2116  0.5521  0.0273
  247MOL0     C32493   4.797   9.521   4.880 -1.1020 -0.7685 -0.3844
  247MOL0     C32494   4.940   9.570   4.853 -0.2123  1.0748  0.3595
  247MOL0     C32495   4.948   9.712   4.825 -0.0790  0.5132  0.4034
  247MOL0     O32496   4.887   9.738   4.700  0.2373 -0.2113  0.5863
  247MOL0     C32497   4.862   9.871   4.680 -0.2485 -0.3761 -0.7174
  247MOL0     C32498   4.910   9.981   4.756  0.9383  0.1294  0.6334
  247MOL0     C32499   4.908  10.115   4.692  0.2052  0.1627  0.3300
  247MOL0     C32500   4.835  10.133   4.573 -0.4424 -0.0614  0.0873
  247MOL0     C32501   4.826  10.270   4.516  0.5381 -0.0233  0.6171
  247MOL0     O32502   4.909  10.370   4.550 -0.1859 -0.5894  0.3323
  247MOL0     C32503   4.926  10.500   4.501 -0.8118  0.3841  1.1791
  247MOL0     C32504   5.021  10.581   4.564  0.6010 -0.0260 -0.1782
  247MOL0     C32505   5.044  10.711   4.530 -0.0102  0.3048  0.8939
  247MOL0     C32506   4.960  10.775   4.428  0.1140  0.0250  0.7637
  247MOL0     O32507   4.976  10.909   4.427  0.5242  0.0987 -0.6092
  247MOL0     C32508   4.878  10.985   4.362  0.2288  0.3160  0.7433
  247MOL0     C32509   4.940  11.121   4.327 -0.2935  0.4021 -0.1497
  247MOL0     C32510   4.832  11.225   4.327  0.1781 -0.0566 -0.8152
  247MOL0     C32511   4.895  11.370   4.312  1.0705  0.2706 -0.7372
  247MOL0     C32512   4.802  11.486   4.317 -0.4809 -0.4120  0.1785
  247MOL0     C32513   4.871  11.612   4.263  0.2295  0.6184 -0.7496
  247MOL0     C32514   4.751  11.712   4.254 -0.6174  0.7750  0.0005
  247MOL0     C32515   4.786  11.844   4.196 -0.9986 -0.9198  0.5345
  247MOL0    Cl32516   4.650  11.950   4.160  0.0452 -0.7509 -0.0156
  247MOL0     C32517   4.871  10.692   4.353  0.1159 -0.3479  0.1693
  247MOL0     C32518   4.858  10.564   4.393 -0.6377  0.8695  0.3963
  247MOL0     O32519   4.738  10.281   4.428  0.0938  1.0600 -0.1006
  247MOL0     C32520   4.773  10.022   4.511 -0.1757 -0.1063 -0.3562
  247MOL0     C32521   4.785   9.888   4.565 -0.4791  0.9815  0.3860
  247MOL0     N32522   4.640   9.180   4.775  0.4694 -0.8293 -0.1410
  247MOL0     N32523   4.509   9.153   4.783  0.1947 -0.3124  0.0780
  247MOL0     C32524   4.260   8.621   4.348  0.2312 -0.9179  0.4035
  247MOL0     C32525   4.273   8.673   4.224 -0.7801  0.2802  0.3825
  247MOL0     C32526   4.479   8.937   3.888  1.3401 -0.2130 -0.8584
  247MOL0     C32527   4.531   9.065   3.868 -0.5104  0.8915  0.3316
  247MOL0     C32528   4.578   9.102   3.741 -0.5815 -1.2763  1.3806
  247MOL0     C32529   4.584   9.014   3.631  0.4131 -0.0538 -0.4159
  247MOL0     O32530   4.652   9.054   3.519  0.2765  0.1962 -0.2306
  247MOL0     C32531   4.680   8.960   3.415 -0.4180  0.2587 -0.1080
  247MOL0     C32532   4.693   9.046   3.297 -0.0960 -0.1184 -0.3376
  247MOL0     C32533   4.841   9.093   3.269  0.7904  0.2187 -0.2900
  247MOL0     C32534   4.848   9.190   3.151 -0.6139  0.4663 -0.0719
  247MOL0     C32535   4.848   9.125   3.019  0.8839 -0.2452  1.0738
  247MOL0     C32536   4.833   9.061   2.917 -0.0122 -0.5548  0.2209
  247MOL0     C32537   4.515   8.886   3.660 -0.8632 -0.1677 -0.0188
  247MOL0     C32538   4.475   8.848   3.780  0.3508  0.4144 -0.5077
  247MOL0     H32539   4.595   8.771   4.228 -0.5237  2.4600  1.5839
  247MOL0     H32540   4.594   8.686   4.429  0.8053 -1.1985 -2.2916
  247MOL0     H32541   4.543   8.566   4.610 -0.1086  0.1539 -1.5445
  247MOL0     H32542   4.428   8.513   4.739  1.1986 -0.4621 -1.6142
  247MOL0     H32543   4.432   8.801   4.645 -0.3663 -0.9286 -1.1407
  247MOL0     H32544   4.528   8.751   4.784 -0.2999 -0.5848  2.8871
  247MOL0     H32545   4.309   8.694   4.910 -0.8255 -1.6771 -1.1086
  247MOL0     H32546   4.216   8.728   4.762  0.6804  3.1489 -2.7595
  247MOL0     H32547   4.360   8.921   4.952 -0.3881  2.3707 -1.0333
  247MOL0     H32548   4.316   8.971   4.785  0.8477 -2.1871 -2.6895
  247MOL0     H32549   4.147   8.880   5.018 -2.2178 -0.9733 -0.9473
  247MOL0     H32550   4.080   8.888   4.857 -0.1592 -4.4648  2.8646
  247MOL0     H32551   4.049   9.087   5.004  3.0232  1.9218  1.7074
  247MOL0     H32552   4.096   9.119   4.833  1.4990  4.1696  1.4216
  247MOL0     H32553   4.186   9.224   5.070 -1.2281  0.1413 -0.6333
  247MOL0     H32554   4.319   9.113   5.041  1.4814  2.8722 -1.0428
  247MOL0     H32555   4.267   9.358   4.889 -3.2659 -1.1607  0.4856
  247MOL0     H32556   4.261   9.226   4.781 -1.9742  1.6959 -0.0084
  247MOL0     H32557   4.508   9.433   4.945 -0.5676  1.4205 -1.2108
  247MOL0     H32558   4.836   9.326   4.776 -2.3570 -0.4749 -0.8480
  247MOL0     H32559   4.831   9.310   4.952 -1.3794  0.2974  0.5224
  247MOL0     H32560   4.764   9.561   4.976  0.4869  1.1113 -0.5598
  247MOL0     H32561   4.726   9.566   4.809 -1.9492 -0.8218  0.4186
  247MOL0     H32562   4.993   9.555   4.948 -2.3992 -2.4110  1.2047
  247MOL0     H32563   5.006   9.511   4.789 -0.4115  0.8133  0.3954
  247MOL0     H32564   5.054   9.740   4.824  0.7409 -2.2268 -1.0599
  247MOL0     H32565   4.892   9.764   4.903 -0.4654  0.4969  0.1357
  247MOL0     H32566   4.973   9.959   4.842  0.8785 -0.2839  0.5723
  247MOL0     H32567   4.951  10.193   4.753  1.8351  0.1481 -0.7324
  247MOL0     H32568   5.089  10.544   4.639  1.8850  2.9059  0.2549
  247MOL0     H32569   5.127  10.764   4.575  0.0355  1.3099 -0.3339
  247MOL0     H32570   4.787  10.992   4.423 -1.5818 -1.3513 -1.5799
  247MOL0     H32571   4.844  10.940   4.268  0.6038  0.6075  0.4643
  247MOL0     H32572   4.974  11.123   4.223  0.9618  1.3501  0.2550
  247MOL0     H32573   5.028  11.142   4.387  1.5714 -1.5511 -2.0295
  247MOL0     H32574   4.783  11.221   4.424 -2.0069  1.0118 -1.8132
  247MOL0     H32575   4.762  11.207   4.245  1.2851 -1.0868 -1.5754
  247MOL0     H32576   4.962  11.392   4.395  0.2426  1.3676 -0.3384
  247MOL0     H32577   4.953  11.383   4.220  1.7378 -0.7250 -0.4721
  247MOL0     H32578   4.785  11.522   4.419 -2.4104 -0.8330  0.0392
  247MOL0     H32579   4.711  11.462   4.262  1.5736 -0.2683 -3.5988
  247MOL0     H32580   4.928  11.601   4.170  3.3319  1.0159  0.9654
  247MOL0     H32581   4.941  11.648   4.339 -1.6013  1.8862  0.4251
  247MOL0     H32582   4.669  11.663   4.200 -3.3687  1.3735  3.2873
  247MOL0     H32583   4.716  11.717   4.358  1.6233  1.7311  0.7793
  247MOL0     H32584   4.865  11.825   4.123  0.2123  0.6563  1.3884
  247MOL0     H32585   4.838  11.896   4.276 -1.4398 -2.0989  1.6254
  247MOL0     H32586   4.815  10.722   4.265 -1.1478 -0.1915  1.0090
  247MOL0     H32587   4.786  10.499   4.346  0.1272  1.5268 -1.7901
  247MOL0     H32588   4.720  10.034   4.417  1.5705  1.3097 -1.2302
  247MOL0     H32589   4.749   9.804   4.507  1.3047  0.5506 -0.1877
  247MOL0     H32590   4.164   8.576   4.371  0.4016 -1.8606 -0.6471
  247MOL0     H32591   4.188   8.671   4.156 -1.4049 -1.3613  1.1436
  247MOL0     H32592   4.514   9.139   3.946 -0.3763  0.2553  0.9694
  247MOL0     H32593   4.615   9.204   3.738 -0.7178 -1.1377  3.2422
  247MOL0     H32594   4.605   8.882   3.398 -0.1291  0.0016 -0.2256
  247MOL0     H32595   4.774   8.906   3.436  0.9075  2.7635  0.8580
  247MOL0     H32596   4.663   8.994   3.206  2.6701 -0.5719 -1.0741
  247MOL0     H32597   4.635   9.138   3.303  0.3950  0.1685  0.0373
  247MOL0     H32598   4.913   9.011   3.259  0.1576 -0.3767 -0.0687
  247MOL0     H32599   4.863   9.154   3.357  2.4407  1.8315 -1.7621
  247MOL0     H32600   4.767   9.262   3.162 -1.9727 -1.0226  0.1894
  247MOL0     H32601   4.949   9.232   3.146 -1.7897  3.4618 -0.1494
  247MOL0     H32602   4.813   9.016   2.822  1.1642  3.0131 -1.9214
  247MOL0     H32603   4.505   8.819   3.575  0.5697 -1.8450  1.0832
  247MOL0     H32604   4.417   8.757   3.796 -1.4099  1.5455 -0.2829
  248MOL0     O32605   7.340   8.589   3.233 -0.5794  0.1102 -0.5120
  248MOL0     C32606   7.217   8.570   3.228 -0.4411  0.8491 -0.0570
  248MOL0     O32607   7.151   8.445   3.259  0.5265 -0.1423  0.0062
  248MOL0     C32608   7.198   8.351   3.336 -0.0839  0.6113  0.8621
  248MOL0     C32609   7.315   8.354   3.421  0.1334  0.7333  0.5502
  248MOL0     C32610   7.355   8.238   3.489 -0.2140 -0.8175 -0.4572
  248MOL0     C32611   7.301   8.117   3.459  0.0629 -0.5606  0.3377
  248MOL0     O32612   7.340   8.001   3.524 -1.4931  0.6245 -0.0246
  248MOL0     C32613   7.419   8.019   3.648 -0.7096 -0.1756  0.1262
  248MOL0     C32614   7.395   7.893   3.737  0.7892 -0.5707 -0.5857
  248MOL0     C32615   7.510   7.849   3.831  0.9439 -0.9882  0.9845
  248MOL0     C32616   7.461   7.757   3.934  0.2519 -0.2002 -0.3164
  248MOL0     C32617   7.569   7.693   4.018  0.1737  0.4843  0.4684
  248MOL0     C32618   7.670   7.792   4.094 -1.0440 -0.3680 -0.0738
  248MOL0     C32619   7.761   7.714   4.184 -0.3352 -0.1171 -0.8275
  248MOL0     C32620   7.835   7.809   4.271  0.0787  0.2417  0.1601
  248MOL0     N32621   7.934   7.748   4.350  0.3361 -0.7819 -0.4922
  248MOL0     C32622   7.944   7.777   4.485  0.0983  0.9260  0.6584
  248MOL0     C32623   8.044   7.694   4.534 -0.0270 -0.0293 -0.2216
  248MOL0     C32624   8.072   7.670   4.672  0.8154  0.6630 -0.3514
  248MOL0     C32625   8.223   7.636   4.710  0.4409 -0.3193  0.3419
  248MOL0     C32626   8.237   7.586   4.859 -0.0579  0.1149  0.3642
  248MOL0     C32627   8.385   7.539   4.896 -0.3863  0.5941 -0.4032
  248MOL0     O32628   8.402   7.506   5.041 -0.3121  0.2847 -0.0665
  248MOL0     C32629   8.391   7.612   5.126  0.8942 -0.8216  0.1939
  248MOL0     C32630   8.496   7.689   5.159  1.1389  0.1831 -0.2949
  248MOL0     C32631   8.481   7.788   5.263  0.3069  1.2231 -0.3789
  248MOL0     C32632   8.350   7.819   5.316 -0.4545 -0.3154 -0.2269
  248MOL0     C32633   8.325   7.934   5.406 -0.4000  0.5673 -0.3436
  248MOL0     O32634   8.207   7.994   5.388  0.4696  0.1244  0.6702
  248MOL0     C32635   8.188   8.110   5.457  0.0495  0.2503  1.1400
  248MOL0     C32636   8.155   8.229   5.382  0.0746  0.0760  0.5244
  248MOL0     C32637   8.110   8.336   5.462 -0.3904 -0.0488  0.2274
  248MOL0     C32638   8.107   8.330   5.604  0.0352  0.3899 -0.2412
  248MOL0     O32639   8.071   8.452   5.669 -0.1427  0.1576 -0.1825
  248MOL0     C32640   8.114   8.460   5.804 -0.8797 -0.4667  0.2686
  248MOL0     C32641   8.080   8.591   5.874  0.2696 -0.0313  0.5316
  248MOL0     C32642   7.928   8.613   5.891 -0.0121  0.4671 -0.1729
  248MOL0     C32643   7.905   8.735   5.972 -0.7188 -0.4467 -0.4733
  248MOL0     C32644   7.759   8.760   6.019  0.0181  0.9738  1.3408
  248MOL0     C32645   7.747   8.871   6.113  0.6508 -0.4228  0.8846
  248MOL0     C32646   7.787   8.835   6.252  0.0020 -0.3079 -0.4762
  248MOL0     C32647   7.770   8.941   6.367  0.4867 -0.5636 -0.6622
  248MOL0    Cl32648   7.595   8.963   6.406 -0.2863 -0.1105  0.7267
  248MOL0     C32649   8.151   8.217   5.674 -0.8862 -0.1574 -0.6230
  248MOL0     C32650   8.189   8.112   5.596 -0.3223  0.1015 -0.3449
  248MOL0     O32651   8.416   7.977   5.481  0.0744  0.2643  0.3854
  248MOL0     C32652   8.243   7.735   5.279  0.1382 -0.5457  0.0761
  248MOL0     C32653   8.263   7.632   5.188 -0.9057 -1.2449  0.4059
  248MOL0     N32654   8.097   7.626   4.422 -0.2066  0.8495 -0.4683
  248MOL0     N32655   8.025   7.646   4.320 -0.4061 -0.1925  1.3350
  248MOL0     C32656   7.189   8.109   3.371 -0.4653 -0.4769  0.6341
  248MOL0     C32657   7.140   8.225   3.311  0.0387 -0.2373  0.3030
  248MOL0     C32658   7.126   8.665   3.148 -1.1752 -0.5269  0.3344
  248MOL0     C32659   7.020   8.609   3.076  0.1279 -0.6392 -0.0393
  248MOL0     C32660   6.946   8.704   2.997 -0.0791  0.0118 -0.1915
  248MOL0     C32661   6.959   8.842   2.998  0.4619 -0.9580 -0.4174
  248MOL0     O32662   6.884   8.921   2.918  0.4671  0.0568  0.5547
  248MOL0     C32663   6.874   9.056   2.950 -0.1161 -0.9251 -0.1199
  248MOL0     C32664   6.822   9.102   3.088  0.2595  0.1854 -0.2529
  248MOL0     C32665   6.672   9.062   3.130  0.8164 -0.0900  0.1695
  248MOL0     C32666   6.646   8.908   3.142  0.6873 -0.2248  0.3670
  248MOL0     C32667   6.714   8.834   3.247  0.0252 -0.4453 -0.9061
  248MOL0     C32668   6.802   8.781   3.317  1.0457  0.0650  0.3154
  248MOL0     C32669   7.063   8.892   3.078  0.1103 -0.9644 -0.0942
  248MOL0     C32670   7.150   8.798   3.146  0.2355  0.1495  0.5897
  248MOL0     H32671   7.360   8.448   3.449  1.0963 -0.2383  2.3931
  248MOL0     H32672   7.429   8.254   3.567 -2.4673  0.4680  1.5170
  248MOL0     H32673   7.413   8.113   3.703  2.7596  1.2974 -1.7502
  248MOL0     H32674   7.525   8.018   3.621  0.2359  4.5838  2.5769
  248MOL0     H32675   7.356   7.804   3.687 -1.4319 -1.1046  1.8618
  248MOL0     H32676   7.308   7.928   3.794  1.3023  0.3609 -0.3455
  248MOL0     H32677   7.557   7.937   3.876  0.2196  0.4701 -0.9628
  248MOL0     H32678   7.585   7.794   3.772 -0.2529 -2.1821  0.5193
  248MOL0     H32679   7.400   7.815   4.003 -0.0610 -1.3321  0.3817
  248MOL0     H32680   7.401   7.679   3.886 -1.3701 -1.1205  2.9205
  248MOL0     H32681   7.625   7.619   3.961 -2.7780 -1.5436 -0.0148
  248MOL0     H32682   7.516   7.629   4.089  1.7106  0.0368  1.2435
  248MOL0     H32683   7.615   7.869   4.148  0.8383  1.1074 -0.1713
  248MOL0     H32684   7.731   7.836   4.015 -1.4139  3.3413  1.5112
  248MOL0     H32685   7.723   7.628   4.240 -1.6185 -0.8012 -2.6579
  248MOL0     H32686   7.839   7.668   4.123  2.5517  2.1141  0.9350
  248MOL0     H32687   7.769   7.847   4.350  0.0829 -0.5712  0.5616
  248MOL0     H32688   7.876   7.890   4.210 -0.2147  1.8707  2.0258
  248MOL0     H32689   7.867   7.824   4.545 -0.2975 -0.4923  1.3067
  248MOL0     H32690   8.008   7.590   4.709  0.2504  1.8347  1.3397
  248MOL0     H32691   8.036   7.764   4.714  1.5975  0.9367 -0.2722
  248MOL0     H32692   8.297   7.707   4.670  1.0433 -1.5889 -0.8722
  248MOL0     H32693   8.262   7.550   4.656  1.4463  1.3951 -1.8499
  248MOL0     H32694   8.202   7.660   4.932 -0.5796 -0.5017  0.7463
  248MOL0     H32695   8.180   7.493   4.864  1.7083 -1.0763 -0.6625
  248MOL0     H32696   8.461   7.612   4.867 -0.1092  0.1458 -0.8204
  248MOL0     H32697   8.396   7.452   4.830  0.0625  0.5098 -0.2224
  248MOL0     H32698   8.597   7.659   5.133  0.7371 -2.1629  0.6387
  248MOL0     H32699   8.566   7.849   5.293  1.7586 -0.8813 -0.0328
  248MOL0     H32700   8.160   8.232   5.273 -0.1870 -0.6172  0.4891
  248MOL0     H32701   8.066   8.424   5.416 -1.8553  0.6489  2.7653
  248MOL0     H32702   8.219   8.435   5.825 -1.3584 -1.5081  1.5327
  248MOL0     H32703   8.061   8.375   5.848  0.9604 -2.0396 -0.3881
  248MOL0     H32704   8.111   8.672   5.808 -0.4790 -0.6177 -0.5656
  248MOL0     H32705   8.125   8.589   5.974 -0.9117 -0.7489  1.0734
  248MOL0     H32706   7.874   8.529   5.935  1.9491 -0.6456  0.2273
  248MOL0     H32707   7.874   8.621   5.796 -0.2458  3.6719  0.0967
  248MOL0     H32708   7.976   8.744   6.055 -2.2830  0.5104  0.8126
  248MOL0     H32709   7.933   8.818   5.907 -1.7042  2.2655  2.3242
  248MOL0     H32710   7.727   8.664   6.061  4.7573 -0.5804  2.0705
  248MOL0     H32711   7.696   8.782   5.933  0.6958  0.8043  0.7897
  248MOL0     H32712   7.644   8.907   6.119  0.5345 -0.6673  0.4748
  248MOL0     H32713   7.814   8.952   6.081  0.2173  0.3271  1.8532
  248MOL0     H32714   7.748   8.738   6.284 -2.0810  1.2692  2.1719
  248MOL0     H32715   7.896   8.832   6.259  0.0354 -0.6231 -1.1368
  248MOL0     H32716   7.818   9.037   6.348 -1.3360  0.1554 -1.9251
  248MOL0     H32717   7.829   8.905   6.451  0.1832  0.0060 -0.1948
  248MOL0     H32718   8.162   8.208   5.781 -2.3969 -0.5989 -0.4813
  248MOL0     H32719   8.214   8.017   5.642  1.0877  0.7059  0.1995
  248MOL0     H32720   8.145   7.743   5.324 -0.6429  0.1280 -1.6558
  248MOL0     H32721   8.175   7.574   5.165 -0.5419 -0.3923 -3.9870
  248MOL0     H32722   7.155   8.009   3.344 -0.5399 -0.7570  1.7059
  248MOL0     H32723   7.048   8.226   3.253  0.0355 -1.2590  0.2659
  248MOL0     H32724   6.999   8.503   3.067 -1.5235 -0.1451 -3.4469
  248MOL0     H32725   6.862   8.669   2.939  0.3811 -0.9611 -0.2733
  248MOL0     H32726   6.813   9.103   2.872 -0.1464 -2.1901 -0.8864
  248MOL0     H32727   6.969   9.109   2.935  0.5523 -1.6479  1.3418
  248MOL0     H32728   6.879   9.041   3.158  0.4619 -3.1951 -3.0897
  248MOL0     H32729   6.851   9.206   3.106  1.0744  0.3411 -2.2395
  248MOL0     H32730   6.610   9.090   3.045  0.6156  0.2403  0.4191
  248MOL0     H32731   6.634   9.098   3.226  0.7629  0.3388 -0.0095
  248MOL0     H32732   6.539   8.896   3.161  0.5877  1.4107  0.9756
  248MOL0     H32733   6.671   8.856   3.049 -3.2254 -0.1438 -0.9371
  248MOL0     H32734   6.872   8.734   3.384  0.7067 -1.1512 -0.1505
  248MOL0     H32735   7.092   8.995   3.064 -1.2581 -0.2083  2.0202
  248MOL0     H32736   7.241   8.832   3.193  0.2909  0.8253 -0.0068
  249MOL0     O32737   1.831   1.585   6.782 -0.2748  0.7227  0.1703
  249MOL0     C32738   1.876   1.542   6.896  0.7355  0.5565  0.6203
  249MOL0     O32739   1.804   1.527   7.006  0.0996  0.1668 -0.2775
  249MOL0     C32740   1.701   1.606   7.037  0.4198  0.3984  0.6771
  249MOL0     C32741   1.569   1.557   7.028  0.1465 -0.6658  0.9078
  249MOL0     C32742   1.464   1.651   7.061 -0.5593 -0.2819  0.5837
  249MOL0     C32743   1.489   1.777   7.129 -0.2753  1.3069  0.2998
  249MOL0     O32744   1.387   1.858   7.173 -0.2971 -0.4128 -0.0626
  249MOL0     C32745   1.250   1.822   7.164  0.2014 -0.2560  0.6293
  249MOL0     C32746   1.161   1.928   7.232 -0.8353  0.9745  0.7511
  249MOL0     C32747   1.013   1.918   7.200  0.0975 -0.0914  0.3988
  249MOL0     C32748   0.931   2.016   7.287 -0.5216 -0.6699  0.2055
  249MOL0     C32749   0.787   2.016   7.247  0.6513  0.5032  0.1435
  249MOL0     C32750   0.697   1.964   7.356  0.5603  0.2854  0.3715
  249MOL0     C32751   0.652   1.817   7.326  0.4602  1.1917 -0.6972
  249MOL0     C32752   0.579   1.766   7.439  0.5207 -0.0072 -0.2895
  249MOL0     N32753   0.464   1.686   7.410  0.1039 -0.6106  0.6105
  249MOL0     C32754   0.340   1.737   7.360 -0.1908  0.0935 -0.3800
  249MOL0     C32755   0.261   1.633   7.348  0.1755  0.5552  0.0109
  249MOL0     C32756   0.121   1.632   7.301  0.4890  0.7170  0.7649
  249MOL0     C32757   0.034   1.706   7.405 -0.0708 -0.3589  0.1584
  249MOL0     C32758   0.041   1.646   7.545  0.1187  0.6514 -0.9243
  249MOL0     C32759   0.011   1.495   7.557 -0.0370 -0.9594  0.6627
  249MOL0     O32760   0.001   1.466   7.695 -0.1044 -0.3854  0.1510
  249MOL0     C32761  -0.120   1.457   7.755 -0.3374 -0.3766  0.3372
  249MOL0     C32762  -0.241   1.520   7.711  0.5358  0.1509  0.0355
  249MOL0     C32763  -0.358   1.499   7.777  0.7715  0.2147  0.5923
  249MOL0     C32764  -0.359   1.433   7.906  0.6529  0.7826  0.1029
  249MOL0     C32765  -0.480   1.437   7.986 -0.5772 -0.3495  0.5127
  249MOL0     O32766  -0.585   1.503   7.938  0.1151  0.0622 -0.1181
  249MOL0     C32767  -0.692   1.509   8.020  0.1631  0.2995  0.0211
  249MOL0     C32768  -0.695   1.523   8.159 -0.4039  0.3795 -1.1613
  249MOL0     C32769  -0.819   1.531   8.216  1.0058  0.8779 -0.1990
  249MOL0     C32770  -0.942   1.495   8.155  0.3943  0.7983 -0.1336
  249MOL0     O32771  -1.067   1.481   8.208 -0.9596  0.0099  0.0718
  249MOL0     C32772  -1.073   1.377   8.301 -0.5711 -0.9769 -0.3824
  249MOL0     C32773  -1.226   1.345   8.330 -0.0413  0.7164 -0.7387
  249MOL0     C32774  -1.307   1.448   8.411  0.2815 -0.1119 -0.4827
  249MOL0     C32775  -1.319   1.582   8.332 -0.1639 -0.5727 -0.8895
  249MOL0     C32776  -1.405   1.672   8.420  0.6767 -0.7469  0.3627
  249MOL0     C32777  -1.428   1.814   8.370  0.3102 -0.5356  1.1723
  249MOL0     C32778  -1.306   1.904   8.392 -0.1617  0.7074 -0.5101
  249MOL0     C32779  -1.304   2.040   8.328 -0.2272  0.0026  0.5376
  249MOL0    Cl32780  -1.435   2.135   8.415 -0.3381  0.5432  0.5047
  249MOL0     C32781  -0.928   1.488   8.019 -0.2189 -0.0463  0.7755
  249MOL0     C32782  -0.813   1.493   7.947  0.0823 -0.2281 -0.3666
  249MOL0     O32783  -0.478   1.368   8.087 -0.8290  0.8834 -0.0784
  249MOL0     C32784  -0.241   1.370   7.949 -0.4088  0.9600  0.7020
  249MOL0     C32785  -0.122   1.387   7.875  0.0848  0.4866  0.9236
  249MOL0     N32786   0.334   1.514   7.371  0.3358  0.1650 -0.3838
  249MOL0     N32787   0.454   1.546   7.405 -0.5155  0.1268 -0.8266
  249MOL0     C32788   1.631   1.812   7.137 -0.0457 -0.9806  1.0687
  249MOL0     C32789   1.731   1.731   7.087  0.5438  0.0914 -0.3893
  249MOL0     C32790   2.011   1.478   6.897  0.4304  0.9739  0.6571
  249MOL0     C32791   2.042   1.396   7.004 -0.4558  0.4971 -0.2288
  249MOL0     C32792   2.167   1.335   7.017  1.5806  0.2488  0.1001
  249MOL0     C32793   2.265   1.359   6.907 -0.2075  0.6485 -0.1458
  249MOL0     O32794   2.397   1.315   6.896  0.5428 -0.0591 -0.1831
  249MOL0     C32795   2.460   1.269   7.019 -0.2422 -0.2487  0.4416
  249MOL0     C32796   2.595   1.209   7.007 -1.5621  0.2664 -0.1357
  249MOL0     C32797   2.664   1.203   7.147 -0.0227  0.3315  0.2127
  249MOL0     C32798   2.818   1.208   7.121  0.6861 -0.1833 -0.6727
  249MOL0     C32799   2.889   1.236   7.249 -0.9114 -0.4126 -0.4032
  249MOL0     C32800   2.959   1.229   7.347  0.4771 -0.2852  0.1015
  249MOL0     C32801   2.223   1.428   6.791 -0.1957  0.7699  0.9654
  249MOL0     C32802   2.097   1.488   6.786 -0.0953  0.3865 -0.3305
  249MOL0     H32803   1.543   1.457   6.994 -0.7391 -0.3799  0.7130
  249MOL0     H32804   1.363   1.617   7.038 -0.2993  0.1394 -1.4431
  249MOL0     H32805   1.247   1.722   7.208 -1.5412 -0.2774  0.5373
  249MOL0     H32806   1.211   1.795   7.065  0.3888 -0.1166  0.5176
  249MOL0     H32807   1.205   2.020   7.192  2.2496 -0.0229  1.6145
  249MOL0     H32808   1.188   1.927   7.338  1.6644 -2.1317  0.2248
  249MOL0     H32809   0.989   1.815   7.228  1.4308 -0.5309 -0.0058
  249MOL0     H32810   0.995   1.925   7.093  0.7045  3.6449  0.4227
  249MOL0     H32811   0.961   1.977   7.385  0.0617 -2.3753 -0.6068
  249MOL0     H32812   0.965   2.120   7.283 -3.2863  0.2631 -2.6168
  249MOL0     H32813   0.772   1.961   7.154  0.3473  1.8512 -0.6262
  249MOL0     H32814   0.749   2.118   7.234  0.8970  0.4895 -0.7264
  249MOL0     H32815   0.611   2.031   7.363  1.9463  2.2856 -0.5763
  249MOL0     H32816   0.749   1.963   7.453  3.1261 -2.2992 -0.8758
  249MOL0     H32817   0.576   1.811   7.248  1.2426 -5.1261 -1.4459
  249MOL0     H32818   0.735   1.754   7.297  0.9798  1.8654 -0.6958
  249MOL0     H32819   0.546   1.850   7.502  0.2927 -1.7320  2.0281
  249MOL0     H32820   0.644   1.701   7.497  0.9378  1.6944  1.2619
  249MOL0     H32821   0.318   1.838   7.327 -1.6867  0.1296  0.6468
  249MOL0     H32822   0.093   1.527   7.290  0.3159  0.6724  1.5925
  249MOL0     H32823   0.118   1.683   7.204  2.4938  3.0803  1.8300
  249MOL0     H32824  -0.070   1.697   7.373 -0.9979 -1.0763  3.0787
  249MOL0     H32825   0.061   1.812   7.403 -1.1069 -0.0951 -0.5657
  249MOL0     H32826   0.136   1.664   7.595 -0.6482  1.4258  0.3028
  249MOL0     H32827  -0.038   1.691   7.605 -0.3799 -4.0846  2.6110
  249MOL0     H32828   0.085   1.430   7.510  0.3238 -0.8197  1.0408
  249MOL0     H32829  -0.080   1.479   7.498  1.2766 -1.1034 -1.4399
  249MOL0     H32830  -0.254   1.575   7.618 -2.9665  1.0357  0.9090
  249MOL0     H32831  -0.452   1.547   7.750 -0.4352 -1.9302  0.7967
  249MOL0     H32832  -0.613   1.540   8.227 -1.6377  0.1432  0.4574
  249MOL0     H32833  -0.830   1.569   8.317 -0.4048  0.3905 -0.1502
  249MOL0     H32834  -1.045   1.422   8.397  0.5163  1.9495 -1.9666
  249MOL0     H32835  -1.027   1.283   8.270  4.1780  0.4625  1.3979
  249MOL0     H32836  -1.222   1.248   8.380 -1.7752 -1.0034 -3.5978
  249MOL0     H32837  -1.283   1.321   8.239 -1.2688 -7.1971  1.3538
  249MOL0     H32838  -1.252   1.464   8.504  0.4091 -2.9429  0.0260
  249MOL0     H32839  -1.407   1.407   8.428  0.3444  0.4300  1.4019
  249MOL0     H32840  -1.221   1.620   8.302  1.1291 -2.1298  1.1805
  249MOL0     H32841  -1.383   1.564   8.244  0.7130  4.2263 -2.8530
  249MOL0     H32842  -1.382   1.669   8.526 -1.2066  2.7028  0.9944
  249MOL0     H32843  -1.511   1.644   8.423 -0.9617  4.5382  2.0118
  249MOL0     H32844  -1.510   1.870   8.415  2.0238  2.9800  0.3051
  249MOL0     H32845  -1.455   1.816   8.265  1.1261  3.9533  0.8592
  249MOL0     H32846  -1.287   1.905   8.500 -0.7013  1.1578 -0.4172
  249MOL0     H32847  -1.220   1.849   8.352  1.0355  2.5828 -0.6295
  249MOL0     H32848  -1.313   2.036   8.219  0.3488 -0.5509  0.5048
  249MOL0     H32849  -1.202   2.074   8.346 -0.0835 -0.6877  1.0173
  249MOL0     H32850  -1.020   1.468   7.965 -0.3688  1.9445  0.2172
  249MOL0     H32851  -0.800   1.480   7.840  0.8029 -1.2205 -0.1756
  249MOL0     H32852  -0.234   1.304   8.035  2.3667 -0.6770 -0.6354
  249MOL0     H32853  -0.032   1.345   7.920  1.3024  0.3031 -1.4694
  249MOL0     H32854   1.650   1.910   7.178  0.9159  0.4173 -2.3439
  249MOL0     H32855   1.836   1.759   7.091  0.9648 -1.1801 -1.6758
  249MOL0     H32856   1.982   1.385   7.093  3.4357 -2.5949  2.3925
  249MOL0     H32857   2.195   1.285   7.109  1.5393  2.0438  1.1483
  249MOL0     H32858   2.401   1.189   7.063 -0.0452 -0.2308  0.7502
  249MOL0     H32859   2.451   1.353   7.089  0.7754  1.6489 -1.5630
  249MOL0     H32860   2.584   1.105   6.976  3.3440 -1.2524  2.2182
  249MOL0     H32861   2.651   1.270   6.936 -0.9174 -1.9095 -1.5911
  249MOL0     H32862   2.633   1.106   7.186  0.7443 -0.7056 -1.6053
  249MOL0     H32863   2.630   1.277   7.219 -0.9371 -0.8722  1.0728
  249MOL0     H32864   2.861   1.114   7.085  4.9785  0.9432  0.8880
  249MOL0     H32865   2.833   1.288   7.048 -1.1097 -0.5028 -1.4312
  249MOL0     H32866   3.024   1.232   7.432 -1.4028  1.4891  1.5992
  249MOL0     H32867   2.296   1.441   6.711  0.0433  1.3596  1.2688
  249MOL0     H32868   2.061   1.550   6.704 -2.3202 -1.8476 -1.1605
  250MOL0     O32869   2.400   0.531   1.322 -0.0923 -0.4701  0.3734
  250MOL0     C32870   2.419   0.519   1.203 -0.0170  0.0882  1.0109
  250MOL0     O32871   2.420   0.399   1.133  0.3486  0.4212 -0.0170
  250MOL0     C32872   2.373   0.281   1.185  0.9494  0.5571 -0.2807
  250MOL0     C32873   2.303   0.185   1.107 -0.4062  0.0533 -0.7243
  250MOL0     C32874   2.268   0.064   1.156  0.0996 -0.1378  0.9890
  250MOL0     C32875   2.295   0.040   1.286 -0.6575  0.1172  0.5414
  250MOL0     O32876   2.240  -0.080   1.343  0.9605  0.9858  0.2165
  250MOL0     C32877   2.187  -0.190   1.254 -0.2996  0.2429 -0.7271
  250MOL0     C32878   2.132  -0.322   1.318 -0.5581  0.3441 -0.3904
  250MOL0     C32879   2.037  -0.397   1.228 -0.5236 -0.4808  0.0236
  250MOL0     C32880   1.969  -0.522   1.295  0.2884 -0.4506  0.0126
  250MOL0     C32881   1.841  -0.572   1.231 -0.8293  0.1296 -0.1357
  250MOL0     C32882   1.850  -0.619   1.086  1.3059 -0.6536 -0.2760
  250MOL0     C32883   1.709  -0.650   1.028 -0.4820  0.7186 -0.4973
  250MOL0     C32884   1.632  -0.763   1.096 -0.1365  0.7644 -0.1495
  250MOL0     N32885   1.697  -0.894   1.074 -0.6252  0.3400 -0.2318
  250MOL0     C32886   1.784  -0.957   1.162  0.7205 -0.7701 -0.0397
  250MOL0     C32887   1.805  -1.078   1.111 -0.0860 -0.0398  0.5725
  250MOL0     C32888   1.898  -1.185   1.159  0.2194  0.1295  0.5427
  250MOL0     C32889   1.930  -1.154   1.306 -1.1972  0.3013  0.0657
  250MOL0     C32890   2.002  -1.266   1.376  0.0565 -0.5683 -0.4726
  250MOL0     C32891   2.135  -1.214   1.445 -0.2957 -0.8447  0.3722
  250MOL0     O32892   2.200  -1.327   1.516 -0.0753 -0.2833  0.1254
  250MOL0     C32893   2.295  -1.402   1.454 -0.2325  0.0717 -0.5753
  250MOL0     C32894   2.354  -1.514   1.527 -0.5015 -0.6329  0.3424
  250MOL0     C32895   2.450  -1.594   1.463  0.5872  0.4906  0.0603
  250MOL0     C32896   2.489  -1.564   1.331 -0.3838 -1.4018  0.8508
  250MOL0     C32897   2.581  -1.657   1.257 -0.1183 -0.3297 -0.2674
  250MOL0     O32898   2.665  -1.726   1.343  0.1523 -0.9000 -0.1615
  250MOL0     C32899   2.770  -1.806   1.300  0.1117 -0.1112 -0.2459
  250MOL0     C32900   2.804  -1.913   1.391  0.0989  0.4080  0.2934
  250MOL0     C32901   2.903  -2.012   1.352  1.3466 -0.0215 -0.0680
  250MOL0     C32902   2.980  -1.992   1.240  0.6879  0.3862 -0.5835
  250MOL0     O32903   3.081  -2.085   1.220  0.5588  0.3197  0.7408
  250MOL0     C32904   3.023  -2.200   1.149 -0.9086  0.3735  0.5664
  250MOL0     C32905   3.126  -2.313   1.134  0.1215 -0.4986 -0.8040
  250MOL0     C32906   3.072  -2.453   1.091  0.7429 -0.3203 -0.7141
  250MOL0     C32907   3.192  -2.544   1.084  0.2684 -0.5357 -0.4681
  250MOL0     C32908   3.153  -2.689   1.045 -0.1412  0.1202 -0.7842
  250MOL0     C32909   3.280  -2.755   0.997 -0.6298  0.4166  0.1669
  250MOL0     C32910   3.253  -2.892   0.949 -0.7175  0.5800  0.1942
  250MOL0     C32911   3.375  -2.953   0.886 -0.9986 -0.4458  0.0164
  250MOL0    Cl32912   3.346  -3.099   0.780  0.2316  0.2156  0.3262
  250MOL0     C32913   2.950  -1.880   1.160  0.0091  0.6112  0.1800
  250MOL0     C32914   2.846  -1.799   1.185  0.7000  0.2015  0.4331
  250MOL0     O32915   2.552  -1.690   1.139 -0.3877 -0.2391 -0.6627
  250MOL0     C32916   2.440  -1.454   1.265  0.0222 -0.1163  0.4390
  250MOL0     C32917   2.341  -1.373   1.326 -0.3237  0.5467  0.3721
  250MOL0     N32918   1.731  -1.098   0.997  0.2483  0.3988 -0.1475
  250MOL0     N32919   1.676  -0.983   0.971  0.4786 -0.2316  0.8009
  250MOL0     C32920   2.373   0.130   1.365  1.1316  0.4241 -0.4014
  250MOL0     C32921   2.405   0.246   1.313  0.3047 -0.3058  0.3827
  250MOL0     C32922   2.418   0.645   1.106  1.7146  0.2285 -0.6408
  250MOL0     C32923   2.429   0.613   0.970  0.0370  0.0967  0.6794
  250MOL0     C32924   2.401   0.712   0.867 -0.0731  0.0696 -0.1694
  250MOL0     C32925   2.364   0.845   0.901  0.2099 -0.0651  0.4561
  250MOL0     O32926   2.358   0.937   0.805  0.3975 -0.7444  0.4088
  250MOL0     C32927   2.224   0.954   0.754 -0.2309 -0.4414 -0.3752
  250MOL0     C32928   2.166   1.063   0.848 -0.4773 -0.6841  0.1116
  250MOL0     C32929   2.248   1.200   0.832 -0.3428  0.8025  0.2137
  250MOL0     C32930   2.288   1.237   0.680 -0.3272  0.6171 -0.2426
  250MOL0     C32931   2.189   1.251   0.576  0.2094 -0.0020  0.0466
  250MOL0     C32932   2.103   1.285   0.496 -0.5885  0.4865 -0.0890
  250MOL0     C32933   2.359   0.877   1.038  0.4422  0.4275  0.2676
  250MOL0     C32934   2.371   0.781   1.141  0.2272  1.4319  0.1571
  250MOL0     H32935   2.287   0.211   1.003  3.3198 -0.8076 -1.6582
  250MOL0     H32936   2.218   0.004   1.081  2.0387  0.2319 -0.6837
  250MOL0     H32937   2.259  -0.220   1.177 -1.4726 -3.2813 -0.6034
  250MOL0     H32938   2.101  -0.140   1.208 -0.2108 -0.0011 -1.1681
  250MOL0     H32939   2.067  -0.293   1.401  0.9900 -0.7542  1.2871
  250MOL0     H32940   2.213  -0.390   1.347 -0.5085  1.3640  2.1762
  250MOL0     H32941   2.095  -0.434   1.143  2.3572 -0.2861  1.7672
  250MOL0     H32942   1.955  -0.339   1.185  1.1275  1.0745 -1.1955
  250MOL0     H32943   2.045  -0.600   1.288  1.4999  0.7003  0.0537
  250MOL0     H32944   1.957  -0.493   1.400  4.6974 -1.5213  1.0116
  250MOL0     H32945   1.760  -0.498   1.230 -1.1392 -0.2117 -1.2783
  250MOL0     H32946   1.805  -0.655   1.293  0.1332 -1.4199 -1.5933
  250MOL0     H32947   1.922  -0.701   1.080  1.5058 -0.5672  0.8791
  250MOL0     H32948   1.881  -0.531   1.028 -0.3782  0.4995  0.5009
  250MOL0     H32949   1.653  -0.556   1.041 -0.4920  1.0927 -2.8672
  250MOL0     H32950   1.712  -0.684   0.924  2.7681  1.0645 -0.6196
  250MOL0     H32951   1.530  -0.766   1.058 -0.3610  4.3848 -0.1310
  250MOL0     H32952   1.625  -0.761   1.206  4.7292  0.4067  0.3980
  250MOL0     H32953   1.835  -0.915   1.248  0.5942 -0.2106 -0.2316
  250MOL0     H32954   1.986  -1.200   1.096  1.3452 -1.3811  2.3927
  250MOL0     H32955   1.838  -1.276   1.158 -0.5301  0.6124  0.7431
  250MOL0     H32956   1.837  -1.136   1.360 -1.2970  1.4647 -0.4616
  250MOL0     H32957   1.996  -1.067   1.306  0.2271 -0.5930 -3.7170
  250MOL0     H32958   1.945  -1.310   1.458  3.8056 -2.0120  1.6305
  250MOL0     H32959   2.027  -1.355   1.317 -0.2396 -0.8138 -0.2321
  250MOL0     H32960   2.108  -1.144   1.525  0.0757 -3.8303  3.3125
  250MOL0     H32961   2.204  -1.159   1.380  1.9564 -0.6089  2.8191
  250MOL0     H32962   2.327  -1.540   1.629  2.1026 -4.6088  0.2056
  250MOL0     H32963   2.488  -1.677   1.521 -0.0116  1.1812  1.5085
  250MOL0     H32964   2.766  -1.923   1.492 -2.6258  2.3001 -0.4256
  250MOL0     H32965   2.917  -2.101   1.413 -1.7257  0.3983  1.4248
  250MOL0     H32966   2.979  -2.174   1.052 -0.3759 -3.3945 -0.8525
  250MOL0     H32967   2.932  -2.238   1.198  0.3305 -1.6507  1.4358
  250MOL0     H32968   3.186  -2.324   1.225  0.4345 -0.2413 -0.9775
  250MOL0     H32969   3.179  -2.281   1.044 -0.1233 -0.6780 -1.0113
  250MOL0     H32970   3.028  -2.445   0.991 -0.4885 -1.3412 -0.2776
  250MOL0     H32971   2.997  -2.475   1.167 -0.9933  6.0849 -0.0095
  250MOL0     H32972   3.269  -2.513   1.012  0.9417 -3.8001 -1.3352
  250MOL0     H32973   3.233  -2.539   1.185  0.0433 -1.2952 -0.3357
  250MOL0     H32974   3.068  -2.689   0.976 -3.5295  5.0667  2.7050
  250MOL0     H32975   3.108  -2.741   1.130 -0.1724  2.1941  0.5287
  250MOL0     H32976   3.359  -2.752   1.073 -0.9007  0.5836  0.4455
  250MOL0     H32977   3.323  -2.693   0.918 -0.0364  1.7605  1.4763
  250MOL0     H32978   3.209  -2.960   1.022 -0.9090  0.1579 -0.3094
  250MOL0     H32979   3.179  -2.885   0.869  0.4455 -1.7198 -1.1926
  250MOL0     H32980   3.452  -2.970   0.963 -0.6758 -0.5948 -0.3359
  250MOL0     H32981   3.418  -2.873   0.825 -1.1959 -0.5163 -0.2137
  250MOL0     H32982   3.008  -1.840   1.078 -0.8038  1.2925 -0.0807
  250MOL0     H32983   2.834  -1.715   1.117 -1.3490  0.5267  1.1284
  250MOL0     H32984   2.466  -1.446   1.160  3.3049 -1.2043  1.0261
  250MOL0     H32985   2.294  -1.306   1.255 -0.3132 -0.1350 -0.2877
  250MOL0     H32986   2.396   0.087   1.462  1.3242 -1.6893 -1.3298
  250MOL0     H32987   2.455   0.312   1.382 -1.8639 -1.7619  3.5989
  250MOL0     H32988   2.455   0.514   0.933 -1.4977  0.4329 -1.4836
  250MOL0     H32989   2.400   0.678   0.764 -2.2059 -2.1815  0.5117
  250MOL0     H32990   2.163   0.863   0.757 -1.5887 -0.0411 -5.6672
  250MOL0     H32991   2.226   0.964   0.646 -0.0866  0.3250 -0.3096
  250MOL0     H32992   2.059   1.069   0.828  0.1308  1.6544 -3.2955
  250MOL0     H32993   2.178   1.030   0.952  0.6574  0.0573  0.2342
  250MOL0     H32994   2.350   1.196   0.871  0.9482 -3.2035 -2.8845
  250MOL0     H32995   2.196   1.281   0.884 -1.5621  0.5397 -0.5578
  250MOL0     H32996   2.342   1.332   0.686  4.9954 -2.0992  0.3841
  250MOL0     H32997   2.361   1.167   0.640 -1.7796 -0.6346 -0.7796
  250MOL0     H32998   2.041   1.308   0.411  2.5032 -1.1367 -3.0571
  250MOL0     H32999   2.357   0.982   1.064  1.0744  0.7562 -0.9449
  250MOL0     H33000   2.346   0.798   1.246 -1.4115 -0.7405  0.1837
  251MOL0     O33001   4.178  10.860  10.285  0.0693  0.1476 -0.6875
  251MOL0     C33002   4.155  10.829  10.399  0.0288  0.2946  0.0981
  251MOL0     O33003   4.039  10.841  10.466  0.4099  0.8698  0.1525
  251MOL0     C33004   3.919  10.878  10.411  0.2314 -0.4497 -0.4238
  251MOL0     C33005   3.813  10.828  10.487  0.3838 -0.8160 -0.6210
  251MOL0     C33006   3.677  10.854  10.448  0.6569 -0.1654 -0.0372
  251MOL0     C33007   3.652  10.933  10.326  0.0086 -0.8484 -0.5285
  251MOL0     O33008   3.524  10.966  10.282  0.6493 -0.8399  0.4097
  251MOL0     C33009   3.409  10.939  10.358 -0.3309 -0.3694  0.0823
  251MOL0     C33010   3.380  11.067  10.441 -0.2281 -0.2720  0.2536
  251MOL0     C33011   3.296  11.169  10.374 -0.0169 -0.1822 -0.3191
  251MOL0     C33012   3.373  11.225  10.257  0.2567 -0.2948 -0.1089
  251MOL0     C33013   3.296  11.345  10.198 -0.7955 -0.1182  0.0199
  251MOL0     C33014   3.354  11.370  10.053  0.3340 -0.2504  0.2536
  251MOL0     C33015   3.476  11.463  10.068  0.6879 -0.4696 -0.4307
  251MOL0     C33016   3.551  11.508   9.942  0.1932  0.6168  0.2208
  251MOL0     N33017   3.644  11.405   9.879 -0.9892 -1.1640  0.4691
  251MOL0     C33018   3.690  11.404   9.744 -0.7270 -0.3309  0.1860
  251MOL0     C33019   3.779  11.299   9.747  0.1431 -0.3679 -0.3702
  251MOL0     C33020   3.853  11.271   9.622  1.2782  0.0630 -0.4742
  251MOL0     C33021   3.992  11.341   9.627 -1.0082 -0.5379 -0.2242
  251MOL0     C33022   4.069  11.294   9.757 -0.6487  0.1534 -0.0953
  251MOL0     C33023   4.218  11.330   9.749 -0.1130  0.7475  0.7922
  251MOL0     O33024   4.256  11.407   9.869 -0.0712  0.8653 -0.3478
  251MOL0     C33025   4.303  11.332   9.979 -0.7069 -0.3955  0.0663
  251MOL0     C33026   4.356  11.408  10.082  0.0092  0.3115  0.0491
  251MOL0     C33027   4.407  11.350  10.201 -0.4102  0.4976  0.9214
  251MOL0     C33028   4.403  11.216  10.223 -0.0808  0.5319 -0.4452
  251MOL0     C33029   4.467  11.155  10.345  0.7507 -0.0107 -0.9173
  251MOL0     O33030   4.532  11.042  10.334  0.0427  0.4223  1.3658
  251MOL0     C33031   4.619  10.991  10.428 -0.0204 -0.7175 -0.2960
  251MOL0     C33032   4.717  10.908  10.376 -0.2400 -0.3989 -0.3277
  251MOL0     C33033   4.825  10.858  10.456  0.8183 -0.1550 -0.1335
  251MOL0     C33034   4.842  10.901  10.593 -0.1139 -0.3859  0.3790
  251MOL0     O33035   4.953  10.864  10.659 -0.7805  0.0199 -0.4630
  251MOL0     C33036   4.975  10.888  10.804 -0.5328 -1.7135 -1.1787
  251MOL0     C33037   5.097  10.827  10.855  0.6191  0.1873  1.0437
  251MOL0     C33038   5.227  10.917  10.834  0.1209  0.7124  0.8648
  251MOL0     C33039   5.362  10.857  10.887  0.5114  0.6288  0.1308
  251MOL0     C33040   5.477  10.952  10.848 -0.1185 -0.1665  0.7510
  251MOL0     C33041   5.610  10.891  10.901 -0.0022 -0.6289  0.3962
  251MOL0     C33042   5.721  10.986  10.869 -0.2257  0.4775  0.3380
  251MOL0     C33043   5.851  10.920  10.913 -0.3080  0.6610 -0.3971
  251MOL0    Cl33044   5.983  11.020  10.866 -0.1345 -0.1139 -0.5129
  251MOL0     C33045   4.744  10.979  10.652  0.5276  0.1043  0.0211
  251MOL0     C33046   4.632  11.022  10.570 -0.7537  0.0519 -0.2036
  251MOL0     O33047   4.453  11.228  10.446 -0.8184 -0.2025  1.1999
  251MOL0     C33048   4.334  11.131  10.126 -0.9686  0.0385 -0.1430
  251MOL0     C33049   4.298  11.190  10.001  0.5495  0.1775  1.1683
  251MOL0     N33050   3.794  11.241   9.869  0.0459 -0.5091  0.2516
  251MOL0     N33051   3.715  11.307   9.955 -0.0480  0.3623  0.3765
  251MOL0     C33052   3.761  10.974  10.259  0.7678 -1.4700 -0.2697
  251MOL0     C33053   3.891  10.955  10.298  0.5659 -0.0630 -0.0443
  251MOL0     C33054   4.261  10.751  10.472  0.0211 -0.1797  0.2721
  251MOL0     C33055   4.391  10.734  10.427 -0.9175  0.5572  0.0009
  251MOL0     C33056   4.483  10.670  10.506 -0.2030 -0.2750  0.0864
  251MOL0     C33057   4.449  10.598  10.620  0.6763 -0.9567  0.9825
  251MOL0     O33058   4.536  10.548  10.710 -0.4847  0.3037 -1.0855
  251MOL0     C33059   4.681  10.527  10.680  0.5890 -0.0674  0.8119
  251MOL0     C33060   4.735  10.403  10.750  0.3283 -0.8583 -0.1278
  251MOL0     C33061   4.687  10.396  10.903  0.3299 -0.7101  1.1859
  251MOL0     C33062   4.662  10.252  10.943 -0.3806 -0.5888  0.2537
  251MOL0     C33063   4.542  10.196  10.897  0.4947  0.6004  0.6856
  251MOL0     C33064   4.441  10.156  10.839 -0.0731  0.0105 -0.3072
  251MOL0     C33065   4.315  10.605  10.654  0.5670  0.4116  0.2050
  251MOL0     C33066   4.220  10.675  10.582  0.0115 -0.7671  0.0017
  251MOL0     H33067   3.835  10.769  10.576 -1.9757  2.9895  2.8710
  251MOL0     H33068   3.593  10.821  10.509  1.4859 -3.9844 -0.6894
  251MOL0     H33069   3.422  10.852  10.423  4.1365  0.7300  1.0391
  251MOL0     H33070   3.326  10.924  10.289 -0.1083 -0.7119 -0.1159
  251MOL0     H33071   3.473  11.114  10.475  2.9865 -3.4739 -3.1849
  251MOL0     H33072   3.322  11.031  10.527 -0.6515 -0.4792 -0.1175
  251MOL0     H33073   3.285  11.241  10.455  0.2791 -3.7314  3.1424
  251MOL0     H33074   3.200  11.120  10.355 -0.2736  0.4434 -0.6747
  251MOL0     H33075   3.467  11.267  10.295  0.7763 -1.6405  0.1687
  251MOL0     H33076   3.396  11.158  10.173  1.6581 -1.5480  1.1918
  251MOL0     H33077   3.311  11.433  10.261 -0.0741  0.7392 -1.2981
  251MOL0     H33078   3.190  11.318  10.191 -0.4189 -2.0688  1.2093
  251MOL0     H33079   3.282  11.417   9.986 -0.2636  0.2260  1.2114
  251MOL0     H33080   3.387  11.277  10.005  0.1770 -0.0430 -0.2487
  251MOL0     H33081   3.452  11.560  10.112  1.3332  0.8184 -2.7355
  251MOL0     H33082   3.549  11.413  10.133 -0.8523 -2.2452  0.0273
  251MOL0     H33083   3.609  11.597   9.969 -0.8149  0.8018  1.8620
  251MOL0     H33084   3.498  11.533   9.849  1.3693  0.7844 -0.4291
  251MOL0     H33085   3.675  11.480   9.668  0.9450  1.6761  1.7304
  251MOL0     H33086   3.798  11.306   9.535  1.7191  1.5372 -0.1951
  251MOL0     H33087   3.867  11.163   9.619 -0.3902 -0.4446  3.4417
  251MOL0     H33088   3.970  11.448   9.636  0.0079 -0.4101  1.1281
  251MOL0     H33089   4.053  11.327   9.537  3.5681 -0.6996  2.5730
  251MOL0     H33090   4.031  11.344   9.847 -0.5241  2.7488 -1.4052
  251MOL0     H33091   4.059  11.185   9.761 -0.6682  0.1357 -0.6006
  251MOL0     H33092   4.235  11.396   9.664 -0.5216 -2.3089 -1.8367
  251MOL0     H33093   4.281  11.246   9.720 -0.7498  0.8579 -0.9864
  251MOL0     H33094   4.376  11.513  10.060 -2.5178  1.0853  1.0798
  251MOL0     H33095   4.436  11.412  10.286 -1.4122  1.2076  0.7590
  251MOL0     H33096   4.713  10.888  10.269  2.2616  1.3337 -0.8299
  251MOL0     H33097   4.891  10.789  10.405  1.8697  0.2519  0.6393
  251MOL0     H33098   4.895  10.852  10.870 -1.0230 -0.0312 -0.8038
  251MOL0     H33099   4.969  10.994  10.829  1.4508 -1.4982 -1.4556
  251MOL0     H33100   5.102  10.726  10.814  0.4281 -0.7300  3.1491
  251MOL0     H33101   5.096  10.820  10.964 -2.0363 -3.5283  0.9546
  251MOL0     H33102   5.230  11.010  10.891  2.9014  0.8583  0.6123
  251MOL0     H33103   5.237  10.940  10.728 -0.0164  1.7167  1.0618
  251MOL0     H33104   5.361  10.840  10.995 -1.1326  2.2499  0.4229
  251MOL0     H33105   5.391  10.765  10.835  0.3776 -0.0412  1.2074
  251MOL0     H33106   5.465  11.054  10.886 -2.6200 -0.6423  1.3968
  251MOL0     H33107   5.500  10.952  10.741  1.4498 -0.4317  1.0513
  251MOL0     H33108   5.626  10.797  10.848  1.8904  0.0554 -0.3377
  251MOL0     H33109   5.602  10.872  11.008  0.4710 -3.0233  0.0573
  251MOL0     H33110   5.730  11.015  10.764 -2.3277  1.8460  0.4838
  251MOL0     H33111   5.710  11.079  10.925 -0.1292  1.1557 -0.7500
  251MOL0     H33112   5.848  10.819  10.872  0.1056  0.0107  1.1366
  251MOL0     H33113   5.861  10.910  11.021 -0.8255  2.7278 -0.1097
  251MOL0     H33114   4.748  11.014  10.755 -0.2207  3.3006 -0.9198
  251MOL0     H33115   4.561  11.083  10.626  0.1342  1.4407 -0.5358
  251MOL0     H33116   4.304  11.032  10.159 -1.4922 -0.6501 -2.4964
  251MOL0     H33117   4.264  11.125   9.921 -2.6791 -0.0963  2.6064
  251MOL0     H33118   3.739  11.009  10.158 -0.3237 -0.2123  0.3716
  251MOL0     H33119   3.961  11.004  10.231 -1.8543 -1.2235 -3.7196
  251MOL0     H33120   4.424  10.774  10.332  1.3510 -0.2281  0.3852
  251MOL0     H33121   4.588  10.667  10.481 -0.8622 -1.4165 -2.8892
  251MOL0     H33122   4.745  10.610  10.711 -0.2054  1.6699 -1.9124
  251MOL0     H33123   4.709  10.511  10.576 -1.7227  2.8180 -0.3841
  251MOL0     H33124   4.690  10.318  10.698  2.1421 -3.9071  2.8609
  251MOL0     H33125   4.844  10.396  10.747  0.2585 -1.7030 -1.5015
  251MOL0     H33126   4.601  10.462  10.918  0.4884 -0.3198  0.4533
  251MOL0     H33127   4.760  10.448  10.966 -0.6573  4.0858 -1.1510
  251MOL0     H33128   4.735  10.180  10.906  1.8765  1.3891  0.6413
  251MOL0     H33129   4.666  10.239  11.052  2.2893 -2.6043  0.0174
  251MOL0     H33130   4.354  10.125  10.784  0.1446 -1.0670 -0.0681
  251MOL0     H33131   4.282  10.544  10.738 -0.3709  0.9206  0.2225
  251MOL0     H33132   4.115  10.673  10.609  0.0452  1.6446  0.5571
  252MOL0     O33133   2.330   9.170   7.900  0.3979 -0.1045 -0.3702
  252MOL0     C33134   2.442   9.145   7.863 -0.2411 -1.1833 -0.0035
  252MOL0     O33135   2.556   9.151   7.931 -0.0417  0.7187 -0.6443
  252MOL0     C33136   2.542   9.167   8.068 -0.3930  0.0636 -0.4017
  252MOL0     C33137   2.610   9.076   8.158 -0.8194  0.1954 -0.0045
  252MOL0     C33138   2.587   9.077   8.298 -0.0346  0.0301 -1.1971
  252MOL0     C33139   2.494   9.162   8.360  0.7824  0.4428  0.4600
  252MOL0     O33140   2.471   9.129   8.494 -0.0077  0.4436  0.0925
  252MOL0     C33141   2.393   9.228   8.569  0.0181  0.3296 -0.5233
  252MOL0     C33142   2.391   9.202   8.722  0.2778  0.5165 -0.6776
  252MOL0     C33143   2.506   9.273   8.790  0.1350 -0.3911 -0.4627
  252MOL0     C33144   2.455   9.368   8.900 -0.2010  0.1296 -0.4674
  252MOL0     C33145   2.578   9.428   8.965  0.8453 -0.2956 -0.8596
  252MOL0     C33146   2.549   9.506   9.100  0.9102 -0.4173  0.6330
  252MOL0     C33147   2.676   9.539   9.176 -1.1353 -0.0271 -0.4513
  252MOL0     C33148   2.645   9.623   9.303  0.1933 -0.4342 -0.1575
  252MOL0     N33149   2.568   9.548   9.409 -0.7443  0.2750 -0.7611
  252MOL0     C33150   2.602   9.440   9.481  0.5514  0.4522  0.1384
  252MOL0     C33151   2.499   9.393   9.549  0.5191  0.2464  0.7805
  252MOL0     C33152   2.478   9.275   9.651  0.7632 -0.3759  1.0941
  252MOL0     C33153   2.587   9.163   9.638 -0.3339 -0.0736  0.7707
  252MOL0     C33154   2.581   9.053   9.750 -0.6585 -0.4091  0.0683
  252MOL0     C33155   2.634   9.088   9.887  0.5639 -0.2548 -0.3502
  252MOL0     O33156   2.536   9.063   9.990 -0.2812 -0.9860 -0.1077
  252MOL0     C33157   2.562   9.110  10.119  1.5168  0.2474  0.5678
  252MOL0     C33158   2.669   9.058  10.188  0.1557 -0.3877 -1.3747
  252MOL0     C33159   2.686   9.108  10.317 -0.7754 -0.4353 -0.0837
  252MOL0     C33160   2.598   9.202  10.378  0.3545 -0.9816  0.0975
  252MOL0     C33161   2.624   9.268  10.517  0.1984 -0.9173  0.2854
  252MOL0     O33162   2.547   9.371  10.559  0.2413  0.0541  0.2730
  252MOL0     C33163   2.572   9.442  10.674  0.2863  0.7420  0.0461
  252MOL0     C33164   2.554   9.581  10.677 -0.3252 -0.2866  0.0155
  252MOL0     C33165   2.591   9.662  10.793 -0.3453 -0.2868  0.5510
  252MOL0     C33166   2.641   9.596  10.905 -0.6626  0.1969 -0.7021
  252MOL0     O33167   2.662   9.658  11.023  0.1537  0.1241  0.3688
  252MOL0     C33168   2.676   9.800  11.040 -0.2139 -0.1042  0.0608
  252MOL0     C33169   2.635   9.844  11.179 -0.6591  0.3390 -0.7034
  252MOL0     C33170   2.661   9.984  11.198 -1.1893  0.2144 -0.5958
  252MOL0     C33171   2.583  10.040  11.323 -0.9198  0.0956 -0.3852
  252MOL0     C33172   2.606  10.194  11.335  0.3779 -0.4138  0.4312
  252MOL0     C33173   2.523  10.238  11.450  0.0230  0.7010 -0.6820
  252MOL0     C33174   2.534  10.386  11.470 -0.0605  0.5670  1.1076
  252MOL0     C33175   2.676  10.441  11.495  1.1983 -0.6313  1.4513
  252MOL0    Cl33176   2.763  10.353  11.633 -0.0379  0.0977  0.0711
  252MOL0     C33177   2.652   9.455  10.908 -0.1421 -0.7297  0.1880
  252MOL0     C33178   2.603   9.386  10.797  0.5854  0.6646  0.7198
  252MOL0     O33179   2.715   9.214  10.581 -0.2299 -0.0456 -0.1059
  252MOL0     C33180   2.482   9.242  10.301 -0.3190 -0.0929 -0.6486
  252MOL0     C33181   2.465   9.194  10.170 -0.5503 -1.0256 -0.2224
  252MOL0     N33182   2.404   9.498   9.537 -0.0748  0.8018  0.5858
  252MOL0     N33183   2.437   9.570   9.436  0.3633 -0.0710  0.0979
  252MOL0     C33184   2.420   9.248   8.274 -1.1414  0.7131  0.7307
  252MOL0     C33185   2.460   9.264   8.138  1.2583  0.9763  0.4324
  252MOL0     C33186   2.455   9.112   7.721 -0.4954 -1.7118  0.4232
  252MOL0     C33187   2.348   9.080   7.634  0.4536  0.7241 -0.5674
  252MOL0     C33188   2.370   9.047   7.495  0.4159 -0.1623  0.0659
  252MOL0     C33189   2.497   9.053   7.439  0.2423 -0.4284  0.4795
  252MOL0     O33190   2.509   9.022   7.306 -0.2985  0.2993 -0.1579
  252MOL0     C33191   2.639   9.048   7.239 -1.0064  0.9220  0.0526
  252MOL0     C33192   2.607   9.131   7.123  0.6891 -1.1826  0.7650
  252MOL0     C33193   2.725   9.180   7.035  0.1987 -0.2341  0.7086
  252MOL0     C33194   2.833   9.085   6.982 -0.1114 -0.5315  0.1001
  252MOL0     C33195   2.911   9.002   7.076  0.3137  0.2268 -0.0847
  252MOL0     C33196   2.976   8.931   7.151 -0.5345  0.9135 -0.7615
  252MOL0     C33197   2.608   9.082   7.525 -0.2840  0.3619 -0.7828
  252MOL0     C33198   2.585   9.109   7.661 -0.0324  0.0322  0.2079
  252MOL0     H33199   2.697   9.027   8.116  0.1363 -1.1768  3.2253
  252MOL0     H33200   2.634   9.003   8.363 -0.5058  0.3284 -0.5006
  252MOL0     H33201   2.286   9.220   8.549 -0.1372  1.8418 -0.3536
  252MOL0     H33202   2.421   9.331   8.543 -0.5241  0.9918  1.4105
  252MOL0     H33203   2.402   9.097   8.750  3.8813  0.9462 -0.0784
  252MOL0     H33204   2.297   9.239   8.763  1.6854  0.4713  2.9637
  252MOL0     H33205   2.573   9.326   8.722  2.5742  0.2569  2.1872
  252MOL0     H33206   2.569   9.200   8.841  1.0197  1.2188  0.8750
  252MOL0     H33207   2.400   9.448   8.851 -0.3447  1.1204  1.2371
  252MOL0     H33208   2.395   9.304   8.965 -0.3546  1.6842  0.9840
  252MOL0     H33209   2.628   9.489   8.889 -2.1913 -0.3451 -3.0863
  252MOL0     H33210   2.633   9.339   8.997 -2.4918 -1.9068  0.9551
  252MOL0     H33211   2.476   9.454   9.163 -0.4219  0.4536 -0.1291
  252MOL0     H33212   2.512   9.606   9.073  3.9209  0.8067  0.6138
  252MOL0     H33213   2.730   9.445   9.193 -2.3939 -0.9001 -1.1022
  252MOL0     H33214   2.745   9.594   9.112  0.2024 -2.8841 -1.6204
  252MOL0     H33215   2.573   9.702   9.280 -1.0617 -1.8591 -1.3971
  252MOL0     H33216   2.731   9.680   9.338 -1.1626  1.0687  0.9028
  252MOL0     H33217   2.683   9.370   9.464 -1.9695 -2.6099 -0.0905
  252MOL0     H33218   2.378   9.231   9.646  0.0928  0.6163  3.8650
  252MOL0     H33219   2.480   9.326   9.748  2.0899  0.5470  0.6089
  252MOL0     H33220   2.685   9.210   9.629 -0.7943  0.4652 -2.2365
  252MOL0     H33221   2.563   9.106   9.548  0.2647  1.5040 -0.4349
  252MOL0     H33222   2.475   9.025   9.745 -0.8303  0.3510 -0.7021
  252MOL0     H33223   2.648   8.972   9.720 -2.0413 -0.6237 -2.7481
  252MOL0     H33224   2.680   9.187   9.881  1.9844 -0.7811  1.2111
  252MOL0     H33225   2.722   9.027   9.905  2.1390  2.2820  1.0762
  252MOL0     H33226   2.739   8.986  10.146  2.0685  0.0082  0.8991
  252MOL0     H33227   2.771   9.058  10.361  0.2231  0.8212 -0.5377
  252MOL0     H33228   2.520   9.631  10.586 -1.0000 -0.3194  0.2432
  252MOL0     H33229   2.569   9.768  10.798 -5.0834 -1.1038  2.0381
  252MOL0     H33230   2.596   9.841  10.977 -1.6465  2.9211  3.4766
  252MOL0     H33231   2.778   9.833  11.019 -0.9653  2.5387  0.0655
  252MOL0     H33232   2.697   9.789  11.251  0.8036  0.2889 -1.9435
  252MOL0     H33233   2.533   9.809  11.196  0.5832 -2.2452  2.5528
  252MOL0     H33234   2.639  10.053  11.116  0.3628  2.4361  0.7260
  252MOL0     H33235   2.768   9.994  11.217 -1.6262 -1.2510  3.6939
  252MOL0     H33236   2.477  10.016  11.306 -0.9321  0.2986 -0.5906
  252MOL0     H33237   2.601   9.983  11.415 -4.1127 -0.3820  0.0765
  252MOL0     H33238   2.581  10.242  11.240 -2.6148  0.3118  1.4886
  252MOL0     H33239   2.712  10.201  11.362  0.0032 -0.7651  2.1345
  252MOL0     H33240   2.558  10.182  11.537 -1.0476  0.6742 -0.2470
  252MOL0     H33241   2.417  10.213  11.437 -0.3565  1.6763  0.3101
  252MOL0     H33242   2.489  10.429  11.380 -1.6728 -1.8560  0.6526
  252MOL0     H33243   2.476  10.427  11.554  2.5026  3.0142  1.8691
  252MOL0     H33244   2.673  10.548  11.518  0.6584 -0.1498 -0.6799
  252MOL0     H33245   2.728  10.442  11.399  0.8621  0.9784  1.2677
  252MOL0     H33246   2.681   9.398  10.996 -2.3433 -0.0213  1.4687
  252MOL0     H33247   2.604   9.278  10.788 -1.8990  0.7093 -1.4654
  252MOL0     H33248   2.404   9.309  10.337  0.8639  0.6745  0.6214
  252MOL0     H33249   2.386   9.233  10.107  1.6628  2.2755 -1.2062
  252MOL0     H33250   2.339   9.297   8.326 -1.9719 -1.5841  1.6723
  252MOL0     H33251   2.406   9.334   8.076 -2.0343 -0.4459  1.4937
  252MOL0     H33252   2.247   9.081   7.673  0.5540  1.3414 -0.3126
  252MOL0     H33253   2.289   9.008   7.434 -0.9317 -2.5168  3.0770
  252MOL0     H33254   2.683   8.949   7.228 -1.0210  1.0808 -1.7277
  252MOL0     H33255   2.703   9.114   7.298 -0.4886  0.5719 -0.1140
  252MOL0     H33256   2.530   9.078   7.066  0.4940 -0.9264  0.7918
  252MOL0     H33257   2.568   9.227   7.159 -0.8637 -2.4252  2.6447
  252MOL0     H33258   2.768   9.269   7.082  1.8148 -1.0086  0.7816
  252MOL0     H33259   2.678   9.217   6.944  1.2087  1.3177  0.7806
  252MOL0     H33260   2.776   9.019   6.915  1.8536 -0.6007 -1.5984
  252MOL0     H33261   2.903   9.143   6.921 -0.2605 -0.6119 -0.1482
  252MOL0     H33262   3.033   8.875   7.223 -3.0110  0.7748  1.2453
  252MOL0     H33263   2.715   9.084   7.503  0.4399 -0.2613  2.2202
  252MOL0     H33264   2.663   9.143   7.728  2.3533  2.2450 -3.3409
  253MOL0     O33265   7.601   6.627   5.627 -0.2619  0.0789 -0.9217
  253MOL0     C33266   7.654   6.735   5.594 -0.3279  0.3559  0.4454
  253MOL0     O33267   7.664   6.842   5.683  1.0546 -0.5177 -0.4347
  253MOL0     C33268   7.631   6.822   5.818  0.3662 -0.4850  0.5311
  253MOL0     C33269   7.507   6.798   5.875 -0.5021 -0.5866 -0.1515
  253MOL0     C33270   7.502   6.783   6.016 -0.5925 -0.2006  0.0480
  253MOL0     C33271   7.611   6.797   6.103 -1.0923  0.2117  0.2115
  253MOL0     O33272   7.598   6.789   6.244 -0.3502  0.0083  0.5805
  253MOL0     C33273   7.478   6.735   6.296  0.0685 -0.0523  0.3995
  253MOL0     C33274   7.511   6.687   6.447  0.7823 -0.8177  0.4764
  253MOL0     C33275   7.574   6.795   6.535  0.0434 -0.7718 -0.4756
  253MOL0     C33276   7.723   6.838   6.503  0.2082 -0.1929  0.4534
  253MOL0     C33277   7.816   6.718   6.526 -0.1542 -0.8090  0.4570
  253MOL0     C33278   7.823   6.649   6.666  0.4925 -0.9635  0.0584
  253MOL0     C33279   7.885   6.734   6.784 -0.5339  0.3406  0.5229
  253MOL0     C33280   7.858   6.671   6.927 -0.0124  0.2297  0.2261
  253MOL0     N33281   7.875   6.782   7.029  0.4003 -0.3104  0.5334
  253MOL0     C33282   7.802   6.813   7.135 -0.0853 -1.2744  0.8086
  253MOL0     C33283   7.850   6.915   7.203  0.1854  0.1472 -0.0578
  253MOL0     C33284   7.791   6.972   7.332 -0.2495  0.4101  0.6279
  253MOL0     C33285   7.653   7.025   7.307 -0.1337 -0.3912 -0.0813
  253MOL0     C33286   7.649   7.101   7.170 -0.2844  0.3492 -0.1504
  253MOL0     C33287   7.698   7.242   7.190 -0.4258  0.1173  0.2601
  253MOL0     O33288   7.647   7.323   7.289  0.1846  0.0405  0.5587
  253MOL0     C33289   7.531   7.392   7.268 -0.4499 -0.8220 -0.4394
  253MOL0     C33290   7.441   7.386   7.170  0.8118  0.4678 -0.1590
  253MOL0     C33291   7.317   7.448   7.164  0.2783  0.1370 -0.3322
  253MOL0     C33292   7.284   7.542   7.267  0.7057 -0.6392  0.9319
  253MOL0     C33293   7.166   7.615   7.264  0.2907  0.6791  0.0293
  253MOL0     O33294   7.150   7.682   7.381  0.1792 -0.2068 -0.2503
  253MOL0     C33295   7.029   7.737   7.407 -0.3901 -0.9931  0.9467
  253MOL0     C33296   7.033   7.878   7.416 -0.1827  0.2582 -0.2141
  253MOL0     C33297   6.906   7.949   7.447  0.7259  1.2779  1.0001
  253MOL0     C33298   6.788   7.876   7.448 -0.0105  1.0207 -0.4808
  253MOL0     O33299   6.673   7.930   7.471  0.1708 -1.0848  0.0559
  253MOL0     C33300   6.574   7.871   7.559 -0.3800 -0.1260 -0.0235
  253MOL0     C33301   6.485   7.983   7.599 -0.0224  0.5253 -0.4033
  253MOL0     C33302   6.395   7.941   7.710  0.3348 -0.0994  0.2591
  253MOL0     C33303   6.276   8.023   7.724 -0.0769 -1.2768  1.1474
  253MOL0     C33304   6.184   7.954   7.816 -0.4051  0.1778  0.0297
  253MOL0     C33305   6.058   8.038   7.829  0.4243  0.1159  0.2977
  253MOL0     C33306   5.942   7.959   7.897  0.2845  0.5107 -0.9018
  253MOL0     C33307   5.825   8.055   7.926  0.4548 -0.3035 -0.9619
  253MOL0    Cl33308   5.863   8.181   8.054 -0.4999 -0.2286  0.4279
  253MOL0     C33309   6.790   7.736   7.427 -0.2125  0.1250 -0.7025
  253MOL0     C33310   6.909   7.668   7.399  0.0024 -1.0829  0.1448
  253MOL0     O33311   7.080   7.601   7.170  0.1195  0.0095 -0.3470
  253MOL0     C33312   7.383   7.562   7.364  0.5852 -0.4264 -0.8520
  253MOL0     C33313   7.503   7.492   7.363 -0.3546 -0.0458  0.7928
  253MOL0     N33314   7.974   6.934   7.145  0.6646  0.4507  0.2187
  253MOL0     N33315   7.989   6.855   7.042 -0.2838  1.5057  1.1087
  253MOL0     C33316   7.730   6.821   6.044 -1.4946 -0.4098  0.6857
  253MOL0     C33317   7.736   6.837   5.903 -0.5184 -0.6772 -0.4839
  253MOL0     C33318   7.725   6.727   5.468  0.4018  1.0136  0.7087
  253MOL0     C33319   7.711   6.625   5.369 -0.0097  1.0645  0.1862
  253MOL0     C33320   7.791   6.631   5.247  0.1462  0.9615 -0.2111
  253MOL0     C33321   7.871   6.742   5.215  0.7980 -0.4816  0.3682
  253MOL0     O33322   7.921   6.773   5.097 -0.4678  0.6852  0.1804
  253MOL0     C33323   8.028   6.689   5.044  0.9337 -0.0368  0.2980
  253MOL0     C33324   8.093   6.757   4.922 -0.1188  0.3786  0.0085
  253MOL0     C33325   8.009   6.761   4.797 -0.6519 -0.0029 -0.3437
  253MOL0     C33326   8.028   6.893   4.728  0.9274 -0.1246  0.3211
  253MOL0     C33327   7.947   6.909   4.595  0.2979 -0.5339 -0.4657
  253MOL0     C33328   7.893   6.907   4.487  0.2888  0.0060 -0.6458
  253MOL0     C33329   7.890   6.841   5.320  1.0424  0.3308  0.8942
  253MOL0     C33330   7.812   6.832   5.439 -0.0085  0.2539  0.0568
  253MOL0     H33331   7.420   6.800   5.811 -0.9308 -1.8013  0.3810
  253MOL0     H33332   7.399   6.766   6.045  0.1127 -1.3054  2.0381
  253MOL0     H33333   7.425   6.661   6.237 -2.5754  3.1748 -1.6499
  253MOL0     H33334   7.400   6.812   6.293 -2.6694 -2.6959 -2.1402
  253MOL0     H33335   7.565   6.592   6.455 -2.1253 -2.6130  0.2135
  253MOL0     H33336   7.411   6.677   6.490  0.2804  1.6070 -0.0053
  253MOL0     H33337   7.560   6.767   6.640 -1.1507  0.2886 -0.3227
  253MOL0     H33338   7.525   6.892   6.520 -2.3858 -1.6425  1.1225
  253MOL0     H33339   7.735   6.883   6.404  1.8908 -1.6264 -0.0529
  253MOL0     H33340   7.756   6.920   6.568  2.0657  1.0967 -1.9380
  253MOL0     H33341   7.920   6.752   6.515 -0.3436 -0.3086  0.1719
  253MOL0     H33342   7.786   6.641   6.454 -0.1801  0.6539 -1.1538
  253MOL0     H33343   7.884   6.559   6.655 -0.7509 -2.0910  1.7325
  253MOL0     H33344   7.727   6.603   6.691  1.3839 -2.8398  0.1943
  253MOL0     H33345   7.993   6.745   6.770 -0.7821  0.1379 -2.2967
  253MOL0     H33346   7.834   6.830   6.771 -0.6540  0.3793  1.2833
  253MOL0     H33347   7.940   6.598   6.941  1.2800  0.5263 -4.3307
  253MOL0     H33348   7.761   6.625   6.946  1.5955 -2.3981  3.1319
  253MOL0     H33349   7.709   6.762   7.161 -2.7452  2.9190  0.4997
  253MOL0     H33350   7.860   7.052   7.363  1.8653 -0.5770 -1.2555
  253MOL0     H33351   7.787   6.906   7.419  1.3026 -1.3070 -0.5292
  253MOL0     H33352   7.603   7.084   7.385  0.9761  0.4345  0.0383
  253MOL0     H33353   7.588   6.938   7.299  1.8833 -1.8219 -2.3135
  253MOL0     H33354   7.711   7.052   7.094  0.5315 -2.0353  1.9137
  253MOL0     H33355   7.553   7.096   7.119 -1.5125 -1.2098  2.1258
  253MOL0     H33356   7.687   7.299   7.098  3.8523  0.1620 -0.4250
  253MOL0     H33357   7.802   7.237   7.223 -0.7297  1.2420  1.4468
  253MOL0     H33358   7.468   7.323   7.085  0.0094  0.1269 -0.1768
  253MOL0     H33359   7.239   7.425   7.092  1.5681  0.0688 -1.7537
  253MOL0     H33360   7.134   7.913   7.397  0.6432 -3.4582 -4.5803
  253MOL0     H33361   6.895   8.053   7.474  0.9991  1.2165  1.3570
  253MOL0     H33362   6.614   7.812   7.643  0.2371 -1.5531 -1.2793
  253MOL0     H33363   6.510   7.803   7.503 -0.5430 -1.9555  2.2387
  253MOL0     H33364   6.418   7.995   7.513 -0.1014  0.1913 -0.3893
  253MOL0     H33365   6.538   8.075   7.625 -1.3133  1.2262 -0.1701
  253MOL0     H33366   6.458   7.925   7.798  3.1411 -1.8345 -1.9150
  253MOL0     H33367   6.367   7.839   7.684  0.6063 -1.0743  3.3216
  253MOL0     H33368   6.308   8.109   7.783 -2.2706 -1.6986  3.0993
  253MOL0     H33369   6.227   8.036   7.627 -2.2116 -3.7269  1.7676
  253MOL0     H33370   6.239   7.924   7.905  0.7865 -0.4647 -0.8919
  253MOL0     H33371   6.152   7.863   7.764 -1.5740 -0.2740  1.4536
  253MOL0     H33372   6.030   8.068   7.728 -0.1805  2.0221  0.9894
  253MOL0     H33373   6.080   8.136   7.871  0.3772  1.5084 -2.6730
  253MOL0     H33374   5.904   7.878   7.835 -0.3990 -0.0832  0.2584
  253MOL0     H33375   5.985   7.940   7.996  1.2905 -0.7912 -1.5453
  253MOL0     H33376   5.732   8.004   7.955 -0.6134  1.0026 -1.9497
  253MOL0     H33377   5.813   8.121   7.840  2.2478  3.2340  1.2521
  253MOL0     H33378   6.696   7.683   7.419 -0.2555 -0.5007  2.5913
  253MOL0     H33379   6.890   7.564   7.376 -2.8517 -0.8139  0.8864
  253MOL0     H33380   7.362   7.650   7.423 -1.8708  1.3043 -3.9630
  253MOL0     H33381   7.581   7.512   7.436  0.7244 -2.3283  0.3545
  253MOL0     H33382   7.826   6.837   6.092 -0.9618 -0.5349 -0.3031
  253MOL0     H33383   7.830   6.878   5.867 -1.5423  2.6424  0.2825
  253MOL0     H33384   7.628   6.557   5.388 -2.5897  3.7542 -0.6885
  253MOL0     H33385   7.784   6.553   5.171  1.9814  1.5233 -1.0312
  253MOL0     H33386   7.987   6.598   5.001 -0.9348  0.3856  1.0819
  253MOL0     H33387   8.103   6.672   5.122  3.6659 -0.4983 -2.2435
  253MOL0     H33388   8.120   6.859   4.952  0.7410 -0.2713  1.6440
  253MOL0     H33389   8.193   6.714   4.906  0.3261  1.3168  0.1656
  253MOL0     H33390   7.902   6.751   4.820 -0.1737 -1.2204  1.5630
  253MOL0     H33391   8.040   6.681   4.729 -4.0958 -0.9989 -0.9661
  253MOL0     H33392   8.014   6.978   4.795  1.1229  0.2638 -0.1279
  253MOL0     H33393   8.133   6.915   4.705  0.6315 -0.5813 -1.6431
  253MOL0     H33394   7.849   6.887   4.391  1.8879  1.2326 -1.6736
  253MOL0     H33395   7.957   6.926   5.323  1.4739 -0.0005  0.7672
  253MOL0     H33396   7.824   6.915   5.508  2.6715 -0.0046 -0.0044
  254MOL0     O33397   3.610   0.830   2.636  0.7795 -0.2341  0.0410
  254MOL0     C33398   3.638   0.809   2.753 -0.1212 -0.3204  0.5274
  254MOL0     O33399   3.766   0.794   2.803 -0.5585  0.4483  0.3038
  254MOL0     C33400   3.861   0.863   2.732 -0.6617  0.8859  0.5624
  254MOL0     C33401   3.902   0.985   2.792  0.4418 -1.0472  0.4232
  254MOL0     C33402   3.970   1.074   2.715  0.5198  0.3855 -0.6623
  254MOL0     C33403   4.012   1.051   2.580  0.3224 -0.1079 -0.2063
  254MOL0     O33404   4.070   1.145   2.501 -0.0542  0.6556  0.8442
  254MOL0     C33405   4.117   1.262   2.560  0.1702  0.1398  0.9256
  254MOL0     C33406   4.187   1.362   2.461  0.4082 -0.1276  0.0196
  254MOL0     C33407   4.330   1.314   2.437  0.2395 -0.1609 -0.6725
  254MOL0     C33408   4.390   1.407   2.329 -0.6397 -0.0339  0.0111
  254MOL0     C33409   4.533   1.354   2.282 -0.7064  0.2556 -1.0718
  254MOL0     C33410   4.581   1.424   2.151  0.4060 -0.3945  1.3175
  254MOL0     C33411   4.495   1.375   2.032  0.1485 -0.0889  0.2427
  254MOL0     C33412   4.521   1.437   1.895 -0.2243  0.4398  0.0807
  254MOL0     N33413   4.430   1.399   1.787  0.4346 -0.2817 -0.3445
  254MOL0     C33414   4.462   1.417   1.657 -0.6584  0.6256 -0.1328
  254MOL0     C33415   4.343   1.408   1.594  0.9338 -0.6033 -0.0096
  254MOL0     C33416   4.319   1.420   1.445  0.0979  0.7454 -1.0111
  254MOL0     C33417   4.234   1.545   1.423  0.8039  0.4842 -0.2487
  254MOL0     C33418   4.221   1.583   1.271 -0.2521 -1.3703  0.0433
  254MOL0     C33419   4.116   1.696   1.240 -0.4577 -0.1458  0.9128
  254MOL0     O33420   4.079   1.681   1.099  0.6725  0.0129  0.1320
  254MOL0     C33421   3.967   1.751   1.057  0.1991  0.0940 -0.7030
  254MOL0     C33422   3.917   1.724   0.937 -0.0707 -0.5045  0.1745
  254MOL0     C33423   3.798   1.790   0.890  0.0504  0.1096 -0.2634
  254MOL0     C33424   3.733   1.883   0.965  1.1994  0.5126  0.1351
  254MOL0     C33425   3.606   1.949   0.916  0.2979 -0.7832  0.2090
  254MOL0     O33426   3.526   1.993   1.009  0.7824  0.5358 -0.8306
  254MOL0     C33427   3.386   2.018   0.993 -0.4159 -0.2612 -0.5867
  254MOL0     C33428   3.329   2.096   1.087 -0.1077 -0.6469 -1.2466
  254MOL0     C33429   3.199   2.154   1.064  0.3019  0.1163  0.8635
  254MOL0     C33430   3.125   2.109   0.947 -0.0273  0.4838  0.4406
  254MOL0     O33431   2.999   2.157   0.947  0.2882 -0.2639 -0.5185
  254MOL0     C33432   2.919   2.164   0.831 -0.3985 -0.1859 -0.3934
  254MOL0     C33433   2.799   2.234   0.894 -1.3287  0.9377 -1.2169
  254MOL0     C33434   2.698   2.133   0.971  0.0048 -0.3008 -0.1354
  254MOL0     C33435   2.589   2.191   1.073  0.2265 -0.9414  0.0736
  254MOL0     C33436   2.502   2.310   1.014 -0.2315 -0.3725  0.1550
  254MOL0     C33437   2.434   2.296   0.880 -0.6466 -0.0612  0.6267
  254MOL0     C33438   2.355   2.165   0.863 -1.0669  0.1666  0.4549
  254MOL0     C33439   2.208   2.172   0.813 -0.8239 -0.4091 -0.2559
  254MOL0    Cl33440   2.107   2.238   0.950 -0.0917  0.3124 -0.1017
  254MOL0     C33441   3.188   2.021   0.851  0.0378  0.9535 -0.3602
  254MOL0     C33442   3.315   1.980   0.875  0.3245 -0.1290  0.9879
  254MOL0     O33443   3.580   1.946   0.788  0.1544  0.1880  0.1082
  254MOL0     C33444   3.781   1.912   1.092  0.2142  0.5886 -0.1542
  254MOL0     C33445   3.896   1.850   1.142  0.2774  0.2016  0.1674
  254MOL0     N33446   4.237   1.391   1.685 -0.7197  0.3576  0.3961
  254MOL0     N33447   4.293   1.394   1.802 -0.7697 -0.2120 -0.1935
  254MOL0     C33448   3.977   0.927   2.527 -0.5032 -0.6264 -0.1191
  254MOL0     C33449   3.904   0.838   2.596 -0.7016 -0.2287 -0.1190
  254MOL0     C33450   3.530   0.807   2.847 -0.1451 -0.8102 -0.4420
  254MOL0     C33451   3.556   0.801   2.992  0.6696  0.2129 -0.0957
  254MOL0     C33452   3.452   0.809   3.081 -0.7444  0.7745  0.1077
  254MOL0     C33453   3.323   0.832   3.032  1.0920 -0.2444 -0.6891
  254MOL0     O33454   3.217   0.863   3.119 -0.5549 -0.2093  0.2729
  254MOL0     C33455   3.223   0.874   3.259 -1.7192  0.6287 -0.7811
  254MOL0     C33456   3.130   0.979   3.311  0.6133  0.2975  0.4507
  254MOL0     C33457   2.978   0.944   3.295 -0.5614 -0.0392  0.8759
  254MOL0     C33458   2.925   0.805   3.353 -0.2236 -0.7566 -0.4874
  254MOL0     C33459   2.916   0.805   3.495  0.4111 -0.4357  0.0231
  254MOL0     C33460   2.896   0.810   3.612 -0.5471 -0.0326 -0.4734
  254MOL0     C33461   3.296   0.833   2.898  0.6986  0.4865  0.1635
  254MOL0     C33462   3.392   0.824   2.800 -0.9918 -0.0826  0.0975
  254MOL0     H33463   3.876   1.011   2.894  0.4168 -1.3932  0.5081
  254MOL0     H33464   3.991   1.162   2.775  0.0151 -0.8399  1.4137
  254MOL0     H33465   4.183   1.255   2.647 -0.1573  2.7710  1.4716
  254MOL0     H33466   4.026   1.311   2.595  0.2003 -0.8689  2.5062
  254MOL0     H33467   4.196   1.459   2.510  2.1763  0.2078 -0.8636
  254MOL0     H33468   4.128   1.366   2.368  1.7373 -0.2235 -0.8567
  254MOL0     H33469   4.321   1.210   2.403  0.4745 -0.7463  0.9748
  254MOL0     H33470   4.393   1.318   2.526 -0.4482  0.1200 -0.1963
  254MOL0     H33471   4.317   1.414   2.248 -1.9902  4.2113  1.3672
  254MOL0     H33472   4.408   1.509   2.364 -0.3723 -0.2281  0.4465
  254MOL0     H33473   4.511   1.251   2.251  0.3161 -0.9742  1.9212
  254MOL0     H33474   4.602   1.352   2.367 -2.9891  1.9332  0.9532
  254MOL0     H33475   4.685   1.403   2.122 -0.7218  0.1602 -3.9927
  254MOL0     H33476   4.573   1.533   2.164 -0.3835 -0.0473 -1.4747
  254MOL0     H33477   4.506   1.267   2.018  1.4064 -0.1141  1.2281
  254MOL0     H33478   4.390   1.401   2.051 -0.1861 -0.5425 -0.8783
  254MOL0     H33479   4.624   1.422   1.862 -0.2782  5.8348 -3.7361
  254MOL0     H33480   4.519   1.546   1.900  0.3487  0.4600 -0.1276
  254MOL0     H33481   4.559   1.428   1.611  1.0045  0.4941  3.1035
  254MOL0     H33482   4.266   1.331   1.410  0.4978  0.8390 -1.8847
  254MOL0     H33483   4.418   1.439   1.403  2.5053 -0.5303  3.4238
  254MOL0     H33484   4.283   1.624   1.481 -0.3382  2.7902 -2.2485
  254MOL0     H33485   4.137   1.537   1.472  0.3887 -2.7382 -1.3621
  254MOL0     H33486   4.317   1.630   1.246 -0.9790  0.2836  0.2381
  254MOL0     H33487   4.190   1.496   1.214 -5.3779  0.7626 -0.9551
  254MOL0     H33488   4.156   1.797   1.250  2.2286 -1.0381 -0.0016
  254MOL0     H33489   4.018   1.684   1.288  0.7494 -2.6325  2.9798
  254MOL0     H33490   3.971   1.660   0.869 -3.6851 -2.9620 -0.6841
  254MOL0     H33491   3.750   1.759   0.798  0.2499 -2.0489  0.2890
  254MOL0     H33492   3.387   2.134   1.171 -2.2381 -1.2794  0.6372
  254MOL0     H33493   3.155   2.219   1.139  2.2205 -0.1977  2.3580
  254MOL0     H33494   2.907   2.060   0.797 -3.1339  0.7004 -2.5357
  254MOL0     H33495   2.964   2.228   0.755 -0.6983 -0.9271 -1.2178
  254MOL0     H33496   2.732   2.275   0.818 -2.1631  0.4940 -0.7404
  254MOL0     H33497   2.832   2.310   0.965  2.4271  0.0512 -1.7944
  254MOL0     H33498   2.768   2.069   1.026  0.2924  2.2577  2.7556
  254MOL0     H33499   2.637   2.082   0.896  0.5598 -1.0354 -0.0999
  254MOL0     H33500   2.516   2.120   1.114  0.3135 -0.9994  0.1280
  254MOL0     H33501   2.645   2.233   1.157 -0.4630  2.2366 -0.9210
  254MOL0     H33502   2.564   2.399   1.026 -1.3823  0.3890  0.5957
  254MOL0     H33503   2.418   2.331   1.081  0.8413  0.7923  1.1755
  254MOL0     H33504   2.503   2.307   0.795  1.1164 -0.3852  1.9732
  254MOL0     H33505   2.369   2.383   0.865 -1.1828 -0.9052 -3.0103
  254MOL0     H33506   2.408   2.116   0.782  0.0928  2.0682  0.0227
  254MOL0     H33507   2.375   2.109   0.955  4.2101  0.8890  0.0471
  254MOL0     H33508   2.187   2.070   0.779  0.1293  0.0251 -2.3087
  254MOL0     H33509   2.198   2.223   0.717  1.3534  0.0702 -0.2843
  254MOL0     H33510   3.131   1.994   0.763 -0.9677  1.8869 -0.0184
  254MOL0     H33511   3.352   1.896   0.817  0.0184 -1.5143  2.7347
  254MOL0     H33512   3.727   1.978   1.159 -3.4519 -0.1285 -2.1328
  254MOL0     H33513   3.926   1.858   1.246 -3.3185 -0.1787  1.3780
  254MOL0     H33514   4.014   0.917   2.425 -1.1744  5.0718 -1.2288
  254MOL0     H33515   3.874   0.748   2.542  2.0896 -0.6103 -1.2251
  254MOL0     H33516   3.654   0.768   3.025  0.5773  1.1193  1.1798
  254MOL0     H33517   3.484   0.812   3.185  2.3551  0.7401 -0.7619
  254MOL0     H33518   3.319   0.917   3.290 -1.9947  0.1926  0.7655
  254MOL0     H33519   3.213   0.781   3.315 -2.7062  1.0958 -0.1555
  254MOL0     H33520   3.139   0.988   3.420 -3.3715 -2.6965  1.2721
  254MOL0     H33521   3.152   1.070   3.255  0.3065 -1.0980 -2.0852
  254MOL0     H33522   2.961   0.955   3.187  1.4687  1.3465  0.6434
  254MOL0     H33523   2.924   1.032   3.332 -0.7490  1.0161 -1.6641
  254MOL0     H33524   2.823   0.777   3.325  0.6214 -6.9610  1.2502
  254MOL0     H33525   2.989   0.732   3.304 -0.9989 -1.5746 -0.3123
  254MOL0     H33526   2.896   0.798   3.718  1.9574 -0.9658 -0.5125
  254MOL0     H33527   3.192   0.825   2.866  1.0907 -0.3250 -0.9987
  254MOL0     H33528   3.379   0.832   2.693  2.1377 -0.5566 -0.4392
  255MOL0     O33529   8.864   4.283   8.257  0.4420  0.5907 -0.1376
  255MOL0     C33530   8.914   4.363   8.181 -1.0356 -0.4002  0.4276
  255MOL0     O33531   8.869   4.407   8.056 -0.7773  0.8241  0.0206
  255MOL0     C33532   8.755   4.353   8.005  0.1063  0.3933 -0.3260
  255MOL0     C33533   8.639   4.422   8.013 -0.8199 -0.2369  0.1738
  255MOL0     C33534   8.524   4.366   7.971  0.2512  1.1728 -0.1133
  255MOL0     C33535   8.532   4.240   7.917  0.2995  1.1006  0.2079
  255MOL0     O33536   8.414   4.179   7.881  0.0950  0.3132  0.4992
  255MOL0     C33537   8.409   4.046   7.934 -0.0699 -0.0427  0.2395
  255MOL0     C33538   8.266   4.025   7.996  0.5854  0.9179  0.7356
  255MOL0     C33539   8.261   3.889   8.069 -0.4920  0.2045 -0.1630
  255MOL0     C33540   8.115   3.866   8.100  0.0775 -0.3267  0.6559
  255MOL0     C33541   8.089   3.740   8.193  0.3427 -0.3753  1.2063
  255MOL0     C33542   7.938   3.721   8.194  0.0381  1.1731 -0.0670
  255MOL0     C33543   7.899   3.576   8.235  0.0479 -0.1360  0.3285
  255MOL0     C33544   7.753   3.584   8.270  1.3300 -0.2585  0.5422
  255MOL0     N33545   7.704   3.462   8.319  0.0922  0.5014 -0.7993
  255MOL0     C33546   7.714   3.417   8.446 -0.8281 -0.2732 -0.7398
  255MOL0     C33547   7.643   3.304   8.457 -0.3450  0.3437  0.3006
  255MOL0     C33548   7.644   3.221   8.581 -1.1623 -0.3078 -0.2797
  255MOL0     C33549   7.555   3.280   8.698  0.3251  0.1164  0.2381
  255MOL0     C33550   7.410   3.240   8.690  0.4763 -0.0385  0.1134
  255MOL0     C33551   7.335   3.269   8.813  0.4486 -0.8804  0.3539
  255MOL0     O33552   7.197   3.245   8.775 -0.2232 -0.5502  0.8141
  255MOL0     C33553   7.106   3.275   8.865  1.0412  0.4291 -0.4662
  255MOL0     C33554   7.117   3.312   9.000 -0.0403  0.6084  0.7515
  255MOL0     C33555   7.014   3.353   9.078 -0.5614 -0.7520  0.3765
  255MOL0     C33556   6.880   3.339   9.036 -0.5009  0.0238 -0.4171
  255MOL0     C33557   6.770   3.373   9.128 -0.3977  0.3283  0.2663
  255MOL0     O33558   6.646   3.395   9.070  0.8376 -0.1185 -1.1936
  255MOL0     C33559   6.564   3.453   9.152  0.2721 -0.2893 -0.3042
  255MOL0     C33560   6.452   3.382   9.201 -0.3292  0.0540  0.1663
  255MOL0     C33561   6.353   3.434   9.282 -0.0418 -0.1562 -0.1733
  255MOL0     C33562   6.353   3.575   9.309  0.8348  0.6940  0.1473
  255MOL0     O33563   6.257   3.624   9.385  0.0549 -0.7966 -0.2445
  255MOL0     C33564   6.140   3.669   9.313 -1.2611  0.4107  0.4178
  255MOL0     C33565   6.042   3.707   9.422 -0.2071  0.0695 -0.4126
  255MOL0     C33566   6.093   3.815   9.511 -0.1177 -0.0080 -0.0505
  255MOL0     C33567   5.971   3.857   9.590 -1.2032  0.2895  0.4902
  255MOL0     C33568   6.010   3.943   9.709  0.3454  0.0200  0.4312
  255MOL0     C33569   5.890   3.968   9.800 -1.1302 -0.0145 -0.2607
  255MOL0     C33570   5.801   4.081   9.741 -0.6665 -0.0392 -0.3152
  255MOL0     C33571   5.665   4.110   9.820 -0.3894  1.0161  0.4962
  255MOL0    Cl33572   5.713   4.203   9.971 -0.3203  0.3158 -0.0097
  255MOL0     C33573   6.465   3.653   9.258  0.1516  0.2446  0.1728
  255MOL0     C33574   6.567   3.594   9.176  0.3982 -0.7900  0.8242
  255MOL0     O33575   6.803   3.409   9.238  0.0248  0.2322 -0.1402
  255MOL0     C33576   6.866   3.287   8.907  0.7367  0.0900  0.3405
  255MOL0     C33577   6.976   3.260   8.822  0.3338  0.1009  0.4031
  255MOL0     N33578   7.580   3.293   8.336 -0.2357 -0.6985 -0.3174
  255MOL0     N33579   7.617   3.383   8.255  1.0420  0.2199 -0.4078
  255MOL0     C33580   8.655   4.175   7.892  0.0053  0.2991 -0.5459
  255MOL0     C33581   8.768   4.237   7.937  0.7178  0.3180 -0.3667
  255MOL0     C33582   9.028   4.452   8.233 -0.2320 -0.4007  0.0016
  255MOL0     C33583   9.064   4.574   8.173 -1.1438  0.1082  0.4602
  255MOL0     C33584   9.184   4.641   8.210  0.4903 -0.0471 -0.3185
  255MOL0     C33585   9.257   4.604   8.320  1.1074  0.0276 -0.2469
  255MOL0     O33586   9.365   4.680   8.352 -0.5528 -0.0466 -0.8435
  255MOL0     C33587   9.443   4.636   8.465 -0.3187  0.6903  0.4948
  255MOL0     C33588   9.552   4.544   8.422 -0.3004 -0.6447  0.3192
  255MOL0     C33589   9.641   4.511   8.542 -0.1628  0.3707 -0.1681
  255MOL0     C33590   9.748   4.620   8.576 -0.0140  0.4438 -0.2333
  255MOL0     C33591   9.795   4.575   8.710  0.0678  0.4611  0.5224
  255MOL0     C33592   9.822   4.519   8.819 -0.0896  0.4220 -0.6192
  255MOL0     C33593   9.216   4.486   8.383 -0.1306  0.4193 -0.9354
  255MOL0     C33594   9.107   4.402   8.340 -0.2532  0.8128 -0.2175
  255MOL0     H33595   8.629   4.520   8.058  0.8872  1.2372 -2.3752
  255MOL0     H33596   8.426   4.411   7.982 -0.1152  0.0996  1.4386
  255MOL0     H33597   8.471   4.038   8.024 -0.6211  0.8999  0.7332
  255MOL0     H33598   8.437   3.984   7.849  1.4201 -1.4922  1.7107
  255MOL0     H33599   8.191   4.046   7.919 -0.0844  0.1770  1.1680
  255MOL0     H33600   8.238   4.101   8.070 -3.7350 -0.3865  0.6953
  255MOL0     H33601   8.316   3.872   8.162 -0.9272 -2.2399 -0.2769
  255MOL0     H33602   8.294   3.813   7.998  0.0476  0.5881 -0.3284
  255MOL0     H33603   8.086   3.962   8.143  0.6335 -0.0516  0.4196
  255MOL0     H33604   8.042   3.876   8.019 -2.9950  4.4824  3.5235
  255MOL0     H33605   8.125   3.762   8.294 -2.3143  1.8672  1.7977
  255MOL0     H33606   8.126   3.643   8.161  0.7776  0.2804 -0.4103
  255MOL0     H33607   7.886   3.741   8.100 -3.0352 -0.3687  1.1964
  255MOL0     H33608   7.895   3.791   8.266 -0.4039 -0.2313  1.0595
  255MOL0     H33609   7.912   3.501   8.157  0.8405 -1.6167  1.8073
  255MOL0     H33610   7.959   3.538   8.318  0.3486 -0.8068 -0.1865
  255MOL0     H33611   7.698   3.620   8.183  1.3135 -1.3227  0.1049
  255MOL0     H33612   7.731   3.665   8.341 -0.8841  4.1434 -4.4768
  255MOL0     H33613   7.781   3.462   8.518  0.0843  0.4754 -2.0035
  255MOL0     H33614   7.746   3.231   8.618 -1.8155  0.4890  1.4476
  255MOL0     H33615   7.617   3.117   8.562 -1.4267 -0.9149  2.8539
  255MOL0     H33616   7.559   3.390   8.701 -1.5821  0.2347 -0.0708
  255MOL0     H33617   7.598   3.233   8.787  1.6271 -3.2575 -2.0083
  255MOL0     H33618   7.360   3.292   8.608  1.6365  3.7306  1.6197
  255MOL0     H33619   7.401   3.132   8.677 -0.4136 -0.0183  0.4775
  255MOL0     H33620   7.351   3.374   8.840 -5.3860  0.6951 -0.8699
  255MOL0     H33621   7.371   3.198   8.888  0.6835 -2.8139 -1.4563
  255MOL0     H33622   7.215   3.291   9.041  0.9544  0.8880 -1.3912
  255MOL0     H33623   7.039   3.397   9.175 -1.4683  1.6406 -0.3894
  255MOL0     H33624   6.441   3.274   9.195 -0.4341  0.0280  0.7596
  255MOL0     H33625   6.271   3.373   9.318  0.6334 -1.3642 -0.6277
  255MOL0     H33626   6.100   3.586   9.255 -0.8267 -0.0125  0.7180
  255MOL0     H33627   6.159   3.749   9.241  0.1081 -1.8409 -1.8955
  255MOL0     H33628   6.012   3.616   9.475 -2.3446  0.7482 -0.3740
  255MOL0     H33629   5.951   3.736   9.368 -0.5795 -1.7096 -0.8162
  255MOL0     H33630   6.141   3.900   9.462 -1.1095  1.2088  1.0247
  255MOL0     H33631   6.173   3.775   9.574 -0.6555 -2.0288 -0.5902
  255MOL0     H33632   5.903   3.916   9.528  0.5575  0.2343 -1.6278
  255MOL0     H33633   5.922   3.763   9.619 -0.2592 -0.7427 -1.0768
  255MOL0     H33634   6.057   4.036   9.676 -1.2642  0.4863 -0.6383
  255MOL0     H33635   6.085   3.889   9.769  0.2065 -2.5007 -1.5013
  255MOL0     H33636   5.934   3.997   9.896 -0.3307  0.0933 -0.6478
  255MOL0     H33637   5.840   3.871   9.808  3.0384 -2.2425  2.7789
  255MOL0     H33638   5.855   4.176   9.730 -1.1882  0.5314  1.5330
  255MOL0     H33639   5.770   4.056   9.640 -1.1871  1.6050 -0.5958
  255MOL0     H33640   5.611   4.015   9.829 -1.5696  1.0626 -3.9179
  255MOL0     H33641   5.606   4.172   9.752  1.1426  0.9128 -0.9788
  255MOL0     H33642   6.471   3.757   9.288 -0.3481 -0.4769  3.0863
  255MOL0     H33643   6.638   3.657   9.124 -0.6141 -0.5134 -0.2526
  255MOL0     H33644   6.764   3.279   8.871 -0.1515  4.0148  1.5053
  255MOL0     H33645   6.961   3.221   8.722 -0.7013 -0.2759  0.6993
  255MOL0     H33646   8.663   4.073   7.857  0.3547 -0.4363  1.5278
  255MOL0     H33647   8.864   4.186   7.925 -0.0413 -0.9361 -1.5091
  255MOL0     H33648   9.026   4.608   8.078 -0.2765  1.3157  0.5257
  255MOL0     H33649   9.220   4.732   8.164  1.1346  1.5799  3.0408
  255MOL0     H33650   9.377   4.588   8.537 -1.1871  1.0483 -0.0496
  255MOL0     H33651   9.486   4.726   8.511  2.4417  0.6848 -1.7483
  255MOL0     H33652   9.514   4.450   8.381 -0.7934 -0.3361  0.0672
  255MOL0     H33653   9.614   4.596   8.348  3.5359 -1.9000  2.3981
  255MOL0     H33654   9.684   4.413   8.519 -4.0560 -2.0529  1.8047
  255MOL0     H33655   9.573   4.488   8.624  1.9320  0.4896  1.6953
  255MOL0     H33656   9.827   4.629   8.502 -0.3093  0.0386 -0.6025
  255MOL0     H33657   9.700   4.717   8.590 -0.0960  0.1757  1.6564
  255MOL0     H33658   9.818   4.466   8.912 -0.2815  1.2948 -0.1195
  255MOL0     H33659   9.262   4.438   8.470 -0.9446 -2.8089 -2.1665
  255MOL0     H33660   9.078   4.312   8.393  3.8099  0.1719  1.2343
  256MOL0     O33661   3.949   3.462   1.354  0.9324  0.3949 -0.6295
  256MOL0     C33662   3.860   3.430   1.271  0.7660  0.1443 -0.4301
  256MOL0     O33663   3.728   3.440   1.297 -0.4379 -0.2183  0.5227
  256MOL0     C33664   3.663   3.509   1.401 -0.6416 -0.7501 -0.2062
  256MOL0     C33665   3.700   3.490   1.541 -0.0689  0.8102  0.4213
  256MOL0     C33666   3.620   3.536   1.646 -0.1382  0.1589 -0.1016
  256MOL0     C33667   3.510   3.626   1.620  0.1791  0.4204  1.5054
  256MOL0     O33668   3.428   3.682   1.712 -0.1478  1.1059 -0.4115
  256MOL0     C33669   3.428   3.617   1.843 -0.0840 -0.3413 -0.1189
  256MOL0     C33670   3.354   3.713   1.934 -0.4869 -0.1151 -0.9004
  256MOL0     C33671   3.365   3.670   2.078  0.4733  0.2350 -0.3050
  256MOL0     C33672   3.293   3.756   2.184  0.8721 -0.1779 -0.6497
  256MOL0     C33673   3.361   3.901   2.197 -0.3668  0.3236  0.6799
  256MOL0     C33674   3.292   4.009   2.279  0.3424 -0.7799  0.8787
  256MOL0     C33675   3.149   4.060   2.254  0.3679  0.8492  0.3445
  256MOL0     C33676   3.141   4.181   2.152 -0.6095  0.4116  0.0011
  256MOL0     N33677   3.174   4.147   2.011 -0.1166  0.2533  0.0523
  256MOL0     C33678   3.071   4.084   1.932 -0.1661  1.2046  0.1796
  256MOL0     C33679   3.117   4.110   1.802  0.0946 -0.5888 -0.2123
  256MOL0     C33680   3.040   4.053   1.688  1.3048 -0.1628  1.7734
  256MOL0     C33681   3.088   3.911   1.665 -0.8898  0.7119 -0.0063
  256MOL0     C33682   3.021   3.848   1.547  0.4201  0.3887  0.1479
  256MOL0     C33683   3.045   3.691   1.557  0.0528  0.4233 -0.0936
  256MOL0     O33684   2.967   3.648   1.670  0.3472 -0.3360  0.3229
  256MOL0     C33685   3.022   3.563   1.760  0.5134  0.3843 -0.0077
  256MOL0     C33686   3.021   3.586   1.898  0.6240  0.7011 -0.3337
  256MOL0     C33687   3.078   3.504   1.997  0.2994  0.6236 -0.1343
  256MOL0     C33688   3.141   3.378   1.954 -0.5152  0.7005  0.2754
  256MOL0     C33689   3.178   3.267   2.045  0.9647  1.2992  0.2203
  256MOL0     O33690   3.207   3.310   2.176  0.1908 -0.1617 -0.1030
  256MOL0     C33691   3.206   3.215   2.277  0.0120  0.6503 -0.2806
  256MOL0     C33692   3.155   3.080   2.280  1.1962  0.0251 -0.0758
  256MOL0     C33693   3.171   2.995   2.391  0.7349 -0.9047  0.9246
  256MOL0     C33694   3.231   3.049   2.504 -0.3513  0.2797  1.1437
  256MOL0     O33695   3.256   2.980   2.620 -0.1084  1.0151 -0.6997
  256MOL0     C33696   3.182   2.869   2.643  0.3103  0.2907 -0.5868
  256MOL0     C33697   3.193   2.825   2.794 -0.5779 -0.2552  0.2057
  256MOL0     C33698   3.337   2.805   2.838  1.0066  1.4204  0.4291
  256MOL0     C33699   3.420   2.716   2.740  0.2723 -0.3538 -0.7348
  256MOL0     C33700   3.564   2.668   2.802  1.3067 -0.6828  0.1944
  256MOL0     C33701   3.629   2.567   2.701  0.3220 -0.0651 -0.2779
  256MOL0     C33702   3.669   2.646   2.572  1.1489  0.8481 -0.5708
  256MOL0     C33703   3.744   2.549   2.484 -0.6547  1.5468 -0.7582
  256MOL0    Cl33704   3.921   2.587   2.497 -0.5228 -0.2064  0.5456
  256MOL0     C33705   3.278   3.180   2.499  0.6386  0.1622 -0.1733
  256MOL0     C33706   3.259   3.267   2.393 -0.6084  0.1504 -0.6243
  256MOL0     O33707   3.179   3.147   1.997  0.3615 -0.7901  0.2107
  256MOL0     C33708   3.144   3.356   1.812 -0.3380 -0.5637  0.9727
  256MOL0     C33709   3.086   3.444   1.720  0.1154 -0.3379  0.2705
  256MOL0     N33710   3.231   4.186   1.806 -0.5891  0.5581  0.5080
  256MOL0     N33711   3.262   4.211   1.927  0.9698 -0.2743 -1.3823
  256MOL0     C33712   3.475   3.652   1.484 -0.8823 -0.6756  0.0984
  256MOL0     C33713   3.551   3.600   1.381 -0.5599 -0.1989 -0.1674
  256MOL0     C33714   3.897   3.374   1.137 -0.1421  0.4419  0.2137
  256MOL0     C33715   3.796   3.308   1.059  0.3213 -0.1649  0.4330
  256MOL0     C33716   3.837   3.255   0.937  0.2141  0.1581 -0.2829
  256MOL0     C33717   3.974   3.240   0.895 -0.2362  0.0369 -0.4376
  256MOL0     O33718   4.008   3.181   0.777 -0.3427  0.1662  0.4442
  256MOL0     C33719   3.913   3.142   0.685  1.1020  0.4038 -0.2119
  256MOL0     C33720   3.951   3.092   0.549 -0.3015  0.0944 -0.7632
  256MOL0     C33721   4.062   3.183   0.463 -0.1496  0.6496 -0.2758
  256MOL0     C33722   4.018   3.326   0.433 -0.1301  0.3944  0.2290
  256MOL0     C33723   4.046   3.368   0.293 -0.2584  0.0039 -0.4823
  256MOL0     C33724   4.079   3.415   0.186  0.6695  0.4996  0.0839
  256MOL0     C33725   4.069   3.306   0.977 -0.1303  0.4464  0.5728
  256MOL0     C33726   4.026   3.365   1.096 -0.4351  0.8191 -0.9634
  256MOL0     H33727   3.788   3.427   1.550 -0.5398  0.2094  0.9863
  256MOL0     H33728   3.636   3.489   1.742 -0.3670 -2.3095 -1.1945
  256MOL0     H33729   3.529   3.602   1.881  0.1773  0.3820 -0.5117
  256MOL0     H33730   3.382   3.518   1.834 -0.6657  0.0604 -2.2799
  256MOL0     H33731   3.250   3.700   1.903 -2.0190 -1.8173  4.0279
  256MOL0     H33732   3.380   3.819   1.930  0.2634 -0.3110 -1.3706
  256MOL0     H33733   3.469   3.677   2.110  0.2957 -0.0453  0.3480
  256MOL0     H33734   3.336   3.565   2.086  4.2224 -1.0059 -0.8931
  256MOL0     H33735   3.186   3.764   2.160  0.3638 -2.4607  0.6015
  256MOL0     H33736   3.309   3.703   2.278  5.2852  0.7080 -0.6728
  256MOL0     H33737   3.364   3.936   2.094 -1.6690  2.2936  1.2486
  256MOL0     H33738   3.461   3.889   2.238  0.1300  1.1169 -0.2838
  256MOL0     H33739   3.367   4.090   2.282 -0.6883  0.2264  0.2633
  256MOL0     H33740   3.286   3.990   2.386 -0.3957  2.7511  1.6042
  256MOL0     H33741   3.091   3.979   2.207  0.6918 -0.9777  2.9073
  256MOL0     H33742   3.098   4.100   2.342 -0.2443  3.6712 -1.1697
  256MOL0     H33743   3.192   4.269   2.193  1.4220 -1.6771  2.3443
  256MOL0     H33744   3.034   4.201   2.146 -1.3694 -3.1639 -0.2552
  256MOL0     H33745   2.996   4.011   1.960 -0.1586  0.2943 -1.9574
  256MOL0     H33746   3.060   4.121   1.605  1.8806  2.5134  3.9649
  256MOL0     H33747   2.932   4.058   1.708  0.6849  1.2475 -1.3106
  256MOL0     H33748   3.053   3.853   1.751  2.5985 -2.5011 -0.4619
  256MOL0     H33749   3.197   3.904   1.653 -1.1558 -1.4192 -1.8359
  256MOL0     H33750   2.912   3.859   1.546  0.1934 -1.1807  1.7624
  256MOL0     H33751   3.066   3.881   1.453 -1.7111  0.0170 -1.0735
  256MOL0     H33752   3.149   3.658   1.550 -0.4360 -0.9181 -1.6649
  256MOL0     H33753   2.996   3.655   1.467 -2.0579  0.7624  0.8624
  256MOL0     H33754   2.970   3.674   1.937  1.6950 -0.4507  4.3660
  256MOL0     H33755   3.047   3.534   2.097 -0.0135 -0.6876  0.1779
  256MOL0     H33756   3.103   3.037   2.195  0.8873  0.0024  0.1229
  256MOL0     H33757   3.147   2.890   2.393  2.3151 -1.2781  1.5885
  256MOL0     H33758   3.218   2.790   2.577 -0.1196 -1.6014  1.3026
  256MOL0     H33759   3.074   2.882   2.628 -0.9085 -3.6125  2.8927
  256MOL0     H33760   3.128   2.741   2.821  0.0041 -0.6887  0.2775
  256MOL0     H33761   3.148   2.901   2.859 -1.5677 -0.1883 -0.5373
  256MOL0     H33762   3.336   2.746   2.930  1.6922 -0.3329 -0.6366
  256MOL0     H33763   3.389   2.900   2.856  3.4982  0.1453  0.5022
  256MOL0     H33764   3.368   2.623   2.715  0.4773 -0.5042 -0.6069
  256MOL0     H33765   3.449   2.772   2.651 -0.1328  1.1233  0.0301
  256MOL0     H33766   3.545   2.625   2.901 -0.6932 -0.4428 -0.0516
  256MOL0     H33767   3.641   2.746   2.806  0.4119  0.1567  2.2724
  256MOL0     H33768   3.550   2.494   2.683 -0.1490 -0.4508  2.8419
  256MOL0     H33769   3.714   2.506   2.734 -0.1105 -0.7602 -0.4306
  256MOL0     H33770   3.584   2.688   2.518  1.2160  2.2530  0.3913
  256MOL0     H33771   3.726   2.735   2.597  2.7506  0.2278 -1.8469
  256MOL0     H33772   3.714   2.556   2.379  2.9055  3.4357 -1.8056
  256MOL0     H33773   3.734   2.444   2.513  4.0243  0.8273 -0.8700
  256MOL0     H33774   3.308   3.197   2.602 -3.3928 -1.0548  1.3892
  256MOL0     H33775   3.301   3.367   2.384  2.4078 -0.8721  0.5237
  256MOL0     H33776   3.183   3.261   1.776  3.9751  0.9475  1.0736
  256MOL0     H33777   3.079   3.409   1.617 -1.8801 -0.4202  0.3952
  256MOL0     H33778   3.382   3.695   1.450  0.5816  0.9062 -2.2184
  256MOL0     H33779   3.528   3.627   1.278  3.0857 -0.3826 -1.1548
  256MOL0     H33780   3.690   3.311   1.082  0.5018  3.2018  1.2488
  256MOL0     H33781   3.758   3.224   0.868  0.7107  0.0745 -0.8205
  256MOL0     H33782   3.852   3.231   0.669 -0.7418 -0.7045  0.2447
  256MOL0     H33783   3.843   3.076   0.739  0.8629  2.4224  2.1290
  256MOL0     H33784   3.999   2.994   0.560  2.6000  1.5262  0.4514
  256MOL0     H33785   3.864   3.086   0.484 -0.9246  4.1880 -0.5640
  256MOL0     H33786   4.075   3.137   0.365 -0.6181  2.0309 -1.0204
  256MOL0     H33787   4.157   3.189   0.515  0.4375  1.5368 -1.3913
  256MOL0     H33788   3.910   3.317   0.448 -0.1343 -1.6230 -0.7130
  256MOL0     H33789   4.055   3.397   0.507 -0.4292 -0.5448  1.2980
  256MOL0     H33790   4.096   3.425   0.081  2.2535 -3.2549 -0.1814
  256MOL0     H33791   4.169   3.304   0.937 -0.7824  1.1270 -1.1849
  256MOL0     H33792   4.104   3.402   1.162  0.0445  0.7226 -1.4696
  257MOL0     O33793   5.546   6.340  10.748 -0.1297 -0.4737 -0.1201
  257MOL0     C33794   5.423   6.348  10.723  0.2074  0.3448 -0.5308
  257MOL0     O33795   5.378   6.372  10.599  0.1150  0.7472  0.1387
  257MOL0     C33796   5.459   6.385  10.490 -0.1992  0.2050  0.4917
  257MOL0     C33797   5.386   6.414  10.370 -0.4571 -0.6198 -0.1345
  257MOL0     C33798   5.448   6.429  10.238  0.0851  1.0984 -0.1461
  257MOL0     C33799   5.582   6.404  10.236  0.5590  0.1857 -0.1095
  257MOL0     O33800   5.641   6.422  10.115  0.3014 -0.2131 -0.2257
  257MOL0     C33801   5.789   6.428  10.096  0.6953  0.1406 -0.5403
  257MOL0     C33802   5.836   6.306  10.030 -0.2936 -0.2839  0.1294
  257MOL0     C33803   5.762   6.175  10.079  0.6590  0.0804  0.7075
  257MOL0     C33804   5.820   6.052  10.002 -0.1046  0.4654  0.2650
  257MOL0     C33805   5.762   5.917  10.066  0.1309 -0.6740  0.9806
  257MOL0     C33806   5.830   5.790  10.018 -0.2997  0.9085 -0.5251
  257MOL0     C33807   5.754   5.671  10.075  0.1208 -0.7730 -1.4612
  257MOL0     C33808   5.830   5.611  10.193 -0.4439  0.1262  0.3777
  257MOL0     N33809   5.753   5.529  10.282 -0.3216  0.5713 -0.3541
  257MOL0     C33810   5.784   5.504  10.413  0.3505  0.5603 -0.3860
  257MOL0     C33811   5.682   5.431  10.464  0.7136 -0.2813  0.5347
  257MOL0     C33812   5.681   5.376  10.603 -0.0216  0.7786  0.8957
  257MOL0     C33813   5.792   5.264  10.603 -0.2214  1.8625 -0.3923
  257MOL0     C33814   5.797   5.168  10.729  0.1119  0.1401  0.1079
  257MOL0     C33815   5.914   5.082  10.765  0.0938 -0.4078  0.1173
  257MOL0     O33816   5.918   5.042  10.902 -0.0988 -0.5591 -0.4120
  257MOL0     C33817   6.035   4.992  10.950  1.2452  0.9096 -0.1697
  257MOL0     C33818   6.041   4.850  10.955  0.0051  0.2919 -0.8988
  257MOL0     C33819   6.163   4.795  11.004 -0.5781  0.1675 -0.7997
  257MOL0     C33820   6.263   4.881  11.044 -0.0002  0.7916 -1.3641
  257MOL0     C33821   6.392   4.830  11.094  0.3012  0.4783 -0.7032
  257MOL0     O33822   6.423   4.701  11.063 -0.2653 -0.1511 -0.1269
  257MOL0     C33823   6.514   4.648  11.149 -0.4987 -0.1333  1.0410
  257MOL0     C33824   6.651   4.693  11.160 -0.2289 -0.0070  0.4016
  257MOL0     C33825   6.740   4.600  11.225  0.9895  0.3959 -0.5635
  257MOL0     C33826   6.696   4.474  11.271 -0.3226  0.4620 -0.8011
  257MOL0     O33827   6.771   4.384  11.339 -0.7036 -0.3515 -0.0654
  257MOL0     C33828   6.862   4.437  11.439 -0.4887  0.5840  0.7395
  257MOL0     C33829   6.925   4.331  11.538 -0.0553 -0.8012  0.3674
  257MOL0     C33830   7.019   4.390  11.639  0.7091  0.1296 -0.1352
  257MOL0     C33831   7.078   4.287  11.738  0.1013 -0.6179  0.3982
  257MOL0     C33832   7.199   4.325  11.813 -0.4724 -0.0487  0.9399
  257MOL0     C33833   7.329   4.319  11.726  0.5024 -0.5603  0.1836
  257MOL0     C33834   7.445   4.339  11.805  0.0211 -0.2844  0.4211
  257MOL0     C33835   7.566   4.407  11.733 -0.4153 -0.1054  0.9365
  257MOL0    Cl33836   7.644   4.311  11.599 -0.1721 -0.1582  0.1028
  257MOL0     C33837   6.563   4.438  11.260 -0.1161  0.0936  1.3066
  257MOL0     C33838   6.479   4.524  11.196  0.3788 -0.6982  0.5210
  257MOL0     O33839   6.459   4.907  11.154 -0.2285 -0.1953 -0.3498
  257MOL0     C33840   6.254   5.019  11.041 -0.7240  0.5851 -0.3753
  257MOL0     C33841   6.137   5.075  10.989  0.1146  0.7797 -0.5073
  257MOL0     N33842   5.589   5.413  10.360  0.1097  0.2971 -0.2616
  257MOL0     N33843   5.638   5.465  10.249 -0.1196 -0.1841  1.3526
  257MOL0     C33844   5.655   6.361  10.349  0.8529 -0.0921 -0.2518
  257MOL0     C33845   5.601   6.366  10.476  0.2475 -0.8732  0.2595
  257MOL0     C33846   5.320   6.310  10.831 -0.8140 -0.7367 -1.1941
  257MOL0     C33847   5.182   6.352  10.821 -1.0645  0.3853  0.3795
  257MOL0     C33848   5.088   6.325  10.920 -0.7057  0.8949  0.2974
  257MOL0     C33849   5.130   6.264  11.041  0.0662  1.4059 -0.4187
  257MOL0     O33850   5.029   6.271  11.131  0.6834 -0.4727 -0.1182
  257MOL0     C33851   5.016   6.168  11.227  0.3784  0.0866  1.2067
  257MOL0     C33852   4.969   6.032  11.180  0.4789  1.1187  1.0154
  257MOL0     C33853   4.923   5.936  11.279 -0.2571  0.8674  0.0796
  257MOL0     C33854   5.025   5.888  11.380 -0.0246 -0.5906  1.0658
  257MOL0     C33855   4.982   5.756  11.427 -0.0228  1.6120  0.1779
  257MOL0     C33856   4.944   5.641  11.460 -0.6202  0.7201  0.5635
  257MOL0     C33857   5.261   6.220  11.055 -0.0710  0.3158 -1.1270
  257MOL0     C33858   5.356   6.249  10.952  0.2068  0.4665 -0.6784
  257MOL0     H33859   5.278   6.411  10.380 -0.5467 -3.2298 -1.2011
  257MOL0     H33860   5.376   6.462  10.164  1.1777  2.3117 -0.7201
  257MOL0     H33861   5.845   6.450  10.188 -0.1655  2.7599 -0.5615
  257MOL0     H33862   5.817   6.513  10.033  2.3649  0.0158 -0.0265
  257MOL0     H33863   5.944   6.299  10.043  0.0357  3.2107  0.1102
  257MOL0     H33864   5.819   6.315   9.922 -3.7550 -0.9083  0.5095
  257MOL0     H33865   5.654   6.175  10.064  1.1429 -0.2351 -5.1336
  257MOL0     H33866   5.782   6.163  10.185 -1.4131  0.1799  1.1548
  257MOL0     H33867   5.807   6.057   9.894  0.3886  0.4416  0.2035
  257MOL0     H33868   5.928   6.051  10.018 -0.5167  1.0427  3.9135
  257MOL0     H33869   5.654   5.919  10.046 -0.5711  5.2762  3.2382
  257MOL0     H33870   5.780   5.938  10.172 -1.5820  5.4840  0.4891
  257MOL0     H33871   5.938   5.786  10.036 -0.1206  2.4951 -1.0682
  257MOL0     H33872   5.828   5.779   9.909 -0.4220  0.5777 -0.4918
  257MOL0     H33873   5.658   5.696  10.120  1.9144  1.2229  1.6768
  257MOL0     H33874   5.717   5.595  10.006 -3.5823 -1.6634  1.2237
  257MOL0     H33875   5.871   5.694  10.253 -1.0500 -1.2702  2.8782
  257MOL0     H33876   5.915   5.553  10.156  1.1392  2.6918 -0.3174
  257MOL0     H33877   5.882   5.516  10.459 -0.4357  1.2845  1.1617
  257MOL0     H33878   5.580   5.337  10.622 -0.8478  1.4354 -1.7027
  257MOL0     H33879   5.717   5.455  10.670 -2.1678  0.2659  2.7749
  257MOL0     H33880   5.889   5.314  10.592 -0.2736  2.0212 -0.1393
  257MOL0     H33881   5.768   5.195  10.522 -1.4572 -1.5372  2.6161
  257MOL0     H33882   5.773   5.242  10.806  0.7528  0.8008 -0.3157
  257MOL0     H33883   5.708   5.105  10.721 -1.0799  1.7190  0.4286
  257MOL0     H33884   6.003   5.146  10.766  0.2666 -0.6340  2.2566
  257MOL0     H33885   5.914   4.993  10.700 -4.4231  1.1572 -2.4792
  257MOL0     H33886   5.960   4.789  10.915  1.4248 -1.0724 -1.8062
  257MOL0     H33887   6.159   4.688  11.026  0.1987  0.0978 -0.9702
  257MOL0     H33888   6.689   4.788  11.122 -2.4574  0.9758  0.4778
  257MOL0     H33889   6.844   4.628  11.238  0.5467  1.2030  1.7262
  257MOL0     H33890   6.800   4.503  11.500  1.1463  2.5144  0.4047
  257MOL0     H33891   6.946   4.493  11.398 -0.3153  0.2517  0.6307
  257MOL0     H33892   6.990   4.279  11.467 -2.7876  0.7024 -3.5745
  257MOL0     H33893   6.844   4.270  11.579 -1.8436  0.0232 -1.7184
  257MOL0     H33894   6.970   4.476  11.685  0.7040 -1.2949  2.6965
  257MOL0     H33895   7.108   4.424  11.585  1.0036  1.1452  0.9378
  257MOL0     H33896   6.995   4.270  11.808 -2.1609  2.9878 -1.0866
  257MOL0     H33897   7.105   4.193  11.690  1.4527  0.5343 -1.2353
  257MOL0     H33898   7.207   4.251  11.893 -0.3254  1.1262  2.0504
  257MOL0     H33899   7.190   4.427  11.852  1.2033  0.4326  0.1425
  257MOL0     H33900   7.309   4.392  11.647 -0.6102 -0.6305  0.3808
  257MOL0     H33901   7.337   4.226  11.669 -1.2902  0.7360 -2.3506
  257MOL0     H33902   7.433   4.394  11.899  2.0224 -1.0315  1.1688
  257MOL0     H33903   7.466   4.239  11.845  4.2668 -0.0880 -0.8823
  257MOL0     H33904   7.641   4.424  11.811  0.3706  0.6141  0.0501
  257MOL0     H33905   7.536   4.504  11.690 -0.3709 -0.1914  0.7129
  257MOL0     H33906   6.529   4.342  11.297 -1.8359 -0.1675 -0.7803
  257MOL0     H33907   6.371   4.511  11.201 -0.1288  2.5464 -0.0972
  257MOL0     H33908   6.339   5.084  11.059 -1.1003  0.9946 -0.0603
  257MOL0     H33909   6.130   5.183  10.980  0.1591  0.7339 -1.1378
  257MOL0     H33910   5.758   6.332  10.334  1.3328 -0.1842  2.6760
  257MOL0     H33911   5.676   6.368  10.554  0.0129  3.2947  0.5658
  257MOL0     H33912   5.157   6.404  10.729 -2.6288  0.9040  1.0646
  257MOL0     H33913   4.984   6.353  10.906 -1.1119  1.3562  3.3709
  257MOL0     H33914   4.957   6.201  11.314 -1.0439  0.6932  0.0496
  257MOL0     H33915   5.112   6.141  11.272 -0.1361 -3.9588  0.2700
  257MOL0     H33916   4.879   6.042  11.118  1.3761 -3.3399 -1.4463
  257MOL0     H33917   5.044   6.000  11.108  1.9499  3.0188  1.6414
  257MOL0     H33918   4.895   5.843  11.229 -0.5669  1.0922 -0.1713
  257MOL0     H33919   4.834   5.962  11.338 -1.2438 -3.1978  0.7046
  257MOL0     H33920   5.123   5.871  11.336 -1.0653 -2.5389 -0.6514
  257MOL0     H33921   5.029   5.957  11.465  1.1363 -0.3730  0.8388
  257MOL0     H33922   4.929   5.538  11.485 -2.1401  0.9575  0.7474
  257MOL0     H33923   5.281   6.173  11.151 -1.2051 -0.7969 -1.4021
  257MOL0     H33924   5.463   6.228  10.956  0.5597  0.3467 -5.4668
  258MOL0     O33925   5.832   0.953   8.438  0.1542 -0.3276 -0.8625
  258MOL0     C33926   5.921   0.883   8.393 -0.0107 -0.0681  0.0912
  258MOL0     O33927   6.046   0.873   8.448 -0.0989  0.0652 -1.4496
  258MOL0     C33928   6.074   0.970   8.546 -0.7287  0.6509  1.1966
  258MOL0     C33929   6.045   0.936   8.675  0.6595 -0.0504 -0.3754
  258MOL0     C33930   6.098   1.018   8.776  0.3039  0.3885 -0.3202
  258MOL0     C33931   6.154   1.144   8.743 -0.0014  0.0027 -0.7248
  258MOL0     O33932   6.167   1.242   8.843 -0.4727 -0.2862 -0.2794
  258MOL0     C33933   6.209   1.211   8.981 -1.2060 -0.7570  1.1285
  258MOL0     C33934   6.269   1.333   9.050  0.7731 -0.8814 -0.3497
  258MOL0     C33935   6.170   1.433   9.093 -0.3196 -0.4575  0.7718
  258MOL0     C33936   6.070   1.390   9.198 -0.3949 -0.1733  0.8290
  258MOL0     C33937   5.995   1.509   9.272  0.0809 -0.1579  0.3313
  258MOL0     C33938   5.849   1.460   9.296 -0.6664 -0.5536  0.6009
  258MOL0     C33939   5.765   1.454   9.170 -1.2804 -0.5550 -0.5569
  258MOL0     C33940   5.615   1.427   9.212 -0.3415 -0.6293 -0.5232
  258MOL0     N33941   5.528   1.402   9.096 -0.4881 -0.6084 -0.4650
  258MOL0     C33942   5.487   1.486   8.999  0.9067  0.2090  0.2477
  258MOL0     C33943   5.400   1.427   8.916  0.8129  0.5390 -0.9597
  258MOL0     C33944   5.315   1.479   8.802  0.2198  0.3069  0.9058
  258MOL0     C33945   5.241   1.609   8.825 -0.2054 -0.0737 -0.1628
  258MOL0     C33946   5.130   1.570   8.923 -0.2791  0.0223 -0.5606
  258MOL0     C33947   5.036   1.677   8.966  0.5511 -0.9089 -0.7577
  258MOL0     O33948   4.994   1.769   8.862  0.2105 -0.2843 -0.4213
  258MOL0     C33949   4.968   1.900   8.896  0.0817  0.3133 -0.0929
  258MOL0     C33950   4.945   1.950   9.021 -0.1798  0.5005 -0.3044
  258MOL0     C33951   4.932   2.085   9.047  0.3119 -0.6747 -0.0644
  258MOL0     C33952   4.944   2.180   8.939 -0.3267 -0.4917 -0.0869
  258MOL0     C33953   4.948   2.326   8.959  0.1423 -0.2894 -0.0208
  258MOL0     O33954   4.895   2.376   9.073 -0.2150  0.5218 -0.3077
  258MOL0     C33955   4.893   2.502   9.117  0.4144  0.2435  0.0399
  258MOL0     C33956   4.875   2.518   9.247  0.3220  0.3342 -0.1186
  258MOL0     C33957   4.867   2.638   9.319  0.5839 -1.9733  0.5806
  258MOL0     C33958   4.899   2.751   9.256  0.5635 -0.0325 -0.1111
  258MOL0     O33959   4.901   2.866   9.321 -0.3517 -0.1629 -0.0500
  258MOL0     C33960   5.024   2.940   9.288 -0.0619 -0.6740  0.0148
  258MOL0     C33961   5.087   2.973   9.423  0.0826 -0.4018 -0.3344
  258MOL0     C33962   5.166   2.852   9.486 -0.1191  0.0770  0.7765
  258MOL0     C33963   5.187   2.851   9.636  0.7101 -0.0427  0.5142
  258MOL0     C33964   5.250   2.718   9.683 -0.0156  0.1884 -0.0452
  258MOL0     C33965   5.260   2.716   9.834  0.1971  0.4427  0.4233
  258MOL0     C33966   5.370   2.625   9.885  0.7303 -0.7592 -0.6125
  258MOL0     C33967   5.362   2.474   9.855 -0.1858 -0.0282  0.0100
  258MOL0    Cl33968   5.281   2.372   9.982  0.0171 -0.3763 -0.1886
  258MOL0     C33969   4.909   2.740   9.108 -0.2163 -0.9728  0.3391
  258MOL0     C33970   4.913   2.616   9.043 -1.1501 -0.5210 -0.3954
  258MOL0     O33971   5.021   2.386   8.883  0.2898 -0.1520 -0.0342
  258MOL0     C33972   4.963   2.130   8.811 -1.0384  0.1231 -0.1504
  258MOL0     C33973   4.976   1.992   8.793  0.4337 -0.5230  1.1932
  258MOL0     N33974   5.397   1.301   8.964  0.3180  0.7107 -0.5633
  258MOL0     N33975   5.464   1.281   9.073  0.1128  0.4999  0.4052
  258MOL0     C33976   6.170   1.183   8.613 -0.7858  1.0448  0.0555
  258MOL0     C33977   6.140   1.087   8.517  0.7477 -0.4416  0.4125
  258MOL0     C33978   5.897   0.793   8.276 -1.1780 -0.3229  1.1417
  258MOL0     C33979   5.789   0.827   8.194  0.9995  0.4320 -0.8503
  258MOL0     C33980   5.773   0.750   8.078  1.1297 -0.4077 -0.2100
  258MOL0     C33981   5.850   0.645   8.052  0.6803  0.5116 -0.7290
  258MOL0     O33982   5.828   0.579   7.933  0.6388  0.3461  0.0106
  258MOL0     C33983   5.933   0.514   7.863  0.0020  0.4146  0.9393
  258MOL0     C33984   5.889   0.470   7.724  0.0319  0.2346  0.0621
  258MOL0     C33985   5.795   0.353   7.746  0.1857  0.6257 -0.7630
  258MOL0     C33986   5.646   0.382   7.751  0.7227 -1.2480 -1.0437
  258MOL0     C33987   5.612   0.415   7.616  0.3736 -0.3290 -0.2940
  258MOL0     C33988   5.602   0.464   7.501  0.4257  0.0358  0.1057
  258MOL0     C33989   5.951   0.607   8.138  0.3065 -1.6935 -0.5762
  258MOL0     C33990   5.975   0.690   8.250 -0.7159  0.2317  0.1201
  258MOL0     H33991   5.987   0.850   8.707 -3.2621  1.2834 -3.2055
  258MOL0     H33992   6.082   0.987   8.879 -0.0587  1.7209  0.0417
  258MOL0     H33993   6.293   1.142   8.977 -0.6670 -0.1176  1.1811
  258MOL0     H33994   6.133   1.155   9.037 -0.9335  0.0304  2.3332
  258MOL0     H33995   6.342   1.388   8.989 -0.2311  2.1064  0.9780
  258MOL0     H33996   6.323   1.291   9.136 -2.0496 -2.3818  0.7966
  258MOL0     H33997   6.115   1.471   9.006 -0.0384 -3.6235 -0.9436
  258MOL0     H33998   6.225   1.514   9.141  1.9124 -1.8673  0.7329
  258MOL0     H33999   5.996   1.330   9.145 -0.0011 -2.5596  2.8004
  258MOL0     H34000   6.113   1.327   9.277  0.2516 -0.2283  0.4415
  258MOL0     H34001   5.993   1.604   9.216 -0.4087 -0.3061  0.0907
  258MOL0     H34002   6.056   1.536   9.359  0.9128 -0.4625 -0.1436
  258MOL0     H34003   5.806   1.532   9.367 -1.9586  0.6610 -1.3082
  258MOL0     H34004   5.856   1.358   9.335  3.5404 -1.3960 -1.8351
  258MOL0     H34005   5.787   1.551   9.126  4.4285 -0.7615  0.9542
  258MOL0     H34006   5.806   1.372   9.110  2.6084 -0.2112  1.3085
  258MOL0     H34007   5.591   1.522   9.262  0.6496 -0.9975  0.7061
  258MOL0     H34008   5.601   1.347   9.285  1.5369  0.5616  1.2602
  258MOL0     H34009   5.481   1.593   9.016 -1.6076 -0.3325  4.0340
  258MOL0     H34010   5.240   1.401   8.785  1.4722 -0.6651 -0.4462
  258MOL0     H34011   5.386   1.492   8.720 -0.1228  1.7249  0.8145
  258MOL0     H34012   5.203   1.653   8.732 -0.0466 -0.3470 -0.3578
  258MOL0     H34013   5.302   1.689   8.869 -0.7461 -0.2657  0.9596
  258MOL0     H34014   5.068   1.489   8.884 -0.6126  0.0364 -0.0720
  258MOL0     H34015   5.184   1.527   9.008  1.9324  2.1434 -0.7629
  258MOL0     H34016   5.081   1.741   9.041 -4.5575  2.8139 -0.2982
  258MOL0     H34017   4.947   1.631   9.010  1.7486 -0.7288  2.0557
  258MOL0     H34018   4.929   1.879   9.101 -0.9821 -1.6857 -2.2915
  258MOL0     H34019   4.900   2.103   9.150  0.0785 -1.0400 -0.0733
  258MOL0     H34020   4.855   2.429   9.306  0.4160  0.6035  0.3244
  258MOL0     H34021   4.858   2.635   9.427 -1.4527 -5.3487  0.4646
  258MOL0     H34022   5.012   3.029   9.225  3.5241 -1.0851 -1.4912
  258MOL0     H34023   5.102   2.879   9.241  2.0461  1.1846  0.8938
  258MOL0     H34024   5.007   3.015   9.485 -0.8248 -0.2878 -1.5540
  258MOL0     H34025   5.165   3.049   9.433  0.4191 -0.9851  2.2282
  258MOL0     H34026   5.265   2.854   9.441  0.6580 -2.2424  2.1741
  258MOL0     H34027   5.119   2.759   9.451  2.9336 -1.9042  1.5700
  258MOL0     H34028   5.234   2.945   9.665 -1.4724  2.3733 -2.9679
  258MOL0     H34029   5.084   2.855   9.671 -1.7807  0.2710 -5.6405
  258MOL0     H34030   5.350   2.701   9.642 -0.9294 -3.5125 -1.1291
  258MOL0     H34031   5.189   2.634   9.649 -1.4173  2.3960 -3.6201
  258MOL0     H34032   5.163   2.687   9.876 -0.7808  0.2873 -1.8048
  258MOL0     H34033   5.283   2.815   9.876  1.5410  0.4199 -0.2004
  258MOL0     H34034   5.466   2.670   9.857  1.5032 -1.9832  0.0223
  258MOL0     H34035   5.374   2.635   9.994  3.1966 -4.4114 -0.1910
  258MOL0     H34036   5.463   2.442   9.827 -0.3117 -1.0495  0.6722
  258MOL0     H34037   5.295   2.470   9.768  1.4467  0.6529 -1.3566
  258MOL0     H34038   4.922   2.835   9.059  1.4659 -0.3827  1.8044
  258MOL0     H34039   4.922   2.603   8.936 -3.5351 -0.9197 -0.6102
  258MOL0     H34040   4.965   2.197   8.726  3.3491 -0.9839 -1.2106
  258MOL0     H34041   4.979   1.951   8.693  2.9570  0.5459  0.7602
  258MOL0     H34042   6.226   1.269   8.578  2.5480 -1.5687 -1.5628
  258MOL0     H34043   6.170   1.100   8.413  0.5742 -0.9215  0.3040
  258MOL0     H34044   5.741   0.919   8.223 -0.0981 -0.8729  1.9295
  258MOL0     H34045   5.700   0.775   8.003  0.5974  2.5807  1.1677
  258MOL0     H34046   5.971   0.421   7.906  0.0978 -1.6214 -3.1311
  258MOL0     H34047   6.022   0.576   7.870  1.7185 -1.7497 -0.2945
  258MOL0     H34048   5.848   0.553   7.665 -0.4756 -0.4213 -0.5250
  258MOL0     H34049   5.978   0.429   7.675  0.1378  1.3656 -0.7191
  258MOL0     H34050   5.813   0.287   7.831 -3.5565  0.1225 -0.1859
  258MOL0     H34051   5.806   0.276   7.669  0.3776  0.0330 -0.1625
  258MOL0     H34052   5.579   0.308   7.796 -2.1661  1.3868 -0.6883
  258MOL0     H34053   5.644   0.477   7.805 -0.7933 -1.4152 -0.7693
  258MOL0     H34054   5.590   0.509   7.404  1.1287 -3.6251 -1.8809
  258MOL0     H34055   6.013   0.521   8.113 -0.3943 -2.1691 -0.7111
  258MOL0     H34056   6.063   0.689   8.314 -0.6831  2.4482  0.1858
  259MOL0     O34057   8.930   4.267   2.251  0.6649 -0.4063 -0.3330
  259MOL0     C34058   8.998   4.183   2.193  0.2208  0.4059 -0.4077
  259MOL0     O34059   8.984   4.048   2.206 -0.5187 -0.4746  0.1844
  259MOL0     C34060   8.881   4.004   2.299 -0.8245  0.0616  0.3069
  259MOL0     C34061   8.878   4.039   2.432  0.6778  0.7902 -0.1453
  259MOL0     C34062   8.772   3.986   2.518 -0.4860  0.5268  0.2175
  259MOL0     C34063   8.673   3.904   2.472 -0.2309 -0.5588  0.1640
  259MOL0     O34064   8.571   3.869   2.554  0.0261  0.2321  0.2920
  259MOL0     C34065   8.529   3.732   2.539 -0.6512  0.2102  0.1122
  259MOL0     C34066   8.463   3.677   2.675 -0.9552  0.1115 -0.4773
  259MOL0     C34067   8.362   3.771   2.745 -0.1357 -0.3851 -0.7044
  259MOL0     C34068   8.276   3.684   2.833 -0.3470  1.0121 -0.0124
  259MOL0     C34069   8.201   3.774   2.936 -0.4267 -0.8153 -0.1853
  259MOL0     C34070   8.115   3.683   3.031  0.2391  0.3862  0.2114
  259MOL0     C34071   8.029   3.760   3.136 -0.8824  0.9397 -0.9004
  259MOL0     C34072   8.114   3.820   3.242 -0.4356 -0.8120  0.4066
  259MOL0     N34073   8.046   3.901   3.342  0.1364 -0.0029  0.5080
  259MOL0     C34074   8.008   4.035   3.340  0.5685 -0.6523  0.6863
  259MOL0     C34075   7.935   4.055   3.455  0.1169  0.0953 -0.0207
  259MOL0     C34076   7.851   4.161   3.520  0.4465 -0.6579 -0.6968
  259MOL0     C34077   7.927   4.290   3.512 -0.2687  0.1935  0.0219
  259MOL0     C34078   7.857   4.408   3.577  0.6446  0.1194  0.4283
  259MOL0     C34079   7.919   4.452   3.717  0.5067  0.7831  1.0066
  259MOL0     O34080   7.870   4.584   3.760 -0.0508  0.3603 -0.1727
  259MOL0     C34081   7.747   4.602   3.823 -0.1731  0.1782 -0.2213
  259MOL0     C34082   7.660   4.486   3.851 -0.8502 -0.4798 -0.0559
  259MOL0     C34083   7.540   4.507   3.925 -0.7182 -0.5631  0.4376
  259MOL0     C34084   7.494   4.642   3.957 -0.6627 -0.3630  0.4913
  259MOL0     C34085   7.366   4.670   4.023  0.8270  0.1430  0.0109
  259MOL0     O34086   7.299   4.555   4.043 -0.6136  0.7211 -0.5088
  259MOL0     C34087   7.177   4.561   4.103 -0.2854 -0.1991 -0.7719
  259MOL0     C34088   7.141   4.446   4.177 -0.5833 -0.5808  0.0993
  259MOL0     C34089   7.011   4.433   4.229 -0.9107  0.6580 -0.0116
  259MOL0     C34090   6.916   4.524   4.208 -0.3732 -0.4926 -0.4725
  259MOL0     O34091   6.793   4.475   4.244  0.4530  0.4696  0.5574
  259MOL0     C34092   6.714   4.570   4.317 -0.3023  0.7899  1.0665
  259MOL0     C34093   6.566   4.529   4.288 -0.8825  0.4612 -0.5467
  259MOL0     C34094   6.469   4.628   4.354  0.5843  0.3408  0.6255
  259MOL0     C34095   6.324   4.591   4.328 -1.3155  0.1262 -0.7116
  259MOL0     C34096   6.230   4.653   4.436 -0.3320  1.2857 -0.8672
  259MOL0     C34097   6.096   4.577   4.425  0.6175  0.0046  0.7878
  259MOL0     C34098   5.972   4.644   4.501 -0.1695 -0.1544 -0.0234
  259MOL0     C34099   5.834   4.589   4.466 -0.3667 -0.7803  0.2526
  259MOL0    Cl34100   5.828   4.415   4.487  0.1500  0.3136  0.3316
  259MOL0     C34101   6.950   4.638   4.137 -0.3109  0.5464  1.2548
  259MOL0     C34102   7.076   4.650   4.078 -0.4517 -0.1334 -0.3916
  259MOL0     O34103   7.339   4.786   4.048  0.4848 -0.2707  0.6932
  259MOL0     C34104   7.588   4.750   3.927 -0.2827  0.7580  0.2347
  259MOL0     C34105   7.711   4.734   3.859 -0.1317 -0.6106 -1.0213
  259MOL0     N34106   7.937   3.930   3.522  0.9679 -0.1662  0.5034
  259MOL0     N34107   8.009   3.846   3.462 -0.5672 -1.6073  0.0275
  259MOL0     C34108   8.675   3.883   2.344 -0.6120 -0.1388  1.0297
  259MOL0     C34109   8.781   3.920   2.254  0.0296  0.2419  0.5233
  259MOL0     C34110   9.097   4.239   2.107 -0.4684  0.3864  0.2323
  259MOL0     C34111   9.204   4.162   2.071  0.7134 -0.0608 -0.3781
  259MOL0     C34112   9.302   4.212   1.992  0.1143 -0.3759  0.3376
  259MOL0     C34113   9.304   4.351   1.952  0.8291  0.3847  0.0701
  259MOL0     O34114   9.400   4.391   1.866 -0.4148  1.2901 -0.5475
  259MOL0     C34115   9.406   4.528   1.823 -0.3348  0.5857 -0.4206
  259MOL0     C34116   9.515   4.532   1.716 -0.3037 -1.2430  0.0132
  259MOL0     C34117   9.654   4.478   1.768  0.7509  0.1952  0.2906
  259MOL0     C34118   9.764   4.474   1.661 -0.4870 -0.5054  1.5078
  259MOL0     C34119   9.816   4.602   1.606 -0.0495  0.1035 -0.1791
  259MOL0     C34120   9.848   4.715   1.568 -0.6049 -0.6104  0.0589
  259MOL0     C34121   9.200   4.432   2.000 -0.3922  0.5199 -0.1308
  259MOL0     C34122   9.101   4.378   2.072  0.3728  0.1681  0.1614
  259MOL0     H34123   8.958   4.097   2.476  1.3383  0.6434 -1.1180
  259MOL0     H34124   8.780   4.005   2.625 -0.4310  3.7510 -0.2555
  259MOL0     H34125   8.620   3.672   2.524  1.1252  2.8401 -0.2144
  259MOL0     H34126   8.454   3.723   2.460 -0.0654  3.3652 -0.9202
  259MOL0     H34127   8.552   3.674   2.738 -0.0944  2.5607 -1.4359
  259MOL0     H34128   8.420   3.577   2.666 -3.0664  1.1420 -3.7626
  259MOL0     H34129   8.291   3.813   2.672 -0.1937  2.1309  0.6880
  259MOL0     H34130   8.408   3.860   2.788  1.1403 -0.4308 -1.9042
  259MOL0     H34131   8.211   3.605   2.795  0.9001 -0.2473  0.3869
  259MOL0     H34132   8.351   3.632   2.894 -1.2301  0.8450  0.9571
  259MOL0     H34133   8.137   3.834   2.871 -1.7250 -0.5576  1.2836
  259MOL0     H34134   8.270   3.832   2.997 -1.8340 -1.1126  1.7991
  259MOL0     H34135   8.180   3.605   3.073 -0.0866 -0.4278 -0.7534
  259MOL0     H34136   8.043   3.629   2.969  1.1737 -0.4512 -0.1671
  259MOL0     H34137   7.966   3.838   3.093 -0.5777  0.9126 -1.3935
  259MOL0     H34138   7.961   3.687   3.181  0.0926  1.2876  1.2770
  259MOL0     H34139   8.186   3.887   3.193 -1.5785  1.7750  2.0989
  259MOL0     H34140   8.167   3.742   3.298 -1.2208 -0.8541  1.1032
  259MOL0     H34141   8.021   4.104   3.257 -0.8353  0.4311  1.3151
  259MOL0     H34142   7.816   4.135   3.620 -1.1378  0.2494 -0.9735
  259MOL0     H34143   7.755   4.178   3.470 -1.0517  0.5075  2.3288
  259MOL0     H34144   7.955   4.326   3.413  0.0279  0.9448  0.3666
  259MOL0     H34145   8.026   4.274   3.556  0.0756 -0.7193 -1.0595
  259MOL0     H34146   7.881   4.493   3.512  3.0080 -1.2364 -0.5858
  259MOL0     H34147   7.749   4.387   3.579  0.5103 -0.0227 -2.7579
  259MOL0     H34148   8.027   4.458   3.700  0.2342  0.1192 -1.4595
  259MOL0     H34149   7.905   4.380   3.798 -0.1182 -1.0296 -0.6089
  259MOL0     H34150   7.698   4.389   3.820  3.2341  0.2643  1.8940
  259MOL0     H34151   7.473   4.424   3.944 -0.5648 -0.2389  2.6567
  259MOL0     H34152   7.206   4.361   4.195  1.0762  0.6141 -0.0760
  259MOL0     H34153   6.978   4.332   4.252  0.1210  0.3297  0.0677
  259MOL0     H34154   6.719   4.675   4.286 -1.4949  0.8378  1.0011
  259MOL0     H34155   6.724   4.563   4.426  2.1248 -0.6923  0.8220
  259MOL0     H34156   6.546   4.431   4.331  0.6934 -0.5774 -2.0373
  259MOL0     H34157   6.558   4.516   4.180 -0.6039 -3.5221 -0.2284
  259MOL0     H34158   6.469   4.730   4.317 -0.7043 -0.1369 -0.8019
  259MOL0     H34159   6.477   4.604   4.461 -1.7516  1.3911  1.1167
  259MOL0     H34160   6.298   4.619   4.225  0.0351  1.5337 -0.7020
  259MOL0     H34161   6.323   4.481   4.326  3.4770 -0.1487  0.7935
  259MOL0     H34162   6.211   4.760   4.423 -1.3884  1.5030  1.7814
  259MOL0     H34163   6.265   4.638   4.539 -1.5913  1.2684 -0.4221
  259MOL0     H34164   6.088   4.472   4.453 -2.9298 -0.3044 -0.8958
  259MOL0     H34165   6.071   4.582   4.319  1.1703  0.5395  0.6729
  259MOL0     H34166   5.992   4.646   4.609 -3.8335  0.4291  0.7608
  259MOL0     H34167   5.965   4.752   4.486 -0.7514  0.0544  1.5562
  259MOL0     H34168   5.834   4.603   4.358  0.6513  4.4280  0.6794
  259MOL0     H34169   5.747   4.645   4.500  0.2425  1.4694 -1.6222
  259MOL0     H34170   6.871   4.711   4.119 -2.0212 -1.8762 -2.0445
  259MOL0     H34171   7.087   4.734   4.009  1.8061  1.0193  1.2499
  259MOL0     H34172   7.554   4.849   3.955 -3.7989  0.1159 -1.1532
  259MOL0     H34173   7.776   4.815   3.828 -0.5943 -0.5545 -1.8550
  259MOL0     H34174   8.600   3.824   2.293  0.2530  0.4165 -0.9967
  259MOL0     H34175   8.794   3.868   2.160 -3.2685  2.0440 -1.1283
  259MOL0     H34176   9.233   4.060   2.098  0.4942  0.5411  2.4325
  259MOL0     H34177   9.385   4.157   1.949  2.4477  1.6691  1.9939
  259MOL0     H34178   9.436   4.591   1.907  0.1173 -1.7072  1.2477
  259MOL0     H34179   9.312   4.561   1.779  1.1789  0.8142 -3.7615
  259MOL0     H34180   9.476   4.471   1.634  0.8090 -1.0732 -0.6614
  259MOL0     H34181   9.523   4.639   1.694 -0.1727 -1.2060  0.2462
  259MOL0     H34182   9.635   4.375   1.801  0.0492  0.6560  1.3714
  259MOL0     H34183   9.681   4.548   1.847 -2.2438  2.3095 -0.3827
  259MOL0     H34184   9.848   4.415   1.700 -1.6883 -1.8066  2.2096
  259MOL0     H34185   9.726   4.424   1.572  0.9690 -2.9968  2.1734
  259MOL0     H34186   9.880   4.807   1.524  0.5703 -1.9419 -2.0809
  259MOL0     H34187   9.187   4.538   1.979  1.1773  0.4193 -1.8686
  259MOL0     H34188   9.011   4.436   2.093  1.4784  1.5844  1.1440
  260MOL0     O34189   7.152   7.921   0.805  0.4135  0.2280  0.7116
  260MOL0     C34190   7.255   7.851   0.811  0.3477 -1.0015 -0.3010
  260MOL0     O34191   7.378   7.893   0.781  0.1703 -0.1726  0.8317
  260MOL0     C34192   7.415   8.026   0.767  0.1703  0.7042 -0.0960
  260MOL0     C34193   7.545   8.040   0.721 -0.6702 -0.8493 -0.0958
  260MOL0     C34194   7.598   8.170   0.711 -0.4396 -0.2965  0.5982
  260MOL0     C34195   7.519   8.283   0.744  0.3899  0.0536  0.6227
  260MOL0     O34196   7.579   8.401   0.742  0.1639  0.1545  0.2196
  260MOL0     C34197   7.648   8.441   0.625 -0.2215 -0.7487  0.6108
  260MOL0     C34198   7.757   8.542   0.674  0.6934 -0.9670 -0.7273
  260MOL0     C34199   7.812   8.647   0.573  0.0712 -0.3342 -0.3996
  260MOL0     C34200   7.790   8.626   0.419  0.9890 -0.1159  0.4354
  260MOL0     C34201   7.887   8.516   0.377  0.0302  1.1361 -0.7714
  260MOL0     C34202   7.962   8.548   0.246 -0.1420 -0.1187 -0.3181
  260MOL0     C34203   8.042   8.421   0.202 -0.8482 -0.6249  0.0511
  260MOL0     C34204   7.964   8.332   0.100 -0.1649 -0.1323 -0.8813
  260MOL0     N34205   7.990   8.195   0.123  0.3592 -0.7219  0.4939
  260MOL0     C34206   8.077   8.116   0.046  0.2985  0.4666 -0.5278
  260MOL0     C34207   8.071   7.994   0.103 -0.4734  0.4907 -0.4565
  260MOL0     C34208   8.158   7.890   0.052 -0.1921  0.2356 -0.0701
  260MOL0     C34209   8.288   7.903   0.141 -1.3385  0.4268 -0.1156
  260MOL0     C34210   8.300   7.799   0.248 -0.9909 -0.3729  0.0341
  260MOL0     C34211   8.212   7.833   0.368 -0.7037  0.1825  0.3690
  260MOL0     O34212   8.275   7.786   0.491 -0.2256  1.0775  0.4051
  260MOL0     C34213   8.229   7.658   0.528 -0.9103  0.5510 -0.8278
  260MOL0     C34214   8.193   7.551   0.454  0.5195  0.2110 -1.2166
  260MOL0     C34215   8.146   7.434   0.521 -0.1008 -0.6030 -0.1046
  260MOL0     C34216   8.151   7.420   0.660 -0.5612 -0.7536  0.6313
  260MOL0     C34217   8.121   7.294   0.730  0.2461  0.1086  0.1120
  260MOL0     O34218   8.153   7.279   0.869  0.3397 -0.7679  0.8473
  260MOL0     C34219   8.138   7.169   0.942  1.1187  0.5561 -0.0559
  260MOL0     C34220   8.100   7.182   1.076 -0.9282  0.7950 -0.2093
  260MOL0     C34221   8.098   7.072   1.154  0.2718  0.0973  0.1067
  260MOL0     C34222   8.115   6.947   1.099 -0.6350 -0.5932  0.2960
  260MOL0     O34223   8.117   6.839   1.180 -0.5039  0.2569 -0.2965
  260MOL0     C34224   8.122   6.856   1.324  0.6836  1.2505 -0.5040
  260MOL0     C34225   7.987   6.866   1.398 -0.5295  0.5551  0.4928
  260MOL0     C34226   7.907   6.734   1.362 -0.5893 -0.3377 -0.2498
  260MOL0     C34227   7.837   6.730   1.232 -0.8815  0.5571  0.5903
  260MOL0     C34228   7.698   6.671   1.260  0.4083  0.8320  1.1921
  260MOL0     C34229   7.582   6.771   1.271 -0.7785  0.2327 -0.3438
  260MOL0     C34230   7.442   6.720   1.223 -0.3879  0.4576 -0.8312
  260MOL0     C34231   7.381   6.637   1.335 -0.6124  0.4144  0.0927
  260MOL0    Cl34232   7.354   6.724   1.486  0.0154  0.0991 -0.0783
  260MOL0     C34233   8.131   6.926   0.961 -0.6363  0.1280 -0.3075
  260MOL0     C34234   8.144   7.039   0.884  0.2799  0.5144 -0.3790
  260MOL0     O34235   8.081   7.207   0.653  0.0968 -1.1611  0.4338
  260MOL0     C34236   8.194   7.527   0.736  0.2943  0.1653 -0.6063
  260MOL0     C34237   8.226   7.647   0.662  0.0550 -0.2405 -0.8947
  260MOL0     N34238   7.976   7.996   0.213  0.7483 -0.0770 -0.0355
  260MOL0     N34239   7.946   8.123   0.231  0.1144  0.1530  0.1981
  260MOL0     C34240   7.395   8.265   0.800  0.8008 -0.3622  0.1561
  260MOL0     C34241   7.349   8.136   0.817  0.0576 -0.0839  0.3745
  260MOL0     C34242   7.248   7.719   0.866 -0.0080  0.1485 -0.2898
  260MOL0     C34243   7.120   7.670   0.910 -1.4927 -0.4072  0.7909
  260MOL0     C34244   7.117   7.551   0.978 -0.4542  0.4401 -0.7945
  260MOL0     C34245   7.225   7.467   0.982  0.5998  0.9123  0.3903
  260MOL0     O34246   7.195   7.342   1.045  0.2329  0.0358  0.4885
  260MOL0     C34247   7.305   7.279   1.119 -0.1324 -0.7095  0.2533
  260MOL0     C34248   7.339   7.347   1.254 -0.1710  0.2502 -0.3247
  260MOL0     C34249   7.216   7.413   1.332 -0.1338 -0.6379 -0.1708
  260MOL0     C34250   7.095   7.317   1.357 -0.2938 -0.7706  0.7345
  260MOL0     C34251   7.141   7.201   1.433 -0.0457 -0.3918  0.8842
  260MOL0     C34252   7.194   7.114   1.493  0.5993  0.0739 -0.1988
  260MOL0     C34253   7.351   7.512   0.942  0.7520  0.5884  0.0319
  260MOL0     C34254   7.362   7.635   0.883  0.9042  0.3454 -0.7242
  260MOL0     H34255   7.608   7.962   0.680  2.2193  1.9214 -1.3874
  260MOL0     H34256   7.701   8.186   0.678 -0.0990  1.5187  2.3693
  260MOL0     H34257   7.576   8.495   0.563  4.0204  3.9007 -0.8821
  260MOL0     H34258   7.684   8.353   0.570  1.2831 -0.2031  0.6812
  260MOL0     H34259   7.847   8.485   0.698 -0.6318 -3.3283 -1.1428
  260MOL0     H34260   7.725   8.591   0.767  0.2766  3.8473 -3.0836
  260MOL0     H34261   7.920   8.663   0.577 -0.0786  0.5464  1.2853
  260MOL0     H34262   7.758   8.741   0.590 -1.2203 -0.4785 -3.1319
  260MOL0     H34263   7.686   8.597   0.401  0.8037  1.5627 -1.6166
  260MOL0     H34264   7.810   8.720   0.365 -1.8151  1.5156  1.9844
  260MOL0     H34265   7.830   8.422   0.381  1.4667  0.2515  2.3843
  260MOL0     H34266   7.966   8.503   0.451  0.3629  1.4809 -1.0692
  260MOL0     H34267   8.023   8.635   0.268 -3.1690  1.3827  3.4215
  260MOL0     H34268   7.899   8.578   0.162  1.2395  0.4167 -1.1847
  260MOL0     H34269   8.140   8.449   0.163 -0.4371  2.3428  2.7994
  260MOL0     H34270   8.061   8.367   0.295 -0.2118 -1.6618 -0.6631
  260MOL0     H34271   7.985   8.369  -0.001  0.2736  2.3922  0.0619
  260MOL0     H34272   7.863   8.350   0.136 -0.6266 -1.3814 -1.5180
  260MOL0     H34273   8.138   8.144  -0.039 -0.6871  0.2188 -1.3445
  260MOL0     H34274   8.192   7.924  -0.046 -3.3007  0.1210 -1.2883
  260MOL0     H34275   8.115   7.790   0.063  1.4217 -0.3191  1.9795
  260MOL0     H34276   8.305   8.005   0.178 -0.7436  0.5712 -0.7769
  260MOL0     H34277   8.378   7.890   0.080 -0.0563  2.7357  1.1160
  260MOL0     H34278   8.309   7.698   0.206  3.1647  1.6101 -4.9471
  260MOL0     H34279   8.401   7.817   0.284 -0.6197  4.2066 -2.5915
  260MOL0     H34280   8.110   7.800   0.351 -0.4531 -1.4829  1.7852
  260MOL0     H34281   8.206   7.942   0.373  0.6088  0.3433 -0.9198
  260MOL0     H34282   8.181   7.556   0.346  1.7658  1.8209 -1.3106
  260MOL0     H34283   8.105   7.350   0.466  1.8618 -1.3528 -0.5255
  260MOL0     H34284   8.096   7.279   1.124 -2.0770  0.5557  0.2189
  260MOL0     H34285   8.078   7.086   1.260 -2.7316  1.1254 -0.5103
  260MOL0     H34286   8.183   6.942   1.354 -0.3471  1.2960  1.5971
  260MOL0     H34287   8.167   6.771   1.375 -0.2057 -0.3372 -2.2536
  260MOL0     H34288   7.937   6.958   1.367  2.0480  2.0362  0.3836
  260MOL0     H34289   8.007   6.876   1.505  0.9178 -0.2814  0.3307
  260MOL0     H34290   7.834   6.723   1.443 -3.3199  1.4289 -2.2914
  260MOL0     H34291   7.978   6.650   1.359  1.6947  1.4151  1.2402
  260MOL0     H34292   7.828   6.831   1.192  0.0327  0.5733  0.3900
  260MOL0     H34293   7.884   6.655   1.167 -1.1543 -0.4673  1.5384
  260MOL0     H34294   7.704   6.603   1.345  0.2476 -0.2838  0.3330
  260MOL0     H34295   7.666   6.605   1.179  0.7506 -1.0623  2.5377
  260MOL0     H34296   7.606   6.854   1.203 -3.8130  1.0690 -0.5170
  260MOL0     H34297   7.565   6.804   1.374  1.5858 -0.3589  0.3044
  260MOL0     H34298   7.376   6.799   1.186 -0.6582  0.4556 -0.3704
  260MOL0     H34299   7.455   6.667   1.128  0.0488  4.7212 -3.3813
  260MOL0     H34300   7.447   6.553   1.358  3.4710  3.0665 -0.9458
  260MOL0     H34301   7.283   6.610   1.293 -0.0086 -0.2101 -0.9608
  260MOL0     H34302   8.118   6.828   0.915 -2.6585  0.2820 -0.1578
  260MOL0     H34303   8.145   7.013   0.779  0.0922  0.6958 -0.4263
  260MOL0     H34304   8.203   7.533   0.844 -1.4313  3.4055 -0.5060
  260MOL0     H34305   8.272   7.725   0.722 -0.5014 -1.0558  0.6733
  260MOL0     H34306   7.344   8.356   0.832 -1.6775 -0.9628 -1.7793
  260MOL0     H34307   7.252   8.120   0.863  0.8720 -1.1973  1.7665
  260MOL0     H34308   7.028   7.728   0.905 -0.3600  1.3202 -1.9665
  260MOL0     H34309   7.026   7.520   1.028  1.0213  0.6813  2.2572
  260MOL0     H34310   7.398   7.281   1.063 -1.9059 -1.5659 -2.9659
  260MOL0     H34311   7.281   7.173   1.134  0.3540 -1.1802 -1.9272
  260MOL0     H34312   7.373   7.262   1.314  1.4607  0.4008 -0.9672
  260MOL0     H34313   7.420   7.419   1.237 -0.9778  0.7908 -2.1306
  260MOL0     H34314   7.183   7.505   1.283 -1.4722 -2.2509 -2.5310
  260MOL0     H34315   7.247   7.436   1.434  4.2154 -0.1877 -1.3872
  260MOL0     H34316   7.023   7.369   1.420  1.3245  3.8331 -0.8089
  260MOL0     H34317   7.050   7.288   1.262  0.9246  0.7631 -0.3625
  260MOL0     H34318   7.237   7.039   1.556 -1.0999  0.4097  1.4453
  260MOL0     H34319   7.436   7.446   0.936 -1.1753 -1.9686 -0.8457
  260MOL0     H34320   7.463   7.657   0.849  1.3480 -0.4204  0.0432
  261MOL0     O34321   9.621   8.772  11.272  0.4384  0.0685  0.2776
  261MOL0     C34322   9.547   8.859  11.305  0.1599 -0.4115 -0.3519
  261MOL0     O34323   9.436   8.897  11.239 -0.3207 -0.7070 -0.7848
  261MOL0     C34324   9.404   8.829  11.121  0.1312 -0.6450 -0.6953
  261MOL0     C34325   9.423   8.888  10.990  0.1844  0.2071  1.4714
  261MOL0     C34326   9.395   8.819  10.878 -0.0801 -0.2551 -0.2802
  261MOL0     C34327   9.346   8.691  10.888  0.3091  0.1628  0.0415
  261MOL0     O34328   9.298   8.630  10.780 -0.2145 -0.5289  0.0172
  261MOL0     C34329   9.366   8.651  10.646 -0.9741 -0.2136  0.2420
  261MOL0     C34330   9.285   8.557  10.555  0.4000  0.3569  0.1157
  261MOL0     C34331   9.348   8.529  10.419  0.9975 -0.0697 -1.0013
  261MOL0     C34332   9.246   8.496  10.312 -0.1079  0.0123 -0.3722
  261MOL0     C34333   9.272   8.561  10.182  0.2962 -0.1359 -0.4057
  261MOL0     C34334   9.400   8.526  10.101  0.3138  1.0615  0.3596
  261MOL0     C34335   9.405   8.606   9.965 -0.6396 -0.6061 -0.2695
  261MOL0     C34336   9.526   8.585   9.876 -0.2049  0.1096  1.6466
  261MOL0     N34337   9.639   8.496   9.925 -0.4832  0.2700  0.2829
  261MOL0     C34338   9.725   8.520  10.035  0.5748 -0.8449 -0.6868
  261MOL0     C34339   9.810   8.420  10.054  0.1938 -0.7302 -1.2185
  261MOL0     C34340   9.916   8.407  10.168  0.0209 -0.0489 -0.3463
  261MOL0     C34341   9.922   8.275  10.257 -0.7107 -0.0096  0.4083
  261MOL0     C34342   9.793   8.252  10.325  1.3939  0.3824  0.9737
  261MOL0     C34343   9.790   8.105  10.389  0.6546 -0.2944  0.0530
  261MOL0     O34344   9.774   7.995  10.304  0.2467  0.6767 -0.5038
  261MOL0     C34345   9.736   7.865  10.357 -0.8248  0.5804 -0.6119
  261MOL0     C34346   9.724   7.848  10.499  0.1695  0.0993 -0.5420
  261MOL0     C34347   9.707   7.725  10.555  0.3954 -0.5136 -0.6396
  261MOL0     C34348   9.684   7.619  10.470 -0.3949 -0.0352  0.3149
  261MOL0     C34349   9.665   7.484  10.530  0.1572 -0.5763 -0.6554
  261MOL0     O34350   9.678   7.472  10.666  0.0676  0.6295 -0.3452
  261MOL0     C34351   9.703   7.347  10.723  0.1800  0.0434 -0.2697
  261MOL0     C34352   9.808   7.268  10.677 -0.3603  0.8100 -0.5270
  261MOL0     C34353   9.831   7.143  10.734 -1.5091  0.5652 -0.6982
  261MOL0     C34354   9.743   7.096  10.834 -0.1000 -0.2005 -0.4680
  261MOL0     O34355   9.748   6.974  10.891  0.4598  0.1855 -0.2958
  261MOL0     C34356   9.844   6.874  10.836 -0.0996  0.3802 -0.0938
  261MOL0     C34357   9.807   6.733  10.898  0.3877 -0.5426 -0.5446
  261MOL0     C34358   9.925   6.634  10.880  0.6257  0.4215  0.5933
  261MOL0     C34359   9.912   6.500  10.950 -0.8608  0.7074  0.6544
  261MOL0     C34360  10.029   6.401  10.923 -1.0635  0.3684  0.0704
  261MOL0     C34361  10.001   6.298  10.815  0.3822  0.2617  0.0247
  261MOL0     C34362  10.097   6.185  10.835 -0.7263  0.1673 -0.1696
  261MOL0     C34363  10.084   6.084  10.715  0.0022 -0.5591  0.4202
  261MOL0    Cl34364  10.065   6.163  10.549  0.2902 -0.9447  0.1298
  261MOL0     C34365   9.645   7.177  10.872 -0.2049 -0.3340  0.3799
  261MOL0     C34366   9.615   7.305  10.821 -0.3734  0.0167  0.5707
  261MOL0     O34367   9.650   7.387  10.450  0.2377 -1.1021 -0.8939
  261MOL0     C34368   9.659   7.645  10.331  0.8739  0.2424 -0.0270
  261MOL0     C34369   9.695   7.766  10.270  0.0518 -0.3682  0.3061
  261MOL0     N34370   9.785   8.337   9.948  0.3467 -1.1326  0.2577
  261MOL0     N34371   9.685   8.388   9.870 -0.2874  0.5080  0.5336
  261MOL0     C34372   9.327   8.630  11.012 -0.1496 -0.0844 -1.0326
  261MOL0     C34373   9.355   8.701  11.133  0.0410  1.0483  0.0943
  261MOL0     C34374   9.568   8.927  11.444  0.4599  1.0209  0.8108
  261MOL0     C34375   9.488   9.034  11.487 -1.6024 -0.2860  0.7681
  261MOL0     C34376   9.524   9.106  11.597 -0.5575 -0.2100 -0.0587
  261MOL0     C34377   9.633   9.058  11.678 -0.0483 -0.4084 -0.3162
  261MOL0     O34378   9.647   9.124  11.794 -0.3506 -0.3565 -0.0931
  261MOL0     C34379   9.749   9.089  11.896  0.1236 -0.6668  0.7913
  261MOL0     C34380   9.755   9.212  11.989  0.0045 -0.0039 -0.6435
  261MOL0     C34381   9.620   9.232  12.058 -0.2738 -0.2402  0.6242
  261MOL0     C34382   9.598   9.127  12.175  0.3283 -0.0070 -0.2643
  261MOL0     C34383   9.663   9.159  12.300 -0.7656 -0.3075  0.3432
  261MOL0     C34384   9.710   9.195  12.400  0.7892 -0.0165  0.0950
  261MOL0     C34385   9.706   8.939  11.644 -0.4847 -1.1085  0.4892
  261MOL0     C34386   9.681   8.886  11.519  0.7364 -0.8405 -0.0128
  261MOL0     H34387   9.470   8.986  10.985 -1.5219  1.0215 -2.2565
  261MOL0     H34388   9.400   8.872  10.783  1.4936  1.2205  0.5624
  261MOL0     H34389   9.472   8.626  10.643  1.0480  6.5016 -1.6726
  261MOL0     H34390   9.349   8.751  10.604  0.5881  0.5371  1.3162
  261MOL0     H34391   9.181   8.592  10.557 -1.4637 -4.2923 -1.5545
  261MOL0     H34392   9.274   8.460  10.604  1.0135 -0.3427 -1.0786
  261MOL0     H34393   9.417   8.445  10.413 -0.7570 -1.7905  1.0907
  261MOL0     H34394   9.409   8.614  10.386  3.6406 -0.9779  1.2092
  261MOL0     H34395   9.261   8.388  10.302  0.2544 -0.6502  4.7168
  261MOL0     H34396   9.141   8.523  10.332 -0.9130 -0.3958 -3.5335
  261MOL0     H34397   9.278   8.670  10.192 -1.1475  0.1449 -2.1066
  261MOL0     H34398   9.192   8.541  10.110 -1.1199  0.0863  1.0507
  261MOL0     H34399   9.405   8.418  10.085 -1.1304  0.9757  0.2967
  261MOL0     H34400   9.482   8.560  10.165 -0.0839  2.8930 -0.0664
  261MOL0     H34401   9.323   8.562   9.908 -0.9702 -1.4341  0.8036
  261MOL0     H34402   9.390   8.714   9.976  1.8908 -0.0454 -1.6228
  261MOL0     H34403   9.564   8.685   9.857  0.8951 -0.7075 -0.9236
  261MOL0     H34404   9.493   8.557   9.776  0.9651  1.8176  0.7352
  261MOL0     H34405   9.727   8.610  10.095 -0.1035 -0.2204 -1.5744
  261MOL0     H34406   9.883   8.480  10.242 -0.4519 -0.7740  0.1646
  261MOL0     H34407  10.013   8.431  10.123 -0.9123  1.1119 -1.8496
  261MOL0     H34408  10.004   8.284  10.329 -0.9531  1.1361  0.5537
  261MOL0     H34409   9.926   8.181  10.202 -0.6473 -0.1862  0.7097
  261MOL0     H34410   9.792   8.326  10.405  1.2144 -0.3824  1.6974
  261MOL0     H34411   9.709   8.260  10.256  1.0897 -0.6309  1.1948
  261MOL0     H34412   9.710   8.102  10.463  1.8802 -1.6788  1.3910
  261MOL0     H34413   9.880   8.078  10.446  0.0431 -0.1006  1.1306
  261MOL0     H34414   9.740   7.935  10.562 -0.3169  1.0772 -1.7296
  261MOL0     H34415   9.701   7.714  10.663  1.3176  0.2835 -0.4954
  261MOL0     H34416   9.869   7.310  10.598 -0.6990  2.6763  0.1519
  261MOL0     H34417   9.906   7.082  10.686  0.0882  1.3458  0.7148
  261MOL0     H34418   9.948   6.894  10.863 -0.6052  3.0621  0.1521
  261MOL0     H34419   9.841   6.877  10.727  2.4684  2.1216 -0.2025
  261MOL0     H34420   9.717   6.693  10.849  1.1423 -3.1720  0.1070
  261MOL0     H34421   9.793   6.738  11.006  0.1210 -1.0962 -0.5510
  261MOL0     H34422  10.016   6.680  10.920 -0.0416  0.2542  2.3895
  261MOL0     H34423   9.942   6.608  10.775  3.1984  0.1741  1.0042
  261MOL0     H34424   9.907   6.521  11.057 -0.7620  1.4454  0.5239
  261MOL0     H34425   9.817   6.456  10.920  0.1583 -0.0533 -1.7411
  261MOL0     H34426  10.029   6.346  11.018 -1.7631 -1.0750 -0.7309
  261MOL0     H34427  10.119   6.457  10.899  0.1705 -1.4929  0.1110
  261MOL0     H34428  10.009   6.351  10.720  1.7401 -0.1237 -0.0880
  261MOL0     H34429   9.901   6.258  10.832 -0.6501  1.9589 -1.6715
  261MOL0     H34430  10.199   6.220  10.855 -1.1527 -0.3959  3.6993
  261MOL0     H34431  10.068   6.130  10.925  1.3194 -0.8940 -0.1016
  261MOL0     H34432   9.994   6.026  10.736  0.0284  0.2087  2.9753
  261MOL0     H34433  10.169   6.016  10.723  0.2717 -0.5299 -1.5756
  261MOL0     H34434   9.600   7.154  10.968  0.1966 -2.2251  0.1465
  261MOL0     H34435   9.540   7.368  10.869  1.6408  0.6321  3.0847
  261MOL0     H34436   9.640   7.560  10.267  0.2038  0.3583  0.0119
  261MOL0     H34437   9.696   7.769  10.162  1.7436  0.4639  0.3197
  261MOL0     H34438   9.286   8.530  11.027  0.7990 -0.3014  0.2977
  261MOL0     H34439   9.356   8.656  11.232 -2.3448  0.9990  0.1555
  261MOL0     H34440   9.394   9.051  11.435 -0.8576  0.3679 -0.4191
  261MOL0     H34441   9.465   9.187  11.638 -0.6794 -0.2928 -0.0709
  261MOL0     H34442   9.846   9.083  11.845 -0.9770  0.9249 -1.7015
  261MOL0     H34443   9.741   8.993  11.948  0.5966  1.1292  4.4785
  261MOL0     H34444   9.827   9.190  12.068 -1.0954 -0.5161  0.2422
  261MOL0     H34445   9.803   9.291  11.931  3.0835 -2.3361 -1.5432
  261MOL0     H34446   9.534   9.217  11.992  0.8115 -0.5617 -0.7690
  261MOL0     H34447   9.602   9.331  12.101 -0.0249  0.8806 -1.7063
  261MOL0     H34448   9.491   9.120  12.197 -0.1446  1.7417 -1.7193
  261MOL0     H34449   9.638   9.031  12.142 -0.1477 -0.3276  0.0808
  261MOL0     H34450   9.756   9.238  12.486 -0.9519  3.1314 -0.4010
  261MOL0     H34451   9.789   8.908  11.708  2.5333  0.9726 -2.1365
  261MOL0     H34452   9.749   8.805  11.495  2.3009  0.7455 -1.2048
  262MOL0     O34453   9.909  11.313  11.184 -0.5810 -0.6984  0.9186
  262MOL0     C34454   9.826  11.234  11.217 -0.4304 -0.4787  0.0596
  262MOL0     O34455   9.840  11.142  11.311  0.8840  0.2880  0.3981
  262MOL0     C34456   9.965  11.127  11.372 -0.7184 -0.6484  0.3323
  262MOL0     C34457  10.094  11.141  11.301  0.8462  0.5845  0.0344
  262MOL0     C34458  10.213  11.104  11.373  0.3415 -0.4965 -0.2447
  262MOL0     C34459  10.208  11.071  11.514  1.2557  0.7903  0.5221
  262MOL0     O34460  10.326  11.072  11.579 -0.4024 -0.8250  0.0503
  262MOL0     C34461  10.348  10.964  11.678 -0.2202 -0.1645 -0.0373
  262MOL0     C34462  10.380  10.844  11.614 -0.1455  0.3218  0.4834
  262MOL0     C34463  10.522  10.847  11.569 -0.4037 -0.1280 -0.6538
  262MOL0     C34464  10.548  10.747  11.449 -0.2919 -0.2223 -0.3711
  262MOL0     C34465  10.693  10.768  11.395  0.4165  0.5987 -0.6781
  262MOL0     C34466  10.706  10.876  11.286 -0.1954 -0.2184  1.0142
  262MOL0     C34467  10.841  10.915  11.259 -0.1670 -0.1481  0.3400
  262MOL0     C34468  10.851  11.037  11.169 -0.2380  0.8888 -0.1132
  262MOL0     N34469  10.785  11.159  11.221  0.5417 -0.2979 -0.1575
  262MOL0     C34470  10.659  11.213  11.197 -1.5107 -0.4135  0.2103
  262MOL0     C34471  10.650  11.331  11.276 -0.0489  0.1577 -0.5938
  262MOL0     C34472  10.534  11.432  11.285  0.4806 -0.2850 -0.6271
  262MOL0     C34473  10.446  11.421  11.409 -0.4361  0.7906  0.0424
  262MOL0     C34474  10.530  11.417  11.543  0.7618 -0.4932  0.3762
  262MOL0     C34475  10.437  11.400  11.667 -0.4949  0.2545  0.8842
  262MOL0     O34476  10.517  11.387  11.789 -0.1527 -0.1330 -0.4274
  262MOL0     C34477  10.455  11.351  11.906  0.6941 -0.5861 -0.1599
  262MOL0     C34478  10.317  11.354  11.911 -0.2330  0.1993 -0.4129
  262MOL0     C34479  10.256  11.305  12.023  0.6751 -0.0501  0.5932
  262MOL0     C34480  10.330  11.265  12.134  0.1428 -0.1895  0.1219
  262MOL0     C34481  10.268  11.213  12.253 -0.4620  0.3871 -0.0694
  262MOL0     O34482  10.342  11.165  12.354 -0.4968  0.7503  0.1761
  262MOL0     C34483  10.290  11.094  12.457  0.0203 -0.1647 -0.3105
  262MOL0     C34484  10.347  11.097  12.586 -0.0066 -0.3444 -0.5263
  262MOL0     C34485  10.299  11.009  12.686 -0.4894 -0.9020  0.1015
  262MOL0     C34486  10.200  10.914  12.661  0.2679 -0.4884  0.1307
  262MOL0     O34487  10.168  10.834  12.759  0.0621 -0.0035  0.0011
  262MOL0     C34488  10.030  10.821  12.796 -0.8535 -0.3921 -0.0857
  262MOL0     C34489  10.003  10.857  12.944 -0.7238 -0.2515  0.2137
  262MOL0     C34490  10.066  10.750  13.033  0.0827  0.7689 -0.1548
  262MOL0     C34491  10.023  10.778  13.179  0.1041 -0.8583 -1.2829
  262MOL0     C34492  10.045  10.656  13.267 -0.2063 -0.4636  0.2747
  262MOL0     C34493   9.972  10.677  13.402 -0.4145 -1.1453  0.4898
  262MOL0     C34494   9.983  10.548  13.480 -0.5539 -0.4104  0.2815
  262MOL0     C34495   9.916  10.547  13.620 -0.3894 -0.1573 -0.0594
  262MOL0    Cl34496  10.010  10.649  13.733 -0.0054  0.5365  0.1852
  262MOL0     C34497  10.144  10.912  12.534 -0.3277 -0.0393  0.9337
  262MOL0     C34498  10.204  10.986  12.432  1.4264 -0.0053  0.0632
  262MOL0     O34499  10.147  11.203  12.250  0.5069 -0.1084  0.3898
  262MOL0     C34500  10.472  11.267  12.124  0.4970  1.9484 -1.0381
  262MOL0     C34501  10.537  11.305  12.007  0.2829  0.3054  0.8148
  262MOL0     N34502  10.777  11.346  11.335  0.4973  0.8616 -0.7031
  262MOL0     N34503  10.853  11.244  11.308 -0.2707  0.8769  0.6181
  262MOL0     C34504  10.085  11.045  11.573  0.0009 -1.2555 -0.7424
  262MOL0     C34505   9.964  11.077  11.507 -0.6272 -0.2802 -0.0939
  262MOL0     C34506   9.690  11.266  11.164 -0.3861 -0.8525 -0.0477
  262MOL0     C34507   9.663  11.365  11.053 -0.0594  0.3109 -1.3280
  262MOL0     C34508   9.529  11.400  11.020 -0.4235 -0.2411  1.2096
  262MOL0     C34509   9.425  11.345  11.092 -0.4228 -0.6412 -0.7202
  262MOL0     O34510   9.290  11.374  11.077 -0.1891 -0.2263 -0.1686
  262MOL0     C34511   9.242  11.452  10.961 -0.0759  0.5566  0.2228
  262MOL0     C34512   9.256  11.605  10.986  0.0142 -0.5696  0.9514
  262MOL0     C34513   9.166  11.675  10.880 -0.4276  0.2545  0.1997
  262MOL0     C34514   9.181  11.829  10.875 -0.2132  1.0319  0.0659
  262MOL0     C34515   9.167  11.899  11.005 -0.4109  0.0987 -0.0092
  262MOL0     C34516   9.177  11.970  11.106 -0.6239  0.3233  1.3372
  262MOL0     C34517   9.447  11.251  11.192  0.1991  0.1321  0.6234
  262MOL0     C34518   9.575  11.219  11.230 -0.1779 -0.2985  0.0167
  262MOL0     H34519  10.107  11.163  11.196  0.6101 -1.3572 -0.4329
  262MOL0     H34520  10.304  11.118  11.315  1.2486  1.5164  1.5225
  262MOL0     H34521  10.265  10.939  11.745 -0.1046  0.5945  0.4035
  262MOL0     H34522  10.437  10.985  11.738 -0.2612  0.3788 -0.1624
  262MOL0     H34523  10.308  10.819  11.535  1.1378 -0.4678 -0.4666
  262MOL0     H34524  10.362  10.752  11.670 -2.4002  0.2480 -0.2338
  262MOL0     H34525  10.594  10.812  11.643  0.4257 -0.5659 -1.6594
  262MOL0     H34526  10.542  10.947  11.528  2.3669 -1.7698 -3.6920
  262MOL0     H34527  10.540  10.655  11.507  1.9181  0.8358  1.7914
  262MOL0     H34528  10.466  10.761  11.378 -0.2043  3.0420  0.0237
  262MOL0     H34529  10.702  10.671  11.345 -2.5535  0.1602 -0.4971
  262MOL0     H34530  10.762  10.780  11.479 -0.6435  0.5661  0.2130
  262MOL0     H34531  10.655  10.958  11.338  1.5068  1.4701  0.1250
  262MOL0     H34532  10.660  10.859  11.189  0.4131  1.4331  0.3937
  262MOL0     H34533  10.892  10.935  11.354 -0.0314  0.2771  0.1756
  262MOL0     H34534  10.889  10.832  11.207  0.3744 -1.0289  2.1436
  262MOL0     H34535  10.814  11.013  11.069  1.4058 -2.9493 -0.0067
  262MOL0     H34536  10.958  11.052  11.148 -0.1868  0.7713  0.0629
  262MOL0     H34537  10.589  11.155  11.137  0.1111 -2.9250  0.6143
  262MOL0     H34538  10.473  11.421  11.195  1.0624 -1.2366 -0.9180
  262MOL0     H34539  10.577  11.533  11.293  0.0175 -0.0765 -0.7370
  262MOL0     H34540  10.399  11.322  11.405  2.9967 -1.0489  0.9407
  262MOL0     H34541  10.369  11.496  11.430 -3.2151 -1.9504  0.4404
  262MOL0     H34542  10.597  11.330  11.547 -0.6393 -1.5893  0.5111
  262MOL0     H34543  10.599  11.501  11.554  1.2371 -0.8511  0.1789
  262MOL0     H34544  10.374  11.312  11.653 -2.4813  2.0577 -3.8809
  262MOL0     H34545  10.369  11.486  11.671  1.1665  1.6441  0.4960
  262MOL0     H34546  10.255  11.389  11.830 -2.5526 -0.6720  0.8943
  262MOL0     H34547  10.149  11.289  12.019  0.9249 -1.8041  0.2335
  262MOL0     H34548  10.431  11.161  12.610  0.0953  0.4059 -2.6833
  262MOL0     H34549  10.349  11.008  12.782 -1.0002 -1.0569  0.3696
  262MOL0     H34550   9.995  10.719  12.782  1.1060 -1.1246  0.0935
  262MOL0     H34551   9.959  10.873  12.730 -1.4655 -1.0463  0.0443
  262MOL0     H34552   9.897  10.833  12.946 -0.6088 -1.1945 -2.0234
  262MOL0     H34553  10.025  10.961  12.973  1.2983  0.5049 -3.4558
  262MOL0     H34554  10.175  10.742  13.033  0.0386 -0.5582  1.5180
  262MOL0     H34555  10.039  10.648  13.004  1.5189 -0.1361  1.4971
  262MOL0     H34556  10.079  10.860  13.224 -0.9824 -1.0487  0.5039
  262MOL0     H34557   9.919  10.812  13.187  0.3776 -0.5125  1.9985
  262MOL0     H34558  10.147  10.619  13.277  0.7689  1.6712 -1.2008
  262MOL0     H34559   9.985  10.577  13.219 -0.9177  0.6117 -0.6604
  262MOL0     H34560   9.871  10.713  13.385  0.4603  1.0253 -0.5171
  262MOL0     H34561  10.028  10.759  13.450 -0.4987 -1.8734  1.8893
  262MOL0     H34562   9.925  10.475  13.423  0.5189  0.8782 -2.6559
  262MOL0     H34563  10.082  10.503  13.494 -0.5314 -0.7190 -0.7299
  262MOL0     H34564   9.897  10.445  13.651  0.2977 -1.3550 -3.1560
  262MOL0     H34565   9.821  10.594  13.593 -1.6406 -1.2432  2.1754
  262MOL0     H34566  10.075  10.831  12.515 -1.3945  0.6019  1.9223
  262MOL0     H34567  10.170  10.963  12.332 -0.8437  0.7808  0.5892
  262MOL0     H34568  10.536  11.237  12.207  0.6597 -1.4335 -2.2140
  262MOL0     H34569  10.643  11.300  11.984  0.1398  1.4822 -0.1825
  262MOL0     H34570  10.076  11.025  11.679  1.6708  1.8813  0.1321
  262MOL0     H34571   9.866  11.076  11.554  0.0537  2.6223  1.6311
  262MOL0     H34572   9.748  11.409  11.003  0.7353 -0.4047 -0.6216
  262MOL0     H34573   9.512  11.452  10.927  1.9972 -0.2464  0.7047
  262MOL0     H34574   9.136  11.431  10.944 -0.6962  4.1438 -1.2274
  262MOL0     H34575   9.283  11.424  10.863 -2.9768 -1.7802 -0.4508
  262MOL0     H34576   9.219  11.615  11.088  1.1286  1.2425  1.2269
  262MOL0     H34577   9.356  11.643  11.008  0.5050 -2.3117  1.8382
  262MOL0     H34578   9.059  11.669  10.900 -1.1621 -0.5597 -3.3185
  262MOL0     H34579   9.193  11.629  10.784  2.0601 -4.4453  2.7928
  262MOL0     H34580   9.281  11.852  10.839  1.5680 -2.1408  2.4060
  262MOL0     H34581   9.100  11.851  10.805 -0.9969 -1.5205  0.0535
  262MOL0     H34582   9.194  12.023  11.198  0.2411 -0.9688  1.9466
  262MOL0     H34583   9.364  11.213  11.251 -0.9270 -0.2308 -1.1261
  262MOL0     H34584   9.577  11.142  11.307 -4.2896 -0.0847  0.5414
  263MOL0     O34585  10.042   2.311   1.119  0.4417  0.6619  1.2425
  263MOL0     C34586  10.104   2.417   1.146 -0.1911 -0.6603  0.6090
  263MOL0     O34587  10.054   2.544   1.136 -0.4643  0.4867 -0.4851
  263MOL0     C34588   9.963   2.561   1.047  0.9424 -0.1640  0.4098
  263MOL0     C34589   9.990   2.538   0.904 -0.0857  1.0472  0.1678
  263MOL0     C34590   9.881   2.548   0.808 -1.0152  0.1604 -0.2189
  263MOL0     C34591   9.760   2.582   0.847  0.7855  0.0865 -0.7121
  263MOL0     O34592   9.663   2.588   0.750  0.1958  0.4450  0.4308
  263MOL0     C34593   9.606   2.721   0.734  0.2771 -0.3941 -0.2416
  263MOL0     C34594   9.454   2.711   0.751 -0.7153  0.7752  0.8637
  263MOL0     C34595   9.390   2.654   0.626 -0.4303 -0.2194 -0.3839
  263MOL0     C34596   9.250   2.610   0.647  0.9068  0.3013 -1.1976
  263MOL0     C34597   9.201   2.528   0.523  0.7125  0.5381  1.1411
  263MOL0     C34598   9.056   2.517   0.500 -0.0801  0.3438  0.8016
  263MOL0     C34599   9.025   2.415   0.387 -0.2161  0.4878 -0.4215
  263MOL0     C34600   8.875   2.412   0.348 -0.0368  1.1004 -1.2757
  263MOL0     N34601   8.797   2.392   0.466 -0.0289  0.3918 -0.5276
  263MOL0     C34602   8.811   2.287   0.564 -0.1198 -0.4732  0.9673
  263MOL0     C34603   8.706   2.313   0.650  0.8159  0.5782 -0.3031
  263MOL0     C34604   8.661   2.244   0.776 -0.5418 -0.5699  0.4709
  263MOL0     C34605   8.789   2.250   0.875  0.6986 -0.2799 -0.6814
  263MOL0     C34606   8.768   2.360   0.988  0.4256 -0.1540 -0.2118
  263MOL0     C34607   8.895   2.366   1.076  0.1404 -0.9346  0.5029
  263MOL0     O34608   8.880   2.463   1.187 -0.2819 -0.1943 -0.1541
  263MOL0     C34609   8.942   2.585   1.192 -0.3799  0.2064  0.4387
  263MOL0     C34610   8.973   2.635   1.313 -0.0202  1.3402  0.1230
  263MOL0     C34611   9.049   2.746   1.311  0.0100 -0.5533  0.2430
  263MOL0     C34612   9.074   2.816   1.197 -0.2677  0.9521 -0.4354
  263MOL0     C34613   9.168   2.934   1.225  0.4827 -0.3024  0.0684
  263MOL0     O34614   9.219   2.982   1.107 -0.0980  0.2286 -0.3582
  263MOL0     C34615   9.318   3.086   1.110  0.2478  0.4295  0.1436
  263MOL0     C34616   9.297   3.194   1.027 -0.7571  0.1243 -0.2280
  263MOL0     C34617   9.389   3.296   1.032  0.7804  0.1217 -0.4992
  263MOL0     C34618   9.510   3.286   1.093  0.2730 -0.2134 -0.4266
  263MOL0     O34619   9.600   3.388   1.098  0.5405 -0.8275 -1.0248
  263MOL0     C34620   9.651   3.449   0.978  0.5792 -0.9993  0.7213
  263MOL0     C34621   9.684   3.596   1.017 -0.0739  0.1008  0.4601
  263MOL0     C34622   9.577   3.686   1.081  0.3043 -0.8084 -0.2413
  263MOL0     C34623   9.457   3.692   0.985 -0.8422 -0.1896 -0.1947
  263MOL0     C34624   9.347   3.784   1.056 -0.3996  0.2651 -0.3145
  263MOL0     C34625   9.207   3.793   0.990  0.0381 -0.7658 -0.6745
  263MOL0     C34626   9.135   3.908   1.076 -0.3107  0.6158 -0.1316
  263MOL0     C34627   9.031   3.987   0.999  0.3672 -0.0953  0.5269
  263MOL0    Cl34628   9.105   4.066   0.856  0.4531  0.1728  0.3429
  263MOL0     C34629   9.535   3.170   1.163  0.8904  0.3365 -0.1900
  263MOL0     C34630   9.435   3.065   1.180 -0.1221  0.8510  0.1495
  263MOL0     O34631   9.210   2.966   1.337 -0.4388  0.5547 -0.6453
  263MOL0     C34632   9.038   2.769   1.071  0.4332  0.4727  0.2690
  263MOL0     C34633   8.972   2.648   1.069  0.6608 -0.4115 -1.0776
  263MOL0     N34634   8.638   2.426   0.608  0.4082 -0.1592 -0.4557
  263MOL0     N34635   8.692   2.466   0.497 -0.5716 -0.4352 -0.4541
  263MOL0     C34636   9.724   2.601   0.983 -0.8595  0.8104  0.8580
  263MOL0     C34637   9.824   2.578   1.079 -0.0055 -0.6140 -0.6008
  263MOL0     C34638  10.213   2.405   1.240  0.6552 -0.3087  0.3093
  263MOL0     C34639  10.286   2.511   1.284 -0.0294  0.3809 -0.4732
  263MOL0     C34640  10.379   2.490   1.387  0.3601  0.0015  0.4053
  263MOL0     C34641  10.408   2.365   1.454 -0.3063 -0.3163  0.5472
  263MOL0     O34642  10.501   2.355   1.563 -0.2701  0.1555 -0.0477
  263MOL0     C34643  10.616   2.432   1.564 -0.7760 -0.1563 -0.7760
  263MOL0     C34644  10.722   2.384   1.462 -0.7742  0.5173 -0.5560
  263MOL0     C34645  10.793   2.253   1.500 -0.2569  0.7265 -0.5452
  263MOL0     C34646  10.892   2.213   1.387 -1.3392  0.3276  0.3495
  263MOL0     C34647  10.820   2.120   1.300 -0.0184 -0.4922  0.7249
  263MOL0     C34648  10.771   2.036   1.234  1.2842  0.1481  0.3031
  263MOL0     C34649  10.335   2.264   1.408  0.4404  0.4173  0.8378
  263MOL0     C34650  10.229   2.289   1.309 -0.6099 -0.7581 -0.1105
  263MOL0     H34651  10.087   2.522   0.858 -0.3076  2.5308 -0.9087
  263MOL0     H34652   9.892   2.532   0.702  1.7837 -3.8123  0.4446
  263MOL0     H34653   9.646   2.767   0.643  1.7670  0.4752  0.8246
  263MOL0     H34654   9.637   2.779   0.821  0.8904 -2.7720  1.1909
  263MOL0     H34655   9.416   2.813   0.767  3.4839  2.8261 -0.7534
  263MOL0     H34656   9.440   2.650   0.840 -2.8294  0.9582  0.7118
  263MOL0     H34657   9.437   2.558   0.602 -0.4360 -0.2635 -0.2158
  263MOL0     H34658   9.397   2.728   0.546 -0.0931  2.1140  1.7013
  263MOL0     H34659   9.234   2.536   0.726 -1.5238  0.8251 -1.1379
  263MOL0     H34660   9.188   2.697   0.667  1.5677  0.6044 -0.4484
  263MOL0     H34661   9.253   2.432   0.523  0.1474  0.1896 -0.9235
  263MOL0     H34662   9.246   2.580   0.438 -0.1669 -0.9870 -0.3327
  263MOL0     H34663   9.020   2.618   0.477 -1.3202  0.3199  2.4461
  263MOL0     H34664   9.018   2.494   0.600 -2.1037  0.3060  0.0660
  263MOL0     H34665   9.073   2.446   0.294  0.1323 -0.9430 -0.7436
  263MOL0     H34666   9.047   2.310   0.412  2.3191  1.6203  2.8052
  263MOL0     H34667   8.854   2.330   0.279 -0.7961 -1.9497  2.2271
  263MOL0     H34668   8.849   2.505   0.296 -1.4967 -0.7075 -3.9770
  263MOL0     H34669   8.881   2.204   0.573  1.4469  0.8553  1.3081
  263MOL0     H34670   8.645   2.139   0.750  1.4468 -0.4889 -1.3322
  263MOL0     H34671   8.569   2.291   0.812 -0.6146  0.1593 -0.6151
  263MOL0     H34672   8.889   2.244   0.832  0.9820 -3.2198  0.1542
  263MOL0     H34673   8.782   2.161   0.938 -1.4676 -1.0085 -1.8223
  263MOL0     H34674   8.760   2.455   0.934  0.7651 -0.2236 -0.3931
  263MOL0     H34675   8.677   2.353   1.048  0.1055  2.5391 -0.2842
  263MOL0     H34676   8.981   2.390   1.013  0.3310  0.7793  1.3576
  263MOL0     H34677   8.901   2.269   1.126 -1.9445 -0.3161  2.0792
  263MOL0     H34678   8.947   2.585   1.406 -0.1256 -2.8883 -1.9366
  263MOL0     H34679   9.083   2.791   1.404 -0.5905  3.2665 -1.2037
  263MOL0     H34680   9.215   3.196   0.957 -0.0617  1.2542 -1.0418
  263MOL0     H34681   9.361   3.385   0.977 -3.7667 -0.0120  1.2278
  263MOL0     H34682   9.584   3.438   0.892  0.7997 -1.4010  0.5956
  263MOL0     H34683   9.744   3.402   0.942 -0.4267 -0.3052 -3.3028
  263MOL0     H34684   9.703   3.644   0.921 -0.2943  1.1623  0.9399
  263MOL0     H34685   9.765   3.599   1.091 -0.2213 -1.0448  0.6900
  263MOL0     H34686   9.628   3.781   1.096 -1.1842 -0.1164  0.6418
  263MOL0     H34687   9.549   3.653   1.181 -2.5110  2.8549  0.4178
  263MOL0     H34688   9.495   3.719   0.886  2.6607  2.8882  1.7336
  263MOL0     H34689   9.408   3.595   0.985 -2.8532  0.7544  1.0544
  263MOL0     H34690   9.392   3.883   1.055 -0.0305  0.0942 -0.6975
  263MOL0     H34691   9.328   3.751   1.159 -0.8933  0.8830 -0.2070
  263MOL0     H34692   9.150   3.701   1.006  0.7787 -1.1910 -0.4116
  263MOL0     H34693   9.224   3.824   0.886  0.5774 -1.8443 -0.9277
  263MOL0     H34694   9.084   3.868   1.164  0.0595  0.5328  0.0496
  263MOL0     H34695   9.210   3.974   1.123  1.6649  1.4132 -3.9953
  263MOL0     H34696   8.974   4.059   1.057 -1.9744  1.7785 -3.6345
  263MOL0     H34697   8.959   3.917   0.956  0.9175  0.7735 -2.0124
  263MOL0     H34698   9.624   3.166   1.226  1.7703 -1.4202 -1.4469
  263MOL0     H34699   9.462   2.976   1.236 -0.7243 -0.8181 -2.0400
  263MOL0     H34700   9.066   2.819   0.979 -0.7067  0.4639 -0.1017
  263MOL0     H34701   8.946   2.596   0.977  0.9814  1.6787 -2.4064
  263MOL0     H34702   9.623   2.615   1.020 -0.2504  0.5354  2.7261
  263MOL0     H34703   9.794   2.576   1.183  2.0695 -1.6749  0.0208
  263MOL0     H34704  10.284   2.609   1.237 -0.0107  1.6958  2.0790
  263MOL0     H34705  10.446   2.574   1.403  1.8758 -1.3873  1.7691
  263MOL0     H34706  10.666   2.426   1.661 -2.7158  2.2385  0.4825
  263MOL0     H34707  10.597   2.539   1.556  1.8422  0.8806  3.3242
  263MOL0     H34708  10.679   2.376   1.362  0.8292  0.1426 -1.2459
  263MOL0     H34709  10.800   2.461   1.464  1.5696 -1.7064  0.0339
  263MOL0     H34710  10.723   2.173   1.524 -1.9222  1.1505 -3.4810
  263MOL0     H34711  10.844   2.263   1.596  1.3522 -1.4593 -1.0979
  263MOL0     H34712  10.950   2.296   1.344  0.8846 -0.9765  0.6679
  263MOL0     H34713  10.976   2.158   1.430 -0.6434 -0.4363 -1.8523
  263MOL0     H34714  10.738   1.951   1.177 -3.3154  0.3723  2.2485
  263MOL0     H34715  10.329   2.175   1.469 -2.1269 -0.0841  0.0010
  263MOL0     H34716  10.161   2.205   1.294  1.1510 -2.0731 -1.1233
  264MOL0     O34717   8.943   4.103   6.798  0.3089  0.3012 -0.6999
  264MOL0     C34718   9.004   4.000   6.807  0.0889  0.0477 -0.5785
  264MOL0     O34719   9.081   3.967   6.914 -0.5033  0.2164 -0.4144
  264MOL0     C34720   9.076   4.050   7.026 -0.5220  0.7104  0.5284
  264MOL0     C34721   8.964   4.083   7.101  0.3726  0.0820 -0.5884
  264MOL0     C34722   8.981   4.154   7.220  0.5825 -0.4838 -0.2020
  264MOL0     C34723   9.106   4.190   7.272 -0.0412 -0.9709 -0.1657
  264MOL0     O34724   9.115   4.243   7.406  0.5763  0.6079  0.2750
  264MOL0     C34725   9.129   4.380   7.402 -0.0017  0.0976  0.2330
  264MOL0     C34726   9.241   4.423   7.501  0.7933 -0.0634 -0.3127
  264MOL0     C34727   9.308   4.558   7.473  0.5291  0.4031 -0.0351
  264MOL0     C34728   9.445   4.558   7.537 -0.9912 -0.1682  0.5956
  264MOL0     C34729   9.495   4.703   7.520 -0.1106 -0.6666  0.0245
  264MOL0     C34730   9.638   4.714   7.550 -0.4398 -0.5338  0.4607
  264MOL0     C34731   9.685   4.857   7.516  0.4875  0.5406 -0.4998
  264MOL0     C34732   9.791   4.840   7.399  0.6117 -0.0258  0.4129
  264MOL0     N34733   9.818   4.970   7.325  0.2879 -0.7504 -0.6270
  264MOL0     C34734   9.716   5.050   7.277 -0.1357  0.7235  0.4621
  264MOL0     C34735   9.779   5.156   7.233  0.5460 -0.5683 -0.0140
  264MOL0     C34736   9.713   5.274   7.174 -0.2174  0.2989 -0.2251
  264MOL0     C34737   9.702   5.261   7.023 -0.3254 -0.4439 -0.9416
  264MOL0     C34738   9.589   5.337   6.945  0.3887  0.3159  0.0203
  264MOL0     C34739   9.603   5.291   6.795  0.5158  0.7063 -0.2341
  264MOL0     O34740   9.506   5.363   6.709  0.4994 -0.0160 -0.2120
  264MOL0     C34741   9.517   5.350   6.574  0.6660  0.0322  0.6906
  264MOL0     C34742   9.611   5.274   6.509 -0.8564  0.8416  0.4712
  264MOL0     C34743   9.627   5.262   6.370 -0.0642  0.2140 -1.2697
  264MOL0     C34744   9.534   5.333   6.287 -0.0822  0.9831 -0.0484
  264MOL0     C34745   9.554   5.338   6.143 -0.1919 -0.2375 -0.4354
  264MOL0     O34746   9.632   5.236   6.093 -0.2779 -0.1552  0.2775
  264MOL0     C34747   9.615   5.221   5.956 -1.0344  0.0515  0.7059
  264MOL0     C34748   9.730   5.240   5.881  1.7002 -0.4925  1.0371
  264MOL0     C34749   9.731   5.222   5.748  0.5931  0.6499  0.8363
  264MOL0     C34750   9.605   5.185   5.681  1.3200  0.3068 -0.1877
  264MOL0     O34751   9.600   5.157   5.548 -0.4190 -0.6658 -0.4003
  264MOL0     C34752   9.711   5.163   5.460  0.1693  0.2930  0.6730
  264MOL0     C34753   9.679   5.104   5.328  0.0127  0.7837  0.2166
  264MOL0     C34754   9.781   5.117   5.221 -0.3399  0.4506 -1.0583
  264MOL0     C34755   9.820   4.981   5.164  0.7341  0.5016  0.5250
  264MOL0     C34756   9.958   4.992   5.076 -0.4717  0.6549  0.4250
  264MOL0     C34757   9.999   4.842   5.042 -0.7913  0.0332  0.3675
  264MOL0     C34758  10.129   4.836   4.962 -0.0814 -0.3653  0.2159
  264MOL0     C34759  10.211   4.709   4.996  0.7964  0.8047  0.5298
  264MOL0    Cl34760  10.275   4.717   5.162  0.0131 -0.4433 -0.4922
  264MOL0     C34761   9.492   5.165   5.758  0.1496  0.0007  0.1323
  264MOL0     C34762   9.499   5.186   5.892 -0.1517 -1.2774  0.9784
  264MOL0     O34763   9.486   5.414   6.071  0.5336 -0.3006  0.3428
  264MOL0     C34764   9.432   5.405   6.346 -0.7691 -0.6620  0.1750
  264MOL0     C34765   9.428   5.413   6.488 -0.4274  0.4688  0.3255
  264MOL0     N34766   9.911   5.153   7.257 -0.7354  0.4854  0.1078
  264MOL0     N34767   9.937   5.041   7.311 -1.0198  0.0257  0.1603
  264MOL0     C34768   9.211   4.140   7.198  0.1624  0.4232 -0.1972
  264MOL0     C34769   9.201   4.075   7.075  0.3918 -0.3654  0.2207
  264MOL0     C34770   9.002   3.909   6.687  0.2306  0.7224 -0.9091
  264MOL0     C34771   8.922   3.926   6.574  0.1746 -0.5315  0.1811
  264MOL0     C34772   8.918   3.826   6.479  0.7937  0.2926  0.2209
  264MOL0     C34773   8.996   3.707   6.477  1.0813  0.3145 -0.1819
  264MOL0     O34774   9.006   3.631   6.363 -0.1696 -0.2397 -0.0978
  264MOL0     C34775   9.114   3.535   6.364 -0.9250 -0.3459 -0.4940
  264MOL0     C34776   9.122   3.450   6.243  0.5563 -0.7586  0.8646
  264MOL0     C34777   9.002   3.352   6.219 -0.2255 -0.3264  1.2450
  264MOL0     C34778   9.000   3.286   6.086 -0.9378 -0.3633  0.5339
  264MOL0     C34779   9.049   3.147   6.094  0.5651 -0.0567 -0.4326
  264MOL0     C34780   9.085   3.034   6.097 -0.0356  1.0754 -0.6020
  264MOL0     C34781   9.083   3.705   6.583  0.7507 -0.0952 -1.1715
  264MOL0     C34782   9.078   3.793   6.686 -0.6996  1.1262 -0.0548
  264MOL0     H34783   8.868   4.050   7.063 -0.6017  3.1489 -1.0448
  264MOL0     H34784   8.890   4.167   7.278  0.5897  0.9135 -0.4711
  264MOL0     H34785   9.027   4.413   7.423 -1.2340 -2.0558 -1.8753
  264MOL0     H34786   9.175   4.405   7.306 -0.1214 -1.6703 -0.3082
  264MOL0     H34787   9.317   4.345   7.506  2.8608  1.8035 -0.8849
  264MOL0     H34788   9.201   4.432   7.603 -2.2869 -1.3817 -1.2542
  264MOL0     H34789   9.236   4.625   7.519  0.0212 -0.6897  0.8168
  264MOL0     H34790   9.296   4.572   7.365 -1.6190  0.3371  0.1625
  264MOL0     H34791   9.443   4.540   7.645 -2.1076  0.9230  0.7796
  264MOL0     H34792   9.520   4.498   7.485  0.1157  1.1369  0.6563
  264MOL0     H34793   9.442   4.780   7.578 -0.0323  1.0657 -2.0990
  264MOL0     H34794   9.486   4.736   7.417  0.1235  0.1159  0.2547
  264MOL0     H34795   9.694   4.643   7.489 -0.0405  0.2461 -0.0972
  264MOL0     H34796   9.663   4.696   7.655 -1.0957  0.0107  0.7188
  264MOL0     H34797   9.601   4.925   7.496  1.1035  1.0292 -1.5173
  264MOL0     H34798   9.739   4.894   7.603 -1.5598 -1.1890  1.6303
  264MOL0     H34799   9.744   4.763   7.338 -0.2661 -0.0238  1.0616
  264MOL0     H34800   9.883   4.802   7.445 -1.0946 -1.0773  3.2063
  264MOL0     H34801   9.610   5.032   7.264 -0.0698 -0.7390  1.5770
  264MOL0     H34802   9.763   5.370   7.187  0.2840 -0.2660  2.7395
  264MOL0     H34803   9.612   5.282   7.214 -0.1151 -2.8267  0.9809
  264MOL0     H34804   9.675   5.157   7.001  0.4217 -0.8173 -0.1826
  264MOL0     H34805   9.790   5.274   6.959 -0.6887  0.2733 -1.2961
  264MOL0     H34806   9.490   5.322   6.988  1.5255 -2.9227  1.9284
  264MOL0     H34807   9.611   5.444   6.950  0.2117  0.5688 -2.9111
  264MOL0     H34808   9.587   5.183   6.790  2.2026  0.2213  2.7259
  264MOL0     H34809   9.705   5.317   6.767  0.2445  0.6686 -1.2921
  264MOL0     H34810   9.684   5.212   6.562  1.6177  1.9379 -1.4567
  264MOL0     H34811   9.710   5.201   6.336  1.5690  3.1437 -2.9017
  264MOL0     H34812   9.818   5.281   5.931  3.1285 -0.7410 -1.1476
  264MOL0     H34813   9.821   5.245   5.690  1.3336 -0.2858  1.5890
  264MOL0     H34814   9.798   5.116   5.507 -1.3048 -1.8749  1.3398
  264MOL0     H34815   9.715   5.272   5.443 -2.9009  1.0843  3.8975
  264MOL0     H34816   9.577   5.136   5.305 -0.6841 -2.4467 -1.8526
  264MOL0     H34817   9.666   5.000   5.360  1.4295  0.2158 -0.9440
  264MOL0     H34818   9.866   5.176   5.256 -1.2017 -0.1787  2.5023
  264MOL0     H34819   9.742   5.179   5.140  2.3038  2.2423 -1.0865
  264MOL0     H34820   9.842   4.910   5.245  2.7552 -0.1244 -0.4933
  264MOL0     H34821   9.735   4.952   5.101  1.4426  1.4784 -0.9352
  264MOL0     H34822  10.041   5.035   5.133  1.5288 -2.7264  0.3231
  264MOL0     H34823   9.955   5.053   4.985  1.8432 -0.2947 -0.3535
  264MOL0     H34824   9.916   4.789   4.995  0.7317 -5.1527  2.7529
  264MOL0     H34825  10.024   4.791   5.136 -1.0528  0.4034  0.6445
  264MOL0     H34826  10.101   4.831   4.856 -2.1729 -0.6487  0.7342
  264MOL0     H34827  10.190   4.925   4.978  0.8432 -1.2518  2.0072
  264MOL0     H34828  10.299   4.706   4.931 -0.4247 -0.1563 -1.1524
  264MOL0     H34829  10.149   4.621   4.976  1.8680  0.5931 -2.2315
  264MOL0     H34830   9.404   5.127   5.709 -0.0157 -0.9927  1.1617
  264MOL0     H34831   9.406   5.183   5.947 -1.7461  0.8089 -1.3969
  264MOL0     H34832   9.341   5.429   6.292 -1.7014 -5.0488 -0.6098
  264MOL0     H34833   9.351   5.480   6.526 -1.0998 -1.2918  2.2084
  264MOL0     H34834   9.308   4.161   7.240 -1.2366  6.2980  0.9940
  264MOL0     H34835   9.293   4.057   7.021 -1.8388 -0.7713 -3.7746
  264MOL0     H34836   8.884   4.027   6.558  3.0172  0.4284 -1.4260
  264MOL0     H34837   8.851   3.827   6.393 -0.7185  1.9222  1.3515
  264MOL0     H34838   9.103   3.468   6.449  4.6627 -0.5658  0.4322
  264MOL0     H34839   9.207   3.592   6.373 -2.7373  2.4682  2.5321
  264MOL0     H34840   9.131   3.526   6.165 -0.8231  0.7008  2.0543
  264MOL0     H34841   9.206   3.380   6.253 -0.0544 -1.1905  4.1903
  264MOL0     H34842   8.920   3.424   6.229 -1.7000 -2.0506  2.3232
  264MOL0     H34843   8.989   3.272   6.292  1.8330 -1.6009  0.3212
  264MOL0     H34844   8.898   3.280   6.049 -0.7284 -0.5649 -0.0302
  264MOL0     H34845   9.070   3.337   6.018 -2.1300  1.7065  0.7848
  264MOL0     H34846   9.119   2.932   6.099  1.3323  1.4917 -1.5073
  264MOL0     H34847   9.137   3.612   6.594 -0.0039 -0.6242 -1.8706
  264MOL0     H34848   9.134   3.769   6.776 -1.0362 -0.4919 -0.2453
  265MOL0     O34849  10.285   1.026   1.945  0.4320  0.3803 -0.2350
  265MOL0     C34850  10.209   1.040   1.846  0.2150  0.4334  0.6553
  265MOL0     O34851  10.144   0.943   1.777  1.0155 -0.2084  0.3458
  265MOL0     C34852  10.144   0.815   1.830  0.0325  0.0126  0.2708
  265MOL0     C34853  10.228   0.712   1.777 -0.8015 -0.0567 -0.7748
  265MOL0     C34854  10.255   0.589   1.850  0.4386  0.2313  1.3617
  265MOL0     C34855  10.182   0.561   1.969 -0.0069  0.2625 -0.3350
  265MOL0     O34856  10.168   0.435   2.031  0.1352 -0.0022  0.0488
  265MOL0     C34857  10.250   0.322   2.002 -0.2656  0.2965 -0.2978
  265MOL0     C34858  10.211   0.187   2.077  0.3690 -0.7287  0.0605
  265MOL0     C34859  10.280   0.059   2.033  0.8842 -0.6000  0.1843
  265MOL0     C34860  10.215   0.006   1.909 -0.1316  0.0662  0.7319
  265MOL0     C34861  10.259  -0.137   1.854  0.7957 -0.8262 -0.0759
  265MOL0     C34862  10.203  -0.155   1.701  0.4245  0.3055  0.2637
  265MOL0     C34863  10.289  -0.257   1.615  0.3356 -0.6378 -0.7794
  265MOL0     C34864  10.437  -0.231   1.629  0.0831  0.7985  0.1397
  265MOL0     N34865  10.476  -0.087   1.620  0.0879 -0.1204 -0.9233
  265MOL0     C34866  10.417   0.005   1.547 -0.3260  0.0734  0.1417
  265MOL0     C34867  10.477   0.125   1.584 -0.4821  0.3014  0.3765
  265MOL0     C34868  10.441   0.263   1.548 -0.9016  1.2997 -0.2552
  265MOL0     C34869  10.302   0.280   1.492  0.2568 -0.3706  0.1662
  265MOL0     C34870  10.287   0.233   1.346  0.5681 -0.0633  0.1348
  265MOL0     C34871  10.151   0.279   1.299 -0.9056  0.1161  0.4004
  265MOL0     O34872  10.122   0.421   1.315 -0.3206 -0.0599 -0.0890
  265MOL0     C34873  10.023   0.502   1.249  0.4779 -0.7163  0.9073
  265MOL0     C34874   9.907   0.445   1.193 -0.1990  0.3048  0.3229
  265MOL0     C34875   9.813   0.526   1.123 -0.4598 -0.5215 -0.6060
  265MOL0     C34876   9.813   0.664   1.143 -0.0961  0.3048  0.0985
  265MOL0     C34877   9.691   0.750   1.124 -0.0848 -0.2813 -0.0492
  265MOL0     O34878   9.599   0.710   1.033 -0.4838  0.3789 -0.1399
  265MOL0     C34879   9.497   0.795   1.001 -1.1734 -0.0268 -0.2652
  265MOL0     C34880   9.513   0.873   0.887  0.3995  0.8129  0.0634
  265MOL0     C34881   9.410   0.969   0.852 -0.2970  0.5271  0.5822
  265MOL0     C34882   9.307   0.987   0.935  0.1514  0.0246  0.2610
  265MOL0     O34883   9.213   1.089   0.914 -0.8275 -0.1261  0.1101
  265MOL0     C34884   9.146   1.095   0.784 -0.0186  0.0937  0.0547
  265MOL0     C34885   9.109   0.952   0.736 -0.0784 -0.7212 -0.2008
  265MOL0     C34886   8.995   0.884   0.815  0.1868 -0.4032  0.3099
  265MOL0     C34887   8.992   0.737   0.792 -0.1985  0.4705  0.0769
  265MOL0     C34888   8.858   0.689   0.833  1.0014 -0.1192  0.4920
  265MOL0     C34889   8.858   0.537   0.844 -0.3191 -0.6844  0.5565
  265MOL0     C34890   8.717   0.488   0.835  0.6698  0.7024 -1.2257
  265MOL0     C34891   8.722   0.331   0.831  0.1241  0.3809  0.6999
  265MOL0    Cl34892   8.573   0.264   0.787  0.3651  0.3903 -0.4214
  265MOL0     C34893   9.297   0.913   1.053  0.1117  0.1292  1.2383
  265MOL0     C34894   9.392   0.804   1.085  0.8859  0.1326 -0.8126
  265MOL0     O34895   9.677   0.847   1.201 -0.0145 -0.2959  0.8267
  265MOL0     C34896   9.922   0.720   1.206 -0.7818  0.2244 -0.8990
  265MOL0     C34897  10.031   0.646   1.260  0.2855  0.3501 -0.0828
  265MOL0     N34898  10.565   0.094   1.684  0.0440  1.0698  0.5478
  265MOL0     N34899  10.563  -0.030   1.713  0.5125 -0.1889  0.6801
  265MOL0     C34900  10.087   0.661   2.006 -0.7099 -0.4702 -0.1662
  265MOL0     C34901  10.064   0.780   1.934  0.6547 -0.1715 -0.0712
  265MOL0     C34902  10.207   1.178   1.796  0.1326  0.5482  0.0446
  265MOL0     C34903  10.212   1.294   1.874 -1.3512 -0.2505  0.9152
  265MOL0     C34904  10.196   1.422   1.819  0.4074 -0.5343  1.2060
  265MOL0     C34905  10.152   1.435   1.694  0.5428 -0.1001  0.2024
  265MOL0     O34906  10.115   1.561   1.658 -0.1417  0.1317 -0.4971
  265MOL0     C34907  10.032   1.593   1.547 -0.2744 -0.3252 -0.5488
  265MOL0     C34908  10.117   1.647   1.436  0.0661  0.0265  0.5735
  265MOL0     C34909  10.235   1.731   1.480  0.0802 -0.3840 -0.0686
  265MOL0     C34910  10.303   1.789   1.359 -0.3582 -0.1693  0.3452
  265MOL0     C34911  10.437   1.835   1.405 -0.3774 -0.1728  0.1633
  265MOL0     C34912  10.544   1.871   1.443  0.7052  0.1495 -1.5297
  265MOL0     C34913  10.135   1.316   1.616 -0.3306 -0.7525  0.3456
  265MOL0     C34914  10.177   1.191   1.661  0.4109  1.2681 -0.2393
  265MOL0     H34915  10.285   0.727   1.687  2.5992 -2.0235  0.8700
  265MOL0     H34916  10.322   0.521   1.798 -2.6268 -2.7631  0.9328
  265MOL0     H34917  10.354   0.344   2.027  0.6175 -1.0339 -2.5128
  265MOL0     H34918  10.245   0.309   1.893 -2.0959 -0.6836 -0.1466
  265MOL0     H34919  10.103   0.167   2.075  0.3376 -0.5576 -1.6593
  265MOL0     H34920  10.245   0.214   2.177 -0.9598  2.7133 -0.2635
  265MOL0     H34921  10.292  -0.009   2.118  2.1034 -0.5441  0.0735
  265MOL0     H34922  10.384   0.086   2.012  1.4087 -2.0324  0.8009
  265MOL0     H34923  10.107   0.002   1.923 -0.2488  0.2119 -0.0531
  265MOL0     H34924  10.230   0.080   1.829  0.4938  3.1136  3.4433
  265MOL0     H34925  10.234  -0.220   1.920  0.5590  1.9997  3.7528
  265MOL0     H34926  10.367  -0.121   1.860  0.6116  1.0640 -0.8624
  265MOL0     H34927  10.181  -0.059   1.654 -2.0820 -1.1739 -1.8377
  265MOL0     H34928  10.101  -0.193   1.712  0.2432  1.4664  4.1098
  265MOL0     H34929  10.260  -0.358   1.643 -0.2793 -0.4484 -0.7081
  265MOL0     H34930  10.243  -0.261   1.515 -1.9788 -0.3436  0.2064
  265MOL0     H34931  10.492  -0.285   1.552  1.3418  0.2480  1.3795
  265MOL0     H34932  10.479  -0.274   1.721 -1.2118 -5.1515 -1.5916
  265MOL0     H34933  10.333  -0.016   1.482 -0.2802 -1.5333  0.5577
  265MOL0     H34934  10.510   0.280   1.465  1.1090 -0.5043  0.9397
  265MOL0     H34935  10.461   0.337   1.626 -0.0295  1.2318 -0.4000
  265MOL0     H34936  10.279   0.387   1.498 -0.5147 -0.5640  0.8127
  265MOL0     H34937  10.227   0.229   1.553  2.1913 -0.3134  2.7809
  265MOL0     H34938  10.365   0.280   1.286 -0.6876 -1.1447 -2.5117
  265MOL0     H34939  10.297   0.125   1.333 -3.2058 -0.7105  1.4969
  265MOL0     H34940  10.069   0.222   1.344  0.2390 -1.6275  0.3386
  265MOL0     H34941  10.157   0.269   1.191  0.4097  0.0802  0.4673
  265MOL0     H34942   9.880   0.340   1.189  2.2335 -0.4306  1.1267
  265MOL0     H34943   9.723   0.481   1.082 -3.2317 -1.4490  5.3839
  265MOL0     H34944   9.591   0.863   0.813 -2.5537  6.5444 -4.6268
  265MOL0     H34945   9.433   1.033   0.767  2.8237  1.6925  2.1810
  265MOL0     H34946   9.220   1.139   0.718 -0.5922  1.3083  0.1919
  265MOL0     H34947   9.052   1.151   0.794 -1.1477 -1.9186  1.6763
  265MOL0     H34948   9.195   0.885   0.726 -1.7978 -3.0309 -0.1284
  265MOL0     H34949   9.061   0.955   0.638 -1.4779  0.0654  0.4764
  265MOL0     H34950   8.904   0.936   0.785  0.2596 -0.9483 -0.9167
  265MOL0     H34951   9.001   0.904   0.922 -1.0408 -0.8506  0.4708
  265MOL0     H34952   9.001   0.726   0.684  1.2022  2.8636 -0.1231
  265MOL0     H34953   9.076   0.704   0.854 -1.1760  0.2646  1.3455
  265MOL0     H34954   8.782   0.736   0.770  0.7714  0.1943  0.9974
  265MOL0     H34955   8.824   0.738   0.925 -0.3562  1.6718 -0.8722
  265MOL0     H34956   8.906   0.506   0.937  0.9917 -0.6333 -0.0832
  265MOL0     H34957   8.915   0.487   0.765 -0.5395 -1.2796  0.7716
  265MOL0     H34958   8.659   0.533   0.916  0.9397  0.1844 -0.7359
  265MOL0     H34959   8.675   0.519   0.738 -3.6477 -1.4153 -0.2911
  265MOL0     H34960   8.745   0.294   0.932 -1.6158 -1.5117  0.4707
  265MOL0     H34961   8.806   0.296   0.771  1.2676  5.3835 -1.1437
  265MOL0     H34962   9.217   0.942   1.120 -0.3966 -0.4942  0.9087
  265MOL0     H34963   9.389   0.762   1.185 -0.4983  1.1444 -0.4075
  265MOL0     H34964   9.930   0.826   1.228 -0.7000  0.0771 -0.2187
  265MOL0     H34965  10.114   0.691   1.313  1.6548 -2.1569  0.0423
  265MOL0     H34966  10.036   0.647   2.101 -0.7789  0.7337 -0.0079
  265MOL0     H34967   9.996   0.858   1.965  1.2558  0.2118  0.3196
  265MOL0     H34968  10.239   1.298   1.979  0.9455 -0.3627  0.3745
  265MOL0     H34969  10.194   1.507   1.886 -3.9591  2.0401 -1.6586
  265MOL0     H34970   9.954   1.659   1.586  0.9649 -1.2571  4.0811
  265MOL0     H34971   9.986   1.497   1.521  1.7420 -1.1155 -1.3999
  265MOL0     H34972  10.154   1.566   1.372  0.1391  1.3169 -1.0675
  265MOL0     H34973  10.060   1.706   1.364  0.1471  0.1528  0.6133
  265MOL0     H34974  10.309   1.668   1.529  1.8459  1.9901  0.4877
  265MOL0     H34975  10.204   1.812   1.547 -2.6400 -0.0105 -1.6098
  265MOL0     H34976  10.331   1.707   1.293 -0.1325  1.0962 -1.1698
  265MOL0     H34977  10.253   1.870   1.305 -1.2122 -1.3347 -0.6702
  265MOL0     H34978  10.641   1.897   1.481 -0.6337 -0.2108  2.6009
  265MOL0     H34979  10.092   1.332   1.518 -1.8963 -0.8065  1.0016
  265MOL0     H34980  10.184   1.107   1.593 -2.9123  0.5444  0.1459
  266MOL0     O34981   6.021   2.030   3.308  0.8265  0.6176  0.0235
  266MOL0     C34982   5.978   2.138   3.275  0.3038 -0.3065  0.4506
  266MOL0     O34983   5.891   2.154   3.174 -0.8633 -0.2272 -0.2340
  266MOL0     C34984   5.847   2.058   3.080 -0.2668  1.0611  0.5759
  266MOL0     C34985   5.729   2.086   3.023 -0.1605 -0.1890  0.3860
  266MOL0     C34986   5.667   2.002   2.938  0.7973 -0.7357 -0.4970
  266MOL0     C34987   5.719   1.879   2.908 -0.5283 -0.3722 -0.3720
  266MOL0     O34988   5.657   1.805   2.811 -0.7321 -0.6291 -0.1117
  266MOL0     C34989   5.699   1.668   2.788  0.2132  0.2990 -0.6976
  266MOL0     C34990   5.625   1.606   2.674 -0.0261 -0.2923 -0.5610
  266MOL0     C34991   5.659   1.446   2.675  0.2449 -1.1576 -0.2527
  266MOL0     C34992   5.580   1.388   2.564 -0.1426  0.5690  0.6302
  266MOL0     C34993   5.594   1.241   2.555 -0.0094  0.2308  0.3767
  266MOL0     C34994   5.581   1.178   2.409  0.2883 -0.5590 -0.2494
  266MOL0     C34995   5.647   1.040   2.418 -0.1065 -0.3709  0.5447
  266MOL0     C34996   5.661   0.979   2.274  0.1823  0.1527 -0.8149
  266MOL0     N34997   5.747   0.853   2.272  0.0689  0.1466 -0.4265
  266MOL0     C34998   5.878   0.858   2.275 -0.4389  0.3958 -1.0245
  266MOL0     C34999   5.924   0.731   2.274 -0.5771 -0.0287  0.1408
  266MOL0     C35000   6.066   0.680   2.269  0.0778 -0.7218 -1.0392
  266MOL0     C35001   6.128   0.683   2.411  0.9099 -0.5171 -0.1940
  266MOL0     C35002   6.255   0.602   2.422 -0.4190 -0.1962  0.1108
  266MOL0     C35003   6.350   0.664   2.515 -0.5753 -0.5838 -1.0438
  266MOL0     O35004   6.289   0.671   2.646 -0.7868  0.2858 -0.1221
  266MOL0     C35005   6.376   0.698   2.748 -1.0828 -0.0586  0.4013
  266MOL0     C35006   6.407   0.599   2.845  0.1270 -0.0370  0.1306
  266MOL0     C35007   6.485   0.626   2.949 -0.1376 -0.2102  0.1689
  266MOL0     C35008   6.535   0.754   2.963 -0.1100  0.3427 -0.2410
  266MOL0     C35009   6.636   0.782   3.060 -0.1472 -0.0077 -0.4883
  266MOL0     O35010   6.645   0.697   3.168 -0.3002  0.1462 -0.0471
  266MOL0     C35011   6.708   0.749   3.279 -0.1796  0.8924  0.1624
  266MOL0     C35012   6.773   0.658   3.360 -0.3385 -0.3025 -0.7941
  266MOL0     C35013   6.815   0.695   3.494 -0.5268  0.3275  0.1332
  266MOL0     C35014   6.814   0.827   3.526 -0.8587  0.2980 -0.7398
  266MOL0     O35015   6.874   0.870   3.646 -0.3557 -0.0456  0.5999
  266MOL0     C35016   6.891   1.009   3.678  1.6155 -0.0559  0.8770
  266MOL0     C35017   6.991   1.025   3.797  0.8887 -0.0098  0.4787
  266MOL0     C35018   6.960   1.148   3.879 -0.1438  0.2726  0.0155
  266MOL0     C35019   7.061   1.156   3.999 -0.1182 -0.3964  0.2317
  266MOL0     C35020   7.091   1.292   4.060 -0.0329 -0.3994  0.4283
  266MOL0     C35021   7.168   1.268   4.189  0.9151  1.2437  0.1510
  266MOL0     C35022   7.233   1.395   4.241 -0.2473 -0.3494 -0.2104
  266MOL0     C35023   7.161   1.505   4.304  0.0932  0.3470  0.0722
  266MOL0    Cl35024   7.075   1.593   4.173  0.3368 -0.2812  0.4726
  266MOL0     C35025   6.751   0.922   3.446 -0.9733  0.4598  0.5141
  266MOL0     C35026   6.693   0.878   3.328 -0.3208 -1.0169  0.4802
  266MOL0     O35027   6.705   0.882   3.043  0.4128 -0.1985 -0.5331
  266MOL0     C35028   6.508   0.850   2.862 -1.1360 -0.4259 -0.4944
  266MOL0     C35029   6.437   0.821   2.748 -0.1111  0.2674 -0.8720
  266MOL0     N35030   5.812   0.645   2.272  0.1812  0.1229  0.0759
  266MOL0     N35031   5.714   0.722   2.280  0.3056  0.4429  0.5088
  266MOL0     C35032   5.840   1.850   2.964 -0.3064 -0.6268  0.5205
  266MOL0     C35033   5.904   1.941   3.049 -1.3791  1.1032  0.1462
  266MOL0     C35034   6.045   2.243   3.339 -0.4307 -0.8954 -0.9918
  266MOL0     C35035   6.060   2.374   3.290  0.4625 -1.3282 -0.1082
  266MOL0     C35036   6.126   2.481   3.354  1.0002 -0.2288 -0.7345
  266MOL0     C35037   6.196   2.450   3.477 -0.1376 -0.0935 -0.0631
  266MOL0     O35038   6.259   2.548   3.550  0.0378  0.3072  0.5163
  266MOL0     C35039   6.182   2.664   3.566  0.5507 -0.1177 -0.6669
  266MOL0     C35040   6.221   2.745   3.699 -0.8423  0.4917  0.4322
  266MOL0     C35041   6.121   2.860   3.712  0.5252  0.2331  0.0541
  266MOL0     C35042   5.984   2.799   3.771  0.1517 -0.6215 -0.3086
  266MOL0     C35043   5.894   2.926   3.794  0.0326  1.5097 -0.3635
  266MOL0     C35044   5.804   2.989   3.836 -0.3907 -0.1942 -0.7097
  266MOL0     C35045   6.192   2.328   3.530  0.4498  1.0834  0.0344
  266MOL0     C35046   6.110   2.229   3.468  0.8065  0.3428 -0.6453
  266MOL0     H35047   5.678   2.176   3.054 -0.0130 -0.3421  1.0924
  266MOL0     H35048   5.576   2.049   2.903  0.0837 -1.9623 -0.3308
  266MOL0     H35049   5.688   1.620   2.885 -0.6905  2.7964  0.5313
  266MOL0     H35050   5.808   1.674   2.775  0.9575 -2.2287  2.8627
  266MOL0     H35051   5.651   1.642   2.574 -1.8022 -1.7425 -1.6003
  266MOL0     H35052   5.520   1.629   2.693  0.0500 -0.9950  0.9219
  266MOL0     H35053   5.624   1.403   2.769  0.5656 -0.3937  0.2216
  266MOL0     H35054   5.768   1.443   2.668  0.6114  2.0032  1.9209
  266MOL0     H35055   5.476   1.420   2.577 -0.5416  0.2452 -1.4092
  266MOL0     H35056   5.600   1.439   2.469 -1.7986  1.5915  0.7799
  266MOL0     H35057   5.530   1.187   2.626  1.3491 -1.7645  0.1701
  266MOL0     H35058   5.688   1.201   2.594 -0.4858 -1.8459 -0.4412
  266MOL0     H35059   5.632   1.246   2.340  1.5757 -1.0671  0.1612
  266MOL0     H35060   5.476   1.173   2.380 -0.6182  0.7453  2.5502
  266MOL0     H35061   5.744   1.059   2.465 -1.0249 -0.0841  2.4429
  266MOL0     H35062   5.588   0.963   2.468  1.4121 -2.5770 -0.8741
  266MOL0     H35063   5.692   1.053   2.200  3.1653 -1.0841 -0.9443
  266MOL0     H35064   5.560   0.964   2.235 -0.3012  2.4161 -0.5504
  266MOL0     H35065   5.928   0.952   2.295 -0.1736  0.1477 -0.4981
  266MOL0     H35066   6.129   0.736   2.200 -1.0451  0.2683 -1.2904
  266MOL0     H35067   6.069   0.577   2.230  1.0511 -0.5027 -1.5733
  266MOL0     H35068   6.054   0.649   2.484  1.8141 -1.6812  0.2200
  266MOL0     H35069   6.156   0.787   2.432  0.0978  0.2434 -2.5801
  266MOL0     H35070   6.236   0.500   2.458  0.3854 -1.1305 -1.9330
  266MOL0     H35071   6.295   0.596   2.320 -2.1465  0.1349 -0.6207
  266MOL0     H35072   6.370   0.767   2.483 -0.0998 -0.1176  0.6363
  266MOL0     H35073   6.439   0.602   2.522 -2.9171 -4.1711 -0.1032
  266MOL0     H35074   6.361   0.501   2.839  1.1823 -0.5750  0.4554
  266MOL0     H35075   6.508   0.542   3.014 -0.4317 -0.2889  0.1718
  266MOL0     H35076   6.772   0.552   3.335 -1.8458 -1.6544  4.0590
  266MOL0     H35077   6.857   0.617   3.557 -4.7735 -1.3060  1.3235
  266MOL0     H35078   6.799   1.066   3.692  1.0134 -0.0997 -2.1339
  266MOL0     H35079   6.931   1.056   3.588 -1.1561  1.9222  0.5539
  266MOL0     H35080   7.092   1.035   3.755  0.1376 -0.1234 -1.4025
  266MOL0     H35081   6.985   0.932   3.854 -3.8354  1.0006  2.1033
  266MOL0     H35082   6.858   1.160   3.918  0.5258  1.3691  1.4931
  266MOL0     H35083   6.983   1.240   3.824  0.8502  1.0928  1.7533
  266MOL0     H35084   7.027   1.094   4.081  1.3357 -0.9003  0.4837
  266MOL0     H35085   7.157   1.121   3.960 -0.2267  0.6644 -1.0831
  266MOL0     H35086   6.994   1.337   4.084  0.5435  0.6953  0.7832
  266MOL0     H35087   7.144   1.355   3.987 -0.4005 -1.3346 -0.6843
  266MOL0     H35088   7.248   1.197   4.168 -0.2947  0.3279 -1.7281
  266MOL0     H35089   7.110   1.212   4.263  1.0814 -1.9153 -1.9371
  266MOL0     H35090   7.314   1.371   4.310  0.0772 -1.0499 -0.8091
  266MOL0     H35091   7.291   1.430   4.155 -1.5000  2.4057 -0.0256
  266MOL0     H35092   7.239   1.564   4.352 -1.0330  0.6513  1.6126
  266MOL0     H35093   7.108   1.488   4.398  1.1781  0.1847  0.6744
  266MOL0     H35094   6.743   1.024   3.482 -0.1043 -0.2308  2.8410
  266MOL0     H35095   6.617   0.945   3.288  1.9564  1.0943 -0.5705
  266MOL0     H35096   6.557   0.947   2.855 -0.4932 -0.6941  0.1215
  266MOL0     H35097   6.403   0.888   2.669 -0.3821 -1.1709 -2.0092
  266MOL0     H35098   5.888   1.756   2.936  2.4902  0.1958  2.2131
  266MOL0     H35099   5.994   1.904   3.098 -2.9758 -1.3284  1.4433
  266MOL0     H35100   6.014   2.402   3.195 -0.8576  2.7194  1.5187
  266MOL0     H35101   6.133   2.582   3.316 -0.7232 -0.5846 -2.0841
  266MOL0     H35102   6.076   2.639   3.555  0.2348  0.4698  0.7986
  266MOL0     H35103   6.202   2.734   3.484  2.4610  0.8293  0.5190
  266MOL0     H35104   6.208   2.678   3.784 -0.1607 -1.4879 -0.9438
  266MOL0     H35105   6.324   2.776   3.683 -0.1151 -1.8230  0.2988
  266MOL0     H35106   6.107   2.919   3.622  1.3588 -1.7665 -1.4663
  266MOL0     H35107   6.156   2.928   3.790 -0.3360 -0.1026  0.7551
  266MOL0     H35108   5.942   2.728   3.700  1.9348 -2.8893  0.7673
  266MOL0     H35109   6.007   2.742   3.861  2.7226  0.2806 -0.3213
  266MOL0     H35110   5.730   3.055   3.876 -0.7790 -0.0497 -1.6499
  266MOL0     H35111   6.250   2.302   3.617  0.2025 -4.4119 -1.0640
  266MOL0     H35112   6.117   2.129   3.510  1.8990  1.0150  0.8529
  267MOL0     O35113   1.174   0.518   4.415 -0.1279  0.5641 -0.6710
  267MOL0     C35114   1.142   0.401   4.419 -0.6514  0.2620 -0.2166
  267MOL0     O35115   1.093   0.337   4.529  0.1868  1.0240  0.3312
  267MOL0     C35116   1.086   0.403   4.651  0.3853  0.3820 -0.2666
  267MOL0     C35117   0.995   0.507   4.683 -0.2570 -0.6045 -0.0128
  267MOL0     C35118   1.001   0.578   4.806  0.4206 -0.7669 -0.0745
  267MOL0     C35119   1.088   0.524   4.907  1.0119 -0.3206 -0.0670
  267MOL0     O35120   1.094   0.552   5.044  0.5993 -0.7104  0.6917
  267MOL0     C35121   0.990   0.631   5.103 -0.4525  0.3349 -0.2612
  267MOL0     C35122   0.991   0.592   5.257 -0.2342 -0.1631  0.2027
  267MOL0     C35123   1.133   0.578   5.323 -0.4193  0.4831 -0.0782
  267MOL0     C35124   1.134   0.446   5.407 -0.1581 -0.2235 -0.1586
  267MOL0     C35125   1.231   0.457   5.529 -0.4470  0.6713  0.0186
  267MOL0     C35126   1.269   0.309   5.556 -0.1442  0.4311 -0.2114
  267MOL0     C35127   1.142   0.227   5.602 -1.2176  0.2868 -0.7032
  267MOL0     C35128   1.181   0.091   5.672 -0.3634  0.3787  0.0604
  267MOL0     N35129   1.066  -0.001   5.685  0.5938  0.0317  0.6603
  267MOL0     C35130   1.011  -0.085   5.593  0.2897 -0.0502 -0.6241
  267MOL0     C35131   0.921  -0.162   5.660 -1.0271 -0.6411 -0.6200
  267MOL0     C35132   0.831  -0.254   5.586  0.0654 -0.2741  0.5659
  267MOL0     C35133   0.808  -0.393   5.647 -1.1278  0.6610  0.7204
  267MOL0     C35134   0.664  -0.429   5.627 -0.5487 -0.6536 -0.1979
  267MOL0     C35135   0.607  -0.452   5.489 -0.2615 -0.7680 -0.0610
  267MOL0     O35136   0.675  -0.566   5.434  0.5999 -0.5041 -0.0625
  267MOL0     C35137   0.650  -0.603   5.306  0.1810 -0.1887 -0.2831
  267MOL0     C35138   0.557  -0.540   5.220  0.4794 -0.1023 -0.3454
  267MOL0     C35139   0.533  -0.582   5.091 -0.2491  0.7217 -0.5943
  267MOL0     C35140   0.600  -0.696   5.042 -1.1088  0.5820  0.8333
  267MOL0     C35141   0.570  -0.748   4.907  0.1046 -0.4593 -0.7833
  267MOL0     O35142   0.661  -0.837   4.856  0.0529 -0.4046 -0.9050
  267MOL0     C35143   0.648  -0.877   4.730  0.2486  0.9937  0.2278
  267MOL0     C35144   0.644  -0.787   4.622  0.9608  0.9493 -0.0020
  267MOL0     C35145   0.640  -0.834   4.487  0.1821  0.3451 -0.1106
  267MOL0     C35146   0.617  -0.969   4.455  0.1396  0.0259 -0.1539
  267MOL0     O35147   0.595  -1.008   4.331  0.2504  0.0048  0.2159
  267MOL0     C35148   0.705  -1.075   4.276  0.7325  0.6709 -0.9286
  267MOL0     C35149   0.801  -0.991   4.203 -0.1644 -0.4261  0.2405
  267MOL0     C35150   0.764  -0.932   4.067  0.2817  0.2854  0.1883
  267MOL0     C35151   0.891  -0.898   3.978  0.6694  0.1271 -0.0095
  267MOL0     C35152   0.838  -0.808   3.859 -0.2836  0.0677  0.0624
  267MOL0     C35153   0.742  -0.864   3.755  0.7393  0.9026  0.2623
  267MOL0     C35154   0.761  -1.001   3.699  0.8988 -0.9257  0.4456
  267MOL0     C35155   0.650  -1.035   3.598 -0.4990 -0.1974  0.0039
  267MOL0    Cl35156   0.644  -1.209   3.576 -0.3209  0.4587  0.4137
  267MOL0     C35157   0.606  -1.050   4.568 -0.1206  1.0683  0.2473
  267MOL0     C35158   0.624  -1.011   4.697 -0.1874 -0.1696  0.3307
  267MOL0     O35159   0.465  -0.708   4.851 -0.6393  0.0835 -0.3777
  267MOL0     C35160   0.691  -0.763   5.126  0.2862 -0.0989  1.3984
  267MOL0     C35161   0.707  -0.720   5.257 -0.9155  0.6868  1.2737
  267MOL0     N35162   0.915  -0.119   5.791  0.3567 -0.1912 -0.8916
  267MOL0     N35163   1.008  -0.029   5.803  0.6450 -0.4845  0.3961
  267MOL0     C35164   1.173   0.417   4.875 -0.5664 -0.2823  0.1426
  267MOL0     C35165   1.174   0.358   4.747  0.5380  0.5495  0.0582
  267MOL0     C35166   1.162   0.322   4.291 -0.1092 -0.5916  0.5740
  267MOL0     C35167   1.234   0.378   4.183 -0.3831  0.1430  0.3963
  267MOL0     C35168   1.248   0.303   4.066  0.8905  1.2131 -0.0096
  267MOL0     C35169   1.192   0.169   4.056 -0.1783 -0.3608  0.0992
  267MOL0     O35170   1.223   0.098   3.938 -0.4743  0.1513 -0.8169
  267MOL0     C35171   1.113   0.017   3.889  0.0890  0.1298 -0.4461
  267MOL0     C35172   1.097   0.016   3.738  0.2388  0.2652  0.3030
  267MOL0     C35173   1.090   0.151   3.675  0.2175 -0.7498  0.3376
  267MOL0     C35174   0.968   0.220   3.728  0.6139 -0.0372 -0.2232
  267MOL0     C35175   0.942   0.341   3.649 -0.3528  1.0706 -0.5238
  267MOL0     C35176   0.902   0.428   3.583  0.0748  0.3595  0.4953
  267MOL0     C35177   1.126   0.111   4.163 -0.2942  0.8314 -0.4591
  267MOL0     C35178   1.111   0.194   4.274 -0.0049  0.3139 -0.1728
  267MOL0     H35179   0.925   0.539   4.606 -2.1539  3.0870  2.8786
  267MOL0     H35180   0.936   0.659   4.835  1.9346 -0.4372  2.7346
  267MOL0     H35181   0.894   0.638   5.051 -0.6103  2.2454  0.2173
  267MOL0     H35182   1.040   0.727   5.087 -1.2254  0.2344 -4.6614
  267MOL0     H35183   0.934   0.499   5.264 -0.1145 -0.2869 -0.4722
  267MOL0     H35184   0.933   0.666   5.312 -0.8970 -0.2486 -0.3742
  267MOL0     H35185   1.155   0.664   5.386 -3.0588  0.9955  0.2422
  267MOL0     H35186   1.216   0.571   5.251 -0.5847 -2.4290 -0.1176
  267MOL0     H35187   1.038   0.433   5.459  0.7334 -2.0577  1.1432
  267MOL0     H35188   1.165   0.365   5.340  0.7188  0.5674 -0.7380
  267MOL0     H35189   1.176   0.499   5.613  1.8160 -1.1725  2.6134
  267MOL0     H35190   1.313   0.530   5.526 -0.2326  0.5425  1.8102
  267MOL0     H35191   1.335   0.321   5.643  0.9023  3.0302 -1.2868
  267MOL0     H35192   1.329   0.266   5.475  2.2237  1.6782  0.7652
  267MOL0     H35193   1.074   0.280   5.669  0.0247  1.7203 -0.5330
  267MOL0     H35194   1.086   0.200   5.512 -2.4430  3.5152 -1.0133
  267MOL0     H35195   1.212   0.120   5.772 -1.0934  0.1858  0.3491
  267MOL0     H35196   1.257   0.039   5.614 -0.7997 -0.2950  0.0778
  267MOL0     H35197   1.032  -0.093   5.487 -0.7656 -2.7197 -0.7021
  267MOL0     H35198   0.880  -0.272   5.490  0.9585 -1.3601  1.2059
  267MOL0     H35199   0.732  -0.206   5.578 -0.9164 -2.4125 -1.1914
  267MOL0     H35200   0.832  -0.374   5.752 -1.7031  1.3787  0.7279
  267MOL0     H35201   0.867  -0.476   5.606 -3.2538  1.5601 -4.9385
  267MOL0     H35202   0.652  -0.522   5.683  3.3249 -1.1322  0.0777
  267MOL0     H35203   0.611  -0.355   5.687  1.3657 -0.0661  0.8343
  267MOL0     H35204   0.618  -0.362   5.428  0.6956 -0.9673 -0.2058
  267MOL0     H35205   0.499  -0.467   5.493 -0.7249  1.9457 -0.3192
  267MOL0     H35206   0.486  -0.464   5.251  1.6622  1.9554 -2.3885
  267MOL0     H35207   0.458  -0.532   5.031 -1.6592 -2.0355 -1.3015
  267MOL0     H35208   0.664  -0.688   4.660  0.1507  1.3929 -0.6984
  267MOL0     H35209   0.650  -0.752   4.417  5.0744 -0.5126 -0.7615
  267MOL0     H35210   0.682  -1.163   4.216  2.4700 -0.7567  0.3679
  267MOL0     H35211   0.753  -1.122   4.363  0.3645  2.0081  0.0263
  267MOL0     H35212   0.890  -1.051   4.180 -0.6505 -0.3855 -1.9154
  267MOL0     H35213   0.848  -0.914   4.266  1.1925 -0.8739 -0.1783
  267MOL0     H35214   0.715  -0.838   4.092 -0.8564 -1.1452  4.2699
  267MOL0     H35215   0.693  -1.001   4.021  1.9695 -0.5219 -1.3226
  267MOL0     H35216   0.963  -0.842   4.038  0.6286  1.0112 -0.7694
  267MOL0     H35217   0.927  -0.994   3.940  0.1571  0.5652 -1.6411
  267MOL0     H35218   0.928  -0.796   3.798 -0.8661  0.3960 -0.7579
  267MOL0     H35219   0.794  -0.713   3.888 -1.6942 -1.1122  2.0147
  267MOL0     H35220   0.733  -0.787   3.677 -0.4793  1.6757  1.1316
  267MOL0     H35221   0.645  -0.856   3.805  0.3363  0.7538 -0.4831
  267MOL0     H35222   0.859  -1.013   3.651  0.2239 -0.9356 -0.9911
  267MOL0     H35223   0.762  -1.073   3.782 -2.0774 -2.8933 -1.0694
  267MOL0     H35224   0.661  -0.981   3.504 -0.4990  2.3822  1.3968
  267MOL0     H35225   0.556  -1.003   3.643  0.5804  3.5380 -0.0480
  267MOL0     H35226   0.578  -1.150   4.537 -1.1082  1.1430  0.8692
  267MOL0     H35227   0.609  -1.088   4.773  1.0517 -1.4692 -0.6682
  267MOL0     H35228   0.752  -0.846   5.090  2.1608  1.3499  1.0299
  267MOL0     H35229   0.752  -0.790   5.326 -6.1753 -0.9881  3.4629
  267MOL0     H35230   1.247   0.369   4.938  0.4579  0.9342 -0.0876
  267MOL0     H35231   1.238   0.271   4.736  0.6882  0.2610  2.5787
  267MOL0     H35232   1.276   0.477   4.198 -1.4523  0.4248  1.7338
  267MOL0     H35233   1.307   0.334   3.981  0.5206 -1.0030 -1.1477
  267MOL0     H35234   1.020   0.043   3.942  0.3998 -0.9317  0.6740
  267MOL0     H35235   1.116  -0.087   3.922 -0.8761 -0.4052 -1.9700
  267MOL0     H35236   1.180  -0.043   3.698  0.2565  1.2673 -1.2061
  267MOL0     H35237   1.005  -0.039   3.717 -0.0556  0.7679  0.2584
  267MOL0     H35238   1.104   0.164   3.568 -1.3804  3.4851  0.4531
  267MOL0     H35239   1.169   0.212   3.720  0.0842 -1.1629  1.1450
  267MOL0     H35240   0.882   0.152   3.725  0.5727  0.0476 -1.2527
  267MOL0     H35241   0.980   0.240   3.835 -1.6993  2.3492 -0.3040
  267MOL0     H35242   0.858   0.507   3.525 -3.0974 -2.4944 -1.3515
  267MOL0     H35243   1.074   0.018   4.143 -2.5750  2.3556 -2.0816
  267MOL0     H35244   1.049   0.157   4.355 -0.6633  0.1579 -0.7403
  268MOL0     O35245   2.160   1.044   9.056 -0.4964  1.0321 -0.8323
  268MOL0     C35246   2.207   1.159   9.052 -0.0341  0.8653  0.4090
  268MOL0     O35247   2.303   1.206   8.960  0.1189  0.6486 -1.2491
  268MOL0     C35248   2.327   1.135   8.843 -0.7115 -1.1327 -0.2159
  268MOL0     C35249   2.237   1.078   8.760 -0.2233  0.5665 -1.0978
  268MOL0     C35250   2.273   1.015   8.642 -0.7161 -0.2690  0.3529
  268MOL0     C35251   2.403   1.043   8.595  1.5555  0.1050 -0.5250
  268MOL0     O35252   2.450   0.997   8.476  0.0986  0.0783 -0.1190
  268MOL0     C35253   2.372   0.914   8.385 -0.8797  0.0975 -0.5840
  268MOL0     C35254   2.431   0.775   8.383  0.6534 -0.4714 -0.3396
  268MOL0     C35255   2.345   0.678   8.307 -0.0250  0.8773  0.5148
  268MOL0     C35256   2.373   0.528   8.341 -0.6913 -0.2809 -0.4316
  268MOL0     C35257   2.470   0.463   8.232 -0.3126 -0.7956 -0.8979
  268MOL0     C35258   2.512   0.320   8.249  0.5938  0.3223 -0.7628
  268MOL0     C35259   2.606   0.279   8.365 -0.3501  0.1813  0.7310
  268MOL0     C35260   2.747   0.311   8.332  0.2622 -0.6428  0.8739
  268MOL0     N35261   2.832   0.297   8.454  0.1530  0.3282 -0.6258
  268MOL0     C35262   2.890   0.180   8.503  0.7681  0.8566  1.4451
  268MOL0     C35263   2.966   0.218   8.607 -0.0609  0.1989  0.5254
  268MOL0     C35264   3.051   0.132   8.700 -0.2107  0.5124  0.2802
  268MOL0     C35265   3.195   0.184   8.678 -0.3901  1.0788  0.3005
  268MOL0     C35266   3.313   0.082   8.701 -0.6749  0.5636  0.3090
  268MOL0     C35267   3.401   0.119   8.821 -0.7967  0.3730 -0.1642
  268MOL0     O35268   3.353   0.073   8.953 -0.1694 -0.9406 -0.1931
  268MOL0     C35269   3.226   0.110   9.003 -1.6613  0.0189 -0.0658
  268MOL0     C35270   3.197   0.243   9.000  0.4229 -0.1707  0.2684
  268MOL0     C35271   3.065   0.286   9.025  0.2317  0.0561 -0.5071
  268MOL0     C35272   2.966   0.188   9.071 -0.3984 -1.2909  0.0915
  268MOL0     C35273   2.834   0.233   9.106 -0.4316 -0.0356  0.0789
  268MOL0     O35274   2.792   0.364   9.075  0.6116 -0.0429  0.0070
  268MOL0     C35275   2.665   0.403   9.114  0.8291 -1.0266  0.2633
  268MOL0     C35276   2.649   0.500   9.214 -0.7048  1.1554  0.5053
  268MOL0     C35277   2.520   0.530   9.258  0.7549  0.4144 -0.4392
  268MOL0     C35278   2.401   0.485   9.198  0.6201 -0.0958  0.5567
  268MOL0     O35279   2.281   0.520   9.255 -0.4251 -0.2077  0.9999
  268MOL0     C35280   2.174   0.546   9.156  0.3749  0.1689 -0.5587
  268MOL0     C35281   2.053   0.604   9.233 -0.4411 -0.2312 -0.8088
  268MOL0     C35282   1.966   0.685   9.142 -0.6993  0.1320  0.7958
  268MOL0     C35283   1.885   0.794   9.204 -0.3812  0.8065 -0.4124
  268MOL0     C35284   1.786   0.861   9.113  0.3020 -0.3675 -0.1592
  268MOL0     C35285   1.717   0.980   9.181  0.0117  0.5158  0.5793
  268MOL0     C35286   1.800   1.114   9.157 -0.1779 -0.0392  0.4670
  268MOL0     C35287   1.734   1.238   9.209  1.0240 -0.2390 -0.4070
  268MOL0    Cl35288   1.714   1.240   9.387 -0.1123 -0.2405 -0.4457
  268MOL0     C35289   2.420   0.402   9.090 -0.0101 -0.4489 -0.4190
  268MOL0     C35290   2.547   0.361   9.056  0.1107  0.6095 -0.5897
  268MOL0     O35291   2.771   0.153   9.169  0.6509  0.0803  0.0720
  268MOL0     C35292   3.011   0.054   9.092  0.5838  0.3243  0.9733
  268MOL0     C35293   3.140   0.018   9.052  0.2531  0.0877 -0.4639
  268MOL0     N35294   2.945   0.356   8.627  0.2853 -0.9666 -0.5906
  268MOL0     N35295   2.870   0.399   8.532 -0.4685 -0.9173 -0.2736
  268MOL0     C35296   2.497   1.118   8.671  0.3660 -0.6447 -0.2993
  268MOL0     C35297   2.454   1.165   8.797 -0.4566 -0.6548  0.0670
  268MOL0     C35298   2.161   1.254   9.165 -0.2465  0.0970  0.0025
  268MOL0     C35299   2.122   1.202   9.288  0.5754  0.2779 -0.5987
  268MOL0     C35300   2.078   1.295   9.395 -0.7466 -0.1766 -0.4838
  268MOL0     C35301   2.062   1.430   9.370  0.4302  0.2718  0.4157
  268MOL0     O35302   2.017   1.517   9.459 -0.8836 -0.8897 -0.3969
  268MOL0     C35303   1.886   1.497   9.517  0.1150  0.3434  0.9301
  268MOL0     C35304   1.843   1.621   9.594  0.7231  0.6283  0.3722
  268MOL0     C35305   1.713   1.609   9.678 -0.7407 -0.3261 -0.3248
  268MOL0     C35306   1.600   1.521   9.623 -0.1515 -0.1224  0.3457
  268MOL0     C35307   1.551   1.553   9.481  0.2057  0.0439 -0.9926
  268MOL0     C35308   1.496   1.566   9.377  0.2571  0.6462 -0.5106
  268MOL0     C35309   2.111   1.471   9.252 -0.0389  0.2203 -0.7492
  268MOL0     C35310   2.159   1.390   9.156 -0.1471 -0.8887 -0.7262
  268MOL0     H35311   2.133   1.065   8.788  0.4735  0.5465  1.7040
  268MOL0     H35312   2.206   0.945   8.594 -0.2380 -1.6073  1.5737
  268MOL0     H35313   2.376   0.938   8.279 -0.5062  0.9834 -0.3720
  268MOL0     H35314   2.264   0.912   8.402 -0.9286 -1.9380 -0.8926
  268MOL0     H35315   2.463   0.739   8.481 -1.1046 -2.0747 -0.2873
  268MOL0     H35316   2.520   0.792   8.323 -1.1728  2.1398 -2.5468
  268MOL0     H35317   2.357   0.699   8.201  1.1110 -0.2694  0.3864
  268MOL0     H35318   2.244   0.688   8.349 -0.2616  0.2144  0.1158
  268MOL0     H35319   2.424   0.523   8.438  0.4736  0.4988 -0.9811
  268MOL0     H35320   2.274   0.483   8.352 -2.2351  3.0018  0.6693
  268MOL0     H35321   2.562   0.517   8.213 -0.4375 -0.9846 -2.1075
  268MOL0     H35322   2.406   0.472   8.144 -2.1178  2.5588  0.5662
  268MOL0     H35323   2.537   0.279   8.151 -1.2096  1.0600 -1.5818
  268MOL0     H35324   2.426   0.258   8.276 -0.4214  1.6597 -0.8118
  268MOL0     H35325   2.573   0.322   8.460 -0.5021 -1.0220  1.2292
  268MOL0     H35326   2.606   0.170   8.367  2.9169  0.0934  1.6702
  268MOL0     H35327   2.757   0.417   8.308 -0.6991 -0.8780 -0.7274
  268MOL0     H35328   2.782   0.251   8.247 -1.2649 -0.8736  0.3719
  268MOL0     H35329   2.879   0.079   8.465 -1.6548  1.4320  0.4204
  268MOL0     H35330   3.043   0.027   8.671 -2.9153  1.0374 -1.2149
  268MOL0     H35331   3.010   0.139   8.802 -0.8052  0.3549  0.0562
  268MOL0     H35332   3.213   0.278   8.730 -0.4888  1.7674 -0.8701
  268MOL0     H35333   3.202   0.211   8.572 -0.1887 -3.3756 -1.0290
  268MOL0     H35334   3.273  -0.017   8.723  0.1380 -0.6765 -3.1245
  268MOL0     H35335   3.373   0.077   8.609 -2.0713  1.2611 -0.6728
  268MOL0     H35336   3.423   0.226   8.824  2.7114 -0.2665  1.3143
  268MOL0     H35337   3.495   0.069   8.798  1.7844  3.8437  1.9031
  268MOL0     H35338   3.270   0.315   8.964 -1.1213  1.5460  0.4031
  268MOL0     H35339   3.030   0.388   9.019 -0.2114 -0.1765 -3.6472
  268MOL0     H35340   2.731   0.552   9.263  1.0177  1.8215 -2.8354
  268MOL0     H35341   2.506   0.594   9.345 -1.7981 -1.4481  0.6571
  268MOL0     H35342   2.142   0.453   9.108  1.2974 -0.0476 -0.7751
  268MOL0     H35343   2.206   0.612   9.075  1.2806  1.6639  0.9849
  268MOL0     H35344   2.106   0.669   9.303  0.5992 -1.9320  0.0348
  268MOL0     H35345   2.000   0.519   9.278 -4.7151  3.2868  1.5734
  268MOL0     H35346   1.902   0.621   9.080  0.4846  0.2441 -0.5952
  268MOL0     H35347   2.029   0.741   9.072 -0.6797 -1.9445 -0.9209
  268MOL0     H35348   1.832   0.747   9.286  0.4893  1.1559  0.3726
  268MOL0     H35349   1.955   0.870   9.240  1.0074 -0.7344  0.2496
  268MOL0     H35350   1.715   0.787   9.075  0.6892 -0.4103 -0.8324
  268MOL0     H35351   1.848   0.894   9.029 -0.1113 -0.6230 -0.5682
  268MOL0     H35352   1.699   0.963   9.288  3.0139 -0.2834  1.0416
  268MOL0     H35353   1.624   0.992   9.126  0.2325 -1.1047 -0.1906
  268MOL0     H35354   1.897   1.086   9.200  1.4927 -1.0132 -3.4512
  268MOL0     H35355   1.813   1.113   9.048  1.9970 -3.6985  0.5952
  268MOL0     H35356   1.637   1.258   9.162  0.6889 -0.3989  0.2101
  268MOL0     H35357   1.795   1.327   9.190 -0.4102  0.7015 -0.7667
  268MOL0     H35358   2.343   0.358   9.027  1.3742  2.7483 -4.8517
  268MOL0     H35359   2.558   0.292   8.973 -1.9196 -1.6503  0.9055
  268MOL0     H35360   2.937  -0.024   9.107  0.4017  0.3656  0.3244
  268MOL0     H35361   3.165  -0.088   9.042 -0.7857 -0.3180  1.0093
  268MOL0     H35362   2.600   1.139   8.644  0.5317  2.5241  2.1319
  268MOL0     H35363   2.524   1.217   8.861  0.5496  1.2842 -2.4311
  268MOL0     H35364   2.138   1.096   9.302  1.7400  0.5609  0.4211
  268MOL0     H35365   2.037   1.260   9.489 -0.7274 -0.3704 -0.5477
  268MOL0     H35366   1.889   1.415   9.589  2.7207  0.4267  1.0015
  268MOL0     H35367   1.809   1.492   9.439  1.9864  3.0860 -1.3113
  268MOL0     H35368   1.925   1.635   9.665  0.2353 -1.2577  1.3991
  268MOL0     H35369   1.808   1.694   9.521  0.3684  0.7623  0.6677
  268MOL0     H35370   1.674   1.710   9.693  0.2764  0.0037  0.1963
  268MOL0     H35371   1.752   1.569   9.772  1.4545  1.3720 -0.4228
  268MOL0     H35372   1.622   1.415   9.610  0.4278  0.2988 -3.4448
  268MOL0     H35373   1.519   1.548   9.692 -0.6079 -1.8491  0.5220
  268MOL0     H35374   1.449   1.569   9.280  0.0413 -1.4745 -0.5244
  268MOL0     H35375   2.109   1.574   9.217  0.4358 -0.5001 -3.0552
  268MOL0     H35376   2.195   1.429   9.061 -1.3757 -0.3006 -0.9753
  269MOL0     O35377   2.561   6.416  11.234  0.2995 -0.5254  0.7241
  269MOL0     C35378   2.594   6.300  11.253 -0.6955  0.4767 -0.3595
  269MOL0     O35379   2.728   6.252  11.227  0.2343 -0.0941  0.0728
  269MOL0     C35380   2.834   6.334  11.214  0.1058 -0.0674 -0.1957
  269MOL0     C35381   2.927   6.302  11.114 -0.1345  0.1462 -0.0944
  269MOL0     C35382   3.045   6.378  11.089 -0.1270 -0.1449  0.1315
  269MOL0     C35383   3.060   6.488  11.163  0.2301  0.1034 -0.2876
  269MOL0     O35384   3.166   6.572  11.120  0.3226 -0.9320 -0.0692
  269MOL0     C35385   3.235   6.636  11.218  0.1132 -0.1968 -0.2545
  269MOL0     C35386   3.336   6.736  11.158  0.6664 -0.1410  0.8430
  269MOL0     C35387   3.454   6.677  11.077  0.1474 -0.3099 -0.0747
  269MOL0     C35388   3.568   6.781  11.065 -0.4220 -0.1504 -0.1220
  269MOL0     C35389   3.682   6.712  10.983  0.0909 -0.1593 -0.3953
  269MOL0     C35390   3.815   6.797  10.991  0.6172 -0.0353  0.1687
  269MOL0     C35391   3.936   6.720  10.938  0.1160  0.4478  0.3917
  269MOL0     C35392   4.059   6.796  10.989  0.0979  0.6191 -0.0412
  269MOL0     N35393   4.186   6.722  10.965  0.5875  0.1203 -0.3053
  269MOL0     C35394   4.215   6.657  10.848  0.6918 -0.4495 -0.0168
  269MOL0     C35395   4.343   6.621  10.857 -0.0941  0.5284 -0.0851
  269MOL0     C35396   4.418   6.536  10.761  0.2119 -0.9798  0.0820
  269MOL0     C35397   4.356   6.397  10.723 -0.1267 -0.4300  0.5113
  269MOL0     C35398   4.434   6.312  10.627 -0.5826  0.8618  0.3486
  269MOL0     C35399   4.483   6.394  10.509  0.0569 -0.8246 -0.0591
  269MOL0     O35400   4.366   6.435  10.438  0.2751 -0.5739  0.6270
  269MOL0     C35401   4.386   6.537  10.349 -0.6197  0.5547 -0.2031
  269MOL0     C35402   4.282   6.563  10.260  0.0272 -1.0111  0.0721
  269MOL0     C35403   4.287   6.674  10.168 -0.4210 -0.3579  0.4682
  269MOL0     C35404   4.406   6.752  10.163 -0.8801  0.3231  0.3376
  269MOL0     C35405   4.413   6.857  10.069  0.4106  0.2655 -0.0344
  269MOL0     O35406   4.536   6.905  10.044  0.3166  0.3872 -0.1068
  269MOL0     C35407   4.553   6.979   9.926 -0.2938 -1.1674 -0.6661
  269MOL0     C35408   4.625   6.924   9.819  0.8005  0.6446  1.1741
  269MOL0     C35409   4.630   6.995   9.698  0.6538  0.1339  0.0256
  269MOL0     C35410   4.558   7.113   9.683 -0.2989 -0.4162  1.2477
  269MOL0     O35411   4.579   7.174   9.557  0.1220  0.2256 -0.4634
  269MOL0     C35412   4.510   7.294   9.532 -0.3897  0.0641  0.3134
  269MOL0     C35413   4.551   7.349   9.400  0.7949 -0.6129  0.1678
  269MOL0     C35414   4.493   7.490   9.376 -0.3179  0.6359 -0.2189
  269MOL0     C35415   4.480   7.523   9.229 -0.1833 -0.3620  0.2939
  269MOL0     C35416   4.343   7.458   9.179  0.5797  0.8241 -0.3164
  269MOL0     C35417   4.317   7.461   9.023 -0.5675 -0.0339 -0.1198
  269MOL0     C35418   4.193   7.380   8.971  0.7718 -0.4644 -0.7268
  269MOL0     C35419   4.054   7.415   9.045 -1.2135  0.5247  0.3266
  269MOL0    Cl35420   3.999   7.587   9.012  0.4636 -0.0091 -0.0211
  269MOL0     C35421   4.486   7.170   9.785  0.0706 -0.3672  0.0808
  269MOL0     C35422   4.483   7.105   9.909 -0.3566  0.5217  0.5578
  269MOL0     O35423   4.316   6.882  10.001 -0.2415  0.4215  0.0345
  269MOL0     C35424   4.513   6.722  10.243 -0.8471  0.3820 -0.1431
  269MOL0     C35425   4.504   6.615  10.340  0.1542 -0.6886 -0.7891
  269MOL0     N35426   4.392   6.675  10.974  0.3142 -0.7316  0.2437
  269MOL0     N35427   4.297   6.737  11.041 -0.4713  0.7198 -0.1322
  269MOL0     C35428   2.966   6.536  11.253  0.0628 -0.3209 -0.2102
  269MOL0     C35429   2.860   6.450  11.289 -0.1155 -0.5962 -0.0763
  269MOL0     C35430   2.505   6.197  11.306 -0.8758 -0.5315 -0.4692
  269MOL0     C35431   2.411   6.233  11.402  0.8391 -0.2279  0.8198
  269MOL0     C35432   2.327   6.141  11.463 -0.4754 -0.4763 -0.1889
  269MOL0     C35433   2.339   6.009  11.430 -0.5991  0.0678  0.3463
  269MOL0     O35434   2.272   5.905  11.476 -0.4429  0.3248 -0.1432
  269MOL0     C35435   2.201   5.915  11.595  0.8509 -0.0774  0.2157
  269MOL0     C35436   2.182   5.761  11.631  0.1851  0.3787  0.0119
  269MOL0     C35437   2.060   5.752  11.722 -0.1530 -0.0086 -0.1782
  269MOL0     C35438   1.935   5.740  11.643  0.6483 -0.0888 -0.5219
  269MOL0     C35439   1.841   5.849  11.681 -1.2039 -0.0979  0.3233
  269MOL0     C35440   1.765   5.939  11.698  0.2302  0.2086 -0.2676
  269MOL0     C35441   2.432   5.971  11.323  0.3983 -1.5922 -0.1868
  269MOL0     C35442   2.519   6.069  11.261  0.2624  0.2429  0.2559
  269MOL0     H35443   2.903   6.219  11.049  0.4291  0.2318 -0.4166
  269MOL0     H35444   3.109   6.363  11.003 -2.5511  0.2584 -1.8693
  269MOL0     H35445   3.281   6.565  11.288 -0.3940  0.8074  1.1432
  269MOL0     H35446   3.168   6.704  11.273  0.9752  0.7708 -0.3829
  269MOL0     H35447   3.361   6.807  11.238 -2.4935  1.5571  0.4910
  269MOL0     H35448   3.299   6.799  11.077  4.0671  1.3226  0.2637
  269MOL0     H35449   3.424   6.642  10.978  2.2841 -1.3278 -0.4146
  269MOL0     H35450   3.483   6.583  11.124 -1.7353 -0.2133  1.3937
  269MOL0     H35451   3.530   6.870  11.015 -3.9619 -0.9656  0.8339
  269MOL0     H35452   3.598   6.819  11.163  2.3339  2.3293 -1.7874
  269MOL0     H35453   3.651   6.705  10.879 -0.4705  0.0950 -0.2490
  269MOL0     H35454   3.688   6.611  11.023 -1.9866 -0.4871 -0.8345
  269MOL0     H35455   3.837   6.831  11.092 -2.9197 -0.5989  1.2608
  269MOL0     H35456   3.805   6.888  10.931 -4.6878  0.4542  1.3235
  269MOL0     H35457   3.933   6.621  10.985 -0.9140  0.4744  0.4013
  269MOL0     H35458   3.936   6.706  10.830  0.8134 -1.6198  0.6097
  269MOL0     H35459   4.063   6.832  11.093  2.9418  2.0040 -0.5450
  269MOL0     H35460   4.061   6.885  10.927  2.0001  1.8459  1.6451
  269MOL0     H35461   4.142   6.639  10.770  1.0610 -2.0558 -0.0275
  269MOL0     H35462   4.522   6.532  10.794  1.8579  2.5223 -3.8167
  269MOL0     H35463   4.422   6.599  10.672 -3.7924 -1.3555 -0.5713
  269MOL0     H35464   4.258   6.407  10.677  0.0524 -1.7889 -0.2178
  269MOL0     H35465   4.336   6.341  10.815 -0.7955  0.6514  1.0358
  269MOL0     H35466   4.530   6.288  10.673  0.6084  2.4649 -1.1275
  269MOL0     H35467   4.382   6.217  10.610  1.7695 -0.9925  2.8527
  269MOL0     H35468   4.550   6.335  10.446 -0.1583 -0.9659 -0.1547
  269MOL0     H35469   4.539   6.480  10.546  0.7909 -1.0475 -0.6218
  269MOL0     H35470   4.202   6.491  10.250 -1.7609  1.2239 -3.1522
  269MOL0     H35471   4.211   6.683  10.091 -0.8644  3.1967  1.1258
  269MOL0     H35472   4.662   6.822   9.816 -0.5579  0.1209 -2.1238
  269MOL0     H35473   4.678   6.947   9.613 -0.9414 -4.8078  1.5963
  269MOL0     H35474   4.532   7.366   9.611  1.1039 -2.6965  2.6205
  269MOL0     H35475   4.406   7.262   9.522 -0.5691  0.9039 -0.6977
  269MOL0     H35476   4.506   7.280   9.327  0.5123 -0.0645 -0.1818
  269MOL0     H35477   4.660   7.344   9.387  1.7729 -0.2030  5.6511
  269MOL0     H35478   4.560   7.563   9.420 -2.9574  3.4586 -0.4950
  269MOL0     H35479   4.393   7.491   9.421  0.1445  0.4047  0.8290
  269MOL0     H35480   4.475   7.632   9.215  2.1198 -0.3662 -1.1313
  269MOL0     H35481   4.564   7.483   9.172 -0.2026 -0.0859  0.0665
  269MOL0     H35482   4.266   7.522   9.222  1.2430  1.2956  0.1870
  269MOL0     H35483   4.330   7.358   9.222 -0.8213  1.3307  0.4975
  269MOL0     H35484   4.402   7.418   8.970 -1.5729  0.3553 -2.1740
  269MOL0     H35485   4.313   7.566   8.992  0.7116  0.3896  1.0657
  269MOL0     H35486   4.179   7.401   8.864  1.4261  2.4626 -0.3395
  269MOL0     H35487   4.211   7.272   8.977  2.0854 -0.2288 -0.0979
  269MOL0     H35488   4.086   7.397   9.148 -1.4699 -2.1895  0.0218
  269MOL0     H35489   3.975   7.346   9.013  0.3757 -0.7536 -1.0302
  269MOL0     H35490   4.424   7.259   9.780 -1.5377 -1.3043  1.9171
  269MOL0     H35491   4.413   7.137   9.986 -0.6230  0.8519  0.1856
  269MOL0     H35492   4.605   6.778  10.228 -1.5424  1.5471 -0.2066
  269MOL0     H35493   4.598   6.594  10.390  0.4567 -1.6292 -1.6974
  269MOL0     H35494   2.966   6.637  11.292  0.4527 -0.8163  1.1397
  269MOL0     H35495   2.784   6.460  11.366  2.0578  2.2565  1.8790
  269MOL0     H35496   2.398   6.335  11.437 -0.0145 -0.6645  1.8144
  269MOL0     H35497   2.265   6.180  11.543 -0.5706  0.6144 -0.7755
  269MOL0     H35498   2.110   5.967  11.564  1.3376  1.5111  1.3098
  269MOL0     H35499   2.258   5.969  11.671  4.9074  0.4418 -2.8525
  269MOL0     H35500   2.168   5.707  11.537  1.0029  0.6071 -0.2551
  269MOL0     H35501   2.273   5.721  11.678 -0.4989 -0.2124  0.8605
  269MOL0     H35502   2.049   5.841  11.785  1.2910 -0.8045  1.2671
  269MOL0     H35503   2.065   5.661  11.783  1.0979  1.5944  2.3077
  269MOL0     H35504   1.956   5.738  11.536 -3.0910  0.8775 -1.4191
  269MOL0     H35505   1.893   5.641  11.665  0.5409  0.0874  0.0980
  269MOL0     H35506   1.689   6.013  11.712  0.6649  0.6751 -0.3167
  269MOL0     H35507   2.442   5.873  11.277 -2.1203 -1.5659 -0.9501
  269MOL0     H35508   2.587   6.033  11.185  0.0437  0.9053 -0.2637
  270MOL0     O35509   1.088   0.240   8.177  0.7169  0.1285 -0.1695
  270MOL0     C35510   0.973   0.207   8.160  0.2691 -0.6247  0.3618
  270MOL0     O35511   0.917   0.082   8.181  0.2889 -0.2733  0.4959
  270MOL0     C35512   0.984  -0.030   8.203 -0.1499  0.0215  0.9489
  270MOL0     C35513   1.124  -0.047   8.201  0.8762 -0.0221  0.2953
  270MOL0     C35514   1.192  -0.164   8.235 -0.4259 -0.1785 -0.1756
  270MOL0     C35515   1.123  -0.274   8.255  0.2821  0.0781 -0.3958
  270MOL0     O35516   1.186  -0.392   8.277 -0.0026  1.0110  0.0726
  270MOL0     C35517   1.221  -0.432   8.410  0.0783 -0.2628 -0.3192
  270MOL0     C35518   1.341  -0.531   8.424 -0.0576  0.0345  0.2800
  270MOL0     C35519   1.332  -0.661   8.354  0.1816  0.0282 -0.1029
  270MOL0     C35520   1.460  -0.747   8.362 -0.8585  0.7974 -0.4251
  270MOL0     C35521   1.453  -0.844   8.239  0.1297 -0.1898  0.7020
  270MOL0     C35522   1.584  -0.922   8.237  1.4174  0.9503  0.1102
  270MOL0     C35523   1.581  -1.012   8.113 -0.5566 -0.2830 -0.9612
  270MOL0     C35524   1.604  -0.942   7.977  0.3663  0.6991  0.2663
  270MOL0     N35525   1.520  -1.005   7.877  0.6486  0.1904 -0.4949
  270MOL0     C35526   1.550  -1.131   7.818 -0.0381  0.4980  0.1362
  270MOL0     C35527   1.450  -1.152   7.731  0.3462  0.9372 -0.5898
  270MOL0     C35528   1.432  -1.270   7.639 -0.2265 -0.6326  0.2338
  270MOL0     C35529   1.317  -1.352   7.687  0.4551 -0.7794 -0.1879
  270MOL0     C35530   1.224  -1.376   7.570  0.4172 -0.0691  0.4607
  270MOL0     C35531   1.091  -1.446   7.583  0.0261 -0.7040  0.1942
  270MOL0     O35532   1.116  -1.582   7.623 -0.1176  0.4204  0.0737
  270MOL0     C35533   1.001  -1.651   7.667 -0.4762  0.8255  0.3816
  270MOL0     C35534   0.875  -1.604   7.708 -0.6173  0.1359 -0.3713
  270MOL0     C35535   0.782  -1.699   7.756  0.3438  0.1205  0.7247
  270MOL0     C35536   0.803  -1.840   7.758  0.1638  0.2805  0.2667
  270MOL0     C35537   0.702  -1.935   7.806 -0.1225  0.2375  0.5738
  270MOL0     O35538   0.611  -1.889   7.895 -0.0471  0.0333 -0.7018
  270MOL0     C35539   0.481  -1.932   7.902  0.4097  0.2008  0.3907
  270MOL0     C35540   0.434  -1.938   8.032  0.2408  0.2746 -0.1837
  270MOL0     C35541   0.300  -1.960   8.056  0.0960  0.2605  0.3026
  270MOL0     C35542   0.216  -1.990   7.954 -0.2904 -0.0558  0.7074
  270MOL0     O35543   0.090  -2.032   7.969  0.4814 -0.0817 -0.1482
  270MOL0     C35544   0.025  -2.004   8.100 -0.3918 -0.1495 -1.2702
  270MOL0     C35545  -0.116  -2.048   8.111  0.1753  0.3744  0.5790
  270MOL0     C35546  -0.197  -2.009   8.236  0.3854 -0.5030 -0.7645
  270MOL0     C35547  -0.224  -1.858   8.247  0.3032 -0.0054 -0.5589
  270MOL0     C35548  -0.266  -1.823   8.388  0.2326 -0.0967 -0.9489
  270MOL0     C35549  -0.390  -1.883   8.458  0.7729 -1.1250 -0.2393
  270MOL0     C35550  -0.505  -1.875   8.354 -0.1395 -0.1797 -0.3509
  270MOL0     C35551  -0.646  -1.912   8.422 -0.6668 -0.4184 -0.1530
  270MOL0    Cl35552  -0.704  -1.782   8.547  0.3276 -0.0819 -0.5111
  270MOL0     C35553   0.268  -1.974   7.821 -0.6033  0.2942  0.3704
  270MOL0     C35554   0.401  -1.938   7.795 -0.0405 -0.7549  0.4302
  270MOL0     O35555   0.706  -2.053   7.768 -0.2589 -0.3222 -0.5496
  270MOL0     C35556   0.923  -1.888   7.703 -0.3986 -1.0427 -1.1285
  270MOL0     C35557   1.019  -1.793   7.668 -0.7497 -0.2445  0.7370
  270MOL0     N35558   1.366  -1.044   7.739 -0.1911  0.3105 -0.4707
  270MOL0     N35559   1.406  -0.962   7.827  0.2229  0.4330 -0.8179
  270MOL0     C35560   0.990  -0.260   8.261  0.2049 -0.0287  0.1044
  270MOL0     C35561   0.913  -0.147   8.227  0.2965 -0.3616 -0.2236
  270MOL0     C35562   0.891   0.301   8.084  0.5275 -0.4975 -0.3306
  270MOL0     C35563   0.754   0.285   8.079  0.4075 -0.2675 -0.3224
  270MOL0     C35564   0.664   0.367   7.993  0.2167 -0.6787 -0.6177
  270MOL0     C35565   0.724   0.458   7.914 -0.3367 -0.0024 -0.9933
  270MOL0     O35566   0.649   0.525   7.818 -0.3396  0.2187 -1.2245
  270MOL0     C35567   0.671   0.657   7.779 -0.7194 -0.0832  0.6159
  270MOL0     C35568   0.664   0.756   7.891 -0.2104  1.1152 -0.0081
  270MOL0     C35569   0.526   0.759   7.955 -0.2344 -0.1881  0.8438
  270MOL0     C35570   0.501   0.894   8.026  0.2064  1.0127 -0.2580
  270MOL0     C35571   0.473   0.988   7.922  0.1855  0.4421 -0.3764
  270MOL0     C35572   0.441   1.069   7.841 -0.0479 -0.0618 -0.3288
  270MOL0     C35573   0.864   0.481   7.919 -0.1639  0.4842 -0.3527
  270MOL0     C35574   0.949   0.398   8.001  0.1490  0.4014 -0.0124
  270MOL0     H35575   1.194   0.027   8.163 -0.4075  0.6284 -0.8983
  270MOL0     H35576   1.299  -0.183   8.224 -0.5454  0.3434 -2.9203
  270MOL0     H35577   1.131  -0.466   8.461  0.3698  1.3783  1.4100
  270MOL0     H35578   1.259  -0.345   8.465  1.8583 -1.5088  0.4918
  270MOL0     H35579   1.376  -0.543   8.526  2.5593  4.0172  0.0586
  270MOL0     H35580   1.413  -0.474   8.364  1.6154 -0.7898  1.4333
  270MOL0     H35581   1.290  -0.635   8.256 -1.0258 -1.3954 -0.0034
  270MOL0     H35582   1.244  -0.714   8.393 -1.3680  1.2254 -1.7826
  270MOL0     H35583   1.543  -0.678   8.345 -1.0112  1.4089  1.1859
  270MOL0     H35584   1.468  -0.798   8.458 -0.1647  0.6191 -0.5777
  270MOL0     H35585   1.427  -0.789   8.149  1.8896 -3.7742 -2.2432
  270MOL0     H35586   1.364  -0.907   8.253 -1.1537  0.2475 -3.9562
  270MOL0     H35587   1.566  -0.988   8.322  1.1533 -0.3144 -0.8941
  270MOL0     H35588   1.681  -0.873   8.248  2.5810 -1.4581  1.4878
  270MOL0     H35589   1.663  -1.081   8.135  0.8895  1.9424  1.2119
  270MOL0     H35590   1.493  -1.076   8.125 -0.2798 -0.3683  0.9073
  270MOL0     H35591   1.708  -0.958   7.947  0.1120 -3.1345  0.8005
  270MOL0     H35592   1.582  -0.836   7.988  2.2959  1.1811 -0.1588
  270MOL0     H35593   1.633  -1.195   7.848  0.6338  1.2910  0.0144
  270MOL0     H35594   1.518  -1.337   7.647 -1.8327 -3.1432 -1.8662
  270MOL0     H35595   1.423  -1.211   7.547  0.4496 -0.8809  0.0041
  270MOL0     H35596   1.261  -1.304   7.768  0.3969 -0.0474 -0.6493
  270MOL0     H35597   1.352  -1.443   7.737  1.9204  1.3675  3.0876
  270MOL0     H35598   1.197  -1.271   7.553 -0.5843 -0.0021  2.1907
  270MOL0     H35599   1.270  -1.418   7.480 -1.4911 -0.3122 -0.4302
  270MOL0     H35600   1.042  -1.424   7.488  1.1524  6.8767  0.7925
  270MOL0     H35601   1.044  -1.389   7.664  0.3676  1.8802 -1.3127
  270MOL0     H35602   0.838  -1.504   7.687 -2.7995 -0.3118  1.0273
  270MOL0     H35603   0.682  -1.671   7.789 -0.3045 -2.4642  1.2466
  270MOL0     H35604   0.507  -1.920   8.110  0.3955 -3.7093  0.7541
  270MOL0     H35605   0.268  -1.966   8.160  3.6600  0.1260  1.5331
  270MOL0     H35606   0.027  -1.895   8.110 -0.0863 -0.2759  0.2462
  270MOL0     H35607   0.085  -2.058   8.174  1.2957 -0.2693 -2.6499
  270MOL0     H35608  -0.104  -2.155   8.092 -0.0898  0.4950 -0.3002
  270MOL0     H35609  -0.168  -1.997   8.030 -5.7989 -0.9007  3.0677
  270MOL0     H35610  -0.152  -2.054   8.325  1.9535  0.1811 -1.1750
  270MOL0     H35611  -0.293  -2.061   8.229 -0.2600  0.2445  1.5363
  270MOL0     H35612  -0.130  -1.805   8.226  1.9603 -2.0073  1.3701
  270MOL0     H35613  -0.302  -1.829   8.176  0.1011  1.0216  0.0616
  270MOL0     H35614  -0.290  -1.717   8.393 -1.9184 -0.5773  1.2329
  270MOL0     H35615  -0.180  -1.833   8.454  0.2015 -5.7256 -1.2133
  270MOL0     H35616  -0.419  -1.822   8.544  3.8286 -3.3871  2.6650
  270MOL0     H35617  -0.368  -1.980   8.503 -1.6720 -0.0319  3.8176
  270MOL0     H35618  -0.522  -1.780   8.302  1.1749 -0.6648 -1.7332
  270MOL0     H35619  -0.489  -1.948   8.275 -1.0562 -1.8785  0.9672
  270MOL0     H35620  -0.649  -2.013   8.465  0.4039  0.5941  2.5072
  270MOL0     H35621  -0.710  -1.922   8.334  0.1758  0.4612 -0.8855
  270MOL0     H35622   0.200  -1.998   7.739  0.1473  1.8313 -0.7526
  270MOL0     H35623   0.452  -1.925   7.700 -0.9131  3.2202  0.2934
  270MOL0     H35624   0.965  -1.987   7.707  1.5166 -0.2319  1.8799
  270MOL0     H35625   1.121  -1.819   7.643 -2.2238 -3.8886 -2.3995
  270MOL0     H35626   0.947  -0.357   8.284  1.9570 -1.0608 -0.7554
  270MOL0     H35627   0.806  -0.133   8.222  0.1272 -1.3563  0.4061
  270MOL0     H35628   0.719   0.196   8.131 -0.2526 -1.7676 -3.1563
  270MOL0     H35629   0.560   0.338   7.980  0.9550 -2.5086 -3.5817
  270MOL0     H35630   0.607   0.691   7.697  0.7518  0.7277 -0.2394
  270MOL0     H35631   0.769   0.683   7.738 -1.5876 -1.3952 -2.5866
  270MOL0     H35632   0.741   0.747   7.968 -0.9471  2.2796  0.8994
  270MOL0     H35633   0.696   0.852   7.849  1.3115  0.2539 -0.9173
  270MOL0     H35634   0.520   0.682   8.032  2.4247 -1.1539  0.1897
  270MOL0     H35635   0.450   0.740   7.878 -1.9832  0.3805  2.3549
  270MOL0     H35636   0.412   0.881   8.088  1.3961 -4.2664  0.8319
  270MOL0     H35637   0.576   0.925   8.099 -0.6255 -0.3142  1.2326
  270MOL0     H35638   0.407   1.143   7.772 -0.0833 -0.7655 -1.0728
  270MOL0     H35639   0.911   0.553   7.853 -1.2514  0.6883 -0.9132
  270MOL0     H35640   1.053   0.421   8.021  0.7965 -1.8872 -0.5812
  271MOL0     O35641   9.012   0.329   1.340 -0.4417  0.2996  0.3370
  271MOL0     C35642   9.095   0.394   1.288 -0.3061  0.4239  1.0152
  271MOL0     O35643   9.074   0.521   1.243 -0.5561  0.0302  0.3455
  271MOL0     C35644   8.950   0.579   1.256 -0.1572 -0.4306 -0.7384
  271MOL0     C35645   8.825   0.514   1.235 -0.9371  0.1030  0.7508
  271MOL0     C35646   8.705   0.584   1.259  0.0578  0.5908  0.0302
  271MOL0     C35647   8.697   0.725   1.282  0.9357  0.1929  0.0824
  271MOL0     O35648   8.573   0.795   1.281 -0.2389  0.4311  0.0659
  271MOL0     C35649   8.583   0.937   1.274 -0.1907 -0.7986  0.3783
  271MOL0     C35650   8.607   0.961   1.127 -0.6354 -1.0615 -0.0098
  271MOL0     C35651   8.584   1.116   1.104  0.3504  0.4101 -0.5866
  271MOL0     C35652   8.696   1.203   1.168  0.6866 -0.2348  0.1571
  271MOL0     C35653   8.646   1.352   1.186  0.9622  0.6653 -0.4041
  271MOL0     C35654   8.780   1.435   1.197  1.2510 -0.2653  0.8241
  271MOL0     C35655   8.743   1.578   1.237  0.3127 -0.8380  1.1287
  271MOL0     C35656   8.865   1.668   1.211  0.8321  0.1535 -0.0774
  271MOL0     N35657   8.833   1.798   1.267 -0.0101 -0.1965 -0.2521
  271MOL0     C35658   8.775   1.823   1.386  0.2190 -0.3735 -0.0793
  271MOL0     C35659   8.741   1.950   1.384  0.6257 -0.5286  0.3655
  271MOL0     C35660   8.650   1.994   1.490 -0.7183 -0.5901  0.0176
  271MOL0     C35661   8.543   2.079   1.432  0.4664  0.0709 -0.4996
  271MOL0     C35662   8.443   2.126   1.535 -0.0985  0.4295 -0.5411
  271MOL0     C35663   8.497   2.211   1.655  0.1124  0.0462  0.2186
  271MOL0     O35664   8.557   2.339   1.632 -1.0210 -0.2046  0.7522
  271MOL0     C35665   8.509   2.422   1.541  0.2037 -0.1944  0.1835
  271MOL0     C35666   8.376   2.469   1.551 -0.2772  0.9876 -0.4140
  271MOL0     C35667   8.323   2.553   1.458  0.0957 -0.5249 -0.3345
  271MOL0     C35668   8.410   2.593   1.351 -0.1866  0.7946 -0.1624
  271MOL0     C35669   8.342   2.667   1.248 -1.0907 -0.0628 -0.1700
  271MOL0     O35670   8.399   2.661   1.123  0.5617 -0.2114 -0.2081
  271MOL0     C35671   8.352   2.719   1.007 -0.7526  0.5821 -0.1869
  271MOL0     C35672   8.358   2.653   0.880 -0.3427 -0.5122  0.2182
  271MOL0     C35673   8.309   2.702   0.768  1.2763 -1.0580  0.6048
  271MOL0     C35674   8.259   2.836   0.775 -0.2190 -0.3697  0.0479
  271MOL0     O35675   8.196   2.895   0.663  0.2367 -0.1567  0.4268
  271MOL0     C35676   8.200   2.827   0.536  0.1754 -0.9484  1.0285
  271MOL0     C35677   8.126   2.899   0.424 -0.0705  0.0296  0.3765
  271MOL0     C35678   8.141   2.810   0.297  0.6978  0.1471  0.2275
  271MOL0     C35679   8.146   2.892   0.162 -0.5427  0.6320 -0.7035
  271MOL0     C35680   8.259   2.842   0.073  0.0259  0.0138  0.3491
  271MOL0     C35681   8.275   2.901  -0.074  0.4735  0.0782 -0.4397
  271MOL0     C35682   8.170   2.862  -0.183  0.4705 -0.6932  0.4082
  271MOL0     C35683   8.036   2.930  -0.178  0.3623 -0.3208  0.4614
  271MOL0    Cl35684   7.941   2.902  -0.322 -0.5498  0.1978  0.0183
  271MOL0     C35685   8.262   2.911   0.893 -0.1319 -0.7897  0.0673
  271MOL0     C35686   8.311   2.856   1.007  0.4859 -0.5193 -1.5764
  271MOL0     O35687   8.243   2.736   1.279 -0.1429  0.6862  0.1882
  271MOL0     C35688   8.539   2.551   1.330 -0.1061  0.8146  1.3964
  271MOL0     C35689   8.590   2.459   1.431  0.3521  0.4248 -0.0184
  271MOL0     N35690   8.787   2.003   1.263 -0.9581 -0.2558 -0.7787
  271MOL0     N35691   8.857   1.912   1.201 -0.5042  0.3236  0.9893
  271MOL0     C35692   8.822   0.786   1.298 -0.5309  0.3001  0.7698
  271MOL0     C35693   8.943   0.720   1.280 -0.8259  0.0157 -0.0130
  271MOL0     C35694   9.234   0.345   1.307  0.4628 -0.0675 -0.2594
  271MOL0     C35695   9.273   0.260   1.408  0.8647 -0.6054  1.1066
  271MOL0     C35696   9.405   0.216   1.425  0.6266 -0.1950 -0.5007
  271MOL0     C35697   9.505   0.260   1.336  0.7166  0.6066 -0.8860
  271MOL0     O35698   9.635   0.234   1.343  0.5585  0.5673 -0.7101
  271MOL0     C35699   9.696   0.174   1.452  0.6575 -0.7807 -0.2047
  271MOL0     C35700   9.722   0.284   1.553  0.1355  0.0668 -0.0960
  271MOL0     C35701   9.806   0.229   1.672  0.0880 -0.4558 -0.0685
  271MOL0     C35702   9.955   0.255   1.656 -0.1174 -0.5519  0.1922
  271MOL0     C35703   9.974   0.407   1.641 -0.9032  0.2406 -0.0774
  271MOL0     C35704   9.991   0.525   1.621  0.1074  0.8614 -0.6712
  271MOL0     C35705   9.465   0.336   1.227  0.3607  1.0163  0.5873
  271MOL0     C35706   9.333   0.381   1.210  0.0301 -0.0624 -0.4780
  271MOL0     H35707   8.820   0.406   1.229 -1.4029  0.1753 -0.2905
  271MOL0     H35708   8.612   0.529   1.249 -0.6005  2.0669 -3.0511
  271MOL0     H35709   8.652   0.988   1.343 -2.0780  2.4311  0.0700
  271MOL0     H35710   8.487   0.986   1.292 -1.2453 -1.6805 -2.2886
  271MOL0     H35711   8.536   0.901   1.071 -1.6526 -0.8015  0.9586
  271MOL0     H35712   8.709   0.942   1.094 -0.1744  0.0176  0.7220
  271MOL0     H35713   8.484   1.135   1.142  0.8904  1.6777  0.2738
  271MOL0     H35714   8.577   1.122   0.995 -1.4419 -1.5562 -0.6367
  271MOL0     H35715   8.726   1.167   1.267  1.6072 -4.5485 -1.4971
  271MOL0     H35716   8.791   1.193   1.116  0.3689  0.5760 -0.5921
  271MOL0     H35717   8.580   1.356   1.273  1.8245  1.6537  0.2383
  271MOL0     H35718   8.593   1.384   1.096  0.3236 -0.2903 -0.3763
  271MOL0     H35719   8.831   1.435   1.100  1.2971 -1.9423  0.8281
  271MOL0     H35720   8.849   1.401   1.275  1.7245 -2.0827 -0.3390
  271MOL0     H35721   8.662   1.615   1.172  1.6821 -0.2075 -0.2904
  271MOL0     H35722   8.703   1.571   1.338  0.4133 -0.5720  1.1895
  271MOL0     H35723   8.889   1.685   1.106 -0.2571  4.6883  0.1822
  271MOL0     H35724   8.949   1.633   1.271 -2.5882 -1.6864  4.2038
  271MOL0     H35725   8.751   1.757   1.468 -1.4122 -1.1053 -1.1023
  271MOL0     H35726   8.713   2.061   1.550 -2.0469  0.2907  0.4697
  271MOL0     H35727   8.608   1.917   1.555  1.9632 -2.6952 -0.5649
  271MOL0     H35728   8.497   2.023   1.349  1.0523 -2.1380  0.6050
  271MOL0     H35729   8.586   2.172   1.392 -1.5081  1.0601 -0.4716
  271MOL0     H35730   8.366   2.182   1.481 -0.2257  0.1075 -0.6942
  271MOL0     H35731   8.383   2.042   1.572  0.0489  2.0979  4.0908
  271MOL0     H35732   8.569   2.148   1.709  1.1691  1.4350  0.4845
  271MOL0     H35733   8.410   2.229   1.719  0.6245 -0.9365  1.2187
  271MOL0     H35734   8.330   2.453   1.648  1.3327  3.1720  0.7926
  271MOL0     H35735   8.218   2.578   1.450  0.0598 -0.3602  0.5238
  271MOL0     H35736   8.383   2.548   0.873  1.5565 -0.1057  0.4077
  271MOL0     H35737   8.297   2.643   0.678 -0.8957 -0.7555  0.6543
  271MOL0     H35738   8.164   2.724   0.543 -0.7870 -0.5869  1.5901
  271MOL0     H35739   8.309   2.823   0.527  0.1558  0.2265  0.1603
  271MOL0     H35740   8.181   2.994   0.413  0.1470 -0.3291 -2.2694
  271MOL0     H35741   8.022   2.914   0.454 -0.4988  1.4485 -1.6562
  271MOL0     H35742   8.066   2.732   0.285  3.6444 -2.9570  0.2553
  271MOL0     H35743   8.236   2.755   0.296  0.5674 -0.1236 -1.6298
  271MOL0     H35744   8.048   2.886   0.113 -0.4181 -1.5005 -0.7824
  271MOL0     H35745   8.169   2.996   0.187  1.2583  0.0989  0.0048
  271MOL0     H35746   8.253   2.733   0.063 -1.3476  0.0767  0.3411
  271MOL0     H35747   8.353   2.872   0.120  1.7727 -1.5554 -1.8801
  271MOL0     H35748   8.375   2.887  -0.116  0.2759  2.8336 -2.0898
  271MOL0     H35749   8.273   3.010  -0.070 -1.5064  0.0830 -0.6677
  271MOL0     H35750   8.218   2.869  -0.282 -1.1671 -3.3729 -0.6965
  271MOL0     H35751   8.160   2.754  -0.169 -3.6342 -0.4999 -0.0093
  271MOL0     H35752   8.029   3.039  -0.168 -1.7649 -0.4322  0.6332
  271MOL0     H35753   7.981   2.880  -0.098  2.6584 -0.4286  2.0873
  271MOL0     H35754   8.219   3.010   0.898  0.3576 -0.6228  2.1373
  271MOL0     H35755   8.296   2.912   1.099  1.1265  0.1139 -1.8480
  271MOL0     H35756   8.592   2.573   1.238 -1.7733  3.3699  0.9433
  271MOL0     H35757   8.686   2.408   1.428 -0.2714 -1.3588  4.1737
  271MOL0     H35758   8.836   0.893   1.305  1.0886  0.0131  2.9928
  271MOL0     H35759   9.029   0.786   1.282 -0.8819  0.2090 -1.9278
  271MOL0     H35760   9.206   0.218   1.482  2.2301 -2.7679  1.2157
  271MOL0     H35761   9.423   0.154   1.512 -2.3981  1.4382  1.4573
  271MOL0     H35762   9.788   0.130   1.414  0.9288  0.0352 -0.5195
  271MOL0     H35763   9.626   0.095   1.480 -3.9960  1.9617 -2.8977
  271MOL0     H35764   9.767   0.372   1.506  1.5362  0.3802  1.7003
  271MOL0     H35765   9.626   0.310   1.599  0.3118  0.0395  0.2918
  271MOL0     H35766   9.798   0.120   1.680 -2.3032 -0.2630  1.0969
  271MOL0     H35767   9.767   0.281   1.760 -2.3160 -2.1658  0.0040
  271MOL0     H35768  10.008   0.215   1.743 -0.6250 -2.1475 -0.1960
  271MOL0     H35769   9.985   0.209   1.561 -0.9594  0.0540 -0.3783
  271MOL0     H35770  10.028   0.624   1.603 -2.1459  1.6111 -1.5118
  271MOL0     H35771   9.555   0.369   1.176  1.9730 -0.7608  2.0934
  271MOL0     H35772   9.308   0.450   1.130 -2.5369 -2.4785 -1.9335
  272MOL0     O35773  11.338   0.764   1.211 -0.3855 -0.1212 -0.3936
  272MOL0     C35774  11.349   0.657   1.166 -0.6083  0.9301 -0.3088
  272MOL0     O35775  11.248   0.584   1.100 -0.4118  0.1711  0.0641
  272MOL0     C35776  11.144   0.654   1.045 -0.3377  0.2073 -0.3192
  272MOL0     C35777  11.160   0.767   0.960  0.2957 -0.7837  0.5496
  272MOL0     C35778  11.051   0.842   0.919  0.2337  0.9420  1.0211
  272MOL0     C35779  10.922   0.801   0.950  0.4113  0.3832 -1.2395
  272MOL0     O35780  10.798   0.874   0.927 -0.0961  0.3005 -0.7024
  272MOL0     C35781  10.791   0.995   0.845 -0.4228  1.4107  0.5844
  272MOL0     C35782  10.805   0.944   0.698 -1.3061 -0.6873 -0.2952
  272MOL0     C35783  10.723   1.032   0.600 -0.3728  0.6449 -0.6327
  272MOL0     C35784  10.741   0.992   0.453 -0.3479 -0.3015 -0.7513
  272MOL0     C35785  10.664   1.078   0.353 -0.4160 -0.5907  0.4835
  272MOL0     C35786  10.622   1.005   0.226  0.3002  0.5103  0.4152
  272MOL0     C35787  10.556   1.088   0.113 -0.5961  0.3635 -0.0276
  272MOL0     C35788  10.510   1.001  -0.006 -0.3995 -0.0537  0.7407
  272MOL0     N35789  10.603   0.907  -0.067 -0.2821 -0.1372  0.6833
  272MOL0     C35790  10.655   0.797  -0.007  0.3089  1.1397  0.8888
  272MOL0     C35791  10.735   0.743  -0.108  0.2904  1.0781 -0.1026
  272MOL0     C35792  10.824   0.616  -0.097  1.0243 -0.5959  0.2223
  272MOL0     C35793  10.789   0.522  -0.214 -0.8413 -0.4036 -0.0366
  272MOL0     C35794  10.914   0.496  -0.305  0.7073  1.0992 -0.2525
  272MOL0     C35795  10.872   0.409  -0.426  0.6570 -0.8733 -0.6604
  272MOL0     O35796  10.795   0.288  -0.407 -0.1417 -0.9747 -0.1978
  272MOL0     C35797  10.841   0.164  -0.442 -0.5544 -0.2375 -0.4033
  272MOL0     C35798  10.737   0.089  -0.484 -0.2373  0.4907  0.4596
  272MOL0     C35799  10.762  -0.043  -0.521 -0.9096  0.8263 -0.1246
  272MOL0     C35800  10.894  -0.099  -0.503 -0.0575 -0.1235  0.7949
  272MOL0     C35801  10.921  -0.240  -0.545  1.0776  0.9716  0.1468
  272MOL0     O35802  10.809  -0.315  -0.598 -0.4346 -0.8065 -1.0048
  272MOL0     C35803  10.839  -0.436  -0.649  0.1572 -0.3396 -0.8257
  272MOL0     C35804  10.896  -0.448  -0.774 -0.1390 -0.5564  0.8323
  272MOL0     C35805  10.920  -0.575  -0.842  0.7792  0.7527  0.3370
  272MOL0     C35806  10.869  -0.690  -0.776  0.3250  0.6885 -0.6518
  272MOL0     O35807  10.894  -0.812  -0.836 -1.0055 -0.1837  0.5647
  272MOL0     C35808  10.845  -0.934  -0.779 -0.3561  0.1484 -0.1670
  272MOL0     C35809  10.840  -1.049  -0.880 -0.1359  0.5329  0.3839
  272MOL0     C35810  10.989  -1.097  -0.922  0.4399 -1.1156  0.0349
  272MOL0     C35811  10.970  -1.207  -1.031 -1.5442 -0.1370 -0.8260
  272MOL0     C35812  11.098  -1.279  -1.056 -0.1691  0.7938 -0.0309
  272MOL0     C35813  11.198  -1.191  -1.136  0.7948  0.2859  0.6762
  272MOL0     C35814  11.325  -1.278  -1.148 -0.1180  0.2476 -0.2833
  272MOL0     C35815  11.423  -1.209  -1.231  0.2194  0.1227  0.0843
  272MOL0    Cl35816  11.490  -1.062  -1.149  0.1169 -0.0044 -0.2269
  272MOL0     C35817  10.791  -0.669  -0.666 -0.3779  0.4725 -0.1519
  272MOL0     C35818  10.779  -0.550  -0.603  0.6795  0.8619 -0.3516
  272MOL0     O35819  11.040  -0.281  -0.544  0.4857 -0.2969  0.5468
  272MOL0     C35820  10.999  -0.025  -0.464 -0.3116 -0.3389 -0.2036
  272MOL0     C35821  10.977   0.113  -0.428  0.6265 -0.5376 -0.0217
  272MOL0     N35822  10.724   0.818  -0.222  0.7787  0.1678 -0.6969
  272MOL0     N35823  10.652   0.915  -0.193 -0.2138 -0.8573 -0.3340
  272MOL0     C35824  10.908   0.690   1.036  0.0231 -0.5537 -1.0424
  272MOL0     C35825  11.015   0.621   1.084  0.6250  0.2171  1.2462
  272MOL0     C35826  11.484   0.595   1.181  0.6618 -0.1898  0.2532
  272MOL0     C35827  11.587   0.687   1.224  1.1365  0.1217 -0.0136
  272MOL0     C35828  11.710   0.631   1.254  0.3703 -0.4648  0.2749
  272MOL0     C35829  11.739   0.493   1.220  0.9984  0.2005 -0.1089
  272MOL0     O35830  11.851   0.426   1.244 -0.2617 -0.6921  0.3340
  272MOL0     C35831  11.947   0.472   1.340  0.8740 -0.2286 -0.4500
  272MOL0     C35832  11.907   0.434   1.477  0.0612 -0.1091  0.4574
  272MOL0     C35833  11.946   0.523   1.591  0.4787  0.3215 -0.3605
  272MOL0     C35834  12.083   0.481   1.658  0.1698  0.1552  1.0012
  272MOL0     C35835  12.139   0.597   1.738 -1.3244  0.3330  0.4389
  272MOL0     C35836  12.192   0.670   1.820  0.2974 -0.3530 -0.9302
  272MOL0     C35837  11.631   0.411   1.169  0.2592 -0.2520  0.4994
  272MOL0     C35838  11.507   0.463   1.152  0.9296  0.9675 -0.3560
  272MOL0     H35839  11.257   0.814   0.942 -0.6152  1.1568  0.3771
  272MOL0     H35840  11.073   0.941   0.881  2.8937  0.2840  0.6348
  272MOL0     H35841  10.871   1.064   0.875 -0.2451  1.9014 -0.9437
  272MOL0     H35842  10.692   1.041   0.855 -1.0787  0.8580 -2.3764
  272MOL0     H35843  10.786   0.838   0.682  1.4938 -1.5563  1.4319
  272MOL0     H35844  10.911   0.950   0.670 -0.9630 -1.3646  0.8145
  272MOL0     H35845  10.769   1.131   0.601  1.6072 -0.2007 -1.4120
  272MOL0     H35846  10.618   1.015   0.624 -0.2316  0.4717 -0.1257
  272MOL0     H35847  10.840   1.012   0.412  0.5301  0.3604  1.6037
  272MOL0     H35848  10.709   0.888   0.438 -2.2207  0.2029 -0.5190
  272MOL0     H35849  10.717   1.170   0.326 -1.7774  0.2017  0.4138
  272MOL0     H35850  10.566   1.109   0.391 -0.5180  1.0028 -0.9487
  272MOL0     H35851  10.558   0.919   0.251  1.2777  0.0901  1.5698
  272MOL0     H35852  10.716   0.966   0.188  0.5954  1.2665  0.3710
  272MOL0     H35853  10.463   1.133   0.149  0.6567  2.1185  1.1962
  272MOL0     H35854  10.625   1.166   0.080  1.1581 -0.1753  2.1017
  272MOL0     H35855  10.473   1.087  -0.063  0.3894  1.1498  1.9678
  272MOL0     H35856  10.422   0.945   0.026 -0.0943 -2.1531 -1.7554
  272MOL0     H35857  10.625   0.745   0.084  2.4521 -2.3086 -0.1615
  272MOL0     H35858  10.807   0.550  -0.011  2.1036 -0.9173  0.2091
  272MOL0     H35859  10.924   0.659  -0.107 -0.8974  5.0803  2.0138
  272MOL0     H35860  10.704   0.544  -0.279 -1.0644 -0.5226  0.2109
  272MOL0     H35861  10.771   0.427  -0.162 -0.9278  0.1884  1.0665
  272MOL0     H35862  10.945   0.592  -0.345 -2.7069  2.2671 -0.3917
  272MOL0     H35863  10.999   0.454  -0.250 -0.2380  0.6239  0.8988
  272MOL0     H35864  10.961   0.380  -0.483  1.5057  2.5425 -1.3051
  272MOL0     H35865  10.801   0.468  -0.485 -0.0920 -0.9978  0.0969
  272MOL0     H35866  10.636   0.129  -0.491 -1.1586 -1.9997 -2.3667
  272MOL0     H35867  10.682  -0.109  -0.552 -0.8188  0.0115  1.2677
  272MOL0     H35868  10.934  -0.361  -0.827 -0.6128 -2.1412 -2.3346
  272MOL0     H35869  10.987  -0.589  -0.925 -1.1937  0.0606 -1.2116
  272MOL0     H35870  10.739  -0.933  -0.754  0.1900 -0.3953  2.5035
  272MOL0     H35871  10.902  -0.970  -0.693 -1.1936  0.3726  0.4934
  272MOL0     H35872  10.777  -1.033  -0.968 -0.8654  0.5596  0.9042
  272MOL0     H35873  10.784  -1.130  -0.832  1.6891 -1.3370 -0.5055
  272MOL0     H35874  11.039  -1.122  -0.828  0.8019  2.7637  1.0423
  272MOL0     H35875  11.038  -1.012  -0.970 -1.5969 -0.4302 -0.9852
  272MOL0     H35876  10.895  -1.277  -0.994 -1.2837 -1.3322 -2.4338
  272MOL0     H35877  10.933  -1.168  -1.127 -0.7948  0.5665 -0.8432
  272MOL0     H35878  11.082  -1.368  -1.118 -0.8787  1.4654 -0.8365
  272MOL0     H35879  11.140  -1.302  -0.958  2.5686  0.5771 -1.1564
  272MOL0     H35880  11.219  -1.095  -1.088 -0.5185  1.8589 -1.6978
  272MOL0     H35881  11.156  -1.173  -1.235  0.7469  0.4369  0.7248
  272MOL0     H35882  11.356  -1.320  -1.053 -1.7400 -2.1218 -0.7075
  272MOL0     H35883  11.298  -1.361  -1.214 -0.6874  1.7473 -2.0434
  272MOL0     H35884  11.368  -1.176  -1.320 -2.5869  1.4738  2.1276
  272MOL0     H35885  11.506  -1.276  -1.254 -1.7261 -1.5900 -2.5752
  272MOL0     H35886  10.746  -0.761  -0.629  0.2200 -0.9999 -2.8380
  272MOL0     H35887  10.728  -0.534  -0.508  3.1751  1.2306  0.9928
  272MOL0     H35888  11.094  -0.076  -0.458  0.1500  0.0409 -2.7903
  272MOL0     H35889  11.054   0.173  -0.382  1.1988 -0.3143 -1.2310
  272MOL0     H35890  10.813   0.655   1.075  0.6484 -2.7469 -1.3912
  272MOL0     H35891  10.989   0.545   1.158  0.9302 -2.1609 -0.9215
  272MOL0     H35892  11.580   0.795   1.230  0.2816  0.0399  0.6352
  272MOL0     H35893  11.791   0.695   1.289 -0.4409  2.2703 -2.3996
  272MOL0     H35894  11.962   0.580   1.328 -0.6788  0.2986  1.8362
  272MOL0     H35895  12.041   0.421   1.318 -0.1294 -1.7701 -1.3200
  272MOL0     H35896  11.798   0.427   1.482  0.0953 -2.2990 -0.5039
  272MOL0     H35897  11.940   0.330   1.491  1.2630  0.4412  1.9498
  272MOL0     H35898  11.869   0.515   1.668  0.8312  0.3292 -0.0000
  272MOL0     H35899  11.943   0.627   1.556 -1.6136 -0.7180 -3.8293
  272MOL0     H35900  12.063   0.401   1.730  0.4779  1.2025  2.3031
  272MOL0     H35901  12.160   0.458   1.584  0.3388  0.2335  1.1495
  272MOL0     H35902  12.239   0.719   1.904  0.2478 -2.1134  0.1736
  272MOL0     H35903  11.651   0.307   1.147  0.4313 -0.1676  0.2589
  272MOL0     H35904  11.427   0.398   1.118  1.8090 -1.2312  1.5542
  273MOL0     O35905  10.846   2.772   4.267  0.6333  0.1106 -0.1725
  273MOL0     C35906  10.919   2.758   4.359  1.0188  0.3732  0.0986
  273MOL0     O35907  10.901   2.824   4.478 -0.2423  0.5036 -0.2196
  273MOL0     C35908  10.852   2.955   4.489  0.1001  0.0055  0.3306
  273MOL0     C35909  10.845   3.008   4.618 -0.0847  0.1108  0.1690
  273MOL0     C35910  10.801   3.137   4.642 -0.0371  0.0215 -0.1841
  273MOL0     C35911  10.757   3.222   4.542 -0.4867 -0.2506  1.0726
  273MOL0     O35912  10.714   3.349   4.568  0.4362  0.0287  1.0506
  273MOL0     C35913  10.788   3.429   4.659  0.2959 -0.1449 -0.4813
  273MOL0     C35914  10.795   3.569   4.604  0.1521  0.0600 -0.5336
  273MOL0     C35915  10.891   3.645   4.688  0.5969 -0.6295 -0.5199
  273MOL0     C35916  10.844   3.686   4.832 -1.3812  0.0413 -0.5770
  273MOL0     C35917  10.730   3.790   4.837 -0.5966 -0.1431 -0.4470
  273MOL0     C35918  10.723   3.877   4.970  0.6103  0.2651  0.5398
  273MOL0     C35919  10.853   3.963   4.983 -0.9254 -1.2516  0.0312
  273MOL0     C35920  10.906   4.028   4.852  0.1861  0.9366  0.5752
  273MOL0     N35921  11.008   4.127   4.871  0.4219  0.6485 -0.2103
  273MOL0     C35922  11.142   4.103   4.889  0.0732 -0.4745 -0.4351
  273MOL0     C35923  11.200   4.220   4.869  1.2382 -0.3100 -0.2707
  273MOL0     C35924  11.348   4.229   4.875  0.4155  0.4988  0.0816
  273MOL0     C35925  11.420   4.122   4.802 -0.4395  0.7554 -0.4666
  273MOL0     C35926  11.561   4.163   4.813  0.0937  0.7805 -0.2097
  273MOL0     C35927  11.667   4.069   4.751 -0.2408 -0.2415 -0.2237
  273MOL0     O35928  11.657   4.072   4.611 -0.3015  0.0579 -0.0920
  273MOL0     C35929  11.689   4.190   4.549  0.8929  0.6940 -0.1464
  273MOL0     C35930  11.628   4.206   4.428 -0.9426 -0.0731  0.4277
  273MOL0     C35931  11.658   4.324   4.354 -0.6513  0.0840  0.2037
  273MOL0     C35932  11.747   4.425   4.405  0.8554  0.4084  0.4023
  273MOL0     C35933  11.785   4.543   4.327 -0.6269  0.4312  0.3104
  273MOL0     O35934  11.877   4.627   4.391 -0.6617  0.6980  0.4445
  273MOL0     C35935  11.919   4.749   4.345  0.8785  0.0249 -1.2516
  273MOL0     C35936  12.060   4.784   4.359  0.1842  0.1261 -0.0499
  273MOL0     C35937  12.094   4.919   4.352  0.3382 -0.1732 -1.2807
  273MOL0     C35938  12.005   5.018   4.320  0.0377 -0.1429  0.6472
  273MOL0     O35939  12.048   5.141   4.334 -0.3934 -0.0888  0.6575
  273MOL0     C35940  11.954   5.255   4.335  0.4303  0.0005  1.2256
  273MOL0     C35941  12.036   5.383   4.364  0.3896  1.2111  0.9565
  273MOL0     C35942  12.101   5.378   4.497  0.0566  1.2636 -0.3432
  273MOL0     C35943  12.205   5.492   4.503 -0.3056 -0.0747  0.0022
  273MOL0     C35944  12.336   5.453   4.427 -0.0287 -0.5080  1.1599
  273MOL0     C35945  12.442   5.557   4.481 -0.4776  0.2845 -1.2199
  273MOL0     C35946  12.538   5.582   4.365 -0.3338 -0.2940  0.4330
  273MOL0     C35947  12.659   5.660   4.412 -0.4337 -0.3755 -0.8427
  273MOL0    Cl35948  12.781   5.547   4.483 -0.4172 -0.2182 -0.0385
  273MOL0     C35949  11.870   4.982   4.285  0.2758  0.1522 -0.7194
  273MOL0     C35950  11.830   4.851   4.313 -0.2260  0.8261  0.9719
  273MOL0     O35951  11.748   4.560   4.214 -0.6610  0.0311  0.2529
  273MOL0     C35952  11.797   4.408   4.530 -1.1224 -0.4556 -0.1476
  273MOL0     C35953  11.762   4.298   4.610 -0.6779 -0.2640  0.2987
  273MOL0     N35954  11.100   4.323   4.853  0.1760  1.1032 -0.8033
  273MOL0     N35955  10.981   4.260   4.860 -0.7390 -0.4205 -0.6861
  273MOL0     C35956  10.767   3.177   4.403 -0.1386 -0.4663 -0.3858
  273MOL0     C35957  10.808   3.041   4.385  0.3818 -0.6615  0.0119
  273MOL0     C35958  11.021   2.658   4.350 -0.1601  0.7878  0.4694
  273MOL0     C35959  11.097   2.616   4.462  0.7402 -0.4878  0.5666
  273MOL0     C35960  11.202   2.521   4.455  0.0746  0.0106 -0.7209
  273MOL0     C35961  11.218   2.451   4.328 -0.2708  0.3605 -0.1994
  273MOL0     O35962  11.294   2.344   4.334 -0.2509 -0.1913 -0.1878
  273MOL0     C35963  11.383   2.324   4.229 -0.2215  0.4506 -0.0038
  273MOL0     C35964  11.384   2.178   4.184 -0.8231 -0.1883 -0.3572
  273MOL0     C35965  11.426   2.076   4.295 -0.9229 -0.8829  0.1909
  273MOL0     C35966  11.457   1.940   4.229 -0.6595  0.1392  0.2671
  273MOL0     C35967  11.508   1.848   4.325 -1.1292  0.5078 -0.4244
  273MOL0     C35968  11.549   1.799   4.426  0.4979 -0.5074 -0.0139
  273MOL0     C35969  11.141   2.498   4.214  0.0220 -1.5149  0.4053
  273MOL0     C35970  11.048   2.599   4.225 -1.1800 -0.1839 -0.2701
  273MOL0     H35971  10.876   2.941   4.697 -1.0875 -2.5386 -1.5634
  273MOL0     H35972  10.804   3.173   4.745 -0.6206  1.1664 -0.5524
  273MOL0     H35973  10.889   3.391   4.675  0.5768  0.5684 -0.5364
  273MOL0     H35974  10.727   3.438   4.749  2.1816  4.2504  0.5953
  273MOL0     H35975  10.695   3.614   4.606 -0.6354 -1.6303  1.6460
  273MOL0     H35976  10.835   3.571   4.502 -0.0422 -2.1083 -0.6994
  273MOL0     H35977  10.911   3.742   4.641  3.7264 -1.5611 -1.3394
  273MOL0     H35978  10.983   3.589   4.705  1.7057  1.7551  2.0690
  273MOL0     H35979  10.816   3.593   4.882  1.0168 -2.7411 -3.8683
  273MOL0     H35980  10.935   3.723   4.880 -0.1277 -0.2933 -2.5559
  273MOL0     H35981  10.635   3.738   4.823 -1.2046  0.3402  1.4909
  273MOL0     H35982  10.739   3.850   4.746  3.3784 -2.0442 -1.5269
  273MOL0     H35983  10.722   3.811   5.057 -0.7858 -0.6005 -0.1003
  273MOL0     H35984  10.632   3.938   4.966  0.6946  0.4442 -3.5144
  273MOL0     H35985  10.829   4.051   5.044 -0.7199  0.2877 -2.0051
  273MOL0     H35986  10.928   3.902   5.033  0.9678  1.6047  0.9728
  273MOL0     H35987  10.820   4.069   4.799  0.5808  2.8172  1.2942
  273MOL0     H35988  10.937   3.952   4.780 -3.3269  2.9689 -3.5095
  273MOL0     H35989  11.197   4.011   4.908  0.0418 -0.2878  0.5839
  273MOL0     H35990  11.372   4.237   4.981  0.3672  1.5954  0.0275
  273MOL0     H35991  11.370   4.328   4.834 -0.9395  0.8543  0.1568
  273MOL0     H35992  11.376   4.111   4.702 -0.3010 -0.4209 -0.4130
  273MOL0     H35993  11.403   4.028   4.855 -1.7235 -0.2064 -2.4629
  273MOL0     H35994  11.577   4.267   4.783  0.3031  0.9594  0.5187
  273MOL0     H35995  11.580   4.153   4.920 -0.3753  1.9894  0.0040
  273MOL0     H35996  11.652   3.967   4.787 -0.7273  0.1620  0.7603
  273MOL0     H35997  11.766   4.106   4.779 -0.3413  0.9861 -1.3500
  273MOL0     H35998  11.566   4.129   4.383  1.2205 -2.2705  0.9385
  273MOL0     H35999  11.617   4.341   4.256 -3.9472 -0.0021  1.4588
  273MOL0     H36000  12.123   4.699   4.383  0.9901 -0.6051 -4.0662
  273MOL0     H36001  12.199   4.944   4.358  0.2891  0.6341 -3.1579
  273MOL0     H36002  11.884   5.236   4.417  1.1036 -1.6001  1.4635
  273MOL0     H36003  11.910   5.264   4.235  4.5958  2.5254 -0.6539
  273MOL0     H36004  11.966   5.467   4.365  1.1220  1.8237  1.1771
  273MOL0     H36005  12.117   5.392   4.291 -0.7219  1.7797 -0.2709
  273MOL0     H36006  12.150   5.282   4.515  0.6176  1.6619  0.3090
  273MOL0     H36007  12.021   5.384   4.572 -1.3322  0.5939 -1.7205
  273MOL0     H36008  12.155   5.584   4.473 -3.6614 -1.0117  2.1633
  273MOL0     H36009  12.224   5.508   4.610  1.4459  1.4920 -0.4860
  273MOL0     H36010  12.306   5.474   4.324 -0.7028 -1.4522  1.1512
  273MOL0     H36011  12.365   5.348   4.436 -0.0962 -0.4462  2.3223
  273MOL0     H36012  12.488   5.520   4.573 -0.1239 -1.9377 -2.2233
  273MOL0     H36013  12.394   5.653   4.498 -1.0768  0.3555 -3.0827
  273MOL0     H36014  12.583   5.497   4.312  2.5264  0.2085  1.8613
  273MOL0     H36015  12.485   5.633   4.284 -0.0956  1.6880  1.4716
  273MOL0     H36016  12.641   5.731   4.493  3.0948  0.4877 -0.6916
  273MOL0     H36017  12.703   5.721   4.333 -0.0703 -2.1649 -2.0924
  273MOL0     H36018  11.789   5.043   4.249 -1.0755 -2.1051 -1.7369
  273MOL0     H36019  11.724   4.842   4.293  0.0828  2.5146 -2.0337
  273MOL0     H36020  11.871   4.477   4.566 -1.5776 -0.9774  1.9067
  273MOL0     H36021  11.816   4.279   4.702  2.5570 -0.2373 -1.4669
  273MOL0     H36022  10.739   3.249   4.327  1.5238  0.5852 -0.0527
  273MOL0     H36023  10.804   3.018   4.279 -0.0557 -1.1840  0.1384
  273MOL0     H36024  11.072   2.648   4.563 -1.7430 -2.2152  0.5833
  273MOL0     H36025  11.259   2.494   4.543 -0.9010  2.7370  0.9081
  273MOL0     H36026  11.487   2.357   4.232  0.3515 -1.2477 -0.4130
  273MOL0     H36027  11.353   2.388   4.145  3.6264  2.3489 -0.1672
  273MOL0     H36028  11.289   2.147   4.141  0.4082 -1.5663 -2.2463
  273MOL0     H36029  11.449   2.179   4.096 -1.3839  0.7635 -0.7774
  273MOL0     H36030  11.343   2.063   4.366 -0.4165  1.7849  1.3966
  273MOL0     H36031  11.517   2.095   4.352 -1.7526 -4.6085  3.1957
  273MOL0     H36032  11.370   1.908   4.171  0.2587  2.2410 -2.5335
  273MOL0     H36033  11.540   1.961   4.160  0.6451 -0.7053  1.5254
  273MOL0     H36034  11.572   1.744   4.515 -1.8394 -3.0166 -0.8004
  273MOL0     H36035  11.146   2.438   4.125  1.4088 -4.8555  2.5522
  273MOL0     H36036  10.988   2.621   4.137 -2.4103  0.6022  0.7224
  274MOL0     O36037   8.224   1.327   4.990  0.6429 -0.1364 -0.2081
  274MOL0     C36038   8.152   1.322   4.887 -0.2742 -0.2150  0.2312
  274MOL0     O36039   8.025   1.259   4.884  0.2254 -0.0407  0.2614
  274MOL0     C36040   7.940   1.221   4.993  0.1064 -0.5387  0.0359
  274MOL0     C36041   7.961   1.256   5.127  0.5771 -0.4222  0.0628
  274MOL0     C36042   7.862   1.234   5.226 -0.6376 -0.4187  0.1473
  274MOL0     C36043   7.740   1.199   5.185 -0.0017  0.6424 -0.2294
  274MOL0     O36044   7.641   1.188   5.279  0.3189  0.6147  0.3187
  274MOL0     C36045   7.512   1.130   5.251  0.8204  0.1105  0.7718
  274MOL0     C36046   7.421   1.142   5.378 -0.6032 -0.2117  0.2712
  274MOL0     C36047   7.286   1.084   5.352  0.5469  0.1204 -0.0889
  274MOL0     C36048   7.216   1.066   5.494 -0.1256  0.5912 -0.2642
  274MOL0     C36049   7.087   1.161   5.511 -0.2980  0.2360 -0.4334
  274MOL0     C36050   6.991   1.146   5.388  0.3869  0.2104 -0.6519
  274MOL0     C36051   6.850   1.178   5.430  0.6576 -0.0104  0.5200
  274MOL0     C36052   6.747   1.118   5.333 -0.1943  0.1742  0.8441
  274MOL0     N36053   6.787   1.121   5.188  0.4537 -0.0870 -0.3057
  274MOL0     C36054   6.816   1.234   5.120  0.2894  0.6929 -0.2095
  274MOL0     C36055   6.825   1.203   4.989 -0.2729  0.2356 -0.5895
  274MOL0     C36056   6.840   1.282   4.862  1.0582 -0.6153 -0.0498
  274MOL0     C36057   6.975   1.267   4.780  0.3903  0.2319  0.0125
  274MOL0     C36058   6.996   1.123   4.733 -0.4652  0.3364  0.5463
  274MOL0     C36059   7.114   1.132   4.639 -0.4145  0.6309  0.6803
  274MOL0     O36060   7.239   1.156   4.710 -0.9762 -0.3900  0.1124
  274MOL0     C36061   7.349   1.200   4.637  0.1026  0.9217 -0.2861
  274MOL0     C36062   7.452   1.250   4.715 -0.5757  0.5217  0.0997
  274MOL0     C36063   7.579   1.282   4.654 -0.2960 -0.3513 -0.0381
  274MOL0     C36064   7.591   1.260   4.510  0.4243  0.0302  0.0003
  274MOL0     C36065   7.718   1.295   4.447  0.5807 -0.7559 -0.3727
  274MOL0     O36066   7.714   1.301   4.310  0.1649 -0.5799  1.0639
  274MOL0     C36067   7.836   1.326   4.252  0.6828 -0.1526  0.5978
  274MOL0     C36068   7.899   1.232   4.171  0.1557  0.3094 -0.6084
  274MOL0     C36069   8.010   1.276   4.103 -0.5159  0.2427  0.1145
  274MOL0     C36070   8.072   1.403   4.120  0.8695  0.5433 -0.3026
  274MOL0     O36071   8.187   1.438   4.056  0.0995 -0.3760  0.8325
  274MOL0     C36072   8.298   1.370   4.106 -0.1364 -0.2000  0.2898
  274MOL0     C36073   8.419   1.421   4.022 -0.5469 -0.4049  0.6672
  274MOL0     C36074   8.550   1.351   4.038 -0.5299 -1.1086 -0.4052
  274MOL0     C36075   8.603   1.324   4.183 -0.1873 -0.0153 -0.4107
  274MOL0     C36076   8.533   1.192   4.245 -0.2126 -0.6799  0.6207
  274MOL0     C36077   8.598   1.132   4.370 -0.7415 -0.4521 -0.8172
  274MOL0     C36078   8.531   1.175   4.511 -0.1892  0.2627 -0.1696
  274MOL0     C36079   8.529   1.324   4.527  0.2826 -0.1434  0.8116
  274MOL0    Cl36080   8.688   1.391   4.514  0.2783 -0.3919  0.3693
  274MOL0     C36081   8.003   1.491   4.198 -0.5357 -0.6164  0.5027
  274MOL0     C36082   7.882   1.454   4.251 -0.1788 -0.6499  0.9209
  274MOL0     O36083   7.815   1.315   4.516  0.3942  0.2281  0.3164
  274MOL0     C36084   7.487   1.204   4.436  0.3673  1.2787 -0.0650
  274MOL0     C36085   7.371   1.168   4.499  0.8091  0.0369 -0.3258
  274MOL0     N36086   6.792   1.074   4.971  0.1672 -0.2518  0.2393
  274MOL0     N36087   6.773   1.024   5.085  0.0925  0.1234 -0.0033
  274MOL0     C36088   7.714   1.155   5.048  0.2569  0.6322  1.0334
  274MOL0     C36089   7.818   1.161   4.955  0.2585 -0.7461 -0.2975
  274MOL0     C36090   8.189   1.406   4.763  0.7103  0.2720  0.2945
  274MOL0     C36091   8.294   1.496   4.768  0.4060  0.7020 -0.3992
  274MOL0     C36092   8.338   1.562   4.653  0.5968 -0.3438 -0.6006
  274MOL0     C36093   8.256   1.570   4.540 -0.1255  0.0369  0.5698
  274MOL0     O36094   8.270   1.659   4.436 -0.0567  0.0260 -0.3203
  274MOL0     C36095   8.412   1.685   4.394 -0.3020 -0.3971 -0.1250
  274MOL0     C36096   8.425   1.833   4.359  0.0305  0.3254 -0.3240
  274MOL0     C36097   8.336   1.874   4.239 -0.7403  0.0653 -0.1533
  274MOL0     C36098   8.307   2.027   4.248 -0.4607  0.2019  0.1877
  274MOL0     C36099   8.417   2.119   4.293 -0.0067 -0.1779 -0.4547
  274MOL0     C36100   8.492   2.193   4.343  0.4171 -0.0572  0.8211
  274MOL0     C36101   8.147   1.484   4.538  1.0910  0.2787  0.0902
  274MOL0     C36102   8.110   1.405   4.652 -0.1881 -1.2722  0.9421
  274MOL0     H36103   8.046   1.312   5.163 -0.6005  0.7843  1.0714
  274MOL0     H36104   7.893   1.251   5.329  1.6010  0.6624 -0.6402
  274MOL0     H36105   7.512   1.027   5.214  0.2283 -0.0692  1.2505
  274MOL0     H36106   7.461   1.185   5.171  0.7586  0.0963  0.8012
  274MOL0     H36107   7.418   1.249   5.403  1.3057 -0.3289  1.1181
  274MOL0     H36108   7.470   1.083   5.455  3.0490  1.1048 -0.8453
  274MOL0     H36109   7.294   0.993   5.291  0.2754  0.1985 -0.2425
  274MOL0     H36110   7.235   1.156   5.288  2.0286 -0.2771 -1.7890
  274MOL0     H36111   7.206   0.968   5.542  1.3244  0.6721  0.2657
  274MOL0     H36112   7.279   1.114   5.569 -1.9124  0.1572  1.5886
  274MOL0     H36113   7.115   1.266   5.498 -0.6676  0.5705  1.2644
  274MOL0     H36114   7.044   1.143   5.610  1.1939 -1.0185  0.0085
  274MOL0     H36115   6.997   1.043   5.351 -0.6881 -0.0512 -0.1308
  274MOL0     H36116   7.019   1.211   5.305 -2.3100  0.3390 -1.5431
  274MOL0     H36117   6.827   1.146   5.532 -0.5606 -2.7716 -0.5124
  274MOL0     H36118   6.833   1.286   5.425  1.5661  0.0929 -1.0892
  274MOL0     H36119   6.649   1.166   5.346 -1.2911 -1.9202  0.7437
  274MOL0     H36120   6.733   1.014   5.362  2.2916 -0.0710  1.3530
  274MOL0     H36121   6.824   1.333   5.164  3.8265 -0.5584  2.4407
  274MOL0     H36122   6.841   1.382   4.907 -4.1705 -0.2159 -0.2779
  274MOL0     H36123   6.760   1.286   4.789  2.1894 -4.1511 -1.6854
  274MOL0     H36124   7.060   1.282   4.848 -0.6909  1.3986  1.1490
  274MOL0     H36125   6.966   1.328   4.690 -0.2837  1.7942  1.1004
  274MOL0     H36126   7.015   1.048   4.810 -0.1226 -1.5819 -1.2844
  274MOL0     H36127   6.906   1.096   4.678 -1.3487  1.6364  1.3275
  274MOL0     H36128   7.094   1.196   4.553  1.7032  0.7952  0.2442
  274MOL0     H36129   7.127   1.032   4.596  0.4031  0.4477  1.3335
  274MOL0     H36130   7.444   1.277   4.820 -0.7613 -2.4890  0.9506
  274MOL0     H36131   7.665   1.322   4.706  0.0420 -2.9491  1.5728
  274MOL0     H36132   7.864   1.130   4.157 -1.0552  0.4198  1.2678
  274MOL0     H36133   8.063   1.214   4.031  2.6870  0.7471  1.8571
  274MOL0     H36134   8.294   1.261   4.100 -0.5120 -0.1254 -1.1275
  274MOL0     H36135   8.300   1.391   4.214  1.3129 -0.3225  0.3041
  274MOL0     H36136   8.433   1.529   4.026 -0.8820 -0.3361  0.1344
  274MOL0     H36137   8.397   1.418   3.915 -3.7783  0.9460  1.1622
  274MOL0     H36138   8.621   1.423   3.996 -1.0530  1.9319  3.3027
  274MOL0     H36139   8.552   1.266   3.970 -0.3367 -0.4605 -1.2190
  274MOL0     H36140   8.711   1.320   4.167 -0.2188  1.7266 -1.3426
  274MOL0     H36141   8.598   1.407   4.255  2.9743  1.1606 -1.3372
  274MOL0     H36142   8.547   1.115   4.168 -1.8469  0.1108 -0.5032
  274MOL0     H36143   8.426   1.193   4.267 -0.2669 -1.3108  0.4285
  274MOL0     H36144   8.705   1.152   4.371 -1.3851  3.9021 -0.6106
  274MOL0     H36145   8.582   1.024   4.368  0.5260 -0.9462  3.8372
  274MOL0     H36146   8.433   1.125   4.519 -0.6214  0.8694 -1.4312
  274MOL0     H36147   8.596   1.125   4.583 -0.3040  0.8917  0.3755
  274MOL0     H36148   8.496   1.345   4.629 -0.5761 -2.6125  1.1009
  274MOL0     H36149   8.467   1.367   4.447 -0.6308 -0.4138  1.3580
  274MOL0     H36150   8.036   1.595   4.204 -3.6603  0.4392  1.2112
  274MOL0     H36151   7.833   1.526   4.317  1.4092  0.9340  0.4416
  274MOL0     H36152   7.495   1.170   4.333 -1.9273 -2.0328  0.6615
  274MOL0     H36153   7.285   1.136   4.441  1.4058 -1.9356 -0.1937
  274MOL0     H36154   7.620   1.118   5.008 -0.7923  1.7907  2.3092
  274MOL0     H36155   7.806   1.130   4.852 -1.5512  0.9546 -0.6475
  274MOL0     H36156   8.359   1.502   4.854  0.6045 -2.3891 -0.2279
  274MOL0     H36157   8.401   1.647   4.678 -0.7961  1.1944 -2.0655
  274MOL0     H36158   8.456   1.625   4.313 -0.5722 -1.6691  0.6443
  274MOL0     H36159   8.464   1.673   4.489  0.7987 -1.7391 -0.8663
  274MOL0     H36160   8.407   1.889   4.451  3.4673  1.5238 -0.2507
  274MOL0     H36161   8.526   1.846   4.320  0.5550 -1.7070  0.2322
  274MOL0     H36162   8.248   1.810   4.226 -1.2713  0.0324  2.8698
  274MOL0     H36163   8.408   1.860   4.159  0.3167 -0.9788  0.9455
  274MOL0     H36164   8.276   2.064   4.150 -0.7094  1.1979  0.6281
  274MOL0     H36165   8.228   2.030   4.325  0.4883 -3.1980  1.4912
  274MOL0     H36166   8.552   2.257   4.405  1.1283 -1.5298  1.7078
  274MOL0     H36167   8.077   1.480   4.455  3.4221 -0.3252 -1.9593
  274MOL0     H36168   8.017   1.349   4.660 -0.4998 -0.8947  0.0516
  275MOL0     O36169   6.817   4.924   4.510 -0.1210 -1.2279 -0.0932
  275MOL0     C36170   6.793   4.862   4.615  0.2374  0.3275  0.1041
  275MOL0     O36171   6.883   4.772   4.670  0.1494 -0.0917 -0.6132
  275MOL0     C36172   7.014   4.762   4.618  0.0688 -0.0195 -0.0411
  275MOL0     C36173   7.049   4.645   4.545  0.1070  0.4911  0.4657
  275MOL0     C36174   7.179   4.635   4.486  0.3068  0.2427 -0.0201
  275MOL0     C36175   7.267   4.747   4.489  0.5306  0.0122 -1.1098
  275MOL0     O36176   7.400   4.749   4.469  0.0320  0.0555 -0.5915
  275MOL0     C36177   7.456   4.622   4.418  0.2168  0.9787  0.7395
  275MOL0     C36178   7.606   4.653   4.397 -0.6831  0.7886 -0.3847
  275MOL0     C36179   7.647   4.762   4.297  1.2162 -0.3017  0.6837
  275MOL0     C36180   7.794   4.746   4.249 -0.3988 -0.2590 -0.3014
  275MOL0     C36181   7.898   4.734   4.360  0.6357  0.9690  0.7052
  275MOL0     C36182   7.896   4.848   4.452 -0.2180 -0.3859 -0.6982
  275MOL0     C36183   8.030   4.894   4.514 -0.1318  0.1301  0.7536
  275MOL0     C36184   8.095   4.990   4.416 -0.9385  0.2923 -0.6015
  275MOL0     N36185   8.237   4.967   4.383  0.5489 -0.1327 -1.3989
  275MOL0     C36186   8.337   4.963   4.474 -0.0634 -0.2222 -0.7037
  275MOL0     C36187   8.444   4.947   4.396  0.7455  0.6249 -1.0260
  275MOL0     C36188   8.581   4.938   4.443  0.0651  0.0014 -0.0606
  275MOL0     C36189   8.645   5.082   4.470 -0.4050  0.7013  0.4724
  275MOL0     C36190   8.793   5.066   4.508  0.0471 -1.0987 -0.5584
  275MOL0     C36191   8.854   5.197   4.572 -0.4850 -0.3494  0.1809
  275MOL0     O36192   8.825   5.206   4.710  0.0995  0.5531 -0.2749
  275MOL0     C36193   8.847   5.318   4.775 -0.0904 -1.1593 -0.0918
  275MOL0     C36194   8.830   5.447   4.724 -0.3458  0.3768  0.9007
  275MOL0     C36195   8.881   5.558   4.791  0.0143 -0.1991  0.0951
  275MOL0     C36196   8.924   5.543   4.926 -1.3895  0.5355 -0.1250
  275MOL0     C36197   8.949   5.660   5.017  0.3195 -0.5308 -0.8226
  275MOL0     O36198   8.950   5.623   5.150  0.3688 -0.5238  0.5416
  275MOL0     C36199   8.963   5.722   5.246  0.0611  0.0890 -0.5555
  275MOL0     C36200   9.084   5.744   5.316  0.6579 -0.1584  0.0230
  275MOL0     C36201   9.099   5.839   5.417  0.8480 -0.5906 -0.2791
  275MOL0     C36202   8.994   5.930   5.440  0.8893 -0.6439  0.0458
  275MOL0     O36203   8.998   6.033   5.541 -0.0753  0.5373 -0.1206
  275MOL0     C36204   9.109   6.046   5.634 -0.1779  0.8912 -0.0978
  275MOL0     C36205   9.070   6.157   5.726 -0.6015 -0.2058 -0.4091
  275MOL0     C36206   8.987   6.137   5.850  0.7091  0.5088  0.3619
  275MOL0     C36207   8.933   6.270   5.907 -0.9250 -0.1171  0.3627
  275MOL0     C36208   9.051   6.355   5.963 -0.5216  0.0540 -0.0447
  275MOL0     C36209   8.989   6.456   6.063  1.1322  0.7261 -0.2479
  275MOL0     C36210   8.919   6.580   6.006  0.2297  0.3834 -0.1728
  275MOL0     C36211   8.862   6.679   6.108 -0.3306  0.0222  0.3598
  275MOL0    Cl36212   8.998   6.792   6.146 -0.4511  0.3121  0.4174
  275MOL0     C36213   8.874   5.912   5.377 -0.1365  0.1105 -0.7139
  275MOL0     C36214   8.858   5.813   5.278  0.5923 -0.3266 -0.7316
  275MOL0     O36215   8.970   5.775   4.970 -0.2502  0.7876  0.2681
  275MOL0     C36216   8.941   5.415   4.981 -0.9014  0.4948 -0.2779
  275MOL0     C36217   8.909   5.305   4.903 -0.0414  0.1655 -1.1099
  275MOL0     N36218   8.410   4.951   4.265  0.3672 -0.2255 -0.3890
  275MOL0     N36219   8.285   4.960   4.259 -0.3821  0.7711 -0.1309
  275MOL0     C36220   7.216   4.870   4.543 -0.8113 -0.2693  0.0322
  275MOL0     C36221   7.098   4.868   4.613  0.6993 -0.3381  0.5397
  275MOL0     C36222   6.654   4.878   4.665 -0.2039  0.1453 -0.2591
  275MOL0     C36223   6.622   4.793   4.770  0.0829  0.3031 -0.2932
  275MOL0     C36224   6.494   4.788   4.830 -0.0180 -1.1123  0.6474
  275MOL0     C36225   6.389   4.867   4.778  0.2565  0.6599 -0.0803
  275MOL0     O36226   6.271   4.862   4.845  0.6384  0.7372  0.2345
  275MOL0     C36227   6.165   4.937   4.790  0.0310 -0.4669 -0.2033
  275MOL0     C36228   6.030   4.894   4.841  0.5321 -0.0191 -0.0339
  275MOL0     C36229   5.926   5.006   4.837  0.0914  0.4883  0.3030
  275MOL0     C36230   5.798   4.938   4.885  0.8552 -0.4452  0.2621
  275MOL0     C36231   5.690   5.035   4.887 -0.0941  0.1607  0.8353
  275MOL0     C36232   5.590   5.103   4.863  0.8536  0.0350  0.4325
  275MOL0     C36233   6.426   4.954   4.676 -0.0495  1.2478  0.1413
  275MOL0     C36234   6.554   4.958   4.616 -0.5373  0.5604  0.7770
  275MOL0     H36235   6.985   4.557   4.550  2.1629 -1.0896  0.3775
  275MOL0     H36236   7.205   4.539   4.442 -1.9794 -1.3034  1.8067
  275MOL0     H36237   7.419   4.588   4.321  1.0402  2.0366  0.0230
  275MOL0     H36238   7.452   4.546   4.497  2.5698  1.0582  1.0302
  275MOL0     H36239   7.650   4.567   4.345  1.2018  1.2282  0.3974
  275MOL0     H36240   7.649   4.681   4.493  0.7307  0.8228 -1.0008
  275MOL0     H36241   7.626   4.860   4.339  1.7676  0.6386 -1.1241
  275MOL0     H36242   7.581   4.748   4.211  2.8115 -0.8561 -0.4845
  275MOL0     H36243   7.797   4.650   4.197  0.7609 -1.4043  1.7595
  275MOL0     H36244   7.832   4.825   4.184 -0.3084  0.1324  0.2197
  275MOL0     H36245   7.998   4.724   4.317 -0.5672 -3.5256 -1.6575
  275MOL0     H36246   7.879   4.650   4.427 -0.0624  1.4923  1.1766
  275MOL0     H36247   7.828   4.815   4.531 -2.2916  1.1537 -1.7547
  275MOL0     H36248   7.840   4.928   4.404 -1.6532  1.5716  3.7212
  275MOL0     H36249   8.014   4.946   4.609  0.4597 -1.9232  2.0323
  275MOL0     H36250   8.095   4.810   4.540 -1.1147 -0.4637  1.3576
  275MOL0     H36251   8.084   5.078   4.480  0.0494 -1.3061  1.8945
  275MOL0     H36252   8.044   4.976   4.320  0.3492 -2.1572 -1.0116
  275MOL0     H36253   8.329   4.976   4.581 -0.7781 -0.8215 -0.6775
  275MOL0     H36254   8.643   4.890   4.365 -0.0114  1.7049 -1.2204
  275MOL0     H36255   8.570   4.872   4.529 -1.4172 -0.4219 -0.5394
  275MOL0     H36256   8.596   5.122   4.559 -2.1740 -3.3595  1.5940
  275MOL0     H36257   8.619   5.147   4.386  0.2405 -1.4772 -1.5378
  275MOL0     H36258   8.814   4.986   4.580 -1.2010 -1.4257 -0.5352
  275MOL0     H36259   8.841   5.043   4.412 -1.9640  0.1585 -1.9584
  275MOL0     H36260   8.821   5.291   4.525 -2.1365 -0.3642  1.2170
  275MOL0     H36261   8.963   5.193   4.577 -0.2240  0.1576 -2.9252
  275MOL0     H36262   8.804   5.467   4.620  1.9955 -1.2092 -0.0739
  275MOL0     H36263   8.870   5.653   4.740 -0.3787 -0.9711 -1.3088
  275MOL0     H36264   9.165   5.679   5.283 -0.3226 -0.1070 -2.7542
  275MOL0     H36265   9.191   5.827   5.473  1.3701 -0.2753 -1.0527
  275MOL0     H36266   9.198   6.077   5.577 -0.2583  0.8403 -0.2525
  275MOL0     H36267   9.143   5.953   5.682 -3.1951 -0.0026  0.4808
  275MOL0     H36268   9.014   6.232   5.670 -2.9817 -1.8708 -0.4384
  275MOL0     H36269   9.163   6.198   5.768 -1.8836  1.3710  1.0457
  275MOL0     H36270   9.048   6.089   5.928 -0.4706 -1.1728  0.2963
  275MOL0     H36271   8.904   6.070   5.829 -0.1193  0.5388  3.1469
  275MOL0     H36272   8.876   6.324   5.830 -1.6223 -1.9218 -0.4397
  275MOL0     H36273   8.872   6.242   5.993 -0.8576  0.7991  0.7144
  275MOL0     H36274   9.082   6.394   5.866  0.1850 -3.2483 -1.3079
  275MOL0     H36275   9.127   6.285   6.000 -0.5853 -0.4131 -0.7807
  275MOL0     H36276   9.078   6.495   6.113  0.8091  3.7430 -1.7769
  275MOL0     H36277   8.929   6.414   6.144  1.8915  2.0204  1.0200
  275MOL0     H36278   8.986   6.626   5.933  1.9648  0.8524  1.6274
  275MOL0     H36279   8.830   6.546   5.952 -0.1283  0.6182  0.2655
  275MOL0     H36280   8.819   6.622   6.192 -1.2447 -0.8215 -0.6435
  275MOL0     H36281   8.775   6.732   6.068  0.1581 -1.0067 -2.2975
  275MOL0     H36282   8.798   5.985   5.403  1.3989  3.0760 -3.7505
  275MOL0     H36283   8.762   5.812   5.227  0.1364  1.1007  0.0611
  275MOL0     H36284   8.980   5.399   5.080  0.2496  0.5769 -0.7035
  275MOL0     H36285   8.935   5.205   4.938 -1.3286 -0.4260 -1.7657
  275MOL0     H36286   7.282   4.955   4.528  0.9101 -1.6050 -0.2510
  275MOL0     H36287   7.062   4.961   4.655  0.3100 -0.4622  0.4800
  275MOL0     H36288   6.697   4.742   4.829 -1.4211 -0.6953  0.8618
  275MOL0     H36289   6.464   4.723   4.912 -1.8756  0.5972  1.3847
  275MOL0     H36290   6.153   4.928   4.682  0.1164  0.6995 -0.3223
  275MOL0     H36291   6.178   5.043   4.812 -1.0436 -0.6671  1.5839
  275MOL0     H36292   6.008   4.818   4.765  1.2941  0.9588 -1.2632
  275MOL0     H36293   6.037   4.856   4.943 -0.6530  2.6341  1.1163
  275MOL0     H36294   5.926   5.025   4.729 -1.0850 -0.7228  0.0522
  275MOL0     H36295   5.955   5.098   4.888  1.9473  0.6926 -1.0276
  275MOL0     H36296   5.768   4.851   4.825 -3.4718 -0.4857  2.1678
  275MOL0     H36297   5.818   4.902   4.986  1.3015  0.0200  0.3432
  275MOL0     H36298   5.505   5.165   4.842  1.6488  1.2092  0.5774
  275MOL0     H36299   6.350   5.014   4.627  0.3387  1.0252 -0.7650
  275MOL0     H36300   6.576   5.025   4.534  0.7956 -0.2298  0.4650
  276MOL0     O36301   6.444   6.634   9.766  0.2767 -0.1924 -0.2527
  276MOL0     C36302   6.478   6.733   9.830 -0.2791 -0.0390 -0.7323
  276MOL0     O36303   6.472   6.745   9.972 -0.1436 -0.1891 -1.2239
  276MOL0     C36304   6.385   6.677  10.044  0.0822  0.4723  0.0016
  276MOL0     C36305   6.431   6.620  10.162 -0.1605 -0.3206  0.2679
  276MOL0     C36306   6.354   6.526  10.232  0.1499 -0.1530  0.8910
  276MOL0     C36307   6.230   6.480  10.181  0.3410 -0.0992 -0.0055
  276MOL0     O36308   6.143   6.388  10.236  0.2385  0.5914 -0.0616
  276MOL0     C36309   6.179   6.317  10.357  0.5655  0.6112  1.2097
  276MOL0     C36310   6.105   6.187  10.354 -0.2648  0.5680 -0.0059
  276MOL0     C36311   6.127   6.116  10.499 -0.3388 -0.5906 -0.2307
  276MOL0     C36312   6.014   6.021  10.539 -1.0151  0.2541  1.0879
  276MOL0     C36313   6.022   5.979  10.682  0.1198  0.3153 -0.1139
  276MOL0     C36314   5.877   5.922  10.733 -0.3399 -1.0726  0.3765
  276MOL0     C36315   5.802   5.834  10.642  1.1753 -0.6031 -0.7593
  276MOL0     C36316   5.676   5.785  10.698 -0.0976 -0.6025  0.5397
  276MOL0     N36317   5.563   5.823  10.617 -0.3966 -1.1032 -0.0214
  276MOL0     C36318   5.500   5.760  10.511  0.5752  0.3767 -0.4402
  276MOL0     C36319   5.443   5.858  10.440 -0.3276  0.5582  0.2940
  276MOL0     C36320   5.358   5.853  10.318 -0.4730  0.0397 -0.7034
  276MOL0     C36321   5.266   5.734  10.330 -0.3093 -0.7179 -0.5667
  276MOL0     C36322   5.189   5.708  10.201 -0.2610  1.3229 -0.5504
  276MOL0     C36323   5.119   5.824  10.128 -0.6698 -0.5406  0.5101
  276MOL0     O36324   5.005   5.874  10.202 -0.2337  0.2791 -0.7598
  276MOL0     C36325   4.933   5.977  10.153 -1.4790  0.6853  0.7533
  276MOL0     C36326   4.936   6.014  10.016  0.4703 -0.7344  0.2199
  276MOL0     C36327   4.871   6.127   9.970 -0.4618 -0.0043 -0.6685
  276MOL0     C36328   4.781   6.192  10.057  0.0215  0.6506 -1.2082
  276MOL0     C36329   4.705   6.318  10.020  0.2599 -0.2225 -0.5893
  276MOL0     O36330   4.647   6.310   9.898  0.3683  0.9396 -0.1208
  276MOL0     C36331   4.606   6.424   9.825 -0.7010  0.4896  0.5345
  276MOL0     C36332   4.636   6.430   9.680  0.0690  0.4551 -0.0747
  276MOL0     C36333   4.581   6.521   9.594 -0.3634  0.5358  0.1897
  276MOL0     C36334   4.498   6.614   9.650  0.7342 -0.3401  0.5063
  276MOL0     O36335   4.465   6.715   9.561  0.0900  0.6683  0.2922
  276MOL0     C36336   4.359   6.815   9.598 -0.6942  0.5116  0.5060
  276MOL0     C36337   4.331   6.900   9.480  0.4592 -0.7669 -0.9323
  276MOL0     C36338   4.220   7.007   9.508  0.5989 -0.1396 -0.7681
  276MOL0     C36339   4.185   7.110   9.398  0.0957 -0.3359  0.0412
  276MOL0     C36340   4.066   7.194   9.430 -0.0959  0.0076 -0.3643
  276MOL0     C36341   3.951   7.176   9.338 -0.2154  0.0760 -0.0675
  276MOL0     C36342   3.876   7.034   9.361  0.2217  0.1618  0.6611
  276MOL0     C36343   3.744   7.032   9.285 -0.3372 -0.2869  0.0623
  276MOL0    Cl36344   3.677   6.872   9.311 -0.4513 -0.1211 -0.0810
  276MOL0     C36345   4.465   6.616   9.783 -0.2530 -0.1624 -1.1362
  276MOL0     C36346   4.523   6.522   9.868 -0.0266  0.7566 -0.0908
  276MOL0     O36347   4.695   6.412  10.098  0.2869  0.5524 -0.5190
  276MOL0     C36348   4.763   6.139  10.189 -0.3877  0.1429  0.1520
  276MOL0     C36349   4.846   6.040  10.245  0.0914 -0.2071  0.2794
  276MOL0     N36350   5.462   5.977  10.510  0.3106 -0.3425 -0.1596
  276MOL0     N36351   5.527   5.954  10.619  0.4527 -0.2772  0.1700
  276MOL0     C36352   6.174   6.547  10.065 -0.0587 -0.2423  0.3894
  276MOL0     C36353   6.251   6.642  10.004  0.0015 -1.4332 -0.5542
  276MOL0     C36354   6.530   6.849   9.750 -0.1413 -0.3623 -0.5093
  276MOL0     C36355   6.531   6.850   9.613 -0.5998  0.3898  0.3817
  276MOL0     C36356   6.572   6.964   9.542  0.6136  0.8631 -0.1413
  276MOL0     C36357   6.629   7.075   9.603  0.5690  0.4536 -0.5189
  276MOL0     O36358   6.682   7.186   9.540  0.0523  0.1467 -0.4314
  276MOL0     C36359   6.632   7.206   9.405  0.5984  0.2069 -0.6748
  276MOL0     C36360   6.623   7.354   9.370 -0.6753  0.2090 -0.2118
  276MOL0     C36361   6.679   7.392   9.218 -0.3953 -0.5592 -0.3903
  276MOL0     C36362   6.790   7.495   9.219 -1.6236  0.5363 -0.2164
  276MOL0     C36363   6.893   7.453   9.315 -1.0536  0.6325  0.4740
  276MOL0     C36364   6.992   7.400   9.364 -0.2355 -0.7616 -0.1313
  276MOL0     C36365   6.633   7.075   9.742  0.5600  0.1835 -0.4623
  276MOL0     C36366   6.589   6.956   9.815 -0.5506  0.7747  0.4858
  276MOL0     H36367   6.528   6.643  10.205 -0.3637 -0.8968  1.0576
  276MOL0     H36368   6.390   6.484  10.326  3.5510  1.3815  0.4242
  276MOL0     H36369   6.138   6.382  10.435 -3.5114  0.9750 -0.9888
  276MOL0     H36370   6.287   6.298  10.362  0.5773 -1.9914 -3.2879
  276MOL0     H36371   6.127   6.122  10.269 -2.1256  0.9786 -0.8589
  276MOL0     H36372   6.003   6.223  10.338 -1.0475 -0.8148  1.5847
  276MOL0     H36373   6.121   6.189  10.580  1.1750 -2.0510  1.3048
  276MOL0     H36374   6.227   6.070  10.497  0.7728  1.5500  1.6373
  276MOL0     H36375   5.919   6.073  10.528 -0.6206  1.0947  1.5255
  276MOL0     H36376   5.988   5.938  10.473  0.3570 -1.5988  2.7661
  276MOL0     H36377   6.050   6.064  10.745  2.0541 -0.5832  0.3084
  276MOL0     H36378   6.095   5.898  10.694 -1.5504 -1.1408  0.8799
  276MOL0     H36379   5.806   6.004  10.741  1.4976  0.8738 -1.7257
  276MOL0     H36380   5.894   5.876  10.830  2.4018 -2.4583 -0.6478
  276MOL0     H36381   5.779   5.882  10.546 -1.0165 -0.7981 -0.3668
  276MOL0     H36382   5.870   5.749  10.633  0.7262 -0.8635 -1.7109
  276MOL0     H36383   5.674   5.827  10.799  2.1297  0.3886  0.2504
  276MOL0     H36384   5.683   5.676  10.694 -1.7452 -0.7178  0.4476
  276MOL0     H36385   5.504   5.657  10.477 -3.5000 -0.7579  1.8455
  276MOL0     H36386   5.422   5.841  10.230  0.3074 -2.4629  0.1303
  276MOL0     H36387   5.294   5.942  10.311 -0.3194  0.1226 -1.1259
  276MOL0     H36388   5.186   5.747  10.403 -2.9975  0.3491 -3.5072
  276MOL0     H36389   5.332   5.649  10.350  2.0426  1.2297  0.4462
  276MOL0     H36390   5.246   5.654  10.124 -1.0499  1.9108 -1.5729
  276MOL0     H36391   5.115   5.631  10.226  1.6096 -0.5796 -0.5012
  276MOL0     H36392   5.088   5.787  10.030  0.9312 -5.5778  1.6351
  276MOL0     H36393   5.183   5.911  10.111  0.6072 -1.7623 -1.2201
  276MOL0     H36394   4.998   5.952   9.952 -2.1758 -3.1062 -0.2802
  276MOL0     H36395   4.874   6.179   9.875  2.3732  1.8896  0.3276
  276MOL0     H36396   4.689   6.345   9.640 -1.2766 -0.3285 -0.2465
  276MOL0     H36397   4.603   6.504   9.489  1.1161  1.1027  0.3814
  276MOL0     H36398   4.389   6.863   9.691  0.2331  3.7090 -1.2934
  276MOL0     H36399   4.266   6.757   9.610 -0.2943  0.0388  1.4169
  276MOL0     H36400   4.300   6.836   9.397 -0.5446 -3.4909  1.3987
  276MOL0     H36401   4.422   6.950   9.445 -0.1127  0.6296 -0.5167
  276MOL0     H36402   4.229   7.063   9.601  0.1545  1.1637 -1.4909
  276MOL0     H36403   4.121   6.960   9.514 -0.4303  1.9949 -0.0732
  276MOL0     H36404   4.271   7.176   9.379 -0.0948 -0.2892 -0.6672
  276MOL0     H36405   4.175   7.052   9.306 -0.5329 -1.3052  0.7088
  276MOL0     H36406   4.099   7.298   9.431 -1.5300  0.4825 -0.0657
  276MOL0     H36407   4.031   7.156   9.527 -1.8929 -3.3286 -2.1370
  276MOL0     H36408   3.983   7.179   9.233 -0.6966 -0.5738 -0.2374
  276MOL0     H36409   3.877   7.256   9.353 -2.2775 -1.4428 -1.6503
  276MOL0     H36410   3.936   6.947   9.333 -0.4828  0.3883 -1.7883
  276MOL0     H36411   3.858   7.029   9.469  0.8448 -0.6993  0.7373
  276MOL0     H36412   3.763   7.057   9.180 -0.0720 -0.3350  0.0986
  276MOL0     H36413   3.676   7.114   9.310  1.5211  1.6784 -0.9722
  276MOL0     H36414   4.407   6.687   9.842  1.2215  0.1437  0.0323
  276MOL0     H36415   4.504   6.533   9.975  0.4597 -0.0049  0.0790
  276MOL0     H36416   4.698   6.187  10.261 -0.1943  1.2964 -0.4191
  276MOL0     H36417   4.853   6.021  10.352 -0.2636  1.0888  0.5570
  276MOL0     H36418   6.080   6.500  10.037 -0.1950 -1.0814  2.1166
  276MOL0     H36419   6.217   6.700   9.919 -0.3571 -0.7079  0.0777
  276MOL0     H36420   6.481   6.773   9.555 -2.0784  2.8481 -1.8243
  276MOL0     H36421   6.552   6.963   9.435 -1.9251 -2.1538  0.2196
  276MOL0     H36422   6.533   7.163   9.386  0.7888 -0.9779  0.8016
  276MOL0     H36423   6.686   7.159   9.322  0.2566 -0.1976 -0.6712
  276MOL0     H36424   6.518   7.381   9.383 -1.2753 -2.3313  0.7999
  276MOL0     H36425   6.670   7.418   9.446 -3.3975  2.1924 -0.0279
  276MOL0     H36426   6.598   7.451   9.174 -0.5232  1.7446  2.6262
  276MOL0     H36427   6.695   7.315   9.142 -5.2452 -0.9972 -1.2583
  276MOL0     H36428   6.840   7.485   9.122 -3.2750  1.2654 -1.1825
  276MOL0     H36429   6.747   7.590   9.252 -2.1367 -0.0608  0.8791
  276MOL0     H36430   7.064   7.336   9.411 -0.2175 -1.7900 -1.4841
  276MOL0     H36431   6.684   7.152   9.799 -1.5602 -0.7203  2.9221
  276MOL0     H36432   6.608   6.967   9.921  0.1031  2.9862  0.1845
  277MOL0     O36433   7.604   2.585   9.471 -0.0249 -0.4138  0.5748
  277MOL0     C36434   7.696   2.602   9.557  0.2643  0.2104  0.7834
  277MOL0     O36435   7.735   2.726   9.592  0.4129 -0.0315 -0.2428
  277MOL0     C36436   7.693   2.846   9.533 -1.0135  0.2220 -0.1274
  277MOL0     C36437   7.719   2.865   9.399 -0.3654 -0.2082  0.1794
  277MOL0     C36438   7.690   2.985   9.330 -0.8766  0.1147  0.0900
  277MOL0     C36439   7.651   3.094   9.409 -0.3047 -0.3346  0.1976
  277MOL0     O36440   7.602   3.208   9.360 -0.0920 -0.2626 -0.5795
  277MOL0     C36441   7.571   3.213   9.223 -0.1527 -0.0712  0.5084
  277MOL0     C36442   7.542   3.352   9.184  0.5312 -0.0359  0.6079
  277MOL0     C36443   7.668   3.445   9.200 -0.5115 -0.4662  0.3052
  277MOL0     C36444   7.632   3.594   9.161  1.1081 -0.2645  0.0451
  277MOL0     C36445   7.746   3.688   9.161  0.1062  0.2894  0.7121
  277MOL0     C36446   7.705   3.836   9.136  0.2041  0.6179 -0.0206
  277MOL0     C36447   7.839   3.912   9.145 -0.1364  1.0617 -0.6738
  277MOL0     C36448   7.814   4.065   9.148  0.7931  0.5179 -0.3980
  277MOL0     N36449   7.907   4.147   9.072 -0.1249 -0.9842 -0.0131
  277MOL0     C36450   8.042   4.140   9.080 -0.3125 -0.2935 -0.0826
  277MOL0     C36451   8.078   4.267   9.037  0.5794  0.5813  0.9573
  277MOL0     C36452   8.216   4.316   9.049  0.1581  0.3364  0.3445
  277MOL0     C36453   8.290   4.304   8.915  0.8354  0.3028 -0.0350
  277MOL0     C36454   8.387   4.184   8.914  0.0449 -0.3348  0.6771
  277MOL0     C36455   8.466   4.181   8.773 -0.3311 -0.8157  0.7240
  277MOL0     O36456   8.566   4.075   8.773 -1.1718  0.1487  0.4013
  277MOL0     C36457   8.624   4.043   8.655 -0.7468 -0.2277  0.7978
  277MOL0     C36458   8.575   4.072   8.530 -0.0432  0.6459  0.6621
  277MOL0     C36459   8.651   4.051   8.411  0.3074 -0.9694 -0.1588
  277MOL0     C36460   8.780   4.005   8.424  0.8048  0.0735  0.6324
  277MOL0     C36461   8.867   3.985   8.302 -0.5322  0.2801  0.5295
  277MOL0     O36462   9.000   3.955   8.327  0.4263 -0.2278 -0.0433
  277MOL0     C36463   9.092   3.958   8.221 -0.0879  0.4348  0.4848
  277MOL0     C36464   9.150   3.840   8.168  0.3815  0.0327  0.0784
  277MOL0     C36465   9.247   3.855   8.066 -0.3206  0.6416  0.4193
  277MOL0     C36466   9.263   3.973   7.992  0.1220  1.3949 -0.5340
  277MOL0     O36467   9.304   3.979   7.860  0.1767  0.7012  0.0285
  277MOL0     C36468   9.435   3.935   7.825  0.1037 -0.5032 -0.1027
  277MOL0     C36469   9.492   4.031   7.724 -0.4009  0.0877 -0.3081
  277MOL0     C36470   9.644   4.048   7.741  0.8486  0.1557 -0.0171
  277MOL0     C36471   9.690   4.164   7.645  0.1504 -0.8118  0.7551
  277MOL0     C36472   9.844   4.189   7.642 -0.3156 -0.1355 -1.3776
  277MOL0     C36473   9.929   4.064   7.657 -0.2724 -0.0131 -0.8305
  277MOL0     C36474  10.071   4.109   7.647 -0.6571  0.6252  0.0788
  277MOL0     C36475  10.181   4.011   7.697  0.7222 -0.9422  1.2467
  277MOL0    Cl36476  10.160   3.835   7.690  0.3062 -0.1293 -0.0114
  277MOL0     C36477   9.208   4.089   8.054  0.2554 -0.0775  0.2942
  277MOL0     C36478   9.130   4.077   8.166  0.5401  0.3933  0.6182
  277MOL0     O36479   8.821   4.004   8.192  0.6358  0.2205  0.8502
  277MOL0     C36480   8.833   3.972   8.543  0.6853  0.1358 -0.1932
  277MOL0     C36481   8.752   3.986   8.657 -0.2149 -0.6053  0.5957
  277MOL0     N36482   7.970   4.341   8.980 -0.5953  0.3334  0.2333
  277MOL0     N36483   7.869   4.257   9.004  0.3246 -0.3121  0.3208
  277MOL0     C36484   7.645   3.084   9.547  0.7726 -0.5945  0.8519
  277MOL0     C36485   7.664   2.964   9.604  0.6070 -0.6763  0.0338
  277MOL0     C36486   7.773   2.490   9.612  1.0593  0.3377 -0.4672
  277MOL0     C36487   7.879   2.506   9.695 -0.7926  0.4169 -0.1476
  277MOL0     C36488   7.938   2.391   9.757  0.2381  0.3804 -0.8483
  277MOL0     C36489   7.894   2.262   9.726 -0.1566 -1.0044 -1.1923
  277MOL0     O36490   7.953   2.156   9.793  0.3883  0.3337 -0.0083
  277MOL0     C36491   7.991   2.038   9.723  0.3839 -0.2596  0.5010
  277MOL0     C36492   7.900   1.922   9.747  0.1901  0.0722 -0.6438
  277MOL0     C36493   7.893   1.899   9.899  0.3202  0.4924  0.9309
  277MOL0     C36494   7.801   1.785   9.934 -0.4053 -1.0233 -0.4504
  277MOL0     C36495   7.749   1.803  10.070 -0.5895  0.5932 -0.4003
  277MOL0     C36496   7.705   1.806  10.180 -0.1316 -1.2377 -0.1959
  277MOL0     C36497   7.792   2.246   9.643  1.3199  0.7289 -0.2526
  277MOL0     C36498   7.729   2.357   9.592 -1.3280 -1.8087 -0.0030
  277MOL0     H36499   7.769   2.782   9.351 -3.1520 -1.6121 -0.4582
  277MOL0     H36500   7.711   2.982   9.224  2.3821  1.7607  0.5567
  277MOL0     H36501   7.478   3.158   9.207 -0.0984  0.2384 -0.9907
  277MOL0     H36502   7.653   3.166   9.168  0.7016 -2.7844  3.7810
  277MOL0     H36503   7.461   3.380   9.251  0.8026 -0.1318  0.9815
  277MOL0     H36504   7.505   3.358   9.081  1.2189 -3.0466  0.0758
  277MOL0     H36505   7.753   3.416   9.138  0.1753  1.5375  0.2282
  277MOL0     H36506   7.706   3.431   9.301 -0.9528 -1.5590  0.3350
  277MOL0     H36507   7.584   3.604   9.063 -2.1000 -0.8020  1.4112
  277MOL0     H36508   7.559   3.626   9.235  0.2593 -2.2818  0.1459
  277MOL0     H36509   7.818   3.649   9.090  0.9785  1.3333  0.9880
  277MOL0     H36510   7.797   3.680   9.258  0.8967  0.4934  0.3179
  277MOL0     H36511   7.633   3.868   9.212 -1.6094  1.8742 -2.1254
  277MOL0     H36512   7.648   3.853   9.044 -2.5625 -0.7235  1.2948
  277MOL0     H36513   7.887   3.879   9.237  1.8392 -0.1224 -2.0734
  277MOL0     H36514   7.899   3.884   9.058 -1.8375 -1.6680 -1.0802
  277MOL0     H36515   7.805   4.100   9.252 -2.5883  0.7831 -0.6541
  277MOL0     H36516   7.716   4.096   9.111  0.5054  2.4199  1.7249
  277MOL0     H36517   8.110   4.078   9.137  0.3017 -1.3740 -1.9201
  277MOL0     H36518   8.276   4.271   9.129 -1.0547  2.0261  2.2915
  277MOL0     H36519   8.215   4.419   9.086  0.8042  0.3745  0.2692
  277MOL0     H36520   8.317   4.402   8.874 -2.4156  0.6790 -1.6040
  277MOL0     H36521   8.217   4.275   8.839  1.4286  3.2761 -1.9143
  277MOL0     H36522   8.459   4.198   8.995  1.9640 -2.4256 -0.5801
  277MOL0     H36523   8.338   4.088   8.931 -1.6594 -0.0317 -2.0353
  277MOL0     H36524   8.518   4.276   8.756 -2.8786  0.9505  2.1071
  277MOL0     H36525   8.390   4.157   8.698 -3.7261 -0.4421  3.7800
  277MOL0     H36526   8.474   4.101   8.502  0.1226 -1.2597 -2.3524
  277MOL0     H36527   8.622   4.087   8.312 -3.4964 -3.2556 -0.0680
  277MOL0     H36528   9.110   3.748   8.210  0.3462  0.1038  0.2013
  277MOL0     H36529   9.286   3.765   8.018  1.8857  0.5340  2.2573
  277MOL0     H36530   9.442   3.838   7.774  0.9296 -1.5033  1.8237
  277MOL0     H36531   9.501   3.931   7.912 -2.2670 -0.1265  1.8185
  277MOL0     H36532   9.453   4.133   7.719 -0.5465  0.0978  0.8752
  277MOL0     H36533   9.479   3.984   7.626  1.9001 -1.5867  0.1058
  277MOL0     H36534   9.699   3.959   7.709 -0.8060  0.9698 -6.7064
  277MOL0     H36535   9.662   4.071   7.846  0.6782 -1.1013  0.3093
  277MOL0     H36536   9.653   4.145   7.544 -3.1280  2.9762  0.9729
  277MOL0     H36537   9.635   4.256   7.669 -0.5140 -0.8527 -0.5335
  277MOL0     H36538   9.874   4.262   7.718  1.3865 -3.3903  1.3760
  277MOL0     H36539   9.857   4.239   7.546  2.2539  1.4522 -0.3140
  277MOL0     H36540   9.907   3.985   7.585 -2.9576 -1.5218  1.4107
  277MOL0     H36541   9.905   4.014   7.752 -3.8919 -1.1159 -2.1403
  277MOL0     H36542  10.077   4.134   7.541 -1.4395 -0.7572 -0.3162
  277MOL0     H36543  10.099   4.198   7.704 -1.5476  1.2786 -0.4807
  277MOL0     H36544  10.193   4.029   7.804  1.1233 -2.5604  1.5005
  277MOL0     H36545  10.271   4.033   7.638 -1.6535 -0.0361 -2.3792
  277MOL0     H36546   9.206   4.184   8.002 -2.3500 -0.2029  0.0015
  277MOL0     H36547   9.080   4.168   8.198 -1.5206 -0.5532  0.2164
  277MOL0     H36548   8.935   3.938   8.560  1.1134  1.5392  0.1846
  277MOL0     H36549   8.801   3.954   8.749  0.5357 -2.6532 -0.4363
  277MOL0     H36550   7.601   3.163   9.607 -0.4839 -1.8710  1.6619
  277MOL0     H36551   7.660   2.953   9.712  0.4269  1.7254  0.3096
  277MOL0     H36552   7.915   2.608   9.709  0.5215 -0.3945  3.6242
  277MOL0     H36553   8.024   2.400   9.822  0.0528 -2.1352 -0.1585
  277MOL0     H36554   8.085   2.011   9.771 -0.4599 -1.2106  1.6757
  277MOL0     H36555   7.999   2.052   9.615 -0.4558 -0.1281  0.4493
  277MOL0     H36556   7.797   1.943   9.719 -0.4959 -1.3010  0.6493
  277MOL0     H36557   7.929   1.827   9.703  1.5347  0.2270 -0.1561
  277MOL0     H36558   7.847   1.987   9.944 -3.6546 -0.4144 -0.9407
  277MOL0     H36559   7.995   1.876   9.933 -0.5882 -2.9374  1.7172
  277MOL0     H36560   7.715   1.771   9.869 -1.1499  1.0771  0.0089
  277MOL0     H36561   7.864   1.696   9.923  2.9385  0.7864  1.9842
  277MOL0     H36562   7.666   1.825  10.278  0.4148 -1.2529  0.0254
  277MOL0     H36563   7.750   2.148   9.621  1.0951  0.8727 -0.4639
  277MOL0     H36564   7.652   2.355   9.515  0.9054 -1.1770 -2.3723
  278MOL0     O36565   0.293  11.149   5.649  0.6190 -0.7037  0.7817
  278MOL0     C36566   0.219  11.058   5.689 -0.0899  0.4304 -0.9494
  278MOL0     O36567   0.168  10.947   5.621 -0.1112  0.3681  0.2090
  278MOL0     C36568   0.173  10.940   5.484  0.7503  0.6932 -0.1126
  278MOL0     C36569   0.197  11.041   5.393 -1.3626 -0.0885  0.0692
  278MOL0     C36570   0.207  11.010   5.261  0.6532 -0.6405 -0.4686
  278MOL0     C36571   0.178  10.881   5.210  0.2539 -0.8823 -0.9272
  278MOL0     O36572   0.170  10.879   5.074 -0.3477 -0.3902  0.3823
  278MOL0     C36573   0.120  10.752   5.017 -0.8700 -1.2203  0.3040
  278MOL0     C36574   0.108  10.779   4.870 -0.6063 -0.0311  0.0056
  278MOL0     C36575   0.004  10.890   4.846  1.0464 -0.7171  1.2466
  278MOL0     C36576  -0.032  10.912   4.699 -0.2573 -0.0328 -0.7965
  278MOL0     C36577   0.049  11.038   4.641 -0.0161 -0.1661  0.3309
  278MOL0     C36578   0.027  11.039   4.489  0.0988  0.3763 -0.3838
  278MOL0     C36579   0.129  11.124   4.417 -0.1710  1.0534 -0.4025
  278MOL0     C36580   0.056  11.187   4.293 -0.0728  0.2721  0.0094
  278MOL0     N36581   0.008  11.323   4.324  0.3466  0.1422  0.2481
  278MOL0     C36582   0.097  11.419   4.366  0.0944 -0.1182  0.1904
  278MOL0     C36583   0.019  11.528   4.380 -0.1392 -0.4609  0.2810
  278MOL0     C36584   0.065  11.671   4.403 -0.1336  0.3077  0.4944
  278MOL0     C36585   0.134  11.677   4.535 -0.2230  0.0766 -0.7183
  278MOL0     C36586   0.160  11.828   4.565  0.3569 -0.7811 -0.0303
  278MOL0     C36587   0.267  11.853   4.677 -0.0810  0.8617  1.2150
  278MOL0     O36588   0.259  11.979   4.740  0.3811  0.4251 -1.2587
  278MOL0     C36589   0.194  11.987   4.862  0.7942 -0.9984  0.7946
  278MOL0     C36590   0.061  11.955   4.875  0.7043  0.0586 -0.2902
  278MOL0     C36591  -0.021  11.982   4.983  0.9291  0.6136  0.5211
  278MOL0     C36592   0.051  12.037   5.096 -0.3920  0.4862  0.6975
  278MOL0     C36593  -0.025  12.060   5.219  0.8840 -0.2369 -0.2713
  278MOL0     O36594  -0.126  11.974   5.244 -0.0371  0.3792 -1.1571
  278MOL0     C36595  -0.198  11.961   5.357 -1.2604  0.2338 -0.1854
  278MOL0     C36596  -0.223  11.831   5.401  0.5336 -0.0841  1.0755
  278MOL0     C36597  -0.310  11.807   5.506 -0.1402 -0.1072 -0.2584
  278MOL0     C36598  -0.359  11.908   5.581 -0.0212 -0.0724 -0.3884
  278MOL0     O36599  -0.420  11.881   5.710 -0.0220 -0.3362  0.0568
  278MOL0     C36600  -0.345  11.907   5.829  0.0483 -0.7322  0.1406
  278MOL0     C36601  -0.405  11.826   5.940  0.1988  0.4291 -0.7766
  278MOL0     C36602  -0.544  11.872   5.973 -0.0108 -0.4453 -0.1350
  278MOL0     C36603  -0.597  11.830   6.118 -0.9913 -0.0056  0.0218
  278MOL0     C36604  -0.740  11.838   6.113  1.3439  0.2778 -0.2207
  278MOL0     C36605  -0.800  11.816   6.251 -0.1307  0.8892  0.3937
  278MOL0     C36606  -0.736  11.707   6.335  0.4663  1.2784 -0.1065
  278MOL0     C36607  -0.795  11.667   6.472 -0.3125 -0.0166  0.4920
  278MOL0    Cl36608  -0.800  11.809   6.570  0.4017 -0.2535  0.1485
  278MOL0     C36609  -0.328  12.042   5.543 -0.7078 -0.5823 -0.2254
  278MOL0     C36610  -0.248  12.068   5.434 -0.8814 -0.4735  0.4827
  278MOL0     O36611   0.011  12.151   5.295 -0.1451 -0.3211  0.2025
  278MOL0     C36612   0.187  12.068   5.089 -0.2781 -0.2488 -0.2957
  278MOL0     C36613   0.257  12.046   4.971 -0.1158 -0.7348  0.2589
  278MOL0     N36614  -0.115  11.494   4.350 -0.0545 -0.1298 -0.6148
  278MOL0     N36615  -0.121  11.368   4.322  0.4465  0.1838 -0.4331
  278MOL0     C36616   0.154  10.779   5.300 -0.7009  1.0116 -0.3655
  278MOL0     C36617   0.151  10.805   5.435 -0.8550  0.9318  0.1424
  278MOL0     C36618   0.160  11.084   5.826 -0.2426 -0.7209 -0.2103
  278MOL0     C36619   0.092  10.984   5.895  0.2287 -0.9126  0.1497
  278MOL0     C36620   0.040  11.010   6.024  0.0159 -0.1879  0.5599
  278MOL0     C36621   0.060  11.129   6.080  0.0255  0.0629 -0.0369
  278MOL0     O36622   0.022  11.141   6.210 -0.3533  0.4399 -0.4029
  278MOL0     C36623   0.051  11.253   6.296 -1.1162  0.4193  1.0787
  278MOL0     C36624  -0.073  11.331   6.324 -0.8324  0.0238 -0.0264
  278MOL0     C36625  -0.053  11.414   6.459  0.7685  0.3392 -1.0149
  278MOL0     C36626  -0.060  11.313   6.580  0.0749 -0.7557 -0.3839
  278MOL0     C36627  -0.091  11.397   6.697 -0.2852  0.0770 -0.7321
  278MOL0     C36628  -0.117  11.443   6.806  0.0128  0.5965  0.8870
  278MOL0     C36629   0.128  11.235   6.016 -0.2854 -0.9887  0.1829
  278MOL0     C36630   0.166  11.212   5.883 -0.0212  0.4738 -0.2019
  278MOL0     H36631   0.201  11.146   5.422  0.8639 -0.5653  1.7870
  278MOL0     H36632   0.227  11.085   5.185  0.9617 -0.1331  0.1006
  278MOL0     H36633   0.022  10.717   5.049 -1.6608 -0.0084 -0.7074
  278MOL0     H36634   0.202  10.680   5.027  0.2047 -0.3819 -1.8974
  278MOL0     H36635   0.077  10.686   4.822 -2.1586 -0.4284  1.6707
  278MOL0     H36636   0.206  10.809   4.831 -0.6186 -0.5788 -0.4591
  278MOL0     H36637   0.030  10.986   4.892  0.1013  0.1497  0.0441
  278MOL0     H36638  -0.090  10.855   4.892 -1.2152  0.1889 -2.2953
  278MOL0     H36639  -0.022  10.818   4.643  3.2226 -0.4664  0.3612
  278MOL0     H36640  -0.139  10.937   4.699 -0.0289  1.4619 -3.4454
  278MOL0     H36641   0.155  11.029   4.667 -0.4640  0.5485  2.5813
  278MOL0     H36642   0.021  11.134   4.686  2.3079 -0.4117  2.5103
  278MOL0     H36643  -0.074  11.076   4.472 -0.4628 -0.3940  1.0786
  278MOL0     H36644   0.039  10.945   4.435 -0.8820 -0.7835  1.3171
  278MOL0     H36645   0.158  11.200   4.491  1.3140  1.2769 -1.1711
  278MOL0     H36646   0.217  11.064   4.393 -0.2820  0.0290  1.5762
  278MOL0     H36647  -0.020  11.116   4.259  0.4084 -1.1292  1.7165
  278MOL0     H36648   0.127  11.185   4.210  1.9441 -1.2560  1.6590
  278MOL0     H36649   0.204  11.420   4.385 -0.0267  0.8858  0.8721
  278MOL0     H36650  -0.031  11.721   4.414 -1.1843 -1.6135  0.3631
  278MOL0     H36651   0.126  11.694   4.315  0.8873 -1.4385  0.7013
  278MOL0     H36652   0.230  11.627   4.522  2.5887  4.3992  1.0870
  278MOL0     H36653   0.076  11.631   4.615  0.9244 -0.9337 -0.4390
  278MOL0     H36654   0.205  11.872   4.476  0.3616 -2.2835 -0.8003
  278MOL0     H36655   0.061  11.867   4.588  0.9052  0.0175  1.0634
  278MOL0     H36656   0.362  11.836   4.625 -1.2928  1.3106 -1.2839
  278MOL0     H36657   0.261  11.774   4.752  2.8929 -0.2702  0.4235
  278MOL0     H36658   0.020  11.906   4.787 -0.5323 -0.6882  0.6633
  278MOL0     H36659  -0.127  11.960   4.991  1.3093 -1.2559  0.9896
  278MOL0     H36660  -0.195  11.750   5.335  1.4265  0.8778  0.2287
  278MOL0     H36661  -0.340  11.707   5.537 -1.8064  0.5179  0.2469
  278MOL0     H36662  -0.335  12.013   5.852  2.5612 -0.8519 -0.1681
  278MOL0     H36663  -0.243  11.870   5.817  0.0938 -0.7646  0.6237
  278MOL0     H36664  -0.335  11.850   6.021 -0.5744  2.4268 -0.6397
  278MOL0     H36665  -0.411  11.727   5.894 -1.4853  0.5482 -0.8988
  278MOL0     H36666  -0.612  11.839   5.894 -2.0620 -1.4544  1.9537
  278MOL0     H36667  -0.542  11.981   5.986 -0.5920 -0.7787  3.9649
  278MOL0     H36668  -0.570  11.725   6.127 -2.6478 -0.4660 -0.0848
  278MOL0     H36669  -0.545  11.884   6.198  0.5172 -0.7826 -0.4140
  278MOL0     H36670  -0.783  11.761   6.047 -1.8299  0.3564  1.5688
  278MOL0     H36671  -0.776  11.934   6.076  0.2971 -0.3600 -0.9412
  278MOL0     H36672  -0.904  11.783   6.246 -0.0695  0.3756  2.0468
  278MOL0     H36673  -0.803  11.917   6.295 -0.0528  0.7746  0.6638
  278MOL0     H36674  -0.725  11.609   6.288 -0.5874  1.3452 -0.4995
  278MOL0     H36675  -0.638  11.751   6.356  0.2916  2.1261 -1.0136
  278MOL0     H36676  -0.751  11.576   6.514 -0.5691 -0.8139 -0.8974
  278MOL0     H36677  -0.894  11.642   6.433  0.7029 -0.4393 -2.0226
  278MOL0     H36678  -0.351  12.123   5.612  2.1622  1.0177 -0.9579
  278MOL0     H36679  -0.212  12.169   5.418  3.1392 -1.0940  3.6994
  278MOL0     H36680   0.235  12.135   5.160 -0.3767  0.9639 -1.3232
  278MOL0     H36681   0.360  12.080   4.968 -0.2198 -0.4556 -0.2943
  278MOL0     H36682   0.120  10.679   5.274 -1.8907  0.0529  4.0259
  278MOL0     H36683   0.143  10.718   5.500  3.5925 -0.7869 -1.2613
  278MOL0     H36684   0.092  10.881   5.863  1.5905 -0.7974 -0.2492
  278MOL0     H36685  -0.015  10.939   6.085 -2.4846  2.6910  1.9078
  278MOL0     H36686   0.129  11.316   6.252 -0.7066 -0.0008  1.2010
  278MOL0     H36687   0.098  11.220   6.388 -1.0495 -2.2725  0.1678
  278MOL0     H36688  -0.099  11.390   6.236  3.3611 -1.2800 -2.4497
  278MOL0     H36689  -0.154  11.262   6.350  1.1509 -1.9211  1.3934
  278MOL0     H36690  -0.140  11.480   6.467  1.1194  0.7671 -0.6985
  278MOL0     H36691   0.047  11.459   6.467  0.1606  1.3933  2.6465
  278MOL0     H36692  -0.142  11.242   6.566 -0.8391  0.3759 -0.8895
  278MOL0     H36693   0.035  11.262   6.600 -0.5707 -3.1119 -2.6837
  278MOL0     H36694  -0.152  11.480   6.900  0.4936 -0.3158  1.4408
  278MOL0     H36695   0.129  11.334   6.061 -0.6487  0.2045 -2.2786
  278MOL0     H36696   0.228  11.288   5.837  2.0488 -0.3052  1.1494
  279MOL0     O36697   7.781   0.577   7.222  0.3823 -0.3196  0.3799
  279MOL0     C36698   7.724   0.642   7.136  0.6268 -1.5839  0.1436
  279MOL0     O36699   7.661   0.766   7.157  0.3717  0.0659 -0.6395
  279MOL0     C36700   7.692   0.830   7.281  0.5987  0.4600  0.3237
  279MOL0     C36701   7.628   0.790   7.397 -1.0517  0.2712 -0.7643
  279MOL0     C36702   7.650   0.849   7.518  0.1673 -0.4683 -0.0912
  279MOL0     C36703   7.747   0.945   7.531 -0.5339 -0.4588  1.2342
  279MOL0     O36704   7.762   0.998   7.649  0.3741 -0.3120 -0.8394
  279MOL0     C36705   7.901   1.008   7.691 -0.0012  1.5313  0.2479
  279MOL0     C36706   7.924   0.976   7.831 -0.4696 -0.6182 -0.4401
  279MOL0     C36707   7.920   0.827   7.855  0.4849 -0.0841 -0.1215
  279MOL0     C36708   7.908   0.778   8.009  0.2215  0.4064  0.6191
  279MOL0     C36709   8.028   0.814   8.100 -0.1101 -0.4098 -0.1398
  279MOL0     C36710   8.038   0.734   8.228  0.5737  0.5962 -0.4867
  279MOL0     C36711   7.914   0.743   8.314 -1.2923 -0.7236  0.0064
  279MOL0     C36712   7.932   0.671   8.450  0.5668 -0.5369  0.1291
  279MOL0     N36713   8.022   0.733   8.538 -0.0464  0.3684 -0.4801
  279MOL0     C36714   7.987   0.848   8.618 -0.1842  0.0422 -0.3232
  279MOL0     C36715   8.104   0.890   8.659  0.4014  0.8092 -0.0762
  279MOL0     C36716   8.129   1.013   8.736  0.3126 -0.6336 -0.7046
  279MOL0     C36717   8.100   0.988   8.891 -0.3788 -0.1169  0.3801
  279MOL0     C36718   8.194   0.886   8.948 -0.3769  0.4000 -0.4961
  279MOL0     C36719   8.158   0.828   9.086  0.6995 -0.0764 -0.4042
  279MOL0     O36720   8.267   0.748   9.110  0.2653 -0.4093  0.1236
  279MOL0     C36721   8.277   0.657   9.219 -0.1002 -0.3333  0.7785
  279MOL0     C36722   8.385   0.568   9.218  0.2416 -0.5132  0.7073
  279MOL0     C36723   8.398   0.463   9.313  0.3630 -0.9279 -1.7846
  279MOL0     C36724   8.289   0.428   9.393 -0.5012  0.7043  0.2792
  279MOL0     C36725   8.286   0.312   9.488  1.2164 -0.3289 -0.6059
  279MOL0     O36726   8.397   0.229   9.493 -0.8857 -1.1079  0.7121
  279MOL0     C36727   8.406   0.129   9.589 -0.3307 -0.6863 -0.4154
  279MOL0     C36728   8.434   0.007   9.540  0.3286  0.5203 -0.7106
  279MOL0     C36729   8.451  -0.107   9.620  0.4540 -0.7569  0.7033
  279MOL0     C36730   8.436  -0.092   9.760 -0.4424 -0.3265 -0.4169
  279MOL0     O36731   8.464  -0.205   9.843  0.4135  0.6379  0.1993
  279MOL0     C36732   8.597  -0.267   9.847  0.4661  1.2688  0.3716
  279MOL0     C36733   8.695  -0.205   9.948  0.6771  0.4302 -0.0298
  279MOL0     C36734   8.675  -0.269  10.084  0.1932  0.3029 -0.0603
  279MOL0     C36735   8.761  -0.205  10.196 -0.5182 -0.4938 -0.3080
  279MOL0     C36736   8.770  -0.281  10.335 -0.6461  0.0304 -0.0863
  279MOL0     C36737   8.914  -0.261  10.388  0.5094 -0.4158  0.4410
  279MOL0     C36738   8.916  -0.122  10.462  0.0730 -0.1720  0.1744
  279MOL0     C36739   9.039  -0.104  10.552  1.1790 -0.0032 -0.2002
  279MOL0    Cl36740   9.024   0.050  10.626 -0.4554 -0.4365  0.2744
  279MOL0     C36741   8.408   0.038   9.813 -0.9312  1.6638  0.9965
  279MOL0     C36742   8.399   0.146   9.731  0.0894 -0.0819  0.2586
  279MOL0     O36743   8.182   0.304   9.562 -0.7177  0.1175  0.1296
  279MOL0     C36744   8.178   0.516   9.383 -0.2511 -0.5364 -0.1025
  279MOL0     C36745   8.169   0.636   9.304 -0.3498 -0.0465 -0.1555
  279MOL0     N36746   8.195   0.799   8.621 -0.4745  0.2706 -0.0979
  279MOL0     N36747   8.150   0.703   8.552 -0.4037 -0.5752 -0.0211
  279MOL0     C36748   7.801   1.000   7.418 -0.0282  0.2072 -0.5622
  279MOL0     C36749   7.781   0.935   7.294  0.7857  0.0421  0.7312
  279MOL0     C36750   7.705   0.574   7.011  0.3287 -0.5938  0.6217
  279MOL0     C36751   7.744   0.442   7.004  1.3405  0.9613  0.1581
  279MOL0     C36752   7.726   0.365   6.877 -0.3301 -0.0987  0.5714
  279MOL0     C36753   7.672   0.428   6.765 -1.9500  0.6383 -0.1716
  279MOL0     O36754   7.641   0.353   6.653  0.4849  0.0742  0.4101
  279MOL0     C36755   7.557   0.405   6.547  0.2549  0.3681 -1.1279
  279MOL0     C36756   7.405   0.433   6.591 -0.8408 -0.5208  0.2126
  279MOL0     C36757   7.302   0.422   6.475 -0.4921  0.3176  0.0389
  279MOL0     C36758   7.166   0.476   6.521 -1.0903  0.1102 -0.7186
  279MOL0     C36759   7.105   0.378   6.611 -0.0967 -0.0114 -1.4504
  279MOL0     C36760   7.060   0.303   6.699  1.4272  0.4695 -0.6779
  279MOL0     C36761   7.636   0.570   6.777  0.5899  1.0226  0.0885
  279MOL0     C36762   7.648   0.638   6.902 -0.4776  0.0710 -0.0784
  279MOL0     H36763   7.556   0.709   7.396 -0.6966 -0.0739  0.1993
  279MOL0     H36764   7.610   0.813   7.613 -0.5924 -0.7926 -0.5254
  279MOL0     H36765   7.938   1.108   7.668  1.0121  1.6507  2.1397
  279MOL0     H36766   7.978   0.959   7.630  0.5533  3.9470 -1.1285
  279MOL0     H36767   7.858   1.028   7.901 -1.8577 -1.2919 -1.2063
  279MOL0     H36768   8.026   1.013   7.846  0.1542 -1.2702 -2.6221
  279MOL0     H36769   8.007   0.775   7.814 -0.9014 -2.5439 -0.0817
  279MOL0     H36770   7.834   0.786   7.803  1.2028  0.5965 -1.9204
  279MOL0     H36771   7.821   0.833   8.045 -1.9729 -0.7883 -2.3774
  279MOL0     H36772   7.891   0.671   8.022  0.6716  0.5426  2.5222
  279MOL0     H36773   8.006   0.919   8.119  0.0383 -0.4113  0.0368
  279MOL0     H36774   8.120   0.812   8.040 -0.5032  2.0051 -0.9514
  279MOL0     H36775   8.131   0.764   8.277  1.4727 -2.0337 -0.3809
  279MOL0     H36776   8.056   0.633   8.189  2.4319  1.3613 -1.7208
  279MOL0     H36777   7.887   0.846   8.337  0.5621 -0.8421  3.2015
  279MOL0     H36778   7.830   0.711   8.251 -1.4131 -2.0263  0.7700
  279MOL0     H36779   7.952   0.566   8.430  2.2718 -0.1506 -0.3822
  279MOL0     H36780   7.839   0.682   8.508  0.2893  0.3755 -0.4550
  279MOL0     H36781   7.893   0.902   8.612 -0.9472 -1.2491 -0.4343
  279MOL0     H36782   8.056   1.082   8.695  0.2544  1.2326  2.2388
  279MOL0     H36783   8.232   1.044   8.715  0.8662 -0.2369  2.1538
  279MOL0     H36784   7.995   0.960   8.898  0.0834 -1.5908  2.9110
  279MOL0     H36785   8.121   1.078   8.950  0.1741 -0.7201  1.1384
  279MOL0     H36786   8.196   0.805   8.874 -1.7492  1.2558 -1.5336
  279MOL0     H36787   8.280   0.954   8.948 -1.3011  1.6321 -2.0566
  279MOL0     H36788   8.059   0.782   9.069  0.0461  1.2089 -0.1880
  279MOL0     H36789   8.139   0.907   9.158  1.8182 -0.4826  0.3549
  279MOL0     H36790   8.464   0.590   9.147 -1.8808 -0.5049 -1.8030
  279MOL0     H36791   8.490   0.406   9.306 -0.1770 -1.7076 -2.7071
  279MOL0     H36792   8.440  -0.007   9.432 -0.1863 -4.5426 -0.3209
  279MOL0     H36793   8.466  -0.199   9.564  1.4300 -1.9111  2.7419
  279MOL0     H36794   8.644  -0.270   9.749 -1.9934  1.8711 -0.8889
  279MOL0     H36795   8.589  -0.375   9.863  0.3088  0.8562 -2.1711
  279MOL0     H36796   8.676  -0.099   9.966 -3.1493  0.4169 -2.6986
  279MOL0     H36797   8.795  -0.235   9.915 -0.6906 -2.1921 -2.1335
  279MOL0     H36798   8.693  -0.377  10.079  0.9055  0.4004  0.3056
  279MOL0     H36799   8.569  -0.254  10.105  0.2820  0.3108  0.3949
  279MOL0     H36800   8.865  -0.196  10.162 -0.2497  1.2416  0.8258
  279MOL0     H36801   8.747  -0.097  10.200  1.5977 -0.1672 -0.1458
  279MOL0     H36802   8.765  -0.390  10.329  1.4820 -0.3544  2.8425
  279MOL0     H36803   8.686  -0.252  10.399 -0.9937  2.5159 -1.5452
  279MOL0     H36804   8.989  -0.281  10.311  0.6539 -2.4959  1.0677
  279MOL0     H36805   8.933  -0.340  10.461 -2.1989 -2.4179 -0.8560
  279MOL0     H36806   8.922  -0.048  10.381  0.8933 -0.4339 -0.0129
  279MOL0     H36807   8.822  -0.101  10.514 -0.8687  0.2643 -1.5984
  279MOL0     H36808   9.133  -0.115  10.497  0.4417  1.4836 -1.8740
  279MOL0     H36809   9.032  -0.186  10.623  0.3913  0.3034  0.0942
  279MOL0     H36810   8.400   0.047   9.921  2.4370  0.9535  1.4241
  279MOL0     H36811   8.387   0.248   9.766  0.2191  1.1294 -2.9456
  279MOL0     H36812   8.083   0.509   9.434 -2.4656  0.7256 -3.6757
  279MOL0     H36813   8.077   0.693   9.309  0.0907  0.8774 -1.7421
  279MOL0     H36814   7.872   1.081   7.427  1.5402 -0.9619 -1.8473
  279MOL0     H36815   7.842   0.956   7.207  2.4700 -0.1082  1.8220
  279MOL0     H36816   7.777   0.387   7.092  1.7862  1.8616  0.5661
  279MOL0     H36817   7.739   0.257   6.876  0.1630 -0.0416 -0.7702
  279MOL0     H36818   7.557   0.330   6.467  0.4235  1.5900 -2.3238
  279MOL0     H36819   7.612   0.489   6.503  2.8644 -0.3438  0.5237
  279MOL0     H36820   7.374   0.374   6.678 -0.1488  0.7908  1.3888
  279MOL0     H36821   7.397   0.535   6.630 -4.4151  0.0883 -1.7699
  279MOL0     H36822   7.286   0.320   6.440  0.8234 -1.8842  4.9084
  279MOL0     H36823   7.326   0.491   6.393 -3.0554  1.3291  0.0478
  279MOL0     H36824   7.182   0.575   6.564  0.2774  0.6729 -2.4073
  279MOL0     H36825   7.105   0.483   6.430 -0.2811 -1.6302 -1.4283
  279MOL0     H36826   7.020   0.227   6.764  2.1917 -1.6506 -2.5693
  279MOL0     H36827   7.590   0.616   6.690  0.1108 -0.9798 -0.7795
  279MOL0     H36828   7.625   0.744   6.909 -0.8885 -0.0502  0.4175
  280MOL0     O36829   7.696  10.137   7.379 -0.0919  0.0445 -0.8805
  280MOL0     C36830   7.768  10.240   7.402 -0.7673  0.9150  0.4040
  280MOL0     O36831   7.907  10.240   7.385  0.4358 -0.3081 -0.9008
  280MOL0     C36832   7.974  10.123   7.383 -0.8332 -0.9054 -0.0634
  280MOL0     C36833   7.935  10.012   7.447  0.1135  0.5722 -1.0315
  280MOL0     C36834   8.013   9.894   7.438  0.0554  0.3139 -0.9527
  280MOL0     C36835   8.141   9.902   7.376  0.1930 -0.5102 -0.0256
  280MOL0     O36836   8.226   9.796   7.389  0.3671 -0.0026 -0.1131
  280MOL0     C36837   8.292   9.752   7.273 -0.4406  1.1420  0.0914
  280MOL0     C36838   8.257   9.607   7.236 -1.0748 -0.1644 -0.1350
  280MOL0     C36839   8.347   9.503   7.320 -0.3519 -0.2045  0.1205
  280MOL0     C36840   8.496   9.501   7.295 -0.4259 -0.4851 -0.3601
  280MOL0     C36841   8.568   9.372   7.351 -0.4088  1.2376 -0.3779
  280MOL0     C36842   8.703   9.356   7.280  0.8866  0.6305 -0.2581
  280MOL0     C36843   8.817   9.444   7.339 -0.7791 -0.2780  0.1381
  280MOL0     C36844   8.887   9.380   7.457  0.9246  0.8222  0.7492
  280MOL0     N36845   9.018   9.442   7.470  0.5383 -0.8795 -0.6511
  280MOL0     C36846   9.136   9.380   7.449  0.7512 -1.2703  0.7202
  280MOL0     C36847   9.227   9.475   7.464 -0.5145 -0.7959 -0.3226
  280MOL0     C36848   9.379   9.475   7.450  0.6427  0.2311  0.8578
  280MOL0     C36849   9.453   9.448   7.319 -0.3370  0.7118  1.1729
  280MOL0     C36850   9.446   9.577   7.229  0.3180  0.6838 -0.2723
  280MOL0     C36851   9.305   9.617   7.195  0.1520  0.2439  0.5929
  280MOL0     O36852   9.299   9.677   7.065  0.7291 -0.3806  0.0061
  280MOL0     C36853   9.168   9.691   7.015 -0.8688 -0.2003  0.4715
  280MOL0     C36854   9.154   9.681   6.872  0.4833  0.0220 -0.7486
  280MOL0     C36855   9.027   9.663   6.822 -0.6651  0.1268  0.1618
  280MOL0     C36856   8.900   9.676   6.900  0.2538  1.8203 -0.7396
  280MOL0     C36857   8.767   9.647   6.852  0.6696  0.3702 -0.3865
  280MOL0     O36858   8.665   9.688   6.929  0.2647  0.1965 -0.3798
  280MOL0     C36859   8.535   9.688   6.900 -0.0616 -1.5271 -0.2867
  280MOL0     C36860   8.458   9.578   6.865 -0.5151  0.5867 -0.0495
  280MOL0     C36861   8.317   9.585   6.835  0.6614 -0.6721 -0.9646
  280MOL0     C36862   8.260   9.704   6.833  1.2174 -0.5304 -0.0457
  280MOL0     O36863   8.122   9.696   6.803  0.3182 -0.0372  0.3237
  280MOL0     C36864   8.031   9.803   6.836  0.6107 -0.5916 -1.3288
  280MOL0     C36865   7.917   9.712   6.881 -0.2628 -0.6401 -0.0316
  280MOL0     C36866   7.892   9.721   7.031 -0.3871  0.2107 -0.7885
  280MOL0     C36867   7.811   9.596   7.070 -0.2183  0.0041 -1.3746
  280MOL0     C36868   7.755   9.607   7.215 -0.1634 -0.3645  0.6601
  280MOL0     C36869   7.649   9.718   7.230  0.4855 -0.1676 -0.6437
  280MOL0     C36870   7.575   9.709   7.367 -0.3931 -0.1558  0.0770
  280MOL0     C36871   7.478   9.819   7.381 -0.4193 -0.5884 -0.1272
  280MOL0    Cl36872   7.390   9.789   7.531  0.4428 -0.4059 -0.2273
  280MOL0     C36873   8.339   9.817   6.850  0.5480  0.1363  0.0127
  280MOL0     C36874   8.476   9.812   6.886  0.7213 -1.7858  0.0430
  280MOL0     O36875   8.752   9.611   6.738  0.1606  0.6196  0.7529
  280MOL0     C36876   8.921   9.680   7.043  0.5549 -0.1865  1.1452
  280MOL0     C36877   9.055   9.693   7.091  0.0617  0.6880 -0.0411
  280MOL0     N36878   9.160   9.592   7.489  0.1847 -0.4723  0.1174
  280MOL0     N36879   9.035   9.569   7.504 -0.3777 -0.1327 -0.4524
  280MOL0     C36880   8.178  10.018   7.305 -0.6863  0.9965  0.3460
  280MOL0     C36881   8.093  10.127   7.314  0.2305  1.0057  0.3815
  280MOL0     C36882   7.704  10.365   7.431 -0.4547 -0.0056 -0.1862
  280MOL0     C36883   7.577  10.390   7.381 -0.1610  0.1591  0.3815
  280MOL0     C36884   7.510  10.506   7.413 -0.2750  0.8975  0.2489
  280MOL0     C36885   7.566  10.598   7.503  0.7167  0.2223  0.0796
  280MOL0     O36886   7.489  10.709   7.529 -0.5404  0.7399 -0.1719
  280MOL0     C36887   7.464  10.737   7.668 -0.1221  0.6288 -0.0853
  280MOL0     C36888   7.344  10.819   7.674  0.5077 -0.2072  0.3001
  280MOL0     C36889   7.263  10.809   7.805 -0.3095  0.4471  0.8497
  280MOL0     C36890   7.150  10.915   7.813  0.0052 -0.4326 -0.3200
  280MOL0     C36891   7.058  10.920   7.687  0.8947  0.4686 -1.2224
  280MOL0     C36892   6.993  10.951   7.588  0.2357  0.3370  0.6871
  280MOL0     C36893   7.684  10.562   7.558 -0.5950  0.2399 -0.6552
  280MOL0     C36894   7.760  10.455   7.521  0.5390 -0.0596  0.1185
  280MOL0     H36895   7.840  10.013   7.499  0.3131  0.1379 -0.6533
  280MOL0     H36896   7.980   9.801   7.484  1.3059 -0.2388 -1.1545
  280MOL0     H36897   8.400   9.764   7.264 -0.6478  2.0557 -1.5665
  280MOL0     H36898   8.257   9.810   7.187 -1.3940 -0.7919 -0.8896
  280MOL0     H36899   8.279   9.591   7.130  2.0391  0.9491  0.2574
  280MOL0     H36900   8.149   9.591   7.252 -1.3805  1.3973 -0.5446
  280MOL0     H36901   8.300   9.406   7.303 -3.7458  1.6439 -2.5350
  280MOL0     H36902   8.336   9.536   7.424 -0.4025  0.3621 -0.0578
  280MOL0     H36903   8.518   9.508   7.188 -2.4537 -0.6113 -0.8223
  280MOL0     H36904   8.543   9.593   7.329 -0.3049  0.8963 -3.8309
  280MOL0     H36905   8.504   9.287   7.325  1.5597 -0.2752 -0.4852
  280MOL0     H36906   8.584   9.363   7.459  1.8585 -1.1287 -0.8044
  280MOL0     H36907   8.691   9.399   7.180 -0.0132  1.9729  0.3987
  280MOL0     H36908   8.727   9.249   7.274  1.0488  0.4938  2.0597
  280MOL0     H36909   8.888   9.460   7.258  2.1820 -2.1583  2.1807
  280MOL0     H36910   8.784   9.543   7.370  0.0751  0.2632 -0.6429
  280MOL0     H36911   8.897   9.272   7.444 -2.5129  0.1250  2.7237
  280MOL0     H36912   8.821   9.399   7.542  0.1384 -0.8301  0.5337
  280MOL0     H36913   9.164   9.278   7.427  0.9360 -0.5386 -3.0946
  280MOL0     H36914   9.399   9.405   7.531 -5.7379 -2.2242  0.9094
  280MOL0     H36915   9.416   9.574   7.479  0.8772  0.9439 -1.6300
  280MOL0     H36916   9.404   9.363   7.269 -0.7629  2.1823 -1.0604
  280MOL0     H36917   9.559   9.423   7.330 -0.8132 -0.3794  4.2235
  280MOL0     H36918   9.497   9.658   7.280 -1.9181  1.1134  1.4425
  280MOL0     H36919   9.504   9.561   7.138  1.7400  0.3653  0.6563
  280MOL0     H36920   9.272   9.691   7.269 -0.4291  1.1908 -0.5853
  280MOL0     H36921   9.236   9.534   7.211 -0.5339  1.2122  3.2333
  280MOL0     H36922   9.247   9.684   6.816  0.9857  2.1660  0.1121
  280MOL0     H36923   9.011   9.658   6.715 -1.0768 -1.6715  0.2788
  280MOL0     H36924   8.517   9.487   6.866  2.4833  2.4040  0.8757
  280MOL0     H36925   8.254   9.497   6.828  0.0348 -0.3038 -0.1421
  280MOL0     H36926   8.011   9.860   6.745 -1.9035  0.7270 -0.0766
  280MOL0     H36927   8.052   9.878   6.914  0.3342 -0.8585 -0.9941
  280MOL0     H36928   7.933   9.612   6.839  0.9140  1.0886 -4.2924
  280MOL0     H36929   7.833   9.764   6.836  0.1034  1.4073  1.5132
  280MOL0     H36930   7.838   9.814   7.052 -0.4707  0.5594 -2.4361
  280MOL0     H36931   7.985   9.715   7.087 -0.0222 -5.4276 -1.3874
  280MOL0     H36932   7.733   9.569   6.998  0.1791 -2.8018 -0.8867
  280MOL0     H36933   7.872   9.507   7.051 -3.4891 -2.7745 -0.0692
  280MOL0     H36934   7.832   9.624   7.292 -0.1902  1.2170  0.3823
  280MOL0     H36935   7.718   9.512   7.254  0.4582 -0.4092  1.1536
  280MOL0     H36936   7.575   9.712   7.149 -0.6602 -2.0349  0.4565
  280MOL0     H36937   7.707   9.811   7.228  1.1865 -0.6031 -0.9015
  280MOL0     H36938   7.511   9.620   7.372  0.0386 -0.4156  1.9402
  280MOL0     H36939   7.642   9.697   7.453  1.9363 -1.5118 -1.8047
  280MOL0     H36940   7.420   9.822   7.288  0.4554 -0.3841 -0.6827
  280MOL0     H36941   7.533   9.913   7.378 -2.0864  0.4134 -0.5032
  280MOL0     H36942   8.286   9.912   6.841 -5.6595 -2.5168  2.8832
  280MOL0     H36943   8.525   9.908   6.899 -0.8534 -0.8488 -0.5932
  280MOL0     H36944   8.838   9.656   7.110 -2.8967  0.9240 -2.3188
  280MOL0     H36945   9.083   9.687   7.196  2.2400  3.2228 -0.3597
  280MOL0     H36946   8.272  10.025   7.251  0.4038 -1.8787  1.7122
  280MOL0     H36947   8.116  10.210   7.249 -0.4448  1.5161  0.7905
  280MOL0     H36948   7.530  10.325   7.308  0.4304  1.4919 -1.2443
  280MOL0     H36949   7.409  10.525   7.379  0.4776 -0.2042 -2.8844
  280MOL0     H36950   7.551  10.784   7.714  0.2295  0.3523 -0.4580
  280MOL0     H36951   7.454  10.645   7.727 -0.3083  1.8145  1.8049
  280MOL0     H36952   7.365  10.924   7.649  0.1239 -0.4638 -1.2034
  280MOL0     H36953   7.284  10.798   7.585 -3.4728  0.8200  2.5183
  280MOL0     H36954   7.338  10.829   7.882  3.5334 -0.8009 -2.2717
  280MOL0     H36955   7.214  10.714   7.825 -0.2470  0.8640  3.2547
  280MOL0     H36956   7.087  10.902   7.901  1.7185 -2.9334  0.6466
  280MOL0     H36957   7.185  11.018   7.825 -1.1512 -0.0551 -0.0250
  280MOL0     H36958   6.949  10.980   7.495 -1.8163  2.5482  2.2308
  280MOL0     H36959   7.742  10.630   7.621  1.9307  1.1147 -3.6687
  280MOL0     H36960   7.849  10.423   7.575 -0.3225 -0.2657  1.4625
  281MOL0     O36961   3.550  10.479   1.463  0.1820 -1.5174  0.4834
  281MOL0     C36962   3.633  10.422   1.529  0.4513  1.0310  1.0308
  281MOL0     O36963   3.614  10.303   1.579  0.3969 -0.8473 -0.9174
  281MOL0     C36964   3.493  10.235   1.574 -0.4823 -0.1343 -0.5161
  281MOL0     C36965   3.503  10.119   1.496  0.0918 -0.1737  0.4434
  281MOL0     C36966   3.386  10.043   1.482  0.0891  0.8446 -0.2378
  281MOL0     C36967   3.260  10.084   1.537 -0.1548 -0.9185 -0.8942
  281MOL0     O36968   3.134  10.037   1.529 -0.5415  0.2448 -0.2417
  281MOL0     C36969   3.098   9.930   1.446  0.6228 -0.3353  0.1349
  281MOL0     C36970   2.983   9.971   1.352  0.1771 -0.3814  0.2118
  281MOL0     C36971   2.850   9.992   1.425  0.0275  0.2103 -0.1922
  281MOL0     C36972   2.836  10.127   1.502  0.0567 -0.7971 -0.8059
  281MOL0     C36973   2.695  10.165   1.549 -0.0348 -0.3206 -1.0989
  281MOL0     C36974   2.705  10.299   1.635 -0.3083 -0.0363 -0.8393
  281MOL0     C36975   2.747  10.418   1.544 -0.2704  1.0424  0.4006
  281MOL0     C36976   2.885  10.485   1.579 -0.8862 -0.3039  0.7602
  281MOL0     N36977   2.933  10.568   1.467 -0.5699  0.0885 -0.0531
  281MOL0     C36978   3.027  10.527   1.375  0.1186 -0.4089 -0.0466
  281MOL0     C36979   3.032  10.638   1.294 -0.2889  0.2049  0.8965
  281MOL0     C36980   3.131  10.648   1.187 -1.1752  0.4980  0.1739
  281MOL0     C36981   3.261  10.726   1.239  0.1991  0.6070  0.0831
  281MOL0     C36982   3.380  10.708   1.143 -0.3911 -0.7073 -0.2602
  281MOL0     C36983   3.521  10.737   1.214  0.2580 -0.0708  0.4068
  281MOL0     O36984   3.532  10.879   1.212 -0.0967 -0.4680  0.2836
  281MOL0     C36985   3.648  10.913   1.278 -0.6832  0.3631 -0.1576
  281MOL0     C36986   3.648  10.962   1.406  1.0185  0.5582 -0.0698
  281MOL0     C36987   3.757  11.019   1.465  0.2126 -0.0400 -0.4526
  281MOL0     C36988   3.879  11.001   1.417 -0.0391  0.8907  0.4166
  281MOL0     C36989   4.005  11.049   1.486 -0.1516  0.1507  0.1082
  281MOL0     O36990   4.019  11.070   1.612 -0.4103 -0.7285 -0.0456
  281MOL0     C36991   4.134  11.132   1.663  0.2508  0.4520 -0.1522
  281MOL0     C36992   4.176  11.248   1.610 -0.3123 -0.0589  0.4325
  281MOL0     C36993   4.274  11.325   1.683 -0.1074 -0.1333 -0.0476
  281MOL0     C36994   4.312  11.283   1.810  0.8492  0.6693 -0.1498
  281MOL0     O36995   4.405  11.365   1.867  0.0752  0.7046  0.0425
  281MOL0     C36996   4.429  11.354   2.008 -0.1139  1.0516  0.3802
  281MOL0     C36997   4.512  11.482   2.046  0.1918 -0.6627 -0.9126
  281MOL0     C36998   4.552  11.463   2.200 -0.1249 -0.5951 -0.3019
  281MOL0     C36999   4.552  11.607   2.264  1.0833  0.3638 -0.5542
  281MOL0     C37000   4.552  11.597   2.418  0.5282  0.5369 -0.2314
  281MOL0     C37001   4.686  11.549   2.475 -0.2596 -0.1338 -0.3685
  281MOL0     C37002   4.678  11.532   2.628  0.8548 -0.6627 -0.1302
  281MOL0     C37003   4.798  11.442   2.660  0.7427 -0.1654  0.8020
  281MOL0    Cl37004   4.723  11.287   2.663 -0.1250 -0.0675  0.1142
  281MOL0     C37005   4.249  11.181   1.865 -0.6947 -0.0071 -0.2782
  281MOL0     C37006   4.169  11.097   1.791  0.1933  0.4832  0.3293
  281MOL0     O37007   4.090  11.064   1.402 -0.4270 -0.3268  0.0270
  281MOL0     C37008   3.894  10.919   1.296  0.1335 -0.3146 -0.3700
  281MOL0     C37009   3.774  10.887   1.221 -0.2269  0.8950 -0.4362
  281MOL0     N37010   2.952  10.742   1.331  0.9582 -0.0394  0.0233
  281MOL0     N37011   2.897  10.703   1.440 -0.5786  0.3386 -0.6314
  281MOL0     C37012   3.264  10.197   1.616 -0.2307 -0.1923  0.3165
  281MOL0     C37013   3.374  10.281   1.626 -0.2591 -0.4570  0.5875
  281MOL0     C37014   3.767  10.469   1.548  0.0562 -0.0473 -0.1938
  281MOL0     C37015   3.865  10.392   1.618  0.0713 -0.6637 -0.2699
  281MOL0     C37016   3.989  10.445   1.651 -0.4761  0.1563 -1.2002
  281MOL0     C37017   4.024  10.575   1.621  0.7104 -0.6604 -0.8233
  281MOL0     O37018   4.149  10.624   1.656  0.1850  0.2533 -0.1535
  281MOL0     C37019   4.176  10.762   1.634  0.0879 -0.0613  0.4525
  281MOL0     C37020   4.323  10.796   1.673  0.4102  0.6040  0.1935
  281MOL0     C37021   4.348  10.802   1.828  0.3685 -0.2388  0.6964
  281MOL0     C37022   4.496  10.836   1.860  0.1950 -0.0367  0.2250
  281MOL0     C37023   4.521  10.965   1.803  0.0054 -0.1326 -0.3424
  281MOL0     C37024   4.534  11.070   1.753 -0.8459  0.1378 -0.6141
  281MOL0     C37025   3.922  10.658   1.566  1.0978 -0.0784 -0.2023
  281MOL0     C37026   3.798  10.609   1.528 -0.8513  0.0643  0.2060
  281MOL0     H37027   3.593  10.093   1.441 -0.6815  0.1703 -1.0045
  281MOL0     H37028   3.390   9.938   1.455 -4.6406  0.0009  1.4127
  281MOL0     H37029   3.064   9.837   1.493  1.7233 -3.1192 -4.0843
  281MOL0     H37030   3.172   9.906   1.369 -0.5193  0.3668 -1.2222
  281MOL0     H37031   2.967   9.891   1.278 -1.9341  1.7116 -1.7564
  281MOL0     H37032   3.022  10.060   1.301 -0.1431  0.4012  1.3064
  281MOL0     H37033   2.851   9.911   1.500  0.5275  0.9307  0.5963
  281MOL0     H37034   2.770   9.980   1.352  0.1733  0.8479 -0.4588
  281MOL0     H37035   2.888  10.109   1.596  0.3364  2.4980 -0.2171
  281MOL0     H37036   2.875  10.212   1.445 -1.6417  0.4071 -0.2742
  281MOL0     H37037   2.643  10.091   1.610 -0.2455 -0.5424 -1.5437
  281MOL0     H37038   2.637  10.182   1.458  0.5027  0.9298 -1.2333
  281MOL0     H37039   2.769  10.271   1.719  0.8761  0.8483 -1.4064
  281MOL0     H37040   2.608  10.320   1.680  1.7011 -0.9883  4.6794
  281MOL0     H37041   2.718  10.388   1.442 -2.5684  0.7481  1.1013
  281MOL0     H37042   2.681  10.501   1.568 -0.2974  1.9479 -2.3655
  281MOL0     H37043   2.949  10.404   1.615 -1.1946 -0.6654  0.5143
  281MOL0     H37044   2.867  10.546   1.668 -1.6508 -2.3104  2.0618
  281MOL0     H37045   3.087  10.437   1.378  2.3680  0.9671 -1.2679
  281MOL0     H37046   3.090  10.708   1.105 -2.1276  1.3561  1.2614
  281MOL0     H37047   3.153  10.549   1.147  1.7571  0.4045  1.7640
  281MOL0     H37048   3.279  10.672   1.332 -5.2764 -1.9755  0.0288
  281MOL0     H37049   3.222  10.828   1.251 -1.8215 -0.2846  1.6410
  281MOL0     H37050   3.382  10.599   1.128 -0.4593 -1.1849  2.5341
  281MOL0     H37051   3.363  10.757   1.047 -1.1755 -2.9944 -1.3738
  281MOL0     H37052   3.599  10.680   1.163 -0.9910 -2.8099  1.3516
  281MOL0     H37053   3.518  10.706   1.319  1.6964 -0.8881  0.2300
  281MOL0     H37054   3.548  10.970   1.446  0.9636 -1.9067  0.4801
  281MOL0     H37055   3.737  11.065   1.561 -2.2259 -0.2463 -0.7993
  281MOL0     H37056   4.133  11.280   1.515 -0.2751 -0.9725  0.0984
  281MOL0     H37057   4.314  11.411   1.631 -2.2906  0.9669  0.0005
  281MOL0     H37058   4.469  11.255   2.034 -0.6012  1.2111  1.8354
  281MOL0     H37059   4.328  11.367   2.047 -1.4859 -2.8361 -1.3694
  281MOL0     H37060   4.441  11.565   2.034 -0.1446 -0.7404  0.3743
  281MOL0     H37061   4.599  11.485   1.980  0.6077 -2.7730 -0.5323
  281MOL0     H37062   4.645  11.407   2.186  0.6835  0.8588 -0.9323
  281MOL0     H37063   4.487  11.403   2.265 -2.8575  0.9791 -1.3940
  281MOL0     H37064   4.643  11.655   2.226  1.0532  1.2821  0.4939
  281MOL0     H37065   4.462  11.664   2.240  0.4463 -0.3085  0.1839
  281MOL0     H37066   4.474  11.528   2.451 -0.4133  0.9040 -1.5976
  281MOL0     H37067   4.523  11.694   2.457 -0.0029  0.2126  0.1910
  281MOL0     H37068   4.762  11.628   2.465 -0.6594  0.5306  1.3831
  281MOL0     H37069   4.710  11.449   2.439 -0.6587 -0.1227 -0.6805
  281MOL0     H37070   4.689  11.620   2.692 -1.5500 -2.8681  3.6852
  281MOL0     H37071   4.585  11.486   2.662  1.4505 -1.2726  0.6990
  281MOL0     H37072   4.831  11.463   2.762  0.9219  1.7492  0.3805
  281MOL0     H37073   4.875  11.439   2.582 -1.4631 -3.9136 -1.5700
  281MOL0     H37074   4.263  11.151   1.969 -1.9459  3.0412  0.8813
  281MOL0     H37075   4.119  11.012   1.837 -0.4390 -0.0894 -1.3305
  281MOL0     H37076   3.992  10.896   1.255  1.3150  1.5473  1.2776
  281MOL0     H37077   3.800  10.863   1.119  0.5213 -2.3344  0.3992
  281MOL0     H37078   3.172  10.234   1.660 -0.7664  1.3103 -1.8941
  281MOL0     H37079   3.375  10.374   1.682 -0.6414 -0.0886  0.0054
  281MOL0     H37080   3.849  10.287   1.642  1.1864 -0.1858  3.1948
  281MOL0     H37081   4.059  10.373   1.692  0.1499  0.0443 -2.4330
  281MOL0     H37082   4.112  10.828   1.693  0.4369  0.5027  0.2085
  281MOL0     H37083   4.168  10.777   1.526 -1.3133 -1.2257  0.3615
  281MOL0     H37084   4.388  10.729   1.616  1.0934  1.6112 -0.2572
  281MOL0     H37085   4.340  10.891   1.620  0.7731  1.4281  1.7311
  281MOL0     H37086   4.314  10.704   1.865 -0.8852  0.0983  0.4913
  281MOL0     H37087   4.282  10.877   1.873  1.3901  2.2402 -1.6778
  281MOL0     H37088   4.511  10.834   1.968 -4.9195  0.0831  1.1831
  281MOL0     H37089   4.553  10.760   1.807  2.7341 -0.2814  3.0891
  281MOL0     H37090   4.546  11.167   1.709  1.9100 -0.4543 -1.3157
  281MOL0     H37091   3.942  10.762   1.542  2.8093  0.0238  1.3884
  281MOL0     H37092   3.729  10.683   1.488 -0.4230 -0.6434 -2.0024
  282MOL0     O37093   7.742   9.170   6.623 -0.4603 -0.1576  0.4354
  282MOL0     C37094   7.764   9.295   6.611 -0.6072  0.8220 -1.4492
  282MOL0     O37095   7.881   9.360   6.663  0.5942 -0.2311 -0.1501
  282MOL0     C37096   7.975   9.277   6.716  0.1483 -0.5318 -0.7635
  282MOL0     C37097   7.998   9.284   6.852  0.5489  0.3227 -0.2803
  282MOL0     C37098   8.100   9.209   6.911 -0.8394  0.3737  0.4870
  282MOL0     C37099   8.174   9.113   6.838  0.6484 -0.8907 -0.1710
  282MOL0     O37100   8.260   9.026   6.896 -0.0131  1.2788  0.0287
  282MOL0     C37101   8.398   9.026   6.874  0.1688 -0.3499 -0.5216
  282MOL0     C37102   8.458   9.174   6.880  0.8641  0.4269  0.0975
  282MOL0     C37103   8.608   9.152   6.864  0.6236 -0.3351 -0.1019
  282MOL0     C37104   8.681   9.288   6.853  0.0334  0.0214  0.3983
  282MOL0     C37105   8.832   9.286   6.858  0.8364  0.5127  0.4047
  282MOL0     C37106   8.891   9.325   6.994 -0.5898  0.7115  0.2621
  282MOL0     C37107   9.040   9.308   7.006  0.2919 -0.0124 -0.6497
  282MOL0     C37108   9.085   9.158   6.987 -1.0730  0.2097  0.4019
  282MOL0     N37109   9.082   9.079   7.121 -1.1383  0.0134 -0.5797
  282MOL0     C37110   9.165   9.108   7.232 -0.2185 -0.5123  0.2019
  282MOL0     C37111   9.142   9.003   7.317 -0.6798 -0.0594 -0.2713
  282MOL0     C37112   9.241   8.984   7.435  0.0706 -0.8370 -0.6638
  282MOL0     C37113   9.316   8.848   7.440  0.2374 -0.2333 -0.4760
  282MOL0     C37114   9.399   8.830   7.311  0.4162  0.2965 -0.3394
  282MOL0     C37115   9.491   8.719   7.312  0.2997  0.3024  0.3454
  282MOL0     O37116   9.410   8.600   7.307  0.7669 -0.2519  0.5879
  282MOL0     C37117   9.468   8.479   7.295  0.0726 -0.4186  0.1940
  282MOL0     C37118   9.586   8.449   7.226  0.6104  0.5400  0.7089
  282MOL0     C37119   9.635   8.319   7.211  0.9352  0.5868  0.2255
  282MOL0     C37120   9.558   8.207   7.259 -1.3977 -0.0055  0.3494
  282MOL0     C37121   9.607   8.074   7.231 -0.3144 -0.3283  0.3027
  282MOL0     O37122   9.531   7.977   7.289 -0.0658 -0.7432 -0.1404
  282MOL0     C37123   9.565   7.849   7.289 -0.5439  0.4479 -0.5335
  282MOL0     C37124   9.458   7.758   7.312 -0.2146 -0.1158 -0.4692
  282MOL0     C37125   9.480   7.621   7.319 -0.7644 -0.1328 -0.3468
  282MOL0     C37126   9.611   7.571   7.306  0.2387 -0.1021 -0.1179
  282MOL0     O37127   9.652   7.431   7.310 -0.9662 -0.5196  0.3694
  282MOL0     C37128   9.554   7.329   7.318 -0.0078 -0.1596  0.7188
  282MOL0     C37129   9.599   7.190   7.275 -0.3417  0.5343 -0.3129
  282MOL0     C37130   9.636   7.165   7.133  0.3782  0.6163  0.4703
  282MOL0     C37131   9.743   7.059   7.115 -0.0315  0.0631 -0.2068
  282MOL0     C37132   9.775   7.019   6.972 -0.1371  0.5660 -0.1828
  282MOL0     C37133   9.790   7.133   6.882  0.2238  0.2256  0.5009
  282MOL0     C37134   9.809   7.082   6.733 -0.4232 -1.0665 -0.5540
  282MOL0     C37135   9.802   7.196   6.637  0.0889  0.3461  0.1382
  282MOL0    Cl37136   9.800   7.121   6.468 -0.1378  0.2454 -0.1384
  282MOL0     C37137   9.719   7.661   7.290 -0.5000 -0.1395  0.1410
  282MOL0     C37138   9.696   7.796   7.283 -0.0221  0.3766 -0.4331
  282MOL0     O37139   9.704   8.054   7.159  0.1151 -0.0680  0.3425
  282MOL0     C37140   9.437   8.242   7.317  0.0216  1.2258 -1.0633
  282MOL0     C37141   9.391   8.370   7.336 -0.2987  0.7261 -0.6922
  282MOL0     N37142   9.047   8.918   7.278  0.0869  0.1122 -0.3872
  282MOL0     N37143   9.016   8.963   7.159  0.4615  0.5149  0.1154
  282MOL0     C37144   8.157   9.112   6.699 -0.1657 -0.4611 -0.4335
  282MOL0     C37145   8.057   9.192   6.638  0.1637 -0.6203 -0.0538
  282MOL0     C37146   7.655   9.375   6.563  0.6485  0.5820  0.5784
  282MOL0     C37147   7.531   9.312   6.535  0.7260 -0.1100  0.5429
  282MOL0     C37148   7.422   9.381   6.476  0.2645  0.0741 -0.4846
  282MOL0     C37149   7.417   9.519   6.478 -1.2822 -0.2557  0.1489
  282MOL0     O37150   7.314   9.604   6.439 -1.0502  0.5099  0.2452
  282MOL0     C37151   7.172   9.566   6.442  0.5128 -0.1078 -0.8908
  282MOL0     C37152   7.087   9.686   6.402 -1.0987 -0.5589  0.6626
  282MOL0     C37153   7.118   9.813   6.493  0.7905 -0.5228 -0.4864
  282MOL0     C37154   6.984   9.858   6.560  0.3214  0.1282 -0.2908
  282MOL0     C37155   6.996   9.981   6.636 -0.4205 -0.7825 -0.2230
  282MOL0     C37156   6.986  10.097   6.694  0.1840  0.7757  0.2498
  282MOL0     C37157   7.546   9.577   6.517  1.2147  0.6498  0.7692
  282MOL0     C37158   7.661   9.513   6.559  0.5583 -0.8833  0.6447
  282MOL0     H37159   7.937   9.354   6.909  0.8458 -0.3293  0.8546
  282MOL0     H37160   8.123   9.231   7.015  1.4861  5.9644 -0.8574
  282MOL0     H37161   8.427   8.982   6.778 -1.4898 -1.5636 -0.5116
  282MOL0     H37162   8.434   8.963   6.955  0.9858  1.4837  0.6123
  282MOL0     H37163   8.432   9.222   6.975 -1.7778  1.0773 -0.8613
  282MOL0     H37164   8.413   9.244   6.809 -0.6658 -0.0642  0.5425
  282MOL0     H37165   8.631   9.093   6.775 -0.7052 -0.9643 -0.0331
  282MOL0     H37166   8.638   9.089   6.948 -0.8629 -4.2624 -2.2953
  282MOL0     H37167   8.660   9.331   6.754 -2.5565 -3.7645 -0.9400
  282MOL0     H37168   8.637   9.354   6.929  0.1094 -1.2926  1.6101
  282MOL0     H37169   8.864   9.349   6.775 -0.0990 -1.6311 -1.6877
  282MOL0     H37170   8.860   9.182   6.837 -1.0720 -0.4420  2.2175
  282MOL0     H37171   8.836   9.263   7.066 -1.7438  0.9621 -0.3725
  282MOL0     H37172   8.877   9.427   7.032 -2.7687  0.5308  0.0603
  282MOL0     H37173   9.091   9.382   6.944 -0.5720 -0.6661 -2.1915
  282MOL0     H37174   9.071   9.347   7.104  1.1441 -1.2309 -0.4218
  282MOL0     H37175   9.186   9.189   6.957 -1.7413  0.7820 -1.3832
  282MOL0     H37176   9.034   9.096   6.914  1.1111  0.0768 -1.1234
  282MOL0     H37177   9.241   9.186   7.236 -1.1429  0.3784  3.2068
  282MOL0     H37178   9.172   8.993   7.519 -1.1542 -1.2823 -1.5846
  282MOL0     H37179   9.315   9.062   7.453 -0.7986  0.1985 -1.4303
  282MOL0     H37180   9.232   8.778   7.441  0.0962 -0.1143  1.8046
  282MOL0     H37181   9.383   8.839   7.525  0.4190 -1.5250 -0.7411
  282MOL0     H37182   9.338   8.812   7.221 -0.5136 -0.9975  0.5171
  282MOL0     H37183   9.447   8.926   7.292 -0.9912  1.1139  0.0863
  282MOL0     H37184   9.540   8.720   7.410  2.6534 -2.8905 -0.6617
  282MOL0     H37185   9.571   8.744   7.242  0.2994  3.8797  1.4126
  282MOL0     H37186   9.644   8.520   7.166  1.6801 -1.8601 -1.2719
  282MOL0     H37187   9.728   8.293   7.161  0.6124 -3.3232  1.3171
  282MOL0     H37188   9.358   7.800   7.327 -0.4122 -0.7379  0.0095
  282MOL0     H37189   9.398   7.550   7.320 -0.2625 -0.7157  0.0682
  282MOL0     H37190   9.476   7.341   7.243 -0.0797 -0.1803  0.7896
  282MOL0     H37191   9.512   7.315   7.418  1.2104 -2.9541  0.9458
  282MOL0     H37192   9.528   7.114   7.310  0.7020 -0.6192 -0.6038
  282MOL0     H37193   9.687   7.162   7.334 -0.9843 -1.8611 -0.3633
  282MOL0     H37194   9.673   7.260   7.092  1.4704  0.4590  1.0504
  282MOL0     H37195   9.547   7.127   7.082 -0.0800 -1.9341  2.9293
  282MOL0     H37196   9.841   7.095   7.149  0.7643 -1.0956 -1.1647
  282MOL0     H37197   9.723   6.972   7.177 -0.7310  1.6400  1.8907
  282MOL0     H37198   9.689   6.958   6.944 -0.5907  1.9136 -1.8665
  282MOL0     H37199   9.866   6.959   6.975  0.2805  1.2032  0.1850
  282MOL0     H37200   9.886   7.180   6.906 -0.1672  0.9749  0.6190
  282MOL0     H37201   9.694   7.186   6.884 -0.2810 -0.4052 -2.2052
  282MOL0     H37202   9.908   7.036   6.723  1.2291  1.6318  1.9562
  282MOL0     H37203   9.742   7.002   6.702  1.0187 -1.0387 -4.2775
  282MOL0     H37204   9.875   7.275   6.654 -3.2988  3.9124 -0.4288
  282MOL0     H37205   9.713   7.254   6.661  0.0263  0.0673  0.5905
  282MOL0     H37206   9.815   7.612   7.280  0.9980  2.4379  0.9475
  282MOL0     H37207   9.782   7.856   7.256  0.3773 -0.4030 -0.9703
  282MOL0     H37208   9.378   8.159   7.353  0.3044  2.3409  2.3282
  282MOL0     H37209   9.300   8.373   7.396 -0.7787 -1.6412 -1.2143
  282MOL0     H37210   8.220   9.044   6.643  4.0227  2.0147  0.8667
  282MOL0     H37211   8.058   9.198   6.529  0.8959 -1.0901 -0.0762
  282MOL0     H37212   7.525   9.204   6.531  1.6387 -0.2009  1.1826
  282MOL0     H37213   7.328   9.336   6.448 -2.0434  2.2573  2.9893
  282MOL0     H37214   7.140   9.543   6.544 -1.8933 -0.4032 -1.6552
  282MOL0     H37215   7.151   9.482   6.375  0.5290 -0.9920  0.1818
  282MOL0     H37216   7.109   9.719   6.300  1.1796 -0.2864  1.1913
  282MOL0     H37217   6.979   9.670   6.405 -0.9572 -2.4659 -1.4801
  282MOL0     H37218   7.165   9.888   6.427  0.7441 -0.3797 -0.3576
  282MOL0     H37219   7.198   9.798   6.566  1.9726  1.6326 -1.2191
  282MOL0     H37220   6.927   9.892   6.473  1.0493  1.4713 -0.2816
  282MOL0     H37221   6.936   9.768   6.598  0.1636 -0.1951 -1.2226
  282MOL0     H37222   6.989  10.182   6.759  1.1726  0.8679  0.0921
  282MOL0     H37223   7.539   9.685   6.524 -0.3182  0.5099  1.7960
  282MOL0     H37224   7.740   9.576   6.599 -0.6014 -0.0716  1.7206
  283MOL0     O37225   8.709   6.029   2.977  0.3723  0.0641 -0.4138
  283MOL0     C37226   8.813   6.006   3.036 -0.1785  0.6935 -0.3294
  283MOL0     O37227   8.923   6.089   3.050 -0.6173 -0.0462 -1.0053
  283MOL0     C37228   8.921   6.193   2.968 -1.4373  1.0323  0.7255
  283MOL0     C37229   8.950   6.166   2.836  0.7635 -0.2688  1.0753
  283MOL0     C37230   8.967   6.264   2.739 -0.8005  0.0424  0.0077
  283MOL0     C37231   8.948   6.399   2.787 -0.4015  0.5287 -0.3821
  283MOL0     O37232   8.956   6.503   2.703  0.0409 -0.3297 -0.0753
  283MOL0     C37233   8.951   6.483   2.556 -0.3035 -0.5688 -1.0900
  283MOL0     C37234   8.955   6.618   2.491  0.5347  0.0751  0.3542
  283MOL0     C37235   8.958   6.594   2.339 -0.7533  0.5022  0.3673
  283MOL0     C37236   8.950   6.725   2.259  0.3080 -0.2294 -0.4775
  283MOL0     C37237   8.961   6.710   2.106  0.2531 -0.1774 -0.2390
  283MOL0     C37238   8.917   6.843   2.046  0.1414  0.8022 -0.2206
  283MOL0     C37239   8.951   6.864   1.902 -0.2592  0.5229  0.0704
  283MOL0     C37240   8.876   6.984   1.831 -0.2973 -0.2911 -1.4707
  283MOL0     N37241   8.901   6.995   1.692 -0.3739  0.7467  0.7203
  283MOL0     C37242   8.813   7.053   1.592  0.3484 -0.6057 -0.2740
  283MOL0     C37243   8.891   7.076   1.486  1.3393  0.6243  0.2221
  283MOL0     C37244   8.841   7.155   1.364 -0.1272  2.1988 -0.0907
  283MOL0     C37245   8.885   7.293   1.372  0.9734 -0.4130 -0.3388
  283MOL0     C37246   8.788   7.390   1.300  1.1859  0.2894  0.2508
  283MOL0     C37247   8.672   7.442   1.389 -0.1391 -0.2563 -0.4957
  283MOL0     O37248   8.728   7.534   1.485  0.0468  0.3098 -0.2230
  283MOL0     C37249   8.634   7.573   1.584 -0.9165  0.5423  0.4474
  283MOL0     C37250   8.494   7.564   1.581 -0.5751 -0.6279 -0.6711
  283MOL0     C37251   8.420   7.610   1.698 -0.5438 -0.4795 -0.3233
  283MOL0     C37252   8.490   7.656   1.807  0.5844  0.3302  0.2189
  283MOL0     C37253   8.419   7.695   1.922  0.6288  0.1502 -0.1695
  283MOL0     O37254   8.440   7.814   1.994  0.1103 -0.5693  0.0204
  283MOL0     C37255   8.364   7.831   2.106  0.5231  0.0546 -0.4270
  283MOL0     C37256   8.380   7.753   2.220 -0.4123 -0.4045  0.3992
  283MOL0     C37257   8.319   7.799   2.337 -0.3886 -0.3512  0.3697
  283MOL0     C37258   8.221   7.897   2.348 -0.9698  0.6272 -0.2166
  283MOL0     O37259   8.140   7.915   2.458 -0.3542 -0.0749 -0.0969
  283MOL0     C37260   8.121   7.817   2.556 -0.7154  0.5929 -1.0442
  283MOL0     C37261   7.991   7.842   2.633  0.3835 -0.1786 -0.5801
  283MOL0     C37262   7.945   7.726   2.724  0.4049 -0.2069  0.6922
  283MOL0     C37263   7.905   7.766   2.866  1.3973  0.1560  0.7551
  283MOL0     C37264   7.836   7.659   2.943  0.6095  0.5567  0.4424
  283MOL0     C37265   7.833   7.680   3.096  0.5691 -1.1940  0.0123
  283MOL0     C37266   7.723   7.605   3.172 -0.5208 -0.0039 -0.0032
  283MOL0     C37267   7.742   7.455   3.187 -0.3099 -0.0342  0.5079
  283MOL0    Cl37268   7.893   7.425   3.275 -0.3744 -0.1670 -0.1759
  283MOL0     C37269   8.202   7.975   2.233 -0.4604 -0.0883  0.6144
  283MOL0     C37270   8.282   7.947   2.111 -0.6819  0.0338 -0.6461
  283MOL0     O37271   8.325   7.616   1.953  0.1590 -0.2022  0.0432
  283MOL0     C37272   8.624   7.659   1.811 -0.6885  0.3933 -0.2284
  283MOL0     C37273   8.691   7.620   1.698  0.0659 -0.2978  0.2584
  283MOL0     N37274   9.017   7.028   1.506  0.3210  0.1983  0.0744
  283MOL0     N37275   9.021   6.975   1.627 -0.3366 -0.8336 -0.0528
  283MOL0     C37276   8.926   6.419   2.925  1.1913 -0.5225 -0.5646
  283MOL0     C37277   8.925   6.322   3.016  0.0810  0.3181 -0.2901
  283MOL0     C37278   8.826   5.880   3.112 -0.1048  0.0375  0.2573
  283MOL0     C37279   8.717   5.793   3.129  0.1892  0.6094  0.4050
  283MOL0     C37280   8.742   5.671   3.203 -0.4715 -0.2373  0.4410
  283MOL0     C37281   8.870   5.642   3.259  0.0424  0.4117  1.1585
  283MOL0     O37282   8.860   5.521   3.331 -0.3539 -0.6084  0.0752
  283MOL0     C37283   8.971   5.465   3.407 -0.6207 -0.4615 -0.0793
  283MOL0     C37284   8.980   5.313   3.393  0.0708 -0.6544 -0.0881
  283MOL0     C37285   9.102   5.254   3.469  0.0722 -0.0597 -0.9705
  283MOL0     C37286   9.060   5.167   3.595  0.6844  0.1044  0.9577
  283MOL0     C37287   9.023   5.243   3.717 -0.7131 -0.3977 -0.7005
  283MOL0     C37288   8.990   5.292   3.826  0.0330 -1.0867  1.2649
  283MOL0     C37289   8.981   5.725   3.237  0.7553  0.1663 -0.2491
  283MOL0     C37290   8.961   5.838   3.153 -0.8234 -0.4130 -0.5764
  283MOL0     H37291   8.948   6.062   2.804 -1.1421  0.7256 -2.5624
  283MOL0     H37292   8.989   6.243   2.635  0.0596  0.9816 -0.0146
  283MOL0     H37293   8.859   6.437   2.519 -0.1729  1.3913 -4.1934
  283MOL0     H37294   9.048   6.435   2.540  0.4431 -1.2873  3.9835
  283MOL0     H37295   9.043   6.675   2.520  1.0381 -0.0441 -0.8591
  283MOL0     H37296   8.863   6.670   2.519  1.4046  2.1320 -0.4146
  283MOL0     H37297   8.885   6.520   2.306  1.1661 -1.9744  1.3464
  283MOL0     H37298   9.055   6.552   2.312 -0.8814 -0.1412  0.8944
  283MOL0     H37299   8.851   6.769   2.274 -0.7135 -2.5550  0.0417
  283MOL0     H37300   9.035   6.789   2.286  1.3528 -1.2181 -1.3186
  283MOL0     H37301   8.902   6.623   2.076  0.8841 -0.3180 -1.1087
  283MOL0     H37302   9.063   6.692   2.071  1.2140  3.8123  0.0126
  283MOL0     H37303   8.974   6.920   2.099  1.2130  1.0139 -1.6247
  283MOL0     H37304   8.811   6.862   2.062 -0.1053 -1.1102  0.6283
  283MOL0     H37305   9.059   6.847   1.890 -0.4958 -0.9791 -0.1049
  283MOL0     H37306   8.898   6.780   1.857 -3.6153  1.0182  2.7152
  283MOL0     H37307   8.914   7.068   1.890 -0.3764 -0.9765 -0.4057
  283MOL0     H37308   8.768   6.974   1.845 -0.2976  0.9153 -0.3751
  283MOL0     H37309   8.715   7.098   1.604  1.8123  2.7477  0.3110
  283MOL0     H37310   8.732   7.151   1.357  0.0216  0.6114 -3.5297
  283MOL0     H37311   8.871   7.097   1.276 -3.6602 -1.9517  1.1087
  283MOL0     H37312   8.981   7.311   1.322  0.8919 -0.0325 -0.3662
  283MOL0     H37313   8.890   7.328   1.476 -2.2509 -0.9232  0.1049
  283MOL0     H37314   8.835   7.476   1.253  1.9964 -0.2087  0.1392
  283MOL0     H37315   8.752   7.340   1.210  0.5644  0.4553  0.3997
  283MOL0     H37316   8.629   7.349   1.429  1.4218 -2.4481 -3.5532
  283MOL0     H37317   8.600   7.499   1.330  0.5168 -1.0242 -2.0951
  283MOL0     H37318   8.435   7.525   1.498  1.4580 -2.6300 -1.2507
  283MOL0     H37319   8.312   7.616   1.699 -0.5765 -0.8904 -0.8352
  283MOL0     H37320   8.458   7.678   2.211  0.0896  0.2474 -0.9240
  283MOL0     H37321   8.353   7.747   2.426  2.6065  2.6509  1.2203
  283MOL0     H37322   8.202   7.835   2.628  0.4790 -0.0531 -2.1631
  283MOL0     H37323   8.124   7.714   2.518  0.1917 -1.6082  4.0848
  283MOL0     H37324   7.905   7.855   2.567 -1.1276 -1.6546  0.9986
  283MOL0     H37325   8.008   7.937   2.686  3.6008 -1.7500  1.5114
  283MOL0     H37326   8.013   7.641   2.728 -1.3944 -1.7100  0.7878
  283MOL0     H37327   7.857   7.677   2.682 -0.6892  0.7498  1.7926
  283MOL0     H37328   7.994   7.797   2.921  0.6191  0.1716  2.0501
  283MOL0     H37329   7.834   7.850   2.862  1.8660  0.6621  2.2337
  283MOL0     H37330   7.896   7.569   2.928  0.0202  0.3518 -0.8391
  283MOL0     H37331   7.735   7.634   2.911  0.3198 -0.7224  2.2389
  283MOL0     H37332   7.828   7.783   3.130  2.7185 -1.2204  0.5506
  283MOL0     H37333   7.929   7.647   3.136  0.6468 -5.9329 -3.1190
  283MOL0     H37334   7.716   7.658   3.267  0.2386  2.0842 -1.0519
  283MOL0     H37335   7.623   7.620   3.128 -1.9370 -2.0517  2.2368
  283MOL0     H37336   7.764   7.403   3.093  1.9702 -0.2707  1.1049
  283MOL0     H37337   7.665   7.402   3.244  0.3438 -1.6818 -0.0612
  283MOL0     H37338   8.122   8.048   2.224  1.6558  2.1313 -1.7256
  283MOL0     H37339   8.252   7.999   2.021 -0.3516 -1.4224 -1.6213
  283MOL0     H37340   8.691   7.696   1.888  1.7740 -0.2275 -1.9715
  283MOL0     H37341   8.799   7.608   1.706  0.1277 -1.7532 -1.8497
  283MOL0     H37342   8.920   6.521   2.963  1.2432 -0.0738 -1.7296
  283MOL0     H37343   8.890   6.335   3.118 -1.3067 -2.3189 -0.3546
  283MOL0     H37344   8.615   5.824   3.105  0.6513  4.5936  2.5827
  283MOL0     H37345   8.659   5.602   3.209 -0.0441 -0.8989 -0.8183
  283MOL0     H37346   8.948   5.496   3.510 -0.8774 -0.6533 -0.0797
  283MOL0     H37347   9.068   5.504   3.376 -0.4776 -0.9451 -0.2391
  283MOL0     H37348   8.889   5.261   3.423  1.5873 -2.5814  1.4854
  283MOL0     H37349   8.999   5.292   3.287 -0.0017  1.4609 -0.5665
  283MOL0     H37350   9.176   5.329   3.499 -2.2761  1.7519  0.5728
  283MOL0     H37351   9.158   5.182   3.407  0.8003 -0.7887  0.4667
  283MOL0     H37352   8.973   5.108   3.564  1.0065  0.7750 -1.4984
  283MOL0     H37353   9.135   5.093   3.623  2.3484  0.6856 -1.6300
  283MOL0     H37354   8.943   5.330   3.914 -1.6113  2.0269 -0.7762
  283MOL0     H37355   9.079   5.699   3.276 -0.1517 -1.2912  1.1710
  283MOL0     H37356   9.053   5.894   3.135 -1.6951  0.8467 -1.2981
  284MOL0     O37357   5.413  11.168   9.415  0.4942 -0.4467 -0.0268
  284MOL0     C37358   5.534  11.194   9.418 -0.3842 -0.1661  0.0211
  284MOL0     O37359   5.638  11.111   9.433 -0.2729  0.0387 -0.2971
  284MOL0     C37360   5.610  10.986   9.490  0.1041 -0.5491 -0.3886
  284MOL0     C37361   5.522  10.947   9.589  0.4328 -0.5393  0.0294
  284MOL0     C37362   5.519  10.815   9.645  0.8666 -0.3645  0.5317
  284MOL0     C37363   5.606  10.726   9.589 -0.1364 -0.5158 -0.1076
  284MOL0     O37364   5.621  10.594   9.627  0.5282  0.5646 -0.3737
  284MOL0     C37365   5.642  10.558   9.766 -0.6776 -0.2444 -0.6824
  284MOL0     C37366   5.762  10.465   9.792 -0.1623 -0.3747  0.9482
  284MOL0     C37367   5.781  10.345   9.695 -0.8934 -0.4481  0.3814
  284MOL0     C37368   5.881  10.235   9.730  0.1781  0.1236  0.2055
  284MOL0     C37369   5.842  10.168   9.857 -0.1586 -0.0813  0.0529
  284MOL0     C37370   5.936  10.048   9.890  0.4490 -0.2499  1.3747
  284MOL0     C37371   6.079  10.077   9.887 -0.1140 -0.1707 -0.1224
  284MOL0     C37372   6.117  10.148  10.021 -0.1831 -0.6069  0.5437
  284MOL0     N37373   6.266  10.167  10.009  0.3013 -0.7407 -0.0134
  284MOL0     C37374   6.349  10.108  10.110  0.0828 -0.0603 -0.4836
  284MOL0     C37375   6.465  10.173  10.115 -0.4086 -0.8792 -0.0081
  284MOL0     C37376   6.588  10.154  10.207  0.4076 -0.1841  0.7222
  284MOL0     C37377   6.660  10.014  10.198  0.2441 -0.6303 -0.4423
  284MOL0     C37378   6.769   9.991  10.301 -0.3351 -0.6254  0.6199
  284MOL0     C37379   6.822   9.844  10.291  0.9785 -0.7806 -0.3939
  284MOL0     O37380   6.938   9.828  10.371  0.3105  0.6383 -0.2822
  284MOL0     C37381   6.968   9.708  10.436  0.2634 -0.1188  0.3668
  284MOL0     C37382   6.905   9.585  10.399 -0.0326 -0.1395  0.2141
  284MOL0     C37383   6.945   9.471  10.460  0.6246 -0.2042  0.1573
  284MOL0     C37384   7.033   9.471  10.574  0.2418 -0.5695 -0.2126
  284MOL0     C37385   7.054   9.350  10.653 -0.1503 -0.2861  0.1536
  284MOL0     O37386   7.162   9.345  10.732 -0.1452 -0.1038 -0.5204
  284MOL0     C37387   7.210   9.222  10.770 -0.1437  0.2894 -0.1936
  284MOL0     C37388   7.255   9.203  10.900 -0.3360  0.4964  0.3577
  284MOL0     C37389   7.309   9.079  10.933 -0.1746  0.0445 -0.5586
  284MOL0     C37390   7.326   8.971  10.839  0.2492  0.6764  0.7620
  284MOL0     O37391   7.356   8.839  10.868 -0.1328 -0.8930 -0.1072
  284MOL0     C37392   7.359   8.787  11.006  0.8954  0.0224 -0.3715
  284MOL0     C37393   7.389   8.638  10.988  0.7509  0.6564  1.1792
  284MOL0     C37394   7.515   8.602  10.903  0.6173 -0.0778  0.1434
  284MOL0     C37395   7.550   8.459  10.911  0.3994 -0.3190 -0.1342
  284MOL0     C37396   7.708   8.454  10.894  0.1342  0.4990 -0.5437
  284MOL0     C37397   7.750   8.312  10.895  0.4018  0.1434  0.4514
  284MOL0     C37398   7.905   8.319  10.858  0.5798  0.3714 -0.1832
  284MOL0     C37399   7.964   8.178  10.881  0.3800 -1.4072 -0.2843
  284MOL0    Cl37400   7.971   8.129  11.060  0.2475  0.4289  0.0209
  284MOL0     C37401   7.301   9.006  10.709 -0.5919 -0.8482  0.3661
  284MOL0     C37402   7.238   9.122  10.678  0.7753  0.4293  0.4157
  284MOL0     O37403   6.979   9.256  10.628 -0.2048  0.3628  0.8656
  284MOL0     C37404   7.104   9.590  10.597 -0.5514  0.8742 -0.5255
  284MOL0     C37405   7.074   9.711  10.528  0.6960  1.5470  0.0851
  284MOL0     N37406   6.452  10.263  10.017 -0.1017  0.4768  0.3307
  284MOL0     N37407   6.336  10.270   9.963  0.5115  0.6368  1.1437
  284MOL0     C37408   5.703  10.764   9.496  0.0474 -0.3409  0.8714
  284MOL0     C37409   5.697  10.892   9.436 -0.2761  0.5807  0.1086
  284MOL0     C37410   5.576  11.336   9.387  0.8202  0.5985  0.2728
  284MOL0     C37411   5.484  11.432   9.376  0.5993  0.1986 -0.0738
  284MOL0     C37412   5.519  11.560   9.343 -0.1678  0.2974 -0.2850
  284MOL0     C37413   5.643  11.593   9.295  0.8743 -1.1791  0.0343
  284MOL0     O37414   5.675  11.729   9.270 -0.8947  0.3750  0.1811
  284MOL0     C37415   5.812  11.771   9.295 -0.1567  0.2016 -0.0745
  284MOL0     C37416   5.813  11.925   9.316 -0.2155  0.8183  0.3634
  284MOL0     C37417   5.720  11.978   9.430 -0.1702  0.3236 -0.9414
  284MOL0     C37418   5.652  12.111   9.413 -0.2691  0.2969  0.1229
  284MOL0     C37419   5.594  12.116   9.278  0.7305  0.2034  0.2959
  284MOL0     C37420   5.525  12.125   9.175  0.5651 -0.2046  0.3335
  284MOL0     C37421   5.741  11.498   9.297  0.4239  0.0172 -1.1996
  284MOL0     C37422   5.704  11.373   9.349 -1.2656  0.2944 -0.2815
  284MOL0     H37423   5.457  11.031   9.614  2.8121  1.1582  0.8948
  284MOL0     H37424   5.441  10.783   9.713  1.3239 -0.3816  1.0562
  284MOL0     H37425   5.547  10.511   9.795 -2.5153  2.8722 -1.1256
  284MOL0     H37426   5.654  10.650   9.824  0.1721 -1.0478  0.4589
  284MOL0     H37427   5.740  10.412   9.885 -1.0448 -1.0404  0.3792
  284MOL0     H37428   5.853  10.526   9.794 -0.2540  0.0422 -2.4510
  284MOL0     H37429   5.807  10.390   9.599 -0.1580 -2.5664 -0.4963
  284MOL0     H37430   5.683  10.300   9.677  0.3096 -3.1447 -0.0429
  284MOL0     H37431   5.866  10.164   9.649 -2.3663  2.4353 -1.5131
  284MOL0     H37432   5.978  10.287   9.731 -0.8049  2.0519  0.7468
  284MOL0     H37433   5.736  10.141   9.857 -1.2041  3.1361 -3.5996
  284MOL0     H37434   5.849  10.241   9.939 -0.4197  1.0212 -0.8795
  284MOL0     H37435   5.920   9.976   9.809 -3.0382  3.3535 -1.5894
  284MOL0     H37436   5.906   9.993   9.980 -3.5429 -1.9925 -0.7427
  284MOL0     H37437   6.143   9.990   9.872  2.8179  2.1585 -2.4270
  284MOL0     H37438   6.106  10.144   9.805 -0.8005 -0.7874 -0.8725
  284MOL0     H37439   6.097  10.079  10.103 -1.2462 -0.3367  0.5303
  284MOL0     H37440   6.068  10.246  10.018  2.9848  1.0944 -1.9792
  284MOL0     H37441   6.311  10.028  10.172 -2.9527  0.1079 -1.9769
  284MOL0     H37442   6.563  10.166  10.313 -0.0310 -1.6804  0.8124
  284MOL0     H37443   6.643  10.246  10.186 -0.3905  0.5876  1.9223
  284MOL0     H37444   6.708  10.019  10.100 -0.5496 -0.2514 -0.8290
  284MOL0     H37445   6.585   9.934  10.189 -0.2134 -0.3688  0.8781
  284MOL0     H37446   6.852  10.060  10.282  0.0554 -0.9748  1.0441
  284MOL0     H37447   6.725  10.004  10.400  1.5603 -1.1226  1.5783
  284MOL0     H37448   6.842   9.828  10.185  0.5507 -0.3849 -0.5361
  284MOL0     H37449   6.735   9.789  10.329  0.9643  1.5985  3.7240
  284MOL0     H37450   6.821   9.579  10.331  0.5957  2.8682 -0.9680
  284MOL0     H37451   6.881   9.385  10.442 -2.2822  1.9017 -0.1886
  284MOL0     H37452   7.244   9.272  10.983 -0.3875 -0.9335  1.5825
  284MOL0     H37453   7.312   9.060  11.040 -1.1973 -3.7030 -1.0633
  284MOL0     H37454   7.265   8.800  11.061 -0.4856 -2.4929 -1.9644
  284MOL0     H37455   7.432   8.844  11.065  0.7263  1.0964 -1.1770
  284MOL0     H37456   7.305   8.582  10.946  2.2548 -1.0383  0.2504
  284MOL0     H37457   7.414   8.618  11.093 -1.9432  2.9541  2.4092
  284MOL0     H37458   7.599   8.665  10.933 -1.0760  0.5660  4.3194
  284MOL0     H37459   7.491   8.614  10.797 -0.4416  0.0660  0.3842
  284MOL0     H37460   7.520   8.425  11.011 -3.5631  0.3644 -0.9033
  284MOL0     H37461   7.498   8.399  10.835  3.2620 -1.4038 -1.3603
  284MOL0     H37462   7.754   8.503  10.980 -1.0015  0.7147 -0.0404
  284MOL0     H37463   7.733   8.497  10.797  3.6638 -0.4177 -0.1752
  284MOL0     H37464   7.692   8.259  10.819  0.0691  0.8582  0.1967
  284MOL0     H37465   7.724   8.259  10.987  0.9342 -0.6605  0.1548
  284MOL0     H37466   7.911   8.343  10.751  0.9508 -1.2416 -0.5474
  284MOL0     H37467   7.968   8.384  10.919  3.2695 -2.4412  0.2882
  284MOL0     H37468   8.071   8.182  10.858  0.6288  0.1648  1.0474
  284MOL0     H37469   7.924   8.097  10.818 -2.9152  1.7822 -2.6798
  284MOL0     H37470   7.323   8.933  10.631  2.3601 -0.5804  0.8303
  284MOL0     H37471   7.208   9.151  10.577  1.5476 -0.2883 -0.0268
  284MOL0     H37472   7.168   9.590  10.684  0.0155  1.8207 -0.9268
  284MOL0     H37473   7.128   9.802  10.552  2.1703  0.3655  1.3441
  284MOL0     H37474   5.773  10.687   9.466 -0.4914 -0.2752 -0.6157
  284MOL0     H37475   5.758  10.926   9.353 -0.0150 -1.4423 -0.5724
  284MOL0     H37476   5.382  11.406   9.402  0.8205  1.1072  1.9299
  284MOL0     H37477   5.444  11.638   9.342 -0.7552 -0.2495 -0.9140
  284MOL0     H37478   5.876  11.729   9.217  2.5369  2.0539  0.9634
  284MOL0     H37479   5.844  11.726   9.389  1.7021 -0.4816 -0.9826
  284MOL0     H37480   5.920  11.937   9.335  0.0826 -0.3559 -0.4626
  284MOL0     H37481   5.792  11.966   9.217 -0.5733 -3.8161 -1.7270
  284MOL0     H37482   5.780  11.974   9.521 -3.0289 -1.6760  1.0546
  284MOL0     H37483   5.641  11.905   9.451 -0.9767  0.4328 -3.3284
  284MOL0     H37484   5.584  12.136   9.495  0.8939  2.3514  0.5146
  284MOL0     H37485   5.734  12.183   9.422 -1.3447  1.7645 -1.2225
  284MOL0     H37486   5.471  12.146   9.085 -0.1448  2.4608  1.2898
  284MOL0     H37487   5.836  11.515   9.248 -0.2962  1.6960 -2.1032
  284MOL0     H37488   5.780  11.296   9.348 -1.1775  0.3131  1.9846
  285MOL0     O37489  10.173   6.542  11.197  0.7291 -0.4331  0.5454
  285MOL0     C37490  10.238   6.635  11.248 -0.6571  0.0498 -1.0205
  285MOL0     O37491  10.194   6.742  11.314 -0.3323 -0.6178 -0.1672
  285MOL0     C37492  10.060   6.761  11.309 -0.1071  0.9253 -0.2827
  285MOL0     C37493   9.985   6.675  11.385  0.0007  1.2309 -0.7334
  285MOL0     C37494   9.843   6.681  11.389  0.7344  0.1151 -0.3225
  285MOL0     C37495   9.782   6.773  11.311  0.8514  0.7963  0.3499
  285MOL0     O37496   9.649   6.785  11.312  0.3967 -0.5007  0.1849
  285MOL0     C37497   9.591   6.858  11.415 -0.7540 -0.2357  0.0810
  285MOL0     C37498   9.452   6.913  11.378 -0.1167  0.0730 -0.0950
  285MOL0     C37499   9.385   6.965  11.509  0.5028  0.0636 -0.4797
  285MOL0     C37500   9.329   6.846  11.581  0.4743  0.4829  0.2562
  285MOL0     C37501   9.288   6.886  11.724 -0.9057  1.3341  1.1935
  285MOL0     C37502   9.209   6.782  11.791  0.0527  0.3257 -0.5645
  285MOL0     C37503   9.176   6.826  11.938 -0.2180 -1.1274 -0.5325
  285MOL0     C37504   9.066   6.738  11.990  0.0834  0.8099  0.1406
  285MOL0     N37505   9.009   6.802  12.111 -0.5882  0.3363 -0.2082
  285MOL0     C37506   9.077   6.875  12.211 -0.0916 -0.0008  0.2096
  285MOL0     C37507   8.974   6.939  12.285 -0.5683 -0.2161  0.5433
  285MOL0     C37508   8.979   7.037  12.412 -0.2121  0.8208  1.2574
  285MOL0     C37509   8.944   7.173  12.361 -0.2949 -0.1985 -0.4681
  285MOL0     C37510   9.023   7.280  12.431 -0.0423  0.1631 -0.2909
  285MOL0     C37511   8.979   7.410  12.376 -0.3474 -0.3444 -0.3448
  285MOL0     O37512   8.843   7.454  12.422 -0.3979 -0.7509 -0.0362
  285MOL0     C37513   8.796   7.581  12.383 -0.4405 -0.0106  0.3930
  285MOL0     C37514   8.679   7.627  12.439  0.1852 -0.0863  0.2763
  285MOL0     C37515   8.618   7.747  12.410 -0.0736  0.1675 -0.1231
  285MOL0     C37516   8.688   7.837  12.322 -0.0777  0.6720 -0.0411
  285MOL0     C37517   8.635   7.973  12.293 -0.4130  0.1054  0.3336
  285MOL0     O37518   8.744   8.057  12.271  0.1981 -0.2043 -0.4091
  285MOL0     C37519   8.730   8.196  12.240  0.4045  0.1465 -0.2191
  285MOL0     C37520   8.649   8.248  12.137  0.1768 -0.5338 -1.2407
  285MOL0     C37521   8.631   8.387  12.122 -0.3549  0.5051  1.0600
  285MOL0     C37522   8.698   8.473  12.209  0.2635  0.1465 -0.5866
  285MOL0     O37523   8.681   8.602  12.203 -0.0646  0.0027 -0.2962
  285MOL0     C37524   8.564   8.635  12.281 -0.0638  0.3657  0.4880
  285MOL0     C37525   8.552   8.790  12.303  0.5036  0.2594  1.0835
  285MOL0     C37526   8.445   8.845  12.201  0.5111  0.3675 -1.0132
  285MOL0     C37527   8.489   8.852  12.055 -0.6137 -0.3333  0.3879
  285MOL0     C37528   8.372   8.823  11.956 -0.0537  0.3149 -0.2391
  285MOL0     C37529   8.419   8.780  11.813 -0.2959 -0.1563 -0.7752
  285MOL0     C37530   8.458   8.635  11.813 -0.1205  0.6837 -0.2579
  285MOL0     C37531   8.589   8.604  11.735  0.0638  0.1665  0.4976
  285MOL0    Cl37532   8.740   8.634  11.843  0.1046  0.2030 -0.1735
  285MOL0     C37533   8.774   8.418  12.312  0.1569  0.4544  1.1250
  285MOL0     C37534   8.797   8.285  12.327 -0.9853  0.7128  1.2601
  285MOL0     O37535   8.516   8.002  12.305 -0.1374  0.0664  0.2105
  285MOL0     C37536   8.808   7.790  12.262 -0.1722  0.4345  0.8720
  285MOL0     C37537   8.861   7.664  12.288  0.0458 -0.4311  0.3997
  285MOL0     N37538   8.860   6.876  12.247  0.1225  0.3537  0.0815
  285MOL0     N37539   8.878   6.800  12.148 -0.6267  0.2719 -0.3320
  285MOL0     C37540   9.856   6.868  11.242 -0.1115 -0.0733  0.3029
  285MOL0     C37541   9.997   6.863  11.237  0.3353  0.2686  1.0555
  285MOL0     C37542  10.383   6.627  11.246  0.4599  0.0555 -0.8231
  285MOL0     C37543  10.466   6.661  11.359  0.0336  0.1484  0.0692
  285MOL0     C37544  10.597   6.685  11.344  0.2193  0.5927 -0.2137
  285MOL0     C37545  10.657   6.652  11.215  0.0832  0.8772  0.1562
  285MOL0     O37546  10.785   6.654  11.179 -0.6306 -0.3247  0.2354
  285MOL0     C37547  10.888   6.726  11.254  0.4094  0.6937  1.0385
  285MOL0     C37548  10.992   6.801  11.176  0.9120  0.0897 -0.9122
  285MOL0     C37549  11.052   6.707  11.071  0.1804  0.6115  0.5255
  285MOL0     C37550  11.148   6.782  10.983  0.9953  0.3093  0.8818
  285MOL0     C37551  11.282   6.785  11.042 -0.9094  0.4912 -0.0672
  285MOL0     C37552  11.388   6.784  11.095  0.0752  0.2710  0.0579
  285MOL0     C37553  10.572   6.614  11.114  0.2300 -0.0121  0.5064
  285MOL0     C37554  10.439   6.605  11.126 -0.5905  0.0249 -0.3587
  285MOL0     H37555  10.031   6.583  11.420  0.0321  1.2313 -0.7730
  285MOL0     H37556   9.783   6.608  11.443 -0.5758  0.9542 -0.5889
  285MOL0     H37557   9.656   6.941  11.443  0.7878 -0.7635 -1.7114
  285MOL0     H37558   9.585   6.783  11.495  0.6663  0.0861  0.5160
  285MOL0     H37559   9.390   6.831  11.339  1.3126 -2.2960  2.2825
  285MOL0     H37560   9.470   6.989  11.301  2.5951  1.6866  1.9596
  285MOL0     H37561   9.301   7.028  11.479 -1.3656 -0.5406  3.0305
  285MOL0     H37562   9.462   7.018  11.567 -0.0490  3.9529 -2.9409
  285MOL0     H37563   9.255   6.792  11.521  1.0103 -0.8331  0.7436
  285MOL0     H37564   9.415   6.780  11.597  1.8743  2.6087  2.0211
  285MOL0     H37565   9.238   6.983  11.716 -0.6065  1.5259  1.6121
  285MOL0     H37566   9.386   6.889  11.773  0.5990 -1.3374 -1.3845
  285MOL0     H37567   9.265   6.688  11.785 -0.6262  0.0073 -3.7985
  285MOL0     H37568   9.124   6.759  11.726 -0.7866  0.0616  0.6004
  285MOL0     H37569   9.270   6.817  11.993  1.6476 -2.9229 -3.7146
  285MOL0     H37570   9.152   6.933  11.937  0.7522 -0.7289  3.3194
  285MOL0     H37571   9.097   6.638  12.022 -2.8085  0.2934  1.6566
  285MOL0     H37572   8.996   6.719  11.909  1.3749  0.4365 -0.9338
  285MOL0     H37573   9.183   6.891  12.227  0.7962 -4.1863 -0.4397
  285MOL0     H37574   9.080   7.029  12.454 -0.4364 -6.1319  1.6234
  285MOL0     H37575   8.902   7.007  12.483 -1.3407  0.1428 -0.2095
  285MOL0     H37576   8.837   7.194  12.373  0.5488  4.9562  0.7005
  285MOL0     H37577   8.976   7.174  12.257  5.2216 -0.0033  0.9266
  285MOL0     H37578   9.008   7.280  12.540  0.1617  0.5875 -0.2653
  285MOL0     H37579   9.126   7.266  12.400 -0.0941  1.5695 -1.1599
  285MOL0     H37580   8.988   7.407  12.267  3.1665 -1.2431 -0.1436
  285MOL0     H37581   9.048   7.488  12.410 -0.4747 -1.0647  1.7597
  285MOL0     H37582   8.628   7.555  12.502  0.6211 -3.1658 -2.5936
  285MOL0     H37583   8.524   7.771  12.457  0.1027 -0.9351  0.8272
  285MOL0     H37584   8.586   8.181  12.079 -1.4682  0.7353 -1.0134
  285MOL0     H37585   8.564   8.432  12.050 -1.5071 -1.7880  0.6013
  285MOL0     H37586   8.573   8.597  12.384  0.8543 -0.3727  0.1527
  285MOL0     H37587   8.475   8.590  12.237 -0.7569  0.7845  1.4239
  285MOL0     H37588   8.652   8.829  12.287  0.7611 -0.2876  1.3472
  285MOL0     H37589   8.509   8.811  12.402  0.8997  0.8094  1.1403
  285MOL0     H37590   8.402   8.941  12.231 -1.9768 -0.8116 -0.5097
  285MOL0     H37591   8.357   8.780  12.204  1.5547 -1.0508  0.0356
  285MOL0     H37592   8.538   8.947  12.033  3.6052 -2.0499  1.3700
  285MOL0     H37593   8.568   8.779  12.034  0.3661  0.5970  0.7895
  285MOL0     H37594   8.332   8.925  11.951  2.7751  1.4965 -0.9552
  285MOL0     H37595   8.298   8.756  11.999  1.2007 -0.4250  0.8310
  285MOL0     H37596   8.507   8.833  11.775  0.8354 -0.4432  1.2954
  285MOL0     H37597   8.338   8.802  11.742 -0.7773 -0.3225 -0.2898
  285MOL0     H37598   8.467   8.607  11.919 -1.5923 -0.8714 -0.5021
  285MOL0     H37599   8.374   8.578  11.771  0.8987  0.3647 -1.9717
  285MOL0     H37600   8.588   8.660  11.641  2.2878 -1.9284 -0.8848
  285MOL0     H37601   8.598   8.498  11.711  0.4124  0.4974 -0.9238
  285MOL0     H37602   8.822   8.493  12.375  1.1986  1.1007 -0.3896
  285MOL0     H37603   8.873   8.250  12.396 -2.5608 -3.7348  1.0612
  285MOL0     H37604   8.853   7.857  12.189  0.8553 -1.0137  0.1253
  285MOL0     H37605   8.949   7.630  12.234 -0.5865  0.1608 -1.0547
  285MOL0     H37606   9.820   6.945  11.174  4.0772  2.5196  0.6760
  285MOL0     H37607  10.061   6.928  11.179  2.1195  0.4283  3.0715
  285MOL0     H37608  10.426   6.670  11.459  0.3651 -1.6867  0.3925
  285MOL0     H37609  10.652   6.713  11.434  0.4685 -1.0660  0.1972
  285MOL0     H37610  10.937   6.638  11.296 -2.4596 -3.1229 -2.7094
  285MOL0     H37611  10.844   6.785  11.335  0.4928  0.3170  1.3601
  285MOL0     H37612  10.939   6.887  11.133  0.3125  2.1559  3.4020
  285MOL0     H37613  11.069   6.840  11.243 -0.2684  5.4587 -2.1854
  285MOL0     H37614  10.967   6.666  11.016 -0.5106  1.7245  0.7294
  285MOL0     H37615  11.105   6.618  11.108 -0.9432 -2.0558 -3.5967
  285MOL0     H37616  11.153   6.726  10.889 -0.2478  0.6558  0.5898
  285MOL0     H37617  11.115   6.881  10.950  1.4288  0.1912  0.0718
  285MOL0     H37618  11.480   6.764  11.148 -0.3064  3.6114  2.2574
  285MOL0     H37619  10.620   6.595  11.018 -0.0546  1.3293  0.0887
  285MOL0     H37620  10.380   6.579  11.039 -0.7593 -4.2280  0.7916
  286MOL0     O37621   2.364   8.584   1.979  1.0392  0.7532 -0.6738
  286MOL0     C37622   2.349   8.653   2.082 -1.3476  0.3424  0.8713
  286MOL0     O37623   2.405   8.628   2.205 -0.8283 -0.2507 -0.4923
  286MOL0     C37624   2.502   8.534   2.206  0.0020 -0.1828 -0.0371
  286MOL0     C37625   2.623   8.579   2.151 -0.2074  0.3464 -0.0473
  286MOL0     C37626   2.729   8.491   2.145 -0.4740  0.5807  0.0678
  286MOL0     C37627   2.721   8.361   2.186  0.3440  0.7029 -0.8129
  286MOL0     O37628   2.836   8.280   2.177  0.2663 -0.4848 -0.1275
  286MOL0     C37629   2.846   8.165   2.254  0.1921  0.1117  0.4566
  286MOL0     C37630   2.990   8.117   2.269  0.8340 -0.3114 -0.7089
  286MOL0     C37631   2.990   7.986   2.335 -0.6171  0.0602  0.0767
  286MOL0     C37632   3.135   7.940   2.334  0.1438  0.8434 -0.1255
  286MOL0     C37633   3.154   7.798   2.388 -0.1538 -0.9941 -0.9431
  286MOL0     C37634   3.302   7.747   2.369 -0.2608 -0.5684 -0.4884
  286MOL0     C37635   3.348   7.640   2.475 -0.2568 -0.2992 -0.7482
  286MOL0     C37636   3.275   7.504   2.473  1.6664  0.2759  0.5539
  286MOL0     N37637   3.136   7.499   2.514 -0.5693  0.3261  0.0289
  286MOL0     C37638   3.079   7.570   2.622 -0.8040  0.7749  0.6948
  286MOL0     C37639   2.948   7.532   2.619 -0.0985  0.7014 -0.2765
  286MOL0     C37640   2.838   7.572   2.709 -0.6710 -0.6344  0.2325
  286MOL0     C37641   2.795   7.715   2.683 -0.6321 -0.0924 -0.3134
  286MOL0     C37642   2.737   7.730   2.543 -0.4804 -0.3734  0.2499
  286MOL0     C37643   2.639   7.834   2.519  0.4817 -0.7282 -0.1337
  286MOL0     O37644   2.688   7.961   2.533  0.2433 -0.0140 -0.2473
  286MOL0     C37645   2.602   8.072   2.546 -0.4466  0.4928  0.0388
  286MOL0     C37646   2.664   8.193   2.568  1.1092 -0.0984 -0.1462
  286MOL0     C37647   2.589   8.308   2.587  0.2231  0.7381  0.3676
  286MOL0     C37648   2.452   8.302   2.578  0.4370 -0.5161 -0.2957
  286MOL0     C37649   2.373   8.422   2.618  1.0028 -0.5441  0.0013
  286MOL0     O37650   2.414   8.535   2.570  0.0530  0.2966 -0.2153
  286MOL0     C37651   2.357   8.662   2.579  0.1339  0.0596 -0.1887
  286MOL0     C37652   2.428   8.771   2.508  0.0639  1.1014  0.5111
  286MOL0     C37653   2.383   8.900   2.521 -0.7227  0.6893 -0.4153
  286MOL0     C37654   2.259   8.931   2.576  1.4416 -0.4833  0.1094
  286MOL0     O37655   2.190   9.054   2.573  0.3237  0.0068  0.3161
  286MOL0     C37656   2.251   9.149   2.493  0.5845 -0.3766  0.0126
  286MOL0     C37657   2.127   9.235   2.466 -0.8728  0.1363 -0.5633
  286MOL0     C37658   2.169   9.350   2.381 -0.6630  0.1006 -0.2222
  286MOL0     C37659   2.040   9.447   2.372  0.0987 -0.4532 -0.6793
  286MOL0     C37660   2.062   9.552   2.270  0.3726  0.2825 -0.4603
  286MOL0     C37661   1.965   9.669   2.265  0.7803  0.0921 -0.0803
  286MOL0     C37662   1.816   9.628   2.242  0.9742  0.1544  0.0018
  286MOL0     C37663   1.726   9.750   2.212  0.1937  0.1674  0.2783
  286MOL0    Cl37664   1.756   9.845   2.065 -0.0677 -0.3674 -0.2033
  286MOL0     C37665   2.195   8.833   2.651  0.2308  0.9618  0.0136
  286MOL0     C37666   2.244   8.710   2.655 -0.8115  0.9248  0.1553
  286MOL0     O37667   2.271   8.401   2.683 -0.5082 -0.3276 -0.4361
  286MOL0     C37668   2.384   8.181   2.540 -0.1840  0.2645 -1.1161
  286MOL0     C37669   2.462   8.068   2.528  0.2396 -0.2794 -0.0883
  286MOL0     N37670   2.922   7.449   2.513  0.4745  0.5819 -0.8031
  286MOL0     N37671   3.033   7.439   2.441 -0.3330  0.4365 -0.1262
  286MOL0     C37672   2.594   8.313   2.225  0.0066  0.9291  0.2923
  286MOL0     C37673   2.489   8.397   2.240 -0.5859 -0.2884 -0.1462
  286MOL0     C37674   2.272   8.777   2.061  0.2345  0.2956 -0.4695
  286MOL0     C37675   2.255   8.848   1.944  0.7937 -0.3632  0.6332
  286MOL0     C37676   2.193   8.973   1.937  0.3593 -0.6547 -0.0415
  286MOL0     C37677   2.137   9.029   2.051  0.2015  0.4477 -0.2614
  286MOL0     O37678   2.068   9.155   2.050  0.3151  0.2861  0.3136
  286MOL0     C37679   1.974   9.165   1.938  0.2381  0.3094 -0.2499
  286MOL0     C37680   1.850   9.246   1.959 -0.9945  0.0492  0.2330
  286MOL0     C37681   1.775   9.179   2.073 -0.2038 -0.2847 -0.0691
  286MOL0     C37682   1.652   9.251   2.115  0.8308 -0.1025 -0.6259
  286MOL0     C37683   1.540   9.222   2.026 -0.1423 -0.8801 -0.0326
  286MOL0     C37684   1.459   9.217   1.937 -0.1488 -0.4997 -0.3944
  286MOL0     C37685   2.149   8.960   2.170  1.3315  0.4749 -0.2031
  286MOL0     C37686   2.214   8.838   2.174 -0.6796  0.4731  0.0273
  286MOL0     H37687   2.634   8.679   2.112 -5.6297  1.1189 -0.3656
  286MOL0     H37688   2.824   8.525   2.106  0.2506  0.5543  1.7304
  286MOL0     H37689   2.782   8.088   2.210  2.5101 -1.3665 -0.4797
  286MOL0     H37690   2.810   8.185   2.355 -3.0556 -5.3679  0.7861
  286MOL0     H37691   3.045   8.187   2.334 -0.5181 -1.9248  2.3758
  286MOL0     H37692   3.039   8.104   2.172  3.2056 -0.2598  0.4122
  286MOL0     H37693   2.941   7.896   2.297  1.4229 -2.1147  2.2205
  286MOL0     H37694   2.963   8.006   2.439 -0.0365 -2.0692  0.7013
  286MOL0     H37695   3.188   7.952   2.239  1.7507 -1.4245  0.4138
  286MOL0     H37696   3.190   8.014   2.392  1.5519 -0.2136 -0.0566
  286MOL0     H37697   3.081   7.731   2.342 -0.7350  0.2801 -1.9756
  286MOL0     H37698   3.119   7.802   2.492  2.2098  3.0663 -0.0640
  286MOL0     H37699   3.358   7.837   2.397 -0.0400 -1.2779  1.4993
  286MOL0     H37700   3.318   7.733   2.262 -1.0453  1.2062 -0.8766
  286MOL0     H37701   3.454   7.618   2.457 -0.4302 -3.6616  1.4238
  286MOL0     H37702   3.331   7.681   2.575 -1.4173  6.3939 -3.1686
  286MOL0     H37703   3.323   7.441   2.549  2.3054 -0.0647 -0.1107
  286MOL0     H37704   3.289   7.454   2.377  0.4787 -0.6071  0.8268
  286MOL0     H37705   3.132   7.624   2.700 -0.2107 -3.2926  3.4440
  286MOL0     H37706   2.861   7.549   2.813  2.0597 -0.2876 -0.2135
  286MOL0     H37707   2.750   7.514   2.680  0.4039 -1.9022 -0.6530
  286MOL0     H37708   2.876   7.785   2.704  2.9714 -3.4577 -1.6664
  286MOL0     H37709   2.717   7.727   2.759  0.0376 -1.7044  0.7108
  286MOL0     H37710   2.819   7.749   2.472  0.9780  1.7717  2.3530
  286MOL0     H37711   2.671   7.646   2.523 -1.3526  0.3808 -0.1152
  286MOL0     H37712   2.547   7.814   2.575  0.6114 -2.3739 -0.4540
  286MOL0     H37713   2.618   7.819   2.413  1.7363 -3.1968 -0.1002
  286MOL0     H37714   2.772   8.189   2.573  1.0145 -2.1037  1.6515
  286MOL0     H37715   2.643   8.400   2.608  1.5555  0.3564 -1.2189
  286MOL0     H37716   2.524   8.742   2.468 -1.4337 -3.4561 -0.3579
  286MOL0     H37717   2.446   8.984   2.494  0.0142  0.6538  1.0635
  286MOL0     H37718   2.285   9.111   2.397  0.7057  0.4113 -0.2575
  286MOL0     H37719   2.331   9.207   2.539 -0.7661  1.3501  0.2852
  286MOL0     H37720   2.083   9.272   2.559 -0.0605 -1.4876  0.4952
  286MOL0     H37721   2.055   9.175   2.409 -0.4592  0.9177 -1.9853
  286MOL0     H37722   2.206   9.303   2.289  0.8284  1.1719 -0.2187
  286MOL0     H37723   2.249   9.403   2.434  0.6083 -2.3243  0.4152
  286MOL0     H37724   1.948   9.395   2.343  0.7253 -0.9716 -1.8141
  286MOL0     H37725   2.025   9.498   2.468 -0.7551  0.2247 -1.1597
  286MOL0     H37726   2.055   9.517   2.167  2.8502  4.3798 -2.2568
  286MOL0     H37727   2.166   9.583   2.286  1.1833 -2.1926 -0.5177
  286MOL0     H37728   1.995   9.736   2.184  2.4029 -2.1693 -1.4661
  286MOL0     H37729   1.978   9.714   2.363  1.5737  0.9616 -0.5686
  286MOL0     H37730   1.809   9.550   2.166  0.4350  0.4401 -0.2440
  286MOL0     H37731   1.780   9.582   2.335 -0.8459  1.3300 -0.0697
  286MOL0     H37732   1.712   9.810   2.303 -2.7122  0.8102 -0.5152
  286MOL0     H37733   1.623   9.717   2.200  0.0483 -0.2596  2.2984
  286MOL0     H37734   2.099   8.845   2.699 -0.9026  1.6864 -2.3252
  286MOL0     H37735   2.202   8.633   2.719  1.7780  0.0372  0.8984
  286MOL0     H37736   2.276   8.177   2.534 -0.4377 -0.5427  1.9915
  286MOL0     H37737   2.422   7.974   2.490  0.9916  1.4338 -6.3116
  286MOL0     H37738   2.589   8.209   2.256  0.1554  0.7198 -0.3701
  286MOL0     H37739   2.394   8.357   2.273 -1.1969  0.1907 -1.2637
  286MOL0     H37740   2.304   8.819   1.851 -0.2940  4.8638 -1.9397
  286MOL0     H37741   2.183   9.037   1.850 -2.1459 -1.3097 -0.3287
  286MOL0     H37742   1.946   9.063   1.912 -1.2840  1.2682 -2.6733
  286MOL0     H37743   2.029   9.217   1.859  1.3224 -0.1397  0.1845
  286MOL0     H37744   1.866   9.353   1.976 -0.5597 -0.0413  0.4186
  286MOL0     H37745   1.806   9.227   1.861  0.6027 -0.1267 -0.4893
  286MOL0     H37746   1.846   9.165   2.154  2.1263 -0.0031 -1.9592
  286MOL0     H37747   1.753   9.076   2.040 -0.5626 -0.4801  0.7634
  286MOL0     H37748   1.610   9.225   2.212 -1.0308  6.1798  0.7291
  286MOL0     H37749   1.665   9.360   2.118 -0.7735  0.1208 -1.1163
  286MOL0     H37750   1.375   9.205   1.871 -0.6473 -1.5416  0.4014
  286MOL0     H37751   2.106   9.005   2.259  0.9543  1.2943 -0.7843
  286MOL0     H37752   2.226   8.791   2.271 -1.6579 -1.4148 -0.7032
  287MOL0     O37753   2.882   8.021   1.860 -0.4624  0.3629 -0.1014
  287MOL0     C37754   2.833   7.919   1.907 -0.0001 -0.9326  0.4631
  287MOL0     O37755   2.699   7.890   1.899  0.6978  0.6483  0.4724
  287MOL0     C37756   2.604   7.981   1.861 -0.7850 -0.4044  0.4213
  287MOL0     C37757   2.601   8.121   1.902 -0.4869  0.6197  1.6650
  287MOL0     C37758   2.485   8.201   1.870  0.1698  0.0252 -0.1538
  287MOL0     C37759   2.369   8.152   1.809  0.4359 -0.3982  0.0433
  287MOL0     O37760   2.264   8.231   1.768 -0.1744  0.4486  0.0056
  287MOL0     C37761   2.159   8.253   1.871  0.1827  0.8209  0.4395
  287MOL0     C37762   2.055   8.339   1.794  0.2135  0.2676 -0.3502
  287MOL0     C37763   2.118   8.484   1.776  0.0023  0.4677  0.0601
  287MOL0     C37764   2.032   8.591   1.717 -0.2145  0.1700 -0.0047
  287MOL0     C37765   1.928   8.641   1.815 -0.8279  0.5699 -0.4532
  287MOL0     C37766   1.835   8.730   1.739 -0.3781  0.3871 -0.2398
  287MOL0     C37767   1.736   8.804   1.839 -0.0725 -0.0259  0.7430
  287MOL0     C37768   1.706   8.940   1.778  0.0474 -0.0637 -0.0283
  287MOL0     N37769   1.660   8.935   1.638  0.0865  0.0918  0.4797
  287MOL0     C37770   1.574   8.845   1.588 -0.3125 -0.3531 -0.5585
  287MOL0     C37771   1.559   8.892   1.462  0.3685 -0.5817 -0.7308
  287MOL0     C37772   1.466   8.832   1.361 -0.3158 -0.1895  0.7689
  287MOL0     C37773   1.524   8.688   1.324  1.2593 -1.0138  1.0630
  287MOL0     C37774   1.674   8.703   1.295  0.6787  1.1223 -0.1609
  287MOL0     C37775   1.733   8.579   1.217  0.7414 -0.4073  0.0704
  287MOL0     O37776   1.739   8.471   1.308  0.1725  0.8590  0.0854
  287MOL0     C37777   1.798   8.357   1.262  0.2992 -0.5865  0.1004
  287MOL0     C37778   1.818   8.250   1.348 -0.6660 -0.0647  0.2958
  287MOL0     C37779   1.882   8.132   1.309  0.2428 -0.4210  0.9206
  287MOL0     C37780   1.936   8.117   1.178 -0.5722 -0.6418 -0.4395
  287MOL0     C37781   2.001   7.991   1.135  0.7354 -0.9436 -0.0532
  287MOL0     O37782   2.040   7.994   1.004 -0.5864 -0.0499 -0.3360
  287MOL0     C37783   2.121   7.886   0.977  0.9835 -0.4900 -0.2734
  287MOL0     C37784   2.056   7.780   0.913 -0.8444 -0.6848 -0.7957
  287MOL0     C37785   2.124   7.666   0.869 -0.5659  0.2008 -0.2777
  287MOL0     C37786   2.262   7.663   0.881 -0.4907  0.2530  1.3705
  287MOL0     O37787   2.325   7.538   0.866  0.0023 -0.2697  0.2816
  287MOL0     C37788   2.293   7.446   0.757  0.2536  0.2749 -0.1365
  287MOL0     C37789   2.400   7.332   0.734 -0.4856  0.7895 -0.3922
  287MOL0     C37790   2.535   7.391   0.741 -0.2890 -0.3101 -0.4765
  287MOL0     C37791   2.631   7.304   0.657 -0.4306 -0.3445  1.1138
  287MOL0     C37792   2.681   7.161   0.709  0.0840  0.2992  0.0532
  287MOL0     C37793   2.763   7.116   0.595 -0.0689  1.2168  0.5220
  287MOL0     C37794   2.829   6.976   0.611 -0.6280  0.1607 -0.1228
  287MOL0     C37795   2.747   6.853   0.646  0.3732  0.3303 -0.1350
  287MOL0    Cl37796   2.595   6.841   0.563 -0.3160 -0.0398  0.2697
  287MOL0     C37797   2.334   7.778   0.944 -0.3029 -0.3643  0.1254
  287MOL0     C37798   2.257   7.894   0.985 -0.2342 -0.2548 -1.2017
  287MOL0     O37799   2.000   7.898   1.211  0.2737 -0.2163  0.0004
  287MOL0     C37800   1.919   8.222   1.090 -0.8580  0.5228 -0.2360
  287MOL0     C37801   1.853   8.342   1.129 -0.0831  0.0057 -0.3464
  287MOL0     N37802   1.625   9.010   1.441 -1.0093  0.5041 -0.0676
  287MOL0     N37803   1.702   9.029   1.545  0.4844  0.0081  0.4937
  287MOL0     C37804   2.372   8.015   1.783 -0.0587  0.2516  0.7153
  287MOL0     C37805   2.490   7.933   1.797  0.3196  0.3793 -0.1540
  287MOL0     C37806   2.930   7.813   1.960  0.0238 -1.0973 -0.1617
  287MOL0     C37807   3.065   7.846   1.970  1.0496 -0.0397 -0.1020
  287MOL0     C37808   3.159   7.751   2.016 -0.0974  0.9565 -0.0663
  287MOL0     C37809   3.109   7.622   2.059 -0.2773  0.0281 -0.6400
  287MOL0     O37810   3.184   7.519   2.105  0.9244 -0.5293 -0.8172
  287MOL0     C37811   3.292   7.485   2.019 -0.0645  0.8198  0.4533
  287MOL0     C37812   3.267   7.426   1.882 -0.3280 -0.4452 -0.4888
  287MOL0     C37813   3.183   7.299   1.884 -0.3807  0.7288  0.3648
  287MOL0     C37814   3.143   7.262   1.742  1.3950  1.2154 -0.0086
  287MOL0     C37815   3.030   7.157   1.755 -0.2828 -0.2998  0.0599
  287MOL0     C37816   2.929   7.094   1.747  0.4939  0.2621  0.4296
  287MOL0     C37817   2.978   7.597   2.043  0.6855  0.3665 -0.2148
  287MOL0     C37818   2.885   7.699   2.018  0.1661  0.0081 -1.0902
  287MOL0     H37819   2.679   8.165   1.964  1.4338  0.0157 -0.2080
  287MOL0     H37820   2.494   8.304   1.905  0.1726  0.0187 -0.1354
  287MOL0     H37821   2.198   8.304   1.960  2.5112  3.8950 -2.1005
  287MOL0     H37822   2.117   8.154   1.893  2.9247 -0.2359  1.2957
  287MOL0     H37823   1.952   8.350   1.829 -0.6024 -1.4211 -2.0048
  287MOL0     H37824   2.049   8.294   1.694  1.8827 -1.6320  0.3376
  287MOL0     H37825   2.208   8.473   1.716 -1.2315 -1.7064 -1.5184
  287MOL0     H37826   2.145   8.512   1.878 -2.1728 -1.9539  1.4082
  287MOL0     H37827   2.099   8.670   1.680  0.3136 -0.0288  0.5248
  287MOL0     H37828   1.993   8.547   1.625 -0.9774  1.8486 -0.5388
  287MOL0     H37829   1.984   8.710   1.879  1.7559  1.3012 -3.3032
  287MOL0     H37830   1.885   8.560   1.875  0.0404 -1.0026 -1.8688
  287MOL0     H37831   1.783   8.666   1.667 -0.5150  2.0048 -1.6209
  287MOL0     H37832   1.897   8.805   1.689 -0.2538  1.3525  1.2755
  287MOL0     H37833   1.647   8.745   1.860  0.6708 -1.5789 -0.3278
  287MOL0     H37834   1.801   8.830   1.924  1.3288  0.6908 -0.4976
  287MOL0     H37835   1.791   9.009   1.779  1.3228 -1.4046  3.8164
  287MOL0     H37836   1.633   8.981   1.847  0.0074 -1.1251  0.5828
  287MOL0     H37837   1.529   8.755   1.628 -0.2046 -0.3260 -0.3776
  287MOL0     H37838   1.473   8.902   1.277 -3.1075 -1.7180 -0.8524
  287MOL0     H37839   1.361   8.833   1.390 -1.3246 -2.1625 -2.3534
  287MOL0     H37840   1.468   8.660   1.235  2.6748 -0.3219 -0.0988
  287MOL0     H37841   1.503   8.617   1.405 -1.8598  0.1225  1.3797
  287MOL0     H37842   1.700   8.785   1.227 -0.9702  0.4945 -1.6208
  287MOL0     H37843   1.722   8.716   1.392 -0.7733  0.5564  0.6552
  287MOL0     H37844   1.835   8.587   1.178  0.4989 -1.6185 -0.8859
  287MOL0     H37845   1.669   8.551   1.133  0.3691 -0.6425  0.4283
  287MOL0     H37846   1.784   8.237   1.451 -1.2816  0.5471  0.1770
  287MOL0     H37847   1.891   8.058   1.388 -1.8878  2.1114  3.7991
  287MOL0     H37848   1.948   7.781   0.911 -0.9137  0.5245  1.0029
  287MOL0     H37849   2.069   7.579   0.834  1.9513 -0.9842 -1.5240
  287MOL0     H37850   2.283   7.510   0.668 -0.1321  0.6354  0.1635
  287MOL0     H37851   2.195   7.400   0.772  0.7678 -1.3201 -1.4546
  287MOL0     H37852   2.384   7.294   0.632 -0.9951  1.0287 -0.4079
  287MOL0     H37853   2.379   7.266   0.819 -0.5629  0.3786 -0.7274
  287MOL0     H37854   2.561   7.384   0.847 -2.7164 -1.5048  0.1155
  287MOL0     H37855   2.532   7.495   0.707  1.5222 -0.2222 -0.4419
  287MOL0     H37856   2.584   7.292   0.559  2.7669  1.0787 -0.7449
  287MOL0     H37857   2.725   7.357   0.643  0.7351 -1.8109  2.8524
  287MOL0     H37858   2.596   7.095   0.729  1.0678 -0.0408  3.8024
  287MOL0     H37859   2.737   7.166   0.802  0.6261 -1.5134 -0.1373
  287MOL0     H37860   2.843   7.186   0.568  1.8764 -1.0942 -0.0980
  287MOL0     H37861   2.698   7.116   0.507 -0.7458  1.0171  1.0153
  287MOL0     H37862   2.894   6.948   0.527 -0.3230  0.1705  0.1072
  287MOL0     H37863   2.907   6.986   0.687  0.1698  0.8574 -1.0157
  287MOL0     H37864   2.716   6.840   0.750 -3.0936  0.9347 -0.9742
  287MOL0     H37865   2.799   6.760   0.620 -0.2180  0.0087 -0.2034
  287MOL0     H37866   2.439   7.766   0.968  0.3742  3.3568 -0.4334
  287MOL0     H37867   2.305   7.976   1.037 -0.9471 -1.1958  1.0644
  287MOL0     H37868   1.935   8.216   0.983 -0.0876  0.6188 -0.1326
  287MOL0     H37869   1.833   8.422   1.057  2.1823  1.7313  0.8021
  287MOL0     H37870   2.280   7.977   1.740  0.1923  1.5621 -1.1476
  287MOL0     H37871   2.488   7.826   1.777  2.3278 -0.2500  2.3405
  287MOL0     H37872   3.094   7.948   1.947 -2.0028  1.0392  0.4250
  287MOL0     H37873   3.264   7.775   2.029  1.1094 -1.8810 -3.2005
  287MOL0     H37874   3.359   7.411   2.065 -1.3723 -1.0875 -0.5611
  287MOL0     H37875   3.363   7.567   2.006  0.1030  0.4641 -1.0734
  287MOL0     H37876   3.220   7.507   1.825  0.3972  1.1771  1.1065
  287MOL0     H37877   3.365   7.398   1.841  0.5720  0.4514  0.9736
  287MOL0     H37878   3.092   7.312   1.942 -1.8241 -5.8936  0.2977
  287MOL0     H37879   3.222   7.213   1.939 -3.1967  0.0074  1.3496
  287MOL0     H37880   3.090   7.350   1.706 -1.2616  0.4209  1.6983
  287MOL0     H37881   3.221   7.235   1.670  0.1233 -1.1483 -0.6254
  287MOL0     H37882   2.836   7.041   1.739 -1.5331  2.9633  3.4885
  287MOL0     H37883   2.942   7.498   2.070  2.5372 -0.7646 -1.6742
  287MOL0     H37884   2.783   7.662   2.022  0.7049 -1.4626  2.2228
  288MOL0     O37885  10.028   4.265   1.546 -0.9132  0.2074  0.0132
  288MOL0     C37886  10.142   4.218   1.550  0.2726 -0.8039  0.4828
  288MOL0     O37887  10.179   4.096   1.522  0.3316  0.2704  0.0819
  288MOL0     C37888  10.087   4.000   1.509 -0.6003 -0.8578  0.3187
  288MOL0     C37889  10.024   3.940   1.617 -0.2429 -0.8437 -1.4108
  288MOL0     C37890   9.920   3.840   1.602 -0.1083  0.1163  0.1939
  288MOL0     C37891   9.874   3.810   1.469 -0.0933 -0.8669  0.1027
  288MOL0     O37892   9.757   3.731   1.441 -0.3702  0.0737  0.4081
  288MOL0     C37893   9.672   3.707   1.554  0.8458  0.6726  0.1068
  288MOL0     C37894   9.537   3.657   1.515 -0.0754 -0.1582  1.3413
  288MOL0     C37895   9.548   3.500   1.507  0.5517 -0.0075 -0.0281
  288MOL0     C37896   9.423   3.443   1.430 -0.1978  0.1210 -0.1018
  288MOL0     C37897   9.297   3.464   1.509  0.1826 -0.3770 -0.1302
  288MOL0     C37898   9.186   3.367   1.487 -0.3937  0.2725  0.1093
  288MOL0     C37899   9.109   3.379   1.356 -0.1738  0.7270 -0.2987
  288MOL0     C37900   8.989   3.282   1.353 -0.4612  0.7797  0.7934
  288MOL0     N37901   8.899   3.301   1.466 -0.0340 -0.7003  0.3116
  288MOL0     C37902   8.876   3.205   1.560 -1.3163 -0.1138 -0.6096
  288MOL0     C37903   8.789   3.275   1.634  0.6234  0.2576  0.4113
  288MOL0     C37904   8.720   3.211   1.749  0.2662  0.2446 -0.1428
  288MOL0     C37905   8.753   3.275   1.883 -0.4014  0.2722 -0.2804
  288MOL0     C37906   8.889   3.215   1.932  1.3372 -0.0514 -1.1538
  288MOL0     C37907   8.946   3.311   2.042 -0.4124  0.1838 -0.8110
  288MOL0     O37908   8.886   3.263   2.165  0.5036 -0.3951  0.3261
  288MOL0     C37909   8.943   3.168   2.251  0.6277  0.5223 -0.6139
  288MOL0     C37910   9.075   3.138   2.257 -0.0987  0.3909  0.3566
  288MOL0     C37911   9.123   3.036   2.344  0.2807 -0.5828  0.7754
  288MOL0     C37912   9.037   2.956   2.419  0.2980  0.0735  0.2729
  288MOL0     C37913   9.089   2.853   2.506 -0.3360  0.3532  0.8024
  288MOL0     O37914   8.992   2.799   2.591  0.4036  0.9758  0.4633
  288MOL0     C37915   9.022   2.692   2.674 -0.1883  1.1665 -0.3566
  288MOL0     C37916   9.080   2.575   2.623  0.3998  0.1415  0.5173
  288MOL0     C37917   9.100   2.467   2.708  0.0222  0.0348  0.2851
  288MOL0     C37918   9.068   2.466   2.843  1.1803 -0.7191  1.1191
  288MOL0     O37919   9.074   2.362   2.923 -0.6205  0.7497  0.6491
  288MOL0     C37920   9.206   2.306   2.948 -0.1530 -1.0361 -0.5087
  288MOL0     C37921   9.279   2.385   3.058 -0.3285  0.5739 -0.7473
  288MOL0     C37922   9.218   2.337   3.194 -0.4914  0.2478 -0.5460
  288MOL0     C37923   9.071   2.380   3.221 -0.1360 -0.5533  0.5990
  288MOL0     C37924   9.047   2.361   3.366  0.7931 -0.9536 -0.0846
  288MOL0     C37925   9.078   2.221   3.424 -0.2227  0.0044 -1.1631
  288MOL0     C37926   8.975   2.120   3.385  0.0278  0.2641  0.2752
  288MOL0     C37927   9.014   1.985   3.447  0.1358 -0.7980 -0.8424
  288MOL0    Cl37928   8.994   1.989   3.625 -0.8746 -0.1616  0.1275
  288MOL0     C37929   9.010   2.585   2.892 -0.0721  0.0684  0.5669
  288MOL0     C37930   8.981   2.696   2.803  1.2082  1.1206 -0.5195
  288MOL0     O37931   9.212   2.831   2.506 -0.3380 -0.5259 -0.5361
  288MOL0     C37932   8.897   2.994   2.407 -0.2865 -0.0110 -0.4399
  288MOL0     C37933   8.856   3.094   2.320 -0.2561 -0.5184 -0.6176
  288MOL0     N37934   8.760   3.401   1.580  0.1725 -1.1406 -0.3366
  288MOL0     N37935   8.830   3.417   1.484 -0.4494  0.1761 -0.2022
  288MOL0     C37936   9.928   3.874   1.365 -1.1809  0.2196  1.0512
  288MOL0     C37937  10.037   3.960   1.377 -1.2041  0.2778 -0.3893
  288MOL0     C37938  10.241   4.330   1.579 -0.4119  0.3942  0.6599
  288MOL0     C37939  10.199   4.460   1.619 -0.3032  0.2561  0.3265
  288MOL0     C37940  10.292   4.550   1.657 -0.3076 -0.0700 -0.3470
  288MOL0     C37941  10.435   4.514   1.667 -0.5312  0.3852  0.1115
  288MOL0     O37942  10.522   4.605   1.712 -0.5525  0.4359  0.5837
  288MOL0     C37943  10.491   4.678   1.829  0.6005  0.1267 -0.4433
  288MOL0     C37944  10.606   4.759   1.883 -0.4849 -0.0132 -0.1701
  288MOL0     C37945  10.631   4.894   1.812  0.2640  0.8419  0.1746
  288MOL0     C37946  10.509   4.989   1.814  0.4569 -0.1765  0.1851
  288MOL0     C37947  10.509   5.082   1.706  0.7788 -0.2876 -0.4296
  288MOL0     C37948  10.499   5.162   1.617  0.1576 -0.6549 -1.2019
  288MOL0     C37949  10.472   4.386   1.618  1.0355  0.4621  0.0695
  288MOL0     C37950  10.373   4.302   1.571  0.5924  0.0375  1.0252
  288MOL0     H37951  10.067   3.953   1.717  3.1703 -1.9290 -2.5687
  288MOL0     H37952   9.871   3.785   1.681  3.0811 -2.4051  0.6623
  288MOL0     H37953   9.656   3.790   1.624 -0.5116  2.6973 -2.4145
  288MOL0     H37954   9.721   3.629   1.614 -2.2080 -1.6979 -0.2166
  288MOL0     H37955   9.511   3.699   1.418  2.3202 -0.9041  0.3013
  288MOL0     H37956   9.465   3.683   1.593 -0.3120 -3.7408  2.5047
  288MOL0     H37957   9.559   3.458   1.608  0.1533 -0.9602 -0.3697
  288MOL0     H37958   9.642   3.482   1.454  1.3412 -1.0900  1.6462
  288MOL0     H37959   9.420   3.496   1.334 -1.1410  0.2169 -0.0298
  288MOL0     H37960   9.438   3.335   1.420  4.7511  0.4521  1.0139
  288MOL0     H37961   9.245   3.557   1.481 -1.4415 -0.5663  1.9456
  288MOL0     H37962   9.312   3.476   1.616 -2.4130  1.2374  0.1484
  288MOL0     H37963   9.124   3.399   1.571  1.9028  2.5160  1.0624
  288MOL0     H37964   9.208   3.260   1.492 -5.4677 -1.3073 -3.4014
  288MOL0     H37965   9.078   3.482   1.337 -2.3696 -0.5035 -4.4191
  288MOL0     H37966   9.184   3.354   1.281  2.0464 -0.2331  2.0845
  288MOL0     H37967   9.006   3.174   1.347 -0.2837  0.8688 -3.0316
  288MOL0     H37968   8.936   3.293   1.258 -0.9192  2.7330  1.2324
  288MOL0     H37969   8.907   3.101   1.556 -0.9204  0.0283 -1.6571
  288MOL0     H37970   8.742   3.103   1.748  1.6503  0.4822 -2.3185
  288MOL0     H37971   8.614   3.225   1.730 -0.0373 -0.8332  0.6109
  288MOL0     H37972   8.683   3.251   1.963 -0.3680 -1.9947 -0.8630
  288MOL0     H37973   8.761   3.384   1.876 -1.0127  0.8940  4.9399
  288MOL0     H37974   8.877   3.120   1.985 -0.7968  0.4269 -0.7081
  288MOL0     H37975   8.962   3.192   1.853  1.0893 -3.4724 -0.5572
  288MOL0     H37976   8.918   3.415   2.023 -1.6488 -0.1106 -0.7165
  288MOL0     H37977   9.055   3.306   2.041 -0.2250  1.9460  1.8500
  288MOL0     H37978   9.148   3.200   2.205 -2.0300  0.4480 -2.5496
  288MOL0     H37979   9.231   3.023   2.346  0.1912 -1.7248 -0.3258
  288MOL0     H37980   9.094   2.565   2.515 -3.7974 -1.5530 -0.0766
  288MOL0     H37981   9.144   2.372   2.679 -3.5779 -2.0918  1.0878
  288MOL0     H37982   9.254   2.309   2.850 -1.2094 -0.5288 -1.0324
  288MOL0     H37983   9.198   2.202   2.981  0.5036 -0.0339  3.2328
  288MOL0     H37984   9.278   2.494   3.049 -0.2926  0.7188  0.6772
  288MOL0     H37985   9.384   2.354   3.064 -0.1276  1.4921  3.1064
  288MOL0     H37986   9.287   2.370   3.272 -1.3671 -0.4218  0.5242
  288MOL0     H37987   9.221   2.228   3.202 -1.0165  0.3813  2.1689
  288MOL0     H37988   9.065   2.489   3.210 -0.7470 -0.5187  1.2559
  288MOL0     H37989   9.003   2.339   3.146  3.1228  1.3301 -3.9060
  288MOL0     H37990   8.938   2.370   3.370  0.7908 -1.3622  1.4826
  288MOL0     H37991   9.082   2.452   3.414  0.7831  0.5775 -2.7827
  288MOL0     H37992   9.076   2.221   3.534 -0.7637 -1.5032 -1.1534
  288MOL0     H37993   9.184   2.201   3.404  0.3141  2.3445 -1.0625
  288MOL0     H37994   8.875   2.146   3.423  0.0941 -0.9460  1.3532
  288MOL0     H37995   8.973   2.111   3.276 -2.4148  1.4570  0.1320
  288MOL0     H37996   9.112   1.946   3.417 -0.4415 -1.7176 -1.5864
  288MOL0     H37997   8.956   1.905   3.400 -1.5571  0.9065 -1.7831
  288MOL0     H37998   8.975   2.606   2.992 -0.3598 -2.5843  1.1157
  288MOL0     H37999   8.924   2.781   2.839  0.0069 -1.0246  3.1794
  288MOL0     H38000   8.820   2.939   2.459  0.6097  1.2207  2.3761
  288MOL0     H38001   8.752   3.107   2.290 -0.1587  3.0554  0.1830
  288MOL0     H38002   9.906   3.836   1.266  2.9699 -1.3114  0.5250
  288MOL0     H38003  10.084   3.988   1.284  0.5027 -1.3160 -0.0575
  288MOL0     H38004  10.099   4.499   1.622 -0.5149 -0.2853  3.5708
  288MOL0     H38005  10.250   4.647   1.681 -2.6743 -0.1741 -3.4554
  288MOL0     H38006  10.466   4.605   1.907 -0.9262 -0.0134 -1.0407
  288MOL0     H38007  10.397   4.731   1.815  1.1527  0.4366 -3.9414
  288MOL0     H38008  10.582   4.792   1.985 -0.9867  3.0381 -1.1777
  288MOL0     H38009  10.695   4.696   1.875 -0.5756 -0.1228 -0.3327
  288MOL0     H38010  10.665   4.884   1.709  1.1162 -0.3673  0.5516
  288MOL0     H38011  10.725   4.936   1.850  2.1059 -2.4856 -0.3141
  288MOL0     H38012  10.416   4.931   1.814  1.5529 -2.0013 -0.8969
  288MOL0     H38013  10.474   5.044   1.902 -2.1744 -0.2823 -0.6784
  288MOL0     H38014  10.490   5.245   1.549  2.6049 -0.9263 -1.9492
  288MOL0     H38015  10.578   4.365   1.607  1.3392  1.5966  0.6298
  288MOL0     H38016  10.407   4.208   1.528  1.3240  1.9405 -3.0831
  289MOL0     O38017   7.553   3.076   3.974 -0.2474 -0.3663  0.1919
  289MOL0     C38018   7.640   3.019   3.911 -0.0593  0.8146  0.6612
  289MOL0     O38019   7.759   3.075   3.874 -0.7628 -0.2640  0.5049
  289MOL0     C38020   7.802   3.196   3.919 -0.6339 -0.5595  0.1484
  289MOL0     C38021   7.888   3.258   3.826 -0.3954 -0.7761 -0.6153
  289MOL0     C38022   7.952   3.376   3.863  0.9580  0.5977 -0.2639
  289MOL0     C38023   7.945   3.434   3.993  0.3107  0.1362  0.1213
  289MOL0     O38024   7.996   3.555   4.044 -0.2075  0.2388 -0.2537
  289MOL0     C38025   8.031   3.645   3.942 -0.4313 -0.2858  0.7468
  289MOL0     C38026   8.051   3.778   4.010 -0.6675 -0.1132 -0.9793
  289MOL0     C38027   8.058   3.904   3.920 -0.1441 -0.5198 -0.8016
  289MOL0     C38028   8.199   3.942   3.898 -0.6606 -0.1128 -0.1278
  289MOL0     C38029   8.212   4.058   3.798 -0.0615 -0.3655 -0.3268
  289MOL0     C38030   8.326   4.059   3.693  0.0198  0.4108 -0.5212
  289MOL0     C38031   8.320   4.173   3.599 -0.6284  0.2105 -0.4470
  289MOL0     C38032   8.336   4.314   3.654  0.3919  0.4244  0.7640
  289MOL0     N38033   8.345   4.414   3.552 -0.1065 -0.3854  0.0027
  289MOL0     C38034   8.454   4.490   3.524 -0.1499  0.7121  0.7130
  289MOL0     C38035   8.412   4.581   3.429 -0.7676  0.1940 -0.0669
  289MOL0     C38036   8.493   4.685   3.350 -0.0060 -0.3044  0.2436
  289MOL0     C38037   8.444   4.831   3.371 -1.0903 -0.0070 -0.3151
  289MOL0     C38038   8.313   4.859   3.289  0.0346 -0.7728 -1.0711
  289MOL0     C38039   8.291   5.011   3.275  0.7129  0.4191  0.8717
  289MOL0     O38040   8.158   5.029   3.227  0.3531  1.0974  0.4384
  289MOL0     C38041   8.136   5.124   3.137  1.3084 -0.8646 -0.5774
  289MOL0     C38042   8.062   5.084   3.021 -0.3982  0.2616  0.6619
  289MOL0     C38043   8.036   5.174   2.922  0.1312 -0.9296 -0.7529
  289MOL0     C38044   8.060   5.317   2.945 -0.7509  0.4848 -0.5162
  289MOL0     C38045   8.043   5.416   2.828  0.2970  0.4969  0.0584
  289MOL0     O38046   8.121   5.523   2.830  0.2302 -0.2369 -0.2545
  289MOL0     C38047   8.135   5.578   2.708  0.0413 -0.2942 -0.0165
  289MOL0     C38048   8.218   5.523   2.611  0.0759  0.1970  0.3285
  289MOL0     C38049   8.244   5.576   2.479 -0.1428  1.2369  0.1244
  289MOL0     C38050   8.194   5.700   2.450  0.0690  0.8136 -0.7202
  289MOL0     O38051   8.226   5.751   2.332  1.2525  0.6908 -0.5051
  289MOL0     C38052   8.175   5.879   2.290 -0.4862  0.8503 -0.6902
  289MOL0     C38053   8.238   5.913   2.149 -0.5822 -0.9664 -0.1946
  289MOL0     C38054   8.188   6.060   2.120  0.3707  0.1016 -0.8584
  289MOL0     C38055   8.265   6.134   2.007  0.8741  0.4381 -0.1467
  289MOL0     C38056   8.413   6.185   2.041 -0.6489  0.4939  0.4651
  289MOL0     C38057   8.404   6.320   2.117  0.4481 -0.2446  0.7192
  289MOL0     C38058   8.542   6.394   2.126 -0.4271 -0.0596 -0.1458
  289MOL0     C38059   8.541   6.512   2.221  1.1714 -0.1390  0.6021
  289MOL0    Cl38060   8.567   6.663   2.126  0.1983  0.4937 -0.2947
  289MOL0     C38061   8.111   5.758   2.548  0.3549  0.2077  0.2179
  289MOL0     C38062   8.076   5.703   2.673  0.5772  0.6457  0.0020
  289MOL0     O38063   7.975   5.384   2.732  0.3178 -0.5501 -0.0816
  289MOL0     C38064   8.127   5.356   3.061  0.3926  0.4150 -0.4204
  289MOL0     C38065   8.173   5.259   3.158  0.1637 -0.5294  0.2061
  289MOL0     N38066   8.281   4.561   3.410 -0.4250 -0.4461  0.2282
  289MOL0     N38067   8.238   4.469   3.494  0.4729 -0.1306 -0.2840
  289MOL0     C38068   7.853   3.371   4.081 -0.6745  0.5191 -0.0097
  289MOL0     C38069   7.785   3.255   4.044  0.5405 -0.0142 -0.2867
  289MOL0     C38070   7.602   2.892   3.861 -0.0067  0.4307  0.5987
  289MOL0     C38071   7.469   2.852   3.866 -0.5229 -0.9319  1.1638
  289MOL0     C38072   7.434   2.727   3.829 -0.0998 -1.2782 -0.1334
  289MOL0     C38073   7.540   2.641   3.787  1.0456 -0.6876 -0.0234
  289MOL0     O38074   7.518   2.512   3.759  0.8252  0.4168 -0.3002
  289MOL0     C38075   7.395   2.487   3.680  0.3789  0.7861 -0.0625
  289MOL0     C38076   7.411   2.355   3.598  0.2903  0.0559 -0.1354
  289MOL0     C38077   7.306   2.321   3.494  0.1624  0.0722  0.6452
  289MOL0     C38078   7.272   2.439   3.397  0.0671 -1.0459 -0.2959
  289MOL0     C38079   7.239   2.388   3.262  0.6599  0.2100  0.1546
  289MOL0     C38080   7.241   2.353   3.143  1.5959  0.5557 -0.1756
  289MOL0     C38081   7.666   2.684   3.765  1.0989  0.1809 -1.1296
  289MOL0     C38082   7.703   2.803   3.805  1.5717 -0.5372 -0.2422
  289MOL0     H38083   7.900   3.209   3.730  0.0024  3.0927 -2.7348
  289MOL0     H38084   8.013   3.423   3.787  1.2694  3.4186  1.5931
  289MOL0     H38085   7.967   3.672   3.857  2.3188  4.1986 -0.2735
  289MOL0     H38086   8.126   3.614   3.898 -1.3196 -1.5474 -0.3492
  289MOL0     H38087   8.136   3.773   4.079 -0.8646  3.1688 -0.3712
  289MOL0     H38088   7.960   3.802   4.066 -0.3374  1.4260 -1.0824
  289MOL0     H38089   8.011   3.990   3.968 -0.0460 -1.8899  1.9186
  289MOL0     H38090   8.014   3.882   3.822  1.1327 -0.5992 -1.3776
  289MOL0     H38091   8.251   3.958   3.993  0.7042 -3.2377 -0.2264
  289MOL0     H38092   8.243   3.847   3.866  1.6962  1.1358 -0.8402
  289MOL0     H38093   8.219   4.153   3.853 -2.3213  0.0209 -0.6089
  289MOL0     H38094   8.128   4.050   3.729  1.1776  1.3462 -2.1587
  289MOL0     H38095   8.301   3.967   3.639 -1.1421 -0.0402  0.7297
  289MOL0     H38096   8.421   4.058   3.747 -0.5608  0.7796  0.5379
  289MOL0     H38097   8.408   4.162   3.535 -0.5690  2.9740 -0.9799
  289MOL0     H38098   8.229   4.163   3.540 -0.5605  6.2316 -2.2814
  289MOL0     H38099   8.429   4.314   3.711 -1.7004 -1.1879  4.5743
  289MOL0     H38100   8.260   4.333   3.731  1.3475 -0.2225  1.9007
  289MOL0     H38101   8.552   4.473   3.567  1.9585 -0.1894 -3.9416
  289MOL0     H38102   8.495   4.659   3.244  1.6577 -1.3775  0.4921
  289MOL0     H38103   8.595   4.681   3.390  0.9187  4.7110 -0.9431
  289MOL0     H38104   8.517   4.904   3.337 -0.2176 -0.4763  0.4984
  289MOL0     H38105   8.421   4.843   3.478  1.7097 -1.2337  0.5160
  289MOL0     H38106   8.307   4.803   3.195  0.8049 -1.8832 -0.4843
  289MOL0     H38107   8.227   4.825   3.348 -1.3854  1.0226 -1.9950
  289MOL0     H38108   8.350   5.053   3.192 -1.6870 -2.1533 -2.4216
  289MOL0     H38109   8.310   5.061   3.370 -1.7359  0.3490  1.4668
  289MOL0     H38110   8.028   4.981   3.010 -1.9316  0.6221  1.6662
  289MOL0     H38111   8.000   5.130   2.829  0.0300 -1.1589 -0.6048
  289MOL0     H38112   8.257   5.428   2.645 -0.4364  0.2337  1.0293
  289MOL0     H38113   8.308   5.529   2.406  2.0822  3.3659  0.5555
  289MOL0     H38114   8.208   5.945   2.371 -0.9574 -1.3895  1.4864
  289MOL0     H38115   8.066   5.873   2.277 -0.2672 -2.3392 -1.9382
  289MOL0     H38116   8.215   5.844   2.067  1.8614 -2.6213  0.4013
  289MOL0     H38117   8.347   5.911   2.158 -0.4798 -3.2845 -1.1614
  289MOL0     H38118   8.210   6.111   2.214 -0.9910 -0.8951  0.0382
  289MOL0     H38119   8.082   6.056   2.093  0.6030 -0.9419 -1.7199
  289MOL0     H38120   8.269   6.066   1.921 -1.6010  0.0511 -0.0178
  289MOL0     H38121   8.202   6.220   1.984  0.6827  0.5774  0.8725
  289MOL0     H38122   8.470   6.193   1.948  0.0816 -3.6832  0.3460
  289MOL0     H38123   8.464   6.115   2.108 -1.3565  1.4841  2.1092
  289MOL0     H38124   8.356   6.303   2.213 -0.1694 -2.5835  0.0528
  289MOL0     H38125   8.330   6.376   2.059 -0.7307 -2.0968  0.3851
  289MOL0     H38126   8.620   6.321   2.147 -0.6767 -0.4971 -0.7102
  289MOL0     H38127   8.553   6.430   2.023 -4.5359  1.9224 -0.0889
  289MOL0     H38128   8.631   6.509   2.282  1.1980 -0.7408  0.5412
  289MOL0     H38129   8.456   6.513   2.290  0.0198 -0.1215 -0.7514
  289MOL0     H38130   8.072   5.859   2.548 -1.3686 -0.0881  5.9450
  289MOL0     H38131   8.001   5.759   2.728  1.9294  0.8963  1.6408
  289MOL0     H38132   8.139   5.461   3.083  2.9412 -0.2241  1.6406
  289MOL0     H38133   8.231   5.290   3.245 -0.0477 -2.2783  1.0294
  289MOL0     H38134   7.831   3.420   4.176 -1.3419  0.4283 -0.1168
  289MOL0     H38135   7.722   3.209   4.119  1.6115  1.1640  1.3947
  289MOL0     H38136   7.398   2.925   3.904  0.6488  1.8874 -1.5677
  289MOL0     H38137   7.333   2.691   3.840 -0.4898 -1.1407 -2.7132
  289MOL0     H38138   7.390   2.562   3.600 -1.5511  0.2403 -0.5083
  289MOL0     H38139   7.303   2.483   3.740 -0.7480  4.0441 -1.3625
  289MOL0     H38140   7.498   2.361   3.532  0.5091 -2.0223 -0.1143
  289MOL0     H38141   7.419   2.270   3.667  1.4856  0.5434  0.3619
  289MOL0     H38142   7.211   2.293   3.541  0.2277 -0.7743  0.2940
  289MOL0     H38143   7.339   2.227   3.449 -1.7464 -1.4595  2.2404
  289MOL0     H38144   7.200   2.509   3.439 -0.1308 -1.9060  0.8577
  289MOL0     H38145   7.356   2.506   3.381  0.5782 -1.3133  1.1171
  289MOL0     H38146   7.214   2.320   3.045 -0.5668 -0.8979  0.8284
  289MOL0     H38147   7.731   2.603   3.733  1.5588  0.2567 -0.3959
  289MOL0     H38148   7.803   2.830   3.774  1.0266 -0.1931 -1.7718
  290MOL0     O38149   7.069   5.591   0.879 -0.1421  0.2223  0.1483
  290MOL0     C38150   7.123   5.482   0.879  0.2269 -0.1885 -0.7329
  290MOL0     O38151   7.091   5.376   0.955  0.3052 -0.3345  0.6190
  290MOL0     C38152   6.960   5.361   0.984  0.5250  0.0890  0.4854
  290MOL0     C38153   6.936   5.264   1.091 -1.0829 -0.3600  0.2092
  290MOL0     C38154   6.810   5.229   1.126 -0.4744  0.0192 -0.8998
  290MOL0     C38155   6.712   5.281   1.050  0.2921 -0.2089  0.9027
  290MOL0     O38156   6.588   5.240   1.071 -0.5972  0.0738  0.4956
  290MOL0     C38157   6.532   5.159   0.958 -0.3972 -0.2407 -0.3598
  290MOL0     C38158   6.407   5.076   0.989 -0.5564  0.8510  0.0663
  290MOL0     C38159   6.388   4.960   0.895  0.8955 -0.3924  0.5836
  290MOL0     C38160   6.262   4.879   0.934  0.3743  0.1931  0.0229
  290MOL0     C38161   6.204   4.808   0.805 -0.3174 -0.1499  0.4288
  290MOL0     C38162   6.119   4.890   0.711 -0.2350 -0.1653  0.3608
  290MOL0     C38163   6.035   4.800   0.618 -0.1224  0.0268  0.3658
  290MOL0     C38164   6.109   4.677   0.567 -0.6649 -0.1172  0.6020
  290MOL0     N38165   6.060   4.622   0.442 -0.9393 -0.4908  0.1252
  290MOL0     C38166   6.037   4.685   0.317 -0.3270 -0.2776 -0.6129
  290MOL0     C38167   6.005   4.585   0.229 -0.9205 -0.4314 -0.6149
  290MOL0     C38168   5.949   4.584   0.093 -0.0704  0.5891 -0.5259
  290MOL0     C38169   5.794   4.591   0.090 -0.2793  0.9692  0.6720
  290MOL0     C38170   5.752   4.521  -0.043 -0.0071  0.4300 -0.7538
  290MOL0     C38171   5.790   4.591  -0.176  0.3514 -0.5720  0.2233
  290MOL0     O38172   5.734   4.523  -0.281 -0.0315 -0.6420  0.6491
  290MOL0     C38173   5.688   4.589  -0.397  0.4898  0.0605  0.9493
  290MOL0     C38174   5.687   4.726  -0.423 -0.2360  1.0565 -1.3869
  290MOL0     C38175   5.627   4.766  -0.540  0.5917  0.7172 -0.2546
  290MOL0     C38176   5.581   4.690  -0.641 -0.1704  0.1874  0.7891
  290MOL0     C38177   5.535   4.753  -0.769  0.6283 -0.5164 -0.4767
  290MOL0     O38178   5.562   4.885  -0.789  0.4595  0.6949  0.1070
  290MOL0     C38179   5.552   4.933  -0.916  0.3655 -0.7918  0.2112
  290MOL0     C38180   5.644   4.897  -1.014  0.4811  0.0554  0.5323
  290MOL0     C38181   5.647   4.957  -1.135 -0.1036 -0.7541  0.5739
  290MOL0     C38182   5.552   5.056  -1.175  0.3225  0.2466 -1.2459
  290MOL0     O38183   5.543   5.088  -1.305  0.7111  0.8467 -0.6394
  290MOL0     C38184   5.445   5.176  -1.356 -0.6219 -0.2358 -0.5386
  290MOL0     C38185   5.401   5.136  -1.492  0.0596 -0.5195  0.3170
  290MOL0     C38186   5.523   5.149  -1.594  0.0658  0.0265  0.3755
  290MOL0     C38187   5.511   5.077  -1.732  0.5912 -0.5398 -0.5155
  290MOL0     C38188   5.407   5.155  -1.808  0.8925  0.3057 -0.1024
  290MOL0     C38189   5.399   5.133  -1.954 -0.0568  0.4144  0.7979
  290MOL0     C38190   5.343   5.260  -2.028  0.2790  0.1916 -0.1184
  290MOL0     C38191   5.188   5.284  -2.032  0.3236  0.4459 -0.3899
  290MOL0    Cl38192   5.108   5.122  -2.019  0.0178 -0.0541  0.1000
  290MOL0     C38193   5.465   5.106  -1.081  0.5684  0.3470  0.6331
  290MOL0     C38194   5.473   5.044  -0.954 -1.2393  0.7984 -0.5239
  290MOL0     O38195   5.460   4.682  -0.837  0.4508 -0.1680 -0.5620
  290MOL0     C38196   5.582   4.553  -0.613 -0.5030  1.1245  0.0043
  290MOL0     C38197   5.636   4.501  -0.497 -0.1765 -0.1861 -1.1417
  290MOL0     N38198   5.998   4.474   0.306  0.5144  0.9174 -0.0690
  290MOL0     N38199   6.049   4.487   0.423  0.4315 -0.8271 -0.0174
  290MOL0     C38200   6.725   5.386   0.958  0.1107  0.7460 -0.1872
  290MOL0     C38201   6.850   5.420   0.922 -0.2458 -0.2269  0.4787
  290MOL0     C38202   7.246   5.474   0.800  0.3864  0.6358  0.4195
  290MOL0     C38203   7.313   5.587   0.745 -0.2921  0.6089 -0.2878
  290MOL0     C38204   7.430   5.559   0.677  0.4535 -0.9157  0.0791
  290MOL0     C38205   7.485   5.433   0.658  0.4148  0.2087 -0.7195
  290MOL0     O38206   7.598   5.423   0.589  0.2063 -0.0195  1.1642
  290MOL0     C38207   7.686   5.311   0.592 -0.2940  0.4199  0.3578
  290MOL0     C38208   7.829   5.357   0.623 -0.1984  1.0189 -0.2178
  290MOL0     C38209   7.883   5.480   0.551  0.1315 -0.4256 -0.9339
  290MOL0     C38210   7.902   5.439   0.406  0.0675 -0.5601  0.9740
  290MOL0     C38211   8.033   5.375   0.379  0.4886  0.3512 -0.2369
  290MOL0     C38212   8.137   5.320   0.351  0.1541 -0.0295  0.1014
  290MOL0     C38213   7.418   5.327   0.715 -1.4764  0.1013 -0.7175
  290MOL0     C38214   7.302   5.345   0.786  0.5688  0.6937  0.2189
  290MOL0     H38215   7.025   5.215   1.128 -1.1906 -0.4946  0.2896
  290MOL0     H38216   6.784   5.164   1.208 -1.8765  1.9679  0.2798
  290MOL0     H38217   6.613   5.085   0.949 -1.3860 -1.5595  1.1722
  290MOL0     H38218   6.513   5.217   0.867 -0.3366  0.8187  0.2815
  290MOL0     H38219   6.324   5.146   0.975 -0.9815  1.0106  2.7835
  290MOL0     H38220   6.408   5.046   1.094  2.7205  2.2674  0.5887
  290MOL0     H38221   6.474   4.895   0.884 -0.3368 -1.7703 -1.8673
  290MOL0     H38222   6.370   4.994   0.792  1.2596  0.7775  0.8895
  290MOL0     H38223   6.280   4.806   1.014  0.0079  0.6130  0.4907
  290MOL0     H38224   6.192   4.949   0.979  0.4283 -0.2394  0.8019
  290MOL0     H38225   6.147   4.728   0.854 -0.0289  0.2243  1.4031
  290MOL0     H38226   6.287   4.755   0.756  1.5793  1.5006  1.6937
  290MOL0     H38227   6.190   4.946   0.649  0.7992 -0.9004  0.8342
  290MOL0     H38228   6.056   4.959   0.768  0.4586 -0.0333  0.9874
  290MOL0     H38229   5.944   4.781   0.677 -0.5497  0.7930 -0.0213
  290MOL0     H38230   6.000   4.845   0.525  0.8279 -1.5118 -0.7824
  290MOL0     H38231   6.115   4.600   0.644  1.1183 -1.3516 -0.6539
  290MOL0     H38232   6.208   4.701   0.526  0.1009 -1.8113  1.3572
  290MOL0     H38233   6.053   4.789   0.293  1.0658 -0.3857 -0.2420
  290MOL0     H38234   5.992   4.491   0.055  2.4249  2.1347 -1.7506
  290MOL0     H38235   5.992   4.667   0.036  1.6573 -1.2821 -2.0991
  290MOL0     H38236   5.767   4.696   0.083  2.1995  1.5996 -0.3871
  290MOL0     H38237   5.746   4.541   0.175 -0.3670  1.3057  0.8221
  290MOL0     H38238   5.790   4.419  -0.034  1.2734  1.0803  2.7198
  290MOL0     H38239   5.645   4.497  -0.050 -0.0094  0.2056 -0.0486
  290MOL0     H38240   5.895   4.609  -0.200  0.0448  2.1020  0.5529
  290MOL0     H38241   5.751   4.693  -0.166  1.6662  0.1333 -1.3956
  290MOL0     H38242   5.735   4.794  -0.354 -0.4445  1.9907 -2.1492
  290MOL0     H38243   5.635   4.873  -0.561  1.6383  0.2262 -2.7730
  290MOL0     H38244   5.715   4.824  -0.977  3.1527  1.7610 -0.9003
  290MOL0     H38245   5.709   4.938  -1.221 -2.6525  1.8576 -2.0689
  290MOL0     H38246   5.492   5.275  -1.355 -4.1653  1.6378  2.1900
  290MOL0     H38247   5.351   5.186  -1.301  0.2075  0.6749  0.7668
  290MOL0     H38248   5.314   5.195  -1.523  2.6149  4.0713  0.9841
  290MOL0     H38249   5.365   5.032  -1.495 -1.2608 -0.0717  0.1064
  290MOL0     H38250   5.608   5.117  -1.533 -0.0339  2.3425  1.8639
  290MOL0     H38251   5.551   5.253  -1.612  0.9043 -0.2372  0.0708
  290MOL0     H38252   5.609   5.067  -1.780  1.7661 -1.2421  1.8596
  290MOL0     H38253   5.469   4.977  -1.714 -0.3926 -0.3817 -1.7694
  290MOL0     H38254   5.403   5.262  -1.785  1.5077  0.0198  1.5146
  290MOL0     H38255   5.311   5.123  -1.767  1.2776 -2.3428 -1.0958
  290MOL0     H38256   5.340   5.043  -1.975 -0.1916  0.1278  2.2722
  290MOL0     H38257   5.504   5.112  -1.980 -0.1419  0.7698  0.1463
  290MOL0     H38258   5.395   5.348  -1.991 -0.1994  0.1205  0.7363
  290MOL0     H38259   5.363   5.236  -2.133  1.2110 -1.5470  0.4183
  290MOL0     H38260   5.160   5.344  -2.118  1.8102  1.3453 -0.2890
  290MOL0     H38261   5.161   5.343  -1.944 -2.3696 -1.1561 -0.0314
  290MOL0     H38262   5.384   5.176  -1.100 -0.2306 -0.6022  0.4758
  290MOL0     H38263   5.408   5.079  -0.875 -0.7145  0.1059  0.2494
  290MOL0     H38264   5.545   4.485  -0.690  0.5917  0.3612  0.1279
  290MOL0     H38265   5.632   4.395  -0.477  0.1914 -0.5008 -2.6266
  290MOL0     H38266   6.650   5.432   0.895  0.5700 -1.1775 -2.2476
  290MOL0     H38267   6.872   5.492   0.844 -1.7469 -1.0647 -0.7846
  290MOL0     H38268   7.274   5.687   0.759 -2.8983 -0.1400 -1.6144
  290MOL0     H38269   7.489   5.643   0.642 -0.0322 -0.0753  1.2053
  290MOL0     H38270   7.678   5.266   0.492 -1.3650  1.3204  0.0220
  290MOL0     H38271   7.660   5.235   0.667 -1.7358  2.6347  2.2104
  290MOL0     H38272   7.818   5.375   0.731 -1.8235 -2.3038  0.3275
  290MOL0     H38273   7.898   5.274   0.601  0.9337  2.1235 -0.9305
  290MOL0     H38274   7.970   5.526   0.600 -2.1182  1.6919  1.4012
  290MOL0     H38275   7.816   5.566   0.562 -1.4237 -1.5406 -1.4635
  290MOL0     H38276   7.820   5.375   0.374 -1.9694  1.1690  2.4638
  290MOL0     H38277   7.897   5.536   0.354  2.2625 -0.5588  0.6618
  290MOL0     H38278   8.227   5.273   0.318 -0.7129 -1.3277 -0.5496
  290MOL0     H38279   7.458   5.226   0.710 -2.7021 -0.3555 -3.6742
  290MOL0     H38280   7.251   5.255   0.817  0.9956  0.7913  1.2362
  291MOL0     O38281   3.862   1.704   3.056 -0.3263 -0.4552  0.2199
  291MOL0     C38282   3.881   1.716   2.933 -0.9000  0.1157  0.3662
  291MOL0     O38283   3.975   1.650   2.865 -0.0440  0.0983 -0.1386
  291MOL0     C38284   4.049   1.538   2.903 -0.0555  0.1370  0.5342
  291MOL0     C38285   4.013   1.453   3.014 -0.0405 -0.0505 -0.1003
  291MOL0     C38286   4.081   1.331   3.035  0.3168 -0.3820 -0.0983
  291MOL0     C38287   4.191   1.303   2.955  0.1499 -0.2503  0.0749
  291MOL0     O38288   4.275   1.202   2.989 -0.2664  0.0225 -0.4441
  291MOL0     C38289   4.220   1.072   2.984  0.1763 -0.1916  0.9137
  291MOL0     C38290   4.317   0.961   2.999  0.4240 -0.9408  0.3709
  291MOL0     C38291   4.252   0.828   2.976 -0.1307 -0.1489 -0.4285
  291MOL0     C38292   4.342   0.713   2.985 -0.8206  0.1808 -0.4938
  291MOL0     C38293   4.412   0.693   2.844 -0.5174 -0.6667  0.4696
  291MOL0     C38294   4.480   0.551   2.844  0.2756  1.1307 -0.8270
  291MOL0     C38295   4.576   0.519   2.732 -0.0870 -0.9509  0.3902
  291MOL0     C38296   4.707   0.604   2.740  1.2896  0.4817  0.5980
  291MOL0     N38297   4.776   0.604   2.614 -0.1222 -0.9723 -0.7217
  291MOL0     C38298   4.832   0.485   2.558  0.7015  1.1422  0.6621
  291MOL0     C38299   4.890   0.528   2.440  0.5056 -0.1419  0.0921
  291MOL0     C38300   4.955   0.451   2.329  0.1425  0.0306  0.8842
  291MOL0     C38301   5.035   0.327   2.374 -0.1418 -0.1593 -0.9485
  291MOL0     C38302   5.088   0.236   2.262 -0.0029  0.1191 -0.7744
  291MOL0     C38303   4.977   0.166   2.189  0.2927  0.0931  0.2045
  291MOL0     O38304   5.019   0.100   2.068  0.2802  0.3457 -0.3769
  291MOL0     C38305   4.939   0.112   1.960  0.3535  0.2704 -0.5094
  291MOL0     C38306   4.882  -0.002   1.914 -1.2244  0.2411  0.9889
  291MOL0     C38307   4.812  -0.005   1.792  0.9003 -0.8068  0.0675
  291MOL0     C38308   4.797   0.122   1.717  0.1317  0.3853  0.8560
  291MOL0     C38309   4.709   0.121   1.595 -0.0579 -0.6268 -0.0265
  291MOL0     O38310   4.674   0.005   1.548 -0.6101 -0.2259  0.2895
  291MOL0     C38311   4.610  -0.007   1.431  1.1267 -0.7766 -0.4874
  291MOL0     C38312   4.490   0.053   1.403 -0.3444 -0.3435  0.2005
  291MOL0     C38313   4.416   0.038   1.282 -0.5606 -0.0974  0.0869
  291MOL0     C38314   4.457  -0.070   1.198  0.1700 -0.6954  0.2336
  291MOL0     O38315   4.394  -0.102   1.086 -0.0124  0.3626  0.8650
  291MOL0     C38316   4.247  -0.087   1.090 -0.2563 -0.5319  0.0191
  291MOL0     C38317   4.184  -0.140   0.968 -0.6416  1.4285  0.2714
  291MOL0     C38318   4.035  -0.099   0.984 -0.9878 -0.1771  0.3266
  291MOL0     C38319   3.971  -0.102   0.849 -0.8824 -0.1077  0.0655
  291MOL0     C38320   3.822  -0.082   0.864 -0.6453 -0.2773 -0.2028
  291MOL0     C38321   3.760  -0.075   0.729  0.1483  0.6459 -0.0109
  291MOL0     C38322   3.604  -0.086   0.743  0.4360 -0.2300 -0.3309
  291MOL0     C38323   3.565   0.046   0.816  0.3779 -0.3595  0.6541
  291MOL0    Cl38324   3.387   0.065   0.804 -0.3406 -0.3187  0.1069
  291MOL0     C38325   4.579  -0.134   1.218  1.4021  0.1832  0.3252
  291MOL0     C38326   4.647  -0.112   1.344  0.6347  0.4956 -0.4720
  291MOL0     O38327   4.666   0.230   1.553 -0.8162 -0.4860  0.5422
  291MOL0     C38328   4.838   0.245   1.774  0.2988  0.1719  0.4796
  291MOL0     C38329   4.909   0.232   1.895  0.3802 -0.5478  0.6664
  291MOL0     N38330   4.855   0.659   2.421  0.1025  0.0755  0.0151
  291MOL0     N38331   4.784   0.702   2.523 -0.1164 -0.4568  0.9376
  291MOL0     C38332   4.237   1.387   2.857  0.3743 -0.5791 -0.0661
  291MOL0     C38333   4.162   1.507   2.823  0.0717  0.6172 -0.4045
  291MOL0     C38334   3.799   1.818   2.867  0.2564 -0.6248  1.2934
  291MOL0     C38335   3.688   1.878   2.931 -0.5949  1.3894  0.4760
  291MOL0     C38336   3.615   1.979   2.861 -0.1081 -0.0223  0.1232
  291MOL0     C38337   3.657   2.012   2.726 -0.0845  0.1151  0.0565
  291MOL0     O38338   3.590   2.099   2.644 -0.0400 -0.0761 -0.0265
  291MOL0     C38339   3.448   2.095   2.648 -0.7526 -0.2682 -0.9536
  291MOL0     C38340   3.402   2.173   2.527 -0.1415  0.4072 -0.6250
  291MOL0     C38341   3.484   2.131   2.395 -0.2432 -0.3503  0.5816
  291MOL0     C38342   3.427   2.186   2.262 -0.0987 -0.6027 -0.1422
  291MOL0     C38343   3.282   2.168   2.251 -0.1076  0.2431 -0.3554
  291MOL0     C38344   3.169   2.146   2.233 -0.5568 -0.6729  0.4716
  291MOL0     C38345   3.772   1.957   2.675 -0.0997 -0.2045  0.1455
  291MOL0     C38346   3.843   1.870   2.741 -0.1087  0.2859  0.5973
  291MOL0     H38347   3.942   1.488   3.088 -0.0776 -2.8154  1.2634
  291MOL0     H38348   4.061   1.271   3.123 -1.0489 -2.0747 -1.4958
  291MOL0     H38349   4.181   1.047   2.885  0.9085 -2.5432  1.1369
  291MOL0     H38350   4.141   1.065   3.059 -3.0121 -2.1876 -2.2937
  291MOL0     H38351   4.361   0.977   3.097 -0.7650  2.2643  0.4928
  291MOL0     H38352   4.395   0.975   2.923 -1.4930  1.9903 -1.2923
  291MOL0     H38353   4.190   0.829   2.886  1.1717 -0.4847 -1.3464
  291MOL0     H38354   4.185   0.819   3.062  1.3294 -2.2990  0.5754
  291MOL0     H38355   4.426   0.724   3.053 -0.9352 -1.8039  0.0483
  291MOL0     H38356   4.284   0.625   3.015 -2.9016  1.9615  1.0099
  291MOL0     H38357   4.486   0.768   2.815 -0.9580 -0.4500 -0.1196
  291MOL0     H38358   4.331   0.689   2.771 -0.5977 -3.1977  0.6218
  291MOL0     H38359   4.402   0.473   2.845  3.0780 -1.9124 -1.5128
  291MOL0     H38360   4.534   0.534   2.938 -1.8937  1.2524  0.5175
  291MOL0     H38361   4.590   0.410   2.727 -2.5676 -1.3608  0.8238
  291MOL0     H38362   4.531   0.556   2.640  2.7962  0.4090 -0.5875
  291MOL0     H38363   4.770   0.567   2.821  1.1888  1.8090  1.3074
  291MOL0     H38364   4.680   0.706   2.768 -6.1121 -1.2830  2.1032
  291MOL0     H38365   4.824   0.382   2.591 -1.9344  0.0199 -2.9113
  291MOL0     H38366   5.025   0.513   2.272 -0.8394 -1.6330 -2.3166
  291MOL0     H38367   4.875   0.415   2.265 -0.5522  2.2194  0.4200
  291MOL0     H38368   4.979   0.262   2.442 -0.5236  0.4032 -0.7161
  291MOL0     H38369   5.125   0.359   2.428 -1.1984 -2.1957  2.3447
  291MOL0     H38370   5.139   0.304   2.193  0.1355  0.3216 -0.4709
  291MOL0     H38371   5.150   0.158   2.309  0.5614 -0.0480 -1.7671
  291MOL0     H38372   4.893   0.230   2.160 -0.0905 -0.8387 -0.8210
  291MOL0     H38373   4.944   0.084   2.253 -0.1574 -2.7251 -3.2852
  291MOL0     H38374   4.897  -0.094   1.968 -0.3476  0.5836  1.3400
  291MOL0     H38375   4.760  -0.098   1.771 -2.2864  0.7694  0.3443
  291MOL0     H38376   4.462   0.135   1.469  0.5232 -1.8730  2.5869
  291MOL0     H38377   4.323   0.093   1.271  1.2233  3.4836  1.6750
  291MOL0     H38378   4.216   0.018   1.092 -1.3161 -0.8559  0.8093
  291MOL0     H38379   4.213  -0.139   1.179 -0.7739 -2.7955 -1.4152
  291MOL0     H38380   4.198  -0.248   0.976 -3.0219  1.1943  3.2199
  291MOL0     H38381   4.236  -0.090   0.886  1.1958  0.4478  0.7992
  291MOL0     H38382   4.046   0.006   1.015  1.4159 -1.0918  3.1338
  291MOL0     H38383   3.977  -0.169   1.046  0.2615 -2.0086 -0.4778
  291MOL0     H38384   4.019  -0.034   0.778 -1.6121 -0.1345 -0.4663
  291MOL0     H38385   3.979  -0.201   0.803 -2.0666  1.1079 -3.0574
  291MOL0     H38386   3.804   0.005   0.928 -0.3150 -0.1643 -0.2585
  291MOL0     H38387   3.785  -0.169   0.917 -1.1626 -0.8592 -1.4678
  291MOL0     H38388   3.784  -0.163   0.669 -5.6071 -0.2765 -1.5997
  291MOL0     H38389   3.789   0.010   0.667  1.0686 -0.2010 -0.7851
  291MOL0     H38390   3.538  -0.092   0.655 -0.3144 -0.7508  0.2525
  291MOL0     H38391   3.565  -0.173   0.796 -0.6766  0.2640 -0.2972
  291MOL0     H38392   3.629   0.125   0.777 -2.2846  1.0969 -1.0804
  291MOL0     H38393   3.592   0.045   0.922  2.7626  4.1229  0.3309
  291MOL0     H38394   4.616  -0.201   1.141 -0.6658  0.6322 -1.1354
  291MOL0     H38395   4.731  -0.178   1.364  1.4113  1.1923 -1.3162
  291MOL0     H38396   4.802   0.338   1.732  1.5413 -0.4195 -2.1612
  291MOL0     H38397   4.952   0.319   1.944  1.5667  0.0239 -1.2660
  291MOL0     H38398   4.334   1.370   2.811  1.5521  2.2923  1.1060
  291MOL0     H38399   4.198   1.568   2.740 -0.6624  0.1510 -1.0776
  291MOL0     H38400   3.654   1.843   3.029  0.5341 -2.7598 -0.3864
  291MOL0     H38401   3.516   2.001   2.899 -0.3193 -1.4367  0.4387
  291MOL0     H38402   3.412   2.146   2.738  1.4859 -0.6336  0.1919
  291MOL0     H38403   3.415   1.994   2.624 -2.1972 -0.4097  1.3772
  291MOL0     H38404   3.296   2.148   2.516 -0.4179  1.5999 -0.7610
  291MOL0     H38405   3.428   2.276   2.551  0.9052  0.4523 -1.8616
  291MOL0     H38406   3.475   2.023   2.378  0.5004  0.0295 -2.8021
  291MOL0     H38407   3.590   2.156   2.405 -0.0149 -0.7200 -0.7573
  291MOL0     H38408   3.446   2.294   2.261 -0.7628 -0.4841 -0.2597
  291MOL0     H38409   3.483   2.149   2.176  2.5778 -3.3464  2.5315
  291MOL0     H38410   3.062   2.134   2.232 -0.6799  0.3317 -0.7422
  291MOL0     H38411   3.815   1.977   2.577  2.2489  2.3394  1.5669
  291MOL0     H38412   3.932   1.834   2.691 -1.1753 -0.1080 -1.0939
  292MOL0     O38413   4.596   2.453   2.071 -0.5316 -0.2703 -0.3955
  292MOL0     C38414   4.520   2.434   1.980  0.2355 -0.0463 -0.1534
  292MOL0     O38415   4.538   2.463   1.845 -0.0353  0.9088  0.8915
  292MOL0     C38416   4.652   2.527   1.811  0.6889 -0.3076  0.5767
  292MOL0     C38417   4.757   2.462   1.751  0.2300  0.2449  0.6726
  292MOL0     C38418   4.867   2.533   1.687 -0.1171  0.3554  0.6093
  292MOL0     C38419   4.875   2.672   1.702 -0.7323 -0.1485  0.3238
  292MOL0     O38420   4.992   2.736   1.675 -0.2299 -0.9403 -1.0041
  292MOL0     C38421   4.982   2.862   1.599  0.0946  0.5941  0.1025
  292MOL0     C38422   5.129   2.934   1.609 -0.5394  0.0166  0.3413
  292MOL0     C38423   5.137   3.035   1.724  0.1924  0.1599 -0.9092
  292MOL0     C38424   5.288   3.069   1.767  0.2094 -0.4170 -0.2999
  292MOL0     C38425   5.362   3.145   1.660  0.2033  0.7715 -0.3345
  292MOL0     C38426   5.451   3.265   1.717  0.5149  0.2936 -0.4259
  292MOL0     C38427   5.511   3.355   1.606 -0.2504  0.9739  0.1719
  292MOL0     C38428   5.608   3.455   1.662  0.3787 -0.7602  0.6326
  292MOL0     N38429   5.738   3.401   1.696 -0.9777 -0.2759  0.6165
  292MOL0     C38430   5.798   3.363   1.815  0.0365 -0.5283 -1.1883
  292MOL0     C38431   5.920   3.319   1.784  0.2551  0.4792 -0.0992
  292MOL0     C38432   6.042   3.262   1.868  0.2211 -0.3608  0.1219
  292MOL0     C38433   6.169   3.350   1.886 -0.9019 -0.9709  0.0746
  292MOL0     C38434   6.135   3.496   1.903 -0.4479 -0.3525 -0.8386
  292MOL0     C38435   6.264   3.569   1.929  0.1812 -0.0420  0.6473
  292MOL0     O38436   6.326   3.539   2.056  0.1982  0.4005 -0.4185
  292MOL0     C38437   6.425   3.622   2.106 -0.2995  0.5348  0.7765
  292MOL0     C38438   6.527   3.686   2.033  0.7257 -0.1199  0.3628
  292MOL0     C38439   6.608   3.788   2.091 -0.1630 -0.1443 -0.3213
  292MOL0     C38440   6.595   3.804   2.230  0.0492 -0.7943  0.1867
  292MOL0     C38441   6.688   3.894   2.295  0.2324  0.0084  0.2145
  292MOL0     O38442   6.638   3.960   2.408 -1.1184  0.4882  0.4430
  292MOL0     C38443   6.709   4.055   2.475 -0.8008 -0.2866  0.3604
  292MOL0     C38444   6.635   4.154   2.535  0.2789  0.7304  0.0721
  292MOL0     C38445   6.707   4.252   2.609 -1.1200 -0.0042  0.1140
  292MOL0     C38446   6.845   4.240   2.639 -0.7677 -0.0336 -0.1813
  292MOL0     O38447   6.908   4.341   2.706 -0.4223 -0.1318 -0.5902
  292MOL0     C38448   7.044   4.326   2.749 -0.4652 -0.2527  1.2578
  292MOL0     C38449   7.081   4.445   2.839  0.3502  1.1149 -0.3511
  292MOL0     C38450   7.105   4.410   2.991  0.3244 -0.1596  1.7376
  292MOL0     C38451   7.134   4.543   3.063 -0.3789  0.1892 -0.1102
  292MOL0     C38452   7.149   4.525   3.211 -0.5870  1.6433  0.2693
  292MOL0     C38453   7.090   4.638   3.293  0.1117 -0.3301 -0.8489
  292MOL0     C38454   6.990   4.589   3.400  0.7368 -1.0909 -0.1582
  292MOL0     C38455   6.862   4.522   3.351  0.2003 -0.3601  0.9019
  292MOL0    Cl38456   6.746   4.632   3.273  0.0844 -0.2728 -0.1077
  292MOL0     C38457   6.914   4.124   2.590  0.4657  0.0044  0.1510
  292MOL0     C38458   6.844   4.036   2.502 -0.2439 -0.4501 -0.3982
  292MOL0     O38459   6.801   3.905   2.252  0.1815 -0.2478 -1.4110
  292MOL0     C38460   6.506   3.726   2.306  0.6844 -0.6756 -0.8247
  292MOL0     C38461   6.414   3.642   2.246  0.0389 -0.0333  0.0113
  292MOL0     N38462   5.939   3.335   1.644  0.0870 -0.0873 -0.2151
  292MOL0     N38463   5.827   3.374   1.594 -0.2726 -0.1847  0.2573
  292MOL0     C38464   4.763   2.741   1.764 -0.4156  0.5915 -0.1790
  292MOL0     C38465   4.663   2.667   1.826  0.2271  1.3703  0.3810
  292MOL0     C38466   4.408   2.352   2.014 -0.4649 -0.5960  0.0745
  292MOL0     C38467   4.317   2.325   1.913  1.1039  0.6507 -0.5933
  292MOL0     C38468   4.203   2.233   1.943  0.0079  0.0681 -0.3729
  292MOL0     C38469   4.182   2.172   2.065  0.0544  0.2365  0.1160
  292MOL0     O38470   4.069   2.095   2.106 -0.2644 -0.6934 -0.2399
  292MOL0     C38471   4.000   2.040   1.995  0.3758 -0.7732  1.1252
  292MOL0     C38472   3.915   1.935   2.049 -0.1601 -0.2115 -0.5277
  292MOL0     C38473   3.806   1.988   2.148  0.6173  0.0888  0.3827
  292MOL0     C38474   3.685   1.905   2.140 -0.3756 -0.1779 -0.7182
  292MOL0     C38475   3.708   1.770   2.197  0.5248 -0.2052 -0.2216
  292MOL0     C38476   3.725   1.656   2.243  0.4436  0.7146  0.2043
  292MOL0     C38477   4.285   2.201   2.159  0.3892  0.1641 -0.3081
  292MOL0     C38478   4.380   2.305   2.142 -0.5371 -0.0454  0.1364
  292MOL0     H38479   4.749   2.354   1.739  3.5671  0.1533 -2.6725
  292MOL0     H38480   4.946   2.477   1.638  2.3525  1.6825  2.8103
  292MOL0     H38481   4.906   2.929   1.641  0.2324 -0.3991  2.0276
  292MOL0     H38482   4.962   2.839   1.494  0.4906  0.4023  0.0671
  292MOL0     H38483   5.156   2.998   1.525 -0.9281  0.2013  0.3504
  292MOL0     H38484   5.212   2.863   1.614 -0.7401 -0.3312 -0.9049
  292MOL0     H38485   5.084   2.994   1.810 -1.2514 -0.0148 -1.8312
  292MOL0     H38486   5.072   3.122   1.706  1.3696  1.5853  1.2544
  292MOL0     H38487   5.296   3.124   1.861 -2.1470  0.4527 -0.5439
  292MOL0     H38488   5.341   2.979   1.800  0.4912 -0.1940 -0.1386
  292MOL0     H38489   5.293   3.181   1.583  0.3283  0.6747 -0.4931
  292MOL0     H38490   5.425   3.077   1.601 -0.9573 -0.1773 -0.5248
  292MOL0     H38491   5.524   3.225   1.788 -0.3774 -1.0051 -0.2077
  292MOL0     H38492   5.378   3.322   1.777 -2.6403 -3.2385 -0.4915
  292MOL0     H38493   5.569   3.285   1.546 -0.1025  2.5028 -1.5558
  292MOL0     H38494   5.427   3.401   1.552 -1.2148  1.7057  2.1769
  292MOL0     H38495   5.572   3.517   1.744  2.1420 -0.8220  1.4987
  292MOL0     H38496   5.631   3.528   1.583  0.2547 -1.6247 -0.2166
  292MOL0     H38497   5.754   3.358   1.914  3.7835 -1.0613  0.6241
  292MOL0     H38498   6.083   3.169   1.827  1.6498  0.5137 -0.5188
  292MOL0     H38499   6.004   3.241   1.968  3.1604 -0.8250  1.2364
  292MOL0     H38500   6.233   3.337   1.798 -3.3674  1.2340 -2.2675
  292MOL0     H38501   6.231   3.310   1.966 -1.0325 -0.7511  0.2873
  292MOL0     H38502   6.099   3.525   1.803  3.7125  1.6452 -2.0054
  292MOL0     H38503   6.060   3.510   1.981  1.2784 -2.2241  1.2829
  292MOL0     H38504   6.240   3.676   1.925 -1.6597 -0.3972  1.1342
  292MOL0     H38505   6.323   3.545   1.841 -3.2098 -0.6017 -1.6629
  292MOL0     H38506   6.538   3.663   1.927  2.1505  0.7889  0.2958
  292MOL0     H38507   6.684   3.848   2.040  1.2976 -2.0776 -0.5326
  292MOL0     H38508   6.529   4.149   2.513  0.0959 -2.1163  1.2236
  292MOL0     H38509   6.667   4.334   2.667  0.6108  1.7892 -1.1176
  292MOL0     H38510   7.108   4.321   2.660 -1.5939 -0.6630  0.4543
  292MOL0     H38511   7.064   4.236   2.808  1.9554  0.7040  2.0291
  292MOL0     H38512   6.995   4.513   2.835  0.2032  1.0154  0.7463
  292MOL0     H38513   7.177   4.486   2.807  1.0369 -2.1356 -2.9482
  292MOL0     H38514   7.189   4.342   3.006  0.8057  0.0794  0.2830
  292MOL0     H38515   7.008   4.374   3.026 -0.3370 -0.9432 -0.6829
  292MOL0     H38516   7.221   4.599   3.027 -0.0997  0.0935  0.4119
  292MOL0     H38517   7.052   4.608   3.030 -1.2499 -0.7034  0.2535
  292MOL0     H38518   7.257   4.514   3.228 -0.4993  0.5143 -0.8668
  292MOL0     H38519   7.115   4.427   3.247 -0.8317  0.8233 -2.0371
  292MOL0     H38520   7.037   4.712   3.231 -0.9958  2.1888  2.8028
  292MOL0     H38521   7.174   4.680   3.348 -1.7036  1.4049  0.7702
  292MOL0     H38522   7.041   4.517   3.464  0.6805 -2.2694 -1.3912
  292MOL0     H38523   6.946   4.677   3.448  1.9527  0.1764 -1.2957
  292MOL0     H38524   6.820   4.473   3.439  3.7119 -1.8196  1.9547
  292MOL0     H38525   6.887   4.444   3.279 -1.4714  2.0251 -2.5393
  292MOL0     H38526   7.010   4.095   2.632  0.5149 -0.0551 -0.0024
  292MOL0     H38527   6.901   3.949   2.470 -1.1415 -0.9780 -0.5709
  292MOL0     H38528   6.495   3.732   2.414  2.3842  3.2473 -0.6941
  292MOL0     H38529   6.352   3.580   2.310 -0.4388 -0.1490 -0.5550
  292MOL0     H38530   4.755   2.849   1.767 -1.5228  0.5162  2.3254
  292MOL0     H38531   4.571   2.718   1.851 -0.1093  1.2837 -0.6351
  292MOL0     H38532   4.320   2.363   1.812 -0.7342 -0.5857 -1.1722
  292MOL0     H38533   4.129   2.224   1.863 -0.0982 -0.6512 -0.1941
  292MOL0     H38534   4.078   1.991   1.936 -0.0426 -2.2500  1.7497
  292MOL0     H38535   3.939   2.108   1.935  0.7995 -0.9895  0.4391
  292MOL0     H38536   3.871   1.885   1.962 -2.9926 -0.6809  1.0658
  292MOL0     H38537   3.967   1.861   2.109 -2.0036 -0.2226  1.1511
  292MOL0     H38538   3.772   2.089   2.123  0.1053 -0.5751 -1.7995
  292MOL0     H38539   3.845   1.998   2.250 -1.9100  1.8572  1.2966
  292MOL0     H38540   3.615   1.953   2.208  1.9192  0.4277  1.3617
  292MOL0     H38541   3.637   1.893   2.042  2.1430  2.0916 -2.3866
  292MOL0     H38542   3.731   1.569   2.305  0.5326  0.0720 -0.6845
  292MOL0     H38543   4.276   2.163   2.260 -2.0044 -1.0634 -0.8993
  292MOL0     H38544   4.441   2.330   2.229  1.1214 -0.1046 -0.9809
  293MOL0     O38545  11.089   2.286   6.497 -0.0349  0.0707 -0.2443
  293MOL0     C38546  11.112   2.399   6.522  0.0792  0.3039 -0.5975
  293MOL0     O38547  11.043   2.506   6.479  0.0335  0.0532  0.4969
  293MOL0     C38548  10.947   2.482   6.384  0.2467 -0.9228  0.2006
  293MOL0     C38549  10.813   2.458   6.417  0.5468  1.1736 -1.0726
  293MOL0     C38550  10.720   2.455   6.316  0.3498  0.0651  0.6555
  293MOL0     C38551  10.746   2.485   6.184 -0.1521  0.4277  0.4992
  293MOL0     O38552  10.646   2.489   6.094  0.4686  0.0448 -0.3882
  293MOL0     C38553  10.524   2.406   6.114  0.0635  0.0616 -0.2567
  293MOL0     C38554  10.423   2.448   6.015  0.2653  0.0190  0.3400
  293MOL0     C38555  10.289   2.364   6.021 -1.0078 -1.4379 -0.0098
  293MOL0     C38556  10.191   2.454   6.097 -0.9446  0.1394  0.7336
  293MOL0     C38557  10.054   2.383   6.116 -0.0809  0.3337 -0.6213
  293MOL0     C38558   9.964   2.472   6.198  0.6744 -0.3257  1.0149
  293MOL0     C38559   9.922   2.608   6.127  0.8346 -0.2157  0.0270
  293MOL0     C38560   9.817   2.691   6.212  0.1481 -0.2772 -0.1110
  293MOL0     N38561   9.684   2.649   6.161  0.5204 -0.0138 -0.2378
  293MOL0     C38562   9.599   2.744   6.104  0.1205  1.4430  0.0253
  293MOL0     C38563   9.470   2.690   6.107  0.2156 -0.0902  0.0571
  293MOL0     C38564   9.342   2.754   6.057  0.4262  0.0172  1.1670
  293MOL0     C38565   9.331   2.706   5.914  1.9944  0.6234 -0.1204
  293MOL0     C38566   9.188   2.700   5.865 -0.4615 -0.2817 -0.2704
  293MOL0     C38567   9.160   2.707   5.712  0.6017  0.5459 -0.1798
  293MOL0     O38568   9.197   2.835   5.666 -1.0764 -0.1354 -0.0712
  293MOL0     C38569   9.118   2.943   5.698  0.1834  0.2250  0.1932
  293MOL0     C38570   8.974   2.955   5.684  0.6246 -0.1138  0.3375
  293MOL0     C38571   8.921   3.080   5.705 -0.2468 -0.1833 -0.8961
  293MOL0     C38572   8.998   3.190   5.743 -0.7518 -0.5834  0.2309
  293MOL0     C38573   8.942   3.324   5.741 -0.0589 -0.6834  0.3630
  293MOL0     O38574   9.023   3.430   5.749 -0.2631  0.4339 -0.3717
  293MOL0     C38575   8.973   3.546   5.790  1.0016  0.7693  0.6028
  293MOL0     C38576   8.921   3.567   5.921 -1.1075 -0.4513 -0.7591
  293MOL0     C38577   8.896   3.703   5.963 -0.6188 -0.6537 -0.1069
  293MOL0     C38578   8.908   3.803   5.873 -0.7857  1.1603 -0.8879
  293MOL0     O38579   8.891   3.923   5.939 -0.4170 -0.7190  0.2983
  293MOL0     C38580   8.890   4.044   5.859 -0.3984 -0.2612 -0.3072
  293MOL0     C38581   8.745   4.089   5.836 -0.2881 -0.2904  0.0523
  293MOL0     C38582   8.681   4.108   5.967  0.8066 -0.0208 -0.6559
  293MOL0     C38583   8.544   4.173   5.957  0.2179 -0.1054  0.5281
  293MOL0     C38584   8.486   4.201   6.103  0.1591 -0.5040  0.7706
  293MOL0     C38585   8.350   4.266   6.086  0.4330  0.0631  1.6232
  293MOL0     C38586   8.302   4.303   6.227  0.4467 -0.5825 -0.0196
  293MOL0     C38587   8.194   4.207   6.263 -0.7262  0.2658 -0.7762
  293MOL0    Cl38588   8.153   4.253   6.431 -0.0883 -0.5036 -0.1855
  293MOL0     C38589   8.944   3.780   5.744  0.3860 -0.2343  0.4291
  293MOL0     C38590   8.966   3.652   5.704 -0.9147 -1.0892 -0.6678
  293MOL0     O38591   8.821   3.328   5.728  0.2795  0.0055  0.0831
  293MOL0     C38592   9.127   3.168   5.780 -0.7621 -0.0864 -0.2624
  293MOL0     C38593   9.186   3.048   5.757  0.6013 -0.2845  0.5866
  293MOL0     N38594   9.485   2.566   6.166 -0.9696  0.0458  0.7891
  293MOL0     N38595   9.615   2.541   6.193  0.0984 -0.6984 -0.3445
  293MOL0     C38596  10.875   2.504   6.148  0.6963 -0.3077 -0.5766
  293MOL0     C38597  10.975   2.518   6.249 -0.5834 -0.0233  0.7016
  293MOL0     C38598  11.225   2.435   6.608 -0.8316  0.1474  0.6734
  293MOL0     C38599  11.252   2.568   6.646 -0.3672 -0.1465  0.9063
  293MOL0     C38600  11.366   2.599   6.717  0.6838 -0.3977  0.3812
  293MOL0     C38601  11.438   2.496   6.777  0.1732 -0.4769 -0.2302
  293MOL0     O38602  11.529   2.538   6.879 -0.4219 -0.0842 -0.4386
  293MOL0     C38603  11.639   2.624   6.836  0.2579  1.7808 -0.0744
  293MOL0     C38604  11.717   2.559   6.721  0.4475 -0.0819  0.4674
  293MOL0     C38605  11.822   2.659   6.659 -0.0757 -0.7971  0.7769
  293MOL0     C38606  11.923   2.585   6.575 -0.0249 -0.0159  0.5284
  293MOL0     C38607  11.945   2.639   6.440 -0.1624 -1.2962  0.7618
  293MOL0     C38608  11.959   2.686   6.329  1.0470  0.2308  0.4130
  293MOL0     C38609  11.405   2.368   6.750 -0.3635 -0.6297 -0.1840
  293MOL0     C38610  11.310   2.333   6.650 -0.0252 -0.9816  0.1383
  293MOL0     H38611  10.794   2.448   6.523 -0.6701  0.3296 -1.3386
  293MOL0     H38612  10.617   2.428   6.337 -0.7957  2.3211 -1.5410
  293MOL0     H38613  10.476   2.421   6.211 -0.9538 -2.0422 -0.3873
  293MOL0     H38614  10.549   2.302   6.096 -0.2874  0.3707 -3.0124
  293MOL0     H38615  10.457   2.427   5.914 -2.1527 -2.2450 -0.1179
  293MOL0     H38616  10.402   2.555   6.021  1.7765  0.3604 -0.0543
  293MOL0     H38617  10.315   2.273   6.076 -1.3187 -0.9687  0.9370
  293MOL0     H38618  10.252   2.332   5.924 -2.0056 -0.4985  0.0412
  293MOL0     H38619  10.232   2.488   6.192  0.1707 -0.9510  0.6720
  293MOL0     H38620  10.174   2.537   6.028 -2.1061 -0.6715 -0.0171
  293MOL0     H38621  10.063   2.304   6.192 -2.7069 -0.5182 -1.0899
  293MOL0     H38622  10.009   2.343   6.025 -1.3051  0.7678 -0.2289
  293MOL0     H38623  10.013   2.500   6.291  0.0057  1.3185  0.9187
  293MOL0     H38624   9.876   2.416   6.230 -1.9866  0.2707 -4.1424
  293MOL0     H38625  10.013   2.669   6.120  1.2674 -1.0328 -3.7011
  293MOL0     H38626   9.884   2.590   6.026  0.3465  0.0598  0.1569
  293MOL0     H38627   9.832   2.798   6.198 -3.2598  0.2313 -0.6131
  293MOL0     H38628   9.820   2.673   6.320 -0.5846  1.4848  0.2207
  293MOL0     H38629   9.621   2.839   6.056 -2.1966  0.6627 -2.9235
  293MOL0     H38630   9.342   2.864   6.055 -3.6329  0.1471  0.3834
  293MOL0     H38631   9.266   2.719   6.126 -1.6867  1.5426 -0.2667
  293MOL0     H38632   9.355   2.600   5.913 -1.3778 -0.2745  0.5341
  293MOL0     H38633   9.384   2.767   5.840 -1.6107  4.0327 -0.2285
  293MOL0     H38634   9.163   2.597   5.893 -0.0312 -0.5212 -0.7690
  293MOL0     H38635   9.114   2.768   5.909 -0.3231 -0.9453  1.0417
  293MOL0     H38636   9.054   2.681   5.708  0.4808 -0.2168  4.1080
  293MOL0     H38637   9.225   2.630   5.668 -1.7106 -1.3327 -0.4841
  293MOL0     H38638   8.918   2.868   5.650  1.3287 -1.6236  2.8095
  293MOL0     H38639   8.812   3.088   5.700 -0.2521  0.3595 -0.0238
  293MOL0     H38640   8.898   3.485   5.988  0.2216  2.4854  3.7756
  293MOL0     H38641   8.884   3.728   6.068  0.8434  2.1043 -0.5096
  293MOL0     H38642   8.944   4.035   5.764 -0.8091 -0.9098 -0.4849
  293MOL0     H38643   8.938   4.119   5.923 -1.1678 -0.3578  0.3943
  293MOL0     H38644   8.700   4.026   5.758 -1.2817 -0.4347  0.7286
  293MOL0     H38645   8.746   4.187   5.789  4.0112 -0.4862 -0.6566
  293MOL0     H38646   8.738   4.175   6.033 -0.7015  2.9668 -2.1665
  293MOL0     H38647   8.671   4.016   6.025 -0.4835  0.6791  0.2881
  293MOL0     H38648   8.538   4.266   5.900 -0.7426  0.4100  1.4354
  293MOL0     H38649   8.473   4.111   5.900  0.7005 -1.2717  1.1621
  293MOL0     H38650   8.560   4.270   6.144  2.5778  0.2831 -4.2426
  293MOL0     H38651   8.475   4.112   6.166  1.7027 -1.1489  0.1595
  293MOL0     H38652   8.282   4.193   6.041  1.2710  0.2963 -0.0957
  293MOL0     H38653   8.337   4.355   6.024 -0.3211 -1.3702 -0.3575
  293MOL0     H38654   8.386   4.301   6.297  0.2466  0.5764  0.2730
  293MOL0     H38655   8.271   4.407   6.223  0.5552 -0.5658 -0.5781
  293MOL0     H38656   8.226   4.102   6.264  1.5017  0.8895 -1.1633
  293MOL0     H38657   8.112   4.201   6.191  1.5634 -2.8314 -3.4021
  293MOL0     H38658   8.951   3.860   5.671 -2.1922  1.3107  1.7291
  293MOL0     H38659   8.997   3.636   5.601  2.1473  1.2320 -0.2659
  293MOL0     H38660   9.175   3.255   5.824 -3.7390  0.5689  2.0483
  293MOL0     H38661   9.290   3.030   5.785  2.1136  1.6284 -3.1157
  293MOL0     H38662  10.899   2.526   6.045  4.2894 -0.0300  0.1747
  293MOL0     H38663  11.072   2.551   6.215 -0.8630  0.6117  0.5010
  293MOL0     H38664  11.183   2.643   6.611 -1.5705 -2.2333 -1.5468
  293MOL0     H38665  11.384   2.704   6.741 -0.1971  0.5402 -2.6740
  293MOL0     H38666  11.713   2.635   6.916  1.1387  0.1291 -0.6084
  293MOL0     H38667  11.608   2.729   6.828 -1.7336  1.2672  0.5121
  293MOL0     H38668  11.772   2.473   6.758  3.2313  0.6294 -1.6739
  293MOL0     H38669  11.651   2.518   6.643  1.8736 -2.3464  0.3678
  293MOL0     H38670  11.864   2.717   6.742  1.5392 -0.9090  0.0713
  293MOL0     H38671  11.766   2.731   6.598  2.2454  0.1612 -0.3414
  293MOL0     H38672  12.020   2.579   6.625 -0.6362  0.3210  1.7852
  293MOL0     H38673  11.899   2.479   6.572  2.1095 -0.6010  1.7210
  293MOL0     H38674  11.937   2.716   6.228 -3.0872  4.1341  2.1299
  293MOL0     H38675  11.457   2.282   6.790 -0.4398 -2.1723 -3.1134
  293MOL0     H38676  11.283   2.230   6.631  1.8042 -1.2242 -1.5144
  294MOL0     O38677   2.113   4.702   8.357 -0.0583  0.6769 -0.3842
  294MOL0     C38678   2.211   4.681   8.293 -1.2336 -0.0719  0.1598
  294MOL0     O38679   2.287   4.778   8.230  0.3585 -0.3080 -0.4362
  294MOL0     C38680   2.264   4.909   8.256  0.8237  0.1770  0.4315
  294MOL0     C38681   2.145   4.979   8.239 -0.1793 -0.6540 -0.0099
  294MOL0     C38682   2.141   5.121   8.236  0.2316 -0.2934 -0.3396
  294MOL0     C38683   2.261   5.194   8.263 -0.4680  0.2927  0.1734
  294MOL0     O38684   2.277   5.341   8.266  0.4938  0.0138  0.2659
  294MOL0     C38685   2.173   5.435   8.292  1.3884  1.0206 -0.6121
  294MOL0     C38686   2.244   5.544   8.366  0.0477 -0.3598  0.0771
  294MOL0     C38687   2.142   5.653   8.422  0.5915  0.4483  0.5139
  294MOL0     C38688   2.025   5.587   8.514  0.8871  0.7013  0.8991
  294MOL0     C38689   1.943   5.689   8.610 -0.8273 -0.0353 -1.0522
  294MOL0     C38690   1.958   5.836   8.574  0.6141  0.4018 -1.0078
  294MOL0     C38691   1.889   5.930   8.683 -0.7200  0.7662  0.2088
  294MOL0     C38692   1.870   6.076   8.645 -0.3106  0.0947  0.1099
  294MOL0     N38693   1.727   6.099   8.601 -0.1958  0.9672  0.5373
  294MOL0     C38694   1.647   6.218   8.634  0.2677  0.1319  0.6936
  294MOL0     C38695   1.534   6.196   8.563  0.1898 -0.7575 -0.3817
  294MOL0     C38696   1.422   6.295   8.563 -0.1684  1.0125 -0.6666
  294MOL0     C38697   1.356   6.295   8.702  0.3640 -0.5407 -0.0829
  294MOL0     C38698   1.227   6.382   8.696 -0.6102  0.5032  0.0855
  294MOL0     C38699   1.264   6.524   8.729 -0.3350  0.6403  0.1465
  294MOL0     O38700   1.147   6.597   8.751  0.6253  0.0641 -0.1852
  294MOL0     C38701   1.138   6.671   8.866  0.0557 -0.4275 -1.2401
  294MOL0     C38702   1.011   6.742   8.868 -0.3301  0.0320 -0.0751
  294MOL0     C38703   0.977   6.819   8.973 -0.9001  0.0752  0.1181
  294MOL0     C38704   1.063   6.836   9.082 -0.3687 -0.4237 -0.3318
  294MOL0     C38705   1.015   6.905   9.196 -0.5471 -0.2879  0.4340
  294MOL0     O38706   0.883   6.951   9.194  0.1293 -0.2556  0.2719
  294MOL0     C38707   0.834   7.004   9.313  0.0745  0.8449 -0.9261
  294MOL0     C38708   0.715   6.965   9.368 -0.3753 -0.3029 -0.0652
  294MOL0     C38709   0.661   7.017   9.487  0.6323  0.8492  0.5065
  294MOL0     C38710   0.720   7.116   9.558 -0.1226  0.2568 -1.4459
  294MOL0     O38711   0.664   7.161   9.681 -0.4422 -0.0311  0.4921
  294MOL0     C38712   0.598   7.284   9.675  0.3660 -0.4850 -0.1035
  294MOL0     C38713   0.575   7.315   9.822 -1.2892  0.5496 -0.3229
  294MOL0     C38714   0.496   7.211   9.895  0.0535  0.0273  0.4766
  294MOL0     C38715   0.399   7.268  10.002  0.8906 -0.2860 -0.0745
  294MOL0     C38716   0.343   7.153  10.094  0.3881 -1.3186  0.5578
  294MOL0     C38717   0.247   7.066  10.020 -0.7969  0.4598  0.1668
  294MOL0     C38718   0.178   6.975  10.110  0.0873  0.4241  0.4861
  294MOL0     C38719   0.135   6.855  10.023 -0.0301  0.1671  0.5699
  294MOL0    Cl38720   0.035   6.903   9.892 -0.4695  0.2982  0.3796
  294MOL0     C38721   0.834   7.171   9.505 -0.8588 -0.0659  0.7312
  294MOL0     C38722   0.879   7.118   9.383 -1.3424 -0.4377  0.0549
  294MOL0     O38723   1.081   6.903   9.299 -0.1043  0.0126 -0.0409
  294MOL0     C38724   1.173   6.771   9.086 -0.7442 -0.4738 -0.6907
  294MOL0     C38725   1.227   6.691   8.983  0.3403  0.3154  0.1465
  294MOL0     N38726   1.557   6.087   8.477 -0.5619 -0.1554  0.9107
  294MOL0     N38727   1.664   6.019   8.502 -0.0857 -0.2533  0.2843
  294MOL0     C38728   2.375   5.116   8.286 -0.0557  0.5525  0.4129
  294MOL0     C38729   2.374   4.979   8.278  0.3084  0.0964  1.2630
  294MOL0     C38730   2.289   4.553   8.284 -0.0570 -0.2964 -0.1633
  294MOL0     C38731   2.239   4.433   8.343 -0.5726 -0.0843 -0.5021
  294MOL0     C38732   2.326   4.316   8.347  1.1974  0.6654 -0.6264
  294MOL0     C38733   2.450   4.312   8.286  0.0500  0.1170  0.3903
  294MOL0     O38734   2.521   4.198   8.296 -0.3839  0.4050  0.1681
  294MOL0     C38735   2.652   4.199   8.237  0.2882 -0.4401  1.0259
  294MOL0     C38736   2.723   4.066   8.267  0.6387  0.5238 -0.0963
  294MOL0     C38737   2.864   4.081   8.220 -0.2257  0.4307 -1.1312
  294MOL0     C38738   2.970   3.994   8.285  0.1836 -0.9175  0.3357
  294MOL0     C38739   3.076   3.974   8.188  0.3503 -0.4181  0.8223
  294MOL0     C38740   3.152   3.932   8.106  0.3390 -0.3850 -0.2660
  294MOL0     C38741   2.492   4.432   8.225  0.3976  0.3453  0.8751
  294MOL0     C38742   2.413   4.551   8.221  0.1919 -0.2649  0.1370
  294MOL0     H38743   2.063   4.931   8.188 -1.4565 -1.2306  2.4576
  294MOL0     H38744   2.044   5.160   8.211  0.2679 -1.0743 -1.8081
  294MOL0     H38745   2.090   5.398   8.352  0.7843  0.5484 -1.7226
  294MOL0     H38746   2.134   5.467   8.195 -3.0613 -0.6733  0.4156
  294MOL0     H38747   2.308   5.590   8.290  1.0129 -3.3845 -1.0987
  294MOL0     H38748   2.313   5.506   8.442  0.9690 -1.2764 -1.1697
  294MOL0     H38749   2.092   5.692   8.333  1.2130  2.2592  0.9296
  294MOL0     H38750   2.193   5.730   8.481  1.8403  1.5050 -1.8183
  294MOL0     H38751   1.948   5.540   8.452  0.8768 -0.3937  1.7100
  294MOL0     H38752   2.072   5.503   8.566  0.6713 -1.2758 -1.8503
  294MOL0     H38753   1.980   5.675   8.712 -0.2973  1.8076 -0.9649
  294MOL0     H38754   1.840   5.657   8.626 -0.5764  0.5958  2.7091
  294MOL0     H38755   1.909   5.869   8.481 -0.4944  5.3035  0.9794
  294MOL0     H38756   2.065   5.861   8.574  0.2365  2.3556  1.1330
  294MOL0     H38757   1.793   5.893   8.722 -0.9994  1.0267 -0.2215
  294MOL0     H38758   1.950   5.914   8.772 -3.4889  1.6425  2.4237
  294MOL0     H38759   1.936   6.087   8.559  0.4129 -0.9729  0.5162
  294MOL0     H38760   1.896   6.148   8.723  0.2730  1.3339 -1.1702
  294MOL0     H38761   1.671   6.293   8.708  0.8262  0.1566  0.4885
  294MOL0     H38762   1.350   6.274   8.483 -0.9503  0.4631  0.1590
  294MOL0     H38763   1.468   6.391   8.541  1.6619  1.6151  4.4071
  294MOL0     H38764   1.427   6.341   8.771 -0.2319  1.4951 -0.7516
  294MOL0     H38765   1.335   6.193   8.737  0.1686 -0.1468  0.9919
  294MOL0     H38766   1.174   6.374   8.601 -0.1933  1.4984 -0.2539
  294MOL0     H38767   1.155   6.348   8.770  0.1563 -0.6104  0.3439
  294MOL0     H38768   1.309   6.571   8.640 -0.5052 -1.6349 -1.2293
  294MOL0     H38769   1.334   6.516   8.812 -0.8939 -1.3480  0.4827
  294MOL0     H38770   0.934   6.736   8.792  1.4851  2.5687 -2.2809
  294MOL0     H38771   0.893   6.887   8.969 -1.3860 -0.3580  2.0416
  294MOL0     H38772   0.663   6.883   9.319  1.2127 -1.0962 -0.5000
  294MOL0     H38773   0.570   6.975   9.529  1.4880 -0.3121  1.2640
  294MOL0     H38774   0.499   7.284   9.628  0.1684  1.1516  0.2616
  294MOL0     H38775   0.650   7.370   9.633 -1.9941  1.6320  1.0603
  294MOL0     H38776   0.526   7.413   9.821 -1.6162  0.4222 -2.4715
  294MOL0     H38777   0.673   7.332   9.867 -1.1120  0.5128 -0.6895
  294MOL0     H38778   0.563   7.138   9.942 -1.4315 -0.9816  1.0791
  294MOL0     H38779   0.440   7.163   9.815  1.3170 -2.1849  0.8319
  294MOL0     H38780   0.464   7.335  10.060  0.6241  1.3661 -1.5801
  294MOL0     H38781   0.321   7.326   9.951 -1.2880 -2.5284  0.5438
  294MOL0     H38782   0.288   7.216  10.165  1.0834  1.1962 -0.9985
  294MOL0     H38783   0.413   7.102  10.160  1.5179  1.1430  1.3671
  294MOL0     H38784   0.293   7.013   9.937  0.6463 -1.3909  2.0472
  294MOL0     H38785   0.168   7.127   9.975 -0.4996  1.5775  1.1140
  294MOL0     H38786   0.222   6.951  10.207 -1.0157 -0.3242  0.8151
  294MOL0     H38787   0.089   7.026  10.146  1.3999  1.0526  3.0836
  294MOL0     H38788   0.088   6.774  10.079  0.8511  0.2175  1.4267
  294MOL0     H38789   0.233   6.819   9.988  0.5897 -0.4234  2.7454
  294MOL0     H38790   0.877   7.264   9.541  0.6069  0.4750 -2.0674
  294MOL0     H38791   0.960   7.170   9.333 -1.9437 -0.2078 -0.6918
  294MOL0     H38792   1.236   6.785   9.173  0.6181 -0.2732 -1.6683
  294MOL0     H38793   1.327   6.649   8.987  0.4772  0.7244  3.2522
  294MOL0     H38794   2.455   5.179   8.321 -0.1204  1.0218 -0.2580
  294MOL0     H38795   2.471   4.931   8.285 -0.1975 -1.4845 -1.3855
  294MOL0     H38796   2.157   4.431   8.413 -0.6364  3.1433 -0.3499
  294MOL0     H38797   2.277   4.241   8.409  2.5925 -0.9192 -1.3475
  294MOL0     H38798   2.720   4.276   8.276 -0.2844  0.7200 -0.1767
  294MOL0     H38799   2.644   4.210   8.129  0.6417 -0.1746  1.0247
  294MOL0     H38800   2.735   4.050   8.375  2.1373  2.2579  0.0403
  294MOL0     H38801   2.666   3.981   8.228 -1.2946  0.4340  2.6338
  294MOL0     H38802   2.905   4.183   8.227  0.0800  0.1855  2.3851
  294MOL0     H38803   2.864   4.065   8.111  0.3092 -3.2004 -0.7072
  294MOL0     H38804   2.996   4.052   8.373  3.1270 -0.2094 -0.8838
  294MOL0     H38805   2.921   3.901   8.317 -1.1463  0.1203  1.4602
  294MOL0     H38806   3.208   3.905   8.018  0.1130  2.2135 -1.2989
  294MOL0     H38807   2.594   4.445   8.189  0.0221  0.7500 -0.0976
  294MOL0     H38808   2.466   4.641   8.193  0.9090  0.6685  3.8527
  295MOL0     O38809   0.216   8.057   7.134 -0.9034  0.2958  0.1651
  295MOL0     C38810   0.295   8.149   7.165  0.3614  0.4903  0.4856
  295MOL0     O38811   0.410   8.178   7.107 -0.0236  0.0716 -0.3612
  295MOL0     C38812   0.464   8.106   7.010  0.6808  0.2942  0.0504
  295MOL0     C38813   0.519   7.977   7.040  0.7742 -0.5191  0.3107
  295MOL0     C38814   0.553   7.882   6.943  0.7648  0.0163  0.3267
  295MOL0     C38815   0.526   7.907   6.813  0.0747 -0.0844 -0.2486
  295MOL0     O38816   0.545   7.807   6.729 -0.4022  0.6595 -0.1339
  295MOL0     C38817   0.564   7.834   6.588  0.7765 -0.2361 -0.8737
  295MOL0     C38818   0.616   7.715   6.516  0.1644 -0.2479  0.1897
  295MOL0     C38819   0.722   7.628   6.578  0.3800 -0.2010  0.1973
  295MOL0     C38820   0.843   7.717   6.623  0.2249  0.5152  0.6145
  295MOL0     C38821   0.965   7.640   6.676 -0.2564 -0.1616  0.1254
  295MOL0     C38822   1.018   7.530   6.586  0.0437 -0.3802  0.5550
  295MOL0     C38823   1.163   7.488   6.619 -0.1641  0.9170 -0.3087
  295MOL0     C38824   1.267   7.595   6.571  0.2591 -0.0799  0.8585
  295MOL0     N38825   1.312   7.687   6.680  0.6348  0.8034 -0.2106
  295MOL0     C38826   1.375   7.642   6.791  0.2512 -0.8894 -0.5745
  295MOL0     C38827   1.401   7.760   6.852 -0.3202 -0.1329 -0.7135
  295MOL0     C38828   1.480   7.786   6.982 -0.4009 -0.2586  1.1072
  295MOL0     C38829   1.541   7.655   7.042 -0.2382 -0.3847 -0.0402
  295MOL0     C38830   1.597   7.680   7.184 -1.1356 -0.1066 -0.1429
  295MOL0     C38831   1.671   7.808   7.207  0.5464  0.8960  0.0352
  295MOL0     O38832   1.795   7.800   7.129  0.0260 -0.3167  0.1192
  295MOL0     C38833   1.899   7.881   7.176  0.2606 -0.8353  0.5663
  295MOL0     C38834   1.872   8.007   7.205 -0.1180 -0.2449  1.4290
  295MOL0     C38835   1.963   8.096   7.260  0.0835  0.4760  0.0228
  295MOL0     C38836   2.091   8.051   7.293 -0.0864  0.4603  0.9106
  295MOL0     C38837   2.175   8.142   7.374  0.7835 -0.0314  0.1854
  295MOL0     O38838   2.157   8.270   7.354 -0.6659 -0.7617 -0.6403
  295MOL0     C38839   2.211   8.362   7.442  0.2433  0.5007 -0.0917
  295MOL0     C38840   2.205   8.349   7.585 -0.5335 -0.2734 -0.3097
  295MOL0     C38841   2.232   8.457   7.663  0.2928 -0.3166  0.1839
  295MOL0     C38842   2.248   8.590   7.604 -0.5068  0.5030  0.7675
  295MOL0     O38843   2.283   8.707   7.680  0.1080  0.2111 -0.1629
  295MOL0     C38844   2.341   8.693   7.813 -0.2161 -0.4314 -0.0921
  295MOL0     C38845   2.253   8.759   7.922 -0.0546  0.8374  0.3296
  295MOL0     C38846   2.310   8.744   8.065 -0.5286  0.1232  0.2089
  295MOL0     C38847   2.240   8.832   8.155  0.1980 -0.5624 -0.8846
  295MOL0     C38848   2.277   8.814   8.309  0.5251 -0.6575 -0.5484
  295MOL0     C38849   2.208   8.911   8.413  0.0148 -0.3560  0.1429
  295MOL0     C38850   2.057   8.878   8.433  0.7317  0.5994 -0.8827
  295MOL0     C38851   1.999   8.946   8.559  1.1347 -0.8466  0.1831
  295MOL0    Cl38852   2.098   8.892   8.696  0.5519  0.2649  0.3993
  295MOL0     C38853   2.261   8.597   7.462 -0.5106 -0.4085 -0.8585
  295MOL0     C38854   2.241   8.484   7.390  0.0686  0.3519 -0.6959
  295MOL0     O38855   2.233   8.083   7.468  0.2662  0.0716 -0.1825
  295MOL0     C38856   2.122   7.914   7.264  0.2456 -0.4566 -0.5174
  295MOL0     C38857   2.021   7.827   7.214 -0.3598 -0.1138 -1.0097
  295MOL0     N38858   1.362   7.870   6.775  0.0092  0.8279  0.1632
  295MOL0     N38859   1.303   7.825   6.670  0.1409 -0.2282  1.0548
  295MOL0     C38860   0.470   8.035   6.778 -0.3127  0.2222 -0.0328
  295MOL0     C38861   0.444   8.136   6.871  0.8815 -0.9925  0.0756
  295MOL0     C38862   0.254   8.233   7.271  0.0162  0.6110 -0.0425
  295MOL0     C38863   0.177   8.170   7.370  0.1730  0.6715 -1.6742
  295MOL0     C38864   0.120   8.236   7.478  0.1499 -0.0901 -0.0202
  295MOL0     C38865   0.155   8.376   7.494 -0.5553 -0.3479  0.2053
  295MOL0     O38866   0.125   8.435   7.613  1.0498  0.5724 -0.0387
  295MOL0     C38867   0.197   8.550   7.665 -0.4002 -0.4944 -0.1153
  295MOL0     C38868   0.333   8.515   7.738  0.8792  0.2464  0.0288
  295MOL0     C38869   0.436   8.442   7.663 -1.0645 -1.1587 -0.2371
  295MOL0     C38870   0.582   8.452   7.715 -0.5778  0.0168 -1.4820
  295MOL0     C38871   0.598   8.371   7.843 -0.5226  0.5509  0.7225
  295MOL0     C38872   0.608   8.302   7.935 -1.1470  0.8688 -0.6292
  295MOL0     C38873   0.245   8.438   7.391  0.8369  0.3458 -0.6722
  295MOL0     C38874   0.298   8.365   7.283  0.1068 -0.1466  0.8593
  295MOL0     H38875   0.513   7.946   7.144  2.0645  0.2257  0.6399
  295MOL0     H38876   0.609   7.793   6.969  0.2488 -0.0188  1.3467
  295MOL0     H38877   0.637   7.916   6.587 -0.3829  0.9372  1.1299
  295MOL0     H38878   0.473   7.868   6.537  1.4525  0.6786 -1.4959
  295MOL0     H38879   0.632   7.753   6.415  0.4288  1.1535  0.7464
  295MOL0     H38880   0.538   7.641   6.495  0.9225 -1.4720  1.5299
  295MOL0     H38881   0.753   7.542   6.518  1.1503  0.3078 -0.1487
  295MOL0     H38882   0.666   7.583   6.661  0.3028  1.2443  0.9650
  295MOL0     H38883   0.868   7.784   6.540 -1.7206  0.0595 -0.4071
  295MOL0     H38884   0.815   7.787   6.702 -3.3054 -0.1512  0.1129
  295MOL0     H38885   0.945   7.605   6.778 -1.6271 -2.9137 -0.9774
  295MOL0     H38886   1.049   7.710   6.673 -0.3270  0.1343  2.6904
  295MOL0     H38887   1.001   7.565   6.484 -1.6913 -1.4907  0.4191
  295MOL0     H38888   0.956   7.441   6.591 -0.1268 -0.3959 -1.2325
  295MOL0     H38889   1.180   7.454   6.721 -1.0377  1.7986  0.1444
  295MOL0     H38890   1.187   7.395   6.565  1.9331  1.6076 -0.6664
  295MOL0     H38891   1.212   7.651   6.495 -0.7553 -0.0021  1.6276
  295MOL0     H38892   1.358   7.551   6.528  1.1144  1.2089  1.3011
  295MOL0     H38893   1.408   7.544   6.824 -1.8723 -0.9280  1.7427
  295MOL0     H38894   1.413   7.834   7.053 -2.5214  0.3330 -1.1472
  295MOL0     H38895   1.563   7.854   6.961  0.6459 -1.2247  1.9285
  295MOL0     H38896   1.632   7.624   6.990 -1.3815 -1.2552 -1.6213
  295MOL0     H38897   1.467   7.575   7.045 -4.7501  3.3649  1.2601
  295MOL0     H38898   1.514   7.672   7.254 -0.0810 -1.1466  1.0330
  295MOL0     H38899   1.670   7.604   7.215  0.5436  0.6565 -1.9769
  295MOL0     H38900   1.690   7.822   7.314 -0.5959 -2.2487  0.7306
  295MOL0     H38901   1.616   7.897   7.174 -0.2880 -0.0200 -1.0905
  295MOL0     H38902   1.775   8.047   7.175  0.3361  2.5292  3.2609
  295MOL0     H38903   1.947   8.202   7.273 -1.6969 -0.1008  3.6742
  295MOL0     H38904   2.189   8.249   7.625  0.1069 -1.3209 -2.4648
  295MOL0     H38905   2.242   8.449   7.771  2.0819  0.9301  0.1572
  295MOL0     H38906   2.432   8.754   7.816  0.1704 -1.0009 -0.0463
  295MOL0     H38907   2.365   8.594   7.853 -0.1827  0.5185  2.4322
  295MOL0     H38908   2.157   8.707   7.928 -0.1207  1.0139  0.7972
  295MOL0     H38909   2.234   8.863   7.895 -0.4117  0.3950 -1.2412
  295MOL0     H38910   2.416   8.760   8.085 -0.4692  0.6608 -0.5317
  295MOL0     H38911   2.292   8.641   8.098  1.4132 -0.3300 -0.0483
  295MOL0     H38912   2.252   8.936   8.123 -4.0745  0.8548  1.2453
  295MOL0     H38913   2.134   8.819   8.132  0.2719  1.5387 -2.7916
  295MOL0     H38914   2.381   8.846   8.317 -0.5519  3.0287  0.8080
  295MOL0     H38915   2.265   8.707   8.329  3.0004 -1.4719 -2.8690
  295MOL0     H38916   2.207   9.015   8.377 -0.5537 -0.2346  0.4887
  295MOL0     H38917   2.263   8.902   8.507  3.9695 -1.4753 -2.0697
  295MOL0     H38918   2.001   8.910   8.345  0.4201 -0.0758 -0.9304
  295MOL0     H38919   2.034   8.771   8.437 -2.1457  1.0909 -2.1529
  295MOL0     H38920   1.894   8.920   8.572  1.4163 -1.3758  1.5823
  295MOL0     H38921   2.008   9.054   8.550 -1.4528 -0.3731  2.0803
  295MOL0     H38922   2.305   8.688   7.422  0.6027 -0.5823 -0.0500
  295MOL0     H38923   2.244   8.494   7.282  1.8992 -1.1650 -0.8418
  295MOL0     H38924   2.219   7.875   7.294 -0.0837 -0.0411  1.1763
  295MOL0     H38925   2.030   7.719   7.211 -0.6430 -0.2487  1.0941
  295MOL0     H38926   0.455   8.058   6.673  1.2787  0.6320 -0.1979
  295MOL0     H38927   0.400   8.228   6.834 -0.7231 -2.1482 -1.0120
  295MOL0     H38928   0.161   8.063   7.372 -2.2009  0.9953 -0.8500
  295MOL0     H38929   0.058   8.180   7.548 -1.4538  0.6438 -0.7828
  295MOL0     H38930   0.143   8.615   7.734 -0.5529 -1.7657  1.0214
  295MOL0     H38931   0.212   8.623   7.585  2.7407  1.1779  1.7938
  295MOL0     H38932   0.371   8.616   7.757 -2.1579  0.9914  2.9527
  295MOL0     H38933   0.311   8.464   7.832  0.9898  0.9129  0.4209
  295MOL0     H38934   0.439   8.477   7.559 -0.6010 -0.0136  0.1457
  295MOL0     H38935   0.399   8.339   7.658 -1.8699 -0.8446 -1.1262
  295MOL0     H38936   0.649   8.413   7.637 -1.2704 -3.0427 -0.7016
  295MOL0     H38937   0.596   8.558   7.736  0.1077 -0.4959  1.0830
  295MOL0     H38938   0.630   8.262   8.031  0.5900  1.0664 -0.9135
  295MOL0     H38939   0.289   8.534   7.414 -0.1430  0.1345  2.5483
  295MOL0     H38940   0.371   8.408   7.215  0.3955 -0.0386  1.2333
  296MOL0     O38941   8.592  10.039   0.162  0.3038  0.4622 -0.0108
  296MOL0     C38942   8.693  10.094   0.198 -0.4650 -0.5491 -0.1168
  296MOL0     O38943   8.798  10.135   0.114  0.5899  0.0657 -0.5921
  296MOL0     C38944   8.779  10.109  -0.020  0.9382  0.8974 -0.4142
  296MOL0     C38945   8.764  10.214  -0.115 -0.3936  0.4594  0.5853
  296MOL0     C38946   8.752  10.178  -0.249 -0.6430 -0.1249 -0.1263
  296MOL0     C38947   8.740  10.055  -0.297 -0.7001  0.5618  1.0060
  296MOL0     O38948   8.715  10.043  -0.430 -0.8011 -0.1123 -0.6582
  296MOL0     C38949   8.654   9.913  -0.466 -0.3276  0.7220 -0.6067
  296MOL0     C38950   8.623   9.910  -0.607  0.2691 -0.0824  0.7982
  296MOL0     C38951   8.742   9.902  -0.704 -0.2500 -0.0529  0.5856
  296MOL0     C38952   8.832   9.780  -0.678  0.1097  0.4027 -0.5505
  296MOL0     C38953   8.945   9.774  -0.776  0.3151 -0.9148 -0.4893
  296MOL0     C38954   9.049   9.673  -0.736 -0.0929  0.3091 -0.6399
  296MOL0     C38955   9.176   9.667  -0.831  0.9920  0.7805 -0.4140
  296MOL0     C38956   9.286   9.558  -0.795 -0.3860 -0.5972 -0.0060
  296MOL0     N38957   9.406   9.593  -0.710  0.8577  0.2753 -0.1833
  296MOL0     C38958   9.531   9.584  -0.752 -0.6821 -0.8361  0.2512
  296MOL0     C38959   9.610   9.611  -0.644  0.0216  0.0830 -0.4253
  296MOL0     C38960   9.756   9.612  -0.642  0.3381  0.2946  0.5049
  296MOL0     C38961   9.798   9.470  -0.685  0.1789 -0.7917 -0.5482
  296MOL0     C38962   9.951   9.469  -0.697 -0.0114  0.2801  0.3605
  296MOL0     C38963   9.990   9.322  -0.707  0.2095 -0.4833  1.0692
  296MOL0     O38964  10.115   9.310  -0.774  0.3621 -0.2909  0.0283
  296MOL0     C38965  10.214   9.244  -0.707  0.7330 -0.3754 -0.0223
  296MOL0     C38966  10.221   9.239  -0.567  0.1899 -0.6407  0.5518
  296MOL0     C38967  10.322   9.164  -0.500  0.2161  0.3158  0.1509
  296MOL0     C38968  10.424   9.100  -0.572  0.0467  0.2419 -0.5961
  296MOL0     C38969  10.515   9.002  -0.511 -0.3395  0.3117  0.6368
  296MOL0     O38970  10.613   8.960  -0.581 -0.2454  0.4631  0.6119
  296MOL0     C38971  10.700   8.863  -0.530 -0.0240 -0.8298  0.3116
  296MOL0     C38972  10.829   8.877  -0.569  0.0929  0.7817  0.7954
  296MOL0     C38973  10.931   8.802  -0.509  0.1068  0.2125  0.6071
  296MOL0     C38974  10.897   8.711  -0.412  0.5485  0.9894 -0.7490
  296MOL0     O38975  10.975   8.605  -0.357 -0.0609  0.7026  0.3343
  296MOL0     C38976  11.011   8.494  -0.447 -0.4203 -0.2415 -0.4849
  296MOL0     C38977  10.923   8.372  -0.404 -0.2113 -0.3606  0.3151
  296MOL0     C38978  10.916   8.361  -0.252  0.6234  0.4549  0.7090
  296MOL0     C38979  11.042   8.302  -0.185  0.0318  0.1972 -0.3317
  296MOL0     C38980  11.032   8.305  -0.034  0.6611  0.2689 -0.4160
  296MOL0     C38981  11.088   8.441   0.025  0.7840 -0.2711  0.7913
  296MOL0     C38982  11.059   8.459   0.180 -0.2831 -0.8727  0.2956
  296MOL0     C38983  11.092   8.353   0.270  0.0214  0.5315  1.1015
  296MOL0    Cl38984  10.979   8.339   0.415  0.1476  0.2610  0.0616
  296MOL0     C38985  10.759   8.683  -0.395 -0.0792  0.1932 -0.3017
  296MOL0     C38986  10.657   8.758  -0.453 -0.6922 -0.8011 -0.4127
  296MOL0     O38987  10.482   8.970  -0.395  0.4896 -0.3588 -0.4628
  296MOL0     C38988  10.412   9.115  -0.713  0.6564 -0.0882  0.0385
  296MOL0     C38989  10.307   9.177  -0.775 -0.5934 -0.4980  0.1585
  296MOL0     N38990   9.528   9.642  -0.536  1.0675  0.6116  0.5307
  296MOL0     N38991   9.407   9.625  -0.578  0.3206  0.2304 -0.3017
  296MOL0     C38992   8.764   9.953  -0.205  0.4993 -0.3395 -0.4981
  296MOL0     C38993   8.779   9.978  -0.066  0.2093  0.9756 -0.0984
  296MOL0     C38994   8.736  10.117   0.336  0.2194  0.4256 -0.3749
  296MOL0     C38995   8.862  10.175   0.374  0.7752 -0.4345  0.1540
  296MOL0     C38996   8.886  10.215   0.507  0.5240 -0.1011 -0.0961
  296MOL0     C38997   8.798  10.177   0.607 -0.0743  0.0336 -0.3977
  296MOL0     O38998   8.837  10.227   0.734 -0.2714  0.2250 -0.6448
  296MOL0     C38999   8.767  10.165   0.850 -0.0138 -0.7545 -0.1288
  296MOL0     C39000   8.652  10.248   0.887  0.4333  0.0498  0.2682
  296MOL0     C39001   8.688  10.338   1.009  0.7163 -0.3621 -0.7632
  296MOL0     C39002   8.597  10.462   1.016  0.3768  0.6642 -0.6370
  296MOL0     C39003   8.619  10.546   0.890  0.2908  0.0301  0.0134
  296MOL0     C39004   8.644  10.610   0.789  0.1032  0.2484  0.1915
  296MOL0     C39005   8.683  10.097   0.581 -0.5598 -0.1699  0.6074
  296MOL0     C39006   8.661  10.063   0.444 -0.7306 -0.6264 -0.9708
  296MOL0     H39007   8.751  10.318  -0.091 -2.5285 -0.0415  1.8065
  296MOL0     H39008   8.735  10.264  -0.313 -0.2751 -0.9325 -1.3216
  296MOL0     H39009   8.559   9.897  -0.414 -0.0111  0.0977 -0.2101
  296MOL0     H39010   8.722   9.834  -0.432  0.6248  3.2562  4.2257
  296MOL0     H39011   8.545   9.982  -0.631  0.3833 -0.8334 -2.1269
  296MOL0     H39012   8.564   9.819  -0.625  2.3123 -1.6822  1.7610
  296MOL0     H39013   8.794   9.998  -0.702 -2.6410  1.4464 -1.7271
  296MOL0     H39014   8.701   9.888  -0.805 -0.1728 -1.1978  0.6954
  296MOL0     H39015   8.862   9.812  -0.578 -3.8759  1.4022  0.4821
  296MOL0     H39016   8.776   9.686  -0.687  3.1684 -1.4440 -2.0243
  296MOL0     H39017   8.987   9.873  -0.794 -2.5647  0.5988  0.4442
  296MOL0     H39018   8.900   9.755  -0.874  0.6604 -1.4599 -0.5474
  296MOL0     H39019   9.009   9.571  -0.734  1.9443 -0.5679 -1.0187
  296MOL0     H39020   9.080   9.710  -0.637  0.6297  0.1050 -0.7846
  296MOL0     H39021   9.132   9.665  -0.931 -0.5239  4.1695  0.0608
  296MOL0     H39022   9.226   9.764  -0.841  3.2729 -0.3765 -0.8254
  296MOL0     H39023   9.329   9.521  -0.888 -0.0812 -1.0827  0.3209
  296MOL0     H39024   9.235   9.480  -0.739  0.3030  1.6491  4.1903
  296MOL0     H39025   9.557   9.556  -0.853 -3.8234  1.1228 -1.2650
  296MOL0     H39026   9.806   9.652  -0.553  1.8977  1.0251 -0.6489
  296MOL0     H39027   9.792   9.675  -0.724 -1.5614  0.1633 -0.4991
  296MOL0     H39028   9.753   9.443  -0.782 -2.7570  1.9204 -0.1295
  296MOL0     H39029   9.769   9.395  -0.611 -3.4196  0.2456 -0.6965
  296MOL0     H39030   9.972   9.530  -0.785 -2.7871 -0.4698 -0.9185
  296MOL0     H39031   9.991   9.523  -0.610  1.2527 -1.7906  1.1457
  296MOL0     H39032   9.917   9.267  -0.767  0.0377 -0.8036  1.5575
  296MOL0     H39033   9.979   9.279  -0.607 -2.9467  0.9403  1.4535
  296MOL0     H39034  10.148   9.296  -0.510  0.7726 -2.2474  3.0107
  296MOL0     H39035  10.315   9.168  -0.392  0.3491  0.2570  0.1615
  296MOL0     H39036  10.846   8.948  -0.650 -2.5209 -0.0069 -0.5516
  296MOL0     H39037  11.033   8.829  -0.535  0.8413 -0.8447  2.2515
  296MOL0     H39038  11.116   8.464  -0.447  0.7536  3.1833 -3.3905
  296MOL0     H39039  10.988   8.517  -0.551 -0.0224 -1.3873 -0.8411
  296MOL0     H39040  10.960   8.278  -0.447  4.6416  2.0045 -1.3966
  296MOL0     H39041  10.821   8.390  -0.438 -0.2647  0.6401  0.9602
  296MOL0     H39042  10.832   8.295  -0.232 -0.1873  0.4977 -2.0860
  296MOL0     H39043  10.892   8.455  -0.202  1.8990  1.0968  0.1654
  296MOL0     H39044  11.053   8.200  -0.222  1.3274  1.2774 -3.2292
  296MOL0     H39045  11.136   8.351  -0.215  0.7475 -0.9163  0.0260
  296MOL0     H39046  11.100   8.236   0.018 -1.6265 -1.1091  0.9234
  296MOL0     H39047  10.929   8.279  -0.006  1.4436 -0.9413  1.5704
  296MOL0     H39048  11.063   8.532  -0.030  0.3637 -0.3426  0.8575
  296MOL0     H39049  11.197   8.442   0.013  0.6854  1.1068 -0.3037
  296MOL0     H39050  11.110   8.543   0.227 -0.7464  0.0918 -0.8761
  296MOL0     H39051  10.950   8.467   0.175 -0.2410 -0.7795 -0.9917
  296MOL0     H39052  11.191   8.368   0.315  0.7677 -2.3238  0.5861
  296MOL0     H39053  11.098   8.262   0.211  2.2638  2.3394 -1.7587
  296MOL0     H39054  10.725   8.607  -0.324 -0.3685  0.9627  0.4051
  296MOL0     H39055  10.553   8.740  -0.430 -1.5008  3.6802  0.3156
  296MOL0     H39056  10.488   9.062  -0.770  2.8160  1.9327  0.8739
  296MOL0     H39057  10.316   9.177  -0.883  2.5969 -1.1664  0.3209
  296MOL0     H39058   8.756   9.850  -0.239  0.5976 -0.1837 -0.9995
  296MOL0     H39059   8.766   9.895   0.002 -0.6132  1.3805  0.2601
  296MOL0     H39060   8.940  10.216   0.309 -0.3317  1.8013  0.1456
  296MOL0     H39061   8.980  10.258   0.537  0.6969 -1.8270  2.1276
  296MOL0     H39062   8.839  10.155   0.932 -0.7581 -4.3190  0.2374
  296MOL0     H39063   8.723  10.066   0.833 -0.5959 -0.3815 -0.8628
  296MOL0     H39064   8.623  10.307   0.799  1.2654  0.1596  0.0633
  296MOL0     H39065   8.574  10.182   0.926  1.5776 -0.9543  0.9136
  296MOL0     H39066   8.789  10.380   1.009  1.2212 -1.3964  1.8319
  296MOL0     H39067   8.682  10.283   1.103 -2.9945  3.3822  1.5349
  296MOL0     H39068   8.491  10.437   1.025  0.1231  1.8830 -0.0921
  296MOL0     H39069   8.628  10.516   1.106  1.9400  0.1142 -0.8062
  296MOL0     H39070   8.672  10.651   0.695  4.1709 -1.0289  0.6641
  296MOL0     H39071   8.603  10.091   0.654 -2.7366  1.1857 -1.5320
  296MOL0     H39072   8.560  10.027   0.430 -2.8700  3.7021  1.2934
  297MOL0     O39073   6.411   1.306  10.938  0.5919  0.1969 -0.5323
  297MOL0     C39074   6.332   1.395  10.915  0.3783 -1.0255  0.3638
  297MOL0     O39075   6.363   1.537  10.912  0.5534  0.3334  0.0133
  297MOL0     C39076   6.467   1.569  10.823 -0.3393 -1.1878 -0.7747
  297MOL0     C39077   6.530   1.694  10.843 -0.1900 -0.8826  0.1130
  297MOL0     C39078   6.632   1.735  10.754  0.3931  0.0270  0.0418
  297MOL0     C39079   6.677   1.654  10.642 -0.4526 -0.5806  0.9856
  297MOL0     O39080   6.771   1.709  10.547  0.2789 -0.1144 -0.0015
  297MOL0     C39081   6.723   1.734  10.416 -0.4448  0.0367 -0.7490
  297MOL0     C39082   6.838   1.786  10.324 -0.8755  1.0076  0.3337
  297MOL0     C39083   6.921   1.905  10.357  0.4673 -0.5899 -0.8361
  297MOL0     C39084   6.835   2.023  10.418 -0.6261  0.0938 -0.5004
  297MOL0     C39085   6.942   2.138  10.406  1.2425  0.2367  1.0749
  297MOL0     C39086   6.886   2.275  10.427  0.3373  0.1284 -0.5156
  297MOL0     C39087   6.767   2.321  10.336  0.8560  0.3962 -0.9937
  297MOL0     C39088   6.733   2.470  10.364  0.0194  0.0800  0.2341
  297MOL0     N39089   6.618   2.511  10.281 -0.6521  0.0269  0.2020
  297MOL0     C39090   6.630   2.583  10.162  0.3136 -0.2175 -0.0053
  297MOL0     C39091   6.509   2.652  10.149 -0.4294  0.4871  0.3786
  297MOL0     C39092   6.463   2.732  10.030  0.7733  0.6131 -0.8588
  297MOL0     C39093   6.416   2.877  10.057  0.0249  0.1876  0.1254
  297MOL0     C39094   6.273   2.894  10.049 -0.0117  0.3477 -0.1752
  297MOL0     C39095   6.224   2.904   9.904 -0.3413  0.2487 -1.2968
  297MOL0     O39096   6.085   2.939   9.903  0.3223 -1.2826  0.3242
  297MOL0     C39097   6.007   2.926   9.799  0.4155  0.4153 -0.0752
  297MOL0     C39098   5.927   2.815   9.793  0.0977 -0.5066  0.3218
  297MOL0     C39099   5.814   2.819   9.705  0.4372 -0.1864  0.2170
  297MOL0     C39100   5.802   2.923   9.608 -0.9310 -0.0300  0.4357
  297MOL0     C39101   5.694   2.919   9.511  0.4597 -0.3319 -0.1623
  297MOL0     O39102   5.716   3.012   9.414 -0.0959 -0.1072  0.2841
  297MOL0     C39103   5.612   3.031   9.332 -0.4624 -0.1512  0.0249
  297MOL0     C39104   5.509   3.128   9.378 -0.4925 -0.7311  1.4138
  297MOL0     C39105   5.397   3.144   9.296 -0.7017 -0.0694  0.0734
  297MOL0     C39106   5.379   3.067   9.178  0.7579 -0.0801  1.0813
  297MOL0     O39107   5.248   3.079   9.135  0.1830  0.5893  0.3160
  297MOL0     C39108   5.226   3.123   9.002 -0.7168  0.5236 -0.2967
  297MOL0     C39109   5.224   3.276   8.983  0.5528 -0.1443  0.2571
  297MOL0     C39110   5.132   3.321   8.862 -1.2831  0.3974 -0.7500
  297MOL0     C39111   5.143   3.474   8.856  0.2731 -0.6928 -0.7840
  297MOL0     C39112   5.039   3.521   8.764  0.0934 -0.6232 -0.2781
  297MOL0     C39113   5.034   3.667   8.718  0.2036  0.7045  0.1437
  297MOL0     C39114   5.050   3.767   8.826 -0.6865 -0.1815 -0.7672
  297MOL0     C39115   4.963   3.884   8.799  1.1624 -0.4333 -0.1912
  297MOL0    Cl39116   4.993   4.021   8.913 -0.2682 -0.3931  0.0967
  297MOL0     C39117   5.471   2.970   9.135 -0.6640 -0.4286  0.0441
  297MOL0     C39118   5.592   2.959   9.215  0.1476 -0.3200  0.0746
  297MOL0     O39119   5.605   2.836   9.516  0.6142  0.0401 -0.1796
  297MOL0     C39120   5.907   3.024   9.610  0.7036  0.3368 -0.3069
  297MOL0     C39121   5.995   3.026   9.709 -1.0680  0.6466 -0.3214
  297MOL0     N39122   6.429   2.618  10.249  0.5099  0.2388  0.3710
  297MOL0     N39123   6.499   2.543  10.339 -0.6198  0.4104 -0.7891
  297MOL0     C39124   6.625   1.523  10.627 -0.5678 -0.5382  0.1050
  297MOL0     C39125   6.513   1.484  10.713  0.4381 -0.3079 -0.1352
  297MOL0     C39126   6.185   1.366  10.913  0.0079 -1.1062  0.3382
  297MOL0     C39127   6.133   1.246  10.947 -0.6218 -0.0426 -1.2949
  297MOL0     C39128   6.001   1.214  10.971  0.2019 -0.1715 -1.0124
  297MOL0     C39129   5.911   1.322  10.958 -1.0065 -1.4780 -0.0080
  297MOL0     O39130   5.778   1.295  10.994  0.0140  0.4113  0.5731
  297MOL0     C39131   5.733   1.379  11.105 -0.5781  0.2054  0.3197
  297MOL0     C39132   5.639   1.482  11.053 -0.8914  0.0356 -0.1881
  297MOL0     C39133   5.589   1.564  11.169  0.4690 -0.8238  0.3371
  297MOL0     C39134   5.465   1.656  11.139 -0.2268  1.2449 -0.0764
  297MOL0     C39135   5.400   1.719  11.246 -0.1909  0.5466 -0.5770
  297MOL0     C39136   5.355   1.788  11.332  0.8522  0.4928 -0.5386
  297MOL0     C39137   5.958   1.451  10.919  0.5351 -0.0820  0.0271
  297MOL0     C39138   6.092   1.474  10.901  0.5157 -0.7931 -0.5655
  297MOL0     H39139   6.517   1.764  10.925  3.4267 -0.9560  0.9286
  297MOL0     H39140   6.665   1.838  10.751  0.6728 -0.0719 -0.4258
  297MOL0     H39141   6.641   1.805  10.431 -1.1655 -1.3229  2.6910
  297MOL0     H39142   6.674   1.649  10.369 -2.8190  1.5168 -1.1208
  297MOL0     H39143   6.803   1.814  10.224 -1.1537 -1.5223 -0.3432
  297MOL0     H39144   6.900   1.698  10.305 -0.1577  1.1898  1.6726
  297MOL0     H39145   6.974   1.935  10.267  1.5528  0.2152  0.0475
  297MOL0     H39146   6.983   1.879  10.444 -1.4560 -3.4780 -0.1762
  297MOL0     H39147   6.745   2.051  10.361 -0.4709  0.5072 -0.5401
  297MOL0     H39148   6.823   2.004  10.525 -0.6717  2.4056 -0.0472
  297MOL0     H39149   6.975   2.150  10.303  2.7195 -1.7645  1.2517
  297MOL0     H39150   7.022   2.109  10.475 -0.3994 -0.7207  2.6932
  297MOL0     H39151   6.971   2.338  10.400 -1.4385  1.3809 -3.7863
  297MOL0     H39152   6.867   2.297  10.533  1.1708  1.6876 -0.6670
  297MOL0     H39153   6.800   2.311  10.232 -0.5830 -0.2745 -1.4073
  297MOL0     H39154   6.686   2.251  10.359  3.7341 -1.8298  3.9325
  297MOL0     H39155   6.825   2.525  10.341  0.4487 -0.6481  0.1676
  297MOL0     H39156   6.698   2.485  10.466  1.2587  2.1565  0.4191
  297MOL0     H39157   6.716   2.601  10.098  0.5302  3.9076  1.2004
  297MOL0     H39158   6.387   2.681   9.971 -1.1512  1.1103  1.0550
  297MOL0     H39159   6.553   2.740   9.969  1.2751  3.1221  0.0629
  297MOL0     H39160   6.458   2.957   9.994  2.2929 -1.6384 -0.8180
  297MOL0     H39161   6.458   2.905  10.154  2.4639  1.8303 -1.2855
  297MOL0     H39162   6.243   2.796  10.087  1.6979  0.3067  1.1828
  297MOL0     H39163   6.246   2.982  10.109 -2.4097  0.5286 -1.3816
  297MOL0     H39164   6.240   2.811   9.850 -0.1474  0.8506 -2.3064
  297MOL0     H39165   6.289   2.980   9.858  2.6935 -0.2924  1.6319
  297MOL0     H39166   5.949   2.739   9.867 -1.8897 -0.6506  0.8231
  297MOL0     H39167   5.734   2.745   9.710 -0.1030  0.4232  0.8125
  297MOL0     H39168   5.521   3.179   9.474 -1.0091  0.6064  0.7877
  297MOL0     H39169   5.328   3.214   9.341  0.5529  1.9228 -0.9319
  297MOL0     H39170   5.124   3.091   8.976 -1.1328  1.3402  0.2547
  297MOL0     H39171   5.306   3.081   8.941 -0.2790  0.8041  0.0831
  297MOL0     H39172   5.328   3.307   8.969  0.0738  3.4869  3.2072
  297MOL0     H39173   5.205   3.327   9.078 -1.6367 -2.2561  1.0744
  297MOL0     H39174   5.025   3.301   8.867 -1.5315  1.5708 -0.9685
  297MOL0     H39175   5.165   3.273   8.769 -1.7309  0.7808 -1.1173
  297MOL0     H39176   5.121   3.509   8.958  2.3930 -0.6566 -0.2870
  297MOL0     H39177   5.240   3.509   8.818 -0.0365  0.3745 -0.6425
  297MOL0     H39178   4.940   3.492   8.798 -0.0592 -1.9474 -1.7526
  297MOL0     H39179   5.059   3.460   8.676  2.6247 -2.5319  1.4630
  297MOL0     H39180   4.941   3.691   8.666  0.1686  0.7389  0.2202
  297MOL0     H39181   5.097   3.691   8.632 -1.5630 -2.4741 -2.2401
  297MOL0     H39182   5.031   3.729   8.927 -1.0002 -0.6124 -0.9833
  297MOL0     H39183   5.151   3.808   8.825 -0.7345 -0.0721 -1.0304
  297MOL0     H39184   4.857   3.864   8.816  0.7773  1.4934 -0.0247
  297MOL0     H39185   4.972   3.929   8.699  0.0768  1.8209  0.6461
  297MOL0     H39186   5.459   2.908   9.047  0.0962 -3.5069  1.9613
  297MOL0     H39187   5.669   2.886   9.189  0.2975 -1.1211  2.4914
  297MOL0     H39188   5.905   3.105   9.538  0.8220 -0.8356 -1.6676
  297MOL0     H39189   6.065   3.105   9.734 -0.3106  0.6351 -2.2804
  297MOL0     H39190   6.653   1.449  10.552 -1.6122 -0.9853  0.1421
  297MOL0     H39191   6.458   1.395  10.684 -1.8594  1.8891 -3.1358
  297MOL0     H39192   6.212   1.173  10.962  3.5180  4.4137  1.7538
  297MOL0     H39193   5.957   1.119  10.999 -1.6846 -0.6747 -5.0102
  297MOL0     H39194   5.814   1.428  11.160 -0.0074  1.1304 -1.2418
  297MOL0     H39195   5.689   1.299  11.165  0.8351 -1.8392 -1.2280
  297MOL0     H39196   5.697   1.554  10.995 -0.7095  0.0056 -0.0462
  297MOL0     H39197   5.561   1.434  10.994 -2.6345 -0.1717  2.1470
  297MOL0     H39198   5.670   1.622  11.214 -2.3001  0.9588  3.4665
  297MOL0     H39199   5.560   1.493  11.248  0.9497  0.8970  2.1591
  297MOL0     H39200   5.490   1.729  11.061 -1.0269  0.9003 -0.6775
  297MOL0     H39201   5.389   1.585  11.105 -2.6190  1.2457  4.5424
  297MOL0     H39202   5.321   1.858  11.406  1.1489  1.9051 -1.6882
  297MOL0     H39203   5.894   1.538  10.908  2.7606  1.5812 -0.4940
  297MOL0     H39204   6.112   1.576  10.869 -2.5266 -0.3837 -1.4537
  298MOL0     O39205   8.469   9.304   0.546 -0.3938  0.0667  0.0025
  298MOL0     C39206   8.394   9.345   0.633  0.6239  0.2378 -0.8470
  298MOL0     O39207   8.313   9.450   0.621 -0.3558 -0.0837  0.1577
  298MOL0     C39208   8.276   9.510   0.497 -1.0499  0.1202  0.2940
  298MOL0     C39209   8.287   9.446   0.369  0.2218 -0.6041  0.1912
  298MOL0     C39210   8.244   9.509   0.246 -0.0231  0.7574 -0.3356
  298MOL0     C39211   8.212   9.635   0.237 -0.1937  0.9295 -0.4136
  298MOL0     O39212   8.208   9.686   0.115  1.3198 -0.3936 -0.1679
  298MOL0     C39213   8.247   9.827   0.103 -0.5275  0.6507  0.4349
  298MOL0     C39214   8.300   9.872  -0.033 -0.7975  0.5706 -0.0357
  298MOL0     C39215   8.217   9.817  -0.158 -0.4214  1.6255 -0.5110
  298MOL0     C39216   8.307   9.833  -0.281  0.0474 -0.6898 -0.0259
  298MOL0     C39217   8.235   9.788  -0.408  1.0197  0.5257  0.2413
  298MOL0     C39218   8.325   9.742  -0.515 -0.8027  0.2939 -0.7313
  298MOL0     C39219   8.264   9.659  -0.634  0.3957  1.3463 -0.4628
  298MOL0     C39220   8.372   9.578  -0.709 -0.5445  0.1660  1.8597
  298MOL0     N39221   8.438   9.482  -0.611 -0.1726 -1.2724  0.4579
  298MOL0     C39222   8.376   9.378  -0.551  0.2923  0.2567  0.3643
  298MOL0     C39223   8.464   9.333  -0.464  0.0882 -0.1149 -0.7448
  298MOL0     C39224   8.449   9.201  -0.396 -0.1811 -0.2863 -0.1034
  298MOL0     C39225   8.479   9.088  -0.502  0.3299 -0.2245  0.4518
  298MOL0     C39226   8.425   8.954  -0.448  0.1703 -0.1505 -0.8736
  298MOL0     C39227   8.442   8.837  -0.553 -0.8400 -0.4921  0.0070
  298MOL0     O39228   8.553   8.848  -0.651  0.4811  0.2189  0.1830
  298MOL0     C39229   8.539   8.912  -0.777 -0.9573  0.5639 -0.3981
  298MOL0     C39230   8.426   8.988  -0.823 -0.3740  0.9155 -0.5862
  298MOL0     C39231   8.426   9.049  -0.947  0.7530  0.5199  0.7704
  298MOL0     C39232   8.533   9.038  -1.038  0.0175 -0.5001 -0.0946
  298MOL0     C39233   8.526   9.095  -1.176 -0.1188 -0.2154 -0.4674
  298MOL0     O39234   8.630   9.074  -1.259  1.0677 -0.0412  0.3082
  298MOL0     C39235   8.617   9.091  -1.396 -0.1930  0.5812 -0.6032
  298MOL0     C39236   8.703   9.179  -1.467 -0.2392 -0.7966 -0.5119
  298MOL0     C39237   8.697   9.196  -1.611 -0.0877  0.0326 -0.2279
  298MOL0     C39238   8.599   9.124  -1.678 -0.4573  0.4242 -0.3290
  298MOL0     O39239   8.573   9.135  -1.810 -0.1135  1.1956 -0.4425
  298MOL0     C39240   8.638   9.229  -1.892  0.1437  0.0461  1.1032
  298MOL0     C39241   8.560   9.231  -2.024  1.5056  0.1254  1.3263
  298MOL0     C39242   8.420   9.291  -2.000 -0.0529  0.2562 -0.0289
  298MOL0     C39243   8.326   9.261  -2.114 -0.1778 -0.7823  0.2845
  298MOL0     C39244   8.195   9.331  -2.098  1.0779 -0.2044 -0.7095
  298MOL0     C39245   8.127   9.341  -1.958 -0.1607  0.1347 -1.0133
  298MOL0     C39246   8.077   9.201  -1.918  0.1583  0.3060  0.3599
  298MOL0     C39247   8.062   9.167  -1.772  0.3219 -0.0809  0.3889
  298MOL0    Cl39248   7.941   9.275  -1.700  0.1988 -0.2345  0.0997
  298MOL0     C39249   8.532   9.024  -1.617 -0.0598  0.3081  0.0648
  298MOL0     C39250   8.542   9.005  -1.476 -0.6672 -0.1547 -0.1222
  298MOL0     O39251   8.422   9.157  -1.203 -0.3563  0.1443 -0.0973
  298MOL0     C39252   8.640   8.965  -0.986 -0.0478 -0.9707 -1.1232
  298MOL0     C39253   8.649   8.906  -0.858 -0.3446  0.2125  0.4238
  298MOL0     N39254   8.581   9.399  -0.471  0.4509 -0.2953 -0.1187
  298MOL0     N39255   8.568   9.488  -0.558  0.4530 -0.0714  0.1618
  298MOL0     C39256   8.210   9.709   0.363  0.1846  0.9341  0.2251
  298MOL0     C39257   8.232   9.647   0.494 -0.5634 -0.2599 -0.0619
  298MOL0     C39258   8.394   9.281   0.766  0.5206 -0.4805  0.1220
  298MOL0     C39259   8.286   9.287   0.860  0.3205  0.0907 -0.0245
  298MOL0     C39260   8.298   9.245   0.995  0.1566  0.3908  1.4494
  298MOL0     C39261   8.411   9.172   1.021  0.9054 -0.9891 -0.6630
  298MOL0     O39262   8.401   9.113   1.144  0.4684 -0.3059  0.1608
  298MOL0     C39263   8.517   9.071   1.214 -0.5150 -0.5057  0.3355
  298MOL0     C39264   8.475   8.988   1.340 -0.3122 -0.1466  0.8398
  298MOL0     C39265   8.400   8.855   1.315  0.2567 -0.0192  0.0069
  298MOL0     C39266   8.314   8.818   1.440 -0.0022 -0.7475  0.3896
  298MOL0     C39267   8.200   8.913   1.452 -0.1223  0.3589  0.1548
  298MOL0     C39268   8.119   9.001   1.455  0.0320  0.6683 -0.2580
  298MOL0     C39269   8.520   9.153   0.926 -0.1267  0.2896 -0.0006
  298MOL0     C39270   8.507   9.209   0.800 -1.1180 -0.6441  0.4159
  298MOL0     H39271   8.315   9.341   0.362  0.7553 -0.3500 -2.3544
  298MOL0     H39272   8.243   9.457   0.150 -0.7209  0.6935 -0.2993
  298MOL0     H39273   8.324   9.864   0.172  2.7646  2.2016 -3.6132
  298MOL0     H39274   8.164   9.894   0.127 -1.5657 -0.4383 -0.0665
  298MOL0     H39275   8.398   9.825  -0.050 -0.5813  1.4077 -1.2234
  298MOL0     H39276   8.316   9.980  -0.030  1.5892  0.2733  1.5837
  298MOL0     H39277   8.129   9.882  -0.166 -1.7728  0.5443  3.1357
  298MOL0     H39278   8.186   9.714  -0.138 -1.4946  2.0785  0.2572
  298MOL0     H39279   8.350   9.931  -0.302 -1.9165  0.4821  1.1291
  298MOL0     H39280   8.394   9.770  -0.261 -0.9921 -1.1613  3.9472
  298MOL0     H39281   8.155   9.855  -0.441  2.3087  1.6022 -0.8345
  298MOL0     H39282   8.193   9.695  -0.369  4.7915 -1.2839  0.5128
  298MOL0     H39283   8.403   9.690  -0.458 -0.1155  2.0695  0.0158
  298MOL0     H39284   8.359   9.839  -0.552 -1.3925  1.2164  0.9957
  298MOL0     H39285   8.185   9.588  -0.605  3.6909 -2.2198  0.6512
  298MOL0     H39286   8.218   9.731  -0.703  1.1302  1.0039 -1.3257
  298MOL0     H39287   8.454   9.638  -0.750  0.8827 -1.8532  1.5853
  298MOL0     H39288   8.325   9.525  -0.792 -0.1369  0.8339  1.1848
  298MOL0     H39289   8.282   9.326  -0.560  0.5676 -0.0503 -0.8725
  298MOL0     H39290   8.350   9.184  -0.354 -1.5458  1.4315 -2.3603
  298MOL0     H39291   8.519   9.194  -0.312 -1.2813 -1.6594  0.7521
  298MOL0     H39292   8.587   9.089  -0.517  0.1842 -1.7700 -0.9725
  298MOL0     H39293   8.436   9.115  -0.599 -0.2958 -1.0406  0.4866
  298MOL0     H39294   8.478   8.929  -0.355  1.1852  0.2259 -1.3422
  298MOL0     H39295   8.316   8.959  -0.449  0.1355 -0.8973 -1.7950
  298MOL0     H39296   8.348   8.832  -0.609 -0.6704 -0.5201 -0.2798
  298MOL0     H39297   8.457   8.738  -0.508  1.0415  0.9948  2.9470
  298MOL0     H39298   8.328   8.996  -0.776 -1.2012  3.0997 -2.4328
  298MOL0     H39299   8.327   9.082  -0.978 -0.6558 -3.6994  0.0871
  298MOL0     H39300   8.776   9.242  -1.416  1.0442  0.1142 -3.2381
  298MOL0     H39301   8.741   9.283  -1.657 -1.3179  0.0674 -1.4050
  298MOL0     H39302   8.730   9.181  -1.928 -0.2748  1.5772 -2.3511
  298MOL0     H39303   8.657   9.328  -1.850  1.5015 -0.4789  1.8247
  298MOL0     H39304   8.551   9.131  -2.067  1.6010 -0.2051  2.0721
  298MOL0     H39305   8.605   9.306  -2.090  0.4909  0.4960  1.0283
  298MOL0     H39306   8.416   9.400  -1.986 -0.9679  0.1058  0.9825
  298MOL0     H39307   8.386   9.236  -1.912 -1.1785 -0.6261 -0.9895
  298MOL0     H39308   8.378   9.286  -2.207  3.5041 -1.9941  1.8481
  298MOL0     H39309   8.320   9.152  -2.108 -0.1866 -0.7323  1.2611
  298MOL0     H39310   8.115   9.285  -2.156  0.6182 -1.3357  0.7666
  298MOL0     H39311   8.211   9.435  -2.130 -0.7172  0.4516  0.3788
  298MOL0     H39312   8.050   9.417  -1.944 -0.4690 -0.5113  1.0653
  298MOL0     H39313   8.195   9.355  -1.874 -0.7995  0.8268 -0.6069
  298MOL0     H39314   7.980   9.174  -1.960  0.3386  0.3839 -0.1247
  298MOL0     H39315   8.143   9.133  -1.973 -3.9092 -1.1650 -3.3009
  298MOL0     H39316   8.157   9.187  -1.721  2.9562 -0.9631 -3.6890
  298MOL0     H39317   8.037   9.063  -1.751  0.6004 -0.1352  0.4489
  298MOL0     H39318   8.471   8.951  -1.670 -0.4822  0.6837  0.0300
  298MOL0     H39319   8.498   8.916  -1.431  0.8985 -0.0328  1.7975
  298MOL0     H39320   8.728   8.958  -1.049 -0.2612  1.6207 -1.8021
  298MOL0     H39321   8.739   8.865  -0.813 -0.4635  1.8008  2.2624
  298MOL0     H39322   8.183   9.814   0.366 -1.8381  0.4496  1.0207
  298MOL0     H39323   8.213   9.700   0.587  0.2112 -1.2852  0.7008
  298MOL0     H39324   8.202   9.353   0.836  1.1420  1.7609  1.4410
  298MOL0     H39325   8.215   9.253   1.064 -2.7322 -1.4015 -1.4943
  298MOL0     H39326   8.572   9.160   1.247 -0.6196 -1.1568  2.4184
  298MOL0     H39327   8.581   9.007   1.152 -2.2398 -0.9924 -1.0244
  298MOL0     H39328   8.572   8.971   1.387 -0.2704  2.5469  1.8572
  298MOL0     H39329   8.421   9.054   1.408 -0.2192 -0.4848  1.2458
  298MOL0     H39330   8.467   8.774   1.285  0.6601  0.9493 -1.8609
  298MOL0     H39331   8.333   8.863   1.229 -1.3675 -5.8713  0.3372
  298MOL0     H39332   8.269   8.718   1.438 -0.5954 -0.4695 -1.6119
  298MOL0     H39333   8.368   8.825   1.535  0.6805 -1.7120  0.0899
  298MOL0     H39334   8.049   9.076   1.487  0.2235 -0.4161  3.0198
  298MOL0     H39335   8.612   9.100   0.948 -2.5641 -5.1897 -1.2589
  298MOL0     H39336   8.595   9.192   0.739  0.2390  2.6718  1.2520
  299MOL0     O39337   2.276   0.010  10.046 -0.1988  1.0514  0.5211
  299MOL0     C39338   2.393  -0.016  10.035  0.1258 -0.1654  0.4711
  299MOL0     O39339   2.489  -0.019  10.133  0.3902 -0.6919 -1.4005
  299MOL0     C39340   2.451   0.031  10.256 -1.1000 -1.1915 -0.7620
  299MOL0     C39341   2.352  -0.022  10.342  0.1194 -0.0306  0.2987
  299MOL0     C39342   2.318   0.040  10.460  0.0261 -0.1669 -0.0780
  299MOL0     C39343   2.384   0.147  10.513 -0.4796 -0.4530 -0.9148
  299MOL0     O39344   2.367   0.211  10.635 -0.6614  0.6435 -0.2002
  299MOL0     C39345   2.234   0.261  10.665  0.7328  0.3238 -0.0585
  299MOL0     C39346   2.236   0.349  10.787  0.1805 -0.5458 -0.7281
  299MOL0     C39347   2.232   0.270  10.920 -0.6681 -0.5057 -0.1266
  299MOL0     C39348   2.248   0.362  11.043  0.3202 -0.4262  0.2893
  299MOL0     C39349   2.140   0.479  11.053  0.7331 -0.3597  0.6854
  299MOL0     C39350   2.159   0.557  11.183  1.0082 -0.5772  0.4677
  299MOL0     C39351   2.042   0.655  11.205  0.9988 -0.6372 -0.1721
  299MOL0     C39352   1.907   0.599  11.257 -0.0911  0.0191 -0.0983
  299MOL0     N39353   1.918   0.480  11.343 -0.2528 -0.0359 -0.5489
  299MOL0     C39354   1.915   0.474  11.479 -0.2844  0.2855 -0.4758
  299MOL0     C39355   1.901   0.342  11.505  0.0648 -0.5358 -0.1895
  299MOL0     C39356   1.915   0.269  11.646  1.8528 -0.7091  1.4763
  299MOL0     C39357   2.062   0.272  11.711 -0.5854  0.5070  0.6119
  299MOL0     C39358   2.156   0.227  11.607  0.8040  0.0190  0.1448
  299MOL0     C39359   2.302   0.258  11.643 -0.2415  0.1166  0.6655
  299MOL0     O39360   2.359   0.142  11.712  0.5199  0.6468  0.5509
  299MOL0     C39361   2.499   0.140  11.720 -0.2767 -0.8117 -1.0143
  299MOL0     C39362   2.573   0.255  11.765  0.5012 -0.8739 -1.3458
  299MOL0     C39363   2.708   0.241  11.791  0.1573 -0.5559 -0.5033
  299MOL0     C39364   2.776   0.127  11.741 -0.3677 -1.0944 -1.1795
  299MOL0     C39365   2.915   0.123  11.768 -0.1475 -1.0825  0.0473
  299MOL0     O39366   2.978   0.238  11.780 -0.0108 -0.0458 -0.2757
  299MOL0     C39367   3.118   0.236  11.798 -0.0321  0.2227 -0.2147
  299MOL0     C39368   3.190   0.174  11.904  0.4114 -0.3950  0.7790
  299MOL0     C39369   3.331   0.193  11.919 -0.0124  0.2358 -0.0595
  299MOL0     C39370   3.396   0.278  11.835 -0.6233 -1.6875 -1.2013
  299MOL0     O39371   3.537   0.288  11.854  0.2108 -0.2286 -0.3038
  299MOL0     C39372   3.609   0.342  11.744 -1.2955 -0.3711 -0.0827
  299MOL0     C39373   3.758   0.332  11.781 -0.0312  0.5464  0.7480
  299MOL0     C39374   3.766   0.453  11.871  0.3035  1.0403  0.6651
  299MOL0     C39375   3.905   0.464  11.933  0.2123  0.4632 -0.2295
  299MOL0     C39376   3.947   0.372  12.056  0.0250  0.7140  0.5873
  299MOL0     C39377   3.874   0.402  12.181  0.1273 -0.0064 -0.5362
  299MOL0     C39378   3.942   0.373  12.317  0.3152 -0.2684  0.2889
  299MOL0     C39379   3.846   0.389  12.436  0.5303 -0.1295 -0.2944
  299MOL0    Cl39380   3.716   0.278  12.443  0.0747  0.5356 -0.1290
  299MOL0     C39381   3.320   0.353  11.743 -0.6467 -0.7772 -1.1331
  299MOL0     C39382   3.186   0.327  11.721 -0.0599  0.1483  0.2671
  299MOL0     O39383   2.961   0.012  11.777 -0.3945  0.5375 -0.6878
  299MOL0     C39384   2.707   0.020  11.684  0.5251  0.3201 -0.3644
  299MOL0     C39385   2.566   0.031  11.669 -0.4663 -0.4647 -0.8302
  299MOL0     N39386   1.897   0.268  11.389  0.2977  0.3329  0.0820
  299MOL0     N39387   1.896   0.354  11.301 -0.4425 -0.1943  0.0507
  299MOL0     C39388   2.491   0.192  10.430  0.4047  0.2621 -0.3897
  299MOL0     C39389   2.531   0.137  10.309 -0.9947  0.5473 -0.0951
  299MOL0     C39390   2.450  -0.040   9.902  1.6778 -0.1420  1.0684
  299MOL0     C39391   2.376  -0.113   9.799  0.0466 -1.2548 -0.7129
  299MOL0     C39392   2.417  -0.140   9.677  0.2872 -0.1503  0.7851
  299MOL0     C39393   2.551  -0.094   9.628 -0.0807  0.3902  0.5703
  299MOL0     O39394   2.583  -0.124   9.496 -0.4520  0.3422  0.7271
  299MOL0     C39395   2.720  -0.113   9.464 -0.5045 -0.9965 -0.3257
  299MOL0     C39396   2.749  -0.169   9.331  0.0686 -0.4600  0.5058
  299MOL0     C39397   2.693  -0.304   9.281  0.3482  0.5831  0.1652
  299MOL0     C39398   2.765  -0.420   9.350 -1.1305  0.1407  0.2575
  299MOL0     C39399   2.697  -0.547   9.317  0.8198  0.4851 -0.5470
  299MOL0     C39400   2.642  -0.654   9.284 -0.1508 -0.0124  0.6038
  299MOL0     C39401   2.630  -0.017   9.716  0.2682 -0.1662 -0.0940
  299MOL0     C39402   2.584  -0.005   9.852 -0.4437  0.0893  0.4645
  299MOL0     H39403   2.308  -0.114  10.305 -1.3582  0.2794  1.2106
  299MOL0     H39404   2.244  -0.006  10.525  1.7953 -1.6608  0.9817
  299MOL0     H39405   2.174   0.173  10.686 -1.4805  1.3949 -1.4447
  299MOL0     H39406   2.192   0.322  10.584 -1.4229  0.1176  0.8295
  299MOL0     H39407   2.149   0.415  10.785  0.0676 -0.5616  1.4801
  299MOL0     H39408   2.322   0.417  10.786 -0.4272  0.2393 -1.1375
  299MOL0     H39409   2.322   0.208  10.918 -1.5013 -1.7782 -2.5999
  299MOL0     H39410   2.147   0.201  10.927 -0.1444 -1.1350  0.1360
  299MOL0     H39411   2.233   0.293  11.127 -0.9677 -0.0705  0.3728
  299MOL0     H39412   2.352   0.395  11.045 -0.1179  1.0362 -0.1118
  299MOL0     H39413   2.040   0.434  11.050  0.6230 -0.0559 -0.3694
  299MOL0     H39414   2.146   0.539  10.963  1.0621  0.3861  1.1982
  299MOL0     H39415   2.257   0.606  11.184  0.0119  1.5897 -0.9520
  299MOL0     H39416   2.169   0.493  11.271 -0.9735 -1.2319  0.2664
  299MOL0     H39417   2.086   0.719  11.282  3.0625 -2.4449  0.2560
  299MOL0     H39418   2.017   0.707  11.113 -0.3862 -1.3881 -0.2537
  299MOL0     H39419   1.850   0.580  11.166 -0.0928 -1.0409  0.1120
  299MOL0     H39420   1.862   0.680  11.314 -0.1352  0.1066 -0.2599
  299MOL0     H39421   1.944   0.554  11.546 -2.3848  1.2985 -0.7205
  299MOL0     H39422   1.891   0.164  11.628 -0.6717  0.0102  0.2173
  299MOL0     H39423   1.849   0.315  11.720  0.4098  0.5025 -0.4671
  299MOL0     H39424   2.077   0.204  11.795 -1.3695 -0.9594 -0.3844
  299MOL0     H39425   2.066   0.372  11.753  0.1478 -0.3949  2.8423
  299MOL0     H39426   2.131   0.123  11.586 -0.3119  0.4122 -0.5311
  299MOL0     H39427   2.147   0.294  11.521 -2.4178  1.1551  1.2113
  299MOL0     H39428   2.307   0.350  11.702  2.6133 -1.5763  3.3804
  299MOL0     H39429   2.368   0.290  11.562 -1.0254 -0.1555 -0.1022
  299MOL0     H39430   2.510   0.339  11.795 -0.4993 -1.5639 -1.4564
  299MOL0     H39431   2.764   0.318  11.843 -1.1230  0.6711 -0.8654
  299MOL0     H39432   3.138   0.115  11.979  2.4418  0.6886  3.1849
  299MOL0     H39433   3.396   0.140  11.988  1.0295  1.3076 -0.1936
  299MOL0     H39434   3.570   0.443  11.728 -5.0209 -1.3228  1.7538
  299MOL0     H39435   3.579   0.280  11.659 -0.1389 -1.0099 -0.0465
  299MOL0     H39436   3.811   0.340  11.686 -3.5471 -1.2138 -1.6014
  299MOL0     H39437   3.779   0.237  11.831 -1.6715  0.9275  2.2860
  299MOL0     H39438   3.695   0.443  11.954 -1.4644 -0.7201 -0.9386
  299MOL0     H39439   3.747   0.539  11.808 -2.0857  2.7148  3.4117
  299MOL0     H39440   3.974   0.445  11.851 -1.2751 -0.8449 -1.2257
  299MOL0     H39441   3.923   0.567  11.964  0.6396  0.9635 -2.0249
  299MOL0     H39442   4.055   0.382  12.072  0.3589 -0.4905 -0.7259
  299MOL0     H39443   3.939   0.265  12.038 -0.0136  0.4118  2.2215
  299MOL0     H39444   3.779   0.349  12.178  0.5094 -0.8436  0.9088
  299MOL0     H39445   3.851   0.509  12.177  1.8677  0.5193  1.3610
  299MOL0     H39446   3.988   0.273  12.313  0.4822 -0.1589 -1.3182
  299MOL0     H39447   4.011   0.458  12.324 -2.4167  2.0982  0.1751
  299MOL0     H39448   3.802   0.490  12.433  0.1491 -0.1494 -5.4653
  299MOL0     H39449   3.911   0.383  12.523  1.4793  1.5731 -0.8351
  299MOL0     H39450   3.364   0.420  11.670 -0.9605 -0.1504 -0.7542
  299MOL0     H39451   3.137   0.365  11.632  2.0891 -1.7876 -1.8909
  299MOL0     H39452   2.743  -0.073  11.642 -0.2127 -0.3387  0.4105
  299MOL0     H39453   2.505  -0.046  11.621 -2.3177 -2.0234  3.4936
  299MOL0     H39454   2.550   0.272  10.472  0.3037  0.2967 -0.3123
  299MOL0     H39455   2.614   0.164  10.244 -0.2807 -1.3387 -0.0053
  299MOL0     H39456   2.277  -0.145   9.831  0.3404 -0.1715  1.4362
  299MOL0     H39457   2.352  -0.192   9.607 -1.8515 -1.2400  3.3983
  299MOL0     H39458   2.762  -0.174   9.545  0.4361 -1.1012 -0.8794
  299MOL0     H39459   2.753  -0.009   9.459  4.3923 -1.9897  3.4419
  299MOL0     H39460   2.712  -0.104   9.252  1.0482 -1.6050 -0.9387
  299MOL0     H39461   2.858  -0.163   9.324  0.1556  3.9271  2.5213
  299MOL0     H39462   2.700  -0.319   9.173  0.9128  0.5386  0.2069
  299MOL0     H39463   2.586  -0.304   9.304  0.7293  3.0041  2.6183
  299MOL0     H39464   2.871  -0.418   9.323 -1.9523  3.2018 -3.5652
  299MOL0     H39465   2.764  -0.403   9.458  3.2713  3.7882  0.0138
  299MOL0     H39466   2.605  -0.746   9.245  2.1920  0.4878 -3.3310
  299MOL0     H39467   2.723   0.030   9.685  2.0322 -3.7066 -0.7356
  299MOL0     H39468   2.653   0.041   9.922  0.7066 -2.5338  1.1712
  300MOL0     O39469   3.384  10.043   2.346  1.0612 -0.2502  0.1673
  300MOL0     C39470   3.297  10.015   2.258  0.3182  1.4627 -0.2711
  300MOL0     O39471   3.313  10.042   2.136 -0.1840 -0.1543 -0.0608
  300MOL0     C39472   3.370  10.151   2.098 -0.6621  0.4442  0.2965
  300MOL0     C39473   3.311  10.275   2.110  0.3985 -0.1748 -0.0206
  300MOL0     C39474   3.356  10.391   2.040 -0.5254  0.1551 -0.5215
  300MOL0     C39475   3.472  10.377   1.959  0.1585 -0.5453  0.8365
  300MOL0     O39476   3.520  10.497   1.910  0.7280  0.5431  0.0640
  300MOL0     C39477   3.668  10.505   1.908  0.3020  0.8952 -0.0161
  300MOL0     C39478   3.709  10.640   1.866  0.8736 -0.7335 -0.3933
  300MOL0     C39479   3.660  10.745   1.974  0.7813  0.6628  0.2642
  300MOL0     C39480   3.718  10.883   1.919  0.0096  0.6199 -0.0231
  300MOL0     C39481   3.706  11.005   2.022 -0.2236  0.7749 -1.1700
  300MOL0     C39482   3.703  11.131   1.935 -0.6341  0.3604 -0.8152
  300MOL0     C39483   3.841  11.192   1.908  0.6960 -0.1996  0.4389
  300MOL0     C39484   3.828  11.329   1.824  0.6677 -0.9287  0.6290
  300MOL0     N39485   3.709  11.337   1.736  0.4196 -0.4321 -0.5777
  300MOL0     C39486   3.592  11.403   1.757 -0.8174 -0.3840  0.2635
  300MOL0     C39487   3.513  11.405   1.648 -0.3932  0.7615  0.4954
  300MOL0     C39488   3.374  11.450   1.608  0.6770 -0.3204  0.0965
  300MOL0     C39489   3.289  11.342   1.540 -0.6811  1.1180 -0.5249
  300MOL0     C39490   3.164  11.404   1.487 -0.0520  0.1710 -0.3284
  300MOL0     C39491   3.071  11.307   1.406 -0.1679 -0.3524 -0.0107
  300MOL0     O39492   2.960  11.381   1.341  0.1680 -0.4451 -0.3842
  300MOL0     C39493   2.863  11.317   1.278  0.4761 -1.2698  0.3457
  300MOL0     C39494   2.843  11.180   1.281 -0.3656 -0.4513  0.2173
  300MOL0     C39495   2.735  11.130   1.206 -0.0326 -0.3272 -0.1695
  300MOL0     C39496   2.629  11.217   1.143 -0.9796 -0.7922  0.3017
  300MOL0     C39497   2.528  11.154   1.061 -0.6579  0.0991  0.2789
  300MOL0     O39498   2.505  11.024   1.086 -0.1057 -0.0639 -0.5263
  300MOL0     C39499   2.440  10.954   0.991  0.2195 -0.4219 -0.5797
  300MOL0     C39500   2.349  10.867   1.039 -0.6107  0.3131  0.0742
  300MOL0     C39501   2.275  10.779   0.958 -0.0666  0.3099 -0.5540
  300MOL0     C39502   2.281  10.802   0.828 -0.4096  0.3969  1.0184
  300MOL0     O39503   2.201  10.723   0.750 -0.1164  0.7634 -0.5790
  300MOL0     C39504   2.079  10.766   0.693 -0.7013 -1.1815 -0.0971
  300MOL0     C39505   2.015  10.657   0.613 -0.2351  0.3779  0.6041
  300MOL0     C39506   2.079  10.645   0.469  0.1334  1.2579 -0.1095
  300MOL0     C39507   2.052  10.762   0.374 -0.5784 -0.7936  0.6104
  300MOL0     C39508   2.073  10.729   0.229  0.2649  0.5964 -0.6128
  300MOL0     C39509   1.982  10.809   0.138 -0.7106 -0.7865 -0.4463
  300MOL0     C39510   1.838  10.776   0.142 -0.2630 -0.4511 -0.7152
  300MOL0     C39511   1.791  10.685   0.037 -0.7425 -0.7429 -0.1530
  300MOL0    Cl39512   1.811  10.737  -0.136 -0.2889 -0.0145  0.4843
  300MOL0     C39513   2.381  10.891   0.774 -0.0531  0.0569  0.4194
  300MOL0     C39514   2.472  10.949   0.859 -1.0513  0.1475  0.0012
  300MOL0     O39515   2.509  11.213   0.953  0.4780 -0.4739 -0.3937
  300MOL0     C39516   2.659  11.349   1.149 -0.9666  0.3624 -0.1153
  300MOL0     C39517   2.766  11.398   1.220 -0.3792  0.3485  0.6672
  300MOL0     N39518   3.603  11.349   1.554 -0.4619 -0.4287  0.8381
  300MOL0     N39519   3.710  11.304   1.599 -0.3705 -0.6474 -0.0271
  300MOL0     C39520   3.529  10.253   1.941  0.9594  0.3134  0.6741
  300MOL0     C39521   3.476  10.140   2.005  0.2911 -0.2912 -0.5992
  300MOL0     C39522   3.195   9.911   2.296 -0.7020 -0.0441  0.2524
  300MOL0     C39523   3.135   9.822   2.197  0.1756 -0.4949 -0.1969
  300MOL0     C39524   3.030   9.732   2.226 -0.7264 -0.2469  0.3082
  300MOL0     C39525   2.974   9.734   2.358 -0.8569  0.6293  0.0224
  300MOL0     O39526   2.862   9.671   2.398 -1.0237 -0.4075 -0.0119
  300MOL0     C39527   2.835   9.546   2.347 -0.4345 -0.2188 -0.0063
  300MOL0     C39528   2.701   9.500   2.387  0.1116 -0.0914 -0.7908
  300MOL0     C39529   2.655   9.390   2.286 -0.6698  1.0299 -0.4405
  300MOL0     C39530   2.532   9.319   2.328  0.6055 -0.0927 -1.3424
  300MOL0     C39531   2.523   9.193   2.254  0.4767 -0.1794 -0.0489
  300MOL0     C39532   2.501   9.080   2.217 -0.6420 -0.5628  0.7761
  300MOL0     C39533   3.035   9.818   2.456  0.1546 -0.0440  0.0916
  300MOL0     C39534   3.141   9.896   2.425  0.3182 -0.6824  0.1268
  300MOL0     H39535   3.226  10.285   2.177 -0.0087  1.3164 -0.7026
  300MOL0     H39536   3.317  10.491   2.055 -0.6092  0.1504 -0.7045
  300MOL0     H39537   3.707  10.428   1.841 -1.4153  1.3788 -1.6762
  300MOL0     H39538   3.709  10.500   2.009  0.8320  0.4522 -0.2461
  300MOL0     H39539   3.661  10.666   1.772  0.1920  0.2860  0.2203
  300MOL0     H39540   3.818  10.646   1.853  1.1836 -0.5389  1.8300
  300MOL0     H39541   3.714  10.728   2.067  1.8856 -1.5660 -0.7078
  300MOL0     H39542   3.552  10.742   1.989  0.9490 -3.1451  1.6784
  300MOL0     H39543   3.824  10.861   1.905 -0.1104  0.0657 -0.1080
  300MOL0     H39544   3.678  10.904   1.819  1.6598  4.3523 -0.0333
  300MOL0     H39545   3.783  11.004   2.100 -1.1211  0.0558 -0.2822
  300MOL0     H39546   3.609  10.976   2.063  0.4268 -0.1745 -0.2474
  300MOL0     H39547   3.637  11.197   1.993 -0.2038  1.0993 -1.1516
  300MOL0     H39548   3.654  11.106   1.840  0.5542  1.6922 -1.8223
  300MOL0     H39549   3.890  11.221   2.001  3.6571 -2.2181 -0.3583
  300MOL0     H39550   3.904  11.119   1.856 -0.5141  0.5110 -2.1822
  300MOL0     H39551   3.917  11.372   1.776  0.6697  0.2436  1.6143
  300MOL0     H39552   3.821  11.402   1.906  1.3407 -0.1902  0.0387
  300MOL0     H39553   3.567  11.438   1.857  0.8275 -0.0862  0.5968
  300MOL0     H39554   3.395  11.526   1.533 -1.0476  0.4347  0.3173
  300MOL0     H39555   3.319  11.509   1.683 -2.3177  1.7587 -3.4012
  300MOL0     H39556   3.262  11.264   1.611  2.0774 -0.9650 -1.5608
  300MOL0     H39557   3.348  11.301   1.457 -0.0460 -1.9131  1.2658
  300MOL0     H39558   3.112  11.430   1.580  3.6726 -0.0200  2.0600
  300MOL0     H39559   3.192  11.492   1.428 -3.4503  1.6721  0.0564
  300MOL0     H39560   3.038  11.242   1.487  1.6057  0.5257  1.4997
  300MOL0     H39561   3.123  11.251   1.328  0.7971  0.1428  0.2566
  300MOL0     H39562   2.905  11.108   1.333 -0.6287  0.9773  2.6969
  300MOL0     H39563   2.723  11.022   1.214  2.1189 -0.6531 -0.6749
  300MOL0     H39564   2.347  10.848   1.146  1.6682 -1.4029 -0.1260
  300MOL0     H39565   2.210  10.705   1.003  0.9446  1.4523  3.2077
  300MOL0     H39566   2.094  10.862   0.643 -3.8919 -2.0140 -2.9495
  300MOL0     H39567   2.006  10.776   0.774  0.3522 -3.7864  1.3038
  300MOL0     H39568   1.911  10.685   0.596 -0.4727  0.3525  1.8591
  300MOL0     H39569   2.025  10.558   0.659  0.1244 -0.0884 -0.4515
  300MOL0     H39570   2.035  10.558   0.420  2.1332 -0.1691  0.4674
  300MOL0     H39571   2.186  10.619   0.471 -0.2886 -0.6762 -0.8522
  300MOL0     H39572   1.955  10.803   0.402 -1.8553 -3.2924  0.1073
  300MOL0     H39573   2.116  10.848   0.395 -4.2034  2.4191 -0.3582
  300MOL0     H39574   2.067  10.620   0.221  2.0001  0.2719  1.4567
  300MOL0     H39575   2.177  10.736   0.197 -0.0126 -0.1283 -1.7211
  300MOL0     H39576   2.016  10.789   0.036 -1.6514  1.1901 -1.1976
  300MOL0     H39577   1.997  10.917   0.152 -0.5504 -0.8291 -0.2845
  300MOL0     H39578   1.815  10.737   0.241  2.5254  0.9837  0.6260
  300MOL0     H39579   1.792  10.876   0.146  1.7896  0.5187  1.1359
  300MOL0     H39580   1.687  10.652   0.045 -1.3937  0.9723 -1.0903
  300MOL0     H39581   1.857  10.599   0.052 -0.2667 -0.4222 -0.3699
  300MOL0     H39582   2.409  10.888   0.669  3.3413  2.1282  1.1450
  300MOL0     H39583   2.567  10.996   0.836 -0.4688 -0.1589  1.6344
  300MOL0     H39584   2.580  11.404   1.099 -1.0916  1.4325  1.1888
  300MOL0     H39585   2.793  11.503   1.221 -1.0785  0.6377 -2.1970
  300MOL0     H39586   3.621  10.243   1.884  1.2681  0.1045  1.2015
  300MOL0     H39587   3.525  10.045   1.987  0.3564 -0.7043  1.4980
  300MOL0     H39588   3.176   9.820   2.096 -0.7950  1.8111 -0.6996
  300MOL0     H39589   2.997   9.677   2.138  2.3354  1.6124 -2.2318
  300MOL0     H39590   2.903   9.476   2.397  0.0486  0.1031 -0.2071
  300MOL0     H39591   2.853   9.526   2.241  0.7321 -2.4843  0.5482
  300MOL0     H39592   2.697   9.454   2.486 -3.0988  1.2533 -0.1489
  300MOL0     H39593   2.626   9.580   2.397  1.9472  1.9894 -2.5246
  300MOL0     H39594   2.732   9.313   2.274 -1.7297 -0.3481  1.0057
  300MOL0     H39595   2.640   9.436   2.188 -0.1818  3.9803  0.7741
  300MOL0     H39596   2.541   9.293   2.434  1.4586 -4.2141 -2.2484
  300MOL0     H39597   2.439   9.374   2.311 -0.6859 -1.6579  0.3160
  300MOL0     H39598   2.491   8.980   2.179  0.3321 -0.9414  1.4873
  300MOL0     H39599   2.999   9.815   2.558 -0.5546  3.2869  0.0623
  300MOL0     H39600   3.178   9.966   2.500 -2.7582  1.0402  0.2047
  301MOL0     O39601   4.201   3.106   9.944  0.2767  0.2489 -0.1420
  301MOL0     C39602   4.294   3.054  10.002  1.1505  0.2456 -0.8446
  301MOL0     O39603   4.378   2.963   9.947  0.3154 -0.2346 -0.1269
  301MOL0     C39604   4.373   2.918   9.818 -0.0568  0.1133  0.1039
  301MOL0     C39605   4.451   2.811   9.788 -0.1088 -0.0751 -0.5538
  301MOL0     C39606   4.479   2.758   9.661  0.0950 -0.6032  0.0555
  301MOL0     C39607   4.408   2.810   9.553 -0.3389 -0.6822 -0.5013
  301MOL0     O39608   4.415   2.753   9.436 -0.6314 -0.7704  0.4882
  301MOL0     C39609   4.524   2.802   9.349  0.1948 -0.0617  0.1985
  301MOL0     C39610   4.483   2.774   9.208  0.1045  0.9304 -0.1260
  301MOL0     C39611   4.497   2.629   9.182  0.0989  0.8090 -0.3497
  301MOL0     C39612   4.444   2.592   9.042  0.6085  0.5449  0.3570
  301MOL0     C39613   4.484   2.447   8.994 -0.5022 -0.1666 -0.8392
  301MOL0     C39614   4.575   2.456   8.876  0.3333  0.2046 -0.3439
  301MOL0     C39615   4.612   2.323   8.812  0.8956 -0.7607  0.1162
  301MOL0     C39616   4.495   2.228   8.790 -0.2592 -0.2948 -0.5475
  301MOL0     N39617   4.549   2.100   8.727 -0.0780 -0.3235  0.8170
  301MOL0     C39618   4.587   1.995   8.799 -1.1676 -0.5013  0.1232
  301MOL0     C39619   4.561   1.882   8.723 -0.9966  0.4890 -0.1917
  301MOL0     C39620   4.588   1.746   8.780 -0.2349 -0.5389  0.4719
  301MOL0     C39621   4.475   1.645   8.782  0.4025  0.9156 -0.4555
  301MOL0     C39622   4.410   1.610   8.646 -0.5641  0.7606 -1.1717
  301MOL0     C39623   4.508   1.543   8.551  0.7368 -0.4619  0.1688
  301MOL0     O39624   4.536   1.424   8.620 -0.2936  0.0317  0.1224
  301MOL0     C39625   4.557   1.312   8.546  0.3774 -0.2447  0.7875
  301MOL0     C39626   4.517   1.282   8.411  1.1741  0.1852  0.0708
  301MOL0     C39627   4.556   1.166   8.345  0.9043  0.2649  0.0819
  301MOL0     C39628   4.622   1.066   8.419  0.2699  0.0437 -0.7600
  301MOL0     C39629   4.660   0.942   8.362 -0.4494  0.1119 -0.0106
  301MOL0     O39630   4.709   0.847   8.446  0.1923 -0.4375 -0.4095
  301MOL0     C39631   4.783   0.740   8.404 -0.5114  0.5340  0.1430
  301MOL0     C39632   4.767   0.615   8.459 -0.0280  0.8290 -0.3340
  301MOL0     C39633   4.834   0.495   8.418 -0.0009  0.3787 -0.0353
  301MOL0     C39634   4.915   0.514   8.309  0.3944  1.3050  0.9977
  301MOL0     O39635   4.999   0.409   8.277  0.2386 -0.6692  0.1440
  301MOL0     C39636   5.006   0.285   8.336 -0.7204  0.2463 -0.0406
  301MOL0     C39637   5.094   0.187   8.253 -0.2945 -0.0117 -0.7981
  301MOL0     C39638   5.039   0.179   8.105  0.3505 -0.2159 -0.4440
  301MOL0     C39639   5.119   0.083   8.015 -1.0535  0.3308 -0.0908
  301MOL0     C39640   5.069   0.107   7.869  0.8359  0.7321 -0.2319
  301MOL0     C39641   5.083  -0.026   7.783  0.3949 -0.3611 -1.2430
  301MOL0     C39642   5.037  -0.001   7.645  0.2383 -0.0215 -0.6581
  301MOL0     C39643   5.111  -0.107   7.548 -0.0925  0.0353 -0.8888
  301MOL0    Cl39644   5.128  -0.276   7.622 -0.1645 -0.0054  0.1129
  301MOL0     C39645   4.944   0.638   8.253 -0.5242 -0.5991  0.2772
  301MOL0     C39646   4.875   0.752   8.293 -0.1391 -0.1909 -0.1499
  301MOL0     O39647   4.644   0.930   8.242  0.3320  0.1640  0.0332
  301MOL0     C39648   4.642   1.082   8.563 -0.2725 -0.2122  0.5813
  301MOL0     C39649   4.625   1.211   8.610  0.4416  0.0735 -1.6386
  301MOL0     N39650   4.509   1.926   8.602  0.7836 -1.1221 -0.7184
  301MOL0     N39651   4.500   2.053   8.601  0.1636  0.2187 -0.7042
  301MOL0     C39652   4.309   2.908   9.576 -0.1064  0.2596 -0.6588
  301MOL0     C39653   4.290   2.962   9.709 -0.4267 -1.2813  0.6641
  301MOL0     C39654   4.296   3.033  10.149  0.0906  0.1506 -0.2966
  301MOL0     C39655   4.198   3.092  10.232 -1.0041 -0.0988 -0.2561
  301MOL0     C39656   4.213   3.070  10.377 -0.3193 -1.5461  0.7337
  301MOL0     C39657   4.325   3.006  10.429  0.6528  0.1986  0.1248
  301MOL0     O39658   4.338   2.992  10.568 -0.2539  0.5778  0.0918
  301MOL0     C39659   4.330   2.853  10.611  0.1953  1.0375  0.5327
  301MOL0     C39660   4.196   2.850  10.688  0.1003  0.1108 -0.6919
  301MOL0     C39661   4.095   2.735  10.649  0.2064  0.1802  0.5177
  301MOL0     C39662   4.053   2.770  10.508  0.4918 -0.1170 -0.0111
  301MOL0     C39663   3.956   2.879  10.500  0.5466 -0.5788 -0.4822
  301MOL0     C39664   3.868   2.969  10.470 -0.4831 -0.3561 -1.1044
  301MOL0     C39665   4.419   2.954  10.340  0.0388 -0.4041 -0.5763
  301MOL0     C39666   4.410   2.969  10.208  0.1951  0.0601 -1.1090
  301MOL0     H39667   4.498   2.779   9.880 -0.7929  3.4882  1.2012
  301MOL0     H39668   4.562   2.691   9.640  1.0971  0.9856 -1.3493
  301MOL0     H39669   4.619   2.762   9.384  0.8788 -1.6325 -3.0165
  301MOL0     H39670   4.537   2.910   9.339 -2.3287  0.2353 -0.7317
  301MOL0     H39671   4.547   2.824   9.136 -1.5377  0.1374 -2.2398
  301MOL0     H39672   4.386   2.819   9.188 -0.2563  1.4907  2.5159
  301MOL0     H39673   4.452   2.561   9.255 -4.7953  1.8014 -2.0171
  301MOL0     H39674   4.602   2.605   9.199 -0.7299 -2.1344  1.6154
  301MOL0     H39675   4.336   2.604   9.047  0.1054 -2.3277 -1.4987
  301MOL0     H39676   4.487   2.661   8.969 -1.0407  2.5643  1.2021
  301MOL0     H39677   4.390   2.401   8.964 -1.3233  1.3971 -0.8099
  301MOL0     H39678   4.531   2.395   9.078 -2.4888  0.6889  0.8942
  301MOL0     H39679   4.663   2.499   8.924  0.9361 -3.2429  1.9781
  301MOL0     H39680   4.546   2.528   8.799  1.2193  0.5780 -0.3405
  301MOL0     H39681   4.666   2.356   8.723  1.8845  2.0209  1.6195
  301MOL0     H39682   4.674   2.267   8.882  3.7402 -0.2180 -1.8401
  301MOL0     H39683   4.419   2.263   8.720  0.2650  2.1691  0.0378
  301MOL0     H39684   4.441   2.204   8.883 -0.6548  0.7878 -0.4866
  301MOL0     H39685   4.638   1.998   8.894  1.5690 -0.0698 -1.2474
  301MOL0     H39686   4.623   1.759   8.882 -0.9291 -0.4621  0.7047
  301MOL0     H39687   4.675   1.707   8.727 -0.1535  0.0632  0.1525
  301MOL0     H39688   4.395   1.681   8.847 -0.4529  1.3514 -1.7057
  301MOL0     H39689   4.515   1.552   8.823  0.4196  1.3681  0.5777
  301MOL0     H39690   4.326   1.543   8.669  0.6428  0.5506  3.7279
  301MOL0     H39691   4.365   1.704   8.614 -1.7656  0.6848  0.1546
  301MOL0     H39692   4.595   1.609   8.542 -0.7747  1.3874 -2.4343
  301MOL0     H39693   4.458   1.532   8.454  0.9868 -1.8877  0.1786
  301MOL0     H39694   4.453   1.346   8.351  1.3517 -0.4233 -0.7995
  301MOL0     H39695   4.533   1.150   8.241 -0.9096 -0.4818  0.5508
  301MOL0     H39696   4.692   0.605   8.538  2.7966 -1.2426  2.3297
  301MOL0     H39697   4.801   0.401   8.460 -0.8651  0.6525 -0.0944
  301MOL0     H39698   4.903   0.250   8.349 -1.3935  1.7408 -1.1005
  301MOL0     H39699   5.047   0.296   8.437 -1.6883 -1.1888  0.5450
  301MOL0     H39700   5.094   0.084   8.289  3.0370  0.0056 -0.4022
  301MOL0     H39701   5.197   0.223   8.248  0.3221 -1.2466  1.5769
  301MOL0     H39702   5.050   0.279   8.061  0.7574  0.4571  1.1272
  301MOL0     H39703   4.935   0.152   8.120  0.9716 -1.3458  2.5757
  301MOL0     H39704   5.221   0.122   8.023 -1.3699  1.5045 -1.5272
  301MOL0     H39705   5.124  -0.018   8.058 -0.0528  0.7584  0.8473
  301MOL0     H39706   5.124   0.193   7.831 -0.1017  1.0169 -0.9895
  301MOL0     H39707   4.963   0.135   7.869  0.9490  1.4542  2.9274
  301MOL0     H39708   5.029  -0.109   7.828  0.6358 -0.2094 -0.6722
  301MOL0     H39709   5.192  -0.039   7.784  1.0079  3.5458  0.1401
  301MOL0     H39710   4.928  -0.010   7.640  0.1486 -0.0727  0.8968
  301MOL0     H39711   5.066   0.097   7.606 -1.2822  0.6814 -0.0870
  301MOL0     H39712   5.210  -0.064   7.531  1.9452 -3.6907  0.4764
  301MOL0     H39713   5.068  -0.111   7.448 -0.1401  0.5924 -0.8951
  301MOL0     H39714   5.022   0.653   8.179  0.9102 -0.6210  1.7546
  301MOL0     H39715   4.908   0.844   8.247  1.0855 -0.2730  0.5185
  301MOL0     H39716   4.682   0.998   8.619  0.2989  0.2943  0.9617
  301MOL0     H39717   4.668   1.239   8.706  1.4233  0.9624 -2.3238
  301MOL0     H39718   4.256   2.959   9.497 -1.4371  2.6795  1.6477
  301MOL0     H39719   4.228   3.049   9.728  2.5747  0.7864  1.7468
  301MOL0     H39720   4.131   3.165  10.188 -0.8953  0.2613  0.1664
  301MOL0     H39721   4.141   3.117  10.443  3.9346  4.2469  2.1012
  301MOL0     H39722   4.408   2.821  10.681  1.8386  0.8334 -1.3115
  301MOL0     H39723   4.332   2.787  10.524 -0.4948  2.4815 -0.6269
  301MOL0     H39724   4.222   2.846  10.795 -1.0470  0.4971 -0.3899
  301MOL0     H39725   4.137   2.941  10.677 -0.2522 -0.0736 -0.3284
  301MOL0     H39726   4.020   2.729  10.728 -1.5410  0.1805 -1.0823
  301MOL0     H39727   4.151   2.642  10.658  3.7139  2.0244 -0.2933
  301MOL0     H39728   4.144   2.795  10.453 -0.0207  1.4250 -0.2155
  301MOL0     H39729   4.007   2.678  10.470 -1.6879  1.2681 -0.9461
  301MOL0     H39730   3.794   3.046  10.471 -0.4362 -0.3137 -0.3007
  301MOL0     H39731   4.508   2.907  10.378 -0.6742 -2.5921 -1.4717
  301MOL0     H39732   4.485   2.913  10.152  0.0548 -1.3403  0.0630
  302MOL0     O39733  11.185   2.201   7.220 -0.1382 -0.3395  0.1323
  302MOL0     C39734  11.286   2.188   7.147 -0.1719  0.3383 -0.5677
  302MOL0     O39735  11.362   2.288   7.089 -0.0517  0.3228 -0.0289
  302MOL0     C39736  11.315   2.413   7.122  0.1175  0.3272  0.2379
  302MOL0     C39737  11.240   2.479   7.029  0.1997 -0.4771 -0.1569
  302MOL0     C39738  11.181   2.600   7.060  0.5886 -0.2607 -0.0320
  302MOL0     C39739  11.197   2.666   7.191  0.3957 -0.2851 -0.0468
  302MOL0     O39740  11.123   2.775   7.210  0.2612  0.6632 -0.2387
  302MOL0     C39741  11.168   2.887   7.134 -0.8700  0.2057  0.6484
  302MOL0     C39742  11.088   3.011   7.167 -0.3291 -0.2805  0.5966
  302MOL0     C39743  11.124   3.087   7.294  0.5166 -1.1369 -0.3572
  302MOL0     C39744  11.084   3.008   7.424 -0.3256  0.1720 -0.0475
  302MOL0     C39745  11.066   3.104   7.540 -0.2520 -0.7952  0.0926
  302MOL0     C39746  11.181   3.193   7.571  0.1086  0.3848 -0.0199
  302MOL0     C39747  11.140   3.274   7.698 -0.0518 -0.8211 -0.3219
  302MOL0     C39748  11.058   3.396   7.669  0.1910  0.1152 -0.1920
  302MOL0     N39749  11.006   3.481   7.782 -0.3067  0.9765 -0.5258
  302MOL0     C39750  11.023   3.452   7.920 -0.0454 -0.3793  0.3259
  302MOL0     C39751  10.917   3.509   7.980  1.5450 -0.4142  0.7283
  302MOL0     C39752  10.891   3.496   8.128  0.0868  1.2500  0.4391
  302MOL0     C39753  10.744   3.483   8.166  0.3147  0.4941  0.8440
  302MOL0     C39754  10.690   3.336   8.167  0.6558  0.3604  0.6375
  302MOL0     C39755  10.699   3.273   8.025  0.3364 -0.2388 -0.6064
  302MOL0     O39756  10.808   3.171   8.007 -0.1132 -0.1642  0.8580
  302MOL0     C39757  10.818   3.085   7.899  0.3096 -0.0264 -1.1395
  302MOL0     C39758  10.737   3.096   7.788  0.0717  0.0804  0.1899
  302MOL0     C39759  10.753   3.003   7.684  0.0542  0.1311 -0.4504
  302MOL0     C39760  10.839   2.893   7.703 -0.5587 -0.1684 -0.1242
  302MOL0     C39761  10.845   2.772   7.620 -0.3477  0.1383  0.3186
  302MOL0     O39762  10.751   2.763   7.522 -0.1758 -0.0129 -0.3856
  302MOL0     C39763  10.766   2.663   7.437  0.1572 -0.0446  0.0561
  302MOL0     C39764  10.704   2.542   7.451 -0.5076  0.0288 -0.6785
  302MOL0     C39765  10.720   2.427   7.359  0.1160 -0.5413 -0.3411
  302MOL0     C39766  10.799   2.444   7.243 -0.1552  0.8239  0.7889
  302MOL0     O39767  10.808   2.329   7.163  0.6082 -0.1304  0.2255
  302MOL0     C39768  10.910   2.341   7.055  0.0623 -0.3402 -0.5673
  302MOL0     C39769  10.922   2.201   6.993 -0.3578 -0.0307  0.1818
  302MOL0     C39770  11.006   2.199   6.873  0.5903 -0.4161 -0.3106
  302MOL0     C39771  11.045   2.056   6.831 -0.0221  0.7421 -0.9291
  302MOL0     C39772  10.917   1.989   6.763 -0.2400 -1.0161  0.2151
  302MOL0     C39773  10.910   2.053   6.621  0.6461  0.3852  0.5234
  302MOL0     C39774  10.767   2.044   6.576  0.7689  0.1717 -1.6510
  302MOL0     C39775  10.713   2.151   6.477 -0.2446  0.4294 -1.1208
  302MOL0    Cl39776  10.578   2.089   6.388  0.1049 -0.0951  0.6841
  302MOL0     C39777  10.864   2.567   7.232 -0.1791  1.1237  0.2761
  302MOL0     C39778  10.841   2.665   7.316  0.3003 -1.3957 -0.0582
  302MOL0     O39779  10.937   2.691   7.626 -0.2942 -0.6250 -0.4100
  302MOL0     C39780  10.935   2.893   7.808  0.3181 -0.6388 -0.5291
  302MOL0     C39781  10.922   2.987   7.906 -0.4756  0.1862  0.3127
  302MOL0     N39782  10.829   3.545   7.883  0.6072  0.6207  0.5434
  302MOL0     N39783  10.883   3.537   7.766  0.2279 -0.0437 -0.0153
  302MOL0     C39784  11.275   2.602   7.286  0.2804 -0.5843 -0.2414
  302MOL0     C39785  11.334   2.475   7.248  0.0044 -0.4798 -0.2992
  302MOL0     C39786  11.318   2.052   7.105  0.7685 -0.0358  0.3578
  302MOL0     C39787  11.411   2.037   7.003  0.7278  0.2927  0.1020
  302MOL0     C39788  11.429   1.912   6.956  0.0298  1.2537  0.1764
  302MOL0     C39789  11.360   1.796   6.999  0.1763 -0.5560 -0.0963
  302MOL0     O39790  11.388   1.666   6.970  0.0664  0.2320  0.2416
  302MOL0     C39791  11.425   1.647   6.828 -0.4433  0.1398 -0.7445
  302MOL0     C39792  11.575   1.644   6.814  0.5934 -0.1427  0.1006
  302MOL0     C39793  11.642   1.539   6.906 -0.1390 -1.0018  0.4836
  302MOL0     C39794  11.619   1.396   6.855 -0.0716  0.5118  0.2844
  302MOL0     C39795  11.664   1.317   6.972 -0.3777  0.8068 -0.8112
  302MOL0     C39796  11.702   1.269   7.077  0.3683  0.4769  0.5379
  302MOL0     C39797  11.278   1.811   7.107 -0.8790 -0.2121  0.2717
  302MOL0     C39798  11.258   1.939   7.157 -0.7374  0.0829  0.3856
  302MOL0     H39799  11.237   2.442   6.927  1.9796 -0.0404 -0.4031
  302MOL0     H39800  11.116   2.644   6.984  0.2336 -0.0789  0.3752
  302MOL0     H39801  11.163   2.867   7.026  0.2172 -2.7435  1.0612
  302MOL0     H39802  11.275   2.898   7.155 -0.4007 -1.0889 -0.8535
  302MOL0     H39803  10.981   2.989   7.173 -1.1181  3.2877  3.6263
  302MOL0     H39804  11.109   3.079   7.085 -1.0932  0.7150  1.2021
  302MOL0     H39805  11.063   3.177   7.280  1.3866 -0.2405  1.2646
  302MOL0     H39806  11.229   3.114   7.285 -0.1574  2.2943  0.7196
  302MOL0     H39807  10.984   2.964   7.411  1.1499 -3.4737 -0.1594
  302MOL0     H39808  11.150   2.923   7.446  2.0664  1.6407 -1.1778
  302MOL0     H39809  11.050   3.045   7.630  1.7018  1.0342  1.7583
  302MOL0     H39810  10.976   3.162   7.514  1.4419  2.0373  0.1354
  302MOL0     H39811  11.226   3.255   7.494 -2.5919 -0.7821 -2.7281
  302MOL0     H39812  11.259   3.124   7.606  0.5408  0.9716  0.1990
  302MOL0     H39813  11.090   3.206   7.768 -0.4944  1.8079  2.0559
  302MOL0     H39814  11.234   3.307   7.744 -0.5814  1.4079 -0.7569
  302MOL0     H39815  10.967   3.366   7.616  0.3779  1.2002 -1.1704
  302MOL0     H39816  11.118   3.464   7.608  0.7203  1.3453  1.6009
  302MOL0     H39817  11.106   3.395   7.960  0.4245 -0.2361 -0.4112
  302MOL0     H39818  10.939   3.585   8.168  3.3336 -0.5887  0.9626
  302MOL0     H39819  10.940   3.408   8.171  0.0758  2.1008  2.2384
  302MOL0     H39820  10.675   3.541   8.103  0.6312  1.2652  1.1952
  302MOL0     H39821  10.737   3.524   8.268 -0.2228 -1.6683  1.7217
  302MOL0     H39822  10.745   3.281   8.244  1.3013 -0.4380 -0.3550
  302MOL0     H39823  10.584   3.334   8.195 -0.5966  1.5858 -3.3223
  302MOL0     H39824  10.704   3.345   7.944 -1.1596  2.0075  1.1852
  302MOL0     H39825  10.601   3.223   8.022  0.7758 -1.3642  1.6383
  302MOL0     H39826  10.673   3.184   7.785 -1.2968 -0.9156 -0.7729
  302MOL0     H39827  10.693   3.006   7.593  2.6347  0.7935 -2.2333
  302MOL0     H39828  10.632   2.526   7.531 -0.3689  1.2952 -0.2838
  302MOL0     H39829  10.670   2.330   7.366 -3.0195  0.7487 -2.6824
  302MOL0     H39830  11.006   2.379   7.091  0.6230 -0.3445 -1.9948
  302MOL0     H39831  10.879   2.398   6.966 -1.2713 -2.3059 -1.4517
  302MOL0     H39832  10.826   2.168   6.953  0.9393 -2.3343 -1.2525
  302MOL0     H39833  10.959   2.119   7.055 -1.4345 -0.4092  0.3424
  302MOL0     H39834  11.101   2.250   6.892  0.2068 -0.7402  3.1803
  302MOL0     H39835  10.951   2.256   6.797 -0.9152 -1.5082 -0.0818
  302MOL0     H39836  11.131   2.043   6.765 -0.0691 -3.0295 -0.4699
  302MOL0     H39837  11.080   2.011   6.925  3.5698  1.6050 -1.6951
  302MOL0     H39838  10.831   2.003   6.829  0.1120 -1.3841  0.7574
  302MOL0     H39839  10.932   1.881   6.762  1.2451 -0.8670  2.1217
  302MOL0     H39840  10.981   2.013   6.547 -0.8690  3.1114 -2.6802
  302MOL0     H39841  10.944   2.157   6.627  2.7879  0.0233 -2.6469
  302MOL0     H39842  10.764   1.950   6.521  3.5352 -0.8244 -0.2737
  302MOL0     H39843  10.693   2.042   6.656  0.0150  0.6041 -2.3115
  302MOL0     H39844  10.791   2.187   6.409  0.8060  1.3718  0.5243
  302MOL0     H39845  10.687   2.242   6.531 -0.4677  0.4971 -1.3415
  302MOL0     H39846  10.934   2.582   7.151  1.7134  1.3365  1.8764
  302MOL0     H39847  10.886   2.762   7.297 -0.5769 -0.6478  1.4460
  302MOL0     H39848  11.011   2.816   7.809  1.5473  0.5530 -0.4146
  302MOL0     H39849  10.992   3.012   7.986 -2.3127  0.6453  1.8681
  302MOL0     H39850  11.281   2.642   7.386  4.3201  0.6312 -0.7804
  302MOL0     H39851  11.406   2.414   7.302  0.2566 -1.2621 -1.4754
  302MOL0     H39852  11.473   2.121   6.974  0.2650  0.9428  0.9614
  302MOL0     H39853  11.491   1.909   6.867  1.5049  0.7241  1.1860
  302MOL0     H39854  11.374   1.720   6.764  0.9754  1.8679 -0.0252
  302MOL0     H39855  11.390   1.548   6.799 -1.7955  0.6948 -1.0947
  302MOL0     H39856  11.589   1.615   6.709 -0.5346  2.5237 -0.8777
  302MOL0     H39857  11.609   1.747   6.830  1.6556 -0.3609 -0.6439
  302MOL0     H39858  11.600   1.552   7.006 -0.8870 -1.7633  0.2788
  302MOL0     H39859  11.749   1.562   6.898 -0.9461  2.7703 -1.9071
  302MOL0     H39860  11.516   1.361   6.851 -0.7362  2.4500 -1.0085
  302MOL0     H39861  11.665   1.362   6.761  1.3308 -1.5202  1.6128
  302MOL0     H39862  11.733   1.241   7.175  2.1305  0.1336 -0.0834
  302MOL0     H39863  11.227   1.726   7.150 -1.3900 -0.1245 -0.1452
  302MOL0     H39864  11.196   1.959   7.244 -1.0663  1.0152 -0.0593
  303MOL0     O39865   7.062   1.481   5.213  0.3662  0.2188  0.1528
  303MOL0     C39866   7.082   1.506   5.332 -1.0910 -0.6942  0.3513
  303MOL0     O39867   6.982   1.546   5.421 -0.3436 -0.8550  0.0825
  303MOL0     C39868   6.869   1.604   5.377  0.2482 -0.3441 -0.4145
  303MOL0     C39869   6.762   1.599   5.463 -0.1903  0.2804 -0.2673
  303MOL0     C39870   6.634   1.656   5.433 -0.8097  0.6583  0.5494
  303MOL0     C39871   6.620   1.737   5.320  0.1581 -0.3942 -0.1819
  303MOL0     O39872   6.498   1.803   5.315 -0.3480 -0.1911  0.2408
  303MOL0     C39873   6.483   1.896   5.202 -0.0112  0.1096  0.1221
  303MOL0     C39874   6.338   1.952   5.194  0.0180  0.0371 -0.4697
  303MOL0     C39875   6.288   2.025   5.317 -0.9438 -0.5656  0.3212
  303MOL0     C39876   6.138   2.050   5.320  0.3184 -0.4852 -0.1076
  303MOL0     C39877   6.058   1.920   5.342  0.5015  0.1046 -0.8563
  303MOL0     C39878   5.910   1.949   5.336 -0.9132  0.0444 -0.4923
  303MOL0     C39879   5.853   1.902   5.207 -0.3399 -0.3931  0.2185
  303MOL0     C39880   5.822   2.012   5.102  0.3372 -0.6207  0.4958
  303MOL0     N39881   5.721   2.115   5.138  1.0250  0.8798 -0.0921
  303MOL0     C39882   5.591   2.106   5.111  0.0256  0.2614 -1.1488
  303MOL0     C39883   5.536   2.224   5.143  0.1400 -0.5262  0.1876
  303MOL0     C39884   5.405   2.262   5.095 -0.9497  0.5909 -0.4233
  303MOL0     C39885   5.299   2.245   5.212 -0.1338 -0.9204 -0.8359
  303MOL0     C39886   5.285   2.111   5.280  1.5126 -0.0902  0.8973
  303MOL0     C39887   5.172   2.113   5.385 -0.8320 -1.2714 -0.5423
  303MOL0     O39888   5.130   2.241   5.420  0.6095 -0.2603  0.3827
  303MOL0     C39889   5.018   2.247   5.504 -0.8644  0.7768 -0.0609
  303MOL0     C39890   4.966   2.369   5.548  0.6204  0.5299 -0.1796
  303MOL0     C39891   4.864   2.382   5.639 -0.0454 -0.0436  0.4291
  303MOL0     C39892   4.794   2.267   5.679  0.3279 -0.3040 -0.4045
  303MOL0     C39893   4.673   2.271   5.762 -0.2721 -0.1028  0.5171
  303MOL0     O39894   4.618   2.160   5.810  0.4795  0.0992 -0.1339
  303MOL0     C39895   4.523   2.181   5.909  0.7357 -1.3901 -0.6991
  303MOL0     C39896   4.395   2.146   5.909  0.0643  0.5597  0.6099
  303MOL0     C39897   4.302   2.164   6.015  0.1907 -0.6233  0.3708
  303MOL0     C39898   4.348   2.216   6.133  0.0835  1.1430  0.2128
  303MOL0     O39899   4.257   2.242   6.241 -0.8641 -0.8263  0.1440
  303MOL0     C39900   4.269   2.381   6.290 -0.5320 -0.0151 -0.1050
  303MOL0     C39901   4.145   2.453   6.246  0.5377 -1.0442 -0.2723
  303MOL0     C39902   4.152   2.590   6.323  0.0460 -0.0341 -0.1891
  303MOL0     C39903   4.045   2.687   6.283  0.5419 -0.4480 -0.4175
  303MOL0     C39904   4.026   2.820   6.370  0.0254  0.4412  1.6347
  303MOL0     C39905   3.975   2.791   6.507  0.4087  0.8234 -0.3835
  303MOL0     C39906   3.924   2.919   6.581 -0.2006 -0.7384  0.8397
  303MOL0     C39907   3.909   2.897   6.734 -0.1334  0.2451 -0.7426
  303MOL0    Cl39908   3.881   3.057   6.809 -0.7919 -0.5660 -0.0046
  303MOL0     C39909   4.483   2.256   6.139 -0.0860  1.1146 -0.2016
  303MOL0     C39910   4.563   2.237   6.030 -0.6311  0.5712  0.3091
  303MOL0     O39911   4.630   2.388   5.773  0.8048  0.3445  0.0577
  303MOL0     C39912   4.840   2.136   5.645  0.8503 -1.1407 -0.2908
  303MOL0     C39913   4.952   2.128   5.569 -0.4794 -0.1221 -0.1850
  303MOL0     N39914   5.621   2.303   5.219  0.1374  0.4547  0.8012
  303MOL0     N39915   5.740   2.244   5.198 -0.6348  0.4902  0.3549
  303MOL0     C39916   6.728   1.747   5.228  0.4878 -0.5611  0.0473
  303MOL0     C39917   6.847   1.678   5.253 -0.4759  0.5032  0.1340
  303MOL0     C39918   7.229   1.513   5.365  0.7124 -0.9471 -0.1319
  303MOL0     C39919   7.268   1.536   5.492  0.6785  0.2744 -0.0132
  303MOL0     C39920   7.400   1.568   5.525  0.3889 -0.1651  0.3791
  303MOL0     C39921   7.497   1.568   5.417 -0.3279 -0.3304 -0.7218
  303MOL0     O39922   7.632   1.596   5.433 -0.0131  0.2218  0.4367
  303MOL0     C39923   7.695   1.627   5.557 -0.3683  0.0479  0.3927
  303MOL0     C39924   7.841   1.616   5.545  0.5183  0.2134  0.1938
  303MOL0     C39925   7.882   1.464   5.510  0.4790  1.0847  0.1248
  303MOL0     C39926   8.024   1.460   5.467  0.8715 -0.1308  1.6181
  303MOL0     C39927   8.105   1.470   5.588 -1.2622 -0.9792  1.1605
  303MOL0     C39928   8.182   1.467   5.679  0.3154  0.5638 -0.0864
  303MOL0     C39929   7.459   1.529   5.288 -0.3202  0.7484 -0.2259
  303MOL0     C39930   7.328   1.508   5.260  0.2123 -0.4253 -0.9575
  303MOL0     H39931   6.780   1.553   5.559  1.2808 -3.3717 -2.0954
  303MOL0     H39932   6.551   1.653   5.503 -0.1124 -2.5485  1.3803
  303MOL0     H39933   6.503   1.843   5.109 -2.1325 -3.0025  1.2793
  303MOL0     H39934   6.550   1.980   5.225  0.4805  0.6979 -3.0266
  303MOL0     H39935   6.274   1.864   5.184  2.4264 -1.7447 -1.2586
  303MOL0     H39936   6.319   2.017   5.109  2.5030 -1.1156 -2.0311
  303MOL0     H39937   6.340   2.119   5.333  0.4341 -1.2340 -0.0387
  303MOL0     H39938   6.298   1.970   5.411  0.1657 -0.5425  0.2314
  303MOL0     H39939   6.120   2.112   5.409  4.1658 -4.0714  3.6328
  303MOL0     H39940   6.115   2.099   5.226 -0.2338  1.0235  0.7801
  303MOL0     H39941   6.089   1.864   5.430  2.7713 -0.7227 -2.1025
  303MOL0     H39942   6.075   1.853   5.258  3.9098  2.0870 -1.9818
  303MOL0     H39943   5.902   2.058   5.338 -2.1471  0.2062 -4.5050
  303MOL0     H39944   5.862   1.910   5.425 -2.5647  0.1638 -1.2897
  303MOL0     H39945   5.904   1.818   5.159 -0.4872  0.7588 -2.0915
  303MOL0     H39946   5.759   1.864   5.250  1.1097  1.8346  6.4182
  303MOL0     H39947   5.779   1.959   5.017  0.9224 -1.0860  0.4896
  303MOL0     H39948   5.916   2.052   5.062 -0.5857 -0.1519 -1.3450
  303MOL0     H39949   5.531   2.035   5.055 -1.0024  0.1292  0.0819
  303MOL0     H39950   5.376   2.196   5.012 -2.4665 -0.4309  0.8439
  303MOL0     H39951   5.415   2.366   5.063 -0.9397  0.7387  0.0528
  303MOL0     H39952   5.203   2.265   5.163 -0.5695  1.8218  0.9046
  303MOL0     H39953   5.315   2.323   5.287 -3.5073 -0.4013 -0.5223
  303MOL0     H39954   5.264   2.031   5.208 -0.7233  1.0997  0.1442
  303MOL0     H39955   5.374   2.086   5.338  0.8456 -3.2116  0.7242
  303MOL0     H39956   5.218   2.066   5.472  0.7423  3.2673  1.3550
  303MOL0     H39957   5.089   2.056   5.342  0.5347 -1.6679 -2.8693
  303MOL0     H39958   5.014   2.460   5.515 -0.3065  0.7840 -0.8523
  303MOL0     H39959   4.828   2.478   5.675 -0.9614 -0.2765  0.1586
  303MOL0     H39960   4.356   2.093   5.823 -0.3599 -0.6767  1.5203
  303MOL0     H39961   4.196   2.142   6.011 -0.1516  0.4699  2.0911
  303MOL0     H39962   4.355   2.440   6.256 -0.3869  0.2766  0.7508
  303MOL0     H39963   4.274   2.365   6.398  0.7747 -2.3737 -0.4441
  303MOL0     H39964   4.049   2.403   6.260 -0.7973  0.8572 -1.9168
  303MOL0     H39965   4.162   2.473   6.139  0.3623 -2.7548 -0.6394
  303MOL0     H39966   4.244   2.644   6.344 -0.9903  1.6659  0.1718
  303MOL0     H39967   4.120   2.560   6.424  0.2998 -1.0975 -0.4119
  303MOL0     H39968   4.071   2.720   6.182  3.9664  1.4759  0.9303
  303MOL0     H39969   3.949   2.638   6.265  0.1262  0.2190 -0.0408
  303MOL0     H39970   3.950   2.881   6.319 -0.2444 -0.9802  0.2579
  303MOL0     H39971   4.121   2.873   6.382  0.9888 -1.0747  0.9993
  303MOL0     H39972   4.048   2.739   6.570 -1.8559 -1.6494  0.3982
  303MOL0     H39973   3.893   2.718   6.500  0.2122  0.2114  4.6199
  303MOL0     H39974   3.984   3.007   6.555 -2.1670  0.5357  0.4073
  303MOL0     H39975   3.825   2.939   6.540  1.3428  0.7804 -2.5570
  303MOL0     H39976   4.008   2.871   6.773  1.2377 -2.4978 -5.3253
  303MOL0     H39977   3.833   2.822   6.757 -1.8825  1.2144 -2.9351
  303MOL0     H39978   4.530   2.298   6.227 -0.5686  0.3345  0.4514
  303MOL0     H39979   4.670   2.258   6.027 -1.1584  4.4893  1.9529
  303MOL0     H39980   4.792   2.057   5.702 -2.1203  1.7513  1.5785
  303MOL0     H39981   4.986   2.029   5.541  0.3601  0.2442 -0.4993
  303MOL0     H39982   6.727   1.818   5.146  0.1681  0.4164  0.8808
  303MOL0     H39983   6.925   1.684   5.178 -0.0010  1.2824  0.6715
  303MOL0     H39984   7.180   1.548   5.555  0.5910 -0.5403  0.0365
  303MOL0     H39985   7.419   1.612   5.622  0.8788  3.7075 -1.2876
  303MOL0     H39986   7.663   1.572   5.646  1.5408 -0.1795  0.9884
  303MOL0     H39987   7.683   1.733   5.580  2.1956  0.4189  0.2531
  303MOL0     H39988   7.872   1.692   5.473 -2.3162  0.7381 -0.5894
  303MOL0     H39989   7.864   1.646   5.648 -1.5538  1.3879  0.3723
  303MOL0     H39990   7.823   1.437   5.421  0.9637  0.5784 -0.0519
  303MOL0     H39991   7.850   1.400   5.592  0.0949  1.3884  0.2133
  303MOL0     H39992   8.053   1.371   5.412 -0.9365  0.7459 -0.9213
  303MOL0     H39993   8.061   1.544   5.407 -0.7387 -1.2529 -1.1293
  303MOL0     H39994   8.232   1.450   5.773 -0.5014  1.5306  0.5500
  303MOL0     H39995   7.540   1.500   5.222 -0.1059 -2.4862  1.2971
  303MOL0     H39996   7.304   1.493   5.155 -4.3312  0.5619 -0.2925
  304MOL0     O39997   0.214   4.602   5.335  0.0687  0.5497  0.0423
  304MOL0     C39998   0.225   4.528   5.242  1.0037 -0.3290 -0.1924
  304MOL0     O39999   0.151   4.405   5.227 -0.3611  0.0743 -0.5072
  304MOL0     C40000   0.042   4.392   5.306  0.2568  0.6679  0.0287
  304MOL0     C40001  -0.086   4.362   5.245 -0.0142  0.0137 -0.1642
  304MOL0     C40002  -0.192   4.317   5.336 -0.7609  0.2973  0.7963
  304MOL0     C40003  -0.177   4.305   5.475 -0.9592  0.8878  0.5956
  304MOL0     O40004  -0.275   4.265   5.554  0.1551 -0.6354 -0.1795
  304MOL0     C40005  -0.254   4.144   5.636 -0.8829  0.4735  0.4846
  304MOL0     C40006  -0.382   4.070   5.619  0.0163 -0.2502  0.4737
  304MOL0     C40007  -0.402   3.961   5.725  0.3722  0.8795  0.0774
  304MOL0     C40008  -0.552   3.911   5.720 -0.0056 -0.1394 -0.3338
  304MOL0     C40009  -0.568   3.779   5.807  0.4077 -1.1406  0.2351
  304MOL0     C40010  -0.703   3.720   5.780  0.2890 -0.4007  0.8098
  304MOL0     C40011  -0.712   3.592   5.857 -0.3844 -0.1368  0.4596
  304MOL0     C40012  -0.869   3.542   5.864 -0.7278  1.2448  0.1757
  304MOL0     N40013  -0.913   3.485   5.732 -0.1161 -0.0889  0.0953
  304MOL0     C40014  -1.035   3.509   5.679  1.1385  0.0042 -0.1973
  304MOL0     C40015  -1.050   3.423   5.582  0.0299 -0.3447  0.7803
  304MOL0     C40016  -1.170   3.401   5.498 -0.2813  0.0605 -0.2593
  304MOL0     C40017  -1.137   3.437   5.358 -0.2198  0.2580 -1.0196
  304MOL0     C40018  -1.258   3.479   5.276  0.8709  0.5652 -0.0182
  304MOL0     C40019  -1.263   3.441   5.130 -0.6099 -0.5130  0.0279
  304MOL0     O40020  -1.164   3.493   5.058 -0.2535 -0.4274 -0.2720
  304MOL0     C40021  -1.149   3.442   4.931 -0.8464  0.6934  1.1032
  304MOL0     C40022  -1.059   3.530   4.863 -0.4118  0.6323 -0.2049
  304MOL0     C40023  -1.028   3.502   4.732  0.1437 -0.2616  0.4603
  304MOL0     C40024  -1.076   3.392   4.656  0.9180 -0.5086 -0.6240
  304MOL0     C40025  -1.029   3.352   4.518  0.1650 -0.9015  0.5397
  304MOL0     O40026  -0.977   3.473   4.457  0.3215 -0.1550  0.0959
  304MOL0     C40027  -0.941   3.450   4.327 -1.0000 -0.3929  0.1669
  304MOL0     C40028  -0.808   3.468   4.291 -0.1377 -0.3889  0.2501
  304MOL0     C40029  -0.768   3.479   4.159 -1.5301  0.6869 -1.0040
  304MOL0     C40030  -0.859   3.457   4.055 -0.2847 -0.2257  0.7891
  304MOL0     O40031  -0.815   3.451   3.925 -0.0143  0.0052  0.2453
  304MOL0     C40032  -0.914   3.399   3.830 -0.5023  0.8879 -0.7994
  304MOL0     C40033  -0.847   3.383   3.702  0.8357 -0.2346  0.4502
  304MOL0     C40034  -0.932   3.368   3.576  1.2580 -0.0724 -0.1001
  304MOL0     C40035  -0.978   3.226   3.552 -0.9261 -0.8700 -0.6705
  304MOL0     C40036  -1.055   3.208   3.425 -0.9290 -0.5466  0.3954
  304MOL0     C40037  -1.015   3.078   3.348  0.2701 -0.1409 -1.6025
  304MOL0     C40038  -1.112   3.051   3.233  0.1531 -0.3066  1.0476
  304MOL0     C40039  -1.035   3.033   3.099  0.3758  0.1488  0.6933
  304MOL0    Cl40040  -0.932   2.886   3.121  0.6331 -0.0923 -0.2679
  304MOL0     C40041  -0.991   3.432   4.089  0.9172  0.6094 -0.2003
  304MOL0     C40042  -1.029   3.431   4.224  0.1533  0.3893 -0.1568
  304MOL0     O40043  -1.045   3.235   4.478 -0.8862 -0.5131 -0.4067
  304MOL0     C40044  -1.166   3.311   4.725  0.9952 -0.2650 -0.6046
  304MOL0     C40045  -1.198   3.332   4.862  0.3954 -1.2032 -0.5013
  304MOL0     N40046  -0.933   3.349   5.580 -0.1371  0.3915  0.5202
  304MOL0     N40047  -0.854   3.384   5.671 -0.7613  0.0409  0.0161
  304MOL0     C40048  -0.054   4.345   5.533  0.8636  0.0024  0.0356
  304MOL0     C40049   0.048   4.387   5.446 -0.6301  0.9882 -0.7223
  304MOL0     C40050   0.319   4.555   5.125 -0.4455 -0.1232 -0.1224
  304MOL0     C40051   0.284   4.499   5.005  0.1129 -0.5025  0.6415
  304MOL0     C40052   0.362   4.523   4.889  0.8583 -0.4704 -0.2483
  304MOL0     C40053   0.474   4.601   4.909 -0.9117  0.4694 -0.0564
  304MOL0     O40054   0.531   4.650   4.797  0.3270 -0.3501 -0.2437
  304MOL0     C40055   0.456   4.755   4.735 -0.8296  0.1585  0.1563
  304MOL0     C40056   0.494   4.892   4.801 -0.6202  0.7799 -0.2747
  304MOL0     C40057   0.458   5.009   4.718  0.9730  0.2618 -0.8878
  304MOL0     C40058   0.303   5.050   4.733  0.1994  0.2129 -0.6123
  304MOL0     C40059   0.246   5.081   4.599 -0.7355 -0.9694  0.1627
  304MOL0     C40060   0.211   5.099   4.484 -0.7229  0.2360 -0.5858
  304MOL0     C40061   0.520   4.642   5.028 -0.3061 -0.4069 -0.3450
  304MOL0     C40062   0.440   4.623   5.140  0.4916 -0.1400  0.2112
  304MOL0     H40063  -0.098   4.362   5.137  0.7322 -0.4876 -0.2611
  304MOL0     H40064  -0.281   4.281   5.285  0.3543 -2.2600  0.5413
  304MOL0     H40065  -0.228   4.171   5.738 -0.5339 -0.2974  0.6089
  304MOL0     H40066  -0.169   4.083   5.604 -0.5876  0.8255  0.5924
  304MOL0     H40067  -0.392   4.023   5.521 -4.2976  2.1704 -0.4917
  304MOL0     H40068  -0.469   4.136   5.618 -1.0416 -1.5468  2.0105
  304MOL0     H40069  -0.394   3.993   5.830  0.7649  2.0440 -0.2966
  304MOL0     H40070  -0.336   3.877   5.702 -2.1408 -0.7779 -1.5585
  304MOL0     H40071  -0.610   3.986   5.774  3.0055  2.8543 -0.8969
  304MOL0     H40072  -0.589   3.896   5.619 -0.0753 -0.6211 -0.2365
  304MOL0     H40073  -0.555   3.796   5.914 -3.4538  1.4300  0.4848
  304MOL0     H40074  -0.488   3.711   5.776 -1.3602 -3.5565  0.7427
  304MOL0     H40075  -0.703   3.696   5.673 -1.5601 -0.9189  0.8911
  304MOL0     H40076  -0.782   3.794   5.800  0.7366 -0.4253  2.8733
  304MOL0     H40077  -0.650   3.515   5.809 -0.4401  1.4540 -2.3600
  304MOL0     H40078  -0.677   3.608   5.959  0.6108  4.2417 -0.3876
  304MOL0     H40079  -0.947   3.616   5.883  0.2158  1.7930  2.1495
  304MOL0     H40080  -0.875   3.462   5.939 -0.3224 -1.2065 -2.2052
  304MOL0     H40081  -1.108   3.583   5.711 -0.4447 -1.3108 -0.6013
  304MOL0     H40082  -1.250   3.470   5.526  1.2923  2.4555 -1.3024
  304MOL0     H40083  -1.202   3.297   5.505 -0.2317 -0.0361 -1.2349
  304MOL0     H40084  -1.086   3.348   5.318 -0.4156 -1.0976  1.5204
  304MOL0     H40085  -1.067   3.521   5.360  0.3552 -0.1445 -2.7609
  304MOL0     H40086  -1.346   3.430   5.321  1.4607 -1.1161 -0.6455
  304MOL0     H40087  -1.278   3.586   5.283  2.3128  0.8480 -0.0683
  304MOL0     H40088  -1.351   3.489   5.086 -1.8537 -1.0122  1.8557
  304MOL0     H40089  -1.271   3.333   5.121 -0.2954 -0.4787 -0.7826
  304MOL0     H40090  -1.019   3.604   4.931  0.5362 -1.8030  2.1039
  304MOL0     H40091  -0.957   3.570   4.687 -3.2115  4.0766  1.0896
  304MOL0     H40092  -0.725   3.488   4.360  0.4248 -0.5246 -0.3771
  304MOL0     H40093  -0.667   3.484   4.122 -2.4245  1.3387 -3.5807
  304MOL0     H40094  -0.997   3.466   3.804 -0.5895  0.3572 -1.9522
  304MOL0     H40095  -0.941   3.295   3.853  2.3065  0.1251 -0.6551
  304MOL0     H40096  -0.762   3.314   3.699  3.0409  2.2827  1.7102
  304MOL0     H40097  -0.795   3.477   3.681  0.1377 -0.6302 -4.0477
  304MOL0     H40098  -0.872   3.388   3.487  0.5693 -4.5132 -1.8067
  304MOL0     H40099  -1.013   3.442   3.574 -0.9131 -2.2398  1.0336
  304MOL0     H40100  -0.892   3.159   3.549  0.5114  0.7038  1.8660
  304MOL0     H40101  -1.053   3.185   3.620  1.2053 -5.1320 -0.5690
  304MOL0     H40102  -1.033   3.287   3.353  0.0084 -0.6376  0.5660
  304MOL0     H40103  -1.163   3.195   3.436 -1.1335 -2.2619 -2.4326
  304MOL0     H40104  -1.001   2.994   3.416  0.6967  1.2072  0.0310
  304MOL0     H40105  -0.916   3.088   3.304 -0.7209 -0.3794 -4.0867
  304MOL0     H40106  -1.177   2.967   3.258  0.5427 -0.9510 -0.0385
  304MOL0     H40107  -1.174   3.141   3.218  0.0706 -0.3274  1.2656
  304MOL0     H40108  -0.968   3.116   3.074 -0.1016 -0.0299 -1.3067
  304MOL0     H40109  -1.118   3.022   3.029 -0.3403 -2.9449  1.8902
  304MOL0     H40110  -1.065   3.414   4.012 -0.2953 -0.1316  1.0837
  304MOL0     H40111  -1.131   3.403   4.249 -0.0519  0.9790 -0.2986
  304MOL0     H40112  -1.218   3.229   4.677  0.5166 -1.3795  1.7178
  304MOL0     H40113  -1.266   3.258   4.902  1.8277 -1.5069  1.5905
  304MOL0     H40114  -0.037   4.344   5.640  0.2721 -4.2443  0.2923
  304MOL0     H40115   0.146   4.402   5.492 -0.4983  0.4417 -0.8199
  304MOL0     H40116   0.200   4.434   4.984  0.5352 -0.7728 -0.2794
  304MOL0     H40117   0.334   4.484   4.792 -0.9700  2.5203 -1.0541
  304MOL0     H40118   0.347   4.758   4.738 -0.8202  3.7325  1.0249
  304MOL0     H40119   0.500   4.756   4.635  2.0144 -0.8526  1.2732
  304MOL0     H40120   0.444   4.898   4.897  0.5043  0.1748  0.3766
  304MOL0     H40121   0.601   4.891   4.825 -0.6012  0.2483 -0.3680
  304MOL0     H40122   0.488   4.993   4.614 -0.4365  2.6496 -1.7258
  304MOL0     H40123   0.509   5.098   4.755 -1.9807  1.1381  1.4618
  304MOL0     H40124   0.247   4.970   4.783  0.4429  1.1782  1.2883
  304MOL0     H40125   0.299   5.132   4.805  0.5589 -0.6122  0.3687
  304MOL0     H40126   0.173   5.126   4.387  2.9352 -1.1349 -2.5773
  304MOL0     H40127   0.606   4.707   5.040  1.0573 -2.3322  0.7698
  304MOL0     H40128   0.452   4.671   5.237 -2.1527  0.3722  0.3674
  305MOL0     O40129   2.236   7.794   3.118 -0.5881 -0.2051  0.3532
  305MOL0     C40130   2.275   7.895   3.053 -0.6510  0.3571 -0.1266
  305MOL0     O40131   2.343   7.888   2.941  0.7535 -0.5598 -0.9073
  305MOL0     C40132   2.377   7.764   2.884 -0.1024 -0.1333 -0.1053
  305MOL0     C40133   2.354   7.744   2.750  0.5726  0.0875  0.0716
  305MOL0     C40134   2.381   7.638   2.683 -0.3311 -1.1776 -0.1422
  305MOL0     C40135   2.424   7.520   2.751 -0.4834 -0.7371  1.2482
  305MOL0     O40136   2.455   7.413   2.675  0.1174 -0.3033 -0.3432
  305MOL0     C40137   2.358   7.338   2.603 -0.9685  0.0422  0.8614
  305MOL0     C40138   2.435   7.220   2.528 -1.2195 -0.7917 -1.2872
  305MOL0     C40139   2.517   7.122   2.619  0.7810  0.5637 -0.2460
  305MOL0     C40140   2.540   6.995   2.538  0.9578  0.1751 -0.4006
  305MOL0     C40141   2.622   6.895   2.619 -0.4311  1.2106 -1.0512
  305MOL0     C40142   2.619   6.749   2.558  0.1267 -0.9334  0.6104
  305MOL0     C40143   2.717   6.749   2.445  0.0102 -0.7728  0.0973
  305MOL0     C40144   2.745   6.609   2.386 -0.4199 -0.2205 -0.5802
  305MOL0     N40145   2.781   6.517   2.493  0.3957  0.1303  0.8969
  305MOL0     C40146   2.721   6.406   2.541  0.1923 -0.6100 -0.8571
  305MOL0     C40147   2.810   6.345   2.625  0.6524  0.4984 -0.4593
  305MOL0     C40148   2.777   6.219   2.711  0.1989 -0.4327  0.2662
  305MOL0     C40149   2.892   6.151   2.781 -0.0437 -0.1525 -0.1795
  305MOL0     C40150   2.849   6.012   2.836 -0.5138  0.6291 -0.6235
  305MOL0     C40151   2.738   6.002   2.949 -0.2955 -0.2262  0.2583
  305MOL0     O40152   2.608   6.015   2.888  0.2593 -0.0085  1.1028
  305MOL0     C40153   2.560   5.921   2.798 -0.0614 -0.0750  0.7669
  305MOL0     C40154   2.604   5.785   2.805  0.7822 -0.0780 -0.1467
  305MOL0     C40155   2.540   5.695   2.721  0.1237  0.4013  0.3900
  305MOL0     C40156   2.443   5.732   2.630  0.5512 -0.5618  0.3567
  305MOL0     C40157   2.391   5.619   2.557 -0.5439  1.0227  0.6272
  305MOL0     O40158   2.253   5.609   2.555 -0.1632 -0.5060  0.4992
  305MOL0     C40159   2.212   5.492   2.488 -0.0414 -0.0448  0.1847
  305MOL0     C40160   2.155   5.506   2.360 -0.1608 -1.0309  0.4042
  305MOL0     C40161   2.112   5.396   2.287 -0.7029  0.3616  0.5240
  305MOL0     C40162   2.137   5.272   2.334 -1.0048  0.0033  0.0785
  305MOL0     O40163   2.112   5.155   2.272  0.4754  0.2648 -0.4791
  305MOL0     C40164   1.997   5.160   2.181 -0.7365 -0.2140 -1.0428
  305MOL0     C40165   1.962   5.021   2.139 -0.5170 -0.1772 -0.3058
  305MOL0     C40166   2.082   4.944   2.080 -0.3658 -0.3834  0.4973
  305MOL0     C40167   2.034   4.811   2.029 -0.4181  0.3359  0.1174
  305MOL0     C40168   2.148   4.733   1.948 -0.1898 -1.1381 -0.3173
  305MOL0     C40169   2.284   4.694   2.023  0.6940 -0.4917  0.5541
  305MOL0     C40170   2.257   4.642   2.163  0.0091 -0.9432 -0.0565
  305MOL0     C40171   2.206   4.496   2.172 -0.8347 -0.1898  0.1792
  305MOL0    Cl40172   2.308   4.379   2.072 -0.0347  0.1120  0.0028
  305MOL0     C40173   2.194   5.252   2.467 -0.1118 -0.2630 -0.0591
  305MOL0     C40174   2.218   5.362   2.552  0.9755 -0.1571  0.1021
  305MOL0     O40175   2.474   5.543   2.495 -0.3571  0.7392 -0.4091
  305MOL0     C40176   2.401   5.869   2.630  0.1263  0.0676 -0.5124
  305MOL0     C40177   2.462   5.966   2.712  0.2766 -0.1276  0.0472
  305MOL0     N40178   2.920   6.429   2.628  0.4956  0.3337 -0.3769
  305MOL0     N40179   2.897   6.532   2.554 -0.2834 -0.1094 -0.1950
  305MOL0     C40180   2.460   7.535   2.888  0.8792 -0.8219 -0.0680
  305MOL0     C40181   2.434   7.662   2.953 -0.5806  0.0198 -0.5239
  305MOL0     C40182   2.251   8.024   3.109  0.1487  0.3466  0.0275
  305MOL0     C40183   2.284   8.132   3.033  0.3615 -0.5006  0.8406
  305MOL0     C40184   2.261   8.265   3.075 -1.2503 -0.0121 -0.2714
  305MOL0     C40185   2.203   8.284   3.198  0.2009  0.7391  0.2483
  305MOL0     O40186   2.169   8.410   3.228  0.4836 -0.4257 -0.3773
  305MOL0     C40187   2.070   8.423   3.323 -0.9290 -0.1673  0.4107
  305MOL0     C40188   2.018   8.572   3.332 -1.5561 -0.4104  0.0226
  305MOL0     C40189   2.139   8.661   3.375 -0.4302  0.3855 -0.4197
  305MOL0     C40190   2.173   8.767   3.262 -0.1602  0.3827 -1.0312
  305MOL0     C40191   2.259   8.700   3.158  0.1576 -0.7407  0.5485
  305MOL0     C40192   2.337   8.662   3.073 -0.7759 -0.2432  0.3702
  305MOL0     C40193   2.175   8.172   3.287  0.4464  0.3522  0.3757
  305MOL0     C40194   2.206   8.042   3.240 -0.4068  0.3644  0.2577
  305MOL0     H40195   2.315   7.823   2.686 -0.3415 -2.7820 -3.1613
  305MOL0     H40196   2.359   7.645   2.577  0.9142  0.9750 -0.3190
  305MOL0     H40197   2.307   7.390   2.522 -2.2761 -0.8155  1.0954
  305MOL0     H40198   2.284   7.287   2.666 -1.5386  0.9810  0.9677
  305MOL0     H40199   2.494   7.262   2.445 -1.5942  1.9256 -0.2865
  305MOL0     H40200   2.356   7.162   2.481  0.7238 -3.8912 -0.9848
  305MOL0     H40201   2.453   7.106   2.707 -3.1392  0.1392 -2.9121
  305MOL0     H40202   2.618   7.155   2.646  1.2396  0.6830 -2.0104
  305MOL0     H40203   2.440   6.956   2.519  0.1637  2.6173 -1.6973
  305MOL0     H40204   2.585   7.017   2.440 -0.8180  1.3423 -1.0129
  305MOL0     H40205   2.555   6.890   2.706 -1.8218 -4.1281 -2.0566
  305MOL0     H40206   2.723   6.929   2.642  0.0804 -0.3975 -0.7990
  305MOL0     H40207   2.519   6.717   2.526 -0.8429  1.9296  0.4807
  305MOL0     H40208   2.658   6.681   2.634 -1.9020 -2.3116  0.5109
  305MOL0     H40209   2.700   6.825   2.367  2.0597 -0.8893 -0.5114
  305MOL0     H40210   2.804   6.778   2.504  0.1402 -3.1986  1.2088
  305MOL0     H40211   2.821   6.616   2.307 -0.9226  1.2416 -0.9642
  305MOL0     H40212   2.655   6.568   2.340 -0.6381  0.8981 -1.1835
  305MOL0     H40213   2.621   6.369   2.519  0.4548 -1.4396 -0.7151
  305MOL0     H40214   2.734   6.148   2.640 -1.0956  0.4633  0.1139
  305MOL0     H40215   2.703   6.247   2.787 -0.2557  2.6699 -1.1883
  305MOL0     H40216   2.923   6.214   2.865 -0.7961  1.0185 -0.7527
  305MOL0     H40217   2.975   6.130   2.713 -0.7008 -0.2310 -0.9763
  305MOL0     H40218   2.814   5.953   2.752 -1.9121 -0.4290  0.6453
  305MOL0     H40219   2.933   5.959   2.883 -0.6052  0.8927 -0.1574
  305MOL0     H40220   2.753   6.092   3.009  3.1769 -1.5887  1.6726
  305MOL0     H40221   2.750   5.908   3.002  0.3670 -0.5563 -0.4630
  305MOL0     H40222   2.672   5.734   2.872 -1.8002 -3.2828  0.2868
  305MOL0     H40223   2.552   5.587   2.718  0.7629  0.4855 -1.5802
  305MOL0     H40224   2.144   5.607   2.322 -0.9449 -2.2217 -2.8854
  305MOL0     H40225   2.092   5.404   2.180  1.3478 -1.8496 -0.1288
  305MOL0     H40226   2.017   5.226   2.096  0.6961  0.0724 -0.5246
  305MOL0     H40227   1.917   5.194   2.248  0.9223 -1.9084  2.0429
  305MOL0     H40228   1.877   5.036   2.072 -1.8367  0.7312  1.5091
  305MOL0     H40229   1.923   4.974   2.229  1.8999  1.7211  1.9163
  305MOL0     H40230   2.158   4.942   2.159 -0.7936 -2.4047  0.9041
  305MOL0     H40231   2.123   5.013   2.006  0.1911 -2.7163 -1.4990
  305MOL0     H40232   1.985   4.758   2.111 -1.5235  3.3891  1.5843
  305MOL0     H40233   1.965   4.836   1.947 -1.6568  0.4892  1.1779
  305MOL0     H40234   2.184   4.792   1.863 -0.3322  0.4269  0.6820
  305MOL0     H40235   2.099   4.646   1.902 -0.2380 -2.8665  2.7182
  305MOL0     H40236   2.357   4.776   2.022  2.5046 -2.0428 -0.2938
  305MOL0     H40237   2.337   4.615   1.969 -0.3086 -1.5175  1.0134
  305MOL0     H40238   2.356   4.645   2.210  0.1063  1.6225 -0.2862
  305MOL0     H40239   2.193   4.710   2.219  1.4341 -0.0115  0.5114
  305MOL0     H40240   2.100   4.494   2.142 -0.5684  0.2171 -0.8184
  305MOL0     H40241   2.223   4.463   2.275 -1.4575  2.8818  1.3854
  305MOL0     H40242   2.231   5.155   2.499  0.8226  0.1611  0.1559
  305MOL0     H40243   2.246   5.351   2.656  0.9764  0.4637  0.1716
  305MOL0     H40244   2.332   5.900   2.552 -2.4821 -2.4092  0.6183
  305MOL0     H40245   2.439   6.072   2.704  0.3643  0.1415  2.6100
  305MOL0     H40246   2.508   7.451   2.935  0.3949 -0.3890  1.2498
  305MOL0     H40247   2.480   7.690   3.048  0.3181 -1.4330 -0.5024
  305MOL0     H40248   2.323   8.121   2.933 -2.2012  1.1776 -0.4428
  305MOL0     H40249   2.289   8.358   3.025 -1.4723  1.4394  2.1607
  305MOL0     H40250   2.109   8.385   3.418 -0.8379 -1.7871 -0.2486
  305MOL0     H40251   1.993   8.350   3.297  0.5442 -0.9983 -1.9304
  305MOL0     H40252   1.959   8.603   3.245 -0.6181 -0.9646 -0.8255
  305MOL0     H40253   1.953   8.575   3.420 -1.0623 -1.5370  0.4443
  305MOL0     H40254   2.235   8.612   3.393 -0.7130 -0.2650 -0.6400
  305MOL0     H40255   2.111   8.719   3.464  4.0628  0.2769  1.3084
  305MOL0     H40256   2.078   8.806   3.225 -0.0021  1.0835 -0.7152
  305MOL0     H40257   2.222   8.845   3.320  0.3486 -1.1870  0.7712
  305MOL0     H40258   2.396   8.614   2.998 -0.3528 -0.1888  0.6644
  305MOL0     H40259   2.135   8.161   3.387 -1.2002 -4.9981 -0.5611
  305MOL0     H40260   2.204   7.954   3.303  2.7490  0.0793  0.1280
  306MOL0     O40261   7.498   4.562   3.585 -0.6312 -0.5220  0.2559
  306MOL0     C40262   7.485   4.686   3.570  0.3768  0.5782 -1.1114
  306MOL0     O40263   7.562   4.768   3.503 -0.0911 -0.7150  0.2136
  306MOL0     C40264   7.674   4.725   3.435 -0.7502  0.9345 -0.0554
  306MOL0     C40265   7.798   4.806   3.431  0.6402 -0.4793 -0.0103
  306MOL0     C40266   7.903   4.762   3.349 -0.1559  0.6167  0.5298
  306MOL0     C40267   7.905   4.633   3.287  1.2109  0.5692 -0.2810
  306MOL0     O40268   8.020   4.603   3.215  0.3271  0.0975 -0.3760
  306MOL0     C40269   8.018   4.504   3.122  0.0649  0.3064  1.3135
  306MOL0     C40270   8.144   4.531   3.028  0.0478 -0.1835 -0.7261
  306MOL0     C40271   8.115   4.651   2.941  0.9187 -0.4472 -0.4454
  306MOL0     C40272   8.244   4.684   2.864 -0.4440 -0.2789 -0.4770
  306MOL0     C40273   8.226   4.796   2.764 -0.1758 -0.1041  0.4937
  306MOL0     C40274   8.359   4.843   2.694  0.2639 -0.9038  0.2411
  306MOL0     C40275   8.324   4.912   2.565  0.6754  0.3150  0.1200
  306MOL0     C40276   8.293   5.061   2.593  0.4059 -0.2975  0.5309
  306MOL0     N40277   8.253   5.135   2.474 -0.2543  0.1408  0.1752
  306MOL0     C40278   8.139   5.206   2.453  0.0564  0.1929 -0.6062
  306MOL0     C40279   8.165   5.284   2.342 -0.0761  0.3183  0.3318
  306MOL0     C40280   8.049   5.359   2.285  0.2103 -0.2344  0.0139
  306MOL0     C40281   8.095   5.444   2.165  0.2482 -0.5996 -0.3210
  306MOL0     C40282   8.129   5.360   2.047 -0.2108  0.7835  0.4679
  306MOL0     C40283   8.230   5.426   1.949 -0.6554 -0.4024  0.1626
  306MOL0     O40284   8.184   5.542   1.882 -0.6713  0.5736  0.2880
  306MOL0     C40285   8.078   5.507   1.798  0.4684  0.6588  0.7051
  306MOL0     C40286   7.950   5.544   1.837 -0.7018  0.3598  0.0232
  306MOL0     C40287   7.837   5.526   1.758 -0.7660 -0.1091  0.3491
  306MOL0     C40288   7.849   5.453   1.644  0.6627  0.2378 -0.8682
  306MOL0     C40289   7.720   5.422   1.569  0.0629  0.1665 -0.1309
  306MOL0     O40290   7.599   5.481   1.609 -0.2356 -0.5590  0.9471
  306MOL0     C40291   7.495   5.403   1.566 -0.0315 -1.1705  0.8219
  306MOL0     C40292   7.422   5.431   1.438  0.2276  0.4715  0.1063
  306MOL0     C40293   7.310   5.346   1.405  0.0281  0.0335 -1.2659
  306MOL0     C40294   7.281   5.237   1.481 -0.0458 -0.2860  0.4196
  306MOL0     O40295   7.176   5.160   1.435  0.0520 -0.3763 -1.0925
  306MOL0     C40296   7.048   5.167   1.504  0.1824 -0.1689  0.5950
  306MOL0     C40297   6.966   5.042   1.519 -0.9995 -0.1160 -1.2235
  306MOL0     C40298   6.968   4.951   1.396  0.2344  0.0402  0.5387
  306MOL0     C40299   6.885   4.825   1.418 -0.5239 -0.4130  0.9565
  306MOL0     C40300   6.766   4.822   1.314  0.1201 -0.7996 -0.9152
  306MOL0     C40301   6.681   4.693   1.322 -0.1847  0.4210 -0.7038
  306MOL0     C40302   6.567   4.710   1.232  0.0577  0.5850  0.2940
  306MOL0     C40303   6.490   4.574   1.216  0.2074  0.3222  0.1273
  306MOL0    Cl40304   6.317   4.623   1.204  0.0825 -0.2266 -0.4234
  306MOL0     C40305   7.341   5.216   1.605  0.4010 -0.4118 -0.4846
  306MOL0     C40306   7.450   5.301   1.642 -0.8579 -0.1547 -0.2782
  306MOL0     O40307   7.734   5.331   1.491 -0.1944 -0.7968  0.0506
  306MOL0     C40308   7.973   5.401   1.598 -0.2022  0.0602 -0.9086
  306MOL0     C40309   8.089   5.433   1.674 -0.1765 -0.3346  0.4762
  306MOL0     N40310   8.297   5.256   2.307 -0.1617 -0.0202 -0.0343
  306MOL0     N40311   8.348   5.161   2.381  0.1324 -0.9097  0.1452
  306MOL0     C40312   7.784   4.556   3.287 -1.0518  0.4785  0.3316
  306MOL0     C40313   7.683   4.598   3.362  0.5662 -0.3294 -1.4143
  306MOL0     C40314   7.365   4.741   3.638  0.8505 -0.7074 -0.4424
  306MOL0     C40315   7.373   4.874   3.692  0.2995  0.7881 -0.7405
  306MOL0     C40316   7.264   4.933   3.757 -1.2318 -0.9092 -0.3072
  306MOL0     C40317   7.140   4.861   3.757 -0.1195  0.1224 -0.6556
  306MOL0     O40318   7.017   4.920   3.793  0.5599  0.2128 -0.2840
  306MOL0     C40319   6.926   4.956   3.677 -0.5166  0.4749 -0.4325
  306MOL0     C40320   6.788   4.892   3.707 -0.8616  0.2849  0.2101
  306MOL0     C40321   6.712   4.973   3.816  0.8163 -0.1826 -0.6567
  306MOL0     C40322   6.699   4.886   3.941  0.0223  1.0049 -0.1976
  306MOL0     C40323   6.639   4.970   4.048  0.3060  0.0129  0.7920
  306MOL0     C40324   6.586   5.014   4.147 -0.0911  0.1449  0.1244
  306MOL0     C40325   7.146   4.726   3.726  0.9159 -0.9739 -0.2501
  306MOL0     C40326   7.253   4.670   3.664 -0.4918  0.8188 -0.3556
  306MOL0     H40327   7.804   4.893   3.495  4.4117 -1.4487  1.2754
  306MOL0     H40328   7.990   4.826   3.337 -1.1654  1.8071 -0.8412
  306MOL0     H40329   7.924   4.491   3.067  1.8604  2.7015 -2.8441
  306MOL0     H40330   8.046   4.405   3.158 -0.5506 -0.0715  0.7851
  306MOL0     H40331   8.152   4.446   2.960 -1.2616 -1.8922  1.1750
  306MOL0     H40332   8.233   4.543   3.091  0.1889 -1.3305 -0.6911
  306MOL0     H40333   8.086   4.737   3.001 -2.6174 -1.0404 -1.0525
  306MOL0     H40334   8.025   4.624   2.884  0.2393  1.0090 -0.1037
  306MOL0     H40335   8.321   4.709   2.937  1.8349 -0.0668 -2.8008
  306MOL0     H40336   8.276   4.596   2.806  1.1554 -0.3614  0.4679
  306MOL0     H40337   8.186   4.882   2.820  0.5825 -1.0013  2.4929
  306MOL0     H40338   8.143   4.771   2.698  0.2155  0.2783 -0.1495
  306MOL0     H40339   8.419   4.752   2.686  0.4783 -0.7438  0.0175
  306MOL0     H40340   8.409   4.915   2.759 -3.3295  0.2677  2.0107
  306MOL0     H40341   8.416   4.898   2.507  0.0712 -2.8987 -0.2415
  306MOL0     H40342   8.243   4.851   2.524  0.2558  0.9909 -0.0612
  306MOL0     H40343   8.383   5.107   2.635  2.8391 -4.1592  0.1357
  306MOL0     H40344   8.208   5.055   2.662 -0.1555 -1.1878 -0.2088
  306MOL0     H40345   8.055   5.200   2.522  1.5642 -0.5398  1.2207
  306MOL0     H40346   7.998   5.419   2.362 -1.6613 -2.1495  0.3820
  306MOL0     H40347   7.975   5.281   2.263 -0.1730  0.0351  0.3362
  306MOL0     H40348   8.181   5.507   2.188 -0.3754  0.3157 -0.4886
  306MOL0     H40349   8.008   5.505   2.139  1.2489 -0.1407 -2.9234
  306MOL0     H40350   8.160   5.265   2.090 -0.9170  0.6282  0.6416
  306MOL0     H40351   8.035   5.334   1.997  0.1021  0.4778  0.0302
  306MOL0     H40352   8.269   5.352   1.879 -1.6244 -0.2704 -0.5477
  306MOL0     H40353   8.319   5.460   2.003 -0.2962  0.2949 -0.8216
  306MOL0     H40354   7.937   5.599   1.930 -5.1578  0.1749 -0.2754
  306MOL0     H40355   7.737   5.555   1.787 -1.0766 -0.3074 -0.5049
  306MOL0     H40356   7.442   5.510   1.366  1.5330 -1.2408 -1.4814
  306MOL0     H40357   7.256   5.357   1.311 -5.1399 -0.2412  1.3496
  306MOL0     H40358   6.983   5.234   1.448 -2.5715 -2.1218  1.2590
  306MOL0     H40359   7.055   5.208   1.605 -0.5830  0.2578  0.4820
  306MOL0     H40360   6.867   5.071   1.553 -0.6959  0.3744 -0.7444
  306MOL0     H40361   7.005   4.985   1.604 -3.8360 -0.5731 -0.1269
  306MOL0     H40362   7.073   4.927   1.379  1.1237  3.7868 -0.2899
  306MOL0     H40363   6.936   5.010   1.310  2.0308  0.9891  0.4798
  306MOL0     H40364   6.944   4.736   1.394 -0.2772  0.4387 -1.9596
  306MOL0     H40365   6.841   4.821   1.518 -1.3611 -1.0542  0.5781
  306MOL0     H40366   6.809   4.835   1.214  2.8005  0.4292  0.3025
  306MOL0     H40367   6.703   4.907   1.340  1.2248 -0.0597 -0.6196
  306MOL0     H40368   6.647   4.671   1.424  3.4929  0.0177  0.5752
  306MOL0     H40369   6.739   4.610   1.281  1.5445  1.7450 -1.0314
  306MOL0     H40370   6.497   4.788   1.263  0.5922  1.2084 -0.0652
  306MOL0     H40371   6.598   4.751   1.136  0.0965 -1.3353 -0.5631
  306MOL0     H40372   6.507   4.524   1.312  3.2820  0.2283 -0.3448
  306MOL0     H40373   6.518   4.503   1.138  1.2626 -1.4655  2.0175
  306MOL0     H40374   7.308   5.137   1.672  0.6745  0.0597  0.2262
  306MOL0     H40375   7.495   5.280   1.739 -0.6125 -1.7686 -0.7209
  306MOL0     H40376   7.981   5.349   1.504 -5.4346 -2.9425 -0.1303
  306MOL0     H40377   8.188   5.417   1.632 -0.5788  0.8512 -1.0117
  306MOL0     H40378   7.788   4.458   3.240  2.2923  0.2065  0.9409
  306MOL0     H40379   7.609   4.519   3.357  0.0997  0.0586 -0.8511
  306MOL0     H40380   7.461   4.933   3.666  0.1756  1.3098 -0.0150
  306MOL0     H40381   7.283   5.032   3.796  1.3292 -0.7207 -1.8331
  306MOL0     H40382   6.954   4.913   3.580  1.0439  4.1383 -1.7692
  306MOL0     H40383   6.923   5.065   3.676 -0.5386  0.4729 -0.6874
  306MOL0     H40384   6.719   4.901   3.622 -1.2898 -2.7774  0.1532
  306MOL0     H40385   6.804   4.786   3.728  1.3845  1.0011  2.5405
  306MOL0     H40386   6.615   4.986   3.768  1.7498 -0.1344 -2.6190
  306MOL0     H40387   6.771   5.062   3.838  2.5431 -1.0294 -1.6435
  306MOL0     H40388   6.640   4.796   3.926  1.7648 -0.6613  2.2166
  306MOL0     H40389   6.794   4.855   3.985  2.7419  3.6660 -3.6072
  306MOL0     H40390   6.555   5.072   4.232 -2.8090  0.2797 -0.8583
  306MOL0     H40391   7.062   4.659   3.737  0.8777 -0.6745  1.7366
  306MOL0     H40392   7.252   4.564   3.640  1.6971  1.0913 -1.8924
  307MOL0     O40393   9.928   1.473   4.809 -0.6184  0.1085  0.3444
  307MOL0     C40394   9.833   1.475   4.735  0.4644 -0.8387  1.1147
  307MOL0     O40395   9.707   1.412   4.756 -0.0615 -0.7532  0.8902
  307MOL0     C40396   9.667   1.355   4.876 -0.0904 -0.1208  0.2505
  307MOL0     C40397   9.572   1.257   4.890  0.2244  0.8586 -0.5926
  307MOL0     C40398   9.529   1.211   5.013 -0.0340  0.3082 -0.0140
  307MOL0     C40399   9.590   1.260   5.131 -0.7940 -0.9067  0.5677
  307MOL0     O40400   9.539   1.244   5.259 -0.6768 -0.7228  0.5335
  307MOL0     C40401   9.537   1.115   5.322 -0.0093 -0.2461 -0.0849
  307MOL0     C40402   9.661   1.045   5.359 -0.8906  0.0571  0.2404
  307MOL0     C40403   9.726   1.133   5.475 -0.0762  0.5793  0.7827
  307MOL0     C40404   9.877   1.100   5.498  0.1108  0.4595 -0.0514
  307MOL0     C40405   9.967   1.199   5.561  0.5560  0.0864  0.6259
  307MOL0     C40406  10.098   1.140   5.599  0.1395  0.1861 -0.3679
  307MOL0     C40407  10.170   1.210   5.716  0.1377 -0.3437  0.2219
  307MOL0     C40408  10.301   1.135   5.756 -0.0692 -0.3066 -0.4057
  307MOL0     N40409  10.328   1.171   5.898  0.5432  0.5316 -0.5662
  307MOL0     C40410  10.367   1.302   5.936  0.1563  0.2895 -0.9125
  307MOL0     C40411  10.352   1.291   6.071  0.4821 -0.6336  0.1587
  307MOL0     C40412  10.392   1.403   6.163  0.5791 -0.5822 -0.7885
  307MOL0     C40413  10.359   1.370   6.317 -0.0652  0.6063  0.2078
  307MOL0     C40414  10.417   1.478   6.405  0.4879 -0.6639  0.5099
  307MOL0     C40415  10.561   1.454   6.456 -0.5005 -0.2451  0.2536
  307MOL0     O40416  10.571   1.329   6.529 -0.6883  0.4507  0.0549
  307MOL0     C40417  10.681   1.315   6.614  1.2102 -0.3700  0.2282
  307MOL0     C40418  10.808   1.360   6.592 -0.0194 -0.3022  0.3236
  307MOL0     C40419  10.914   1.351   6.687 -0.6060  0.5347 -0.3139
  307MOL0     C40420  10.895   1.272   6.806 -1.1037 -0.1066  0.0444
  307MOL0     C40421  10.998   1.246   6.909  0.1003  0.0926  1.1062
  307MOL0     O40422  10.953   1.187   7.018  1.0255  0.6687 -0.2051
  307MOL0     C40423  11.040   1.186   7.127 -0.9299  0.0790 -0.6457
  307MOL0     C40424  11.062   1.064   7.192 -0.5753 -0.1311 -0.0728
  307MOL0     C40425  11.143   1.056   7.306  0.8808 -0.4064 -1.2990
  307MOL0     C40426  11.204   1.181   7.357  0.3327  0.4500 -0.4454
  307MOL0     O40427  11.276   1.197   7.479  0.5100  0.6414  0.5162
  307MOL0     C40428  11.327   1.072   7.530 -0.5449  0.5372 -0.5544
  307MOL0     C40429  11.439   1.099   7.626 -0.0067 -0.0245  0.0246
  307MOL0     C40430  11.496   0.967   7.669  0.1435  0.6479 -0.6591
  307MOL0     C40431  11.409   0.896   7.767  0.2351  0.8681  0.2050
  307MOL0     C40432  11.472   0.889   7.914 -0.9097 -0.6419 -0.1154
  307MOL0     C40433  11.385   0.806   8.001  0.7297  0.2413  0.2756
  307MOL0     C40434  11.425   0.833   8.153 -0.5778  1.1655  0.6934
  307MOL0     C40435  11.327   0.753   8.249  0.3656  0.6643 -0.5259
  307MOL0    Cl40436  11.400   0.740   8.417  0.3178 -0.5246  0.3938
  307MOL0     C40437  11.186   1.301   7.301 -0.1945 -0.8733  0.6721
  307MOL0     C40438  11.109   1.303   7.181 -0.4680 -0.2904 -1.0665
  307MOL0     O40439  11.107   1.290   6.888 -0.2185 -0.0003  0.1249
  307MOL0     C40440  10.772   1.207   6.811 -0.5218 -0.2598  0.5599
  307MOL0     C40441  10.666   1.236   6.718  0.2122  0.8928 -1.4375
  307MOL0     N40442  10.298   1.162   6.102  0.9914  0.5715  0.2933
  307MOL0     N40443  10.290   1.086   5.998 -0.2147  0.1663  0.3111
  307MOL0     C40444   9.687   1.358   5.123 -0.4998  0.4558  0.3875
  307MOL0     C40445   9.729   1.399   4.994 -0.2996 -0.6026 -0.2319
  307MOL0     C40446   9.848   1.538   4.605  0.6671  0.4751  0.1502
  307MOL0     C40447   9.966   1.618   4.577  0.2490 -0.3625  0.2584
  307MOL0     C40448   9.969   1.690   4.454 -0.4459  0.1881 -0.3509
  307MOL0     C40449   9.869   1.690   4.370  0.0401  0.4812  0.4678
  307MOL0     O40450   9.904   1.763   4.264 -0.4135  0.0354  0.8162
  307MOL0     C40451   9.814   1.782   4.154  0.3028  0.1492 -0.1223
  307MOL0     C40452   9.842   1.919   4.076  0.1131  0.2850 -1.0521
  307MOL0     C40453   9.980   1.932   3.999  0.2973  0.2056  0.2984
  307MOL0     C40454   9.967   1.879   3.857 -0.3471 -0.0830 -0.4332
  307MOL0     C40455  10.103   1.844   3.817 -0.3426 -0.0254 -0.0004
  307MOL0     C40456  10.207   1.793   3.780  0.1281  0.1697  0.0923
  307MOL0     C40457   9.756   1.605   4.386 -0.4425 -0.9795 -0.1918
  307MOL0     C40458   9.749   1.533   4.508  0.9971  0.3425 -0.0955
  307MOL0     H40459   9.520   1.219   4.803  1.0674  0.8648 -1.1136
  307MOL0     H40460   9.438   1.151   5.014 -0.0048  0.2561 -0.4941
  307MOL0     H40461   9.481   1.038   5.269  1.8304 -1.5238 -0.2565
  307MOL0     H40462   9.476   1.139   5.410  0.0232  2.0667 -0.6310
  307MOL0     H40463   9.729   1.019   5.277 -0.5424 -0.5430  0.7021
  307MOL0     H40464   9.636   0.946   5.400 -0.7636 -0.8040 -1.6418
  307MOL0     H40465   9.665   1.109   5.563  0.4390 -1.9786  0.5188
  307MOL0     H40466   9.727   1.240   5.452  0.5933  0.4531  0.1606
  307MOL0     H40467   9.881   1.006   5.553  1.2516 -0.4941 -1.6507
  307MOL0     H40468   9.934   1.075   5.408 -1.0634  0.9229 -0.9554
  307MOL0     H40469   9.925   1.234   5.656  1.6478  1.0602  0.7727
  307MOL0     H40470   9.972   1.280   5.489 -1.7393 -1.3638 -1.3119
  307MOL0     H40471  10.165   1.124   5.514 -0.5374 -1.7598 -0.5960
  307MOL0     H40472  10.079   1.037   5.632  2.1656  0.1668  0.9069
  307MOL0     H40473  10.193   1.315   5.698 -1.4259  0.2943  1.6623
  307MOL0     H40474  10.101   1.209   5.801  0.3047 -0.3326  0.3565
  307MOL0     H40475  10.378   1.176   5.690 -1.5395 -2.4378 -3.7337
  307MOL0     H40476  10.304   1.026   5.742 -0.2532 -0.2509 -0.9131
  307MOL0     H40477  10.390   1.390   5.877 -3.2418  2.6022  0.8531
  307MOL0     H40478  10.342   1.491   6.121 -2.3400 -1.7436 -0.0071
  307MOL0     H40479  10.501   1.411   6.158  1.0518 -3.9746  1.2133
  307MOL0     H40480  10.404   1.276   6.350  1.5146  1.6362  1.1275
  307MOL0     H40481  10.250   1.369   6.327 -0.0060 -0.5972  0.9597
  307MOL0     H40482  10.416   1.573   6.351  2.8713 -1.4640 -1.1264
  307MOL0     H40483  10.356   1.492   6.495  0.8839  0.4012  0.6255
  307MOL0     H40484  10.603   1.535   6.517 -2.4349 -0.6773  2.3407
  307MOL0     H40485  10.629   1.438   6.372  0.0181 -0.9175  0.7908
  307MOL0     H40486  10.817   1.393   6.489 -2.5931 -1.5660 -0.4059
  307MOL0     H40487  11.005   1.402   6.659 -0.0833  0.7088  1.5692
  307MOL0     H40488  11.021   0.978   7.141 -0.2774  0.4017 -1.2486
  307MOL0     H40489  11.152   0.960   7.356 -1.1392  1.5061  3.3077
  307MOL0     H40490  11.367   0.994   7.464 -2.6460 -2.1387  1.0727
  307MOL0     H40491  11.241   1.019   7.574 -2.1029  1.3800 -2.4388
  307MOL0     H40492  11.408   1.156   7.714  4.1382 -0.1784  1.8258
  307MOL0     H40493  11.521   1.161   7.590  0.1492  2.5981  4.2007
  307MOL0     H40494  11.587   0.983   7.727 -1.2000  1.7193  1.2552
  307MOL0     H40495  11.524   0.911   7.579  0.5838  1.2125 -0.8816
  307MOL0     H40496  11.305   0.930   7.781 -0.1059 -0.4563  1.0999
  307MOL0     H40497  11.395   0.791   7.739 -1.2091  0.8858  0.7502
  307MOL0     H40498  11.479   0.989   7.958 -0.2198  0.5098 -2.6232
  307MOL0     H40499  11.573   0.848   7.910 -0.5440  0.2757 -1.3445
  307MOL0     H40500  11.397   0.702   7.970  0.8602 -0.0752  1.3480
  307MOL0     H40501  11.278   0.829   7.994  0.6880  0.9428  2.3067
  307MOL0     H40502  11.528   0.797   8.160  0.0411  2.2352 -1.7159
  307MOL0     H40503  11.421   0.941   8.170  0.5960  0.8406  3.5831
  307MOL0     H40504  11.308   0.649   8.220 -0.3113  0.9250 -1.0536
  307MOL0     H40505  11.231   0.804   8.256 -0.9166 -1.5102 -1.1451
  307MOL0     H40506  11.225   1.394   7.341  0.4229 -0.9560  0.2753
  307MOL0     H40507  11.072   1.397   7.142 -1.0920 -1.5214 -3.6409
  307MOL0     H40508  10.759   1.142   6.897 -2.9312 -3.3194 -1.8909
  307MOL0     H40509  10.567   1.192   6.727 -0.3503  2.0129 -2.0180
  307MOL0     H40510   9.725   1.397   5.216 -0.5442  0.9008  0.2243
  307MOL0     H40511   9.810   1.471   5.004 -1.2145  0.1840  2.8597
  307MOL0     H40512  10.039   1.644   4.653 -0.8500  0.6962  0.9916
  307MOL0     H40513  10.063   1.738   4.431 -1.8717  3.4711  0.1538
  307MOL0     H40514   9.708   1.792   4.176  0.1555  2.1872 -1.4767
  307MOL0     H40515   9.823   1.694   4.090  1.7399  3.0809 -4.4211
  307MOL0     H40516   9.756   1.950   4.015 -0.6597  2.8873  1.1886
  307MOL0     H40517   9.835   1.995   4.153 -2.1020  0.1789 -1.0705
  307MOL0     H40518  10.058   1.875   4.051  1.5636 -0.6264 -2.3459
  307MOL0     H40519  10.010   2.037   3.993  0.7316  0.1939  1.8688
  307MOL0     H40520   9.897   1.795   3.855  0.1058 -0.4884  0.1169
  307MOL0     H40521   9.934   1.958   3.789 -0.6737 -0.5506 -0.8199
  307MOL0     H40522  10.293   1.760   3.725 -0.2707  2.2291 -1.9148
  307MOL0     H40523   9.671   1.590   4.320 -1.5254 -1.8112  1.3128
  307MOL0     H40524   9.655   1.479   4.517  1.6791 -1.6188 -3.1224
  308MOL0     O40525   5.257   2.219   7.332  0.4045 -0.7218  0.3497
  308MOL0     C40526   5.252   2.298   7.233 -0.3193 -0.2131  1.1377
  308MOL0     O40527   5.223   2.274   7.100 -0.2200  0.1723 -0.9647
  308MOL0     C40528   5.204   2.147   7.063  0.7978  0.1594  0.0172
  308MOL0     C40529   5.114   2.059   7.125  0.5125  0.2467  0.6212
  308MOL0     C40530   5.099   1.931   7.068  0.8394  0.1463 -0.0363
  308MOL0     C40531   5.172   1.879   6.967 -0.5952  0.4317 -1.2210
  308MOL0     O40532   5.158   1.752   6.934  0.0261 -0.1124  0.2849
  308MOL0     C40533   5.282   1.681   6.961 -0.1274  0.4246 -0.5520
  308MOL0     C40534   5.335   1.625   6.831 -0.3211  0.2614  1.0063
  308MOL0     C40535   5.489   1.593   6.855 -0.8351 -0.6791  0.4667
  308MOL0     C40536   5.523   1.475   6.769  0.3769 -0.5440 -0.6872
  308MOL0     C40537   5.500   1.507   6.613 -0.0765 -0.2561  1.0628
  308MOL0     C40538   5.544   1.392   6.517  0.6405 -0.9111 -0.4403
  308MOL0     C40539   5.703   1.381   6.508  0.5997  0.6799  0.1591
  308MOL0     C40540   5.767   1.436   6.381  0.0311  0.2617  0.6606
  308MOL0     N40541   5.913   1.403   6.385 -0.5188 -0.0395  1.0944
  308MOL0     C40542   6.013   1.495   6.424  0.2641  0.8997  0.1614
  308MOL0     C40543   6.134   1.437   6.385 -0.7475  0.8059  1.0580
  308MOL0     C40544   6.278   1.463   6.396  0.0039 -0.4247 -0.4720
  308MOL0     C40545   6.342   1.382   6.511  0.1198 -0.3154 -0.0896
  308MOL0     C40546   6.318   1.455   6.644  0.5133 -0.4113 -0.1793
  308MOL0     C40547   6.379   1.379   6.766  0.3909 -0.6841  0.0003
  308MOL0     O40548   6.513   1.326   6.739 -0.8066 -0.1122 -0.3040
  308MOL0     C40549   6.593   1.285   6.847  0.0815 -0.1990 -0.6347
  308MOL0     C40550   6.700   1.207   6.815  1.2754  0.6300 -0.4063
  308MOL0     C40551   6.766   1.133   6.922 -0.0202 -0.4189 -1.0756
  308MOL0     C40552   6.726   1.149   7.057  0.0763  0.2183 -0.0077
  308MOL0     C40553   6.778   1.063   7.160 -0.5195 -0.2991  0.2426
  308MOL0     O40554   6.733   1.076   7.294  1.0318  0.3086 -0.1584
  308MOL0     C40555   6.819   1.042   7.403  0.0114  0.5124  0.4983
  308MOL0     C40556   6.834   1.128   7.505 -0.9644  0.1963 -0.3519
  308MOL0     C40557   6.899   1.104   7.627 -0.8341 -0.1848 -0.2912
  308MOL0     C40558   6.943   0.977   7.649  0.1069 -0.4197  0.0079
  308MOL0     O40559   7.017   0.939   7.759 -0.6395 -0.0459 -0.4068
  308MOL0     C40560   6.975   0.995   7.883 -0.2936 -0.3349 -0.4107
  308MOL0     C40561   7.069   0.940   7.992 -0.1347 -0.8428  0.1136
  308MOL0     C40562   7.052   0.794   8.030  0.2004 -0.4692 -0.0109
  308MOL0     C40563   7.167   0.757   8.119  0.2095  0.1885 -0.1970
  308MOL0     C40564   7.170   0.820   8.263 -0.4279  0.6107 -0.2969
  308MOL0     C40565   7.280   0.761   8.352  0.3327  0.1731  0.9718
  308MOL0     C40566   7.264   0.617   8.394  1.2697  0.4459  0.1771
  308MOL0     C40567   7.342   0.580   8.519 -0.1194  0.8250 -0.9759
  308MOL0    Cl40568   7.520   0.629   8.500  0.1007  0.2560 -0.3633
  308MOL0     C40569   6.933   0.886   7.541 -0.3966  0.1069 -0.0026
  308MOL0     C40570   6.867   0.918   7.419  0.6397  0.3982 -0.9362
  308MOL0     O40571   6.870   0.985   7.125  0.2419  0.5189 -0.1190
  308MOL0     C40572   6.630   1.237   7.092  0.2374 -0.0224 -0.0576
  308MOL0     C40573   6.566   1.304   6.985  0.1061 -0.8191 -0.0289
  308MOL0     N40574   6.098   1.319   6.324  0.1878  0.3037 -0.3233
  308MOL0     N40575   5.975   1.301   6.319 -0.0128  0.1554  0.3001
  308MOL0     C40576   5.255   1.963   6.906 -1.1455 -0.5673  0.2957
  308MOL0     C40577   5.268   2.094   6.951  0.7910  1.0822  0.4678
  308MOL0     C40578   5.269   2.438   7.274  1.3409 -0.3755 -0.5884
  308MOL0     C40579   5.230   2.484   7.400 -0.2119 -0.4384  0.3085
  308MOL0     C40580   5.224   2.619   7.433  0.3613 -0.4663  0.1566
  308MOL0     C40581   5.245   2.718   7.340 -1.4785 -0.4332  0.4386
  308MOL0     O40582   5.229   2.846   7.374  0.0515  0.2628  0.5881
  308MOL0     C40583   5.143   2.929   7.296 -0.0287  0.9336 -0.1886
  308MOL0     C40584   5.026   2.984   7.381  0.9358 -0.3258 -0.3146
  308MOL0     C40585   4.917   2.872   7.416  0.3094  1.3095  0.5450
  308MOL0     C40586   4.792   2.953   7.461  0.3512 -0.4557  0.1263
  308MOL0     C40587   4.689   2.872   7.528 -0.1732  0.2740 -0.5096
  308MOL0     C40588   4.599   2.801   7.576  0.2061 -0.9736 -0.4609
  308MOL0     C40589   5.303   2.678   7.218  0.8720  0.3681  0.2457
  308MOL0     C40590   5.308   2.539   7.183  0.2353  0.3054 -0.4503
  308MOL0     H40591   5.061   2.086   7.216 -0.7106 -0.5310  0.1559
  308MOL0     H40592   5.026   1.866   7.115  0.2607  1.2979  0.7096
  308MOL0     H40593   5.269   1.601   7.034  0.9435  0.6376 -0.1127
  308MOL0     H40594   5.361   1.746   7.001  1.4637 -2.9399  2.2907
  308MOL0     H40595   5.316   1.693   6.747 -0.2317 -1.9399 -0.9087
  308MOL0     H40596   5.277   1.535   6.808 -0.8038  0.5527  1.0846
  308MOL0     H40597   5.506   1.553   6.955  2.8221 -1.2213 -0.2175
  308MOL0     H40598   5.546   1.683   6.831 -0.7310 -0.8625  0.0038
  308MOL0     H40599   5.627   1.444   6.778  0.2458 -1.1739 -1.2333
  308MOL0     H40600   5.465   1.386   6.794  1.4153 -1.4604 -1.4561
  308MOL0     H40601   5.556   1.595   6.582 -2.3516  0.2697 -1.9952
  308MOL0     H40602   5.392   1.508   6.597 -0.4056 -1.8193  2.8130
  308MOL0     H40603   5.502   1.401   6.417 -2.6776 -0.5625  0.8530
  308MOL0     H40604   5.497   1.296   6.538 -0.9848 -0.2430 -0.8945
  308MOL0     H40605   5.758   1.418   6.595  0.3207 -0.4343  0.8285
  308MOL0     H40606   5.719   1.273   6.503 -0.4568  0.5638 -1.8074
  308MOL0     H40607   5.755   1.544   6.367  1.7314  0.2593 -1.2371
  308MOL0     H40608   5.726   1.387   6.292 -3.3948  0.1913  2.1270
  308MOL0     H40609   5.990   1.585   6.480  3.8794  1.9714  0.1809
  308MOL0     H40610   6.286   1.570   6.414  1.9726 -0.4678 -0.8564
  308MOL0     H40611   6.337   1.445   6.305  2.5848 -0.3183  1.0718
  308MOL0     H40612   6.448   1.364   6.492  0.0414  1.0689 -2.2379
  308MOL0     H40613   6.281   1.291   6.519 -0.3903 -0.4499 -3.7701
  308MOL0     H40614   6.372   1.549   6.631 -1.8417  1.0721  0.1360
  308MOL0     H40615   6.212   1.482   6.651  0.3454 -1.1401  0.2333
  308MOL0     H40616   6.309   1.295   6.775  1.4725 -1.7307 -0.9704
  308MOL0     H40617   6.374   1.456   6.843  3.1570  0.5090 -0.8696
  308MOL0     H40618   6.725   1.191   6.711 -2.5305 -1.0933 -1.2254
  308MOL0     H40619   6.847   1.062   6.906  0.5017 -0.2089  0.4311
  308MOL0     H40620   6.797   1.227   7.482  3.3542  1.9532 -0.7295
  308MOL0     H40621   6.901   1.182   7.703 -2.4837 -0.2524 -0.1360
  308MOL0     H40622   6.873   0.966   7.911  0.2797  0.3259  2.7183
  308MOL0     H40623   6.975   1.104   7.884 -0.3609 -0.3387  0.2625
  308MOL0     H40624   7.072   1.011   8.075  0.0443  0.2823 -0.8304
  308MOL0     H40625   7.168   0.952   7.947  0.1355  1.4959  1.1591
  308MOL0     H40626   7.062   0.730   7.942 -2.8994 -0.2536 -0.6486
  308MOL0     H40627   6.952   0.767   8.067  0.1659  0.1435  0.3460
  308MOL0     H40628   7.165   0.650   8.139 -0.9141  0.3718  0.7853
  308MOL0     H40629   7.260   0.770   8.063  0.2149 -0.4088 -0.3347
  308MOL0     H40630   7.070   0.800   8.304 -0.6388  1.3264 -0.4456
  308MOL0     H40631   7.186   0.925   8.239 -0.0508  0.7592  0.5722
  308MOL0     H40632   7.277   0.815   8.448 -0.4031  1.3650  0.3007
  308MOL0     H40633   7.382   0.764   8.311 -0.3663  1.7626 -0.8246
  308MOL0     H40634   7.158   0.594   8.408  1.1031 -0.7261 -2.4634
  308MOL0     H40635   7.295   0.553   8.312  1.1822 -0.3190  0.7317
  308MOL0     H40636   7.321   0.473   8.524 -2.5826  1.2862  0.7420
  308MOL0     H40637   7.295   0.634   8.602 -0.6654  0.9985 -1.3888
  308MOL0     H40638   6.979   0.788   7.551  0.1919  0.3956  0.1670
  308MOL0     H40639   6.851   0.855   7.332  1.4232  2.3906 -2.6186
  308MOL0     H40640   6.595   1.258   7.192 -2.5366 -0.4219 -0.8552
  308MOL0     H40641   6.481   1.369   7.003  0.4628  0.0581 -1.4008
  308MOL0     H40642   5.306   1.946   6.811 -0.3703  2.6252  0.0188
  308MOL0     H40643   5.328   2.159   6.887  0.2693  0.0963 -1.0700
  308MOL0     H40644   5.203   2.424   7.487 -0.0174 -0.8426  0.0898
  308MOL0     H40645   5.186   2.653   7.528 -0.5778  1.1969 -0.7755
  308MOL0     H40646   5.099   2.882   7.208 -2.8787  2.5810  0.2104
  308MOL0     H40647   5.202   3.010   7.253  0.1723  0.9268  0.0682
  308MOL0     H40648   5.057   3.038   7.472 -1.2700 -0.1997  0.4166
  308MOL0     H40649   4.972   3.059   7.322 -0.0878 -0.1138  0.8470
  308MOL0     H40650   4.952   2.824   7.509 -1.7526  1.9714  1.7216
  308MOL0     H40651   4.895   2.799   7.338  1.0430  0.6484  0.9365
  308MOL0     H40652   4.825   3.033   7.528 -0.1861 -0.1079 -0.0201
  308MOL0     H40653   4.744   2.999   7.374 -0.8047 -2.1764 -0.1926
  308MOL0     H40654   4.511   2.759   7.621 -1.4318 -0.3092 -2.8352
  308MOL0     H40655   5.327   2.758   7.150 -0.5026  2.4211  2.0421
  308MOL0     H40656   5.338   2.506   7.084 -0.0410 -0.2988 -0.3392
  309MOL0     O40657   2.919   3.100   5.282  0.3475  0.5502  1.1374
  309MOL0     C40658   2.876   3.097   5.164 -0.0856  0.3199  0.1774
  309MOL0     O40659   2.768   3.032   5.112  0.2701  0.6091  0.5597
  309MOL0     C40660   2.714   2.928   5.185 -0.6531  1.3930 -0.2889
  309MOL0     C40661   2.756   2.795   5.142  0.2305 -0.4007 -0.6805
  309MOL0     C40662   2.697   2.685   5.208 -0.0084 -0.4221 -0.5185
  309MOL0     C40663   2.601   2.707   5.306  0.1763  0.6244  0.8507
  309MOL0     O40664   2.541   2.595   5.360  0.4795  0.0282  0.1667
  309MOL0     C40665   2.481   2.603   5.482  0.2706  0.1343  0.3998
  309MOL0     C40666   2.395   2.487   5.520 -0.1826 -0.2775 -0.6846
  309MOL0     C40667   2.296   2.445   5.407  0.1708 -0.1346 -0.1548
  309MOL0     C40668   2.185   2.355   5.479 -0.8272 -0.3370  0.4629
  309MOL0     C40669   2.083   2.310   5.379  0.3301 -0.4039 -0.5180
  309MOL0     C40670   1.954   2.271   5.442 -0.2998 -0.4660 -0.6635
  309MOL0     C40671   1.876   2.395   5.484 -0.4040  0.1992  0.0608
  309MOL0     C40672   1.725   2.367   5.520  0.9229 -0.1528  0.5973
  309MOL0     N40673   1.680   2.488   5.584  0.5909 -0.2632 -0.8892
  309MOL0     C40674   1.718   2.526   5.714  0.6551 -0.9144  0.1288
  309MOL0     C40675   1.626   2.603   5.768  0.4089  1.1954 -1.3166
  309MOL0     C40676   1.621   2.647   5.910 -0.2958  0.7860 -0.7473
  309MOL0     C40677   1.480   2.644   5.980 -0.1817  0.3529  0.2352
  309MOL0     C40678   1.488   2.643   6.134 -1.1273  0.1158  0.4624
  309MOL0     C40679   1.392   2.747   6.198 -0.3959 -0.1015 -0.4342
  309MOL0     O40680   1.259   2.707   6.210  0.0083  0.4192 -0.0182
  309MOL0     C40681   1.166   2.805   6.245  0.0243  0.3424  0.2380
  309MOL0     C40682   1.183   2.939   6.272  0.3798 -1.1846 -0.7650
  309MOL0     C40683   1.074   3.024   6.310 -0.5482  0.8489 -1.1124
  309MOL0     C40684   0.945   2.971   6.323 -0.6771 -1.2217  0.0127
  309MOL0     C40685   0.845   3.059   6.381  0.4369  0.3529 -0.3989
  309MOL0     O40686   0.869   3.195   6.368  0.2738 -0.2567 -0.7903
  309MOL0     C40687   0.770   3.285   6.401 -0.0507  0.1136 -0.0280
  309MOL0     C40688   0.643   3.281   6.342  0.0525  0.2244 -0.1933
  309MOL0     C40689   0.551   3.385   6.374  0.4944  1.0769  0.3742
  309MOL0     C40690   0.577   3.479   6.471 -0.9258 -0.7590 -0.6794
  309MOL0     O40691   0.493   3.571   6.537  0.5704 -0.6791 -0.0312
  309MOL0     C40692   0.359   3.562   6.488 -0.0038  0.7401  0.4523
  309MOL0     C40693   0.269   3.638   6.591  1.2173  0.7780 -1.0756
  309MOL0     C40694   0.283   3.580   6.734 -0.3517  0.3888 -0.7843
  309MOL0     C40695   0.266   3.436   6.757  0.2048  0.5897 -0.1318
  309MOL0     C40696   0.249   3.399   6.909 -0.2825 -1.1961  0.2194
  309MOL0     C40697   0.105   3.417   6.959  0.8707 -0.1928 -0.6639
  309MOL0     C40698   0.114   3.401   7.115 -0.1073 -0.1850  0.0053
  309MOL0     C40699  -0.026   3.389   7.177 -0.3892 -0.9218 -0.2268
  309MOL0    Cl40700  -0.119   3.540   7.189  0.0257  0.0357  0.8382
  309MOL0     C40701   0.712   3.481   6.524  0.1225 -0.3280 -0.3332
  309MOL0     C40702   0.806   3.384   6.487  0.7651 -0.4286  0.6753
  309MOL0     O40703   0.736   3.004   6.417 -0.8917  0.2079 -0.2265
  309MOL0     C40704   0.926   2.835   6.295  0.2355 -0.6132 -0.7418
  309MOL0     C40705   1.035   2.754   6.247  0.0363 -0.2453 -0.5009
  309MOL0     N40706   1.520   2.615   5.674  0.0792 -1.0748  0.7929
  309MOL0     N40707   1.554   2.541   5.573 -0.3927  0.5234  0.2167
  309MOL0     C40708   2.571   2.840   5.357 -0.3704 -0.1283 -0.1819
  309MOL0     C40709   2.629   2.950   5.288  0.8320 -0.6810 -0.6469
  309MOL0     C40710   2.943   3.190   5.076 -0.6178 -0.2141  0.1631
  309MOL0     C40711   2.906   3.203   4.946  0.9842 -0.1430  0.0296
  309MOL0     C40712   2.960   3.300   4.866 -1.0758  0.7746  0.5337
  309MOL0     C40713   3.068   3.377   4.912  0.3366 -0.4327 -0.2921
  309MOL0     O40714   3.134   3.474   4.835  0.8588  0.2365  1.0997
  309MOL0     C40715   3.115   3.478   4.695 -0.4068 -0.2986  0.7000
  309MOL0     C40716   3.195   3.588   4.619  0.6893 -0.1211  0.6208
  309MOL0     C40717   3.143   3.713   4.688  0.0751  0.3221 -1.0399
  309MOL0     C40718   3.171   3.842   4.605 -0.1700  0.5070 -0.8672
  309MOL0     C40719   3.321   3.860   4.587  0.4571  0.5843  1.1145
  309MOL0     C40720   3.434   3.893   4.579 -0.3954 -0.7048 -0.6029
  309MOL0     C40721   3.107   3.360   5.040 -0.8942 -0.0584 -0.2201
  309MOL0     C40722   3.052   3.264   5.117  0.0963  1.2073  0.5006
  309MOL0     H40723   2.827   2.776   5.062  1.5055 -3.3221  0.9807
  309MOL0     H40724   2.712   2.588   5.162 -0.0630 -0.0710 -1.2930
  309MOL0     H40725   2.400   2.675   5.470 -2.1819 -2.3648  0.8463
  309MOL0     H40726   2.547   2.634   5.563 -0.9595  1.4493  0.9334
  309MOL0     H40727   2.338   2.517   5.609 -0.7062 -1.6751 -0.5179
  309MOL0     H40728   2.457   2.404   5.554  3.0386  2.0164 -0.4793
  309MOL0     H40729   2.351   2.392   5.329 -2.5213 -1.2687 -1.4159
  309MOL0     H40730   2.255   2.531   5.354  2.4268  0.5163 -0.9749
  309MOL0     H40731   2.246   2.269   5.504  0.1052 -0.1320 -0.9666
  309MOL0     H40732   2.134   2.403   5.563  0.4892  2.8707 -0.4273
  309MOL0     H40733   2.124   2.220   5.334  3.9970  0.7235  0.2574
  309MOL0     H40734   2.070   2.391   5.306  0.9378  0.7288  0.5889
  309MOL0     H40735   1.945   2.214   5.535 -3.7539 -1.8630 -1.7132
  309MOL0     H40736   1.903   2.217   5.361  0.6044 -2.3453 -0.0314
  309MOL0     H40737   1.902   2.439   5.581 -3.2800  2.2270  0.0233
  309MOL0     H40738   1.897   2.486   5.427 -1.9424  0.9272  0.6049
  309MOL0     H40739   1.730   2.277   5.582  0.6496  0.8815  2.1748
  309MOL0     H40740   1.660   2.352   5.434  0.8590  2.9066  0.0210
  309MOL0     H40741   1.807   2.496   5.768 -0.7803 -0.8486  2.6965
  309MOL0     H40742   1.666   2.746   5.925  3.5784 -1.0727  1.4564
  309MOL0     H40743   1.677   2.571   5.966 -1.7325  0.9498  0.9773
  309MOL0     H40744   1.426   2.555   5.947 -0.8020  0.8960 -0.2342
  309MOL0     H40745   1.426   2.727   5.934 -1.8352 -1.7398 -1.8113
  309MOL0     H40746   1.451   2.544   6.159  0.3888  0.0919  3.0273
  309MOL0     H40747   1.590   2.666   6.167 -0.1063  1.3904 -3.0934
  309MOL0     H40748   1.407   2.842   6.145 -0.6152  1.6681  2.5110
  309MOL0     H40749   1.430   2.772   6.297 -1.1856  0.7163 -0.3273
  309MOL0     H40750   1.276   2.994   6.265 -0.1545  0.0778  1.0968
  309MOL0     H40751   1.115   3.119   6.343  1.9308 -0.9204  1.3497
  309MOL0     H40752   0.603   3.192   6.295 -0.4873  0.2357  0.2315
  309MOL0     H40753   0.450   3.374   6.334  0.0113  0.6010  1.6827
  309MOL0     H40754   0.333   3.456   6.494 -0.5390  0.7278 -1.5018
  309MOL0     H40755   0.345   3.605   6.389  3.3616  0.0370 -0.4707
  309MOL0     H40756   0.165   3.617   6.564  0.4835  1.2818  1.1400
  309MOL0     H40757   0.284   3.745   6.580  1.6512  0.6623 -1.6170
  309MOL0     H40758   0.216   3.637   6.799 -2.5711 -2.0593 -0.7513
  309MOL0     H40759   0.384   3.603   6.771 -0.5232 -1.7976  1.3130
  309MOL0     H40760   0.177   3.403   6.702 -1.5588  2.3324  1.5028
  309MOL0     H40761   0.350   3.377   6.720 -0.0046 -0.5504  1.1213
  309MOL0     H40762   0.309   3.467   6.969 -2.3685  0.2577  0.7479
  309MOL0     H40763   0.280   3.295   6.923 -3.9329 -2.0641  3.7057
  309MOL0     H40764   0.044   3.343   6.907 -1.8729 -0.4811  2.6648
  309MOL0     H40765   0.049   3.506   6.930 -0.3263 -0.2842  1.2706
  309MOL0     H40766   0.158   3.301   7.123  2.4501  0.7745 -1.1199
  309MOL0     H40767   0.181   3.474   7.161 -1.0007 -0.3745  1.6798
  309MOL0     H40768   0.001   3.353   7.277  2.6532 -2.1275 -1.3713
  309MOL0     H40769  -0.091   3.315   7.131  1.1939 -2.2262 -0.4731
  309MOL0     H40770   0.743   3.565   6.586 -0.8154  0.2233 -0.5771
  309MOL0     H40771   0.906   3.391   6.528  0.7549 -0.3810  0.6919
  309MOL0     H40772   0.828   2.789   6.302  0.2568 -0.4219  1.1984
  309MOL0     H40773   1.029   2.647   6.231  1.9446 -0.2818 -1.1764
  309MOL0     H40774   2.495   2.855   5.433  1.1044  2.2211  0.9482
  309MOL0     H40775   2.599   3.053   5.306  0.0871 -0.5707 -2.3852
  309MOL0     H40776   2.825   3.148   4.899  1.2668  0.8941 -1.8030
  309MOL0     H40777   2.935   3.291   4.761  1.8956 -0.7599 -0.1265
  309MOL0     H40778   3.008   3.491   4.674 -0.7681 -3.1537  0.2797
  309MOL0     H40779   3.145   3.388   4.641  0.5492 -0.2036  1.0492
  309MOL0     H40780   3.302   3.578   4.634  0.4858 -0.9172  1.5926
  309MOL0     H40781   3.162   3.585   4.515  3.4612  3.3282 -0.5925
  309MOL0     H40782   3.188   3.713   4.787 -0.6787  0.0738 -0.6876
  309MOL0     H40783   3.034   3.704   4.699  0.3626 -3.7973  0.2638
  309MOL0     H40784   3.115   3.872   4.517 -1.4379  1.8072  0.3153
  309MOL0     H40785   3.122   3.911   4.675 -3.0116 -1.5592 -0.7021
  309MOL0     H40786   3.535   3.922   4.595 -0.7560 -1.0654  3.2883
  309MOL0     H40787   3.195   3.417   5.068 -0.5575  1.2556 -3.4715
  309MOL0     H40788   3.100   3.255   5.214 -1.4510  2.1012  1.4130
  310MOL0     O40789   4.434  10.360   1.649  0.0144 -0.5184 -0.1793
  310MOL0     C40790   4.451  10.331   1.534  0.3023 -0.2191 -0.8939
  310MOL0     O40791   4.388  10.230   1.469  0.1391  0.0122  0.2426
  310MOL0     C40792   4.283  10.156   1.519 -0.4263  0.4063  0.2548
  310MOL0     C40793   4.285  10.098   1.648  0.1330 -0.5688 -0.0074
  310MOL0     C40794   4.188  10.009   1.690  0.6746  0.1753 -0.4209
  310MOL0     C40795   4.078   9.980   1.613 -1.1729 -0.2738  0.6318
  310MOL0     O40796   3.978   9.896   1.659 -0.9517 -0.1248  0.5468
  310MOL0     C40797   3.859   9.883   1.583  0.7292 -0.2935  0.6765
  310MOL0     C40798   3.788   9.764   1.655 -0.1234  0.8558  0.2942
  310MOL0     C40799   3.640   9.753   1.604 -0.4469 -0.2592  0.3332
  310MOL0     C40800   3.571   9.633   1.678 -0.8809  0.6700 -0.0383
  310MOL0     C40801   3.514   9.665   1.812  0.1957 -0.1208 -0.1414
  310MOL0     C40802   3.443   9.545   1.881  0.8812 -0.1105  0.4795
  310MOL0     C40803   3.419   9.574   2.028 -0.6072 -0.3111  0.1290
  310MOL0     C40804   3.297   9.488   2.072  0.2770  0.6336  0.1773
  310MOL0     N40805   3.277   9.474   2.212  0.5016  0.4577  0.6111
  310MOL0     C40806   3.302   9.579   2.299 -0.4507  0.1536 -0.9363
  310MOL0     C40807   3.277   9.522   2.425  1.1025  1.1121 -0.5446
  310MOL0     C40808   3.314   9.600   2.559  0.4718 -0.2512  1.0489
  310MOL0     C40809   3.206   9.589   2.669 -0.0343  0.1643  0.4498
  310MOL0     C40810   3.246   9.626   2.806 -0.2503  0.3823  0.1412
  310MOL0     C40811   3.162   9.568   2.923  0.3411  0.7230  0.5148
  310MOL0     O40812   3.248   9.546   3.036 -0.2409 -0.6775  0.4262
  310MOL0     C40813   3.231   9.434   3.116 -0.5636  0.1855  0.5429
  310MOL0     C40814   3.339   9.409   3.195  0.1697  1.0769 -0.6797
  310MOL0     C40815   3.332   9.284   3.268  0.0179 -0.7042 -0.1510
  310MOL0     C40816   3.223   9.200   3.251  0.1467  0.5259 -1.1358
  310MOL0     C40817   3.225   9.076   3.338 -0.6955  0.5155  0.3201
  310MOL0     O40818   3.315   9.079   3.433 -0.8965  0.3411  0.5945
  310MOL0     C40819   3.353   8.971   3.502  0.4877 -0.1086 -1.2600
  310MOL0     C40820   3.407   8.858   3.450  0.5107  0.0148  0.5430
  310MOL0     C40821   3.431   8.743   3.534  0.1528  0.7569 -0.5702
  310MOL0     C40822   3.441   8.769   3.672 -0.5769  0.1143 -0.1310
  310MOL0     O40823   3.492   8.685   3.767 -0.4308 -0.4922  0.0043
  310MOL0     C40824   3.504   8.540   3.749 -0.8904 -0.4877  0.7663
  310MOL0     C40825   3.581   8.477   3.868 -0.2216  0.1887  0.0987
  310MOL0     C40826   3.600   8.323   3.849 -0.5397 -0.4069 -0.5327
  310MOL0     C40827   3.691   8.262   3.948 -0.2548 -0.9451 -0.3156
  310MOL0     C40828   3.705   8.111   3.903 -0.1405 -0.3083  0.0159
  310MOL0     C40829   3.807   8.029   3.988  0.0066 -1.1522  0.9659
  310MOL0     C40830   3.950   8.055   3.935 -0.1371  0.4545 -0.1802
  310MOL0     C40831   4.038   7.944   3.988  0.0872 -0.7928  0.4221
  310MOL0    Cl40832   4.109   8.021   4.130 -0.6209 -0.0846 -0.5085
  310MOL0     C40833   3.402   8.890   3.722  0.5869 -0.3121  0.3551
  310MOL0     C40834   3.356   8.998   3.642 -1.4184 -0.0877  0.6055
  310MOL0     O40835   3.147   8.986   3.317 -0.2507  0.1562 -0.1848
  310MOL0     C40836   3.105   9.235   3.186  0.0765  1.3825 -0.0328
  310MOL0     C40837   3.112   9.355   3.117 -0.1333 -0.6560 -0.0901
  310MOL0     N40838   3.242   9.392   2.415  0.8769  0.5376 -0.4783
  310MOL0     N40839   3.238   9.366   2.283 -0.1788  0.0748  1.1378
  310MOL0     C40840   4.069  10.037   1.487  0.2115 -0.2701  0.1865
  310MOL0     C40841   4.170  10.118   1.440 -0.4349 -0.0737  0.3541
  310MOL0     C40842   4.555  10.416   1.469 -0.2882  0.5922  0.1174
  310MOL0     C40843   4.560  10.424   1.328 -0.9032 -0.8373 -0.1131
  310MOL0     C40844   4.642  10.508   1.250  0.2481  1.4077  0.0040
  310MOL0     C40845   4.735  10.590   1.313  0.0633 -0.5548 -0.3604
  310MOL0     O40846   4.814  10.677   1.236  0.4554  0.2954 -0.7744
  310MOL0     C40847   4.896  10.779   1.301  0.2301 -0.0894 -0.0096
  310MOL0     C40848   4.932  10.886   1.195  0.8476 -0.5085  0.4123
  310MOL0     C40849   4.801  10.965   1.146  0.6998 -0.5327  0.0908
  310MOL0     C40850   4.815  11.068   1.023  0.3299  0.1020  0.4395
  310MOL0     C40851   4.691  11.098   0.947  0.1504  0.1510  0.2262
  310MOL0     C40852   4.588  11.115   0.876 -0.7615  0.0432 -0.2162
  310MOL0     C40853   4.740  10.584   1.448  0.6881 -0.4120  0.5615
  310MOL0     C40854   4.653  10.501   1.530  0.3342  0.0468 -0.9268
  310MOL0     H40855   4.369  10.122   1.712  0.2831 -2.3831  0.5211
  310MOL0     H40856   4.184   9.970   1.791 -2.9264  0.4731 -0.3228
  310MOL0     H40857   3.884   9.859   1.479 -0.3089  0.2857  0.2777
  310MOL0     H40858   3.802   9.976   1.581  3.5707  1.5884 -1.0326
  310MOL0     H40859   3.786   9.799   1.759 -0.5958  2.9226 -0.3483
  310MOL0     H40860   3.841   9.669   1.655  1.6073  1.7027  2.6661
  310MOL0     H40861   3.639   9.737   1.496 -2.3116 -0.9604  0.4241
  310MOL0     H40862   3.585   9.845   1.625 -0.5572 -0.5723  1.5179
  310MOL0     H40863   3.481   9.602   1.626 -1.2261  0.8981  0.4194
  310MOL0     H40864   3.643   9.550   1.686  0.9656  2.3843  3.1369
  310MOL0     H40865   3.448   9.752   1.805  0.4113 -0.0441 -1.4286
  310MOL0     H40866   3.597   9.687   1.879  0.7407 -0.0264 -0.8463
  310MOL0     H40867   3.506   9.456   1.870 -0.8300 -1.2928 -0.1113
  310MOL0     H40868   3.352   9.520   1.826  2.1348 -1.6672 -1.0070
  310MOL0     H40869   3.503   9.534   2.084 -1.8466  2.0713  4.0686
  310MOL0     H40870   3.398   9.677   2.058  1.9013 -0.7525  4.1067
  310MOL0     H40871   3.307   9.386   2.034  0.0712  1.1331 -1.2530
  310MOL0     H40872   3.206   9.537   2.037  0.1024  2.9078  3.3646
  310MOL0     H40873   3.331   9.678   2.266 -1.6213  0.5473 -0.8100
  310MOL0     H40874   3.329   9.705   2.533  0.4724 -1.1435 -3.4469
  310MOL0     H40875   3.414   9.563   2.584  2.0040  1.5421 -1.8122
  310MOL0     H40876   3.168   9.487   2.676 -1.3693  0.7217  1.7732
  310MOL0     H40877   3.113   9.641   2.646  0.8109  1.7006  0.3582
  310MOL0     H40878   3.351   9.601   2.822  0.2926  2.0566 -0.5613
  310MOL0     H40879   3.240   9.735   2.802  1.4924  0.4754 -1.9784
  310MOL0     H40880   3.120   9.473   2.886  1.4706 -0.7659  2.8450
  310MOL0     H40881   3.084   9.637   2.956 -0.5659 -0.7899  1.7314
  310MOL0     H40882   3.420   9.479   3.213  0.4698  0.3012  1.2350
  310MOL0     H40883   3.430   9.264   3.310  2.0293  5.6214 -0.8038
  310MOL0     H40884   3.420   8.852   3.343 -4.1648 -0.7939 -0.2171
  310MOL0     H40885   3.466   8.645   3.502 -2.5277 -0.5006  0.0407
  310MOL0     H40886   3.553   8.501   3.660 -2.1530 -0.8566  0.2062
  310MOL0     H40887   3.405   8.495   3.763 -1.8110  1.7977  2.2734
  310MOL0     H40888   3.535   8.516   3.959 -0.1903  2.9046 -0.9449
  310MOL0     H40889   3.682   8.520   3.875  1.1823 -2.1243 -3.3051
  310MOL0     H40890   3.644   8.303   3.751 -1.6067  2.8716 -1.8203
  310MOL0     H40891   3.500   8.279   3.840 -2.6153  4.0583 -2.1033
  310MOL0     H40892   3.789   8.311   3.949 -1.0599  1.1720 -4.0758
  310MOL0     H40893   3.649   8.267   4.049  0.0439 -2.2935 -0.1110
  310MOL0     H40894   3.738   8.105   3.799  0.2786  3.9424 -0.2907
  310MOL0     H40895   3.610   8.064   3.931 -0.8603  0.9242 -0.3006
  310MOL0     H40896   3.781   7.924   3.975  1.0153 -1.0198 -4.0766
  310MOL0     H40897   3.805   8.041   4.097  0.6799 -2.2095  1.1103
  310MOL0     H40898   3.964   8.062   3.826  0.0329  0.3861 -0.1642
  310MOL0     H40899   3.992   8.150   3.968 -0.2426 -0.2960  2.2908
  310MOL0     H40900   4.125   7.933   3.923  0.6244  1.8719  0.5846
  310MOL0     H40901   3.982   7.851   4.000 -0.7761 -0.2454  0.7456
  310MOL0     H40902   3.412   8.908   3.828  1.2598 -1.3316  0.4785
  310MOL0     H40903   3.344   9.093   3.692 -1.8908 -0.6570  1.6160
  310MOL0     H40904   3.014   9.178   3.171  0.3488  0.3229  2.0689
  310MOL0     H40905   3.024   9.397   3.070 -1.3188 -1.2249  1.5468
  310MOL0     H40906   3.981  10.020   1.425 -0.9786  2.7303  0.8785
  310MOL0     H40907   4.154  10.155   1.339  1.8273  1.0661  0.3426
  310MOL0     H40908   4.487  10.365   1.273 -1.0247  0.0629 -0.9601
  310MOL0     H40909   4.631  10.519   1.142 -0.8882  3.1220  0.2507
  310MOL0     H40910   4.986  10.729   1.338 -0.5340 -3.6375 -2.4759
  310MOL0     H40911   4.830  10.827   1.375  1.6261  1.3004  0.3859
  310MOL0     H40912   4.995  10.959   1.246  1.9211 -0.5994 -0.7566
  310MOL0     H40913   4.998  10.843   1.119  0.8218 -1.9128  1.1322
  310MOL0     H40914   4.772  11.031   1.229 -0.6016  1.1596 -1.6309
  310MOL0     H40915   4.713  10.901   1.132  0.1048  0.5278 -1.1638
  310MOL0     H40916   4.844  11.164   1.067  5.8870  0.2166 -2.6301
  310MOL0     H40917   4.899  11.041   0.959 -0.0077 -0.3833  0.1962
  310MOL0     H40918   4.507  11.129   0.807 -1.5022 -0.7985  0.4501
  310MOL0     H40919   4.803  10.644   1.513 -1.2599  0.8622  1.3648
  310MOL0     H40920   4.653  10.514   1.638  2.8737  3.6731 -1.2009
  311MOL0     O40921  10.503   0.202  10.638 -0.4743 -0.2649 -0.7893
  311MOL0     C40922  10.425   0.179  10.733  0.5336  0.3960 -0.4919
  311MOL0     O40923  10.355   0.270  10.804  0.5020 -0.7139  0.2372
  311MOL0     C40924  10.405   0.403  10.813  0.3327 -0.2387  1.1884
  311MOL0     C40925  10.452   0.476  10.928  0.4665  0.6048 -0.4275
  311MOL0     C40926  10.501   0.603  10.915 -1.2047  0.0329  0.7375
  311MOL0     C40927  10.519   0.664  10.789  0.3709  0.9524  0.2176
  311MOL0     O40928  10.577   0.794  10.778  0.9825  0.0027 -0.3008
  311MOL0     C40929  10.629   0.855  10.897  0.2082 -0.3776  0.2214
  311MOL0     C40930  10.688   0.991  10.850  0.4439 -0.4441  0.2807
  311MOL0     C40931  10.588   1.110  10.853  0.7695 -0.4819  0.0407
  311MOL0     C40932  10.564   1.175  10.986  0.1156  0.3381  0.2773
  311MOL0     C40933  10.488   1.305  10.964  1.0140  0.3362  0.1077
  311MOL0     C40934  10.451   1.363  11.105 -0.0220  0.0467  0.9335
  311MOL0     C40935  10.393   1.501  11.083 -0.1220 -0.2638 -0.0989
  311MOL0     C40936  10.361   1.569  11.218  0.2801 -0.4268 -0.2184
  311MOL0     N40937  10.470   1.623  11.297 -0.2563 -0.4407  0.5669
  311MOL0     C40938  10.577   1.706  11.256 -0.7624 -0.7763  1.0969
  311MOL0     C40939  10.659   1.718  11.373  0.5564 -0.2544  0.5474
  311MOL0     C40940  10.775   1.810  11.389  0.4152  0.3590 -0.3121
  311MOL0     C40941  10.888   1.768  11.291 -0.0636  1.0382  0.3467
  311MOL0     C40942  11.016   1.847  11.287 -0.0927 -0.8363 -0.2273
  311MOL0     C40943  11.003   1.959  11.179 -0.4461  0.6246 -1.0391
  311MOL0     O40944  10.884   2.029  11.222  0.5331  0.5556  0.6617
  311MOL0     C40945  10.842   2.131  11.144  1.1235  0.4630  0.8982
  311MOL0     C40946  10.915   2.178  11.029  0.5955  0.2998 -0.4102
  311MOL0     C40947  10.864   2.289  10.959 -0.7911  0.0186  0.0665
  311MOL0     C40948  10.743   2.353  11.000 -0.0970  0.4102 -0.6233
  311MOL0     C40949  10.677   2.460  10.921  0.0462 -0.2537  0.0026
  311MOL0     O40950  10.751   2.501  10.811  0.1945 -0.5518  0.1731
  311MOL0     C40951  10.694   2.590  10.720 -0.2287 -0.7205  0.5407
  311MOL0     C40952  10.805   2.670  10.666  0.3557  0.3604  0.0462
  311MOL0     C40953  10.766   2.761  10.565 -0.5535  0.3159  0.0987
  311MOL0     C40954  10.631   2.783  10.539  0.3797 -0.1082 -0.9429
  311MOL0     O40955  10.577   2.875  10.456 -0.4820  0.6497 -0.3985
  311MOL0     C40956  10.658   2.891  10.340 -0.4576  0.0597 -0.2623
  311MOL0     C40957  10.582   2.945  10.223 -0.7628  0.2198 -0.1565
  311MOL0     C40958  10.466   2.858  10.183  0.0070  0.7082 -0.5092
  311MOL0     C40959  10.383   2.917  10.079  0.6428  0.3000 -0.6914
  311MOL0     C40960  10.267   2.822  10.036 -0.9855 -0.1094 -1.0511
  311MOL0     C40961  10.159   2.898   9.956  0.4537  0.8015  0.7234
  311MOL0     C40962  10.079   2.997  10.043  0.1964  0.1286  0.0122
  311MOL0     C40963  10.101   3.143  10.008 -0.6977  0.6201  0.7528
  311MOL0    Cl40964  10.040   3.245  10.136  0.5602  0.6013  0.3538
  311MOL0     C40965  10.532   2.709  10.601  1.3576  0.8230  0.0243
  311MOL0     C40966  10.560   2.609  10.686 -0.3300 -0.4036  0.3551
  311MOL0     O40967  10.569   2.496  10.957  0.5315  0.1936  0.1958
  311MOL0     C40968  10.672   2.306  11.113  0.2821 -0.2646  0.1392
  311MOL0     C40969  10.720   2.195  11.180 -0.0723 -0.2460  0.9814
  311MOL0     N40970  10.607   1.628  11.460  0.3225 -0.3497 -0.1631
  311MOL0     N40971  10.498   1.570  11.415  0.1845 -1.1589  0.0440
  311MOL0     C40972  10.469   0.597  10.677  0.0766 -0.9713 -0.5242
  311MOL0     C40973  10.407   0.470  10.683 -0.1758 -0.2497  0.1650
  311MOL0     C40974  10.404   0.042  10.761 -0.5821  0.9959  0.7507
  311MOL0     C40975  10.410  -0.057  10.655 -0.2603  0.4181  0.5372
  311MOL0     C40976  10.379  -0.193  10.678 -0.1036 -0.4532 -0.5515
  311MOL0     C40977  10.350  -0.230  10.817  0.9584 -0.8202  0.3832
  311MOL0     O40978  10.325  -0.356  10.868 -0.8438  0.4752 -0.5150
  311MOL0     C40979  10.383  -0.464  10.796  0.8180 -0.7119  0.1352
  311MOL0     C40980  10.371  -0.596  10.861 -0.0311  0.8523  0.1403
  311MOL0     C40981  10.407  -0.718  10.768 -0.1375 -0.3372 -0.3847
  311MOL0     C40982  10.370  -0.858  10.839 -0.4806  0.1857  0.4425
  311MOL0     C40983  10.459  -0.876  10.955 -0.3726  0.7012  1.0109
  311MOL0     C40984  10.540  -0.901  11.043 -0.4438 -0.0135  0.6274
  311MOL0     C40985  10.346  -0.129  10.913 -0.1635  0.0486 -0.4490
  311MOL0     C40986  10.380   0.002  10.891 -0.5006  0.5247  0.5634
  311MOL0     H40987  10.435   0.429  11.024 -1.7038 -0.1701 -1.1114
  311MOL0     H40988  10.533   0.658  11.002 -0.8224  1.6067 -0.3606
  311MOL0     H40989  10.703   0.785  10.937  1.1541 -0.1676 -1.0620
  311MOL0     H40990  10.545   0.858  10.966 -1.8750 -1.0685 -2.1520
  311MOL0     H40991  10.719   0.971  10.748 -0.7755 -2.1311  0.2072
  311MOL0     H40992  10.774   1.011  10.915 -0.0128 -1.7859  1.3560
  311MOL0     H40993  10.493   1.078  10.809  0.8379 -2.7832  1.3938
  311MOL0     H40994  10.611   1.194  10.787 -0.2523  0.6895  1.0997
  311MOL0     H40995  10.499   1.104  11.037 -3.2659  0.8682 -2.9105
  311MOL0     H40996  10.652   1.195  11.047  2.5860  0.6656 -3.0881
  311MOL0     H40997  10.391   1.285  10.918 -0.0039 -1.5884  2.8464
  311MOL0     H40998  10.553   1.372  10.907  3.9813 -0.1944  2.5989
  311MOL0     H40999  10.548   1.375  11.154  1.6783 -0.1560 -2.0778
  311MOL0     H41000  10.393   1.280  11.147  0.9139 -0.5097  1.1565
  311MOL0     H41001  10.462   1.564  11.028 -2.0962 -0.8034 -3.4634
  311MOL0     H41002  10.311   1.496  11.011  0.9909  0.6353 -1.4784
  311MOL0     H41003  10.302   1.503  11.282  1.0444 -1.0728 -0.1655
  311MOL0     H41004  10.297   1.651  11.185 -0.7638 -0.2002  2.1665
  311MOL0     H41005  10.592   1.763  11.165  0.1462 -0.6629  1.3028
  311MOL0     H41006  10.816   1.809  11.491  1.2542  0.5047 -0.6390
  311MOL0     H41007  10.735   1.910  11.367  2.5743  1.4064  0.3063
  311MOL0     H41008  10.837   1.766  11.194 -1.6825  1.7081  1.1554
  311MOL0     H41009  10.912   1.667  11.326 -0.8729  0.7290  0.0241
  311MOL0     H41010  11.039   1.891  11.385 -4.7902 -1.3643  1.3854
  311MOL0     H41011  11.095   1.786  11.242  1.9033  0.7363  0.9782
  311MOL0     H41012  10.983   1.912  11.082  3.2806 -3.4990 -0.1315
  311MOL0     H41013  11.090   2.025  11.178  1.1338 -1.0736  3.1565
  311MOL0     H41014  11.016   2.148  11.003  0.4073 -1.3746  0.6563
  311MOL0     H41015  10.905   2.339  10.871  1.0180  0.4437  1.0822
  311MOL0     H41016  10.904   2.661  10.711 -0.5127 -1.7754  1.6577
  311MOL0     H41017  10.838   2.828  10.518  0.3895  0.8236  2.1611
  311MOL0     H41018  10.713   2.799  10.318  0.5661 -0.3874  3.4349
  311MOL0     H41019  10.739   2.959  10.366 -0.6854  0.9759 -1.8576
  311MOL0     H41020  10.648   2.957  10.136 -2.5438 -1.5314 -1.8556
  311MOL0     H41021  10.543   3.043  10.251 -1.3588 -1.1091  4.5155
  311MOL0     H41022  10.413   2.832  10.275 -1.6531 -0.6403 -1.7775
  311MOL0     H41023  10.502   2.762  10.146 -2.6682 -0.1619 -1.0772
  311MOL0     H41024  10.346   3.014  10.114  0.3555  0.2488 -0.8512
  311MOL0     H41025  10.440   2.944   9.989 -1.9126  0.2854 -2.4132
  311MOL0     H41026  10.218   2.792  10.129  1.1845  5.0127  2.1441
  311MOL0     H41027  10.311   2.740   9.978  0.0221 -1.0975  1.0066
  311MOL0     H41028  10.094   2.821   9.915  2.6310 -0.6878 -0.1656
  311MOL0     H41029  10.196   2.949   9.866  0.4701 -1.4391 -0.6013
  311MOL0     H41030   9.972   2.989  10.021  0.3985 -0.9072 -0.6466
  311MOL0     H41031  10.106   2.977  10.147 -0.1768  3.5405  0.8835
  311MOL0     H41032  10.044   3.159   9.916 -0.6892 -1.6077  0.2956
  311MOL0     H41033  10.208   3.162   9.997 -0.4574  1.3488  3.5453
  311MOL0     H41034  10.428   2.724  10.573  1.5436  3.5796  0.5588
  311MOL0     H41035  10.477   2.549  10.721 -1.0429  1.3106  1.7346
  311MOL0     H41036  10.576   2.340  11.149 -2.1279 -4.2011 -1.8534
  311MOL0     H41037  10.649   2.147  11.246  0.0433  0.7406  1.8588
  311MOL0     H41038  10.458   0.652  10.584  2.3990  1.0241  0.2662
  311MOL0     H41039  10.348   0.428  10.603 -0.6300  0.7610 -0.0507
  311MOL0     H41040  10.426  -0.011  10.558 -4.6964  3.2696  0.8926
  311MOL0     H41041  10.364  -0.261  10.595  2.4194 -3.7469  1.4052
  311MOL0     H41042  10.488  -0.443  10.774  0.2784  3.9485  0.9501
  311MOL0     H41043  10.325  -0.455  10.704 -2.3147  3.5403  2.2037
  311MOL0     H41044  10.436  -0.597  10.948  2.8232 -0.1471 -1.8521
  311MOL0     H41045  10.268  -0.608  10.898 -0.2489  3.2548  0.4807
  311MOL0     H41046  10.512  -0.702  10.743 -0.3217  3.2445  0.6065
  311MOL0     H41047  10.354  -0.715  10.672  0.4017 -1.0376 -0.7108
  311MOL0     H41048  10.269  -0.846  10.881  0.6402  3.5095  2.5798
  311MOL0     H41049  10.370  -0.937  10.764 -1.8359  0.1610  0.4319
  311MOL0     H41050  10.619  -0.918  11.114 -2.1380 -1.8042  2.1942
  311MOL0     H41051  10.329  -0.156  11.017 -1.1285  2.2387  0.0084
  311MOL0     H41052  10.372   0.074  10.972  3.3749 -0.0386  1.6210
  312MOL0     O41053   1.732   1.796   1.201  0.3051  0.1809 -0.2858
  312MOL0     C41054   1.815   1.885   1.171  0.0914  0.5055 -0.6249
  312MOL0     O41055   1.798   1.990   1.081 -0.3366  0.4813  1.1559
  312MOL0     C41056   1.686   1.996   1.004  0.5172  0.1433 -0.2041
  312MOL0     C41057   1.565   2.017   1.061 -0.4727  0.2875  0.2019
  312MOL0     C41058   1.450   2.029   0.972 -0.3683  0.5108 -0.0103
  312MOL0     C41059   1.461   2.040   0.835 -0.1693 -0.9777  0.5670
  312MOL0     O41060   1.353   2.052   0.748  0.0830  0.3269 -0.1734
  312MOL0     C41061   1.221   2.041   0.801  0.7765 -0.7317  0.6106
  312MOL0     C41062   1.137   2.113   0.694  0.6511 -0.0293  0.1307
  312MOL0     C41063   1.022   2.189   0.760  0.7949  0.0745  0.2934
  312MOL0     C41064   0.932   2.246   0.647  0.0234 -0.1334 -0.2746
  312MOL0     C41065   0.810   2.315   0.707 -0.3091 -0.1359  0.8141
  312MOL0     C41066   0.684   2.314   0.610 -0.3230  1.1800 -0.1003
  312MOL0     C41067   0.577   2.387   0.687  0.5290 -0.1578 -0.8546
  312MOL0     C41068   0.534   2.304   0.806  0.5274 -0.2891  1.4905
  312MOL0     N41069   0.491   2.166   0.780 -0.6574  0.2458  0.3036
  312MOL0     C41070   0.383   2.155   0.702 -1.4582 -0.5193  0.4315
  312MOL0     C41071   0.341   2.027   0.727 -0.0750  0.3495  0.4863
  312MOL0     C41072   0.218   1.955   0.684  0.6932 -0.0194 -0.0334
  312MOL0     C41073   0.103   2.025   0.749  0.2592  0.0355  0.2788
  312MOL0     C41074  -0.016   1.934   0.708  0.9793 -0.6335  0.2031
  312MOL0     C41075  -0.009   1.785   0.742  0.6966  0.4462 -0.6324
  312MOL0     O41076  -0.142   1.735   0.767 -0.2512 -0.1662  0.0934
  312MOL0     C41077  -0.169   1.596   0.762 -0.4578  0.0256 -0.0451
  312MOL0     C41078  -0.065   1.510   0.731  0.0049 -0.5963 -0.1197
  312MOL0     C41079  -0.092   1.374   0.706  0.6425  0.9743  0.0927
  312MOL0     C41080  -0.227   1.325   0.717  0.1991 -0.2144  0.1726
  312MOL0     C41081  -0.255   1.189   0.680 -0.0435  0.5435 -0.9294
  312MOL0     O41082  -0.184   1.131   0.575  0.2116 -0.3832 -0.6790
  312MOL0     C41083  -0.205   0.999   0.561  0.1554  0.1640 -0.1899
  312MOL0     C41084  -0.097   0.912   0.596  0.6768 -0.4540  0.5407
  312MOL0     C41085  -0.108   0.773   0.585  0.2713  0.0666  0.0040
  312MOL0     C41086  -0.230   0.717   0.540  0.1136  0.4757 -0.2608
  312MOL0     O41087  -0.255   0.585   0.534  0.1924  0.5835  0.6678
  312MOL0     C41088  -0.162   0.490   0.596 -0.5083  0.7205 -0.2374
  312MOL0     C41089  -0.143   0.476   0.751  0.5496  0.1541 -0.2216
  312MOL0     C41090  -0.045   0.356   0.766 -0.7831  0.0033 -0.4599
  312MOL0     C41091   0.099   0.397   0.729  0.1243 -1.1236  0.5197
  312MOL0     C41092   0.190   0.292   0.787 -0.2870 -0.0802  0.2704
  312MOL0     C41093   0.336   0.323   0.744  1.3164 -0.1300  0.1130
  312MOL0     C41094   0.424   0.220   0.800  0.2265  0.3875  0.3679
  312MOL0     C41095   0.425   0.207   0.946 -1.0393  0.4156 -0.8657
  312MOL0    Cl41096   0.555   0.093   1.001  0.2356 -0.3229  0.2228
  312MOL0     C41097  -0.333   0.804   0.508 -1.0353  0.2287  0.1535
  312MOL0     C41098  -0.328   0.945   0.522 -0.0128  0.5532 -0.6742
  312MOL0     O41099  -0.344   1.138   0.752 -0.8044  0.2246 -0.1097
  312MOL0     C41100  -0.328   1.422   0.745  0.2865  0.5008 -0.3328
  312MOL0     C41101  -0.295   1.549   0.774  0.9805 -0.8878 -0.3947
  312MOL0     N41102   0.437   1.966   0.811 -0.8541  0.7265  0.6164
  312MOL0     N41103   0.514   2.059   0.861  0.4898  0.1664  0.3234
  312MOL0     C41104   1.594   2.051   0.789  0.9656  0.0514  0.4791
  312MOL0     C41105   1.701   2.030   0.872  0.3744 -0.4429  0.1038
  312MOL0     C41106   1.953   1.878   1.240  0.6035  0.0990 -0.7467
  312MOL0     C41107   2.044   1.981   1.219 -0.1968  0.4989 -0.1718
  312MOL0     C41108   2.177   1.961   1.255 -0.4107 -0.1871 -1.6717
  312MOL0     C41109   2.217   1.847   1.326  0.1710  0.1453  0.3412
  312MOL0     O41110   2.346   1.842   1.368 -0.2586  0.0536  0.1723
  312MOL0     C41111   2.407   1.715   1.386  0.2338  0.5248 -0.4628
  312MOL0     C41112   2.561   1.730   1.401  0.9082 -0.6965  0.5079
  312MOL0     C41113   2.628   1.603   1.381  1.0367 -0.0282 -0.1327
  312MOL0     C41114   2.760   1.593   1.458 -0.2195 -0.9846  0.1033
  312MOL0     C41115   2.847   1.490   1.388  0.3912 -1.1516  0.7361
  312MOL0     C41116   2.923   1.406   1.340 -0.5663 -0.3850 -0.1198
  312MOL0     C41117   2.118   1.748   1.355  0.0739 -0.7443 -0.3775
  312MOL0     C41118   1.987   1.759   1.311 -0.0690  0.0941 -0.2924
  312MOL0     H41119   1.560   2.022   1.169  0.6129  2.6513  0.2285
  312MOL0     H41120   1.353   2.023   1.021 -0.0330 -0.4635  0.5605
  312MOL0     H41121   1.210   2.095   0.895 -0.8914  0.9456 -0.4659
  312MOL0     H41122   1.185   1.939   0.814 -1.3874 -0.5634 -2.6853
  312MOL0     H41123   1.101   2.038   0.624 -2.1483  0.1669  1.2370
  312MOL0     H41124   1.206   2.177   0.638 -0.7185  1.0556 -0.3681
  312MOL0     H41125   1.063   2.267   0.824  1.9219  0.5344 -0.9338
  312MOL0     H41126   0.949   2.132   0.818  1.3513  0.4111  1.3475
  312MOL0     H41127   0.970   2.322   0.578 -1.7123  0.9006 -0.1399
  312MOL0     H41128   0.900   2.175   0.570  3.6130 -2.7415  0.3799
  312MOL0     H41129   0.852   2.413   0.734  3.6200 -1.2638 -0.4007
  312MOL0     H41130   0.782   2.253   0.793 -1.9006  1.9244  1.8552
  312MOL0     H41131   0.662   2.215   0.569 -0.0936  1.3268 -0.5877
  312MOL0     H41132   0.705   2.378   0.525  3.8795  1.3549  0.8439
  312MOL0     H41133   0.603   2.488   0.721 -4.6398  1.4033 -0.7616
  312MOL0     H41134   0.491   2.406   0.623 -1.0393 -2.5145  0.4084
  312MOL0     H41135   0.453   2.370   0.839  0.4908  1.6978 -2.0768
  312MOL0     H41136   0.609   2.307   0.886 -0.3318 -2.7757  2.4740
  312MOL0     H41137   0.331   2.232   0.647  0.0787  2.3740  2.7736
  312MOL0     H41138   0.238   1.851   0.708  1.3012  0.6827  2.8606
  312MOL0     H41139   0.191   1.953   0.578 -4.0991  2.7099  0.8141
  312MOL0     H41140   0.088   2.120   0.697 -0.7693 -2.0913 -3.6736
  312MOL0     H41141   0.117   2.030   0.858 -2.0603  2.3473  0.5471
  312MOL0     H41142  -0.107   1.978   0.749  1.8656  1.3569  0.1799
  312MOL0     H41143  -0.037   1.933   0.601  0.0166 -2.0420  0.3910
  312MOL0     H41144   0.048   1.781   0.836 -0.6257 -1.6310  0.1409
  312MOL0     H41145   0.046   1.727   0.668  1.2578 -0.2624  0.3124
  312MOL0     H41146   0.041   1.531   0.722  0.0747 -1.3315 -1.1596
  312MOL0     H41147  -0.016   1.307   0.668 -1.0350 -2.0537  1.7469
  312MOL0     H41148  -0.000   0.945   0.633 -0.0679  4.0950 -0.9017
  312MOL0     H41149  -0.023   0.707   0.593 -2.5588 -3.7394  2.6320
  312MOL0     H41150  -0.067   0.512   0.546 -0.0911  1.3921  0.8277
  312MOL0     H41151  -0.190   0.389   0.564 -2.3384  0.5888  1.6095
  312MOL0     H41152  -0.242   0.443   0.784  0.1211  0.8204 -0.8192
  312MOL0     H41153  -0.115   0.560   0.815 -0.9459 -0.4243  1.2788
  312MOL0     H41154  -0.070   0.265   0.710 -1.0542 -2.1315  2.8427
  312MOL0     H41155  -0.045   0.308   0.864 -2.7770  1.1047  0.1292
  312MOL0     H41156   0.106   0.411   0.620 -4.4349 -0.9140  0.0752
  312MOL0     H41157   0.128   0.497   0.762  2.4448 -1.7724  0.6091
  312MOL0     H41158   0.164   0.194   0.748  2.6150 -1.3139  1.1821
  312MOL0     H41159   0.184   0.296   0.897 -0.0050 -1.9242  0.3718
  312MOL0     H41160   0.377   0.421   0.774  0.7620  0.2356 -0.3126
  312MOL0     H41161   0.342   0.309   0.636  2.8849 -4.5916  0.5975
  312MOL0     H41162   0.400   0.120   0.761  0.6159  0.0639  0.9351
  312MOL0     H41163   0.528   0.238   0.771 -0.6792  3.3357 -1.4520
  312MOL0     H41164   0.335   0.147   0.966  0.5421 -1.8759 -0.2294
  312MOL0     H41165   0.433   0.307   0.989  1.4219 -0.1322  0.0786
  312MOL0     H41166  -0.420   0.741   0.493  1.0942 -2.6784 -1.0052
  312MOL0     H41167  -0.406   1.015   0.495  0.5726  0.4388 -2.8237
  312MOL0     H41168  -0.434   1.397   0.744  0.1431  0.8242 -3.8673
  312MOL0     H41169  -0.368   1.628   0.789  1.8359 -0.2929  0.7245
  312MOL0     H41170   1.617   2.054   0.682  0.7675 -2.5665  0.3134
  312MOL0     H41171   1.801   2.023   0.832  0.1626 -2.1118 -0.2086
  312MOL0     H41172   2.019   2.074   1.169  0.9930  1.8851  1.7218
  312MOL0     H41173   2.255   2.032   1.233  0.4284 -0.9417 -1.1978
  312MOL0     H41174   2.367   1.656   1.302 -2.0278  0.5049  0.5542
  312MOL0     H41175   2.383   1.663   1.480  0.5110 -1.0266 -1.2156
  312MOL0     H41176   2.598   1.801   1.326 -0.9341  1.0122  1.1285
  312MOL0     H41177   2.574   1.777   1.500  3.1322 -1.6946  0.7359
  312MOL0     H41178   2.635   1.599   1.272  1.8752 -3.1063 -0.0509
  312MOL0     H41179   2.559   1.526   1.418 -0.0467 -0.4776 -2.9071
  312MOL0     H41180   2.813   1.687   1.477  0.3212 -1.3574  0.4773
  312MOL0     H41181   2.754   1.554   1.560 -0.1812 -0.2831  0.3829
  312MOL0     H41182   2.970   1.316   1.305  1.0882  2.1599 -5.3861
  312MOL0     H41183   2.145   1.662   1.415 -1.4291 -0.3074  0.9955
  312MOL0     H41184   1.924   1.674   1.335  1.6843 -1.2485 -0.2274
  313MOL0     O41185   9.143   1.508   4.602 -0.1312 -0.1371  0.5429
  313MOL0     C41186   9.177   1.478   4.713 -0.9043  0.3356 -0.4171
  313MOL0     O41187   9.258   1.555   4.789 -0.6019 -0.5750 -0.4641
  313MOL0     C41188   9.306   1.673   4.750  0.6797 -0.1221 -0.2580
  313MOL0     C41189   9.242   1.757   4.655  0.2101  0.1235 -0.7982
  313MOL0     C41190   9.294   1.886   4.635 -0.2688 -0.5675  0.2612
  313MOL0     C41191   9.403   1.942   4.703  0.0075  0.0421 -0.6774
  313MOL0     O41192   9.449   2.067   4.703 -0.7910 -0.5453 -0.6785
  313MOL0     C41193   9.357   2.167   4.652  0.6877 -1.1363 -0.8678
  313MOL0     C41194   9.408   2.298   4.698  0.3669  0.1849 -0.6435
  313MOL0     C41195   9.353   2.421   4.622 -0.6080 -0.1272 -0.2656
  313MOL0     C41196   9.420   2.436   4.481  0.4509  0.0086  0.2376
  313MOL0     C41197   9.573   2.408   4.474  0.2386  0.2004 -0.0410
  313MOL0     C41198   9.617   2.454   4.333  0.8034  0.0888  0.4184
  313MOL0     C41199   9.763   2.438   4.326 -0.2837  0.0090  0.7508
  313MOL0     C41200   9.825   2.474   4.181 -0.1696 -0.1605  0.1950
  313MOL0     N41201   9.829   2.616   4.168 -0.6819 -0.4589  0.6057
  313MOL0     C41202   9.921   2.687   4.246 -0.1132 -0.5980 -0.5668
  313MOL0     C41203   9.883   2.814   4.229 -0.2582 -0.1694  0.4481
  313MOL0     C41204   9.947   2.935   4.298 -0.0093 -0.1341 -0.4983
  313MOL0     C41205   9.858   3.060   4.283 -0.0770 -0.8375 -0.5613
  313MOL0     C41206   9.903   3.188   4.356  0.0776  0.5646 -0.3977
  313MOL0     C41207  10.042   3.243   4.329  0.8334  0.7989  0.4443
  313MOL0     O41208  10.053   3.250   4.189 -0.0519  0.0685 -0.8805
  313MOL0     C41209  10.153   3.188   4.114 -0.6221  0.1483  0.1522
  313MOL0     C41210  10.122   3.160   3.979  0.6177 -0.9774 -0.9119
  313MOL0     C41211  10.216   3.096   3.896 -0.1649 -0.5200 -0.2652
  313MOL0     C41212  10.341   3.054   3.943 -0.8543  0.0123  0.1677
  313MOL0     C41213  10.432   2.971   3.865 -0.1646  0.6058 -0.1857
  313MOL0     O41214  10.535   2.916   3.926 -0.0072  0.5313  0.4001
  313MOL0     C41215  10.631   2.859   3.852  0.5483  1.1630 -0.2312
  313MOL0     C41216  10.693   2.748   3.919  0.3315  0.3286 -0.3512
  313MOL0     C41217  10.814   2.693   3.881 -0.0290  1.0061  0.9380
  313MOL0     C41218  10.873   2.739   3.760 -1.1601  0.6614 -0.8352
  313MOL0     O41219  11.012   2.718   3.724  0.0757 -0.2553 -0.3899
  313MOL0     C41220  11.076   2.611   3.799 -0.3299  1.2232  0.0897
  313MOL0     C41221  11.218   2.587   3.752 -0.3118 -0.5454 -0.6523
  313MOL0     C41222  11.236   2.562   3.601  0.5961  0.6141  0.2853
  313MOL0     C41223  11.370   2.507   3.559  0.1869  0.2280  0.0481
  313MOL0     C41224  11.483   2.592   3.617 -0.2052 -0.0829 -1.2752
  313MOL0     C41225  11.619   2.564   3.565  0.5363  0.1541  0.1481
  313MOL0     C41226  11.725   2.612   3.663 -0.4773 -0.1760 -0.2240
  313MOL0     C41227  11.722   2.764   3.692  0.4941 -1.2074  0.8722
  313MOL0    Cl41228  11.760   2.864   3.544 -0.1011 -0.6934  0.2446
  313MOL0     C41229  10.808   2.840   3.680 -1.1523  0.2780 -1.6731
  313MOL0     C41230  10.695   2.905   3.735  0.3357  0.6278  0.9880
  313MOL0     O41231  10.410   2.977   3.746  0.0444 -0.6307 -0.6311
  313MOL0     C41232  10.369   3.078   4.075 -0.0569  0.1213  0.4173
  313MOL0     C41233  10.282   3.141   4.163  0.3609 -0.3693  0.8091
  313MOL0     N41234   9.776   2.825   4.142  0.4327  0.0897  0.9731
  313MOL0     N41235   9.750   2.703   4.102  0.4302 -0.6254 -0.3131
  313MOL0     C41236   9.459   1.855   4.800 -0.2382 -0.1235  0.6263
  313MOL0     C41237   9.418   1.724   4.817  0.6767 -0.7999  0.9209
  313MOL0     C41238   9.147   1.340   4.748  0.5769  0.0976  0.3148
  313MOL0     C41239   9.069   1.254   4.671  0.2176 -0.2157  0.8268
  313MOL0     C41240   9.051   1.122   4.708  0.2769  0.3170  0.5412
  313MOL0     C41241   9.101   1.079   4.833  0.0022 -0.5419 -0.6664
  313MOL0     O41242   9.076   0.951   4.870 -0.6489  0.8955  0.1867
  313MOL0     C41243   9.128   0.899   4.992  0.1339 -1.0298  0.8919
  313MOL0     C41244   9.276   0.855   4.970  1.1287 -0.4946  0.2849
  313MOL0     C41245   9.302   0.744   5.069  0.4318  0.5593 -0.0861
  313MOL0     C41246   9.407   0.649   5.031 -0.0105  0.4232  0.4814
  313MOL0     C41247   9.523   0.725   4.983  0.1373  0.0754  0.6090
  313MOL0     C41248   9.624   0.770   4.930 -0.1073  0.2961  0.2215
  313MOL0     C41249   9.176   1.166   4.917 -0.0275 -0.2733 -0.1050
  313MOL0     C41250   9.198   1.302   4.878 -0.0868 -0.4911  0.2910
  313MOL0     H41251   9.152   1.732   4.598 -0.4821  2.2302 -0.6937
  313MOL0     H41252   9.239   1.938   4.558  0.0587 -0.5218  0.0566
  313MOL0     H41253   9.259   2.150   4.696  1.9485 -1.8395  1.8942
  313MOL0     H41254   9.360   2.166   4.542  1.7953 -0.5832 -0.8642
  313MOL0     H41255   9.515   2.303   4.720  0.2595 -1.7025  0.4949
  313MOL0     H41256   9.354   2.295   4.793 -2.1081 -3.8628 -1.9217
  313MOL0     H41257   9.379   2.511   4.679  3.4165  0.0761 -2.0887
  313MOL0     H41258   9.244   2.413   4.625 -0.6119 -0.5463 -1.1005
  313MOL0     H41259   9.361   2.365   4.421  3.9931 -1.3737 -1.9234
  313MOL0     H41260   9.396   2.538   4.449  0.5237  0.5375  1.8251
  313MOL0     H41261   9.600   2.304   4.495 -0.7797  0.1742  1.2416
  313MOL0     H41262   9.619   2.483   4.539 -0.8254  2.2797 -1.5433
  313MOL0     H41263   9.587   2.559   4.329 -4.1206 -1.1353 -0.5980
  313MOL0     H41264   9.566   2.392   4.260 -1.0076  0.6690  1.1458
  313MOL0     H41265   9.824   2.499   4.393  0.2278  0.9419 -0.5211
  313MOL0     H41266   9.784   2.333   4.346  0.0830 -0.3759 -1.3926
  313MOL0     H41267   9.779   2.428   4.093  0.9007  0.1678 -0.5616
  313MOL0     H41268   9.924   2.429   4.179 -0.7043 -1.4232 -2.3090
  313MOL0     H41269  10.010   2.646   4.292  2.1492 -0.7667 -4.6857
  313MOL0     H41270  10.045   2.957   4.256 -0.2572  0.8459 -0.5855
  313MOL0     H41271   9.959   2.901   4.401  1.2051 -0.9239 -0.8778
  313MOL0     H41272   9.755   3.033   4.310 -0.0987 -0.7493 -0.5561
  313MOL0     H41273   9.860   3.077   4.175  2.1695  2.4180 -0.1428
  313MOL0     H41274   9.824   3.259   4.331 -2.7561 -3.5987 -5.2069
  313MOL0     H41275   9.890   3.167   4.463  1.9056 -0.5854 -0.3626
  313MOL0     H41276  10.109   3.177   4.386  1.3063  0.5549 -0.3792
  313MOL0     H41277  10.057   3.344   4.366 -1.0165  2.1173 -2.0664
  313MOL0     H41278  10.032   3.200   3.934  1.5525  1.5562 -0.6862
  313MOL0     H41279  10.189   3.044   3.804 -1.3388  0.9821 -0.8061
  313MOL0     H41280  10.659   2.713   4.016  2.5558 -0.2053  0.2847
  313MOL0     H41281  10.868   2.629   3.950  0.7347  3.1373  2.4426
  313MOL0     H41282  11.013   2.522   3.791  1.5787 -0.1868  0.0583
  313MOL0     H41283  11.077   2.654   3.900 -3.1857  0.6879  0.4227
  313MOL0     H41284  11.259   2.513   3.821 -0.4925 -0.6969 -0.7050
  313MOL0     H41285  11.271   2.680   3.776 -2.5218  1.1675 -1.9033
  313MOL0     H41286  11.212   2.649   3.540  0.5449  0.0516 -0.5159
  313MOL0     H41287  11.167   2.488   3.559 -3.8785  3.6152  1.7456
  313MOL0     H41288  11.376   2.403   3.595  1.9870  0.4756  0.5668
  313MOL0     H41289  11.377   2.506   3.450  0.5970 -0.1623  0.0722
  313MOL0     H41290  11.500   2.559   3.720  2.7590  0.3707 -1.5210
  313MOL0     H41291  11.468   2.700   3.625  1.9030  0.1395  1.2283
  313MOL0     H41292  11.618   2.617   3.469 -1.1126  0.7858  0.4794
  313MOL0     H41293  11.632   2.455   3.555  3.2019  0.4916 -0.9750
  313MOL0     H41294  11.713   2.557   3.756  0.8972  0.0778  0.1185
  313MOL0     H41295  11.824   2.604   3.619  0.7346  5.7318  0.5018
  313MOL0     H41296  11.789   2.806   3.767  0.5236  0.2761  0.0626
  313MOL0     H41297  11.623   2.788   3.732  0.9342  0.0558  1.2500
  313MOL0     H41298  10.857   2.866   3.587  0.0711  2.6387 -0.4287
  313MOL0     H41299  10.662   2.995   3.683 -1.9136 -0.3573  0.5816
  313MOL0     H41300  10.469   3.051   4.108 -0.6489  0.6604  2.8113
  313MOL0     H41301  10.321   3.152   4.263  0.6447 -2.0116  0.9106
  313MOL0     H41302   9.537   1.883   4.870 -0.2651 -1.0376  1.0377
  313MOL0     H41303   9.468   1.667   4.894  1.8897  2.2064  2.5501
  313MOL0     H41304   9.028   1.284   4.576  0.9180  0.4237  0.7182
  313MOL0     H41305   8.996   1.051   4.646  4.4014 -0.4236 -2.7143
  313MOL0     H41306   9.070   0.812   5.021 -1.9933  0.4834  1.4154
  313MOL0     H41307   9.119   0.973   5.072 -1.7826 -0.7685  0.4863
  313MOL0     H41308   9.296   0.828   4.866  2.7447  0.5441  0.2815
  313MOL0     H41309   9.342   0.939   4.995  1.3983 -0.4614 -0.5050
  313MOL0     H41310   9.208   0.692   5.092  1.0162  0.0504  1.2568
  313MOL0     H41311   9.325   0.789   5.166  0.8191 -0.9866  0.5656
  313MOL0     H41312   9.445   0.591   5.116 -1.9929 -3.9435 -1.3014
  313MOL0     H41313   9.368   0.586   4.951  0.7313  1.8143 -1.0329
  313MOL0     H41314   9.701   0.828   4.883  0.7964  0.8584  2.2922
  313MOL0     H41315   9.217   1.142   5.014  1.1554  2.2470  0.1000
  313MOL0     H41316   9.240   1.365   4.956 -0.9529  1.0850 -0.4565
  314MOL0     O41317  10.855   9.357   8.880 -0.3782 -0.0567  0.5739
  314MOL0     C41318  10.883   9.284   8.787 -0.5823 -0.1023 -0.1611
  314MOL0     O41319  11.000   9.288   8.728  0.0781  0.5300 -0.7950
  314MOL0     C41320  11.106   9.347   8.799 -0.3565 -0.5798 -0.4788
  314MOL0     C41321  11.204   9.274   8.862  0.2150 -0.2115  0.0547
  314MOL0     C41322  11.317   9.323   8.939 -1.4684 -0.6591  0.4814
  314MOL0     C41323  11.321   9.466   8.953  0.5106  0.6704  0.2142
  314MOL0     O41324  11.422   9.532   9.014  0.2940 -0.2312 -0.5515
  314MOL0     C41325  11.392   9.589   9.139  0.4878 -0.6898  0.1433
  314MOL0     C41326  11.489   9.706   9.168 -0.2349  0.8111  0.0253
  314MOL0     C41327  11.474   9.824   9.074  0.5850 -1.2670 -0.6184
  314MOL0     C41328  11.573   9.940   9.112  0.1258 -0.6694  0.3610
  314MOL0     C41329  11.506  10.057   9.195  0.2885  0.4149 -0.5275
  314MOL0     C41330  11.410  10.146   9.118 -0.3000 -0.2577  0.2952
  314MOL0     C41331  11.487  10.261   9.044  0.2545  0.2867 -0.3077
  314MOL0     C41332  11.402  10.367   8.967 -0.1447  0.0246 -0.1903
  314MOL0     N41333  11.365  10.486   9.043 -0.2792 -0.3512 -0.1263
  314MOL0     C41334  11.305  10.479   9.163  0.6065 -0.2263 -0.9505
  314MOL0     C41335  11.270  10.611   9.189 -0.8241  0.6639 -0.4744
  314MOL0     C41336  11.203  10.657   9.319  0.1938 -0.8144 -1.3649
  314MOL0     C41337  11.172  10.811   9.329 -0.3497 -0.0608  0.1676
  314MOL0     C41338  11.077  10.854   9.444  0.0095  0.3259 -0.0899
  314MOL0     C41339  11.078  11.012   9.455 -0.4284 -0.1107  0.3281
  314MOL0     O41340  10.992  11.064   9.557 -0.4590  0.2987 -0.8846
  314MOL0     C41341  11.015  11.032   9.690 -0.1157 -0.0051 -0.4332
  314MOL0     C41342  10.922  11.058   9.786  0.6638 -0.0305  1.0559
  314MOL0     C41343  10.933  11.033   9.920 -0.9922  0.2288  0.2422
  314MOL0     C41344  11.058  10.984   9.973 -0.5237  0.1500  1.2801
  314MOL0     C41345  11.096  10.991  10.122  0.2100  0.1693 -0.4221
  314MOL0     O41346  11.232  10.995  10.146  0.0123 -0.5240  0.0722
  314MOL0     C41347  11.270  11.000  10.278  0.0302  0.2934  0.2063
  314MOL0     C41348  11.219  11.088  10.376  0.5152  0.3966 -0.3033
  314MOL0     C41349  11.270  11.094  10.508 -0.6099 -0.2359 -0.1251
  314MOL0     C41350  11.376  11.006  10.544 -0.6215  0.4140  0.2101
  314MOL0     O41351  11.445  10.997  10.663  0.0538  0.4192 -0.1547
  314MOL0     C41352  11.391  11.041  10.788  0.4548  0.0711  0.4818
  314MOL0     C41353  11.488  11.010  10.905 -0.3358 -0.8183  0.0586
  314MOL0     C41354  11.434  11.066  11.038  0.9403  0.1062  0.0350
  314MOL0     C41355  11.503  11.004  11.166 -0.8641 -0.1433  0.6766
  314MOL0     C41356  11.598  11.105  11.247 -0.1015 -0.8279  0.0469
  314MOL0     C41357  11.701  11.031  11.340  0.6644  0.4072  0.1468
  314MOL0     C41358  11.637  10.948  11.448  0.4371  0.3037 -0.6486
  314MOL0     C41359  11.744  10.869  11.505 -0.2298  0.3732 -0.8985
  314MOL0    Cl41360  11.664  10.734  11.608 -0.1390 -0.2051 -0.6773
  314MOL0     C41361  11.416  10.918  10.440  0.3942  0.4268 -1.3358
  314MOL0     C41362  11.371  10.911  10.312 -0.6047  0.7800  0.2600
  314MOL0     O41363  11.006  10.992  10.205 -0.3288 -0.2079  0.3068
  314MOL0     C41364  11.152  10.950   9.878  0.1048 -0.2420 -0.9759
  314MOL0     C41365  11.131  10.971   9.741 -0.8170 -0.2904 -0.9834
  314MOL0     N41366  11.307  10.690   9.092  0.9085 -0.4850  0.2241
  314MOL0     N41367  11.361  10.617   8.996 -0.3685 -0.6194 -0.3628
  314MOL0     C41368  11.218   9.541   8.891 -0.2067 -0.2938 -0.8307
  314MOL0     C41369  11.115   9.485   8.818 -0.9731 -0.0275  0.0580
  314MOL0     C41370  10.773   9.207   8.715  0.4685 -0.5060 -0.6484
  314MOL0     C41371  10.638   9.214   8.762  0.1003  0.1059 -0.1460
  314MOL0     C41372  10.529   9.157   8.682  0.6474  0.3879 -0.4474
  314MOL0     C41373  10.563   9.067   8.571 -0.1548 -0.7794 -0.7363
  314MOL0     O41374  10.473   8.999   8.501  0.0439  0.9554  0.0599
  314MOL0     C41375  10.326   9.002   8.513 -0.3202  1.3227 -0.6317
  314MOL0     C41376  10.273   8.878   8.444  0.5803  0.3915  0.8957
  314MOL0     C41377  10.297   8.880   8.295  0.2333 -0.3263  0.0769
  314MOL0     C41378  10.246   8.760   8.223  0.4179  0.0712 -1.0223
  314MOL0     C41379  10.328   8.631   8.251  0.8125 -0.1962  0.9094
  314MOL0     C41380  10.381   8.528   8.294 -0.8753 -0.4580  0.5419
  314MOL0     C41381  10.695   9.059   8.536  0.6008 -0.4535  0.2066
  314MOL0     C41382  10.795   9.133   8.606 -0.4675  0.0939 -1.1325
  314MOL0     H41383  11.197   9.168   8.838  1.1821 -0.3048  0.1533
  314MOL0     H41384  11.405   9.266   8.968  0.8665  1.0753 -2.5841
  314MOL0     H41385  11.404   9.509   9.213 -0.4685  1.6497  3.0142
  314MOL0     H41386  11.296   9.640   9.150  2.1315  3.0146 -1.2930
  314MOL0     H41387  11.593   9.671   9.161 -0.3043  0.2585  1.4920
  314MOL0     H41388  11.465   9.737   9.270 -1.2164  0.0254  0.0459
  314MOL0     H41389  11.368   9.851   9.077  1.0232  0.5476 -0.0152
  314MOL0     H41390  11.488   9.789   8.972  4.3179  0.0157 -0.7084
  314MOL0     H41391  11.647   9.900   9.182 -0.2741 -0.5200  0.8725
  314MOL0     H41392  11.625   9.975   9.022 -0.3581  0.3298  0.4570
  314MOL0     H41393  11.567  10.120   9.259  0.9395 -1.7465  1.0795
  314MOL0     H41394  11.441  10.013   9.271  0.4444  2.1281  0.6664
  314MOL0     H41395  11.341  10.206   9.178 -0.3182  3.1137 -2.7730
  314MOL0     H41396  11.341  10.087   9.056 -0.9436 -0.5867  1.2948
  314MOL0     H41397  11.547  10.304   9.126 -1.5140 -2.4081  2.6251
  314MOL0     H41398  11.553  10.214   8.971  1.7243  1.8381 -0.0465
  314MOL0     H41399  11.318  10.309   8.928 -0.0023 -0.2891 -0.0387
  314MOL0     H41400  11.460  10.401   8.881  5.3913 -0.6063  2.7751
  314MOL0     H41401  11.277  10.391   9.220 -0.2221  1.1640  0.8888
  314MOL0     H41402  11.267  10.635   9.405 -0.4323  2.3207  0.0499
  314MOL0     H41403  11.112  10.598   9.330  1.3588 -2.6624 -1.1513
  314MOL0     H41404  11.122  10.846   9.238 -0.0272 -1.6363 -0.6489
  314MOL0     H41405  11.270  10.859   9.336 -2.2522  3.9943  2.3666
  314MOL0     H41406  10.977  10.818   9.417 -0.3907  2.2238 -1.3608
  314MOL0     H41407  11.107  10.815   9.541  2.5327 -0.8915 -1.2640
  314MOL0     H41408  11.063  11.055   9.356 -1.0749  0.7850  0.8035
  314MOL0     H41409  11.179  11.046   9.481  0.2165 -1.4438 -0.3077
  314MOL0     H41410  10.831  11.111   9.761  0.8396 -0.0853  0.2547
  314MOL0     H41411  10.858  11.073   9.986  0.7604  3.9272  0.2196
  314MOL0     H41412  11.135  11.151  10.347 -0.3062 -1.8509 -3.3338
  314MOL0     H41413  11.232  11.171  10.575 -0.8869  0.7443 -1.3706
  314MOL0     H41414  11.307  10.984  10.829  2.5229 -0.9311  3.6752
  314MOL0     H41415  11.371  11.148  10.782 -0.4647 -0.0954  0.3960
  314MOL0     H41416  11.578  11.062  10.870  0.3389 -2.6382 -1.0690
  314MOL0     H41417  11.513  10.904  10.907 -3.1285 -1.7741 -3.6112
  314MOL0     H41418  11.325  11.053  11.032  0.9464  0.6889 -2.3229
  314MOL0     H41419  11.446  11.174  11.043  1.0577  0.1961 -1.5145
  314MOL0     H41420  11.428  10.966  11.236  0.0051 -1.1536  1.1022
  314MOL0     H41421  11.562  10.915  11.140 -0.6511 -0.1425  1.1508
  314MOL0     H41422  11.545  11.184  11.300  0.9974 -0.0161 -0.0285
  314MOL0     H41423  11.657  11.151  11.167  1.4291 -0.3463  1.4015
  314MOL0     H41424  11.765  11.096  11.400 -0.1367 -3.1392  5.4701
  314MOL0     H41425  11.760  10.964  11.277  1.0821  0.4073  0.5354
  314MOL0     H41426  11.584  11.007  11.523 -0.2051 -2.0296  0.8623
  314MOL0     H41427  11.562  10.881  11.405 -0.3327 -0.7170  2.0747
  314MOL0     H41428  11.810  10.926  11.571 -0.1852 -1.5834  0.8474
  314MOL0     H41429  11.809  10.823  11.430 -0.9032  0.0436 -1.2942
  314MOL0     H41430  11.497  10.851  10.468 -1.1941 -0.5950  1.1424
  314MOL0     H41431  11.411  10.835  10.247 -1.2124  1.4716 -0.9532
  314MOL0     H41432  11.248  10.913   9.915 -1.4390 -3.4605  0.2341
  314MOL0     H41433  11.219  10.946   9.683  1.4820  2.0795  1.2160
  314MOL0     H41434  11.218   9.649   8.893 -0.7701 -0.2481  2.1595
  314MOL0     H41435  11.046   9.542   8.755 -3.1089 -1.8224  0.6484
  314MOL0     H41436  10.618   9.279   8.846 -1.4831  3.2786 -2.7591
  314MOL0     H41437  10.422   9.167   8.696  0.0171 -0.1613 -3.8339
  314MOL0     H41438  10.281   9.097   8.481 -2.7306 -0.1504 -1.8543
  314MOL0     H41439  10.302   8.986   8.619 -1.4874  0.1269 -1.0507
  314MOL0     H41440  10.328   8.795   8.490  1.2882 -0.4448 -1.3549
  314MOL0     H41441  10.168   8.871   8.474  0.9365  2.7369  3.0528
  314MOL0     H41442  10.406   8.889   8.284  0.2052  1.2020  0.8485
  314MOL0     H41443  10.251   8.965   8.245 -0.0119 -1.6354 -2.0375
  314MOL0     H41444  10.145   8.729   8.252  1.7999 -0.5489  4.1645
  314MOL0     H41445  10.250   8.795   8.120 -0.7100  1.9003 -0.4916
  314MOL0     H41446  10.409   8.434   8.338 -0.3668  0.0988  1.4265
  314MOL0     H41447  10.734   8.996   8.458 -0.0614 -1.8256  0.9460
  314MOL0     H41448  10.896   9.120   8.568 -0.0764  2.6164 -1.1595
  315MOL0     O41449   3.590   0.548   6.213 -0.0801 -0.5068 -0.1791
  315MOL0     C41450   3.500   0.506   6.289  0.1813  0.0833  0.0294
  315MOL0     O41451   3.362   0.536   6.285 -0.4536  0.3610 -0.2762
  315MOL0     C41452   3.307   0.551   6.165 -0.8221  1.1977  1.2855
  315MOL0     C41453   3.360   0.498   6.044 -0.3887 -0.2710  0.6255
  315MOL0     C41454   3.295   0.515   5.924  0.9923  0.5318  0.7664
  315MOL0     C41455   3.171   0.572   5.921  0.0823 -0.4770 -0.0724
  315MOL0     O41456   3.097   0.584   5.809 -0.6187 -0.0657  0.0099
  315MOL0     C41457   3.152   0.524   5.689 -0.2412 -0.0450  0.3142
  315MOL0     C41458   3.042   0.550   5.579 -0.5510  0.0500 -0.5298
  315MOL0     C41459   3.095   0.517   5.429 -0.1565 -0.4682  0.1580
  315MOL0     C41460   2.986   0.485   5.329  0.5506  0.4799 -0.7424
  315MOL0     C41461   3.039   0.453   5.192 -0.0936 -0.1379  1.0239
  315MOL0     C41462   2.915   0.439   5.103 -0.9694 -0.1347  0.4297
  315MOL0     C41463   2.941   0.420   4.953  0.2458 -0.4558 -0.3388
  315MOL0     C41464   2.810   0.402   4.881  0.1300 -0.2736  1.0395
  315MOL0     N41465   2.838   0.372   4.737  0.0511  0.4176  0.2314
  315MOL0     C41466   2.771   0.423   4.627 -0.0002 -0.1202 -0.2632
  315MOL0     C41467   2.813   0.345   4.524 -0.5434  0.2369  0.1582
  315MOL0     C41468   2.764   0.349   4.387  0.4365  0.0344 -0.2455
  315MOL0     C41469   2.622   0.307   4.363 -0.0267 -0.1478  0.2626
  315MOL0     C41470   2.579   0.331   4.216 -0.9408  0.6902 -0.1629
  315MOL0     C41471   2.457   0.261   4.156 -0.2998 -0.3567  0.2174
  315MOL0     O41472   2.465   0.118   4.181  0.1981  0.0194  0.0351
  315MOL0     C41473   2.540   0.036   4.108  0.1009  0.4572 -0.0593
  315MOL0     C41474   2.541  -0.083   4.177 -0.0115  0.1592 -0.5045
  315MOL0     C41475   2.623  -0.187   4.140  0.0368  0.1381 -0.3521
  315MOL0     C41476   2.712  -0.174   4.023 -0.8664 -0.8889  0.0224
  315MOL0     C41477   2.793  -0.280   3.963 -0.2977 -0.5129  0.4286
  315MOL0     O41478   2.879  -0.235   3.864  0.4624  0.6473 -0.0831
  315MOL0     C41479   2.940  -0.322   3.780  0.6163 -0.6967  0.3123
  315MOL0     C41480   3.081  -0.329   3.777  0.1512 -0.4501 -0.6198
  315MOL0     C41481   3.150  -0.438   3.714 -0.2317  0.5776  0.4218
  315MOL0     C41482   3.071  -0.536   3.646  0.1672  0.0900  0.6785
  315MOL0     O41483   3.134  -0.634   3.589 -0.2196 -0.0476 -1.1948
  315MOL0     C41484   3.081  -0.696   3.469  0.3185 -0.2369 -0.3432
  315MOL0     C41485   3.186  -0.790   3.414 -0.8570 -0.4820  0.4768
  315MOL0     C41486   3.130  -0.880   3.307 -0.1857  0.0231 -0.4401
  315MOL0     C41487   3.238  -0.967   3.235  0.7043 -0.6837  0.1297
  315MOL0     C41488   3.154  -1.042   3.131  0.4909 -0.7283 -0.1865
  315MOL0     C41489   3.242  -1.143   3.056  0.7455 -0.3317 -0.4810
  315MOL0     C41490   3.168  -1.235   2.950  1.0533  0.1157 -0.1166
  315MOL0     C41491   3.249  -1.336   2.881 -0.0831 -0.0803  0.5284
  315MOL0    Cl41492   3.124  -1.426   2.768  0.5205 -0.7416 -0.3809
  315MOL0     C41493   2.931  -0.519   3.637  0.1881  0.0660  0.1478
  315MOL0     C41494   2.865  -0.411   3.709  0.0308  0.8070  0.0432
  315MOL0     O41495   2.778  -0.399   4.008 -0.2061 -0.1707  0.4866
  315MOL0     C41496   2.707  -0.047   3.963  0.1692  0.1088 -0.0145
  315MOL0     C41497   2.622   0.054   4.002 -0.3244  0.0400 -0.2891
  315MOL0     N41498   2.902   0.247   4.571  0.2572  0.0683 -0.5029
  315MOL0     N41499   2.925   0.269   4.693 -0.1031  0.0654 -0.3549
  315MOL0     C41500   3.108   0.611   6.038  0.7785  0.1395  0.1364
  315MOL0     C41501   3.178   0.592   6.158  0.3637  0.1351  0.0575
  315MOL0     C41502   3.542   0.417   6.396  0.7483  0.5282  0.1625
  315MOL0     C41503   3.451   0.318   6.434 -0.2191 -0.6514 -0.4310
  315MOL0     C41504   3.475   0.243   6.540  0.2657  0.4071  0.3708
  315MOL0     C41505   3.591   0.253   6.610 -0.1731 -0.3901 -0.2358
  315MOL0     O41506   3.619   0.148   6.696 -0.4917 -0.7929 -0.0293
  315MOL0     C41507   3.751   0.096   6.700 -0.4881  0.0888 -0.1907
  315MOL0     C41508   3.742  -0.052   6.706  0.4284 -0.7851  0.7625
  315MOL0     C41509   3.657  -0.104   6.582  0.0740  0.0592  0.1196
  315MOL0     C41510   3.687  -0.245   6.540 -0.3739 -0.6196  0.2377
  315MOL0     C41511   3.653  -0.327   6.659 -0.5134 -0.4638 -0.0574
  315MOL0     C41512   3.597  -0.402   6.743  0.1769  0.1825 -0.1557
  315MOL0     C41513   3.688   0.350   6.568 -0.1647 -0.1247 -0.5627
  315MOL0     C41514   3.657   0.432   6.460  0.4312  0.4047 -0.3184
  315MOL0     H41515   3.449   0.435   6.039  1.6288  2.4853 -3.0375
  315MOL0     H41516   3.337   0.467   5.836  0.9630  2.1542 -0.1696
  315MOL0     H41517   3.167   0.418   5.711  0.3133 -0.2071 -0.7403
  315MOL0     H41518   3.241   0.586   5.670  0.6229 -0.7839  1.7551
  315MOL0     H41519   2.993   0.647   5.573 -0.1492  0.2204 -1.2707
  315MOL0     H41520   2.955   0.487   5.598  1.3677 -2.4096  0.6767
  315MOL0     H41521   3.165   0.434   5.435 -0.7374 -0.9299  0.6017
  315MOL0     H41522   3.164   0.595   5.395  3.1477 -2.5875  1.4655
  315MOL0     H41523   2.931   0.399   5.367  2.5705 -0.9508 -0.9070
  315MOL0     H41524   2.923   0.574   5.326 -0.1932 -0.0103 -4.2549
  315MOL0     H41525   3.088   0.356   5.202 -0.3692 -0.1066  3.0793
  315MOL0     H41526   3.099   0.539   5.159  0.5060 -1.8178 -2.7762
  315MOL0     H41527   2.855   0.526   5.131  0.4485  0.3683  2.0903
  315MOL0     H41528   2.863   0.354   5.149 -2.2810  0.5587  0.2758
  315MOL0     H41529   2.989   0.511   4.917  0.8041 -0.0475  1.3583
  315MOL0     H41530   3.004   0.333   4.933  0.0047 -0.7649  0.2333
  315MOL0     H41531   2.749   0.492   4.890 -3.4042 -2.4896  1.2898
  315MOL0     H41532   2.754   0.326   4.935  0.2351  0.2201  1.8637
  315MOL0     H41533   2.694   0.500   4.618  1.5384  1.7843  1.7707
  315MOL0     H41534   2.828   0.284   4.326 -1.6753 -1.4356 -1.0154
  315MOL0     H41535   2.774   0.453   4.354  1.5193  0.2515  0.6974
  315MOL0     H41536   2.557   0.368   4.426  0.4683  0.0572  0.5744
  315MOL0     H41537   2.613   0.200   4.385 -1.9366 -0.4068 -1.4076
  315MOL0     H41538   2.576   0.440   4.208 -2.1082  0.6525 -0.5243
  315MOL0     H41539   2.652   0.298   4.142 -3.4009  0.8631 -2.8853
  315MOL0     H41540   2.446   0.285   4.050 -2.2395  3.4127  1.0988
  315MOL0     H41541   2.364   0.302   4.195 -0.5104  1.6414 -2.1781
  315MOL0     H41542   2.457  -0.086   4.244 -2.2018 -0.5373 -3.0918
  315MOL0     H41543   2.607  -0.275   4.202 -0.3084  1.4530  1.5267
  315MOL0     H41544   3.140  -0.248   3.818  0.0194  0.7136 -2.6336
  315MOL0     H41545   3.258  -0.441   3.711 -0.1887  1.3343 -2.7684
  315MOL0     H41546   3.062  -0.620   3.392 -2.5360  1.6445  2.0134
  315MOL0     H41547   2.988  -0.744   3.499  0.6952 -1.2327 -0.7264
  315MOL0     H41548   3.231  -0.852   3.492  0.9051 -0.5631 -0.5349
  315MOL0     H41549   3.271  -0.732   3.374  0.4593 -0.7276  2.7443
  315MOL0     H41550   3.087  -0.811   3.233 -2.8319  1.8289  2.5127
  315MOL0     H41551   3.052  -0.952   3.336  2.4833 -2.0066  2.2696
  315MOL0     H41552   3.316  -0.913   3.182  2.1334 -3.4549 -0.7527
  315MOL0     H41553   3.285  -1.030   3.311  0.3569  0.0831  1.0000
  315MOL0     H41554   3.115  -0.968   3.061  1.3516  0.3451  0.4488
  315MOL0     H41555   3.075  -1.101   3.179 -0.8300  1.4979  0.5097
  315MOL0     H41556   3.282  -1.207   3.135 -0.4998  1.5244  1.7642
  315MOL0     H41557   3.321  -1.086   3.006 -0.3799  2.5182  0.7863
  315MOL0     H41558   3.092  -1.301   2.992  2.3187 -3.2366 -2.5793
  315MOL0     H41559   3.120  -1.159   2.888 -4.7436 -2.0144  1.1433
  315MOL0     H41560   3.313  -1.405   2.938 -0.2009 -0.4567  0.2043
  315MOL0     H41561   3.324  -1.291   2.816 -0.6706 -0.9677 -0.8011
  315MOL0     H41562   2.874  -0.595   3.584  2.0111 -1.0629 -0.3132
  315MOL0     H41563   2.757  -0.402   3.710 -0.0858 -0.3103 -0.6205
  315MOL0     H41564   2.773  -0.035   3.878  0.0742 -2.5273 -0.5532
  315MOL0     H41565   2.626   0.150   3.951  1.5439  1.3868  2.2063
  315MOL0     H41566   3.007   0.651   6.033  0.4569 -0.4028  1.8480
  315MOL0     H41567   3.128   0.621   6.250 -2.3152 -3.1314 -0.1565
  315MOL0     H41568   3.362   0.294   6.376 -2.3321  0.2058  2.2224
  315MOL0     H41569   3.413   0.155   6.554  0.4025 -0.3272 -2.8329
  315MOL0     H41570   3.805   0.143   6.782  1.0234 -3.1383  0.8106
  315MOL0     H41571   3.814   0.134   6.619 -2.2569  0.3675 -1.5072
  315MOL0     H41572   3.843  -0.092   6.718  1.1096  0.3393 -0.9756
  315MOL0     H41573   3.692  -0.089   6.796 -2.3087 -0.4197 -0.5075
  315MOL0     H41574   3.673  -0.041   6.494 -2.1382  1.8867  0.9265
  315MOL0     H41575   3.551  -0.090   6.606 -0.1164  1.3356 -1.3314
  315MOL0     H41576   3.634  -0.281   6.451  0.6358  2.4096 -1.7315
  315MOL0     H41577   3.792  -0.270   6.519 -0.5313 -0.5954 -0.5833
  315MOL0     H41578   3.550  -0.469   6.812  1.0675 -2.0176 -1.5848
  315MOL0     H41579   3.786   0.355   6.616 -1.1765  1.1529  1.5071
  315MOL0     H41580   3.720   0.513   6.424 -2.9180  4.4432  2.0542
  316MOL0     O41581   9.395   5.660   9.926 -0.3721 -0.4233 -0.1952
  316MOL0     C41582   9.515   5.658   9.932 -1.1854 -0.2310  0.7394
  316MOL0     O41583   9.601   5.764   9.931 -0.3287 -0.2655 -0.3861
  316MOL0     C41584   9.555   5.894   9.928 -1.0667  0.2645  1.0045
  316MOL0     C41585   9.473   5.945  10.022 -0.3615  0.6277  0.1005
  316MOL0     C41586   9.438   6.079  10.027  0.6770 -0.4187  0.0606
  316MOL0     C41587   9.488   6.169   9.931 -0.2289  0.3942  0.7184
  316MOL0     O41588   9.461   6.310   9.919 -0.4562  0.4656 -0.4579
  316MOL0     C41589   9.448   6.386  10.041 -0.2968  0.1737  0.5889
  316MOL0     C41590   9.515   6.525  10.018 -0.0946  0.5354 -0.3718
  316MOL0     C41591   9.418   6.624   9.937 -0.0537  0.5482 -0.2969
  316MOL0     C41592   9.500   6.723   9.853 -0.0599  0.1985  0.2749
  316MOL0     C41593   9.548   6.831   9.943 -0.1361 -0.0071  0.2662
  316MOL0     C41594   9.646   6.929   9.871  0.7661  0.7629 -0.1763
  316MOL0     C41595   9.599   6.999   9.738  0.0757  0.2816  0.3759
  316MOL0     C41596   9.693   7.127   9.710 -1.2741 -0.4854 -0.5858
  316MOL0     N41597   9.837   7.080   9.697  0.3285 -0.2632  0.2385
  316MOL0     C41598   9.930   7.148   9.773  0.3163  0.0090  0.2440
  316MOL0     C41599  10.047   7.078   9.745  0.2991  0.1952  1.1724
  316MOL0     C41600  10.186   7.111   9.793 -0.8957 -0.2010  0.2953
  316MOL0     C41601  10.214   7.036   9.930  1.0913  0.5243 -0.6735
  316MOL0     C41602  10.178   7.132  10.039  0.3257 -0.9515  0.8683
  316MOL0     C41603  10.236   7.091  10.174 -0.8579  0.0700  0.0587
  316MOL0     O41604  10.198   7.185  10.268  0.3301 -0.3497 -0.0256
  316MOL0     C41605  10.214   7.146  10.399 -0.2690  0.3745  0.3299
  316MOL0     C41606  10.183   7.246  10.496  0.1587  0.0031 -0.0343
  316MOL0     C41607  10.194   7.211  10.637 -0.9435 -0.2268 -0.2073
  316MOL0     C41608  10.240   7.086  10.684  0.2707 -0.0844  0.5732
  316MOL0     C41609  10.247   7.042  10.825 -0.0107  0.1063  0.0744
  316MOL0     O41610  10.251   7.146  10.915 -0.1058  0.3528 -1.5052
  316MOL0     C41611  10.269   7.115  11.055  0.9998  0.1026 -0.2231
  316MOL0     C41612  10.223   7.214  11.146  0.3734 -0.5358  0.2708
  316MOL0     C41613  10.261   7.215  11.279  0.7900 -0.3006 -0.6222
  316MOL0     C41614  10.352   7.122  11.334  0.1400 -0.6052 -1.2711
  316MOL0     O41615  10.385   7.115  11.466 -1.5280  0.1401  0.6461
  316MOL0     C41616  10.352   7.221  11.552 -0.7846  0.2831  0.6223
  316MOL0     C41617  10.421   7.197  11.682 -0.5701 -0.2198 -0.1926
  316MOL0     C41618  10.342   7.084  11.756  0.5806  0.6006 -0.5818
  316MOL0     C41619  10.421   7.053  11.882 -0.6752  0.9251 -0.9671
  316MOL0     C41620  10.339   6.944  11.963 -0.6692 -1.5442 -0.9028
  316MOL0     C41621  10.388   6.945  12.110 -0.7950  0.5366 -0.7301
  316MOL0     C41622  10.320   6.852  12.218  0.4094 -0.6624 -0.4670
  316MOL0     C41623  10.177   6.906  12.263 -0.0727  0.4798 -0.9225
  316MOL0    Cl41624  10.157   7.069  12.323  0.2095 -0.3356  0.0144
  316MOL0     C41625  10.396   7.024  11.240  0.3370  0.3093 -0.0712
  316MOL0     C41626  10.342   7.015  11.111  1.0891  0.0000  0.4903
  316MOL0     O41627  10.249   6.924  10.842 -0.0105  0.7981 -0.1388
  316MOL0     C41628  10.293   7.002  10.589 -0.3591 -0.7877  0.8881
  316MOL0     C41629  10.275   7.027  10.456  0.2684  0.0757  0.1155
  316MOL0     N41630  10.017   6.971   9.670  0.7471 -0.5012 -0.3183
  316MOL0     N41631   9.888   6.964   9.640 -0.9187 -0.4005 -0.3968
  316MOL0     C41632   9.578   6.114   9.829  0.3872 -0.1707 -0.1383
  316MOL0     C41633   9.616   5.979   9.830 -0.2003  0.6418 -0.5024
  316MOL0     C41634   9.575   5.525   9.965 -0.1629 -0.6984 -0.3827
  316MOL0     C41635   9.507   5.418  10.030  0.6379  0.4976  0.5400
  316MOL0     C41636   9.573   5.310  10.085  0.4538  0.0525 -0.1968
  316MOL0     C41637   9.702   5.286  10.063  0.7278 -1.1319 -0.8881
  316MOL0     O41638   9.748   5.172  10.118 -0.2094 -0.5714 -0.3499
  316MOL0     C41639   9.894   5.137  10.105  0.8735  0.2676  0.3226
  316MOL0     C41640   9.933   5.041  10.209  0.0425  0.7879 -0.0275
  316MOL0     C41641   9.838   4.912  10.207 -0.0680 -0.4644  1.5010
  316MOL0     C41642   9.922   4.794  10.268  0.1526  0.0711 -0.0491
  316MOL0     C41643   9.936   4.805  10.414  1.1282  0.4465  0.0544
  316MOL0     C41644   9.954   4.809  10.535  0.3852 -1.3534 -0.2634
  316MOL0     C41645   9.781   5.389  10.018 -0.1421 -0.2906 -0.5218
  316MOL0     C41646   9.713   5.499   9.955 -0.5704 -0.2811 -0.0725
  316MOL0     H41647   9.452   5.875  10.103 -0.6928  3.9340  3.1557
  316MOL0     H41648   9.393   6.131  10.110  3.2359  2.0826  0.0132
  316MOL0     H41649   9.506   6.337  10.120  2.9589  0.8998 -1.1706
  316MOL0     H41650   9.343   6.400  10.068 -1.1015 -5.8071  2.0892
  316MOL0     H41651   9.610   6.505   9.968  2.0137  1.8606  2.7923
  316MOL0     H41652   9.541   6.573  10.113 -2.3437  0.3936  0.3773
  316MOL0     H41653   9.354   6.674  10.010 -1.8600 -1.1335 -0.6527
  316MOL0     H41654   9.352   6.568   9.871  1.2686 -0.1243 -1.0936
  316MOL0     H41655   9.576   6.672   9.793  0.4721  1.4852 -0.1895
  316MOL0     H41656   9.428   6.758   9.779 -0.2666 -0.2589  0.2611
  316MOL0     H41657   9.603   6.778  10.021  0.3890 -0.3925 -0.3530
  316MOL0     H41658   9.454   6.877   9.974 -2.9289 -2.7281 -3.2516
  316MOL0     H41659   9.741   6.876   9.864  0.0456 -0.7972  1.1529
  316MOL0     H41660   9.647   7.002   9.952  0.3212 -0.0607  0.5940
  316MOL0     H41661   9.599   6.930   9.654 -4.0983 -0.5944  0.8592
  316MOL0     H41662   9.499   7.042   9.753 -0.2807 -0.5797  0.5429
  316MOL0     H41663   9.685   7.202   9.789 -4.3508  0.3355 -1.5541
  316MOL0     H41664   9.667   7.166   9.611  2.2562 -1.9521 -2.2686
  316MOL0     H41665   9.915   7.236   9.834 -3.7201 -0.3128 -0.0311
  316MOL0     H41666  10.199   7.219   9.783 -1.2487 -0.2940 -1.6221
  316MOL0     H41667  10.248   7.066   9.715 -2.3672 -2.3176  0.2556
  316MOL0     H41668  10.322   7.018   9.929  1.0639  0.2939  0.0851
  316MOL0     H41669  10.167   6.938   9.941  1.5445  0.3385 -0.3663
  316MOL0     H41670  10.207   7.232  10.006 -2.3835 -0.4043 -0.0707
  316MOL0     H41671  10.070   7.139  10.051  0.0142 -3.0274 -0.1447
  316MOL0     H41672  10.345   7.076  10.170 -0.6494  1.2111  0.7710
  316MOL0     H41673  10.187   6.995  10.190 -3.2765  1.0518 -0.9736
  316MOL0     H41674  10.147   7.343  10.465  1.5278 -0.4971 -3.7419
  316MOL0     H41675  10.160   7.289  10.704 -3.5411  0.3256 -1.9847
  316MOL0     H41676  10.153   7.287  11.106 -0.6772 -2.4179 -1.5135
  316MOL0     H41677  10.217   7.294  11.339  0.1355 -3.5899  3.6242
  316MOL0     H41678  10.244   7.214  11.571 -1.7750 -0.0494 -3.8907
  316MOL0     H41679  10.376   7.322  11.517  1.3290 -0.6165 -0.7340
  316MOL0     H41680  10.424   7.291  11.738  1.5521  0.9728 -2.1195
  316MOL0     H41681  10.527   7.171  11.684 -0.5486 -0.0870  1.9913
  316MOL0     H41682  10.341   6.992  11.697  1.0722  0.5296 -0.4862
  316MOL0     H41683  10.239   7.118  11.769  1.1650  2.2733 -0.1693
  316MOL0     H41684  10.516   7.006  11.856 -0.3858  0.6203  0.5352
  316MOL0     H41685  10.427   7.143  11.943 -1.1092  0.3514 -0.0508
  316MOL0     H41686  10.361   6.845  11.924  3.6695 -0.3457 -2.0019
  316MOL0     H41687  10.233   6.971  11.951  0.3871  3.7763 -0.6939
  316MOL0     H41688  10.381   7.041  12.161 -3.4401  0.0343 -0.0276
  316MOL0     H41689  10.491   6.908  12.106 -0.1801  2.0211  0.5529
  316MOL0     H41690  10.305   6.753  12.174 -2.1638  0.0908 -1.4624
  316MOL0     H41691  10.389   6.841  12.303  0.2029 -1.9418 -0.4378
  316MOL0     H41692  10.133   6.851  12.346 -0.9969  0.3067 -1.5106
  316MOL0     H41693  10.103   6.894  12.183 -0.2026 -0.5021 -0.6757
  316MOL0     H41694  10.451   6.933  11.262  0.6334  1.1038  2.8895
  316MOL0     H41695  10.385   6.948  11.036 -0.7407  1.9635 -2.5283
  316MOL0     H41696  10.329   6.904  10.619 -0.7933 -0.6951  1.7146
  316MOL0     H41697  10.315   6.948  10.393 -1.5452 -2.5701  2.0351
  316MOL0     H41698   9.621   6.182   9.757 -0.8497  1.1917  0.3530
  316MOL0     H41699   9.701   5.953   9.769  0.6801 -1.1519  1.3522
  316MOL0     H41700   9.405   5.414  10.067  0.9428  0.5564  1.3993
  316MOL0     H41701   9.510   5.236  10.133  0.3380 -0.1944 -0.7324
  316MOL0     H41702   9.954   5.223  10.135 -0.8108  2.2141 -1.6085
  316MOL0     H41703   9.930   5.107  10.006  2.6420 -0.8679  1.2400
  316MOL0     H41704  10.040   5.024  10.191 -0.3468 -2.2566  0.0941
  316MOL0     H41705   9.925   5.087  10.308 -3.8534  1.0516 -0.3331
  316MOL0     H41706   9.809   4.888  10.104  0.0658  0.1299  1.3188
  316MOL0     H41707   9.747   4.938  10.261 -2.4322  0.0806 -2.3657
  316MOL0     H41708   9.872   4.699  10.250  3.0396 -1.4880 -0.3250
  316MOL0     H41709  10.021   4.796  10.222  0.6648  1.2562  1.0108
  316MOL0     H41710   9.981   4.834  10.636  2.0107  1.9731 -1.3542
  316MOL0     H41711   9.888   5.383   9.999  0.0006  0.6779 -0.0803
  316MOL0     H41712   9.779   5.564   9.899  1.7395 -1.0155  1.6436
  317MOL0     O41713   4.963   7.459   8.555 -0.4164 -0.0214  0.0062
  317MOL0     C41714   4.888   7.389   8.494  0.1133 -0.1366 -0.0759
  317MOL0     O41715   4.892   7.370   8.358 -0.0752 -0.3454 -0.4079
  317MOL0     C41716   4.987   7.451   8.297 -0.4047  0.8773  0.0777
  317MOL0     C41717   5.122   7.421   8.305 -0.3083 -0.4410  1.0994
  317MOL0     C41718   5.222   7.485   8.225 -0.1547 -0.2732 -0.7387
  317MOL0     C41719   5.180   7.583   8.129  0.4228  0.3773  0.6076
  317MOL0     O41720   5.250   7.664   8.045 -0.1562  0.5516 -0.4527
  317MOL0     C41721   5.379   7.615   8.019 -0.8706 -1.3186  0.4331
  317MOL0     C41722   5.383   7.486   7.941  0.4342  0.2939  1.0295
  317MOL0     C41723   5.522   7.426   7.900  0.1627  0.0333  0.3490
  317MOL0     C41724   5.493   7.295   7.816 -0.8301  0.1992  0.4428
  317MOL0     C41725   5.626   7.231   7.765  0.5299  0.4829 -1.0635
  317MOL0     C41726   5.724   7.303   7.685 -0.4447  1.1075  0.4333
  317MOL0     C41727   5.809   7.211   7.584  0.9020 -0.5990  0.5234
  317MOL0     C41728   5.904   7.118   7.645 -0.3194  0.3989  0.4352
  317MOL0     N41729   6.025   7.097   7.561 -0.0293  0.1671 -1.0340
  317MOL0     C41730   6.133   7.173   7.562 -0.8988  0.3521  1.0934
  317MOL0     C41731   6.222   7.095   7.496  0.3989  0.6056  0.0861
  317MOL0     C41732   6.357   7.124   7.446 -0.2645 -1.0332 -0.6259
  317MOL0     C41733   6.389   7.268   7.399 -0.1434  0.3100  0.3625
  317MOL0     C41734   6.300   7.316   7.278  0.3248 -0.2488  0.3072
  317MOL0     C41735   6.344   7.462   7.240 -0.2222 -1.0784 -0.5613
  317MOL0     O41736   6.312   7.565   7.343  0.3751  0.0398  0.3778
  317MOL0     C41737   6.188   7.577   7.397 -0.5241  0.1667  0.2320
  317MOL0     C41738   6.079   7.519   7.337 -0.1940  1.0323 -0.5749
  317MOL0     C41739   5.957   7.538   7.392  0.6239  0.0638 -0.2743
  317MOL0     C41740   5.937   7.622   7.506 -0.4191 -0.3604  0.1721
  317MOL0     C41741   5.793   7.656   7.543  0.4457 -0.7545  0.7045
  317MOL0     O41742   5.706   7.636   7.446  0.5729 -0.5567 -0.6791
  317MOL0     C41743   5.576   7.653   7.472  0.4822  0.6969 -1.0829
  317MOL0     C41744   5.526   7.787   7.486 -0.5947 -0.1398  0.8111
  317MOL0     C41745   5.392   7.803   7.520 -0.1256 -0.0557 -0.6708
  317MOL0     C41746   5.300   7.700   7.534  0.4757  0.4210 -0.4984
  317MOL0     O41747   5.179   7.732   7.573  0.7491  0.7125 -0.3331
  317MOL0     C41748   5.161   7.809   7.686  0.7520  0.3773 -0.8718
  317MOL0     C41749   5.050   7.912   7.649 -0.6768  0.8744  0.0026
  317MOL0     C41750   4.921   7.847   7.579 -0.5339 -0.4613 -0.1909
  317MOL0     C41751   4.829   7.972   7.551 -0.6172 -0.3215  0.4292
  317MOL0     C41752   4.679   7.950   7.537  0.5040 -0.8284  0.5254
  317MOL0     C41753   4.635   7.847   7.432  0.6727  0.1055  0.3560
  317MOL0     C41754   4.484   7.833   7.413 -0.0783 -1.3143  0.4311
  317MOL0     C41755   4.428   7.861   7.275 -0.0110  1.0168  0.2003
  317MOL0    Cl41756   4.458   7.723   7.166 -0.2759  0.0136  0.2646
  317MOL0     C41757   5.347   7.574   7.517 -0.3265  0.1412 -0.5340
  317MOL0     C41758   5.486   7.545   7.494 -0.5722  0.0265 -0.0005
  317MOL0     O41759   5.771   7.711   7.653 -0.4290  0.0884  0.4564
  317MOL0     C41760   6.057   7.663   7.570  0.3931 -0.8291 -0.8771
  317MOL0     C41761   6.179   7.641   7.515 -0.6803  0.0520  0.8481
  317MOL0     N41762   6.162   6.978   7.466  0.0300 -0.1321  0.8368
  317MOL0     N41763   6.040   6.980   7.495  0.7583  0.0885  0.5076
  317MOL0     C41764   5.045   7.607   8.124  0.2857 -0.0197 -0.1121
  317MOL0     C41765   4.947   7.547   8.208  0.3653  0.2857  0.1005
  317MOL0     C41766   4.781   7.323   8.572  0.2658 -0.5413 -1.3634
  317MOL0     C41767   4.768   7.343   8.712 -0.2369  0.3617  0.6509
  317MOL0     C41768   4.674   7.268   8.783  0.5055 -0.3228 -1.1226
  317MOL0     C41769   4.587   7.184   8.725 -0.2540 -0.3970 -0.0103
  317MOL0     O41770   4.502   7.119   8.806  0.9705 -0.1993  0.2177
  317MOL0     C41771   4.478   6.978   8.790 -0.1989  0.6535  0.0101
  317MOL0     C41772   4.397   6.912   8.905 -0.8977 -0.0989 -0.7126
  317MOL0     C41773   4.409   6.756   8.897  0.2360 -0.2635  0.0349
  317MOL0     C41774   4.358   6.680   9.031 -0.5646 -0.4758  1.1181
  317MOL0     C41775   4.455   6.701   9.133  0.1082  0.0338 -1.5229
  317MOL0     C41776   4.516   6.707   9.229 -0.3268  0.3026 -0.1493
  317MOL0     C41777   4.591   7.162   8.589 -0.2539 -0.0676  0.6019
  317MOL0     C41778   4.696   7.235   8.510 -0.1885 -0.4462 -0.4467
  317MOL0     H41779   5.150   7.335   8.364 -1.0061 -1.8511 -0.5324
  317MOL0     H41780   5.322   7.451   8.251  0.4963  2.9040  1.5581
  317MOL0     H41781   5.425   7.613   8.118 -2.8883  0.8602  1.5359
  317MOL0     H41782   5.430   7.697   7.967 -1.1503  0.2969  2.5462
  317MOL0     H41783   5.329   7.505   7.848 -1.9649  1.2175  2.5253
  317MOL0     H41784   5.328   7.411   7.999 -0.8779  1.2604  1.0773
  317MOL0     H41785   5.576   7.417   7.995  1.0565 -2.1959 -0.2926
  317MOL0     H41786   5.582   7.485   7.830  3.4072 -3.9657 -0.6515
  317MOL0     H41787   5.442   7.221   7.878  1.6638 -0.7491  1.4738
  317MOL0     H41788   5.426   7.312   7.731 -1.0613 -1.4763  0.2727
  317MOL0     H41789   5.598   7.143   7.705  2.4890 -1.1515  0.2742
  317MOL0     H41790   5.657   7.176   7.854 -2.8993 -3.0375 -1.7530
  317MOL0     H41791   5.794   7.371   7.736  1.4813 -0.3126 -0.1957
  317MOL0     H41792   5.656   7.362   7.623  0.3666  0.5477 -1.0287
  317MOL0     H41793   5.735   7.162   7.521 -1.9355  4.0447 -0.2200
  317MOL0     H41794   5.855   7.273   7.507  0.6972 -0.9843  0.0845
  317MOL0     H41795   5.853   7.024   7.670 -3.7735  1.2445 -2.5987
  317MOL0     H41796   5.937   7.160   7.741  2.6899 -1.7318  0.4851
  317MOL0     H41797   6.146   7.276   7.593 -2.6076  1.2733 -0.9270
  317MOL0     H41798   6.383   7.054   7.366 -1.4414 -2.7401  0.4130
  317MOL0     H41799   6.415   7.102   7.537 -0.9861 -2.6985 -0.5327
  317MOL0     H41800   6.495   7.278   7.377  0.0921 -0.6224  1.0149
  317MOL0     H41801   6.378   7.329   7.489  1.1831 -2.2592  2.3927
  317MOL0     H41802   6.309   7.262   7.183 -0.7193  1.3141 -0.7218
  317MOL0     H41803   6.197   7.297   7.308  1.0915 -0.1420  3.2830
  317MOL0     H41804   6.307   7.502   7.145 -2.4419  1.7758  1.3300
  317MOL0     H41805   6.452   7.464   7.228 -0.2432 -0.4141 -0.6639
  317MOL0     H41806   6.089   7.452   7.251  0.6265 -1.9371  1.6717
  317MOL0     H41807   5.879   7.489   7.335  0.5295  1.1830 -1.1366
  317MOL0     H41808   5.591   7.868   7.456 -1.0253 -0.1786 -0.2619
  317MOL0     H41809   5.361   7.904   7.545  3.8026  1.3967 -0.9616
  317MOL0     H41810   5.252   7.854   7.727  2.5567 -3.4467 -0.3067
  317MOL0     H41811   5.116   7.743   7.760  2.1714 -0.5165 -0.7697
  317MOL0     H41812   5.087   7.986   7.577  0.2677 -2.2896 -3.0025
  317MOL0     H41813   5.030   7.972   7.739  0.3805  4.7703 -2.1238
  317MOL0     H41814   4.866   7.779   7.645 -2.9117  1.3732 -0.1615
  317MOL0     H41815   4.940   7.797   7.484 -3.0331  1.4981 -1.8424
  317MOL0     H41816   4.841   8.042   7.635  0.8386 -0.2543  0.1869
  317MOL0     H41817   4.870   8.026   7.465 -0.1583  2.9843  2.5164
  317MOL0     H41818   4.639   8.050   7.514  4.1287  0.2801 -2.0189
  317MOL0     H41819   4.644   7.915   7.634  0.8419  0.6525  1.2096
  317MOL0     H41820   4.655   7.743   7.462 -3.2865 -0.3255  2.1413
  317MOL0     H41821   4.687   7.858   7.337  0.6134 -1.4271  0.1151
  317MOL0     H41822   4.441   7.740   7.450 -1.9069 -0.0132  1.7043
  317MOL0     H41823   4.430   7.913   7.463 -0.7048 -0.2151 -1.8784
  317MOL0     H41824   4.477   7.953   7.241 -1.0285  1.6650  0.4470
  317MOL0     H41825   4.321   7.882   7.282  0.0732  0.9889  2.0153
  317MOL0     H41826   5.275   7.492   7.520  1.7934 -1.7959  0.5840
  317MOL0     H41827   5.511   7.440   7.491 -3.4921 -0.7217 -1.4916
  317MOL0     H41828   6.043   7.729   7.655  0.7085 -0.4727 -1.1002
  317MOL0     H41829   6.269   7.689   7.553  0.4145 -0.4747 -0.9497
  317MOL0     H41830   5.005   7.684   8.059 -2.0011 -3.1071 -2.7049
  317MOL0     H41831   4.844   7.581   8.201  0.3585 -0.0866 -4.5500
  317MOL0     H41832   4.838   7.409   8.763  1.1843  1.2345 -2.2062
  317MOL0     H41833   4.659   7.268   8.890 -1.9620  0.1044 -1.4033
  317MOL0     H41834   4.577   6.931   8.787 -0.9204 -0.9582  0.3202
  317MOL0     H41835   4.433   6.964   8.692 -0.1307 -1.4950  0.2261
  317MOL0     H41836   4.432   6.935   9.006  0.8099  0.6650 -1.4446
  317MOL0     H41837   4.297   6.955   8.905 -0.3948  1.1008 -1.3706
  317MOL0     H41838   4.513   6.739   8.868  0.6922  1.7322  0.3604
  317MOL0     H41839   4.344   6.723   8.814  0.3023 -0.2744 -0.0123
  317MOL0     H41840   4.262   6.721   9.065 -0.2729  0.6983  0.5608
  317MOL0     H41841   4.355   6.571   9.018  2.1480 -0.5698  0.9123
  317MOL0     H41842   4.568   6.712   9.322 -1.0366  2.1065  0.1856
  317MOL0     H41843   4.513   7.103   8.541 -0.2260  0.2863  0.1190
  317MOL0     H41844   4.704   7.220   8.403 -1.5026  0.4372 -0.6955
  318MOL0     O41845   0.361   4.263   9.282 -0.2139 -0.1328 -0.9274
  318MOL0     C41846   0.411   4.338   9.196 -0.0227 -1.2113 -0.4687
  318MOL0     O41847   0.506   4.315   9.112 -0.9154 -0.1615  0.5509
  318MOL0     C41848   0.567   4.197   9.109 -0.6806 -0.4879  0.1229
  318MOL0     C41849   0.497   4.076   9.097 -0.1329  0.3763  0.4735
  318MOL0     C41850   0.561   3.956   9.094 -0.6895  0.3308 -0.2107
  318MOL0     C41851   0.704   3.948   9.124  0.4168 -0.5130 -0.3486
  318MOL0     O41852   0.771   3.833   9.128  0.7342 -0.2359  0.0437
  318MOL0     C41853   0.850   3.818   9.242  0.5025  0.0705  0.1252
  318MOL0     C41854   0.924   3.682   9.231 -0.0083 -0.5428  1.0531
  318MOL0     C41855   1.058   3.686   9.159  0.7832  0.5366 -0.3933
  318MOL0     C41856   1.052   3.729   9.009 -0.2419 -0.2578  0.9344
  318MOL0     C41857   1.189   3.737   8.934  0.4213 -0.1411 -0.2165
  318MOL0     C41858   1.268   3.861   8.976  1.2723 -0.6924 -0.3541
  318MOL0     C41859   1.210   4.000   8.926  0.1354  0.7292 -0.7554
  318MOL0     C41860   1.264   4.126   8.994  0.4475  0.3844  1.1596
  318MOL0     N41861   1.232   4.125   9.138 -0.8987 -0.1881  0.2560
  318MOL0     C41862   1.325   4.110   9.240 -0.2360 -1.0291  0.5579
  318MOL0     C41863   1.241   4.112   9.346  0.2292  0.3667  0.3715
  318MOL0     C41864   1.290   4.071   9.481 -0.4787  0.2965  0.3400
  318MOL0     C41865   1.306   3.919   9.501 -1.2240  0.8461  0.3993
  318MOL0     C41866   1.191   3.856   9.575  0.4001 -0.3684 -0.0247
  318MOL0     C41867   1.214   3.710   9.614  0.9606 -0.6112  0.7020
  318MOL0     O41868   1.087   3.662   9.661 -0.0549  0.0143 -0.6520
  318MOL0     C41869   1.088   3.530   9.703 -0.0638 -0.8071 -0.1804
  318MOL0     C41870   1.195   3.448   9.677  0.3570  0.1594 -0.7880
  318MOL0     C41871   1.183   3.306   9.697  0.8306 -0.2720 -0.1545
  318MOL0     C41872   1.070   3.256   9.773  1.0260  0.2831  0.4943
  318MOL0     C41873   1.058   3.115   9.806 -0.7489  0.7102  0.0389
  318MOL0     O41874   1.129   3.028   9.729 -0.5339  0.0896 -0.0218
  318MOL0     C41875   1.130   2.891   9.753 -0.6791 -0.0158 -0.7304
  318MOL0     C41876   1.140   2.802   9.646 -0.8335  0.3653 -0.0924
  318MOL0     C41877   1.184   2.670   9.655 -0.4256  0.7022 -0.9266
  318MOL0     C41878   1.221   2.619   9.786  0.6905 -0.9057  0.6757
  318MOL0     O41879   1.280   2.497   9.784 -0.0241  0.2575 -0.6557
  318MOL0     C41880   1.271   2.434   9.913 -0.6270  0.2389  0.0334
  318MOL0     C41881   1.287   2.283   9.896 -0.9458 -0.4657  0.6470
  318MOL0     C41882   1.333   2.210  10.020  0.1190  0.0586 -0.2941
  318MOL0     C41883   1.383   2.060   9.993  1.4137 -0.0619 -1.3783
  318MOL0     C41884   1.258   1.976   9.968 -0.1939  0.1739 -0.5441
  318MOL0     C41885   1.275   1.828  10.026 -0.6429 -0.0609 -0.5857
  318MOL0     C41886   1.175   1.735   9.941  0.0557  0.2671 -0.1036
  318MOL0     C41887   1.245   1.668   9.820  0.8191  0.0749 -0.3016
  318MOL0    Cl41888   1.127   1.552   9.741 -0.4030  0.3575 -0.3214
  318MOL0     C41889   1.225   2.707   9.897  0.4360 -0.7148  0.0083
  318MOL0     C41890   1.171   2.846   9.883  0.9815  0.8918 -0.3020
  318MOL0     O41891   0.983   3.087   9.905 -0.3324  0.0061  0.0875
  318MOL0     C41892   0.964   3.350   9.808  0.4125  0.6731 -1.1516
  318MOL0     C41893   0.968   3.478   9.757 -0.0508 -1.3624 -0.1224
  318MOL0     N41894   1.106   4.137   9.307  0.1335 -0.7985 -0.7178
  318MOL0     N41895   1.106   4.127   9.184  0.0996 -0.3207  0.1281
  318MOL0     C41896   0.767   4.075   9.123  0.3395  0.0741 -0.5254
  318MOL0     C41897   0.702   4.197   9.117 -0.0545 -0.1376  0.4676
  318MOL0     C41898   0.341   4.473   9.193 -0.1457 -0.2266 -0.1254
  318MOL0     C41899   0.229   4.512   9.273 -0.1151  0.7247 -0.2541
  318MOL0     C41900   0.168   4.632   9.262 -0.1314 -0.3151 -0.3986
  318MOL0     C41901   0.230   4.731   9.188 -0.1058 -1.4373  0.6236
  318MOL0     O41902   0.176   4.857   9.203 -0.2774 -0.1986  0.4619
  318MOL0     C41903   0.247   4.971   9.147  0.2284  0.1258 -0.1191
  318MOL0     C41904   0.372   5.034   9.213  0.1228  0.6412  0.4957
  318MOL0     C41905   0.432   5.139   9.122  0.0535 -0.3050  0.7045
  318MOL0     C41906   0.538   5.212   9.197 -0.6260 -0.7227 -0.3310
  318MOL0     C41907   0.573   5.330   9.116 -0.6306 -0.7265 -0.0111
  318MOL0     C41908   0.585   5.439   9.058  0.1642  0.0667 -0.3872
  318MOL0     C41909   0.342   4.703   9.109 -0.9558  0.2498  0.8447
  318MOL0     C41910   0.392   4.568   9.100  0.7663  0.5341 -0.0863
  318MOL0     H41911   0.390   4.077   9.079 -0.1091 -1.4525  0.0729
  318MOL0     H41912   0.506   3.863   9.087 -0.6172  0.2828 -0.1385
  318MOL0     H41913   0.781   3.821   9.326  1.6837  2.3368  1.0944
  318MOL0     H41914   0.921   3.899   9.259 -0.0321 -0.1512  4.4806
  318MOL0     H41915   0.860   3.617   9.169 -0.5915  1.0068 -0.0410
  318MOL0     H41916   0.936   3.649   9.334  0.8786 -0.9469  0.8274
  318MOL0     H41917   1.096   3.583   9.155 -1.5985 -0.4443  0.6933
  318MOL0     H41918   1.137   3.743   9.209  1.9780  0.0120 -1.6253
  318MOL0     H41919   0.994   3.658   8.950  1.8876 -1.2063 -0.1325
  318MOL0     H41920   1.004   3.827   9.004  0.9420  0.2755 -0.7143
  318MOL0     H41921   1.164   3.747   8.828  0.2584 -1.5900 -0.3389
  318MOL0     H41922   1.249   3.651   8.962  2.4190  1.4979  0.7809
  318MOL0     H41923   1.365   3.833   8.934  3.1563 -0.1859  3.2474
  318MOL0     H41924   1.283   3.863   9.085 -0.1198  3.0494 -0.1097
  318MOL0     H41925   1.225   4.012   8.818  1.6122 -0.2806 -0.6965
  318MOL0     H41926   1.101   4.004   8.936  0.0314 -2.1450  0.1468
  318MOL0     H41927   1.224   4.217   8.949 -4.3056 -1.1493  1.7701
  318MOL0     H41928   1.372   4.126   8.972  0.7893  0.4419  2.7006
  318MOL0     H41929   1.433   4.100   9.238  0.0282  0.7090  2.4359
  318MOL0     H41930   1.221   4.111   9.556 -1.4674 -2.7617  1.2380
  318MOL0     H41931   1.388   4.111   9.506  0.2197 -1.0949 -0.0456
  318MOL0     H41932   1.404   3.899   9.546 -0.0276  0.9128 -2.0298
  318MOL0     H41933   1.310   3.866   9.406 -0.2493 -1.2568  1.5507
  318MOL0     H41934   1.183   3.903   9.673  3.2001  2.0131 -0.8321
  318MOL0     H41935   1.092   3.864   9.529  1.0152  2.1805 -1.0201
  318MOL0     H41936   1.286   3.716   9.696  0.9116  4.1250  0.6777
  318MOL0     H41937   1.237   3.651   9.525 -0.4134 -1.3682  0.8233
  318MOL0     H41938   1.286   3.471   9.623  2.2416 -0.9928  1.6610
  318MOL0     H41939   1.254   3.230   9.666  0.2251 -2.4203  3.1261
  318MOL0     H41940   1.123   2.843   9.547  1.2646  0.8146 -0.2983
  318MOL0     H41941   1.192   2.595   9.576  3.6419 -2.8498  2.3315
  318MOL0     H41942   1.172   2.456   9.955 -0.5480 -3.4068  2.6144
  318MOL0     H41943   1.349   2.467   9.981 -1.9388  0.5316  1.4552
  318MOL0     H41944   1.348   2.247   9.813 -2.1596 -2.5270  0.5751
  318MOL0     H41945   1.193   2.243   9.858 -0.3974 -1.4158  0.2565
  318MOL0     H41946   1.267   2.214  10.106  1.4646  0.3750  0.7636
  318MOL0     H41947   1.424   2.260  10.057  0.2634  0.5367 -1.2455
  318MOL0     H41948   1.446   2.053   9.904  2.5096  4.2172 -1.1564
  318MOL0     H41949   1.433   2.018  10.081 -0.8956 -3.6596 -1.5738
  318MOL0     H41950   1.248   1.967   9.859 -0.4834 -6.0212 -0.3790
  318MOL0     H41951   1.178   2.031  10.019 -0.4190 -0.6385  0.0050
  318MOL0     H41952   1.244   1.843  10.130 -2.0211  4.5421 -1.4677
  318MOL0     H41953   1.379   1.792  10.023  1.5377  5.2545 -0.2795
  318MOL0     H41954   1.127   1.653   9.995 -2.1464  0.5220 -1.5738
  318MOL0     H41955   1.091   1.795   9.906 -1.7160 -0.7748  2.0981
  318MOL0     H41956   1.336   1.620   9.857  1.5879  3.0596  2.1110
  318MOL0     H41957   1.273   1.750   9.754  3.2837  0.3215  0.9598
  318MOL0     H41958   1.264   2.669   9.991 -0.4850  0.1626  0.7769
  318MOL0     H41959   1.169   2.915   9.968  0.8736  2.3249 -1.4326
  318MOL0     H41960   0.873   3.310   9.852 -0.6952  2.3415 -1.8353
  318MOL0     H41961   0.877   3.537   9.763 -0.0972 -0.6751 -4.6625
  318MOL0     H41962   0.873   4.086   9.145  0.2693  3.8102 -1.3663
  318MOL0     H41963   0.756   4.291   9.120  0.4999 -0.4641  2.5901
  318MOL0     H41964   0.179   4.436   9.332  0.6582  1.2920  1.1757
  318MOL0     H41965   0.097   4.679   9.329  0.9825  2.0039 -0.7403
  318MOL0     H41966   0.173   5.051   9.151  0.1268  0.3711 -3.4485
  318MOL0     H41967   0.246   4.961   9.038 -3.2782  2.3221 -0.4255
  318MOL0     H41968   0.335   5.077   9.306 -0.6098  0.2492  0.3882
  318MOL0     H41969   0.447   4.962   9.246 -2.0026  0.3249  5.4248
  318MOL0     H41970   0.351   5.212   9.110 -0.0664 -0.4531  0.6101
  318MOL0     H41971   0.459   5.102   9.023  1.1958 -1.6824  1.5017
  318MOL0     H41972   0.499   5.239   9.296  0.1380 -0.3340 -0.1329
  318MOL0     H41973   0.630   5.154   9.207 -0.7850 -0.8138  0.6627
  318MOL0     H41974   0.581   5.538   9.016  1.0787  0.2943  0.0351
  318MOL0     H41975   0.380   4.778   9.040  1.8708 -2.5556 -0.9228
  318MOL0     H41976   0.470   4.547   9.027  0.1692  0.5735 -0.7363
  319MOL0     O41977   6.711   5.911   8.570 -0.1846  0.0442 -0.5555
  319MOL0     C41978   6.814   5.891   8.515  0.8689  0.1099  0.3193
  319MOL0     O41979   6.877   5.770   8.502 -0.2547 -0.1068  0.9912
  319MOL0     C41980   6.813   5.653   8.527 -0.9905 -0.9253  0.0041
  319MOL0     C41981   6.879   5.552   8.600  0.1176 -0.4418  1.0336
  319MOL0     C41982   6.816   5.433   8.628 -0.0197 -1.1218 -0.1988
  319MOL0     C41983   6.679   5.410   8.594 -0.5311  0.2200 -0.3147
  319MOL0     O41984   6.623   5.287   8.619 -0.4918 -0.1617  0.3711
  319MOL0     C41985   6.490   5.273   8.567  0.7694 -0.2872  1.3929
  319MOL0     C41986   6.413   5.144   8.609 -0.1613  0.2836  0.5556
  319MOL0     C41987   6.269   5.130   8.531 -0.3224  0.5372 -0.5293
  319MOL0     C41988   6.189   5.016   8.593  0.1187  0.6524  0.0147
  319MOL0     C41989   6.135   5.019   8.739 -0.2100 -0.3269  0.3921
  319MOL0     C41990   6.054   4.896   8.758 -0.1201  0.8587  0.3490
  319MOL0     C41991   5.971   4.901   8.898 -0.1105  0.3802 -0.3022
  319MOL0     C41992   6.069   4.912   9.007  0.6999  0.1993 -0.0132
  319MOL0     N41993   5.988   4.924   9.134  0.2443  0.0431  0.0337
  319MOL0     C41994   5.918   4.824   9.200  0.0100  0.3398 -1.4802
  319MOL0     C41995   5.853   4.887   9.306 -0.2932 -0.6389 -0.1157
  319MOL0     C41996   5.774   4.824   9.421  0.6075 -0.0552 -0.7236
  319MOL0     C41997   5.865   4.730   9.498  0.1201 -0.1233  0.3081
  319MOL0     C41998   5.970   4.806   9.570  0.2980  0.3917 -0.0962
  319MOL0     C41999   6.080   4.710   9.596 -1.2413 -0.0074  0.0808
  319MOL0     O42000   6.056   4.623   9.707  0.2142  0.1222 -0.6131
  319MOL0     C42001   6.137   4.519   9.725 -0.5009  0.5288  0.1864
  319MOL0     C42002   6.075   4.404   9.775  0.5778 -0.0840 -1.1272
  319MOL0     C42003   6.148   4.278   9.808  0.7907 -0.5761 -0.5925
  319MOL0     C42004   6.285   4.285   9.785 -1.0303 -0.3458  0.9013
  319MOL0     C42005   6.380   4.175   9.825 -1.1032 -1.1436 -0.0554
  319MOL0     O42006   6.342   4.106   9.938 -0.2471  0.7442  0.3872
  319MOL0     C42007   6.429   4.027  10.021 -0.0923  0.6401  0.0981
  319MOL0     C42008   6.370   3.941  10.113  0.7971  0.4517  0.1081
  319MOL0     C42009   6.451   3.884  10.221  0.0746  0.5320 -0.3027
  319MOL0     C42010   6.579   3.926  10.231 -0.6059 -0.8570 -0.1156
  319MOL0     O42011   6.669   3.890  10.326 -0.1868 -0.7890  0.1833
  319MOL0     C42012   6.641   3.779  10.405  0.6476  0.7073 -0.6324
  319MOL0     C42013   6.775   3.739  10.455 -0.3064  0.0732  0.2577
  319MOL0     C42014   6.835   3.859  10.533 -0.3682 -0.4544 -0.2800
  319MOL0     C42015   6.985   3.831  10.579 -0.0255 -0.0959  0.0466
  319MOL0     C42016   7.046   3.925  10.682  0.5541 -0.3523  0.4942
  319MOL0     C42017   6.990   3.906  10.830  0.0409  0.4947  0.1723
  319MOL0     C42018   6.982   4.050  10.903  0.6907  0.2862 -0.6431
  319MOL0     C42019   7.118   4.088  10.967 -0.6997 -0.0518  0.2033
  319MOL0    Cl42020   7.145   3.999  11.118  0.1128  0.2737 -0.5132
  319MOL0     C42021   6.642   3.991  10.123 -0.4310 -0.3096  0.0221
  319MOL0     C42022   6.570   4.036  10.021  0.6697  0.0216  0.0878
  319MOL0     O42023   6.486   4.141   9.765  0.0685  0.0570 -0.6300
  319MOL0     C42024   6.345   4.403   9.726 -0.2752 -0.5544 -0.1832
  319MOL0     C42025   6.274   4.517   9.692  0.0016  0.0621 -0.6883
  319MOL0     N42026   5.881   5.025   9.287  0.6871  0.0602  0.1171
  319MOL0     N42027   5.958   5.041   9.192 -0.3892 -0.1618  0.2493
  319MOL0     C42028   6.610   5.519   8.535 -0.7402 -0.2456 -0.7924
  319MOL0     C42029   6.680   5.637   8.495 -0.1727 -0.2946 -1.1117
  319MOL0     C42030   6.883   6.021   8.465  0.6865  0.3694 -0.7031
  319MOL0     C42031   6.823   6.151   8.459  0.0256  0.0156 -0.1924
  319MOL0     C42032   6.905   6.257   8.426  0.4702 -0.4191  0.8605
  319MOL0     C42033   7.040   6.243   8.400 -0.5308 -0.5284  0.0124
  319MOL0     O42034   7.115   6.354   8.359  0.1267  0.1177  0.0512
  319MOL0     C42035   7.137   6.376   8.225 -0.2933 -0.4474 -0.1915
  319MOL0     C42036   7.009   6.383   8.138 -0.3093  0.2686  1.1237
  319MOL0     C42037   6.935   6.507   8.170 -0.2202 -0.3053  0.4440
  319MOL0     C42038   6.779   6.486   8.158 -0.5680  0.1102  0.0578
  319MOL0     C42039   6.701   6.613   8.157 -1.2482 -0.0825  0.7531
  319MOL0     C42040   6.644   6.718   8.129 -0.2299 -0.4109  0.4779
  319MOL0     C42041   7.103   6.115   8.395  1.3043 -0.1544 -0.8053
  319MOL0     C42042   7.018   6.006   8.437  0.7351  0.2477 -0.0852
  319MOL0     H42043   6.982   5.570   8.629  0.3191 -1.0469  0.7183
  319MOL0     H42044   6.865   5.342   8.659 -1.1294 -1.8311 -0.4448
  319MOL0     H42045   6.498   5.287   8.458  2.7322 -0.0316  1.5344
  319MOL0     H42046   6.432   5.351   8.614  0.2595 -0.3756  0.9207
  319MOL0     H42047   6.389   5.140   8.716  0.1411 -1.8584  0.5961
  319MOL0     H42048   6.481   5.063   8.581 -0.7065 -0.0561  0.1858
  319MOL0     H42049   6.298   5.112   8.427  0.3437 -1.9314  0.0388
  319MOL0     H42050   6.225   5.230   8.535 -0.5764  0.3927  2.9219
  319MOL0     H42051   6.110   4.982   8.526 -0.5531  0.4777  0.8734
  319MOL0     H42052   6.253   4.929   8.578  1.9072  2.3005 -2.9376
  319MOL0     H42053   6.076   5.111   8.744 -1.0730 -0.6532 -2.0464
  319MOL0     H42054   6.221   5.006   8.805  0.7906 -0.5257 -0.8995
  319MOL0     H42055   6.121   4.810   8.756  1.2507  1.8634 -2.4984
  319MOL0     H42056   5.984   4.890   8.675  0.9044 -1.2089 -0.4429
  319MOL0     H42057   5.910   4.992   8.900  0.8036  1.0894 -2.2211
  319MOL0     H42058   5.903   4.816   8.898  1.0134 -0.5623  1.0912
  319MOL0     H42059   6.122   5.007   8.994 -1.5576  1.4889 -0.1410
  319MOL0     H42060   6.138   4.826   9.005  0.1884 -0.2154 -1.0491
  319MOL0     H42061   5.907   4.720   9.171 -0.3317  0.4467 -1.7569
  319MOL0     H42062   5.699   4.765   9.368  1.3427  1.1426 -3.2525
  319MOL0     H42063   5.725   4.895   9.489 -0.0591 -1.3319  0.1746
  319MOL0     H42064   5.914   4.666   9.424 -0.0125 -0.2365  0.3191
  319MOL0     H42065   5.812   4.675   9.576 -4.2913  0.1318 -2.1401
  319MOL0     H42066   6.005   4.888   9.507  1.6596 -0.5162 -0.5424
  319MOL0     H42067   5.930   4.843   9.665  2.0497  0.5847  0.5918
  319MOL0     H42068   6.172   4.764   9.620  0.6519 -2.8651 -0.1581
  319MOL0     H42069   6.099   4.661   9.500 -0.5138  1.8426 -0.7611
  319MOL0     H42070   5.968   4.408   9.791  0.2152 -1.9618 -2.6373
  319MOL0     H42071   6.095   4.199   9.859 -2.3555  0.2761 -2.3008
  319MOL0     H42072   6.264   3.921  10.105  1.1437 -1.3633 -0.2634
  319MOL0     H42073   6.408   3.838  10.310  0.2818 -0.4986 -0.7172
  319MOL0     H42074   6.595   3.700  10.345 -1.6661  3.0767 -2.1847
  319MOL0     H42075   6.589   3.810  10.496  2.7169 -2.8224  2.0096
  319MOL0     H42076   6.847   3.719  10.375  1.0243  1.4361  1.0754
  319MOL0     H42077   6.756   3.653  10.520 -0.3810 -0.2448 -0.1761
  319MOL0     H42078   6.771   3.861  10.622  1.1561 -3.5046  1.0222
  319MOL0     H42079   6.841   3.955  10.481 -1.6080  1.4302  2.7420
  319MOL0     H42080   6.995   3.726  10.609  1.4197  0.2414  0.8427
  319MOL0     H42081   7.054   3.858  10.499  0.4076  0.0697  0.4691
  319MOL0     H42082   7.020   4.026  10.649  0.9354  0.7725  3.3441
  319MOL0     H42083   7.154   3.915  10.693  0.7273  0.6045 -0.2393
  319MOL0     H42084   7.057   3.840  10.886 -0.8644 -0.1387  0.5432
  319MOL0     H42085   6.891   3.861  10.819  0.9475 -1.9637  1.2860
  319MOL0     H42086   6.946   4.130  10.838 -3.1601 -0.1669  0.6598
  319MOL0     H42087   6.898   4.049  10.973 -1.5964  0.0469 -3.2235
  319MOL0     H42088   7.118   4.194  10.991 -3.2240 -0.4903  2.5886
  319MOL0     H42089   7.193   4.072  10.888  0.6856 -2.4229  1.8551
  319MOL0     H42090   6.748   4.013  10.124 -0.4214 -0.3574  0.5566
  319MOL0     H42091   6.617   4.093   9.941  1.1780  2.1282  1.7942
  319MOL0     H42092   6.450   4.401   9.698 -0.5842  1.2853 -1.7136
  319MOL0     H42093   6.322   4.608   9.659 -0.8706  1.0692  0.7383
  319MOL0     H42094   6.505   5.512   8.511 -1.8982  0.9982  3.1687
  319MOL0     H42095   6.617   5.712   8.449  0.1912  1.1356  0.6109
  319MOL0     H42096   6.718   6.166   8.482 -0.8966 -0.8408 -3.3578
  319MOL0     H42097   6.860   6.355   8.421 -2.6751 -1.8077 -3.0272
  319MOL0     H42098   7.208   6.305   8.183 -0.0558 -1.4027  1.7384
  319MOL0     H42099   7.180   6.476   8.211 -0.2832 -0.4774 -0.3777
  319MOL0     H42100   7.029   6.387   8.031  0.2618 -0.6942  1.1799
  319MOL0     H42101   6.954   6.288   8.142 -0.3739  0.3336  2.0273
  319MOL0     H42102   6.961   6.585   8.099 -1.2104 -0.6463 -0.3176
  319MOL0     H42103   6.954   6.540   8.273 -0.9266 -0.0586  0.4978
  319MOL0     H42104   6.767   6.423   8.069  2.8825  0.3808 -0.7595
  319MOL0     H42105   6.752   6.444   8.255  2.8531  2.6646  2.3697
  319MOL0     H42106   6.587   6.806   8.104  0.2015 -0.6083 -1.3093
  319MOL0     H42107   7.203   6.083   8.369  1.8032 -0.1530  1.0013
  319MOL0     H42108   7.061   5.907   8.433  2.0585  0.7955  0.1044
  320MOL0     O42109   2.195   2.124   6.932 -0.2950 -0.0323  0.4202
  320MOL0     C42110   2.085   2.157   6.881  0.5657  1.0117  0.0371
  320MOL0     O42111   2.064   2.179   6.746 -0.3156  0.5198  1.0391
  320MOL0     C42112   2.169   2.183   6.662 -0.4424  0.5982  0.1608
  320MOL0     C42113   2.262   2.081   6.655 -0.5499 -0.6959 -0.0232
  320MOL0     C42114   2.368   2.085   6.557  0.4963 -0.3295 -0.3008
  320MOL0     C42115   2.378   2.204   6.473  0.9399  0.9002  1.2572
  320MOL0     O42116   2.482   2.213   6.384  0.6083  0.0652  0.5603
  320MOL0     C42117   2.460   2.196   6.238 -0.1555  0.0598 -1.2393
  320MOL0     C42118   2.584   2.277   6.189  0.5349  1.1316  0.1887
  320MOL0     C42119   2.590   2.280   6.037  0.1541 -0.9641 -0.3186
  320MOL0     C42120   2.576   2.135   5.984  0.1511  0.1568 -0.1813
  320MOL0     C42121   2.636   2.137   5.838  0.4541 -0.6264  1.0243
  320MOL0     C42122   2.594   2.008   5.766 -0.2692 -0.4427  0.2178
  320MOL0     C42123   2.639   1.994   5.621  0.9747 -0.2310 -0.5688
  320MOL0     C42124   2.610   1.862   5.547 -0.2852  0.2408  0.1142
  320MOL0     N42125   2.675   1.848   5.415  0.3182  0.9535 -0.3913
  320MOL0     C42126   2.771   1.759   5.382 -0.3312 -0.6694 -0.8860
  320MOL0     C42127   2.811   1.799   5.262  0.4669  0.0113  0.9970
  320MOL0     C42128   2.916   1.744   5.172 -0.4953  0.1029  1.4659
  320MOL0     C42129   2.851   1.639   5.090  1.2348  0.7246  0.4776
  320MOL0     C42130   2.937   1.615   4.966  0.2080 -0.1362 -0.3495
  320MOL0     C42131   2.884   1.502   4.881  0.6250  0.0418  0.3029
  320MOL0     O42132   2.933   1.375   4.938  0.5462  0.6630  0.2290
  320MOL0     C42133   2.967   1.284   4.842  0.1981  0.0784  0.0803
  320MOL0     C42134   3.055   1.185   4.874  0.0837  0.7750 -0.3714
  320MOL0     C42135   3.084   1.075   4.787 -0.1140 -0.2530 -0.4841
  320MOL0     C42136   3.014   1.050   4.665 -0.2667 -0.1548  0.0493
  320MOL0     C42137   3.035   0.933   4.576 -1.1088 -0.0680  0.1127
  320MOL0     O42138   3.103   0.827   4.630  0.8500 -0.1731 -0.4353
  320MOL0     C42139   3.140   0.718   4.560  0.5286 -0.2931  0.6083
  320MOL0     C42140   3.168   0.609   4.643  0.0652 -0.1315 -0.7253
  320MOL0     C42141   3.202   0.482   4.592  0.1825 -0.3866  0.5224
  320MOL0     C42142   3.233   0.470   4.463  1.1460 -0.6907  0.0024
  320MOL0     O42143   3.309   0.368   4.407  0.1615 -0.2567  1.2517
  320MOL0     C42144   3.234   0.241   4.393 -0.9898 -0.7209  1.1541
  320MOL0     C42145   3.295   0.149   4.283  0.4562 -1.0829 -0.4234
  320MOL0     C42146   3.246  -0.000   4.297 -1.4460  0.7357 -0.9459
  320MOL0     C42147   3.098  -0.010   4.273  0.9583 -0.6386  0.8725
  320MOL0     C42148   3.045  -0.137   4.330 -0.3227 -0.3294  0.0585
  320MOL0     C42149   3.059  -0.250   4.223 -0.7717 -0.0221  0.3176
  320MOL0     C42150   2.997  -0.383   4.293 -0.1824  0.5114 -0.4382
  320MOL0     C42151   3.045  -0.517   4.221 -0.1415 -0.3017  0.5595
  320MOL0    Cl42152   3.214  -0.527   4.261 -0.7284 -0.1819 -0.2123
  320MOL0     C42153   3.193   0.570   4.376  0.2977 -1.0672 -0.0669
  320MOL0     C42154   3.140   0.696   4.421  0.1042 -0.3584 -0.0076
  320MOL0     O42155   2.991   0.941   4.465 -0.0512  0.0983  0.9941
  320MOL0     C42156   2.928   1.161   4.628 -0.1972  0.8196 -0.3697
  320MOL0     C42157   2.911   1.272   4.711  0.4334  0.2242  0.5345
  320MOL0     N42158   2.734   1.910   5.217 -0.1515 -0.3008 -0.8082
  320MOL0     N42159   2.639   1.911   5.303  0.7207 -0.4201  0.2441
  320MOL0     C42160   2.286   2.306   6.489  0.7330 -0.8960 -0.6280
  320MOL0     C42161   2.180   2.298   6.586 -0.9780  0.2658 -0.5775
  320MOL0     C42162   1.960   2.150   6.960 -0.1714  0.2408  0.2461
  320MOL0     C42163   1.841   2.198   6.912  0.8671 -0.2073  0.6050
  320MOL0     C42164   1.717   2.207   6.985 -0.3950  1.2046 -0.6450
  320MOL0     C42165   1.723   2.173   7.121  0.3496 -0.4926 -0.4073
  320MOL0     O42166   1.616   2.173   7.200  0.4761 -0.2256  0.4434
  320MOL0     C42167   1.628   2.260   7.315  0.0078 -0.9261 -0.7104
  320MOL0     C42168   1.540   2.215   7.424 -0.5901  0.0424  0.1368
  320MOL0     C42169   1.539   2.055   7.432 -0.1107 -0.2720 -0.4826
  320MOL0     C42170   1.419   2.013   7.517  0.1150 -0.5737  0.8677
  320MOL0     C42171   1.390   1.874   7.507 -0.9480  0.0125 -0.0365
  320MOL0     C42172   1.377   1.754   7.494 -0.4181  0.4204 -0.2212
  320MOL0     C42173   1.846   2.118   7.171 -0.6206  0.4269  0.0070
  320MOL0     C42174   1.955   2.096   7.092  0.4185  0.9660 -0.5603
  320MOL0     H42175   2.240   1.996   6.718 -0.8760 -1.0562 -0.6104
  320MOL0     H42176   2.433   2.000   6.536  0.1334 -1.1997  1.7995
  320MOL0     H42177   2.364   2.228   6.197  1.6042  1.0538 -5.0836
  320MOL0     H42178   2.472   2.093   6.201 -2.5276  0.3733 -3.1984
  320MOL0     H42179   2.666   2.224   6.238 -0.1767  1.3465  1.6972
  320MOL0     H42180   2.593   2.384   6.212 -0.6961  2.1272 -3.3552
  320MOL0     H42181   2.677   2.329   5.994  1.3445 -1.8654  0.9667
  320MOL0     H42182   2.498   2.331   6.005 -0.7003 -1.1662  1.6574
  320MOL0     H42183   2.633   2.077   6.057 -0.4434  2.7968  2.6254
  320MOL0     H42184   2.475   2.098   6.003  0.3464  0.5289  1.8390
  320MOL0     H42185   2.743   2.161   5.844  0.1152  0.8754  1.3679
  320MOL0     H42186   2.584   2.213   5.780 -2.0495 -1.5794  1.8971
  320MOL0     H42187   2.486   1.996   5.776 -0.0306 -3.1891  0.0772
  320MOL0     H42188   2.649   1.931   5.821 -0.3432 -0.4561  0.2732
  320MOL0     H42189   2.587   2.070   5.561  2.2128 -0.4180 -1.9658
  320MOL0     H42190   2.746   2.017   5.618  0.6535  1.2649 -1.8535
  320MOL0     H42191   2.502   1.854   5.538 -0.1789  0.4788 -1.9623
  320MOL0     H42192   2.638   1.776   5.608 -0.2350  1.0230  1.2167
  320MOL0     H42193   2.805   1.678   5.445 -3.1988 -1.0130  0.3423
  320MOL0     H42194   2.988   1.691   5.234  0.0343 -1.1413 -0.1393
  320MOL0     H42195   2.945   1.823   5.102 -2.1793 -0.2227  0.3227
  320MOL0     H42196   2.747   1.651   5.058  0.9697 -0.6803  0.7873
  320MOL0     H42197   2.847   1.554   5.158 -3.1326  1.3958  1.3061
  320MOL0     H42198   2.944   1.694   4.890  1.7148  1.2474  1.1581
  320MOL0     H42199   3.033   1.585   5.008  0.3632  0.1357 -0.5021
  320MOL0     H42200   2.919   1.521   4.779 -0.2221 -1.3268 -0.2828
  320MOL0     H42201   2.775   1.508   4.869  0.8045  0.9106 -1.1548
  320MOL0     H42202   3.088   1.176   4.977 -0.3713 -3.3029 -0.4438
  320MOL0     H42203   3.138   0.988   4.823  1.4952  0.7336 -0.3936
  320MOL0     H42204   3.154   0.609   4.750  2.2885 -2.2048 -0.3410
  320MOL0     H42205   3.225   0.414   4.674 -0.3609 -0.3988  0.6641
  320MOL0     H42206   3.135   0.272   4.360  0.0295  2.7926  1.0137
  320MOL0     H42207   3.232   0.198   4.494  0.4297 -0.7175  1.2058
  320MOL0     H42208   3.404   0.148   4.293  0.5143 -2.8473 -0.8999
  320MOL0     H42209   3.276   0.188   4.183  0.6048 -1.3135 -0.5442
  320MOL0     H42210   3.280  -0.051   4.387 -1.1367 -1.2056 -2.0839
  320MOL0     H42211   3.302  -0.047   4.215 -1.8308 -3.1959  0.8100
  320MOL0     H42212   3.037   0.074   4.308  0.9317 -0.4874  0.4611
  320MOL0     H42213   3.088  -0.010   4.164  1.4675  4.5936  0.5920
  320MOL0     H42214   2.936  -0.140   4.346 -0.4999 -5.4653 -0.6728
  320MOL0     H42215   3.101  -0.164   4.420  0.6499  3.2825  0.6897
  320MOL0     H42216   3.168  -0.250   4.212 -0.6997 -1.1251  0.9112
  320MOL0     H42217   3.017  -0.237   4.123  2.1894  0.8416 -0.9510
  320MOL0     H42218   3.004  -0.398   4.401  2.0166  0.8602 -0.4929
  320MOL0     H42219   2.891  -0.382   4.266 -0.0364 -0.7514 -1.1608
  320MOL0     H42220   3.038  -0.496   4.114 -4.2893 -2.8992  0.1028
  320MOL0     H42221   3.000  -0.614   4.244 -0.3357 -0.2131  0.5604
  320MOL0     H42222   3.203   0.552   4.270 -0.6672 -1.1850 -0.1433
  320MOL0     H42223   3.102   0.768   4.349  4.1124  0.4706 -1.6056
  320MOL0     H42224   2.876   1.156   4.533  1.1713 -1.3355 -1.0750
  320MOL0     H42225   2.845   1.350   4.673  0.4089  0.4874  1.1008
  320MOL0     H42226   2.286   2.387   6.417  2.2126 -1.4909 -1.3279
  320MOL0     H42227   2.114   2.383   6.574 -1.7093  0.3046  2.7820
  320MOL0     H42228   1.826   2.241   6.813  1.6445  1.9817  1.3872
  320MOL0     H42229   1.627   2.240   6.934  0.8789  1.4375 -2.8657
  320MOL0     H42230   1.600   2.359   7.280 -0.4090 -1.0447 -0.7226
  320MOL0     H42231   1.733   2.262   7.344 -0.0527  0.3593 -0.5260
  320MOL0     H42232   1.573   2.264   7.516  0.7439  0.7769 -0.6994
  320MOL0     H42233   1.437   2.245   7.403 -2.2466 -4.5646  0.5602
  320MOL0     H42234   1.635   2.008   7.455  1.2888  1.5854 -2.0964
  320MOL0     H42235   1.518   2.028   7.328 -2.1709  3.1012 -1.1046
  320MOL0     H42236   1.435   2.035   7.623 -0.9617  3.0103  0.3999
  320MOL0     H42237   1.329   2.070   7.495  2.0271  3.2391  2.0137
  320MOL0     H42238   1.354   1.652   7.472  2.7244 -0.2293 -1.0906
  320MOL0     H42239   1.863   2.092   7.275 -1.7739  1.6627  0.5365
  320MOL0     H42240   2.050   2.051   7.119 -0.4893 -1.4336 -1.0748
  321MOL0     O42241   0.819   4.941   1.034 -0.3094  0.2007 -0.1827
  321MOL0     C42242   0.906   4.995   0.965 -0.0628  0.5251  0.8695
  321MOL0     O42243   0.942   4.960   0.834 -0.8945 -0.4451  0.6232
  321MOL0     C42244   0.933   4.837   0.773 -0.2389 -0.0652  0.6328
  321MOL0     C42245   0.922   4.713   0.846 -0.5851 -0.2698 -0.7628
  321MOL0     C42246   0.914   4.591   0.772 -0.4677 -0.1421  0.4096
  321MOL0     C42247   0.912   4.593   0.632 -0.5470  0.9583 -0.8688
  321MOL0     O42248   0.920   4.463   0.580  0.8290  0.4998 -0.5562
  321MOL0     C42249   0.814   4.429   0.486  1.0596 -0.0069  0.3599
  321MOL0     C42250   0.859   4.306   0.406  0.2401 -0.7593 -1.2427
  321MOL0     C42251   0.888   4.190   0.509  0.4757 -0.5902 -0.8317
  321MOL0     C42252   0.938   4.053   0.446  0.0293 -0.2071  0.1320
  321MOL0     C42253   1.004   3.961   0.558 -0.3576  0.8028  0.2534
  321MOL0     C42254   1.063   3.822   0.492 -0.0235 -0.4566 -1.1364
  321MOL0     C42255   1.144   3.843   0.360 -0.1340  0.2042  0.7235
  321MOL0     C42256   1.186   3.715   0.291 -0.2383  0.6618  0.5447
  321MOL0     N42257   1.291   3.637   0.363 -0.3301 -0.6263  0.3339
  321MOL0     C42258   1.332   3.497   0.336 -0.7894  0.4457  0.3089
  321MOL0     C42259   1.438   3.484   0.417 -0.3994  0.0499  0.8554
  321MOL0     C42260   1.531   3.368   0.426 -0.2170 -0.4122 -0.0862
  321MOL0     C42261   1.561   3.325   0.567 -0.1595  0.3922 -0.9258
  321MOL0     C42262   1.457   3.230   0.634  0.8248 -0.7841 -1.4307
  321MOL0     C42263   1.383   3.300   0.761  0.4517 -0.1651 -0.8284
  321MOL0     O42264   1.283   3.217   0.821  0.0092  0.0819  0.4561
  321MOL0     C42265   1.247   3.237   0.953  0.2861 -1.1833 -0.6371
  321MOL0     C42266   1.197   3.133   1.035  1.0261 -0.3437 -0.0502
  321MOL0     C42267   1.158   3.158   1.161  1.3665 -0.5179 -0.9087
  321MOL0     C42268   1.168   3.288   1.222  0.2059  0.5740  0.3768
  321MOL0     C42269   1.117   3.312   1.361  0.6375  0.7200 -0.2476
  321MOL0     O42270   1.139   3.446   1.399  0.5882 -0.4747  0.3867
  321MOL0     C42271   1.154   3.472   1.531 -0.1638 -0.5662  0.3411
  321MOL0     C42272   1.098   3.602   1.573  0.1702  0.0569  0.4763
  321MOL0     C42273   1.105   3.647   1.705 -0.5791 -0.8139 -0.5171
  321MOL0     C42274   1.171   3.574   1.807 -0.9658  0.2208 -0.3111
  321MOL0     O42275   1.200   3.632   1.932  0.3532 -0.0182  0.0267
  321MOL0     C42276   1.324   3.600   1.995 -0.9434  0.0105 -0.1755
  321MOL0     C42277   1.374   3.675   2.113  0.9224  0.6030 -0.3035
  321MOL0     C42278   1.261   3.678   2.226 -0.3591  0.1340  0.0842
  321MOL0     C42279   1.329   3.744   2.350 -1.0308  0.1509 -0.5750
  321MOL0     C42280   1.256   3.704   2.476 -0.8693  0.3485  0.6115
  321MOL0     C42281   1.116   3.759   2.508 -0.1888 -0.3041 -0.1497
  321MOL0     C42282   1.118   3.912   2.521  0.0763 -0.5224  0.0912
  321MOL0     C42283   0.971   3.953   2.532 -0.6926 -0.3759 -0.4886
  321MOL0    Cl42284   0.963   4.127   2.538  0.0905 -0.2232 -0.0683
  321MOL0     C42285   1.222   3.453   1.767  0.8470  0.4568  0.5509
  321MOL0     C42286   1.230   3.407   1.627  0.2914 -0.4794 -0.9268
  321MOL0     O42287   1.052   3.228   1.425  0.8057  0.2181 -0.5298
  321MOL0     C42288   1.208   3.396   1.137 -0.4507  0.2443 -0.0725
  321MOL0     C42289   1.258   3.366   1.015  0.4756  0.2079  0.4739
  321MOL0     N42290   1.470   3.611   0.468  0.2195  0.0754  0.5603
  321MOL0     N42291   1.384   3.701   0.446 -1.1778 -0.1622 -0.1413
  321MOL0     C42292   0.910   4.714   0.568  0.4822  0.6257 -0.3045
  321MOL0     C42293   0.915   4.832   0.642 -0.2070  0.4202  0.5823
  321MOL0     C42294   0.950   5.121   1.004  0.7673  0.1720  0.3206
  321MOL0     C42295   0.900   5.174   1.122  0.1800 -0.0890 -0.4669
  321MOL0     C42296   0.916   5.311   1.137  0.6351 -0.2412  1.4639
  321MOL0     C42297   0.993   5.399   1.048  0.1343 -0.1273 -1.4211
  321MOL0     O42298   1.026   5.530   1.070 -0.2179  0.2057  0.0643
  321MOL0     C42299   0.982   5.582   1.198  0.1224 -0.9503  0.5097
  321MOL0     C42300   0.839   5.636   1.186 -0.4233  0.9273 -0.2153
  321MOL0     C42301   0.797   5.751   1.267  0.7653 -0.3433 -0.5705
  321MOL0     C42302   0.792   5.720   1.421  0.5459  1.1399 -0.6088
  321MOL0     C42303   0.741   5.832   1.503 -0.1514 -0.1837 -0.1334
  321MOL0     C42304   0.698   5.920   1.577 -0.2087 -0.2831 -0.9063
  321MOL0     C42305   1.046   5.329   0.949 -0.8328  0.7189  0.7052
  321MOL0     C42306   1.018   5.202   0.910 -0.6636 -0.1293  0.6846
  321MOL0     H42307   0.916   4.718   0.955 -2.2502  1.3614 -0.8778
  321MOL0     H42308   0.915   4.495   0.822  1.1233 -1.4550 -1.9443
  321MOL0     H42309   0.780   4.512   0.425  0.2925 -1.5555 -1.4011
  321MOL0     H42310   0.733   4.394   0.550  1.8327  0.7882  1.8444
  321MOL0     H42311   0.951   4.342   0.358  1.6897  0.6552  2.2263
  321MOL0     H42312   0.784   4.276   0.333 -0.3648  1.7043 -1.7045
  321MOL0     H42313   0.796   4.161   0.560  1.2686  1.2579  1.8791
  321MOL0     H42314   0.966   4.226   0.577 -1.0828 -3.0780  2.5780
  321MOL0     H42315   0.856   4.007   0.390  0.4074  1.7477 -2.2491
  321MOL0     H42316   1.016   4.086   0.376  0.1172  2.0742  1.1995
  321MOL0     H42317   0.943   3.938   0.645  0.1120  1.1582  0.6843
  321MOL0     H42318   1.086   4.020   0.602  1.5949 -1.5475 -0.0157
  321MOL0     H42319   0.982   3.750   0.480 -2.8945  1.5127  3.7070
  321MOL0     H42320   1.132   3.782   0.567 -0.9631  0.5713  0.3162
  321MOL0     H42321   1.085   3.889   0.281 -2.0001 -1.2282  1.2236
  321MOL0     H42322   1.227   3.908   0.389 -0.5435  1.0338  0.0792
  321MOL0     H42323   1.224   3.742   0.191  0.6688 -1.2616  0.3225
  321MOL0     H42324   1.101   3.650   0.271 -2.2575  2.5446  2.3777
  321MOL0     H42325   1.286   3.430   0.265  1.7274 -2.2224  1.0101
  321MOL0     H42326   1.628   3.400   0.385  0.4228 -2.8539 -0.6188
  321MOL0     H42327   1.498   3.286   0.361 -2.9412 -0.3354  1.0590
  321MOL0     H42328   1.568   3.419   0.623  2.7955  0.3848 -1.1461
  321MOL0     H42329   1.655   3.269   0.577 -1.2851 -1.8124 -1.9362
  321MOL0     H42330   1.377   3.209   0.563  1.0116  2.1941 -2.6649
  321MOL0     H42331   1.506   3.145   0.682  0.3397  0.2625  1.0887
  321MOL0     H42332   1.319   3.376   0.715 -0.8746 -1.0130 -0.4352
  321MOL0     H42333   1.460   3.343   0.826  0.0849  3.3958 -2.4788
  321MOL0     H42334   1.186   3.034   0.992  1.4288 -1.5295  2.4478
  321MOL0     H42335   1.100   3.084   1.215  1.4080 -0.1152 -0.2980
  321MOL0     H42336   1.049   3.670   1.505 -0.4044 -1.1263 -0.3284
  321MOL0     H42337   1.068   3.748   1.724 -0.2900 -1.3837  4.1097
  321MOL0     H42338   1.406   3.629   1.930 -0.7312  2.8620  1.1991
  321MOL0     H42339   1.324   3.491   2.004 -2.8430 -0.0891 -0.8198
  321MOL0     H42340   1.399   3.777   2.081 -1.5510  1.8612  1.4261
  321MOL0     H42341   1.465   3.625   2.148  0.6810  0.8425  0.6889
  321MOL0     H42342   1.237   3.574   2.251  3.1682 -1.1096 -1.1844
  321MOL0     H42343   1.167   3.721   2.190  0.1377  0.4546 -0.8683
  321MOL0     H42344   1.433   3.712   2.363 -0.6779  2.2355  3.6005
  321MOL0     H42345   1.333   3.853   2.345 -1.0561  0.2239  0.7155
  321MOL0     H42346   1.317   3.739   2.560 -1.2250 -0.7630  1.3503
  321MOL0     H42347   1.246   3.596   2.484 -0.6970  0.1515 -1.3288
  321MOL0     H42348   1.089   3.724   2.608 -2.2614 -2.2140 -1.2865
  321MOL0     H42349   1.044   3.715   2.438 -1.6120  0.6275  0.6905
  321MOL0     H42350   1.166   3.952   2.610  0.9399  1.8027 -1.3400
  321MOL0     H42351   1.152   3.956   2.427 -1.1800 -0.1286 -0.2038
  321MOL0     H42352   0.917   3.908   2.616 -1.7134 -0.9055 -1.4074
  321MOL0     H42353   0.916   3.912   2.448 -0.6972 -2.1586  0.3475
  321MOL0     H42354   1.260   3.393   1.850  2.8895  2.6940  1.3370
  321MOL0     H42355   1.282   3.314   1.606  0.5118  0.0259 -2.8198
  321MOL0     H42356   1.204   3.499   1.171  1.5594  0.3333  0.0118
  321MOL0     H42357   1.298   3.449   0.958 -2.7391  2.2499  0.9394
  321MOL0     H42358   0.889   4.715   0.462 -0.2228  2.5538 -0.1901
  321MOL0     H42359   0.899   4.934   0.610 -0.8813  0.9044  2.3829
  321MOL0     H42360   0.854   5.122   1.205 -2.2319  2.1715 -0.2627
  321MOL0     H42361   0.861   5.343   1.225 -2.5235 -1.7218  0.1512
  321MOL0     H42362   1.047   5.670   1.210  0.4117 -0.9428 -0.9842
  321MOL0     H42363   0.995   5.529   1.293 -0.3640 -0.2900  0.9591
  321MOL0     H42364   0.819   5.673   1.085  1.2767  1.3770 -0.4220
  321MOL0     H42365   0.769   5.553   1.195 -1.3931  1.4622 -2.1223
  321MOL0     H42366   0.697   5.778   1.233  1.0384  2.4347  0.5260
  321MOL0     H42367   0.872   5.830   1.258  1.1568 -0.6584 -0.1497
  321MOL0     H42368   0.729   5.632   1.433  0.7897  0.4222 -3.6935
  321MOL0     H42369   0.894   5.699   1.454  0.5507 -2.0693 -2.2675
  321MOL0     H42370   0.654   5.979   1.654 -6.4685 -3.9379 -0.9555
  321MOL0     H42371   1.110   5.383   0.881  1.2722 -1.7405  0.5654
  321MOL0     H42372   1.053   5.184   0.809 -0.1326 -0.2476  0.8851
  322MOL0     O42373   8.899  11.194   4.363  1.2786  0.7814  0.4193
  322MOL0     C42374   8.905  11.275   4.272 -0.2899 -1.7207 -0.1014
  322MOL0     O42375   8.998  11.377   4.260  0.4518 -0.2477  0.1167
  322MOL0     C42376   9.107  11.374   4.336  0.3727 -1.4975  0.2879
  322MOL0     C42377   9.219  11.295   4.303  0.0966 -0.1524  0.6562
  322MOL0     C42378   9.335  11.302   4.387 -0.1201  0.1233  0.6389
  322MOL0     C42379   9.348  11.402   4.484 -0.1373 -1.0251  0.0573
  322MOL0     O42380   9.466  11.425   4.559 -0.5036 -0.0362  0.2067
  322MOL0     C42381   9.587  11.389   4.492 -0.9546  0.5452 -1.1200
  322MOL0     C42382   9.707  11.401   4.586 -0.8726  0.1528  0.3214
  322MOL0     C42383   9.828  11.444   4.488  0.4963  0.3451 -0.2036
  322MOL0     C42384   9.959  11.447   4.575 -0.0809  0.1437 -0.3762
  322MOL0     C42385  10.069  11.531   4.500 -0.9216  0.4956 -0.1742
  322MOL0     C42386  10.202  11.549   4.577  0.8211 -0.5075 -0.4020
  322MOL0     C42387  10.301  11.638   4.491  0.8570 -0.4327 -0.2860
  322MOL0     C42388  10.417  11.678   4.580  0.6933 -0.1801 -0.4806
  322MOL0     N42389  10.490  11.575   4.658  0.3079  0.1207  0.0292
  322MOL0     C42390  10.536  11.602   4.778 -0.3696 -0.3729 -0.4494
  322MOL0     C42391  10.567  11.480   4.824  0.9829 -0.1748 -0.5055
  322MOL0     C42392  10.609  11.436   4.966  0.3941  0.9695  0.5927
  322MOL0     C42393  10.493  11.383   5.054 -0.3290  0.9584 -0.6210
  322MOL0     C42394  10.370  11.482   5.054 -0.3532  0.3352  0.0164
  322MOL0     C42395  10.414  11.614   5.114  0.9516  0.1122  0.7221
  322MOL0     O42396  10.292  11.685   5.133 -0.1702  0.7041  0.3489
  322MOL0     C42397  10.246  11.686   5.268 -0.3135 -0.2578 -0.0686
  322MOL0     C42398  10.318  11.733   5.372 -0.6559 -0.8863 -0.8768
  322MOL0     C42399  10.253  11.744   5.497 -0.6296  0.2544  1.0062
  322MOL0     C42400  10.124  11.704   5.521  0.0013 -0.8519 -0.8710
  322MOL0     C42401  10.053  11.713   5.656  0.2353 -0.2907 -0.2155
  322MOL0     O42402   9.933  11.641   5.663  0.2377  0.1191  0.8099
  322MOL0     C42403   9.867  11.635   5.782 -1.1071 -0.0327 -0.0629
  322MOL0     C42404   9.792  11.744   5.837 -0.7204 -1.2542 -0.2825
  322MOL0     C42405   9.724  11.724   5.957  0.1832  0.5735  0.2746
  322MOL0     C42406   9.724  11.601   6.022 -0.8878 -0.0035 -0.6603
  322MOL0     O42407   9.655  11.600   6.147 -0.2413 -0.5380 -0.7029
  322MOL0     C42408   9.649  11.472   6.218 -0.3679  0.3497 -0.5570
  322MOL0     C42409   9.583  11.489   6.352  0.2987  0.0423  1.0441
  322MOL0     C42410   9.684  11.545   6.438 -0.0590  1.0522 -0.0637
  322MOL0     C42411   9.621  11.593   6.572 -0.3382 -1.1234 -0.3199
  322MOL0     C42412   9.720  11.622   6.690  0.2680 -0.2086 -0.2463
  322MOL0     C42413   9.666  11.711   6.796  0.2655  1.5328  0.2902
  322MOL0     C42414   9.770  11.732   6.903 -0.0260  0.9646 -0.5295
  322MOL0     C42415   9.738  11.843   6.995  0.6805  1.3563 -0.4378
  322MOL0    Cl42416   9.846  11.824   7.129 -0.1779 -0.0876 -0.0337
  322MOL0     C42417   9.792  11.503   5.966  0.5586 -0.6078 -0.3302
  322MOL0     C42418   9.869  11.513   5.847  0.2385  0.4719 -0.2833
  322MOL0     O42419  10.101  11.776   5.754 -0.1272 -0.0849  1.1181
  322MOL0     C42420  10.055  11.653   5.419 -0.2305  0.3177  0.0319
  322MOL0     C42421  10.114  11.648   5.286 -0.4182  1.6407 -0.5684
  322MOL0     N42422  10.544  11.382   4.723  0.2148  0.9394 -0.0441
  322MOL0     N42423  10.500  11.440   4.621  0.5507  0.9439 -0.4511
  322MOL0     C42424   9.225  11.472   4.520 -1.3930  0.4846 -0.7365
  322MOL0     C42425   9.111  11.461   4.446  0.7816 -0.2029  0.1623
  322MOL0     C42426   8.791  11.274   4.180 -1.1566 -0.0021  0.1004
  322MOL0     C42427   8.721  11.155   4.166  0.2286 -0.9151 -0.1337
  322MOL0     C42428   8.623  11.133   4.076 -0.2076  0.2566 -0.6119
  322MOL0     C42429   8.599  11.229   3.980 -0.9505 -0.1454 -0.2636
  322MOL0     O42430   8.499  11.205   3.885  0.0597 -0.2422 -0.3716
  322MOL0     C42431   8.377  11.275   3.917  0.9062 -0.6510 -0.0431
  322MOL0     C42432   8.358  11.394   3.818  1.1681 -0.0239 -0.2781
  322MOL0     C42433   8.279  11.357   3.691  0.0782  0.9734 -0.6451
  322MOL0     C42434   8.267  11.474   3.600  0.1076  0.3823  0.1175
  322MOL0     C42435   8.218  11.430   3.464  0.5946  0.3367  0.4440
  322MOL0     C42436   8.154  11.395   3.366 -0.0075  0.1229 -0.2579
  322MOL0     C42437   8.675  11.352   3.983  0.4581  0.0369  0.1400
  322MOL0     C42438   8.766  11.380   4.088 -0.0039 -0.5612 -0.3956
  322MOL0     H42439   9.225  11.230   4.216  0.5402  2.6634 -1.5787
  322MOL0     H42440   9.414  11.232   4.362 -1.6213 -1.3721 -0.1308
  322MOL0     H42441   9.605  11.448   4.401  3.8349  2.1559  0.5382
  322MOL0     H42442   9.591  11.287   4.454  0.9120 -0.0829  0.5828
  322MOL0     H42443   9.722  11.308   4.643  1.4118  0.5211  0.3955
  322MOL0     H42444   9.691  11.484   4.656 -1.3840  0.8650 -0.6275
  322MOL0     H42445   9.809  11.535   4.431  1.3055 -1.3375 -3.4039
  322MOL0     H42446   9.849  11.364   4.416  1.6758  0.6616 -0.2180
  322MOL0     H42447   9.936  11.500   4.668 -2.0549  0.8720 -1.1940
  322MOL0     H42448   9.977  11.341   4.590 -3.4006 -0.1195  3.4366
  322MOL0     H42449  10.038  11.635   4.486 -1.3841  0.3665 -0.1164
  322MOL0     H42450  10.097  11.477   4.410  4.3432  0.6289  1.0346
  322MOL0     H42451  10.240  11.448   4.594 -0.6027 -0.7085  2.2478
  322MOL0     H42452  10.198  11.602   4.673  1.2515  2.5040 -1.9072
  322MOL0     H42453  10.326  11.587   4.398 -0.2591  0.5136 -1.1392
  322MOL0     H42454  10.267  11.739   4.467 -1.3452 -0.1221  3.4361
  322MOL0     H42455  10.373  11.745   4.655  0.6848 -0.6338 -0.0744
  322MOL0     H42456  10.485  11.747   4.529 -1.0654 -0.0937 -2.8471
  322MOL0     H42457  10.535  11.700   4.825 -0.3429 -0.9443  0.7745
  322MOL0     H42458  10.651  11.527   5.010  1.1052  1.0040 -0.1365
  322MOL0     H42459  10.685  11.358   4.960  1.0880  1.6879 -0.1631
  322MOL0     H42460  10.524  11.360   5.156  2.0579  1.2623 -1.2117
  322MOL0     H42461  10.454  11.287   5.016 -1.2832 -0.6834  3.8447
  322MOL0     H42462  10.340  11.508   4.952  0.1678  5.0204  0.8431
  322MOL0     H42463  10.284  11.434   5.102  0.1535  0.8986  1.5646
  322MOL0     H42464  10.495  11.673   5.069  1.9346  0.1968  2.5152
  322MOL0     H42465  10.458  11.594   5.212  2.0796  2.1221  0.6950
  322MOL0     H42466  10.422  11.761   5.362 -0.5536 -0.6507  0.5674
  322MOL0     H42467  10.302  11.798   5.577  0.9426 -1.9691  1.6412
  322MOL0     H42468   9.786  11.836   5.780 -0.5604 -2.1484 -1.7781
  322MOL0     H42469   9.656  11.798   5.995  1.4632  0.9123  2.0116
  322MOL0     H42470   9.748  11.430   6.239 -0.5622  1.0481  2.0888
  322MOL0     H42471   9.588  11.397   6.168  0.5085  0.0234 -1.1575
  322MOL0     H42472   9.549  11.388   6.374 -0.8595 -0.0330 -0.9235
  322MOL0     H42473   9.496  11.554   6.336 -0.4271 -0.4677  2.7298
  322MOL0     H42474   9.735  11.625   6.384 -1.7860  1.4717 -1.1544
  322MOL0     H42475   9.762  11.471   6.457 -0.6382  0.2509 -0.7434
  322MOL0     H42476   9.560  11.681   6.552 -1.7294 -1.4308  2.2476
  322MOL0     H42477   9.549  11.523   6.615 -1.6116  0.8663  0.9806
  322MOL0     H42478   9.809  11.661   6.639  1.3808 -2.5849 -0.2503
  322MOL0     H42479   9.749  11.526   6.732  2.0746  0.5224  0.2526
  322MOL0     H42480   9.581  11.661   6.841  1.5476  0.4166  1.5796
  322MOL0     H42481   9.636  11.813   6.768  0.5653  2.2653  2.4586
  322MOL0     H42482   9.770  11.636   6.955  2.0889  1.1249 -0.1569
  322MOL0     H42483   9.873  11.735   6.866  1.0656 -2.9808  1.5817
  322MOL0     H42484   9.632  11.845   7.021 -0.2109  3.6823 -3.5945
  322MOL0     H42485   9.756  11.941   6.950  0.5689  1.0426 -1.1991
  322MOL0     H42486   9.805  11.410   6.021 -0.0042 -0.9133 -0.7011
  322MOL0     H42487   9.921  11.426   5.808  0.8704  0.3140  0.8925
  322MOL0     H42488   9.951  11.624   5.431 -0.6362  0.7473 -2.0400
  322MOL0     H42489  10.049  11.618   5.204  0.1581  0.5675 -0.6527
  322MOL0     H42490   9.234  11.546   4.598  4.2219 -1.4512  0.9836
  322MOL0     H42491   9.032  11.530   4.475  2.2564  0.6153  2.4748
  322MOL0     H42492   8.729  11.072   4.236  4.1202  0.2042  0.9386
  322MOL0     H42493   8.581  11.034   4.065  1.8115 -0.6571 -0.6770
  322MOL0     H42494   8.388  11.304   4.022  0.6848 -3.4002  0.8350
  322MOL0     H42495   8.300  11.198   3.905  3.2634 -2.8217 -2.4181
  322MOL0     H42496   8.288  11.464   3.865  1.7416 -0.4785  1.3197
  322MOL0     H42497   8.453  11.443   3.795  2.5263 -3.7704 -3.9203
  322MOL0     H42498   8.175  11.333   3.715  0.1050  2.6648  1.4556
  322MOL0     H42499   8.337  11.287   3.630  4.3203  4.1205 -0.6205
  322MOL0     H42500   8.188  11.538   3.640 -0.7334  1.2231 -2.6400
  322MOL0     H42501   8.358  11.534   3.589  0.7630 -0.3299  1.3950
  322MOL0     H42502   8.098  11.353   3.286  0.4079 -0.1022 -0.4344
  322MOL0     H42503   8.662  11.428   3.906  3.0789 -0.6318 -1.0518
  322MOL0     H42504   8.836  11.462   4.100  1.9090 -1.7186 -2.8083
  323MOL0     O42505   6.223   4.513   9.281  0.1544 -0.0108  0.2565
  323MOL0     C42506   6.225   4.410   9.352 -0.8741 -0.2363 -0.7467
  323MOL0     O42507   6.119   4.325   9.365 -0.6004 -0.1098 -0.0495
  323MOL0     C42508   6.000   4.379   9.331 -0.6672  1.2525  0.9805
  323MOL0     C42509   5.963   4.392   9.197 -1.1895  0.3001 -0.5807
  323MOL0     C42510   5.834   4.439   9.161  0.1958  0.2100  0.3178
  323MOL0     C42511   5.730   4.450   9.264  0.1042 -0.3619  1.3457
  323MOL0     O42512   5.598   4.488   9.248  0.3344  1.0131  0.3065
  323MOL0     C42513   5.572   4.565   9.130  0.1730  0.3003 -0.2037
  323MOL0     C42514   5.483   4.694   9.161 -0.1190  0.3386 -0.5651
  323MOL0     C42515   5.336   4.673   9.122  0.3753 -0.4178  0.6764
  323MOL0     C42516   5.235   4.781   9.151 -0.0783 -1.1789 -0.5197
  323MOL0     C42517   5.275   4.913   9.080 -0.0719  0.1090  0.5533
  323MOL0     C42518   5.157   5.010   9.059 -0.4098  0.1492 -0.6638
  323MOL0     C42519   5.195   5.149   9.011 -0.6155 -0.9105  0.2546
  323MOL0     C42520   5.129   5.173   8.874 -0.1340  0.0474  0.7027
  323MOL0     N42521   5.131   5.321   8.848 -0.2502  0.6197 -0.0629
  323MOL0     C42522   5.039   5.401   8.891  0.3865 -0.3772 -0.1708
  323MOL0     C42523   5.055   5.518   8.831  0.0237 -0.9986 -0.0612
  323MOL0     C42524   4.985   5.648   8.856 -0.1324 -1.0354 -0.0929
  323MOL0     C42525   5.081   5.768   8.867  0.4675 -0.8276 -0.5461
  323MOL0     C42526   5.037   5.889   8.959  0.4563 -0.8420 -0.1058
  323MOL0     C42527   4.892   5.920   8.922  0.1027  0.4105 -0.0660
  323MOL0     O42528   4.832   6.032   8.995 -0.1097  0.3676  1.0799
  323MOL0     C42529   4.820   6.015   9.131  0.2028 -0.5225  0.3858
  323MOL0     C42530   4.789   5.908   9.211 -0.2748  0.9269  0.6059
  323MOL0     C42531   4.737   5.905   9.336 -0.1118  0.3168  0.3832
  323MOL0     C42532   4.733   6.028   9.407  0.8109  0.0187 -0.5767
  323MOL0     C42533   4.679   6.028   9.540 -0.6995 -0.1279 -0.2090
  323MOL0     O42534   4.571   5.953   9.579  0.0780 -0.6173 -0.0874
  323MOL0     C42535   4.517   5.940   9.709  1.2705 -0.1262  1.3704
  323MOL0     C42536   4.390   5.881   9.725 -0.2022  0.5446  0.0528
  323MOL0     C42537   4.321   5.874   9.848  0.0486  0.5463 -0.7537
  323MOL0     C42538   4.375   5.930   9.963  1.0855  0.3439 -0.3950
  323MOL0     O42539   4.295   5.916  10.072 -0.2819  0.6751  0.4149
  323MOL0     C42540   4.341   5.963  10.201 -0.3066  0.2073 -0.5601
  323MOL0     C42541   4.216   5.956  10.290  1.0490  1.0368  0.4523
  323MOL0     C42542   4.218   6.052  10.404  0.1095  0.0890 -0.1045
  323MOL0     C42543   4.086   6.046  10.486  0.2466 -0.0297 -0.0567
  323MOL0     C42544   4.093   6.169  10.583  0.5076  0.0135  0.3398
  323MOL0     C42545   3.984   6.159  10.695 -0.5426  0.0032  0.5562
  323MOL0     C42546   3.984   6.291  10.772  0.6748 -0.3404  0.4826
  323MOL0     C42547   3.855   6.316  10.845 -0.9222  1.0168  0.7820
  323MOL0    Cl42548   3.839   6.226  10.992  0.4758 -0.5196 -0.5496
  323MOL0     C42549   4.507   5.976   9.952  0.1666  0.0652  0.7784
  323MOL0     C42550   4.576   5.974   9.827  1.1296  0.1814 -0.5481
  323MOL0     O42551   4.755   6.087   9.617 -0.8070  0.3782  0.7143
  323MOL0     C42552   4.756   6.142   9.336 -0.0764 -0.6656 -0.4080
  323MOL0     C42553   4.800   6.138   9.206  0.0336  0.6188 -0.7139
  323MOL0     N42554   5.160   5.497   8.744 -0.8196 -0.4413 -0.1270
  323MOL0     N42555   5.209   5.380   8.755 -0.0267  0.1846 -0.8169
  323MOL0     C42556   5.769   4.420   9.393 -0.5542  0.3883 -0.4581
  323MOL0     C42557   5.901   4.396   9.429 -0.0073  0.0003  0.8584
  323MOL0     C42558   6.364   4.364   9.387  0.1567  0.1214  0.1646
  323MOL0     C42559   6.475   4.447   9.365  0.1861 -0.7256  0.5729
  323MOL0     C42560   6.606   4.385   9.372  0.4277  0.3142  0.4502
  323MOL0     C42561   6.628   4.251   9.412  0.1216 -0.7343 -0.8476
  323MOL0     O42562   6.754   4.206   9.431 -0.7407  0.4864  0.6723
  323MOL0     C42563   6.796   4.207   9.565 -0.8177 -0.1676  0.6218
  323MOL0     C42564   6.804   4.049   9.609  0.5593  0.5746  0.1364
  323MOL0     C42565   6.919   3.977   9.547  0.0498  1.1462  0.6025
  323MOL0     C42566   7.061   4.035   9.557  0.9450  0.8100 -0.2470
  323MOL0     C42567   7.113   4.081   9.429 -0.4487 -0.4235  0.3222
  323MOL0     C42568   7.180   4.121   9.333  0.8153  0.6866 -0.0079
  323MOL0     C42569   6.512   4.176   9.441  0.2118  0.4844 -1.1085
  323MOL0     C42570   6.382   4.229   9.429 -0.0038  0.1145 -0.4814
  323MOL0     H42571   6.028   4.378   9.112 -0.2003  1.0000  0.0465
  323MOL0     H42572   5.823   4.465   9.056  2.5369  1.1289  0.2272
  323MOL0     H42573   5.522   4.497   9.061  0.7710  3.3532 -4.0419
  323MOL0     H42574   5.664   4.605   9.086  0.5454 -0.3751 -0.0500
  323MOL0     H42575   5.520   4.777   9.100  1.1750 -1.1254 -1.8556
  323MOL0     H42576   5.475   4.707   9.269 -1.6428 -2.0022 -0.3027
  323MOL0     H42577   5.299   4.579   9.164 -1.0581  0.6917  1.9971
  323MOL0     H42578   5.340   4.645   9.016  0.2618 -0.1172  0.5899
  323MOL0     H42579   5.132   4.754   9.125 -0.8205  1.5681 -0.7597
  323MOL0     H42580   5.243   4.790   9.260  1.0795  2.3000 -0.7625
  323MOL0     H42581   5.318   4.901   8.980 -0.3042  0.7344  0.3768
  323MOL0     H42582   5.362   4.960   9.126  0.2295  1.6525 -1.4789
  323MOL0     H42583   5.085   5.029   9.140 -0.1641  2.6179 -0.9488
  323MOL0     H42584   5.091   4.956   8.990 -1.9587 -0.4116  1.1748
  323MOL0     H42585   5.179   5.227   9.086 -0.7379  1.2373 -1.8804
  323MOL0     H42586   5.301   5.158   8.985 -0.4412  3.4160  1.7893
  323MOL0     H42587   5.024   5.142   8.870 -0.6192  1.4724  1.7789
  323MOL0     H42588   5.178   5.117   8.794 -0.8695  2.9561 -1.9937
  323MOL0     H42589   4.971   5.388   8.974  0.0158  0.1757 -0.3792
  323MOL0     H42590   4.936   5.642   8.954 -1.1508 -1.0526 -0.5876
  323MOL0     H42591   4.905   5.667   8.783 -0.6159 -1.3298  0.3505
  323MOL0     H42592   5.099   5.812   8.768 -0.1916 -4.8377 -2.6611
  323MOL0     H42593   5.176   5.733   8.907 -0.1950 -1.0224  0.9052
  323MOL0     H42594   5.048   5.867   9.066 -0.9741  0.4602  0.3466
  323MOL0     H42595   5.093   5.980   8.937  0.0487 -0.0233  1.9725
  323MOL0     H42596   4.822   5.837   8.935 -1.8104  1.6597 -1.7689
  323MOL0     H42597   4.890   5.958   8.819 -0.3683  0.6286  0.0230
  323MOL0     H42598   4.805   5.816   9.156 -1.5300 -0.2417  2.0916
  323MOL0     H42599   4.704   5.814   9.386 -3.6170 -0.7194 -3.3102
  323MOL0     H42600   4.342   5.847   9.634 -0.2294  1.5634 -0.3214
  323MOL0     H42601   4.222   5.830   9.858 -0.8458  1.8573 -3.0542
  323MOL0     H42602   4.378   6.065  10.184 -0.7386  0.2345 -1.3677
  323MOL0     H42603   4.413   5.905  10.258 -1.4046 -1.9564 -1.2633
  323MOL0     H42604   4.197   5.857  10.331  0.1622  1.2588  0.6024
  323MOL0     H42605   4.134   5.992  10.227  0.8377 -0.4932 -0.1702
  323MOL0     H42606   4.235   6.156  10.377 -1.9193  1.3158  2.8941
  323MOL0     H42607   4.308   6.025  10.461  0.6574 -1.7126 -1.7186
  323MOL0     H42608   3.996   6.053  10.424  1.1601  2.5394 -1.2639
  323MOL0     H42609   4.092   5.946  10.527  2.4711  0.1012  0.0594
  323MOL0     H42610   4.080   6.260  10.524  0.3590  2.5326  3.9886
  323MOL0     H42611   4.186   6.167  10.641  1.1631 -1.8516 -0.6627
  323MOL0     H42612   4.003   6.070  10.755  0.7389  0.7266  1.2662
  323MOL0     H42613   3.884   6.144  10.652 -0.5472 -0.7543  0.8160
  323MOL0     H42614   4.070   6.307  10.837 -0.3066  1.3419  1.4352
  323MOL0     H42615   3.979   6.376  10.703 -1.7152  0.7158  1.8105
  323MOL0     H42616   3.773   6.269  10.790  0.5895 -4.4584  2.5447
  323MOL0     H42617   3.837   6.424  10.850 -0.3203  1.1147  0.9444
  323MOL0     H42618   4.559   6.010  10.041  1.6971 -1.0166  0.3420
  323MOL0     H42619   4.676   6.017   9.833  1.6716 -0.3582 -3.9304
  323MOL0     H42620   4.730   6.235   9.385  2.2480  1.2704 -2.5693
  323MOL0     H42621   4.815   6.232   9.155  0.3899  0.7400 -0.3916
  323MOL0     H42622   5.702   4.430   9.478 -0.8741 -0.4112 -0.6048
  323MOL0     H42623   5.930   4.391   9.533  3.6312  1.0301  0.0290
  323MOL0     H42624   6.461   4.545   9.320 -3.3895 -1.1562  0.4891
  323MOL0     H42625   6.700   4.432   9.345  0.3503  1.1654  1.6181
  323MOL0     H42626   6.735   4.263   9.635 -1.3769  1.2682 -0.9525
  323MOL0     H42627   6.894   4.256   9.561 -1.3110  0.8190  0.4728
  323MOL0     H42628   6.829   4.056   9.716 -1.1965  0.6096  0.5668
  323MOL0     H42629   6.709   4.003   9.583 -0.5024  3.5683 -1.7836
  323MOL0     H42630   6.895   3.953   9.443  0.6528 -1.3404  0.9701
  323MOL0     H42631   6.914   3.876   9.587 -0.9054  0.3464 -1.3727
  323MOL0     H42632   7.056   4.110   9.637 -0.4738 -1.7149  2.2391
  323MOL0     H42633   7.118   3.956   9.608 -0.1065  1.5460  2.2111
  323MOL0     H42634   7.245   4.131   9.248 -0.2133  0.6149 -0.8128
  323MOL0     H42635   6.532   4.076   9.477  3.0098  0.1340 -3.2625
  323MOL0     H42636   6.285   4.188   9.455 -1.0506  3.2653  1.2414
  324MOL0     O42637   9.380   2.910   6.498 -0.5112  0.3276  0.2828
  324MOL0     C42638   9.352   2.817   6.574 -0.0564 -0.2039  0.6867
  324MOL0     O42639   9.413   2.804   6.699 -0.3930  0.2531  0.0345
  324MOL0     C42640   9.486   2.907   6.748 -0.5686  0.0266  0.0407
  324MOL0     C42641   9.442   3.039   6.765 -0.0756  0.5859  0.6273
  324MOL0     C42642   9.525   3.128   6.823 -0.3936  0.1260 -0.4663
  324MOL0     C42643   9.651   3.098   6.875  0.5082 -0.5009  0.8798
  324MOL0     O42644   9.716   3.195   6.937  0.0113 -0.2492 -0.3010
  324MOL0     C42645   9.843   3.172   6.994  0.3732  0.4132  0.7882
  324MOL0     C42646   9.928   3.300   7.032 -0.2304 -0.1368  0.0164
  324MOL0     C42647   9.878   3.378   7.148  0.1762  0.1694 -0.2676
  324MOL0     C42648   9.965   3.501   7.147 -0.8052  0.1925 -0.1414
  324MOL0     C42649  10.108   3.476   7.206 -0.6964  0.4566 -0.8455
  324MOL0     C42650  10.175   3.616   7.186 -0.5717 -1.0327 -0.7018
  324MOL0     C42651  10.324   3.602   7.157  1.0866 -0.2851 -0.3227
  324MOL0     C42652  10.356   3.533   7.023 -0.8014 -0.7238 -0.3555
  324MOL0     N42653  10.494   3.494   7.005 -0.5379  0.6254 -0.4854
  324MOL0     C42654  10.598   3.576   7.018  0.6032 -0.4897  2.0904
  324MOL0     C42655  10.705   3.497   6.988  0.1935 -0.0889  0.0138
  324MOL0     C42656  10.851   3.537   6.965  0.1124 -0.4724  0.3258
  324MOL0     C42657  10.877   3.557   6.817  0.0412  0.5086 -0.4402
  324MOL0     C42658  10.998   3.641   6.802  0.0779 -0.1413  0.1463
  324MOL0     C42659  11.128   3.583   6.871 -0.1294 -0.0375  0.5397
  324MOL0     O42660  11.129   3.437   6.882 -0.4424  0.7378 -0.2787
  324MOL0     C42661  11.168   3.356   6.779  0.1733 -0.1851 -0.4047
  324MOL0     C42662  11.191   3.401   6.644 -0.4457 -0.4975  0.6382
  324MOL0     C42663  11.212   3.304   6.542  0.1027 -0.0617  0.0298
  324MOL0     C42664  11.204   3.169   6.566 -1.4796 -0.4657 -0.2704
  324MOL0     C42665  11.230   3.067   6.466 -0.8038 -0.5095  0.8773
  324MOL0     O42666  11.252   2.936   6.498  0.3586 -0.5537 -0.7819
  324MOL0     C42667  11.311   2.859   6.402  0.4301  0.5576  0.3099
  324MOL0     C42668  11.444   2.817   6.419  0.0386 -0.9495 -0.2212
  324MOL0     C42669  11.513   2.745   6.327  0.1901 -0.4115  0.3472
  324MOL0     C42670  11.447   2.705   6.203 -0.6210  0.0966  0.6287
  324MOL0     O42671  11.533   2.656   6.099 -0.2998 -0.2314  0.6206
  324MOL0     C42672  11.480   2.618   5.974 -0.1607 -1.4032 -0.1413
  324MOL0     C42673  11.605   2.600   5.873  0.0663  0.2302  0.4373
  324MOL0     C42674  11.673   2.731   5.830 -0.0847 -0.3217 -0.3437
  324MOL0     C42675  11.657   2.782   5.684 -0.0705  0.6058  0.3922
  324MOL0     C42676  11.757   2.885   5.645 -0.7991 -0.9727 -0.2148
  324MOL0     C42677  11.716   2.964   5.516  1.0933 -0.1261 -0.2490
  324MOL0     C42678  11.804   3.084   5.506 -0.8849  0.4906  0.1140
  324MOL0     C42679  11.776   3.157   5.377 -0.7820 -0.8006 -0.1962
  324MOL0    Cl42680  11.818   3.054   5.232 -0.2722 -0.2346 -0.3848
  324MOL0     C42681  11.314   2.752   6.176  0.1220 -0.5379  0.6141
  324MOL0     C42682  11.243   2.828   6.277 -0.1039 -0.8254  0.0082
  324MOL0     O42683  11.259   3.118   6.354 -0.1246  0.7874 -0.4385
  324MOL0     C42684  11.187   3.127   6.701  0.3189 -0.4674  0.2555
  324MOL0     C42685  11.171   3.218   6.805  1.0528  0.3630  0.3712
  324MOL0     N42686  10.656   3.368   6.966  0.0052  0.1587 -0.2451
  324MOL0     N42687  10.530   3.370   6.967  0.0507  0.1055 -1.4148
  324MOL0     C42688   9.688   2.962   6.874  0.4946 -0.9738  0.7941
  324MOL0     C42689   9.608   2.868   6.808  1.0174  0.3688  0.3700
  324MOL0     C42690   9.253   2.716   6.543  0.8412  0.7209  0.0093
  324MOL0     C42691   9.241   2.597   6.618 -0.4555 -0.3859 -0.5706
  324MOL0     C42692   9.138   2.498   6.608  0.2086  0.0847 -0.0732
  324MOL0     C42693   9.066   2.501   6.494  0.3382 -0.6289  1.0336
  324MOL0     O42694   8.962   2.414   6.457 -0.0261 -0.0911  0.5817
  324MOL0     C42695   8.922   2.297   6.534 -0.1533 -0.1550 -0.9870
  324MOL0     C42696   8.831   2.206   6.461 -0.2582 -0.3137 -0.4397
  324MOL0     C42697   8.909   2.160   6.337  0.1357 -0.6324 -0.1372
  324MOL0     C42698   8.821   2.055   6.266  0.2085  0.1600  0.2090
  324MOL0     C42699   8.895   1.961   6.184  0.1472  0.7197  0.3012
  324MOL0     C42700   8.968   1.880   6.132  0.3613  0.9031  0.3697
  324MOL0     C42701   9.075   2.614   6.403  0.4194  0.4608  0.0417
  324MOL0     C42702   9.157   2.721   6.440 -1.0006 -0.7293  0.5185
  324MOL0     H42703   9.345   3.061   6.721 -1.0719  1.1314  2.9380
  324MOL0     H42704   9.513   3.236   6.826  2.3808  0.4962  2.1947
  324MOL0     H42705   9.898   3.105   6.927 -1.9852  0.8227 -1.7323
  324MOL0     H42706   9.832   3.108   7.083  2.9657 -1.1243  0.1246
  324MOL0     H42707   9.912   3.364   6.945 -0.8125  0.9690  0.9087
  324MOL0     H42708  10.033   3.274   7.042 -0.7536 -2.3706  0.3260
  324MOL0     H42709   9.875   3.329   7.245  0.1809 -3.0887 -1.7920
  324MOL0     H42710   9.774   3.406   7.125 -0.8697  1.8233  5.0291
  324MOL0     H42711   9.982   3.532   7.044  2.7217  3.5632  1.2199
  324MOL0     H42712   9.919   3.585   7.199  1.2990  1.5827 -0.3937
  324MOL0     H42713  10.166   3.400   7.152  1.7516  1.5302  0.1292
  324MOL0     H42714  10.113   3.450   7.312  2.2233 -1.1324 -1.2688
  324MOL0     H42715  10.162   3.678   7.275 -2.8424  0.4583 -1.9560
  324MOL0     H42716  10.122   3.668   7.105 -1.1867  0.3404  0.5356
  324MOL0     H42717  10.385   3.693   7.165  0.0387  0.4507 -0.5475
  324MOL0     H42718  10.361   3.533   7.234 -0.0657  1.4269  1.8731
  324MOL0     H42719  10.327   3.603   6.945  0.2719  1.1829  0.8809
  324MOL0     H42720  10.292   3.445   7.014 -2.0143 -0.1251  1.7187
  324MOL0     H42721  10.598   3.685   7.013  1.9271 -0.4568  2.4477
  324MOL0     H42722  10.919   3.462   7.007 -1.7324 -2.6629 -0.4516
  324MOL0     H42723  10.873   3.634   7.011 -0.8209  1.0239 -2.1916
  324MOL0     H42724  10.795   3.613   6.771 -1.3265  0.3255  1.6293
  324MOL0     H42725  10.879   3.465   6.758 -0.5018  0.9615 -1.1829
  324MOL0     H42726  11.004   3.644   6.692 -1.1546  1.2524  0.0811
  324MOL0     H42727  10.989   3.745   6.834  1.6527  0.9874 -2.7060
  324MOL0     H42728  11.123   3.611   6.976  1.2970  0.5987  0.4631
  324MOL0     H42729  11.217   3.634   6.833 -0.5328  0.9012  0.8255
  324MOL0     H42730  11.205   3.508   6.628  0.5184 -0.2834  2.5823
  324MOL0     H42731  11.244   3.338   6.444  1.2504 -2.1874 -0.3953
  324MOL0     H42732  11.494   2.862   6.504 -2.0650  0.1899  0.4849
  324MOL0     H42733  11.621   2.733   6.335  0.8058  2.5219 -1.8110
  324MOL0     H42734  11.405   2.685   5.932  0.3366 -0.0607  1.0562
  324MOL0     H42735  11.430   2.523   5.997  2.5721 -2.1425  3.6370
  324MOL0     H42736  11.573   2.550   5.781  0.6470 -0.8433  0.8124
  324MOL0     H42737  11.686   2.541   5.916 -0.5730 -1.3904 -0.4820
  324MOL0     H42738  11.777   2.732   5.862 -0.6173 -1.3631  1.5573
  324MOL0     H42739  11.644   2.807   5.903  3.2368 -0.6395  1.4985
  324MOL0     H42740  11.677   2.698   5.616 -3.4241  0.3370 -0.4812
  324MOL0     H42741  11.550   2.799   5.667 -0.5485 -1.9474  0.3453
  324MOL0     H42742  11.850   2.830   5.630  0.8557  1.9856 -1.7305
  324MOL0     H42743  11.746   2.957   5.727 -1.1785 -0.2052 -0.9278
  324MOL0     H42744  11.610   2.990   5.519  1.2974  0.8821 -1.1519
  324MOL0     H42745  11.714   2.893   5.434  1.0764 -2.0642  1.3652
  324MOL0     H42746  11.775   3.147   5.591 -0.3653  0.0688  0.6141
  324MOL0     H42747  11.908   3.050   5.505 -1.1951 -0.5476 -1.4203
  324MOL0     H42748  11.825   3.254   5.384 -0.5887 -0.7330 -1.8988
  324MOL0     H42749  11.669   3.172   5.364 -1.2332 -4.1260 -1.4638
  324MOL0     H42750  11.257   2.732   6.086 -0.2147  1.6714  0.2766
  324MOL0     H42751  11.139   2.857   6.275  0.7987  2.9315 -1.4382
  324MOL0     H42752  11.204   3.024   6.729 -2.9434 -1.1115  0.3251
  324MOL0     H42753  11.161   3.194   6.910  1.8175  1.4319  0.7048
  324MOL0     H42754   9.777   2.922   6.920  0.6976 -0.5748  0.7563
  324MOL0     H42755   9.622   2.760   6.808  1.8977  0.4677  1.0012
  324MOL0     H42756   9.316   2.585   6.696 -0.8335 -0.6302 -0.2400
  324MOL0     H42757   9.134   2.423   6.687 -0.3494  1.0359  0.8166
  324MOL0     H42758   8.868   2.319   6.627  2.5624 -0.0504  0.7015
  324MOL0     H42759   9.018   2.252   6.561  0.5877  1.1780 -1.3159
  324MOL0     H42760   8.831   2.126   6.536 -2.1960  2.0365  2.2758
  324MOL0     H42761   8.733   2.253   6.458 -0.9972 -1.7889 -0.4256
  324MOL0     H42762   9.010   2.126   6.360  1.7007  4.0419  1.1868
  324MOL0     H42763   8.926   2.247   6.273 -2.5205  0.5836  0.6867
  324MOL0     H42764   8.761   1.995   6.335 -1.2744  2.5490  1.1248
  324MOL0     H42765   8.758   2.114   6.199  2.0994 -0.0418 -1.8721
  324MOL0     H42766   9.044   1.815   6.093 -0.5617  1.6226 -3.0463
  324MOL0     H42767   9.002   2.617   6.322 -2.0511  1.0611  2.1519
  324MOL0     H42768   9.170   2.808   6.377  0.9064  0.8516  2.9180
  325MOL0     O42769   6.809   5.098   5.496 -0.0775  0.3514 -0.4914
  325MOL0     C42770   6.841   5.192   5.570  0.1435 -1.5873 -0.3083
  325MOL0     O42771   6.931   5.293   5.545  0.1864 -0.2479  0.1949
  325MOL0     C42772   6.994   5.297   5.428  0.1521 -0.5842  0.8515
  325MOL0     C42773   6.985   5.409   5.342 -0.2203  0.5270  0.0795
  325MOL0     C42774   7.061   5.421   5.232 -0.0092 -0.4462  0.4037
  325MOL0     C42775   7.148   5.310   5.190  0.2824 -0.5175  0.0660
  325MOL0     O42776   7.221   5.307   5.076 -0.2676  0.4025 -0.3600
  325MOL0     C42777   7.227   5.411   4.990 -0.4638 -0.4059 -0.6081
  325MOL0     C42778   7.356   5.389   4.897  0.7316 -0.5403  0.3165
  325MOL0     C42779   7.370   5.249   4.841 -0.0417  0.5248  0.4889
  325MOL0     C42780   7.450   5.244   4.707  0.6113  0.1527 -0.2609
  325MOL0     C42781   7.492   5.109   4.652  0.0585  0.3668 -0.2052
  325MOL0     C42782   7.629   5.056   4.661 -0.3143  0.1668 -0.0890
  325MOL0     C42783   7.662   5.032   4.804 -0.0716  0.6448  0.2947
  325MOL0     C42784   7.772   4.928   4.815 -0.8128  0.7545 -0.1732
  325MOL0     N42785   7.812   4.909   4.955 -0.2646 -0.3182 -0.8197
  325MOL0     C42786   7.731   4.895   5.065  0.3782  0.7268  0.3194
  325MOL0     C42787   7.808   4.893   5.170 -0.4265 -0.4500 -0.2218
  325MOL0     C42788   7.743   4.862   5.312  0.3410  0.6317  0.5178
  325MOL0     C42789   7.597   4.905   5.311 -1.3523  0.2509 -0.9919
  325MOL0     C42790   7.537   4.859   5.447  0.4680 -1.1812  0.0941
  325MOL0     C42791   7.385   4.843   5.444  0.7073  0.4936 -1.2880
  325MOL0     O42792   7.337   4.823   5.577 -0.7061 -0.3325 -0.2018
  325MOL0     C42793   7.196   4.825   5.601  0.1080  0.6812  0.3280
  325MOL0     C42794   7.102   4.820   5.492 -0.5547  0.3143  0.3882
  325MOL0     C42795   6.968   4.798   5.514 -0.0504 -0.3125 -0.2477
  325MOL0     C42796   6.922   4.786   5.649  0.2998 -0.7748 -0.1644
  325MOL0     C42797   6.773   4.743   5.668  0.4200  0.5974  1.3288
  325MOL0     O42798   6.701   4.712   5.554 -0.2596  0.3175  0.8185
  325MOL0     C42799   6.561   4.707   5.569  0.3620 -0.2066 -0.0193
  325MOL0     C42800   6.488   4.595   5.622 -0.5701  0.3406  0.9414
  325MOL0     C42801   6.349   4.610   5.650 -0.1741  0.7007  0.1788
  325MOL0     C42802   6.277   4.720   5.603 -0.0222 -0.2968  1.0840
  325MOL0     O42803   6.141   4.738   5.613 -0.6823 -0.1353  0.0422
  325MOL0     C42804   6.081   4.694   5.744  0.1925  0.2007 -0.6797
  325MOL0     C42805   5.967   4.800   5.791  0.1758 -0.2010  0.7243
  325MOL0     C42806   5.859   4.808   5.687  0.0054 -0.9513  0.6452
  325MOL0     C42807   5.740   4.899   5.719 -0.1041 -1.1927 -0.0760
  325MOL0     C42808   5.657   4.937   5.587  0.5198 -0.1514  0.1927
  325MOL0     C42809   5.526   4.996   5.634  0.0617 -0.5262  0.4347
  325MOL0     C42810   5.427   5.023   5.530 -0.4611  0.2211 -0.0963
  325MOL0     C42811   5.307   5.090   5.587 -0.8915  0.3368  0.3197
  325MOL0    Cl42812   5.219   5.176   5.443  0.4265 -0.6903 -0.2509
  325MOL0     C42813   6.351   4.820   5.537  0.5111 -0.5400  0.3817
  325MOL0     C42814   6.491   4.812   5.523  0.6938 -0.4802 -0.7528
  325MOL0     O42815   6.736   4.748   5.784 -0.3414  0.5047 -0.8366
  325MOL0     C42816   7.013   4.779   5.758  0.3768 -0.3645  1.6211
  325MOL0     C42817   7.153   4.804   5.731  0.5358 -0.2936  0.0322
  325MOL0     N42818   7.944   4.910   5.122  0.3077 -0.6696 -0.5520
  325MOL0     N42819   7.940   4.929   5.002  0.1402 -1.0973 -0.2167
  325MOL0     C42820   7.164   5.210   5.271  0.4109  0.4178  0.2059
  325MOL0     C42821   7.089   5.200   5.394 -0.4890 -0.0523  0.4239
  325MOL0     C42822   6.802   5.175   5.713  1.0785  0.6299 -0.1275
  325MOL0     C42823   6.841   5.272   5.808 -0.1852 -0.1115 -0.6019
  325MOL0     C42824   6.803   5.259   5.938 -0.5017  0.1069  1.2127
  325MOL0     C42825   6.717   5.163   5.987 -0.0273  0.6122  0.3874
  325MOL0     O42826   6.676   5.165   6.125 -0.8420 -0.0600  0.7081
  325MOL0     C42827   6.580   5.071   6.180 -0.2981  0.1131  0.3969
  325MOL0     C42828   6.480   5.146   6.267  0.0475  0.0273 -0.5106
  325MOL0     C42829   6.411   5.264   6.190 -0.1365  0.1701  0.0181
  325MOL0     C42830   6.317   5.337   6.279 -0.0035  0.5766  0.3668
  325MOL0     C42831   6.256   5.443   6.202 -0.2609  1.4912 -0.8699
  325MOL0     C42832   6.194   5.524   6.149 -0.6179  0.0685  1.0276
  325MOL0     C42833   6.654   5.078   5.883  0.4418 -0.1816  0.0019
  325MOL0     C42834   6.699   5.091   5.748  0.9763  0.0264 -0.4589
  325MOL0     H42835   6.915   5.488   5.370 -2.3991 -1.6954  1.3913
  325MOL0     H42836   7.050   5.510   5.172 -0.6541  1.1569  2.7520
  325MOL0     H42837   7.243   5.500   5.052 -4.0196 -0.6873  0.9616
  325MOL0     H42838   7.128   5.412   4.943 -1.1806 -1.8239  0.7966
  325MOL0     H42839   7.444   5.434   4.944  1.1243 -1.6009  0.6185
  325MOL0     H42840   7.333   5.436   4.801  0.4231  3.2614  2.0574
  325MOL0     H42841   7.269   5.214   4.818  0.4126 -2.6779  2.6807
  325MOL0     H42842   7.407   5.182   4.919 -0.5230  2.2320  2.2519
  325MOL0     H42843   7.410   5.301   4.623 -0.5053 -1.7598 -1.1107
  325MOL0     H42844   7.548   5.285   4.732 -0.1739 -0.3968  4.7265
  325MOL0     H42845   7.473   5.102   4.544  4.4549 -0.7997 -1.1196
  325MOL0     H42846   7.423   5.034   4.691 -0.5518  2.2790  2.6713
  325MOL0     H42847   7.695   5.132   4.619 -2.3534  1.6883 -0.7090
  325MOL0     H42848   7.648   4.969   4.598  3.7076  0.2402  0.7480
  325MOL0     H42849   7.691   5.114   4.870 -1.3444  1.9018 -0.6308
  325MOL0     H42850   7.576   4.987   4.856 -1.6303  2.2850 -0.7492
  325MOL0     H42851   7.849   4.965   4.746 -0.2438  0.8665  0.5136
  325MOL0     H42852   7.730   4.832   4.783 -0.9934  1.2737 -1.5874
  325MOL0     H42853   7.623   4.882   5.058  0.4785  0.1259 -0.2112
  325MOL0     H42854   7.801   4.904   5.394  2.6220  0.7787 -1.0712
  325MOL0     H42855   7.747   4.755   5.337 -0.2946  0.6541  0.7413
  325MOL0     H42856   7.545   4.841   5.240 -0.7629 -1.8273  0.3403
  325MOL0     H42857   7.588   5.014   5.302 -0.3687  0.6523  1.8045
  325MOL0     H42858   7.578   4.760   5.472  0.0224 -0.7918  2.5262
  325MOL0     H42859   7.569   4.930   5.523 -0.9663  1.8654 -1.9606
  325MOL0     H42860   7.373   4.750   5.388 -1.5278  1.2396 -2.1739
  325MOL0     H42861   7.343   4.930   5.393 -0.4924  0.2350 -0.7797
  325MOL0     H42862   7.142   4.820   5.391  0.9868  0.6492  0.9687
  325MOL0     H42863   6.907   4.802   5.425 -0.8873  2.6763  0.3459
  325MOL0     H42864   6.531   4.500   5.654 -0.6863 -1.4384 -3.4588
  325MOL0     H42865   6.311   4.528   5.711  0.6671  1.7349  2.2024
  325MOL0     H42866   6.153   4.667   5.822  1.3351 -0.2406 -1.8393
  325MOL0     H42867   6.028   4.600   5.729  0.2230 -0.1955  1.4457
  325MOL0     H42868   6.012   4.899   5.803  0.6243 -0.5708  2.2679
  325MOL0     H42869   5.916   4.768   5.882 -1.5520  0.5712  0.0710
  325MOL0     H42870   5.824   4.708   5.659  1.1392 -1.0265 -0.6186
  325MOL0     H42871   5.895   4.853   5.594 -3.6671  2.7627  0.7119
  325MOL0     H42872   5.672   4.847   5.787 -1.2031  0.2698 -0.0042
  325MOL0     H42873   5.782   4.983   5.776  1.4281 -1.8424 -0.1964
  325MOL0     H42874   5.632   4.852   5.523 -0.5409  0.9292 -0.8756
  325MOL0     H42875   5.697   5.012   5.518  1.0423 -0.3303  0.2987
  325MOL0     H42876   5.540   5.086   5.696 -3.5886 -0.4813  1.4335
  325MOL0     H42877   5.480   4.917   5.695 -1.6903 -0.5003 -0.7797
  325MOL0     H42878   5.470   5.086   5.451 -0.2753  1.6070  1.0719
  325MOL0     H42879   5.396   4.928   5.485  0.5431 -0.6481  0.9836
  325MOL0     H42880   5.355   5.156   5.660  2.6044 -1.4290 -0.1810
  325MOL0     H42881   5.252   5.016   5.646  2.1545 -1.7043  0.7952
  325MOL0     H42882   6.304   4.907   5.493  1.3448  0.4428  1.3817
  325MOL0     H42883   6.548   4.900   5.497  0.3614 -0.2221 -0.6092
  325MOL0     H42884   6.977   4.761   5.859 -0.9853  0.3814  1.3014
  325MOL0     H42885   7.224   4.796   5.813  0.1435  1.2095  0.5404
  325MOL0     H42886   7.234   5.127   5.265 -1.2660 -1.0485  0.1803
  325MOL0     H42887   7.099   5.112   5.457  0.8095 -0.2010  0.0391
  325MOL0     H42888   6.909   5.353   5.786 -2.2305  2.1938  0.9856
  325MOL0     H42889   6.846   5.326   6.011  3.7361 -1.5822  0.5664
  325MOL0     H42890   6.630   4.999   6.245  1.7214  1.3086  0.2205
  325MOL0     H42891   6.519   5.010   6.112 -0.9401 -2.3454  2.9826
  325MOL0     H42892   6.395   5.083   6.293  1.6260 -1.5169  1.1523
  325MOL0     H42893   6.539   5.169   6.356 -0.0151 -0.1137 -0.4331
  325MOL0     H42894   6.357   5.228   6.102  0.0723 -0.0770 -0.0096
  325MOL0     H42895   6.486   5.334   6.153  0.6347 -0.3738  0.5371
  325MOL0     H42896   6.239   5.272   6.320 -0.9560  1.5110  0.0794
  325MOL0     H42897   6.384   5.384   6.352  2.5703 -1.9257 -0.1811
  325MOL0     H42898   6.163   5.612   6.098  1.3465 -1.8402 -4.1060
  325MOL0     H42899   6.567   5.018   5.906  1.3585 -0.9621  1.6698
  325MOL0     H42900   6.645   5.028   5.679 -0.4162  0.2025  0.4208
  326MOL0     O42901   2.896   0.120   1.844  0.3473  0.8314  0.1397
  326MOL0     C42902   2.993   0.045   1.874 -0.1942  0.1764  0.2707
  326MOL0     O42903   3.112   0.088   1.928  0.6591  0.1433  0.2951
  326MOL0     C42904   3.122   0.219   1.966  0.4252  0.3981 -0.1197
  326MOL0     C42905   3.210   0.299   1.895  0.2135  0.1635  1.5998
  326MOL0     C42906   3.226   0.435   1.912 -0.1035  0.7860  0.8694
  326MOL0     C42907   3.154   0.494   2.010 -0.1158 -0.8157 -0.3901
  326MOL0     O42908   3.151   0.627   2.046 -0.0844  0.7456  0.7154
  326MOL0     C42909   3.150   0.704   1.926  0.3691 -0.2567 -0.3011
  326MOL0     C42910   3.050   0.821   1.947 -0.1737 -0.3892 -0.6032
  326MOL0     C42911   3.074   0.870   2.089 -0.6960  0.3220 -0.2093
  326MOL0     C42912   3.025   1.010   2.103 -0.5249 -0.6952  0.9049
  326MOL0     C42913   3.106   1.106   2.015 -0.1160  0.0323  0.0036
  326MOL0     C42914   3.159   1.233   2.063  0.2054 -0.4697  0.9504
  326MOL0     C42915   3.059   1.331   2.088 -0.6576 -0.9279  0.8580
  326MOL0     C42916   2.990   1.315   2.225  0.5759 -0.8388  0.2396
  326MOL0     N42917   2.934   1.437   2.274 -0.6172  0.0972 -0.9037
  326MOL0     C42918   2.799   1.461   2.288  0.4420 -0.5999 -1.2756
  326MOL0     C42919   2.790   1.572   2.359  0.2805  0.4341  0.7925
  326MOL0     C42920   2.668   1.621   2.407  0.9114 -0.8716 -0.5776
  326MOL0     C42921   2.615   1.560   2.538  0.9126  0.1503  0.6374
  326MOL0     C42922   2.728   1.545   2.638  0.0934 -0.2587  0.0450
  326MOL0     C42923   2.682   1.504   2.778  0.3908 -0.3767  0.0701
  326MOL0     O42924   2.671   1.363   2.811 -0.3083  0.0298  0.1189
  326MOL0     C42925   2.662   1.344   2.940  0.1722  0.6145  0.8702
  326MOL0     C42926   2.757   1.280   3.019  0.1352 -0.0976 -0.0291
  326MOL0     C42927   2.738   1.246   3.152  0.1784 -0.6106 -0.3140
  326MOL0     C42928   2.618   1.276   3.220  0.7991 -0.6956  0.8749
  326MOL0     C42929   2.586   1.228   3.352 -0.0981  0.5156  0.4439
  326MOL0     O42930   2.475   1.285   3.416  0.3378  0.4113  0.0874
  326MOL0     C42931   2.467   1.288   3.549  0.0982 -0.7055  0.4184
  326MOL0     C42932   2.431   1.412   3.599  0.5691  0.0720 -0.3673
  326MOL0     C42933   2.413   1.428   3.734  0.6370 -0.6520 -0.5259
  326MOL0     C42934   2.450   1.326   3.827  0.1315  0.1201 -0.2727
  326MOL0     O42935   2.441   1.325   3.963  0.1824 -0.0360  0.1409
  326MOL0     C42936   2.445   1.447   4.041 -0.2682 -0.6500 -0.2390
  326MOL0     C42937   2.347   1.412   4.162 -0.2746 -0.0458  0.2599
  326MOL0     C42938   2.326   1.523   4.263 -1.0038 -0.3732  0.2487
  326MOL0     C42939   2.190   1.515   4.313  0.1238  0.5399  0.5237
  326MOL0     C42940   2.155   1.627   4.410  0.1537 -1.1448  0.4711
  326MOL0     C42941   2.015   1.605   4.471 -0.4363 -0.7763  0.3834
  326MOL0     C42942   1.984   1.702   4.582  1.2147 -0.6718 -1.2517
  326MOL0     C42943   2.077   1.683   4.700  0.8778  0.5698 -0.0135
  326MOL0    Cl42944   2.096   1.522   4.778 -0.4093 -0.2021  0.3286
  326MOL0     C42945   2.496   1.206   3.776 -0.0282  0.7138  1.9482
  326MOL0     C42946   2.502   1.177   3.638 -0.1201 -0.8462  1.0532
  326MOL0     O42947   2.666   1.152   3.405  0.0641 -0.6602 -0.0516
  326MOL0     C42948   2.527   1.359   3.145  0.1575  0.1155  0.1766
  326MOL0     C42949   2.552   1.383   3.011  0.4773 -0.4864  0.4271
  326MOL0     N42950   2.911   1.614   2.398  0.3258 -0.4948  0.2968
  326MOL0     N42951   2.999   1.535   2.347 -0.9970  0.7996 -0.8323
  326MOL0     C42952   3.060   0.421   2.087 -0.2847  0.9478  0.9636
  326MOL0     C42953   3.048   0.274   2.068 -0.2507 -0.3594  0.1115
  326MOL0     C42954   2.980  -0.098   1.846  1.5517  0.7257 -0.4840
  326MOL0     C42955   3.083  -0.183   1.824 -0.3774 -0.2384 -0.2765
  326MOL0     C42956   3.076  -0.313   1.782  0.3367 -0.7081 -1.1607
  326MOL0     C42957   2.951  -0.375   1.766 -0.1727  0.0431  0.6656
  326MOL0     O42958   2.933  -0.506   1.727 -0.0015 -0.2082  0.0155
  326MOL0     C42959   3.045  -0.595   1.700 -0.1894 -0.0599 -0.0288
  326MOL0     C42960   3.120  -0.627   1.833 -0.8163  0.0867 -0.0998
  326MOL0     C42961   3.229  -0.731   1.824 -0.5712  0.3421  0.0169
  326MOL0     C42962   3.332  -0.694   1.717  0.8551  0.0745 -0.0062
  326MOL0     C42963   3.393  -0.560   1.727 -0.3138 -0.1332 -0.0436
  326MOL0     C42964   3.445  -0.453   1.726  0.3054 -0.6011 -0.3774
  326MOL0     C42965   2.833  -0.296   1.780 -0.1297  0.3640  0.1652
  326MOL0     C42966   2.850  -0.162   1.826 -0.1995  1.3933  0.9997
  326MOL0     H42967   3.264   0.251   1.814 -2.9923  0.3012 -0.8523
  326MOL0     H42968   3.295   0.491   1.849 -1.8018 -0.9056 -2.7844
  326MOL0     H42969   3.107   0.648   1.843  0.0697 -1.2380  0.4806
  326MOL0     H42970   3.251   0.741   1.907  2.7485 -2.7477  5.0558
  326MOL0     H42971   2.945   0.790   1.949 -0.7243  1.3631  0.5553
  326MOL0     H42972   3.060   0.903   1.875  2.1550  1.1763  1.3092
  326MOL0     H42973   3.179   0.856   2.118 -1.3702  1.5045  3.2052
  326MOL0     H42974   3.010   0.816   2.159 -2.0452  2.9295  0.7090
  326MOL0     H42975   2.922   1.020   2.065 -0.0262  1.1852 -0.0900
  326MOL0     H42976   3.023   1.046   2.206  1.8741  1.4823  0.2775
  326MOL0     H42977   3.057   1.119   1.918 -1.7357 -0.1450  0.7587
  326MOL0     H42978   3.201   1.058   1.992  0.3170 -0.2158  2.1382
  326MOL0     H42979   3.216   1.267   1.976 -2.9972 -0.3675 -1.2793
  326MOL0     H42980   3.219   1.208   2.151  1.2220 -2.9285 -0.3716
  326MOL0     H42981   3.114   1.425   2.081  1.3555 -2.1756 -3.9394
  326MOL0     H42982   2.981   1.349   2.014  1.4180 -0.0387 -1.2214
  326MOL0     H42983   3.053   1.275   2.305 -2.4772 -0.7721  2.8730
  326MOL0     H42984   2.910   1.243   2.206 -1.0529  1.7513 -4.3809
  326MOL0     H42985   2.714   1.413   2.242 -2.6848  3.8980 -0.8283
  326MOL0     H42986   2.588   1.617   2.333  0.4061  0.5700 -0.1491
  326MOL0     H42987   2.685   1.728   2.422 -0.5713 -0.8534  1.4845
  326MOL0     H42988   2.571   1.461   2.523  0.9253 -0.0805  2.0261
  326MOL0     H42989   2.533   1.622   2.573  0.7974  0.8520 -0.7839
  326MOL0     H42990   2.795   1.466   2.603 -1.3754 -0.5310 -2.3253
  326MOL0     H42991   2.785   1.638   2.645  1.1864 -1.0119  2.0756
  326MOL0     H42992   2.578   1.535   2.791  0.9414  0.8378  1.9593
  326MOL0     H42993   2.756   1.554   2.841  1.2382 -1.7029  0.1688
  326MOL0     H42994   2.845   1.235   2.975  1.1474 -1.2691  2.9091
  326MOL0     H42995   2.815   1.194   3.209 -0.1135 -1.2424 -0.4819
  326MOL0     H42996   2.407   1.483   3.521 -2.1987 -0.9431 -0.5252
  326MOL0     H42997   2.364   1.520   3.766  1.2054  0.6282 -3.0228
  326MOL0     H42998   2.412   1.543   3.999  2.2245  1.2464  1.7633
  326MOL0     H42999   2.549   1.454   4.073 -0.0652  1.6286 -1.1905
  326MOL0     H43000   2.389   1.329   4.219 -1.3396  0.2630  1.5293
  326MOL0     H43001   2.250   1.390   4.116 -1.0411  0.6793  1.4821
  326MOL0     H43002   2.353   1.620   4.220  1.0653 -1.5974 -1.3758
  326MOL0     H43003   2.399   1.511   4.344  0.4498 -0.8036 -1.0696
  326MOL0     H43004   2.119   1.526   4.231 -0.4889 -0.3132  0.9165
  326MOL0     H43005   2.167   1.415   4.351 -1.4005  1.2546  1.5792
  326MOL0     H43006   2.154   1.722   4.356 -0.7594 -2.4527 -1.9756
  326MOL0     H43007   2.232   1.645   4.485  1.4290  2.4577 -1.4430
  326MOL0     H43008   2.019   1.502   4.506  0.2758 -0.6755  0.6170
  326MOL0     H43009   1.935   1.609   4.396 -0.0097 -0.2131 -0.0558
  326MOL0     H43010   2.010   1.803   4.549  1.2587 -0.0122  0.6581
  326MOL0     H43011   1.878   1.697   4.610  0.7859 -0.8425 -2.8031
  326MOL0     H43012   2.042   1.757   4.773  3.0154  0.4404  1.2105
  326MOL0     H43013   2.180   1.710   4.675  1.0739  0.4406  0.6401
  326MOL0     H43014   2.523   1.126   3.844 -1.3417 -1.3789  0.1326
  326MOL0     H43015   2.539   1.084   3.597  3.1942  1.1601 -1.0189
  326MOL0     H43016   2.435   1.402   3.184 -0.4490 -1.0806  0.1052
  326MOL0     H43017   2.470   1.435   2.962  3.2669  1.7887 -2.2607
  326MOL0     H43018   3.002   0.463   2.168  0.4110  1.5182  1.1792
  326MOL0     H43019   2.972   0.218   2.122 -1.6188 -0.4266 -1.7826
  326MOL0     H43020   3.179  -0.136   1.843 -0.3331 -1.0709  1.8298
  326MOL0     H43021   3.169  -0.365   1.763  0.9366  0.6496 -2.0010
  326MOL0     H43022   3.109  -0.543   1.627 -1.7233  0.2266 -1.2305
  326MOL0     H43023   3.016  -0.691   1.656  1.8708 -0.0795 -1.4517
  326MOL0     H43024   3.167  -0.541   1.882 -1.8522  1.3490 -1.2598
  326MOL0     H43025   3.046  -0.668   1.903 -0.5553  0.3753  0.3521
  326MOL0     H43026   3.191  -0.828   1.794 -0.3696  0.4504 -0.5964
  326MOL0     H43027   3.278  -0.741   1.922  3.1172  0.2954 -1.6540
  326MOL0     H43028   3.410  -0.770   1.725 -1.8536 -2.7833  1.7155
  326MOL0     H43029   3.299  -0.706   1.613  2.4617 -3.0545 -0.2622
  326MOL0     H43030   3.493  -0.360   1.703  2.3507 -1.9384 -1.8875
  326MOL0     H43031   2.735  -0.344   1.779 -0.1242 -0.0218  3.8071
  326MOL0     H43032   2.760  -0.105   1.846 -0.8458  0.2125  1.5428
  327MOL0     O43033   7.116   2.850   6.330 -0.2765  0.5499  0.0415
  327MOL0     C43034   7.202   2.936   6.370  0.2642 -1.4580  0.3282
  327MOL0     O43035   7.220   3.058   6.313 -0.4362  0.3994 -0.0063
  327MOL0     C43036   7.154   3.101   6.204 -0.1527 -0.5458 -1.1352
  327MOL0     C43037   7.134   3.237   6.200 -0.2918 -0.4271  0.0829
  327MOL0     C43038   7.076   3.301   6.093 -0.4802 -0.3171 -0.5044
  327MOL0     C43039   7.036   3.223   5.989  0.3437  0.1029 -0.1381
  327MOL0     O43040   6.985   3.301   5.881 -0.5912  0.5224  0.8259
  327MOL0     C43041   6.855   3.249   5.839  0.1102 -0.5463  0.2971
  327MOL0     C43042   6.842   3.296   5.692  0.4280 -0.6618  0.3515
  327MOL0     C43043   6.925   3.214   5.598 -0.3193 -0.7397  0.1886
  327MOL0     C43044   6.969   3.297   5.481 -0.0325  0.0453  0.2604
  327MOL0     C43045   7.049   3.219   5.375 -0.5437  0.6979 -0.0176
  327MOL0     C43046   7.181   3.155   5.435 -0.5500 -0.5328  0.3773
  327MOL0     C43047   7.248   3.071   5.321 -0.7365 -0.1303 -0.1378
  327MOL0     C43048   7.363   2.976   5.368 -0.1100  0.2077 -0.2272
  327MOL0     N43049   7.481   3.054   5.397 -0.0608  0.0455 -0.3680
  327MOL0     C43050   7.575   3.086   5.309 -0.5094  0.3175 -0.1262
  327MOL0     C43051   7.657   3.172   5.371  0.6063  0.5797  0.2469
  327MOL0     C43052   7.774   3.241   5.310 -0.9187 -0.6866 -0.3735
  327MOL0     C43053   7.904   3.181   5.357  0.4877 -0.0654 -0.1289
  327MOL0     C43054   7.952   3.061   5.278  0.1454 -0.8585  0.4164
  327MOL0     C43055   8.070   2.985   5.339 -0.2457 -0.3112  0.2912
  327MOL0     O43056   8.190   3.061   5.345  0.5191  0.3551  0.2949
  327MOL0     C43057   8.311   3.005   5.362  0.3772  0.2502  0.6718
  327MOL0     C43058   8.332   2.875   5.381 -0.9334  0.5114 -0.7168
  327MOL0     C43059   8.469   2.830   5.399 -0.2743  0.1711 -0.2893
  327MOL0     C43060   8.574   2.919   5.390 -0.8520  0.2763 -0.6335
  327MOL0     C43061   8.714   2.880   5.403 -0.4461 -0.3310 -0.4436
  327MOL0     O43062   8.806   2.972   5.377 -0.8606 -0.5835 -0.4338
  327MOL0     C43063   8.944   2.949   5.372 -0.7726  0.7256 -0.6620
  327MOL0     C43064   9.026   3.055   5.354  0.6554 -0.7057 -0.3339
  327MOL0     C43065   9.158   3.050   5.330 -0.7259 -0.3398 -0.1922
  327MOL0     C43066   9.227   2.924   5.329 -0.3416  0.5071 -0.3933
  327MOL0     O43067   9.366   2.918   5.305  1.1213  0.3599 -1.2193
  327MOL0     C43068   9.440   2.838   5.394 -1.1207  0.5437 -0.2370
  327MOL0     C43069   9.487   2.717   5.302 -0.6098 -0.7163  0.7072
  327MOL0     C43070   9.549   2.596   5.373  0.8811 -0.4148 -0.6647
  327MOL0     C43071   9.440   2.490   5.386 -0.6908  0.1836 -0.9261
  327MOL0     C43072   9.466   2.392   5.499  0.2760  0.0271  1.1981
  327MOL0     C43073   9.506   2.444   5.643  0.7751  0.2036  0.1341
  327MOL0     C43074   9.591   2.344   5.713  0.2920 -0.3059 -0.1490
  327MOL0     C43075   9.642   2.414   5.837  1.0917  0.2343  0.1602
  327MOL0    Cl43076   9.768   2.313   5.916  0.3396  0.5992 -0.4440
  327MOL0     C43077   9.146   2.812   5.358  0.2096  0.0225 -0.2927
  327MOL0     C43078   9.012   2.820   5.372  0.3478  0.0608  0.5291
  327MOL0     O43079   8.735   2.763   5.442 -0.2381  0.0910 -0.4596
  327MOL0     C43080   8.547   3.057   5.367 -0.2568  1.4608  0.2075
  327MOL0     C43081   8.419   3.097   5.364  0.0779 -0.2280  0.4195
  327MOL0     N43082   7.605   3.191   5.497 -0.5235 -0.6312  0.1330
  327MOL0     N43083   7.505   3.112   5.514 -0.5571 -0.7255  0.0753
  327MOL0     C43084   7.038   3.084   5.996  0.4086  0.2654 -0.2765
  327MOL0     C43085   7.099   3.021   6.105  0.1665 -0.2905  0.0026
  327MOL0     C43086   7.303   2.895   6.482 -0.7396  0.3288  0.6906
  327MOL0     C43087   7.315   2.769   6.523 -0.3318 -0.2771 -0.8571
  327MOL0     C43088   7.399   2.729   6.627  0.1276 -0.0781 -0.4055
  327MOL0     C43089   7.496   2.819   6.676 -0.0616 -0.8387 -1.2775
  327MOL0     O43090   7.590   2.779   6.772  0.0667  0.0821 -0.2313
  327MOL0     C43091   7.572   2.667   6.852  0.3220 -0.0556  0.5490
  327MOL0     C43092   7.541   2.719   6.999 -0.2833 -0.0513 -0.2181
  327MOL0     C43093   7.521   2.621   7.118 -0.4864  0.0765 -0.8870
  327MOL0     C43094   7.437   2.500   7.082  0.1600  0.7506  0.1538
  327MOL0     C43095   7.298   2.552   7.048  0.8019  0.2201 -0.0659
  327MOL0     C43096   7.184   2.579   7.027  0.1678 -0.8692 -0.8611
  327MOL0     C43097   7.491   2.951   6.639 -0.8801  0.6095  0.0504
  327MOL0     C43098   7.398   2.982   6.542  0.0911 -0.3514  0.4688
  327MOL0     H43099   7.175   3.303   6.276  1.3765  2.8603 -3.3032
  327MOL0     H43100   7.070   3.409   6.092  1.6615 -0.1520 -1.1464
  327MOL0     H43101   6.772   3.294   5.894  0.8749  0.0810  0.9617
  327MOL0     H43102   6.838   3.143   5.858 -1.5839 -0.1823  0.9438
  327MOL0     H43103   6.881   3.399   5.690  1.8862 -1.2060 -0.5194
  327MOL0     H43104   6.735   3.294   5.670  0.4939 -0.0273 -0.0581
  327MOL0     H43105   6.863   3.131   5.562  0.6821 -1.2338 -0.4623
  327MOL0     H43106   7.016   3.180   5.649 -1.8956 -0.8661  3.1030
  327MOL0     H43107   6.886   3.351   5.435 -2.4148 -2.3267  1.4926
  327MOL0     H43108   7.024   3.381   5.526  2.0985 -0.6029 -0.9710
  327MOL0     H43109   7.084   3.285   5.295  2.7493 -2.0658 -1.1187
  327MOL0     H43110   6.979   3.145   5.335 -1.1673  0.2147  1.8683
  327MOL0     H43111   7.142   3.081   5.506 -2.0827 -0.1145  0.0082
  327MOL0     H43112   7.254   3.228   5.471  2.2347 -1.7795 -2.2258
  327MOL0     H43113   7.174   3.000   5.283  0.6240 -1.1530 -0.9478
  327MOL0     H43114   7.282   3.138   5.242  0.7117  0.9784  1.3585
  327MOL0     H43115   7.387   2.915   5.280  1.1514  2.1679 -1.3113
  327MOL0     H43116   7.325   2.921   5.455 -1.6845 -2.1640 -2.2598
  327MOL0     H43117   7.584   3.055   5.206  2.7634  1.0685 -0.1853
  327MOL0     H43118   7.764   3.350   5.321 -0.0234  0.0730 -5.0482
  327MOL0     H43119   7.774   3.230   5.201  0.9171 -3.0669 -0.2162
  327MOL0     H43120   7.890   3.160   5.464  1.6290 -0.7687 -0.1061
  327MOL0     H43121   7.983   3.256   5.350 -1.4096  2.0829  0.3828
  327MOL0     H43122   7.871   2.991   5.252 -0.9047 -0.3692  2.2114
  327MOL0     H43123   7.983   3.087   5.176  0.2723  1.9026  1.0993
  327MOL0     H43124   8.079   2.900   5.270 -1.0007 -3.2185  3.4727
  327MOL0     H43125   8.045   2.946   5.438 -0.4955 -0.8492  0.0239
  327MOL0     H43126   8.252   2.805   5.401 -0.0765 -0.1966  0.3547
  327MOL0     H43127   8.488   2.725   5.420  2.9224  1.1656  2.9858
  327MOL0     H43128   8.986   3.156   5.358  4.1544  0.8467 -1.1239
  327MOL0     H43129   9.217   3.140   5.316  1.5449 -1.9921 -2.0772
  327MOL0     H43130   9.398   2.791   5.484  0.7765  1.8593  1.4363
  327MOL0     H43131   9.520   2.899   5.435 -1.9743  0.6454  1.3837
  327MOL0     H43132   9.557   2.761   5.231 -0.3450  0.4608  1.6609
  327MOL0     H43133   9.408   2.678   5.236 -0.0625 -1.4838  0.4913
  327MOL0     H43134   9.581   2.633   5.471 -1.5741 -1.1181  0.4809
  327MOL0     H43135   9.632   2.551   5.317 -0.4145 -1.6665 -1.6684
  327MOL0     H43136   9.341   2.533   5.401  0.3944  3.0059 -1.2370
  327MOL0     H43137   9.422   2.455   5.283 -1.6695  3.2744 -1.9150
  327MOL0     H43138   9.547   2.326   5.465 -1.3715 -2.7364  2.2605
  327MOL0     H43139   9.395   2.310   5.489  2.0393 -1.2801 -1.9482
  327MOL0     H43140   9.411   2.459   5.695  1.0459  2.9626 -0.0195
  327MOL0     H43141   9.553   2.543   5.639  0.7508  0.4299  3.0506
  327MOL0     H43142   9.525   2.263   5.744 -0.9818  0.7073 -0.1095
  327MOL0     H43143   9.673   2.304   5.653  0.2887  1.8929 -1.7403
  327MOL0     H43144   9.552   2.427   5.898  0.6260  1.2302 -0.7021
  327MOL0     H43145   9.677   2.515   5.812 -0.4799  0.7035 -0.2958
  327MOL0     H43146   9.187   2.712   5.355  0.7411  0.2133  0.3678
  327MOL0     H43147   8.947   2.733   5.369 -0.4297  0.6506 -1.5431
  327MOL0     H43148   8.629   3.125   5.349  0.1995  0.9430  0.2923
  327MOL0     H43149   8.389   3.201   5.358 -2.9616 -1.0606 -0.3584
  327MOL0     H43150   7.003   3.028   5.910  2.0058 -1.1151 -0.0739
  327MOL0     H43151   7.110   2.913   6.099  0.2503 -0.3397  0.9552
  327MOL0     H43152   7.247   2.690   6.493 -0.9912  0.6663 -1.9384
  327MOL0     H43153   7.406   2.622   6.648  1.7940 -0.0983 -0.9335
  327MOL0     H43154   7.672   2.623   6.851  0.4616  0.2643 -0.1425
  327MOL0     H43155   7.508   2.589   6.809  0.2733  2.2819 -4.3176
  327MOL0     H43156   7.613   2.796   7.027 -2.0629  1.7281 -0.2567
  327MOL0     H43157   7.449   2.778   6.989 -0.0238  0.3506 -0.2361
  327MOL0     H43158   7.477   2.680   7.199  1.3599  3.4602 -2.1779
  327MOL0     H43159   7.624   2.591   7.140 -0.6164 -1.5869 -2.3285
  327MOL0     H43160   7.488   2.459   6.994  3.4523  1.9136  1.3468
  327MOL0     H43161   7.430   2.424   7.160 -1.2242  0.8500  0.1515
  327MOL0     H43162   7.084   2.601   6.996 -0.3809 -0.6489  0.9561
  327MOL0     H43163   7.570   3.016   6.676 -0.7931  1.4847 -1.5964
  327MOL0     H43164   7.412   3.082   6.503  0.3341 -0.0240  1.3766
  328MOL0     O43165   7.423   0.968   4.233  0.4401  0.1010 -0.0850
  328MOL0     C43166   7.366   0.895   4.155  0.2009  0.3961  0.4925
  328MOL0     O43167   7.412   0.842   4.037  0.9637 -0.7125 -0.0033
  328MOL0     C43168   7.502   0.921   3.971  0.3104  0.7042  0.3671
  328MOL0     C43169   7.519   1.066   3.972  0.1517  0.4405 -0.0316
  328MOL0     C43170   7.631   1.127   3.919  0.9359  0.5353  0.1249
  328MOL0     C43171   7.721   1.052   3.846 -0.0079  0.2069  0.0594
  328MOL0     O43172   7.838   1.089   3.794 -0.3015 -0.6535 -0.1079
  328MOL0     C43173   7.866   1.230   3.784  0.3547 -0.1640  0.6057
  328MOL0     C43174   7.970   1.258   3.669 -0.0050 -0.2821  0.2070
  328MOL0     C43175   7.999   1.405   3.648  0.1922  0.2198 -0.0695
  328MOL0     C43176   8.118   1.462   3.730  0.1269 -0.4271  0.0409
  328MOL0     C43177   8.198   1.565   3.644  0.4054 -0.1344 -0.7423
  328MOL0     C43178   8.327   1.628   3.718  0.4143 -0.1084  0.0319
  328MOL0     C43179   8.298   1.704   3.850  0.2658  0.5241  0.2165
  328MOL0     C43180   8.224   1.839   3.849  0.1269 -0.2939 -0.8170
  328MOL0     N43181   8.309   1.933   3.784  0.0060  0.0079  0.4460
  328MOL0     C43182   8.290   1.967   3.655 -0.3355  1.0554  0.1549
  328MOL0     C43183   8.390   2.053   3.637  0.5791  0.2300 -0.5173
  328MOL0     C43184   8.434   2.120   3.513 -0.1594 -0.0484  0.6316
  328MOL0     C43185   8.564   2.045   3.470 -0.6311  0.0667  0.1843
  328MOL0     C43186   8.612   2.088   3.342  0.3968 -0.3703  0.3931
  328MOL0     C43187   8.634   2.252   3.330 -0.6856  0.4561 -0.5449
  328MOL0     O43188   8.715   2.280   3.215  0.8307  0.3241 -0.0566
  328MOL0     C43189   8.693   2.391   3.136  1.5397  0.0875  0.2919
  328MOL0     C43190   8.629   2.370   3.014 -1.0449  0.4189  0.4571
  328MOL0     C43191   8.603   2.477   2.926 -0.4706  0.0006  0.2320
  328MOL0     C43192   8.634   2.610   2.970 -0.6220  0.0140 -0.0606
  328MOL0     C43193   8.591   2.728   2.891 -0.9720 -1.1848 -0.5781
  328MOL0     O43194   8.650   2.853   2.918  0.4638  0.2244  0.2513
  328MOL0     C43195   8.612   2.954   2.833  0.2308 -0.1019 -0.4917
  328MOL0     C43196   8.699   2.992   2.737 -0.3438 -0.2272 -0.5317
  328MOL0     C43197   8.674   3.094   2.651 -0.1909 -0.9020 -0.2618
  328MOL0     C43198   8.555   3.166   2.659  0.2813 -0.2397  0.0655
  328MOL0     O43199   8.525   3.264   2.582  0.6356  0.4174 -0.0870
  328MOL0     C43200   8.420   3.236   2.483  0.1262 -0.1349 -0.3027
  328MOL0     C43201   8.451   3.302   2.347  0.0897  0.2875 -0.4061
  328MOL0     C43202   8.331   3.333   2.263 -0.3740  0.6227  0.2893
  328MOL0     C43203   8.301   3.213   2.165 -0.7068  0.0477 -0.6485
  328MOL0     C43204   8.155   3.214   2.114 -0.6083 -0.8158  0.5047
  328MOL0     C43205   8.135   3.120   1.998 -0.2205 -0.5070 -0.1626
  328MOL0     C43206   7.985   3.094   1.985 -0.3936  0.2821 -0.1560
  328MOL0     C43207   7.890   3.085   2.109 -0.4043 -0.0095  0.9490
  328MOL0    Cl43208   7.746   2.993   2.064 -0.3878  0.0887 -0.0313
  328MOL0     C43209   8.466   3.121   2.756 -0.6255  0.2765 -0.1448
  328MOL0     C43210   8.490   3.017   2.846  0.1247  0.2410  0.2054
  328MOL0     O43211   8.518   2.707   2.792 -0.0499  0.3453 -0.0381
  328MOL0     C43212   8.705   2.628   3.088 -0.7945 -1.1941 -0.0885
  328MOL0     C43213   8.737   2.519   3.174  0.7519 -0.0446  0.4358
  328MOL0     N43214   8.466   2.072   3.754 -0.0189 -0.3840  0.3291
  328MOL0     N43215   8.412   2.005   3.841  0.4810  0.9232 -0.2680
  328MOL0     C43216   7.696   0.914   3.831 -0.6823 -0.0509  0.5093
  328MOL0     C43217   7.589   0.844   3.892  0.1302  0.3364 -0.3996
  328MOL0     C43218   7.224   0.855   4.193  0.0153  0.5135  0.0422
  328MOL0     C43219   7.181   0.882   4.324 -0.7947  0.5047 -0.0931
  328MOL0     C43220   7.051   0.859   4.370  0.9734  0.5457  1.1608
  328MOL0     C43221   6.965   0.791   4.274 -0.8610 -0.7926 -1.1165
  328MOL0     O43222   6.848   0.728   4.307 -0.3061 -0.1437 -0.3743
  328MOL0     C43223   6.776   0.775   4.417 -0.1418 -0.4206 -0.0457
  328MOL0     C43224   6.631   0.721   4.431  0.1242 -0.5759 -0.3595
  328MOL0     C43225   6.620   0.570   4.460  0.1988 -0.0681 -0.4080
  328MOL0     C43226   6.470   0.524   4.483  0.4212 -0.1496 -0.1856
  328MOL0     C43227   6.381   0.527   4.361 -0.1488  0.6124  0.2213
  328MOL0     C43228   6.305   0.543   4.269  1.0589  0.3028  0.2784
  328MOL0     C43229   7.019   0.756   4.150  0.4328 -0.2717  1.1144
  328MOL0     C43230   7.145   0.789   4.107 -0.2809  1.1687 -0.3192
  328MOL0     H43231   7.446   1.129   4.022  0.4128  0.4994  0.2828
  328MOL0     H43232   7.627   1.236   3.920  0.4495  0.6017 -2.3882
  328MOL0     H43233   7.901   1.273   3.879  0.9939  1.1230 -0.1795
  328MOL0     H43234   7.776   1.279   3.745 -0.3606 -0.9529  1.2416
  328MOL0     H43235   7.929   1.213   3.578 -0.9124  0.3748  0.2793
  328MOL0     H43236   8.055   1.196   3.698 -0.1176  0.7068  2.9064
  328MOL0     H43237   7.912   1.471   3.645 -0.3826 -0.5241 -3.3382
  328MOL0     H43238   8.031   1.410   3.544  1.0390  1.8204  0.2304
  328MOL0     H43239   8.078   1.519   3.814 -0.8682  1.9561 -1.8950
  328MOL0     H43240   8.181   1.378   3.761  0.0949  0.5621  3.0350
  328MOL0     H43241   8.136   1.647   3.609  1.6113  2.1672  2.0553
  328MOL0     H43242   8.219   1.514   3.550 -0.5883 -0.6727 -0.6858
  328MOL0     H43243   8.391   1.684   3.649  0.1344  0.8519  0.5265
  328MOL0     H43244   8.384   1.540   3.747  2.0331  1.5635  2.2359
  328MOL0     H43245   8.238   1.636   3.910  0.7192 -2.2018 -2.2027
  328MOL0     H43246   8.392   1.734   3.896  2.3153  1.7172 -4.1458
  328MOL0     H43247   8.206   1.865   3.953 -0.6190 -4.1150  0.1666
  328MOL0     H43248   8.126   1.826   3.803  0.9679  1.1595 -3.2261
  328MOL0     H43249   8.230   1.930   3.573  1.9370  0.7116 -1.4619
  328MOL0     H43250   8.452   2.227   3.526  0.4667 -0.0319 -0.2596
  328MOL0     H43251   8.362   2.107   3.432 -1.0044  0.5678  1.2580
  328MOL0     H43252   8.556   1.936   3.457  7.7319 -1.0896 -0.9878
  328MOL0     H43253   8.637   2.051   3.551 -2.7092  1.6682  2.0619
  328MOL0     H43254   8.704   2.031   3.325 -0.1787 -2.1181  2.6515
  328MOL0     H43255   8.550   2.049   3.261  1.4199  0.6208 -0.9165
  328MOL0     H43256   8.670   2.302   3.420 -1.6777  0.0705  0.0855
  328MOL0     H43257   8.538   2.300   3.306  0.6507  1.9445 -3.4620
  328MOL0     H43258   8.602   2.269   2.985 -0.7316  0.7394 -1.0552
  328MOL0     H43259   8.573   2.459   2.823  1.6745 -4.2591  0.1266
  328MOL0     H43260   8.796   2.945   2.731  0.7845  1.6263  1.6031
  328MOL0     H43261   8.753   3.115   2.580  0.8897  0.0033  1.1620
  328MOL0     H43262   8.325   3.267   2.528  0.2103 -2.3653  1.6079
  328MOL0     H43263   8.417   3.127   2.470 -1.9513 -0.3512  1.4033
  328MOL0     H43264   8.517   3.235   2.291  0.6688  0.1219  0.4502
  328MOL0     H43265   8.499   3.399   2.359 -1.3661  1.0417 -0.5819
  328MOL0     H43266   8.346   3.418   2.197 -0.7727  1.1623  0.8809
  328MOL0     H43267   8.245   3.352   2.327 -0.3241  0.7163  0.3285
  328MOL0     H43268   8.360   3.213   2.073 -0.3612  3.6754 -0.5680
  328MOL0     H43269   8.308   3.121   2.223 -0.0382 -0.4964 -1.5703
  328MOL0     H43270   8.125   3.315   2.085 -0.0400 -1.0249 -0.8915
  328MOL0     H43271   8.096   3.192   2.203 -0.1676  0.2248  1.0714
  328MOL0     H43272   8.185   3.025   2.019 -1.6039 -1.2452 -0.0615
  328MOL0     H43273   8.173   3.157   1.902 -0.0856  2.2689  0.8557
  328MOL0     H43274   7.950   3.176   1.921 -2.3327 -0.8470 -0.6062
  328MOL0     H43275   7.968   3.006   1.923 -3.7037 -0.4195  1.5190
  328MOL0     H43276   7.861   3.185   2.143 -2.9342  0.6076 -2.4784
  328MOL0     H43277   7.936   3.032   2.193  0.9101 -0.1815  0.1403
  328MOL0     H43278   8.386   3.194   2.769 -0.6348  0.0862  1.0518
  328MOL0     H43279   8.425   2.989   2.928  1.7634 -0.3605  1.3570
  328MOL0     H43280   8.753   2.722   3.112 -1.5869 -1.3330  2.3110
  328MOL0     H43281   8.797   2.524   3.265  3.3623 -2.5246 -0.9814
  328MOL0     H43282   7.782   0.866   3.787 -2.8689 -0.5640 -3.6560
  328MOL0     H43283   7.577   0.737   3.898  1.0884  0.2796  0.7047
  328MOL0     H43284   7.259   0.909   4.395 -0.9048  0.7897 -0.0796
  328MOL0     H43285   7.022   0.872   4.474 -1.4682  0.6097  0.5385
  328MOL0     H43286   6.770   0.884   4.413 -0.3510 -0.2350  3.0579
  328MOL0     H43287   6.824   0.763   4.514  0.0317  3.4848  0.5167
  328MOL0     H43288   6.569   0.786   4.493  1.8936  0.6709  0.1463
  328MOL0     H43289   6.587   0.725   4.330 -1.0352  1.6757  0.1822
  328MOL0     H43290   6.674   0.544   4.551 -0.7702 -0.7043 -0.0093
  328MOL0     H43291   6.651   0.525   4.365  1.5728  0.5535 -0.2774
  328MOL0     H43292   6.458   0.424   4.526 -3.4207 -0.2426 -1.0569
  328MOL0     H43293   6.432   0.586   4.565  1.0401  1.1812 -0.8629
  328MOL0     H43294   6.236   0.564   4.190 -0.5547  0.9735  1.7994
  328MOL0     H43295   6.962   0.687   4.087  2.2487 -0.7442 -0.0872
  328MOL0     H43296   7.192   0.762   4.013  2.7440  3.4394  0.3736
  329MOL0     O43297   2.553   7.916   6.223  0.6925 -0.5019  0.0045
  329MOL0     C43298   2.473   7.918   6.127 -0.6014  0.2888 -0.0774
  329MOL0     O43299   2.352   7.972   6.118  0.2105  0.2900  0.0807
  329MOL0     C43300   2.279   8.015   6.230 -0.2198  0.3699 -0.6756
  329MOL0     C43301   2.269   7.941   6.347 -0.1245 -0.3627  0.2364
  329MOL0     C43302   2.195   7.987   6.460 -1.3615 -0.2512 -0.4938
  329MOL0     C43303   2.123   8.106   6.454 -0.0078  1.0344  0.1818
  329MOL0     O43304   2.050   8.143   6.563  0.4136 -1.1607 -0.3060
  329MOL0     C43305   2.002   8.276   6.581 -0.3256  0.6936  0.8935
  329MOL0     C43306   1.961   8.286   6.728 -0.6147  1.3834 -0.0784
  329MOL0     C43307   1.989   8.417   6.794  0.1350 -0.7306 -0.3016
  329MOL0     C43308   1.904   8.442   6.919 -0.1750 -0.2534  0.6581
  329MOL0     C43309   1.974   8.557   7.002 -0.0738  0.2859  0.2693
  329MOL0     C43310   1.889   8.592   7.122 -0.3019  0.9526 -0.7433
  329MOL0     C43311   1.955   8.690   7.216 -0.3374 -0.1178 -0.2907
  329MOL0     C43312   1.906   8.671   7.357 -0.0139  0.0045  0.0514
  329MOL0     N43313   1.767   8.716   7.384 -1.3110  0.4239  0.2735
  329MOL0     C43314   1.726   8.843   7.373  0.5091 -0.9770  0.9911
  329MOL0     C43315   1.648   8.866   7.482 -1.4261  0.0658 -0.1179
  329MOL0     C43316   1.584   8.991   7.516  0.3099 -0.5741 -0.1718
  329MOL0     C43317   1.694   9.103   7.538  1.0264 -0.1694  0.2745
  329MOL0     C43318   1.805   9.075   7.642  0.4464 -0.4777  0.0804
  329MOL0     C43319   1.768   8.999   7.767  0.0625 -0.1577 -0.5585
  329MOL0     O43320   1.901   8.984   7.840 -0.2657 -0.5352  0.4340
  329MOL0     C43321   1.913   9.043   7.967 -0.5375 -0.4296  0.6414
  329MOL0     C43322   2.039   9.073   8.015  0.8565 -0.4575  0.3563
  329MOL0     C43323   2.053   9.145   8.136  0.2012  0.3464  0.2357
  329MOL0     C43324   1.940   9.167   8.222 -0.7113  0.4365  0.5383
  329MOL0     C43325   1.957   9.236   8.351  0.1516  0.1840  1.0403
  329MOL0     O43326   1.867   9.220   8.452  0.6344 -0.0557  0.1490
  329MOL0     C43327   1.883   9.288   8.569  0.0508 -0.3419 -0.0662
  329MOL0     C43328   1.769   9.344   8.623 -0.0585 -0.7707  0.8547
  329MOL0     C43329   1.775   9.417   8.743  0.2801 -0.1978  0.8764
  329MOL0     C43330   1.896   9.438   8.817 -0.5466 -0.6962  0.9194
  329MOL0     O43331   1.923   9.500   8.940 -0.1230 -0.3108  0.1943
  329MOL0     C43332   1.830   9.478   9.046 -0.5566 -0.0022 -0.7070
  329MOL0     C43333   1.890   9.505   9.180 -0.0684 -0.7263  0.7682
  329MOL0     C43334   1.803   9.439   9.286 -0.5355 -0.0844 -0.9344
  329MOL0     C43335   1.878   9.435   9.429 -1.1830  0.1644  0.1504
  329MOL0     C43336   1.888   9.565   9.513 -0.5555 -0.3380  0.2334
  329MOL0     C43337   1.771   9.661   9.504  0.5944 -0.0669  0.0476
  329MOL0     C43338   1.797   9.775   9.606  0.1329  0.2652  0.8121
  329MOL0     C43339   1.656   9.827   9.653  0.1611  0.5904 -0.4245
  329MOL0    Cl43340   1.680   9.964   9.763 -0.3687 -0.2679 -0.5585
  329MOL0     C43341   2.008   9.378   8.761  0.7829  0.1979 -0.5566
  329MOL0     C43342   2.000   9.311   8.641  0.5691  0.6742  0.2124
  329MOL0     O43343   2.062   9.297   8.358 -0.6199 -0.1507 -0.4593
  329MOL0     C43344   1.813   9.130   8.180 -0.1788  0.4926  0.6524
  329MOL0     C43345   1.799   9.066   8.059  0.0482 -0.5805  0.2294
  329MOL0     N43346   1.635   8.747   7.547  0.1250  0.3913 -0.3475
  329MOL0     N43347   1.702   8.661   7.490  0.2137  0.3666  0.4648
  329MOL0     C43348   2.125   8.174   6.323  0.0658 -0.6930  0.1571
  329MOL0     C43349   2.199   8.130   6.207 -0.8843 -0.6817  0.8081
  329MOL0     C43350   2.527   7.846   6.003 -1.4016 -0.0040 -0.8000
  329MOL0     C43351   2.459   7.859   5.881  0.0588 -0.2609 -1.2575
  329MOL0     C43352   2.491   7.777   5.774  0.4108  0.6682 -0.8647
  329MOL0     C43353   2.620   7.714   5.777  0.8069  0.7466  0.0604
  329MOL0     O43354   2.666   7.652   5.664  0.7471 -0.4157  0.2388
  329MOL0     C43355   2.739   7.528   5.678 -0.6133  0.3474  0.2303
  329MOL0     C43356   2.728   7.441   5.548  0.3168 -0.7881  0.0467
  329MOL0     C43357   2.597   7.451   5.464  0.9295  0.9899  0.5399
  329MOL0     C43358   2.463   7.398   5.522 -0.6680  1.0511 -0.7353
  329MOL0     C43359   2.464   7.257   5.549 -0.0572  0.2619  0.0185
  329MOL0     C43360   2.462   7.137   5.574 -0.2513 -0.4749 -0.7503
  329MOL0     C43361   2.696   7.701   5.897 -0.3599  0.0537  0.0842
  329MOL0     C43362   2.652   7.768   6.012 -0.4260  0.3689 -0.1216
  329MOL0     H43363   2.308   7.839   6.346 -0.4022 -0.4713 -0.2930
  329MOL0     H43364   2.186   7.934   6.554 -1.7991  1.0122  0.1948
  329MOL0     H43365   1.919   8.296   6.511 -1.1242  0.4276  1.7403
  329MOL0     H43366   2.087   8.341   6.559  2.4398 -1.9178  3.0261
  329MOL0     H43367   2.021   8.208   6.778  0.7378  1.3067 -1.7384
  329MOL0     H43368   1.862   8.243   6.741  0.2271 -0.3173  1.2108
  329MOL0     H43369   1.962   8.501   6.730 -1.1403  1.4775  2.8782
  329MOL0     H43370   2.097   8.431   6.805  0.1938 -0.9277 -0.5978
  329MOL0     H43371   1.799   8.473   6.908  1.0347  3.9371 -1.5177
  329MOL0     H43372   1.913   8.350   6.976 -1.6543 -1.0384 -0.2989
  329MOL0     H43373   1.988   8.644   6.938  2.9213 -0.4216 -0.2243
  329MOL0     H43374   2.073   8.515   7.023  0.0492  0.1975 -0.4494
  329MOL0     H43375   1.887   8.492   7.167 -2.0465  1.4629  0.4382
  329MOL0     H43376   1.787   8.623   7.097  0.1212  0.0794 -4.0177
  329MOL0     H43377   2.064   8.689   7.213 -0.3041  1.1839 -0.3823
  329MOL0     H43378   1.921   8.792   7.196 -1.1851  0.1324  2.0631
  329MOL0     H43379   1.978   8.706   7.431  1.0932  0.5969 -1.2738
  329MOL0     H43380   1.896   8.563   7.373 -2.5461  0.0967 -0.4208
  329MOL0     H43381   1.737   8.918   7.295  0.9662 -2.6681 -0.6244
  329MOL0     H43382   1.526   8.980   7.609 -2.1664  2.0177 -1.2638
  329MOL0     H43383   1.508   9.026   7.446 -0.8476  1.4278  1.9498
  329MOL0     H43384   1.642   9.196   7.561 -0.0178 -0.8781  0.8656
  329MOL0     H43385   1.750   9.126   7.447  0.7861 -1.0708 -0.1167
  329MOL0     H43386   1.895   9.026   7.604  0.3353 -0.7685  0.1926
  329MOL0     H43387   1.838   9.170   7.685 -0.3675 -0.1359 -0.0325
  329MOL0     H43388   1.716   8.905   7.748 -0.9392 -0.3625  2.5351
  329MOL0     H43389   1.697   9.059   7.825 -0.0847 -1.2610  0.4435
  329MOL0     H43390   2.127   9.041   7.961  0.9146 -1.1713  0.8663
  329MOL0     H43391   2.154   9.151   8.175  0.0638 -0.2324  0.7010
  329MOL0     H43392   1.678   9.334   8.565 -1.3121 -0.5274  2.7128
  329MOL0     H43393   1.691   9.477   8.777 -0.2831 -0.4818  0.0174
  329MOL0     H43394   1.807   9.371   9.048 -4.5169  0.7012  0.3917
  329MOL0     H43395   1.736   9.534   9.034 -0.4632  0.6970  1.4099
  329MOL0     H43396   1.891   9.614   9.167  2.2442 -1.0036 -2.7418
  329MOL0     H43397   1.991   9.466   9.189 -0.2412 -1.2611  0.4529
  329MOL0     H43398   1.760   9.342   9.260 -0.7865 -0.8345  1.8764
  329MOL0     H43399   1.715   9.500   9.309 -0.0078  0.1483  0.6211
  329MOL0     H43400   1.850   9.349   9.490  2.4911 -1.5960 -0.3598
  329MOL0     H43401   1.984   9.409   9.419 -1.5443 -0.6004 -2.0875
  329MOL0     H43402   1.976   9.617   9.475 -0.3863  0.1489  1.2498
  329MOL0     H43403   1.918   9.541   9.616 -1.7081 -1.2677  0.3772
  329MOL0     H43404   1.673   9.615   9.518  1.3396 -1.7179  0.0455
  329MOL0     H43405   1.756   9.704   9.405 -2.2591 -1.4320 -0.2210
  329MOL0     H43406   1.843   9.738   9.698  0.7382  3.4356  1.9454
  329MOL0     H43407   1.863   9.856   9.573  2.4188 -2.6337 -2.4836
  329MOL0     H43408   1.617   9.739   9.706 -2.3596  0.3981 -2.4097
  329MOL0     H43409   1.587   9.858   9.574 -0.9332  1.2338  0.7485
  329MOL0     H43410   2.096   9.387   8.824 -0.2978 -0.1570  1.0449
  329MOL0     H43411   2.091   9.261   8.611 -0.4677 -0.3153 -1.5062
  329MOL0     H43412   1.725   9.138   8.242 -0.6353  0.3913  0.0281
  329MOL0     H43413   1.702   9.032   8.023  0.6622 -1.4867 -0.6021
  329MOL0     H43414   2.070   8.266   6.307  0.0597 -0.9595 -1.6145
  329MOL0     H43415   2.212   8.178   6.110  1.6897 -0.6322  1.1122
  329MOL0     H43416   2.370   7.921   5.888  0.5612  0.3040  1.9753
  329MOL0     H43417   2.432   7.781   5.683  0.7726  1.6236 -1.0701
  329MOL0     H43418   2.707   7.465   5.761  2.6020 -2.8276 -0.6797
  329MOL0     H43419   2.845   7.557   5.683 -0.9683  1.4989  1.8131
  329MOL0     H43420   2.807   7.474   5.479  1.5874 -1.7068  1.0043
  329MOL0     H43421   2.759   7.337   5.560  1.4987 -0.6507 -1.3826
  329MOL0     H43422   2.615   7.406   5.366 -0.6994  0.4622  0.4413
  329MOL0     H43423   2.580   7.557   5.440 -3.2113 -0.0240 -2.2240
  329MOL0     H43424   2.426   7.444   5.613 -1.4603 -1.2048  0.1636
  329MOL0     H43425   2.394   7.423   5.441 -2.1416  3.7647  1.2032
  329MOL0     H43426   2.465   7.031   5.590 -0.6324 -0.2812  0.7240
  329MOL0     H43427   2.781   7.635   5.908  0.3725  1.2324  2.0925
  329MOL0     H43428   2.709   7.771   6.104 -1.5489 -1.1292  0.6444
  330MOL0     O43429   5.384   1.782  10.237  0.4325 -0.2762 -0.2155
  330MOL0     C43430   5.425   1.790  10.126  0.9332 -0.6088 -0.3368
  330MOL0     O43431   5.555   1.793  10.090 -0.3795 -0.2078  0.4495
  330MOL0     C43432   5.661   1.773  10.180 -0.1225 -0.1515 -0.4273
  330MOL0     C43433   5.665   1.678  10.288  1.5231  0.5154 -0.2664
  330MOL0     C43434   5.776   1.673  10.371  0.0617  0.4138  0.7678
  330MOL0     C43435   5.884   1.765  10.352  0.6070 -0.2801  0.9786
  330MOL0     O43436   6.000   1.750  10.417 -0.6184  0.2269 -0.5600
  330MOL0     C43437   5.990   1.709  10.559 -0.4097 -0.0901 -0.7122
  330MOL0     C43438   5.898   1.784  10.661  0.3923  0.5361  0.1920
  330MOL0     C43439   5.900   1.932  10.644 -0.0944 -0.4802  0.3581
  330MOL0     C43440   5.788   2.019  10.722 -0.4532  0.1205 -0.6840
  330MOL0     C43441   5.659   2.025  10.655  0.2048 -0.2654  0.3980
  330MOL0     C43442   5.652   2.102  10.521  0.1272 -1.1395  0.3234
  330MOL0     C43443   5.503   2.105  10.476  0.0275 -0.6454 -0.7123
  330MOL0     C43444   5.500   2.182  10.339  0.1820 -0.2792  0.7907
  330MOL0     N43445   5.363   2.217  10.295 -0.5935 -0.1083  0.4834
  330MOL0     C43446   5.263   2.120  10.278  0.5026  0.6899 -0.1169
  330MOL0     C43447   5.146   2.183  10.284  0.0807 -0.8161  0.9193
  330MOL0     C43448   5.005   2.125  10.277  0.7363 -1.3970 -0.2997
  330MOL0     C43449   4.949   2.163  10.138 -0.0995 -0.0522 -0.0922
  330MOL0     C43450   4.827   2.078  10.102  0.3937 -0.1727 -0.6620
  330MOL0     C43451   4.796   2.099   9.955 -0.0169 -0.6281  0.1948
  330MOL0     O43452   4.677   2.021   9.919  0.5504 -0.6352 -0.3041
  330MOL0     C43453   4.647   1.981   9.803  0.1264  0.4606  0.9351
  330MOL0     C43454   4.588   1.859   9.798 -0.8543 -0.9841  0.4161
  330MOL0     C43455   4.565   1.793   9.669 -1.2158  0.1445 -0.1445
  330MOL0     C43456   4.614   1.854   9.556  0.3481 -0.3286 -0.6154
  330MOL0     C43457   4.579   1.797   9.428 -0.1414  0.0318  0.8720
  330MOL0     O43458   4.499   1.683   9.419 -0.2061 -0.1457  0.3270
  330MOL0     C43459   4.464   1.626   9.301 -0.7088 -0.1061 -0.9323
  330MOL0     C43460   4.484   1.492   9.282 -1.2180  0.3922 -0.0709
  330MOL0     C43461   4.445   1.418   9.166 -1.0681 -1.1382 -0.3827
  330MOL0     C43462   4.361   1.480   9.077  0.6814  1.0359  0.0724
  330MOL0     O43463   4.298   1.415   8.970  0.5012 -0.8983 -1.1442
  330MOL0     C43464   4.330   1.280   8.939 -0.2613 -0.0517  0.7012
  330MOL0     C43465   4.239   1.257   8.824 -0.3004 -0.0178 -0.8718
  330MOL0     C43466   4.295   1.142   8.741  0.5710 -0.3803 -0.3803
  330MOL0     C43467   4.276   1.008   8.821 -0.8996 -0.8424  0.2415
  330MOL0     C43468   4.365   0.890   8.777  0.7308 -0.1982  0.0452
  330MOL0     C43469   4.349   0.875   8.627 -0.7245  0.4259  0.5941
  330MOL0     C43470   4.421   0.755   8.569  0.1701  0.2393 -0.4426
  330MOL0     C43471   4.340   0.627   8.582  1.3134  0.2723  0.4552
  330MOL0    Cl43472   4.398   0.484   8.503 -0.2535  0.5009  0.5183
  330MOL0     C43473   4.344   1.620   9.098  0.1238  0.2722  0.4444
  330MOL0     C43474   4.380   1.694   9.210 -1.5676 -0.1906  0.4186
  330MOL0     O43475   4.637   1.848   9.321 -0.2987 -0.1320 -0.5472
  330MOL0     C43476   4.672   1.985   9.565  0.6799  0.1313  0.1127
  330MOL0     C43477   4.683   2.045   9.684  0.0976 -0.0959  0.8814
  330MOL0     N43478   5.183   2.313  10.311  0.1452  0.0223 -0.0784
  330MOL0     N43479   5.312   2.327  10.336  0.4934  0.4115 -0.0731
  330MOL0     C43480   5.875   1.858  10.244 -0.4690  0.0406 -0.7907
  330MOL0     C43481   5.764   1.859  10.160 -0.6416  0.1181 -0.0980
  330MOL0     C43482   5.320   1.812  10.020  0.3418 -0.4166 -0.9848
  330MOL0     C43483   5.363   1.838   9.887 -0.5535  0.2787 -0.7930
  330MOL0     C43484   5.279   1.883   9.783  0.1508  0.7846  0.2667
  330MOL0     C43485   5.145   1.897   9.819  1.0872 -1.2407 -0.5880
  330MOL0     O43486   5.041   1.916   9.732 -0.4646  0.1293  0.5511
  330MOL0     C43487   5.022   1.821   9.627 -0.3052 -0.0835 -0.1028
  330MOL0     C43488   5.009   1.671   9.663  0.5438 -0.1076 -0.1689
  330MOL0     C43489   4.876   1.644   9.725 -0.3331 -1.7103 -0.3375
  330MOL0     C43490   4.852   1.499   9.768 -0.0297 -0.0350 -0.3621
  330MOL0     C43491   4.856   1.411   9.652  0.4076  0.0164  0.6554
  330MOL0     C43492   4.837   1.330   9.561 -0.4794 -0.5876 -0.0228
  330MOL0     C43493   5.097   1.873   9.945 -0.5525 -0.4721 -0.2190
  330MOL0     C43494   5.185   1.835  10.043  0.1666  0.1337 -1.0272
  330MOL0     H43495   5.586   1.607  10.309  1.2298  0.4028 -1.6575
  330MOL0     H43496   5.785   1.606  10.456 -0.7775 -0.0411  0.5104
  330MOL0     H43497   6.092   1.732  10.590  0.8076 -0.7642 -3.8190
  330MOL0     H43498   5.987   1.599  10.563 -1.8634 -0.0539 -0.3574
  330MOL0     H43499   5.928   1.773  10.766 -0.3618 -0.8407  0.2830
  330MOL0     H43500   5.795   1.750  10.652 -0.0563  0.1314  4.4780
  330MOL0     H43501   5.896   1.956  10.537 -3.2050  3.3835  1.1195
  330MOL0     H43502   5.994   1.972  10.682 -0.4206 -0.0272  0.6978
  330MOL0     H43503   5.789   1.970  10.820  3.0066  1.8523  0.3190
  330MOL0     H43504   5.817   2.122  10.746 -0.5671 -0.1852  0.8858
  330MOL0     H43505   5.587   2.064  10.728  2.7989 -2.1679  4.3031
  330MOL0     H43506   5.625   1.922  10.637  0.5825 -0.0581 -1.8451
  330MOL0     H43507   5.724   2.055  10.454  0.2225  0.9372 -1.1050
  330MOL0     H43508   5.683   2.205  10.540 -1.8293 -0.5053  0.2526
  330MOL0     H43509   5.463   2.003  10.467 -2.5497  0.0501  1.5696
  330MOL0     H43510   5.443   2.167  10.543  0.4582  0.5407 -1.3960
  330MOL0     H43511   5.542   2.113  10.266 -1.6606  0.0850 -0.7101
  330MOL0     H43512   5.562   2.272  10.350  0.2274 -0.2815  0.5601
  330MOL0     H43513   5.275   2.013  10.266 -0.5840  0.7628 -2.1598
  330MOL0     H43514   4.953   2.181  10.356  3.6383  1.2317 -0.0360
  330MOL0     H43515   4.990   2.018  10.295  0.0602 -1.4808 -1.3172
  330MOL0     H43516   5.020   2.139  10.058  0.0991 -3.7526  1.0268
  330MOL0     H43517   4.930   2.271  10.137 -0.5300  0.2041  5.7847
  330MOL0     H43518   4.842   1.971  10.123  3.2654  0.5850  1.6384
  330MOL0     H43519   4.748   2.114  10.169 -0.6820  2.8941 -3.3215
  330MOL0     H43520   4.878   2.057   9.897 -1.0297 -0.4440 -1.4380
  330MOL0     H43521   4.788   2.208   9.950  2.7139 -0.2418  1.9201
  330MOL0     H43522   4.559   1.811   9.890  1.3239 -3.0433  0.1241
  330MOL0     H43523   4.524   1.695   9.650  1.3878 -0.3997 -4.1707
  330MOL0     H43524   4.547   1.431   9.347 -2.7557 -3.9952 -2.3188
  330MOL0     H43525   4.475   1.314   9.155  3.3835 -0.1687  0.4440
  330MOL0     H43526   4.312   1.215   9.025  0.9477  0.6120  1.4871
  330MOL0     H43527   4.435   1.260   8.914 -0.3542 -0.7792  0.8717
  330MOL0     H43528   4.227   1.345   8.761 -0.6203 -0.1419 -0.9832
  330MOL0     H43529   4.148   1.213   8.866  1.7134 -0.8006  3.2315
  330MOL0     H43530   4.396   1.180   8.719  0.2644 -0.2705 -1.6897
  330MOL0     H43531   4.242   1.148   8.646 -0.1730  1.5742  0.1114
  330MOL0     H43532   4.305   1.028   8.924 -1.0205  0.3057  0.0677
  330MOL0     H43533   4.173   0.974   8.811 -1.9952  2.5971 -1.9018
  330MOL0     H43534   4.326   0.803   8.829 -1.0531  0.3526 -0.3095
  330MOL0     H43535   4.467   0.896   8.817  0.0716  1.8963  1.6156
  330MOL0     H43536   4.404   0.956   8.578 -2.4795  0.2646 -1.8438
  330MOL0     H43537   4.246   0.881   8.591 -0.3531 -1.3365 -0.9124
  330MOL0     H43538   4.435   0.776   8.463 -1.1913 -0.2714 -0.7533
  330MOL0     H43539   4.510   0.726   8.624 -1.3554 -1.3411  1.3525
  330MOL0     H43540   4.238   0.641   8.546  2.5337  0.4924 -3.2677
  330MOL0     H43541   4.333   0.607   8.690  0.2365 -0.9830  0.1841
  330MOL0     H43542   4.286   1.670   9.021  1.2410  3.1934  1.3638
  330MOL0     H43543   4.354   1.799   9.221  2.9091  1.3268 -1.4747
  330MOL0     H43544   4.699   2.035   9.473 -3.6453 -0.3867 -1.6452
  330MOL0     H43545   4.732   2.142   9.696  4.4574 -2.0539  0.8113
  330MOL0     H43546   5.953   1.932  10.232 -0.3914  0.0343 -0.3129
  330MOL0     H43547   5.758   1.942  10.090  2.2745 -0.5932 -1.3605
  330MOL0     H43548   5.469   1.822   9.867  0.7678  1.5621  3.9214
  330MOL0     H43549   5.316   1.899   9.682  2.7686  3.0067  1.4436
  330MOL0     H43550   5.113   1.834   9.567 -1.5286  1.2925 -1.7574
  330MOL0     H43551   4.939   1.862   9.569  0.5915  2.2649  0.1596
  330MOL0     H43552   5.004   1.607   9.574 -2.4240  0.3451 -0.4196
  330MOL0     H43553   5.091   1.645   9.730 -0.3447  2.2459  2.0179
  330MOL0     H43554   4.798   1.663   9.651  0.8079  0.1441 -1.1228
  330MOL0     H43555   4.854   1.706   9.812 -0.8242  0.6539 -2.0648
  330MOL0     H43556   4.928   1.455   9.833  4.6329  2.9220 -3.1542
  330MOL0     H43557   4.757   1.497   9.822  0.5431 -0.3688  0.6660
  330MOL0     H43558   4.834   1.250   9.490  0.0628  0.9453 -1.8748
  330MOL0     H43559   4.992   1.880   9.970  0.1728  1.0250  2.8438
  330MOL0     H43560   5.156   1.816  10.146 -2.0443  2.6839 -1.0533
  331MOL0     O43561   4.274   3.502  10.071  0.1119 -0.2687 -0.1823
  331MOL0     C43562   4.249   3.439   9.964 -0.5012  0.1733 -1.1978
  331MOL0     O43563   4.142   3.459   9.884  0.1727 -0.0006 -0.1163
  331MOL0     C43564   4.050   3.554   9.924  0.4444 -0.2304 -0.5625
  331MOL0     C43565   3.959   3.520  10.020 -0.3581 -0.1069 -0.0520
  331MOL0     C43566   3.889   3.629  10.083 -0.5775 -0.0798  0.1197
  331MOL0     C43567   3.911   3.762  10.049 -0.5706  0.0604  0.0390
  331MOL0     O43568   3.861   3.874  10.105 -0.2043 -0.5494  0.5326
  331MOL0     C43569   3.753   3.882  10.191  0.4037  0.1213  1.0841
  331MOL0     C43570   3.812   3.946  10.309 -0.4665 -1.0461 -0.0905
  331MOL0     C43571   3.731   3.941  10.433  0.0687  0.4217 -0.0496
  331MOL0     C43572   3.607   4.025  10.409  0.1581  0.7109  0.8350
  331MOL0     C43573   3.494   3.999  10.513 -0.2691 -0.2721  0.1293
  331MOL0     C43574   3.379   4.086  10.484 -0.2751  0.0827  1.0124
  331MOL0     C43575   3.265   4.042  10.578 -0.3449  0.2123  0.1248
  331MOL0     C43576   3.279   4.077  10.735 -0.1170 -0.1512 -0.6978
  331MOL0     N43577   3.342   4.201  10.767 -0.3962 -0.6985 -0.1491
  331MOL0     C43578   3.459   4.226  10.836  0.0789  0.4903  0.0215
  331MOL0     C43579   3.499   4.348  10.810  0.4775  0.0052 -0.5748
  331MOL0     C43580   3.615   4.418  10.875 -0.3372  0.6349 -0.8108
  331MOL0     C43581   3.717   4.491  10.782  0.3535 -0.0894 -0.3598
  331MOL0     C43582   3.757   4.392  10.668  0.0129  0.2589 -0.2067
  331MOL0     C43583   3.879   4.437  10.595  0.0533  0.1694 -0.2212
  331MOL0     O43584   3.941   4.335  10.514  0.3531 -0.6060  0.4768
  331MOL0     C43585   4.055   4.377  10.453  0.5505 -0.4423  0.1613
  331MOL0     C43586   4.133   4.485  10.494  0.2161 -0.7939  0.8323
  331MOL0     C43587   4.254   4.509  10.429  0.7783 -0.7680  0.4248
  331MOL0     C43588   4.293   4.437  10.315  0.0564  0.0681 -0.4326
  331MOL0     C43589   4.416   4.481  10.254  0.1205  0.7391  0.2340
  331MOL0     O43590   4.472   4.406  10.155 -0.0144  0.4544  0.4662
  331MOL0     C43591   4.560   4.470  10.068  0.0355 -0.0466 -0.7914
  331MOL0     C43592   4.536   4.595  10.022  0.0758  0.3909  0.0714
  331MOL0     C43593   4.636   4.649   9.940 -0.2703  0.3961  0.8346
  331MOL0     C43594   4.748   4.578   9.905  0.7655 -0.4502  0.1166
  331MOL0     O43595   4.842   4.617   9.815 -0.3928  0.4645  0.6574
  331MOL0     C43596   4.848   4.745   9.759 -0.2344 -0.6300  0.6861
  331MOL0     C43597   4.941   4.821   9.851 -1.4593 -0.4044 -0.2470
  331MOL0     C43598   4.961   4.969   9.793  0.4077  0.3342 -0.0845
  331MOL0     C43599   5.072   5.055   9.857  0.1774  0.8575 -0.2723
  331MOL0     C43600   5.057   5.057  10.008  0.0362 -0.2458 -0.4794
  331MOL0     C43601   4.928   5.115  10.072  0.5744  0.1657  0.3158
  331MOL0     C43602   4.886   5.259  10.019  0.0328 -0.8933  0.1380
  331MOL0     C43603   4.785   5.317  10.118 -0.1153 -0.1033  0.2117
  331MOL0    Cl43604   4.861   5.344  10.281  0.3023 -0.3995  0.1242
  331MOL0     C43605   4.774   4.455   9.967 -0.6092  0.4766  0.1116
  331MOL0     C43606   4.684   4.397  10.045  0.3040  0.5733 -0.0391
  331MOL0     O43607   4.466   4.583  10.302  0.4237 -0.1309  0.2981
  331MOL0     C43608   4.221   4.329  10.283 -0.2437  0.3506  0.5099
  331MOL0     C43609   4.101   4.297  10.351  0.3853 -0.2627  0.9647
  331MOL0     N43610   3.392   4.412  10.742 -0.8876 -0.1784  0.0131
  331MOL0     N43611   3.304   4.322  10.714 -0.3911 -0.1707 -0.2850
  331MOL0     C43612   3.991   3.789   9.940 -0.3096  0.0899  0.0606
  331MOL0     C43613   4.065   3.684   9.884 -1.1580  0.3355 -1.0033
  331MOL0     C43614   4.358   3.360   9.909 -0.0652  0.1187  0.2838
  331MOL0     C43615   4.349   3.306   9.781 -0.0278 -0.5098 -0.9974
  331MOL0     C43616   4.457   3.248   9.713  0.4760 -0.5551 -0.5505
  331MOL0     C43617   4.576   3.214   9.783 -0.1323 -0.0262  0.6633
  331MOL0     O43618   4.683   3.139   9.735 -0.6358 -0.7314 -0.4617
  331MOL0     C43619   4.693   3.094   9.594  0.2319  0.0020  0.1972
  331MOL0     C43620   4.740   3.212   9.510  0.1554 -0.0402 -0.2905
  331MOL0     C43621   4.852   3.290   9.573 -0.2376 -0.0765 -0.3731
  331MOL0     C43622   4.914   3.403   9.492 -1.1992 -0.3158  0.5036
  331MOL0     C43623   5.037   3.449   9.555  0.1684 -0.2289  0.1301
  331MOL0     C43624   5.134   3.494   9.612 -0.8023  0.5745  1.6757
  331MOL0     C43625   4.581   3.255   9.913 -0.8308 -0.5639  0.2283
  331MOL0     C43626   4.485   3.346   9.966  0.0969 -0.2443 -0.2112
  331MOL0     H43627   3.946   3.421  10.063  1.3772 -0.6070 -0.5776
  331MOL0     H43628   3.840   3.595  10.174  5.0076 -0.8051  3.3337
  331MOL0     H43629   3.716   3.780  10.207 -0.5495  0.2298 -0.1775
  331MOL0     H43630   3.676   3.940  10.140 -0.2905 -1.2997  0.4519
  331MOL0     H43631   3.830   4.050  10.281  1.2976 -1.6178 -1.3222
  331MOL0     H43632   3.911   3.905  10.330  0.3365  1.1942  0.7445
  331MOL0     H43633   3.784   3.994  10.513  0.9374 -0.3474 -0.0945
  331MOL0     H43634   3.707   3.841  10.471 -1.2895  1.7226  2.9117
  331MOL0     H43635   3.625   4.132  10.420 -3.0346  1.4363  0.1171
  331MOL0     H43636   3.574   3.996  10.308 -1.8425  0.6615  1.4585
  331MOL0     H43637   3.520   4.020  10.617  1.1854  0.8730 -0.4408
  331MOL0     H43638   3.471   3.892  10.521 -3.3162  0.3403  0.8726
  331MOL0     H43639   3.340   4.070  10.383 -0.7162 -2.4111  1.5137
  331MOL0     H43640   3.406   4.191  10.496 -2.2750  0.8276 -0.3797
  331MOL0     H43641   3.174   4.091  10.542 -0.8511  0.1132  1.2126
  331MOL0     H43642   3.259   3.933  10.579 -1.2710  0.2462 -0.9265
  331MOL0     H43643   3.322   3.996  10.795 -0.7093  0.0794  0.0527
  331MOL0     H43644   3.177   4.100  10.767  0.1932  0.3958 -0.0661
  331MOL0     H43645   3.513   4.148  10.889 -0.4895 -0.8905 -1.3793
  331MOL0     H43646   3.682   4.344  10.920  0.3697  2.4157  1.2384
  331MOL0     H43647   3.580   4.486  10.952  2.8559 -0.3514  1.7436
  331MOL0     H43648   3.800   4.530  10.842 -0.2635 -2.0165  1.8885
  331MOL0     H43649   3.667   4.567  10.722 -1.2235 -1.9455 -1.5031
  331MOL0     H43650   3.777   4.298  10.720 -0.6403  0.3958  0.2991
  331MOL0     H43651   3.674   4.382  10.598 -1.3761 -1.4768  1.5738
  331MOL0     H43652   3.939   4.494  10.667 -2.9356  0.4906  2.2366
  331MOL0     H43653   3.834   4.514  10.531  1.7717 -0.6492 -2.5684
  331MOL0     H43654   4.114   4.571  10.558  0.4374 -0.1145  0.0015
  331MOL0     H43655   4.308   4.598  10.460  2.4457 -1.1980 -1.1073
  331MOL0     H43656   4.445   4.649  10.046  0.9211  1.6541  0.5059
  331MOL0     H43657   4.619   4.749   9.902 -0.1956  0.3929  0.7937
  331MOL0     H43658   4.751   4.795   9.746  0.3936  0.2486 -0.9780
  331MOL0     H43659   4.898   4.738   9.662  0.5651 -2.0152  1.1703
  331MOL0     H43660   5.035   4.765   9.859  0.1628  2.3576  1.9447
  331MOL0     H43661   4.889   4.830   9.947 -3.2068  2.1866 -1.3376
  331MOL0     H43662   4.860   5.009   9.801 -0.6607 -2.5056  2.2615
  331MOL0     H43663   4.987   4.956   9.687  0.0083 -3.2045  0.1303
  331MOL0     H43664   5.157   4.990   9.839  1.8180  2.4508  1.2881
  331MOL0     H43665   5.086   5.154   9.812  0.5224 -0.3522 -3.0238
  331MOL0     H43666   5.143   5.102  10.058 -0.2756 -0.2362  0.0558
  331MOL0     H43667   5.059   4.952  10.042  3.3728  0.1228  0.8859
  331MOL0     H43668   4.946   5.117  10.180  4.5710 -0.6358 -0.1908
  331MOL0     H43669   4.852   5.040  10.052  1.4446 -0.4722 -0.6904
  331MOL0     H43670   4.981   5.314  10.010  1.9047 -3.7205  1.2568
  331MOL0     H43671   4.842   5.246   9.920 -1.6496  1.1855  0.5343
  331MOL0     H43672   4.700   5.249  10.129 -0.4945  0.4714  0.9276
  331MOL0     H43673   4.750   5.416  10.087 -0.3465 -0.6674 -1.4339
  331MOL0     H43674   4.867   4.405   9.944 -2.0137 -1.5544 -1.6182
  331MOL0     H43675   4.708   4.297  10.081  0.5341  0.7830  0.3939
  331MOL0     H43676   4.247   4.252  10.210 -0.9669 -2.8825  3.3971
  331MOL0     H43677   4.032   4.222  10.316 -1.5971  2.6291 -1.9297
  331MOL0     H43678   4.027   3.890   9.927 -0.4757  0.1267 -0.1062
  331MOL0     H43679   4.143   3.724   9.819 -0.1284  2.9811  1.6085
  331MOL0     H43680   4.255   3.325   9.730  0.1894 -1.3173 -1.7138
  331MOL0     H43681   4.440   3.206   9.614  0.6204 -1.6998 -0.1060
  331MOL0     H43682   4.602   3.046   9.557 -0.5106 -0.0760  2.0321
  331MOL0     H43683   4.777   3.027   9.574  0.3668  0.7779 -2.2046
  331MOL0     H43684   4.782   3.178   9.415  0.9954  1.0335 -0.3193
  331MOL0     H43685   4.658   3.281   9.490 -1.1470 -0.4260  3.0009
  331MOL0     H43686   4.940   3.226   9.584  1.1012  1.7911  0.2939
  331MOL0     H43687   4.819   3.338   9.665 -0.7502 -3.2313  1.1993
  331MOL0     H43688   4.943   3.364   9.394  2.3301  0.2816  1.1523
  331MOL0     H43689   4.841   3.484   9.481 -0.3644  0.6633  1.9700
  331MOL0     H43690   5.220   3.539   9.658 -0.7477 -0.0313  2.1828
  331MOL0     H43691   4.668   3.235   9.975  1.8602  1.7349 -2.4613
  331MOL0     H43692   4.481   3.360  10.073 -1.4479 -1.7357 -0.0347
  332MOL0     O43693   2.673   4.982   8.967  0.0063 -0.4827 -0.3878
  332MOL0     C43694   2.742   5.009   8.869 -0.1875 -0.3557 -0.8638
  332MOL0     O43695   2.761   4.925   8.758  0.4854  0.2293  0.0873
  332MOL0     C43696   2.715   4.800   8.737  0.5004  0.3027 -1.1075
  332MOL0     C43697   2.762   4.693   8.820  0.1129 -0.1920  0.5605
  332MOL0     C43698   2.730   4.561   8.801 -1.2534  0.8953 -0.2900
  332MOL0     C43699   2.634   4.514   8.707  0.6461 -0.6601  0.4903
  332MOL0     O43700   2.603   4.385   8.685 -0.0656  0.1211 -0.1090
  332MOL0     C43701   2.582   4.312   8.804  0.0279 -0.1979  0.4839
  332MOL0     C43702   2.496   4.197   8.783  0.6421 -0.1223 -0.5186
  332MOL0     C43703   2.557   4.101   8.677  0.6610  0.3341 -0.8416
  332MOL0     C43704   2.504   3.957   8.698 -0.2164  0.0379 -0.3657
  332MOL0     C43705   2.344   3.964   8.706  0.3236  0.2909 -0.6500
  332MOL0     C43706   2.283   3.822   8.700 -0.8861 -0.5164 -0.2624
  332MOL0     C43707   2.133   3.819   8.743 -0.1553  0.6024  0.3314
  332MOL0     C43708   2.079   3.677   8.731  0.8255 -0.8131 -1.3399
  332MOL0     N43709   1.934   3.661   8.728 -0.5359 -0.5113 -0.8097
  332MOL0     C43710   1.845   3.649   8.829  0.4088 -0.5335 -0.5763
  332MOL0     C43711   1.729   3.612   8.778  0.4554  0.4983  0.8716
  332MOL0     C43712   1.606   3.566   8.849  0.1746  0.6898 -0.4469
  332MOL0     C43713   1.570   3.420   8.819 -0.7008  0.0731  0.1401
  332MOL0     C43714   1.691   3.329   8.854 -0.2932 -0.8251  0.2904
  332MOL0     C43715   1.672   3.187   8.798 -0.2292 -0.6509  0.4629
  332MOL0     O43716   1.575   3.116   8.874  0.0120  0.3014 -1.3250
  332MOL0     C43717   1.607   2.985   8.881  0.0586  0.3053 -0.7045
  332MOL0     C43718   1.707   2.936   8.964 -0.8596  0.4973 -0.7168
  332MOL0     C43719   1.731   2.801   8.982  0.3465 -0.6792  0.3746
  332MOL0     C43720   1.668   2.703   8.900  0.5780 -0.0951 -0.8419
  332MOL0     C43721   1.687   2.552   8.912  0.6653  0.2876  0.7833
  332MOL0     O43722   1.782   2.508   9.001 -0.1391  0.2198  0.0563
  332MOL0     C43723   1.801   2.369   9.028  0.6246  0.2503  0.7334
  332MOL0     C43724   1.928   2.302   9.044 -0.0258 -0.7318 -0.7209
  332MOL0     C43725   1.946   2.168   9.087 -0.3787 -1.0862  0.2898
  332MOL0     C43726   1.827   2.103   9.115 -0.0652 -0.5258 -0.3726
  332MOL0     O43727   1.845   1.977   9.162  0.4250 -0.5002 -0.3329
  332MOL0     C43728   1.774   1.867   9.120 -0.6526  0.6922  0.5401
  332MOL0     C43729   1.854   1.746   9.187  0.0570  0.5160 -0.0238
  332MOL0     C43730   1.819   1.610   9.147  0.7674  0.3395  0.2494
  332MOL0     C43731   1.807   1.598   8.994 -0.7031 -0.6817  0.0127
  332MOL0     C43732   1.845   1.453   8.943 -0.2075  0.1120  0.7688
  332MOL0     C43733   1.820   1.446   8.789  0.0872 -0.4069 -0.6232
  332MOL0     C43734   1.822   1.308   8.738 -0.0323 -0.2483  0.0580
  332MOL0     C43735   1.724   1.271   8.627 -0.8912 -0.9966  0.2261
  332MOL0    Cl43736   1.574   1.365   8.617 -0.2942 -0.0916  0.1964
  332MOL0     C43737   1.704   2.163   9.110  0.6429  1.0619 -0.2398
  332MOL0     C43738   1.685   2.291   9.061 -0.6315  0.2155 -0.3741
  332MOL0     O43739   1.615   2.483   8.840  0.3394  0.0766 -1.3185
  332MOL0     C43740   1.571   2.760   8.812 -0.2158  0.3540 -0.1054
  332MOL0     C43741   1.524   2.889   8.809 -0.5046  0.7673  0.2284
  332MOL0     N43742   1.741   3.611   8.646  0.1606 -0.4670 -0.0465
  332MOL0     N43743   1.862   3.639   8.608 -0.1115  0.8070  0.1101
  332MOL0     C43744   2.576   4.615   8.629  0.1572 -0.3303  0.5428
  332MOL0     C43745   2.614   4.752   8.643 -0.2851 -0.7130 -0.0404
  332MOL0     C43746   2.804   5.134   8.863 -1.0247 -0.7844  0.7637
  332MOL0     C43747   2.925   5.147   8.805 -0.2001 -0.7982  0.5798
  332MOL0     C43748   2.987   5.274   8.784 -0.1824  0.5489 -0.3055
  332MOL0     C43749   2.938   5.388   8.848 -0.4379  0.6485 -0.3165
  332MOL0     O43750   3.014   5.499   8.827  0.9012 -0.0824  0.5454
  332MOL0     C43751   3.003   5.592   8.931 -1.5341 -0.1733  0.7806
  332MOL0     C43752   2.913   5.717   8.890  0.1570 -0.0375 -0.2410
  332MOL0     C43753   2.927   5.825   9.009  0.6490 -0.2848  0.5206
  332MOL0     C43754   2.863   5.954   8.955 -0.3549  0.1788  0.1888
  332MOL0     C43755   2.845   6.038   9.075 -0.4421  0.0426 -0.3137
  332MOL0     C43756   2.842   6.109   9.176  0.2797  0.6324 -0.8118
  332MOL0     C43757   2.802   5.377   8.902  0.5709 -0.0261 -0.2664
  332MOL0     C43758   2.743   5.251   8.909  0.4309 -0.5687  1.1525
  332MOL0     H43759   2.835   4.712   8.898  1.0360 -1.4317  0.0376
  332MOL0     H43760   2.784   4.482   8.853 -3.3888  0.0425  0.7152
  332MOL0     H43761   2.533   4.366   8.886 -2.0368 -0.0076 -0.8215
  332MOL0     H43762   2.681   4.281   8.839 -0.8664 -2.9581  0.7852
  332MOL0     H43763   2.393   4.222   8.757 -1.3226 -1.1241  4.8234
  332MOL0     H43764   2.496   4.141   8.878  0.8651 -0.9839 -1.0131
  332MOL0     H43765   2.666   4.114   8.671  0.7704 -0.7303 -1.3950
  332MOL0     H43766   2.524   4.139   8.580  2.8064 -0.0044 -1.7565
  332MOL0     H43767   2.527   3.886   8.618  1.5791  0.0816  0.0906
  332MOL0     H43768   2.539   3.933   8.799 -0.2132 -0.3642 -0.4609
  332MOL0     H43769   2.309   4.021   8.620  2.1158 -1.6079 -2.7650
  332MOL0     H43770   2.317   4.014   8.800  0.1237 -1.5735  0.3526
  332MOL0     H43771   2.336   3.769   8.779 -0.2784 -2.0310 -1.6289
  332MOL0     H43772   2.300   3.792   8.596  0.4520  0.3200 -0.3080
  332MOL0     H43773   2.111   3.848   8.846 -2.5319 -3.1237  1.0838
  332MOL0     H43774   2.075   3.881   8.673  1.8475  1.6699 -0.4665
  332MOL0     H43775   2.118   3.630   8.822 -1.7484  0.0285  0.2996
  332MOL0     H43776   2.102   3.622   8.640 -3.1200 -1.5621 -2.0600
  332MOL0     H43777   1.859   3.668   8.935  1.6597 -1.1429 -0.6147
  332MOL0     H43778   1.525   3.622   8.799  1.1874  3.2327  0.5647
  332MOL0     H43779   1.619   3.593   8.954  1.4466 -0.7568 -0.2000
  332MOL0     H43780   1.555   3.405   8.712  0.0513  1.0385 -0.1150
  332MOL0     H43781   1.484   3.395   8.881  0.4114  1.4765  2.4011
  332MOL0     H43782   1.777   3.368   8.799 -0.3380 -0.3500  0.5575
  332MOL0     H43783   1.709   3.329   8.962  1.3444  0.8021  0.0568
  332MOL0     H43784   1.771   3.143   8.816 -0.4236 -1.3129 -0.0610
  332MOL0     H43785   1.642   3.191   8.693 -2.3786  0.4865  1.0637
  332MOL0     H43786   1.766   3.006   9.023 -0.9199 -1.4480  1.8131
  332MOL0     H43787   1.788   2.769   9.069  0.1851 -1.8473  0.0624
  332MOL0     H43788   2.017   2.363   9.038  1.9272 -3.5078 -2.2409
  332MOL0     H43789   2.048   2.131   9.090  0.2191  0.5399  2.0872
  332MOL0     H43790   1.779   1.862   9.011 -0.5902 -3.4184  0.5794
  332MOL0     H43791   1.672   1.878   9.160  0.2566  4.5466  2.2843
  332MOL0     H43792   1.827   1.749   9.293 -2.3850 -1.4068 -0.4742
  332MOL0     H43793   1.961   1.755   9.168 -0.3252 -0.4028 -3.2552
  332MOL0     H43794   1.722   1.588   9.192  0.5298  2.5035  0.8932
  332MOL0     H43795   1.896   1.537   9.172  0.0761  0.1415  1.8850
  332MOL0     H43796   1.711   1.631   8.953  0.0868 -0.1461 -1.4867
  332MOL0     H43797   1.888   1.666   8.963  0.8831 -1.9867  1.1116
  332MOL0     H43798   1.768   1.395   8.995 -2.5699  2.5112  0.1804
  332MOL0     H43799   1.951   1.430   8.962  0.2401 -0.4684 -2.0469
  332MOL0     H43800   1.898   1.501   8.736 -0.8237 -0.5722 -2.1963
  332MOL0     H43801   1.723   1.495   8.775 -0.9502 -2.2346 -0.1658
  332MOL0     H43802   1.926   1.284   8.711  1.2296  0.5664  3.6081
  332MOL0     H43803   1.810   1.231   8.815 -3.5402 -0.7431 -0.8225
  332MOL0     H43804   1.698   1.167   8.649  1.5404 -2.0106 -1.3292
  332MOL0     H43805   1.769   1.287   8.529 -2.5235  0.4872 -0.3512
  332MOL0     H43806   1.612   2.112   9.140 -0.0057  1.3010 -1.7050
  332MOL0     H43807   1.589   2.343   9.062 -0.7343  0.0723  1.9319
  332MOL0     H43808   1.533   2.695   8.734  0.9153  1.3746 -1.5702
  332MOL0     H43809   1.450   2.915   8.734 -2.4684 -1.4301  1.2699
  332MOL0     H43810   2.510   4.582   8.549  0.5255 -3.1008  1.2886
  332MOL0     H43811   2.575   4.824   8.571  1.1856  1.0969  0.8609
  332MOL0     H43812   2.986   5.064   8.770  1.2364  1.7496 -3.6095
  332MOL0     H43813   3.085   5.296   8.744 -0.8019  3.4708 -0.4192
  332MOL0     H43814   3.101   5.636   8.947 -0.0763 -1.7419 -2.8895
  332MOL0     H43815   2.988   5.552   9.032  0.8264 -0.8969  0.8978
  332MOL0     H43816   2.950   5.779   8.808  0.2370  0.3416  0.0766
  332MOL0     H43817   2.812   5.682   8.864  0.7625 -1.1303 -1.2253
  332MOL0     H43818   3.031   5.840   9.041  1.1884 -1.2592 -0.7194
  332MOL0     H43819   2.874   5.791   9.099  0.9699  1.0470  1.2412
  332MOL0     H43820   2.940   5.989   8.885 -0.2568  0.0005  0.2078
  332MOL0     H43821   2.762   5.948   8.914  0.7008  3.1541 -3.4329
  332MOL0     H43822   2.829   6.150   9.274 -1.6270 -2.4701  0.3853
  332MOL0     H43823   2.752   5.468   8.934 -1.7678 -0.8722 -1.3729
  332MOL0     H43824   2.637   5.251   8.933  0.4474 -1.7294  1.2995
  333MOL0     O43825   8.529   6.507   3.400 -0.4632 -0.2034 -0.3971
  333MOL0     C43826   8.526   6.405   3.335 -0.6441 -0.4168 -0.3878
  333MOL0     O43827   8.499   6.393   3.200 -0.1096 -0.1200 -0.1107
  333MOL0     C43828   8.513   6.510   3.126 -0.0159  0.5733 -0.2812
  333MOL0     C43829   8.409   6.541   3.036  0.3194 -0.2452  0.4336
  333MOL0     C43830   8.431   6.640   2.944 -0.4769  0.0632  0.4756
  333MOL0     C43831   8.547   6.717   2.933  1.0117 -0.1546  0.5502
  333MOL0     O43832   8.556   6.830   2.852 -0.7179 -0.4153 -0.5108
  333MOL0     C43833   8.556   6.799   2.716 -0.1281  0.7083  0.8151
  333MOL0     C43834   8.584   6.937   2.644 -0.9422  0.2716 -0.3967
  333MOL0     C43835   8.565   6.920   2.499  0.1764 -0.4002 -0.7821
  333MOL0     C43836   8.615   7.041   2.420  0.4250  0.1456 -0.2271
  333MOL0     C43837   8.556   7.030   2.281 -0.1974 -0.7452  0.1963
  333MOL0     C43838   8.616   7.121   2.175 -1.3097 -0.3661  0.0148
  333MOL0     C43839   8.535   7.121   2.043  0.3248 -0.2532  0.0967
  333MOL0     C43840   8.540   7.249   1.958  1.0072 -0.0521  0.4338
  333MOL0     N43841   8.467   7.224   1.839 -0.2316 -0.5004  0.3123
  333MOL0     C43842   8.338   7.187   1.829  0.4595 -0.1569  0.1352
  333MOL0     C43843   8.314   7.200   1.697  0.2720  0.2232  0.2226
  333MOL0     C43844   8.188   7.195   1.631 -0.1516 -0.3130 -0.3708
  333MOL0     C43845   8.130   7.339   1.606  0.0534  0.1107 -0.0298
  333MOL0     C43846   8.068   7.403   1.737  0.0812  0.6445  0.4268
  333MOL0     C43847   7.988   7.535   1.698 -0.0212  0.0457 -0.6056
  333MOL0     O43848   8.058   7.662   1.694 -0.0286 -0.2851  0.5023
  333MOL0     C43849   7.977   7.768   1.715  1.6100 -0.1650  0.2822
  333MOL0     C43850   7.842   7.786   1.674  0.7022 -0.1176 -0.7147
  333MOL0     C43851   7.771   7.903   1.700 -0.2335  0.4302  0.1354
  333MOL0     C43852   7.832   8.003   1.773  0.3613  0.5618  0.5506
  333MOL0     C43853   7.757   8.135   1.780 -0.6577  0.8872 -0.2230
  333MOL0     O43854   7.826   8.222   1.861 -0.4791 -0.5422 -0.4136
  333MOL0     C43855   7.778   8.351   1.877 -0.0150 -0.1571  0.0066
  333MOL0     C43856   7.716   8.403   1.996  1.0962 -0.3625  1.1989
  333MOL0     C43857   7.659   8.527   1.993  0.5022  0.2249 -1.3234
  333MOL0     C43858   7.658   8.608   1.879 -0.0634 -0.9867  0.2966
  333MOL0     O43859   7.603   8.732   1.894 -0.5841 -0.0044  0.4130
  333MOL0     C43860   7.610   8.819   1.780  0.0380 -1.0534 -0.5905
  333MOL0     C43861   7.506   8.932   1.811  0.2226  0.1121  0.0615
  333MOL0     C43862   7.501   9.014   1.675 -0.0316 -0.2463 -0.6015
  333MOL0     C43863   7.378   9.110   1.674 -0.7246  0.1760  0.4986
  333MOL0     C43864   7.416   9.251   1.726 -0.5253 -0.7326  0.3059
  333MOL0     C43865   7.294   9.336   1.753 -0.0249  0.0695 -0.1739
  333MOL0     C43866   7.316   9.481   1.713  0.5226 -0.3386 -0.6880
  333MOL0     C43867   7.184   9.552   1.741  0.0276  0.3108 -0.2321
  333MOL0    Cl43868   7.147   9.563   1.915 -0.5377 -0.3832 -0.3286
  333MOL0     C43869   7.705   8.554   1.755  0.2583 -0.1735 -0.2070
  333MOL0     C43870   7.764   8.425   1.759 -0.8551  0.8578 -0.4181
  333MOL0     O43871   7.641   8.145   1.733 -0.2033 -0.5734 -0.5096
  333MOL0     C43872   7.966   7.990   1.819 -0.2309 -0.1043  0.1255
  333MOL0     C43873   8.035   7.870   1.793 -0.2524  1.1803  0.9282
  333MOL0     N43874   8.428   7.218   1.622 -1.0209 -0.2292 -0.2326
  333MOL0     N43875   8.520   7.237   1.713 -0.5485 -0.5075 -0.1049
  333MOL0     C43876   8.643   6.691   3.036 -0.2184  0.3006  0.7950
  333MOL0     C43877   8.632   6.589   3.131  0.2670 -0.4848 -0.0928
  333MOL0     C43878   8.571   6.278   3.403  0.4836 -0.0405 -0.1115
  333MOL0     C43879   8.570   6.281   3.541 -0.0052 -0.2057 -1.0385
  333MOL0     C43880   8.603   6.169   3.614  0.2609 -0.3524 -1.4497
  333MOL0     C43881   8.628   6.043   3.551 -1.5810 -0.9338 -0.6210
  333MOL0     O43882   8.670   5.938   3.626  0.1578  0.5396 -0.3023
  333MOL0     C43883   8.656   5.805   3.570  0.5670 -0.6241 -0.3711
  333MOL0     C43884   8.693   5.684   3.656  0.1246 -0.4672  0.2908
  333MOL0     C43885   8.845   5.673   3.673  0.1329 -0.4329  0.1812
  333MOL0     C43886   8.900   5.795   3.745  0.4446  0.1802 -0.6934
  333MOL0     C43887   9.025   5.760   3.822 -0.4730 -0.0991 -1.1866
  333MOL0     C43888   9.140   5.753   3.874  0.1303 -0.3527  0.2792
  333MOL0     C43889   8.632   6.044   3.420  0.7716 -1.1056 -0.1885
  333MOL0     C43890   8.611   6.162   3.344  0.4999 -0.3104  0.3702
  333MOL0     H43891   8.318   6.485   3.017  1.3985 -0.9312 -3.5937
  333MOL0     H43892   8.355   6.660   2.869 -2.6774 -2.9535  1.6808
  333MOL0     H43893   8.468   6.751   2.673  0.0648 -1.7618  2.9397
  333MOL0     H43894   8.643   6.734   2.708 -0.1532  0.8019 -0.3027
  333MOL0     H43895   8.681   6.980   2.671 -1.5666  0.9198  0.9143
  333MOL0     H43896   8.506   7.004   2.681 -1.2954  1.0815 -2.5072
  333MOL0     H43897   8.459   6.913   2.477 -0.4999  1.1380  1.5863
  333MOL0     H43898   8.621   6.831   2.467  0.8883 -0.1812 -0.1807
  333MOL0     H43899   8.593   7.131   2.479  0.8918 -1.9496  3.4499
  333MOL0     H43900   8.724   7.037   2.414  0.3344 -2.1654 -1.5109
  333MOL0     H43901   8.453   7.059   2.300  0.9655  3.5889  1.0115
  333MOL0     H43902   8.560   6.930   2.236  1.5606  1.0513 -4.2610
  333MOL0     H43903   8.719   7.092   2.155 -1.2476  0.6817 -1.2791
  333MOL0     H43904   8.622   7.223   2.216 -0.9696  0.0470 -1.0235
  333MOL0     H43905   8.573   7.038   1.983 -0.5719 -0.6065 -0.0090
  333MOL0     H43906   8.430   7.098   2.067  0.0236  0.0845 -0.8429
  333MOL0     H43907   8.639   7.268   1.916  1.2267 -1.2599  0.3546
  333MOL0     H43908   8.493   7.324   2.022  2.0815 -1.8014  3.4893
  333MOL0     H43909   8.264   7.161   1.904  3.1621  0.6220  3.2893
  333MOL0     H43910   8.106   7.136   1.672 -0.7153  0.7103  0.0283
  333MOL0     H43911   8.208   7.155   1.532  0.1084 -1.2591  0.0576
  333MOL0     H43912   8.041   7.319   1.546 -2.3178  1.0485  2.9032
  333MOL0     H43913   8.199   7.410   1.562 -0.3434 -0.0049 -0.8462
  333MOL0     H43914   7.999   7.329   1.776 -0.3566  0.5367 -0.5137
  333MOL0     H43915   8.149   7.428   1.806 -0.7691  1.9250  1.0002
  333MOL0     H43916   7.906   7.551   1.769  1.5760  3.5164  0.6995
  333MOL0     H43917   7.953   7.536   1.594  1.3570  0.6405 -1.0809
  333MOL0     H43918   7.796   7.706   1.617  2.6354 -1.4464 -0.4988
  333MOL0     H43919   7.669   7.913   1.664 -0.1633  3.7802  0.5287
  333MOL0     H43920   7.718   8.342   2.086 -3.2626 -2.6170  0.0695
  333MOL0     H43921   7.615   8.550   2.090  3.0393  0.9949 -0.2743
  333MOL0     H43922   7.581   8.771   1.686 -3.3801  0.5428 -0.5024
  333MOL0     H43923   7.705   8.867   1.756 -0.7645  0.9344  0.0738
  333MOL0     H43924   7.556   8.988   1.890  0.1172 -1.2999  1.1652
  333MOL0     H43925   7.406   8.897   1.837  0.2004 -0.2251 -0.4612
  333MOL0     H43926   7.487   8.951   1.587  1.2054 -0.7241 -0.4648
  333MOL0     H43927   7.593   9.072   1.665  1.0444 -1.9203 -0.7848
  333MOL0     H43928   7.336   9.119   1.574  1.7647  0.0882 -0.6243
  333MOL0     H43929   7.294   9.077   1.735 -2.8280  3.2973 -0.4597
  333MOL0     H43930   7.483   9.294   1.651 -2.9118 -0.2397 -1.6930
  333MOL0     H43931   7.471   9.241   1.820 -0.5276  1.2253  0.5557
  333MOL0     H43932   7.259   9.320   1.855  1.0805  1.3248  0.4285
  333MOL0     H43933   7.204   9.307   1.697  0.2846  0.4407 -0.8824
  333MOL0     H43934   7.409   9.522   1.752  1.7752 -2.5989 -1.1247
  333MOL0     H43935   7.332   9.478   1.605 -0.3045 -2.1514 -0.8120
  333MOL0     H43936   7.104   9.503   1.685  1.8315 -3.4309  0.1450
  333MOL0     H43937   7.192   9.647   1.688  0.8289 -0.9111 -2.4589
  333MOL0     H43938   7.680   8.600   1.660  1.3209  0.2126 -0.3121
  333MOL0     H43939   7.787   8.390   1.659  0.8349  0.0352  0.2210
  333MOL0     H43940   8.001   8.073   1.879 -3.9709 -0.3136  3.0486
  333MOL0     H43941   8.133   7.851   1.834 -0.7948 -0.2227  1.6569
  333MOL0     H43942   8.728   6.758   3.038 -1.1151  1.5719 -0.9320
  333MOL0     H43943   8.694   6.563   3.216 -0.2504 -5.4206 -0.9466
  333MOL0     H43944   8.548   6.377   3.587  1.0356  0.8614 -2.6494
  333MOL0     H43945   8.621   6.180   3.721  1.0993  0.9558 -1.6942
  333MOL0     H43946   8.714   5.803   3.477  2.6020  0.3875  0.7834
  333MOL0     H43947   8.550   5.790   3.550  0.4762 -1.9955  0.9511
  333MOL0     H43948   8.627   5.689   3.743  0.7845 -2.0723  0.9267
  333MOL0     H43949   8.658   5.594   3.605 -1.5720 -0.3190  1.1195
  333MOL0     H43950   8.879   5.667   3.570  0.7040 -0.5623  0.3731
  333MOL0     H43951   8.866   5.578   3.722 -0.4644 -1.2721 -1.1575
  333MOL0     H43952   8.922   5.874   3.673  1.2528  0.6109  0.0019
  333MOL0     H43953   8.826   5.847   3.807 -1.0816  0.2595 -2.4834
  333MOL0     H43954   9.236   5.744   3.920 -0.1267  0.2139  0.9350
  333MOL0     H43955   8.641   5.954   3.358 -0.0881  0.8896 -3.4847
  333MOL0     H43956   8.593   6.149   3.237 -3.3090 -3.4196  1.1707
  334MOL0     O43957   2.540   0.510   0.592  1.3479 -1.0075 -0.0267
  334MOL0     C43958   2.567   0.409   0.656  0.1152 -0.1936  0.0740
  334MOL0     O43959   2.688   0.381   0.716 -0.3533  0.1406 -0.5740
  334MOL0     C43960   2.793   0.468   0.693  0.0833  0.7843 -0.6112
  334MOL0     C43961   2.789   0.603   0.737  0.6330  0.2632  0.7491
  334MOL0     C43962   2.897   0.675   0.712 -0.4111  0.0411 -0.1974
  334MOL0     C43963   3.017   0.620   0.663  0.5529  0.3992  0.3005
  334MOL0     O43964   3.130   0.700   0.658  0.1998  0.7095  0.2209
  334MOL0     C43965   3.256   0.630   0.685  0.4612 -1.3586  0.4925
  334MOL0     C43966   3.260   0.591   0.827  0.0183  0.9182  0.6223
  334MOL0     C43967   3.402   0.564   0.887  0.6401  0.4303  1.0494
  334MOL0     C43968   3.386   0.535   1.037  0.4296 -0.5267 -0.6212
  334MOL0     C43969   3.499   0.583   1.124  0.1921  0.7513 -0.3468
  334MOL0     C43970   3.475   0.591   1.277 -0.3842  0.4887  0.1306
  334MOL0     C43971   3.381   0.486   1.332 -0.8725  0.0555 -0.2704
  334MOL0     C43972   3.344   0.526   1.480  0.1372  0.1941 -0.7347
  334MOL0     N43973   3.451   0.499   1.582  0.7440 -0.2564  0.5394
  334MOL0     C43974   3.549   0.405   1.586 -0.3850 -0.1438 -0.8719
  334MOL0     C43975   3.626   0.440   1.697 -0.8641 -0.4945 -0.8728
  334MOL0     C43976   3.757   0.381   1.718 -0.4706 -0.1823 -0.0335
  334MOL0     C43977   3.865   0.473   1.665 -0.6145  0.3547  0.7508
  334MOL0     C43978   3.863   0.613   1.730  0.6862 -0.4651  0.3111
  334MOL0     C43979   3.996   0.697   1.716  0.4600 -0.5637 -0.4300
  334MOL0     O43980   4.061   0.683   1.591  0.6714  0.6129  0.1787
  334MOL0     C43981   4.012   0.709   1.469 -0.4478  0.5752  0.9874
  334MOL0     C43982   3.895   0.773   1.440  0.0720 -0.5375 -0.1483
  334MOL0     C43983   3.868   0.797   1.311  0.1136 -0.0047  0.0798
  334MOL0     C43984   3.945   0.752   1.207  0.5262 -0.1175  0.7039
  334MOL0     C43985   3.890   0.768   1.065  0.2808  0.3102 -0.3600
  334MOL0     O43986   3.765   0.783   1.052  0.0483  0.3459  0.0762
  334MOL0     C43987   3.707   0.823   0.938  0.3645  0.0888 -0.3721
  334MOL0     C43988   3.602   0.908   0.949 -0.1764 -0.1915  0.0545
  334MOL0     C43989   3.534   0.947   0.832 -0.7065 -0.1899  0.5798
  334MOL0     C43990   3.570   0.908   0.702  0.0268  0.7460  0.2784
  334MOL0     O43991   3.498   0.950   0.595  0.8430  0.0748  0.2330
  334MOL0     C43992   3.576   1.017   0.503 -0.0916 -0.3660 -0.9211
  334MOL0     C43993   3.532   1.166   0.513 -0.4407  0.4803 -0.1914
  334MOL0     C43994   3.613   1.261   0.428 -0.8254  0.4616  0.2567
  334MOL0     C43995   3.740   1.296   0.506  0.1946 -1.4739  0.4614
  334MOL0     C43996   3.828   1.399   0.429  0.0523  0.5839  0.0547
  334MOL0     C43997   3.932   1.350   0.329  0.6693  0.4328 -0.1214
  334MOL0     C43998   4.022   1.247   0.392 -0.2483  0.6638 -0.3034
  334MOL0     C43999   4.139   1.216   0.293  0.3607  0.2620  0.1109
  334MOL0    Cl44000   4.063   1.134   0.152  0.6291 -0.5301  0.5763
  334MOL0     C44001   3.673   0.820   0.687  0.5167 -0.3114  0.7148
  334MOL0     C44002   3.740   0.783   0.806 -0.2996  0.0864  0.3595
  334MOL0     O44003   3.977   0.779   0.981 -0.0123 -0.3534  0.4337
  334MOL0     C44004   4.060   0.680   1.229 -0.5136  1.0184 -0.5866
  334MOL0     C44005   4.094   0.662   1.365 -0.2309  0.4702  0.3803
  334MOL0     N44006   3.564   0.551   1.758 -0.3610  0.6712 -0.2352
  334MOL0     N44007   3.478   0.596   1.677 -0.1964  0.2559 -0.2326
  334MOL0     C44008   3.011   0.488   0.608  0.6109  0.9867 -0.4469
  334MOL0     C44009   2.901   0.404   0.637 -0.9820  0.4293  0.8963
  334MOL0     C44010   2.475   0.301   0.675  0.4990  1.3726  0.3390
  334MOL0     C44011   2.507   0.186   0.745 -0.1509 -0.7124  0.0119
  334MOL0     C44012   2.412   0.075   0.754 -0.2880  0.2084  1.0607
  334MOL0     C44013   2.284   0.083   0.690  0.2558 -0.1040 -1.1955
  334MOL0     O44014   2.192  -0.021   0.704  0.2513  0.0993 -0.4714
  334MOL0     C44015   2.235  -0.149   0.722 -0.1183  0.2036  0.6710
  334MOL0     C44016   2.126  -0.247   0.664 -1.1133  0.5057  0.2091
  334MOL0     C44017   2.155  -0.282   0.519 -0.9145  0.9403  0.0237
  334MOL0     C44018   2.147  -0.154   0.429 -0.3951 -0.6016  0.4343
  334MOL0     C44019   2.016  -0.101   0.427 -0.3149 -1.5143  0.0036
  334MOL0     C44020   1.904  -0.062   0.419  0.1982 -0.6012  0.3577
  334MOL0     C44021   2.264   0.191   0.608 -0.2008  0.2296 -0.5083
  334MOL0     C44022   2.354   0.297   0.597 -0.2990 -0.7617 -0.3030
  334MOL0     H44023   2.702   0.638   0.791 -3.2196 -2.4004 -3.0930
  334MOL0     H44024   2.909   0.778   0.745  0.6814  1.0442 -3.3726
  334MOL0     H44025   3.335   0.706   0.682  0.3565 -1.2326  0.8534
  334MOL0     H44026   3.269   0.538   0.627 -1.8901 -1.3457 -0.1151
  334MOL0     H44027   3.196   0.504   0.847  1.0052  0.2323  0.8546
  334MOL0     H44028   3.216   0.673   0.885  0.9813  0.7324  1.6305
  334MOL0     H44029   3.462   0.655   0.878  0.3775  0.6061  1.0528
  334MOL0     H44030   3.438   0.477   0.830  0.3646  0.5261  0.7222
  334MOL0     H44031   3.294   0.586   1.068 -0.7320 -2.8444 -0.0212
  334MOL0     H44032   3.352   0.433   1.060 -1.3513 -0.3277 -2.1302
  334MOL0     H44033   3.529   0.681   1.085  1.4319  0.3238 -0.5195
  334MOL0     H44034   3.583   0.514   1.107  1.5099  2.2701 -0.2404
  334MOL0     H44035   3.425   0.686   1.298 -5.4962 -2.1930  1.7166
  334MOL0     H44036   3.572   0.585   1.327 -1.0634 -3.2806  1.3375
  334MOL0     H44037   3.294   0.485   1.267  0.2738 -0.9520 -1.8435
  334MOL0     H44038   3.426   0.387   1.319 -2.0964 -0.2929 -2.1482
  334MOL0     H44039   3.255   0.473   1.517  1.6141 -0.5129  2.1102
  334MOL0     H44040   3.310   0.630   1.483  3.4189  1.3681  0.6030
  334MOL0     H44041   3.583   0.323   1.523  3.6392  0.7021 -0.1148
  334MOL0     H44042   3.763   0.277   1.684  0.6734 -1.2671  3.1863
  334MOL0     H44043   3.782   0.379   1.824  0.7040  2.4273 -0.1829
  334MOL0     H44044   3.845   0.486   1.558  0.4921  0.2761  0.5265
  334MOL0     H44045   3.965   0.429   1.670 -0.4163  0.1240 -2.6257
  334MOL0     H44046   3.778   0.673   1.698  0.1865 -0.6438  1.2621
  334MOL0     H44047   3.849   0.592   1.837 -2.9789  1.8919  0.4753
  334MOL0     H44048   4.048   0.660   1.805 -3.7188 -0.9410  2.1393
  334MOL0     H44049   3.974   0.804   1.722 -2.1517 -1.0993  1.7136
  334MOL0     H44050   3.828   0.806   1.519  1.5972 -1.3500  1.5784
  334MOL0     H44051   3.771   0.844   1.299  0.2609 -0.1053 -1.8029
  334MOL0     H44052   3.571   0.955   1.041 -3.2164 -0.5721 -0.6613
  334MOL0     H44053   3.458   1.024   0.844  1.1043  1.4994  1.8306
  334MOL0     H44054   3.545   0.982   0.404 -0.5290  0.9852 -1.2808
  334MOL0     H44055   3.685   1.005   0.506  0.4848  3.4201 -1.7498
  334MOL0     H44056   3.535   1.200   0.617 -1.7240  2.3664 -0.7241
  334MOL0     H44057   3.427   1.157   0.484  0.5684 -3.2974 -3.4443
  334MOL0     H44058   3.552   1.346   0.396 -0.2745 -0.1472 -2.7448
  334MOL0     H44059   3.655   1.210   0.340  1.3264 -0.1788  1.5664
  334MOL0     H44060   3.700   1.342   0.597 -0.2415 -2.0446  0.5592
  334MOL0     H44061   3.786   1.201   0.533 -0.5064 -3.1685 -3.6156
  334MOL0     H44062   3.880   1.469   0.494  0.9610 -1.3909  1.5223
  334MOL0     H44063   3.765   1.463   0.366  1.4018  2.1992  0.2747
  334MOL0     H44064   3.993   1.436   0.299 -1.6055  1.6028 -1.7129
  334MOL0     H44065   3.890   1.309   0.237 -0.5831  1.7195 -0.1601
  334MOL0     H44066   4.054   1.284   0.489 -0.8204  3.2075 -1.0081
  334MOL0     H44067   3.971   1.151   0.403 -3.9938  2.0319 -3.3206
  334MOL0     H44068   4.218   1.151   0.332  0.7522  0.9398  0.4480
  334MOL0     H44069   4.196   1.301   0.257  1.8182 -0.4706  0.6092
  334MOL0     H44070   3.700   0.790   0.587  0.2239  0.4205  0.4055
  334MOL0     H44071   3.817   0.709   0.785  0.9198  1.1248  1.0125
  334MOL0     H44072   4.114   0.635   1.146 -1.0605 -0.9328  0.0516
  334MOL0     H44073   4.176   0.596   1.391 -0.6107  0.3198  1.2377
  334MOL0     H44074   3.097   0.444   0.559 -0.4915  0.6965 -2.2173
  334MOL0     H44075   2.901   0.297   0.617 -2.2325  0.5268  0.3176
  334MOL0     H44076   2.600   0.170   0.800  1.3020 -0.8637 -2.3462
  334MOL0     H44077   2.448  -0.011   0.809  0.4819  1.9213  3.3912
  334MOL0     H44078   2.257  -0.179   0.825  2.1517 -2.5992 -0.4733
  334MOL0     H44079   2.330  -0.173   0.673 -0.0618  0.9666  0.3988
  334MOL0     H44080   2.123  -0.341   0.719  2.3733  0.9656  1.4239
  334MOL0     H44081   2.026  -0.202   0.673 -1.9991 -1.5474  1.1649
  334MOL0     H44082   2.084  -0.350   0.471  0.9684 -2.2207  1.4158
  334MOL0     H44083   2.259  -0.315   0.518 -1.0418 -0.1691  4.2196
  334MOL0     H44084   2.231  -0.085   0.443 -1.1104  0.6143 -0.9930
  334MOL0     H44085   2.160  -0.192   0.327 -1.8583  2.9289 -1.1950
  334MOL0     H44086   1.799  -0.045   0.421 -0.1529 -2.2254 -1.4265
  334MOL0     H44087   2.172   0.211   0.554 -0.6951  3.4066  1.2509
  334MOL0     H44088   2.323   0.376   0.530 -2.6999 -2.7206 -1.6630
  335MOL0     O44089   0.842   5.978   8.432  0.6710 -0.6491  0.7957
  335MOL0     C44090   0.820   6.038   8.539 -0.0537  0.5047 -0.5576
  335MOL0     O44091   0.812   6.176   8.563 -0.3399  0.1482 -0.2895
  335MOL0     C44092   0.836   6.261   8.465 -0.3337 -1.5224  0.1579
  335MOL0     C44093   0.798   6.260   8.326  0.7681  0.5260 -1.0364
  335MOL0     C44094   0.851   6.361   8.249 -0.2257 -0.3000  0.8017
  335MOL0     C44095   0.932   6.469   8.297  0.6555  0.4898 -0.0432
  335MOL0     O44096   0.965   6.564   8.202 -0.1737  0.0474  0.1740
  335MOL0     C44097   0.890   6.683   8.209  0.8207 -0.0631  1.3408
  335MOL0     C44098   0.964   6.813   8.172 -0.7324  0.4087  0.4076
  335MOL0     C44099   1.056   6.797   8.051 -0.8474 -0.2777 -0.2051
  335MOL0     C44100   1.091   6.942   7.996 -0.6735 -0.2746  0.5155
  335MOL0     C44101   1.194   7.030   8.068  0.5634  0.3707  0.5198
  335MOL0     C44102   1.336   7.047   8.017 -0.7366 -0.5372  0.1653
  335MOL0     C44103   1.361   7.048   7.862  0.5366 -0.7475 -0.6267
  335MOL0     C44104   1.278   7.164   7.807  0.1406 -0.9068 -0.5863
  335MOL0     N44105   1.342   7.297   7.852  0.0264  0.3269  0.1324
  335MOL0     C44106   1.296   7.398   7.928 -0.1670 -0.6225 -0.2372
  335MOL0     C44107   1.403   7.478   7.958  0.1691 -0.0851 -0.9568
  335MOL0     C44108   1.395   7.594   8.055 -0.0378  0.2017  0.5823
  335MOL0     C44109   1.405   7.565   8.210  0.3257 -0.2252  0.1170
  335MOL0     C44110   1.264   7.560   8.286  0.1247  0.4502 -0.2490
  335MOL0     C44111   1.286   7.506   8.433 -0.1369 -0.5679 -0.2340
  335MOL0     O44112   1.161   7.473   8.488  0.4328 -0.2488  0.0930
  335MOL0     C44113   1.109   7.345   8.496 -0.4843  0.2786 -0.0282
  335MOL0     C44114   0.984   7.330   8.553  0.3764  0.5359 -0.1781
  335MOL0     C44115   0.926   7.203   8.574 -0.6969  0.9793  0.5662
  335MOL0     C44116   0.986   7.085   8.523 -0.2588 -0.6323  0.1613
  335MOL0     C44117   0.913   6.953   8.540  0.9288  0.2272  0.4515
  335MOL0     O44118   0.773   6.961   8.543 -0.6670 -0.3286 -0.1963
  335MOL0     C44119   0.708   6.844   8.501 -0.5362  0.6720  0.0985
  335MOL0     C44120   0.714   6.700   8.543  0.2860  0.3194  0.1523
  335MOL0     C44121   0.654   6.592   8.479 -0.6229 -0.5246 -0.4775
  335MOL0     C44122   0.572   6.616   8.368 -0.4514 -0.2235 -0.5541
  335MOL0     O44123   0.513   6.510   8.303  0.3185  0.0288 -0.2017
  335MOL0     C44124   0.368   6.505   8.329 -0.3994  0.7202  0.2581
  335MOL0     C44125   0.340   6.397   8.436 -0.2810 -0.2350  0.0931
  335MOL0     C44126   0.254   6.276   8.389  0.0680 -0.4571 -0.8960
  335MOL0     C44127   0.270   6.161   8.484 -0.0814  0.0106 -0.5452
  335MOL0     C44128   0.166   6.057   8.448 -0.1000 -0.0382  0.1506
  335MOL0     C44129   0.204   5.924   8.515  0.0187  0.6929 -0.1552
  335MOL0     C44130   0.103   5.817   8.472  0.3376  2.2304 -1.2089
  335MOL0     C44131   0.107   5.687   8.558  0.2533  0.2246  0.2744
  335MOL0    Cl44132   0.258   5.601   8.559  0.5641 -0.3212 -0.2447
  335MOL0     C44133   0.560   6.748   8.328  0.8715  0.2414  0.4983
  335MOL0     C44134   0.632   6.858   8.388  0.2955  0.4810  0.6433
  335MOL0     O44135   0.976   6.856   8.547 -0.0392  0.1539 -0.2532
  335MOL0     C44136   1.118   7.100   8.465 -0.4672 -0.2901  0.3874
  335MOL0     C44137   1.176   7.225   8.447  0.1724  0.4444  0.1176
  335MOL0     N44138   1.513   7.426   7.894  0.3213 -0.5428 -0.4217
  335MOL0     N44139   1.466   7.325   7.830 -0.0924  0.4521  0.8295
  335MOL0     C44140   0.959   6.473   8.438  0.1277  0.1709  0.6470
  335MOL0     C44141   0.918   6.366   8.514  0.6244  0.0137  0.0056
  335MOL0     C44142   0.815   5.955   8.656 -1.0195 -0.4603 -0.1401
  335MOL0     C44143   0.826   6.011   8.795 -0.8863 -0.1726  0.7239
  335MOL0     C44144   0.813   5.932   8.909  0.6199  0.0723 -0.6462
  335MOL0     C44145   0.802   5.793   8.896  0.1718  1.5441  0.4106
  335MOL0     O44146   0.782   5.701   8.994  0.1207 -0.0772 -0.8597
  335MOL0     C44147   0.858   5.717   9.114 -0.2602 -0.6897  0.1821
  335MOL0     C44148   0.836   5.617   9.223 -0.5699 -0.5062  0.0736
  335MOL0     C44149   0.918   5.656   9.350 -0.2765 -0.5611 -0.1163
  335MOL0     C44150   0.854   5.763   9.444 -0.0470 -0.1502 -0.5518
  335MOL0     C44151   0.938   5.777   9.563 -0.6392  0.5404  0.7832
  335MOL0     C44152   1.020   5.766   9.655 -0.4601 -0.7090 -0.3180
  335MOL0     C44153   0.776   5.735   8.768 -0.1736 -0.3928 -0.0512
  335MOL0     C44154   0.785   5.812   8.651  0.0313  0.0019  1.4755
  335MOL0     H44155   0.737   6.173   8.305 -1.3625  0.5235  3.6987
  335MOL0     H44156   0.841   6.370   8.142  1.0612  1.9849  0.8175
  335MOL0     H44157   0.850   6.688   8.311 -0.0419 -2.1115  1.1334
  335MOL0     H44158   0.800   6.682   8.148  2.3345  1.8866 -1.1372
  335MOL0     H44159   1.030   6.834   8.257 -2.0760 -2.5916  2.3556
  335MOL0     H44160   0.898   6.897   8.147 -0.1399 -0.0586 -3.3192
  335MOL0     H44161   0.994   6.740   7.981  0.4585 -2.1309  0.0834
  335MOL0     H44162   1.142   6.731   8.049 -0.6042  0.0073 -2.5694
  335MOL0     H44163   1.118   6.930   7.891  3.2335 -1.1649  1.4834
  335MOL0     H44164   0.997   6.998   7.997 -1.0921 -0.6909 -3.0149
  335MOL0     H44165   1.206   6.998   8.172  0.3684  1.7824  1.0123
  335MOL0     H44166   1.157   7.133   8.061 -0.5462 -0.0537 -0.1063
  335MOL0     H44167   1.394   6.958   8.044  3.0213  1.4486 -0.5509
  335MOL0     H44168   1.394   7.130   8.059 -2.2580  0.7765 -0.2410
  335MOL0     H44169   1.469   7.047   7.849  0.8227  2.0081  0.9216
  335MOL0     H44170   1.328   6.955   7.814  2.6705 -1.3781 -0.9740
  335MOL0     H44171   1.174   7.152   7.839  0.2831 -1.5693 -0.3560
  335MOL0     H44172   1.263   7.161   7.698  0.2524 -0.6938 -0.6083
  335MOL0     H44173   1.197   7.412   7.969 -0.3507  1.3239 -1.2202
  335MOL0     H44174   1.302   7.652   8.046  0.2368  0.7723  1.2945
  335MOL0     H44175   1.476   7.661   8.024 -0.3943  0.1854 -0.4433
  335MOL0     H44176   1.477   7.635   8.255  4.1865 -0.9270 -4.1548
  335MOL0     H44177   1.438   7.461   8.224  1.8835 -0.6963 -5.0353
  335MOL0     H44178   1.213   7.657   8.289  1.5897  1.2445  0.6719
  335MOL0     H44179   1.198   7.486   8.241  2.6685 -2.2873  0.1841
  335MOL0     H44180   1.343   7.573   8.499 -1.5143 -1.1954  1.6684
  335MOL0     H44181   1.343   7.414   8.419 -2.2915 -1.6053 -3.2155
  335MOL0     H44182   0.920   7.409   8.590  0.8953  1.1349 -0.5402
  335MOL0     H44183   0.856   7.209   8.657  0.3751 -0.1596  1.5952
  335MOL0     H44184   0.780   6.676   8.625 -3.2070  0.1651  3.1677
  335MOL0     H44185   0.674   6.493   8.519 -0.4424  0.1056  1.0820
  335MOL0     H44186   0.314   6.485   8.236  0.3661  0.6631 -0.1871
  335MOL0     H44187   0.328   6.601   8.361  0.5182  1.1053  0.2705
  335MOL0     H44188   0.289   6.434   8.526  0.1685 -0.0524  0.2769
  335MOL0     H44189   0.434   6.361   8.480 -0.7133 -1.8380 -0.2219
  335MOL0     H44190   0.291   6.235   8.295 -2.5077  2.8427 -3.6265
  335MOL0     H44191   0.150   6.309   8.380 -0.6102 -1.8832  1.0169
  335MOL0     H44192   0.374   6.127   8.472 -0.2141 -0.3794 -0.5897
  335MOL0     H44193   0.247   6.197   8.584  1.1542  3.0732 -1.2499
  335MOL0     H44194   0.150   6.054   8.340 -2.5848  1.5189  0.4116
  335MOL0     H44195   0.074   6.095   8.493 -0.3962 -2.3117  1.6586
  335MOL0     H44196   0.198   5.944   8.622 -0.3145 -3.5225  0.7899
  335MOL0     H44197   0.304   5.881   8.507 -0.9651 -1.8323  0.3410
  335MOL0     H44198   0.005   5.864   8.458  0.3006  3.1251  1.4459
  335MOL0     H44199   0.139   5.783   8.374 -1.4865 -0.8838 -0.9317
  335MOL0     H44200   0.033   5.618   8.516  1.3815 -1.0976  0.3753
  335MOL0     H44201   0.056   5.708   8.653 -2.5280  1.8063 -1.4258
  335MOL0     H44202   0.498   6.758   8.239  1.0265 -1.7200  0.1188
  335MOL0     H44203   0.636   6.955   8.340  1.4543 -1.6801 -4.2764
  335MOL0     H44204   1.173   7.018   8.419  1.6490  1.7444 -0.9803
  335MOL0     H44205   1.282   7.228   8.422  0.5250 -1.1053  1.2626
  335MOL0     H44206   1.007   6.562   8.477 -0.6524  0.6885  0.4457
  335MOL0     H44207   0.936   6.365   8.621  1.7289 -0.2574 -0.1692
  335MOL0     H44208   0.851   6.116   8.807 -0.4885 -0.1608 -0.0963
  335MOL0     H44209   0.823   5.985   9.003  0.4692  4.4382 -2.8574
  335MOL0     H44210   0.830   5.816   9.152  0.8714  0.3307 -1.5238
  335MOL0     H44211   0.962   5.713   9.082 -0.2059 -3.0235  0.4704
  335MOL0     H44212   0.731   5.624   9.253  0.2468  0.2373  3.1357
  335MOL0     H44213   0.860   5.519   9.181 -2.7146 -2.2813  2.6235
  335MOL0     H44214   1.007   5.708   9.313 -3.7193  5.1565 -1.5524
  335MOL0     H44215   0.940   5.567   9.410  0.5012 -0.0082  0.4479
  335MOL0     H44216   0.837   5.858   9.393 -0.1081  0.5720  0.7595
  335MOL0     H44217   0.751   5.730   9.464 -0.4196  0.4962 -1.3570
  335MOL0     H44218   1.105   5.753   9.720 -0.9274 -0.6217  0.3205
  335MOL0     H44219   0.745   5.631   8.760 -2.8191  0.2453  0.6324
  335MOL0     H44220   0.761   5.763   8.557 -0.5326 -2.0301  2.6336
  336MOL0     O44221   0.597   5.188   7.001  0.4766  0.9232 -0.3691
  336MOL0     C44222   0.610   5.241   6.891 -0.2070 -0.0838  0.1178
  336MOL0     O44223   0.514   5.304   6.815 -0.6505 -0.0436 -0.3182
  336MOL0     C44224   0.388   5.282   6.839  0.7363  0.1703  0.1295
  336MOL0     C44225   0.337   5.321   6.965  0.0206  0.6044  1.0990
  336MOL0     C44226   0.213   5.275   7.010 -0.3606  0.5487 -0.2753
  336MOL0     C44227   0.132   5.190   6.930 -0.0794  0.0838 -0.6889
  336MOL0     O44228   0.010   5.148   6.964 -0.2773 -0.8547  0.8133
  336MOL0     C44229  -0.097   5.182   6.879 -0.5998  0.3322 -0.7288
  336MOL0     C44230  -0.241   5.152   6.938 -0.1269 -0.6102 -0.8738
  336MOL0     C44231  -0.291   5.011   6.909 -0.8351  0.0854  0.2241
  336MOL0     C44232  -0.209   4.907   6.993 -0.5850 -1.1005  0.3673
  336MOL0     C44233  -0.233   4.767   6.942 -0.3465  0.1975 -0.0930
  336MOL0     C44234  -0.381   4.735   6.945  0.1074 -0.2426  0.3504
  336MOL0     C44235  -0.451   4.742   7.087  0.3731 -0.1991  0.2611
  336MOL0     C44236  -0.598   4.714   7.091 -0.8335 -1.5634 -0.4476
  336MOL0     N44237  -0.632   4.585   7.036 -1.1290  0.2711  0.4053
  336MOL0     C44238  -0.656   4.470   7.100  0.1951  0.7962 -0.8171
  336MOL0     C44239  -0.689   4.384   7.002 -0.4742 -0.0416 -0.2563
  336MOL0     C44240  -0.709   4.234   7.035 -0.2607 -0.2173 -0.1319
  336MOL0     C44241  -0.574   4.159   7.047 -0.2404 -0.3101  0.0600
  336MOL0     C44242  -0.495   4.171   7.186  0.1294 -0.1616  0.0519
  336MOL0     C44243  -0.356   4.115   7.180 -0.4206 -0.3088 -0.1437
  336MOL0     O44244  -0.275   4.200   7.092  0.2175  0.2214  0.2842
  336MOL0     C44245  -0.142   4.171   7.057  0.3771 -0.1139  0.6017
  336MOL0     C44246  -0.085   4.259   6.964  0.5156  0.5254  0.3184
  336MOL0     C44247   0.043   4.240   6.908 -0.4537 -0.2990  0.5060
  336MOL0     C44248   0.115   4.124   6.945 -0.5283  0.3473  1.4846
  336MOL0     C44249   0.246   4.078   6.883 -0.0895 -0.4479  0.5454
  336MOL0     O44250   0.295   3.946   6.912  0.0130  0.0914 -0.6128
  336MOL0     C44251   0.427   3.904   6.882 -0.4591 -0.3751 -1.0955
  336MOL0     C44252   0.470   3.804   6.967 -1.0969 -0.6582  0.1944
  336MOL0     C44253   0.594   3.741   6.955 -0.1531  0.6545 -0.4026
  336MOL0     C44254   0.693   3.791   6.863  0.0807 -0.4219 -0.8065
  336MOL0     O44255   0.815   3.721   6.840 -0.4302  0.9700  0.2138
  336MOL0     C44256   0.908   3.715   6.945  0.2459 -1.0597 -0.3980
  336MOL0     C44257   1.002   3.603   6.927 -0.3519  0.3755 -0.1422
  336MOL0     C44258   0.914   3.473   6.923 -0.0297  0.0424  0.2371
  336MOL0     C44259   1.001   3.360   6.866 -0.3354 -0.7829 -0.0939
  336MOL0     C44260   0.934   3.229   6.859  1.5605 -0.0581  0.1601
  336MOL0     C44261   1.017   3.108   6.793 -0.2167  0.0659 -0.4293
  336MOL0     C44262   0.917   2.988   6.756  0.4315  0.2346  1.5997
  336MOL0     C44263   0.984   2.866   6.684  0.8009  0.1871  0.7058
  336MOL0    Cl44264   0.873   2.750   6.599 -0.1054  0.2368  0.3085
  336MOL0     C44265   0.659   3.902   6.793  0.2677  0.6887 -0.0370
  336MOL0     C44266   0.525   3.958   6.806  0.4452 -0.4077  0.1671
  336MOL0     O44267   0.312   4.171   6.822  1.1753  0.0093 -0.1841
  336MOL0     C44268   0.049   4.030   7.022 -0.3515 -0.5077 -0.2920
  336MOL0     C44269  -0.075   4.050   7.077 -0.1193  0.2995 -0.3004
  336MOL0     N44270  -0.698   4.440   6.883 -0.2265  0.2143 -0.2079
  336MOL0     N44271  -0.671   4.561   6.911 -0.0147 -0.4081 -0.2751
  336MOL0     C44272   0.178   5.157   6.803  0.4022 -0.0440  0.0261
  336MOL0     C44273   0.305   5.203   6.759 -0.4116 -0.4194  0.1225
  336MOL0     C44274   0.744   5.270   6.837 -0.5520 -0.2107  0.1457
  336MOL0     C44275   0.856   5.218   6.907  1.1510  1.2580 -1.0048
  336MOL0     C44276   0.987   5.236   6.856  0.9630 -0.4291  0.1375
  336MOL0     C44277   1.005   5.309   6.741 -0.7680 -0.4975  0.5601
  336MOL0     O44278   1.131   5.343   6.715  0.4354  0.2137  0.0729
  336MOL0     C44279   1.157   5.477   6.706  0.3130 -0.3652  0.5927
  336MOL0     C44280   1.126   5.565   6.829 -0.1596 -0.1505 -0.5130
  336MOL0     C44281   1.209   5.688   6.847 -0.3041 -0.1080 -0.1055
  336MOL0     C44282   1.186   5.747   6.985 -0.5056  0.2567  0.2214
  336MOL0     C44283   1.298   5.830   7.026  1.3029  0.1373  0.7100
  336MOL0     C44284   1.385   5.903   7.060 -1.0056  0.8382 -0.3320
  336MOL0     C44285   0.893   5.346   6.667 -0.1510  1.3160 -1.0600
  336MOL0     C44286   0.771   5.323   6.714  0.6160 -0.4884  0.0238
  336MOL0     H44287   0.396   5.393   7.021  2.2405 -0.8300  0.6917
  336MOL0     H44288   0.173   5.316   7.102 -2.8349 -0.7848 -0.6565
  336MOL0     H44289  -0.086   5.129   6.784  1.7852  0.2270 -0.4649
  336MOL0     H44290  -0.093   5.290   6.865  1.1903  0.1976 -1.5536
  336MOL0     H44291  -0.312   5.223   6.895  0.8095  1.6412  1.0810
  336MOL0     H44292  -0.229   5.165   7.046 -0.8141 -0.1177 -0.8535
  336MOL0     H44293  -0.270   4.996   6.802  3.6963  0.5047  0.8518
  336MOL0     H44294  -0.398   5.008   6.929 -0.6083  1.8128  1.9833
  336MOL0     H44295  -0.102   4.927   6.981 -0.6553  0.4160  1.8726
  336MOL0     H44296  -0.221   4.925   7.100  0.0539  0.3367  0.2116
  336MOL0     H44297  -0.162   4.703   6.995  0.5618  2.0454  1.0387
  336MOL0     H44298  -0.219   4.762   6.834 -3.1598  3.5072 -0.8085
  336MOL0     H44299  -0.392   4.631   6.911 -2.5638  0.1440 -0.1587
  336MOL0     H44300  -0.425   4.794   6.865  0.6653  1.1671  1.0497
  336MOL0     H44301  -0.400   4.666   7.147  1.0856  1.0148  1.2443
  336MOL0     H44302  -0.427   4.843   7.121 -1.7810  0.5084 -0.1669
  336MOL0     H44303  -0.647   4.789   7.029  1.5565 -1.1994 -2.0365
  336MOL0     H44304  -0.637   4.729   7.192 -2.0161 -0.2909 -1.0753
  336MOL0     H44305  -0.643   4.452   7.206 -0.7993  1.4603 -0.5743
  336MOL0     H44306  -0.782   4.196   6.964 -1.0974  1.9440 -0.5186
  336MOL0     H44307  -0.763   4.224   7.130  2.1085 -2.8932  1.0715
  336MOL0     H44308  -0.516   4.198   6.963 -1.6436  1.0998 -0.2887
  336MOL0     H44309  -0.603   4.056   7.023 -1.1143 -0.7053  2.5910
  336MOL0     H44310  -0.487   4.280   7.196  0.0791 -0.1917  0.4132
  336MOL0     H44311  -0.548   4.152   7.279  1.4880 -0.4765  0.7929
  336MOL0     H44312  -0.361   4.014   7.139 -2.4251  0.1031 -1.0664
  336MOL0     H44313  -0.319   4.117   7.283 -1.8679  1.0599  0.3916
  336MOL0     H44314  -0.141   4.351   6.957  0.5634  0.4827 -0.6979
  336MOL0     H44315   0.080   4.320   6.845  0.8190 -0.2855  1.2258
  336MOL0     H44316   0.404   3.769   7.045  1.8673  0.1662  3.3329
  336MOL0     H44317   0.624   3.655   7.014 -2.9913 -2.6112 -3.2596
  336MOL0     H44318   0.867   3.703   7.046  2.1533  1.7887  0.8411
  336MOL0     H44319   0.961   3.810   6.941  0.0196 -0.8666  0.8157
  336MOL0     H44320   1.072   3.616   7.010 -1.0226 -0.6553  0.6074
  336MOL0     H44321   1.050   3.622   6.830 -1.3345 -0.4692 -0.8114
  336MOL0     H44322   0.823   3.496   6.868 -0.0808 -0.4206  0.1299
  336MOL0     H44323   0.889   3.440   7.024 -1.1210 -0.8641 -0.3038
  336MOL0     H44324   1.025   3.388   6.763 -2.8451 -1.7509 -1.0148
  336MOL0     H44325   1.094   3.351   6.923  0.4147 -1.2102 -1.3414
  336MOL0     H44326   0.845   3.256   6.802  1.1468  2.5112  1.8356
  336MOL0     H44327   0.907   3.202   6.961  1.8281  1.5547  0.6979
  336MOL0     H44328   1.095   3.076   6.862  1.2270  0.9461 -1.5961
  336MOL0     H44329   1.065   3.146   6.703  4.8642 -0.4871  1.7251
  336MOL0     H44330   0.867   2.965   6.851 -0.6303  1.6224  1.4049
  336MOL0     H44331   0.838   3.015   6.685 -0.3613 -1.8380  1.6289
  336MOL0     H44332   1.052   2.804   6.743  1.6111 -0.8341 -1.2041
  336MOL0     H44333   1.056   2.898   6.608  0.3761 -0.1323  0.1601
  336MOL0     H44334   0.731   3.954   6.731 -1.9904  1.5323 -2.1844
  336MOL0     H44335   0.505   4.045   6.745 -0.3919  1.7126  3.2396
  336MOL0     H44336   0.084   3.932   7.055 -0.5341  0.2326  2.3477
  336MOL0     H44337  -0.130   3.970   7.127  1.7212 -0.4797  0.5539
  336MOL0     H44338   0.114   5.111   6.729  1.2487 -2.7550  0.8535
  336MOL0     H44339   0.343   5.180   6.660 -1.0664  2.1066 -0.7910
  336MOL0     H44340   0.847   5.158   6.996  1.1045  1.4720 -0.8649
  336MOL0     H44341   1.068   5.200   6.919 -2.1617  1.0977  5.6354
  336MOL0     H44342   1.104   5.497   6.613 -1.2683 -2.9987  0.8037
  336MOL0     H44343   1.265   5.482   6.696  0.1448  1.5721 -0.8483
  336MOL0     H44344   1.020   5.592   6.833 -1.0108 -3.0018 -1.7109
  336MOL0     H44345   1.137   5.484   6.901 -0.2962 -0.1931 -0.5409
  336MOL0     H44346   1.172   5.752   6.766 -2.1295 -1.7222 -0.6114
  336MOL0     H44347   1.316   5.670   6.842  0.0768  0.8073  2.9059
  336MOL0     H44348   1.091   5.800   6.975 -0.8714 -0.4796 -0.3528
  336MOL0     H44349   1.172   5.669   7.060 -0.4844  1.1178  1.1390
  336MOL0     H44350   1.460   5.971   7.095  1.2760 -2.2437  1.3683
  336MOL0     H44351   0.888   5.403   6.575  0.9945  1.1071 -1.2703
  336MOL0     H44352   0.685   5.352   6.655 -1.1851 -1.0043  2.2621
  337MOL0     O44353   1.782   7.087   6.125  0.5024  0.2484 -0.1939
  337MOL0     C44354   1.814   7.003   6.038  0.6654  0.2386 -0.4340
  337MOL0     O44355   1.841   6.873   6.066  0.3989 -0.6881  0.4009
  337MOL0     C44356   1.778   6.807   6.171  0.2318 -0.1315 -0.0040
  337MOL0     C44357   1.697   6.692   6.146 -0.4226 -0.3462  0.0888
  337MOL0     C44358   1.634   6.627   6.244 -0.1890  0.8984 -0.1979
  337MOL0     C44359   1.647   6.674   6.376 -0.5697 -0.2994 -1.0032
  337MOL0     O44360   1.593   6.603   6.483  0.2214  0.2641  0.2683
  337MOL0     C44361   1.464   6.537   6.467 -0.3254 -0.6095  0.1326
  337MOL0     C44362   1.404   6.518   6.606  0.4209 -0.3503 -0.0659
  337MOL0     C44363   1.498   6.444   6.702 -0.9281  0.4695  0.5662
  337MOL0     C44364   1.427   6.444   6.838  0.2010 -0.6424  0.5655
  337MOL0     C44365   1.430   6.308   6.909  0.6734  0.8775 -0.4317
  337MOL0     C44366   1.334   6.201   6.842 -0.6095  0.3393 -0.7097
  337MOL0     C44367   1.200   6.248   6.816  0.3300  0.5508 -1.0630
  337MOL0     C44368   1.102   6.134   6.791  0.3440  0.0418  0.8685
  337MOL0     N44369   1.095   6.100   6.646 -0.3856 -0.3812 -0.0989
  337MOL0     C44370   1.047   6.185   6.565  0.7820  0.2413 -0.3786
  337MOL0     C44371   1.066   6.141   6.440  0.6772 -0.3857  0.2844
  337MOL0     C44372   1.037   6.225   6.324 -0.3374  0.2020 -0.2672
  337MOL0     C44373   1.155   6.326   6.304 -0.1857 -0.1456 -0.0738
  337MOL0     C44374   1.137   6.405   6.176  0.5044  0.1357 -0.3001
  337MOL0     C44375   1.249   6.519   6.166  1.0605 -0.4438  1.1077
  337MOL0     O44376   1.200   6.620   6.071  0.3006 -0.1736  0.3208
  337MOL0     C44377   1.260   6.621   5.952 -0.6521  0.1054 -0.7333
  337MOL0     C44378   1.357   6.713   5.923  0.0464  0.1933  0.5903
  337MOL0     C44379   1.398   6.724   5.792 -0.4243  0.3028 -0.4764
  337MOL0     C44380   1.344   6.654   5.692 -0.7814  1.1848  0.6204
  337MOL0     C44381   1.394   6.665   5.550 -0.5632  0.4374 -0.2408
  337MOL0     O44382   1.318   6.609   5.454  0.1859 -0.5900  0.2070
  337MOL0     C44383   1.340   6.633   5.318 -0.1996 -0.5648 -0.7126
  337MOL0     C44384   1.389   6.536   5.229  1.2635  1.0474 -0.1296
  337MOL0     C44385   1.410   6.553   5.090 -0.4384  0.4536 -0.1119
  337MOL0     C44386   1.379   6.684   5.036 -0.2358  0.1054 -0.5953
  337MOL0     O44387   1.409   6.729   4.904 -1.4331  0.7065 -0.4413
  337MOL0     C44388   1.440   6.624   4.805 -0.2592  0.2785 -0.4743
  337MOL0     C44389   1.321   6.530   4.776  0.9563 -0.5964  0.5398
  337MOL0     C44390   1.311   6.511   4.622  0.0321 -0.4790 -0.2902
  337MOL0     C44391   1.183   6.439   4.574 -0.1240 -0.1013 -0.3937
  337MOL0     C44392   1.218   6.288   4.551 -0.0835  0.4161 -0.3232
  337MOL0     C44393   1.296   6.242   4.420  0.0075 -0.5155 -0.8128
  337MOL0     C44394   1.291   6.084   4.406 -0.0036 -0.7718 -0.0204
  337MOL0     C44395   1.400   6.016   4.490 -0.3780  0.2860  0.7231
  337MOL0    Cl44396   1.561   6.070   4.429  0.9803  0.3200 -0.0266
  337MOL0     C44397   1.331   6.784   5.124  0.2728  0.2956 -0.5368
  337MOL0     C44398   1.303   6.753   5.259 -0.4836 -0.5188 -0.9003
  337MOL0     O44399   1.502   6.716   5.524  0.5848 -0.3146 -0.0621
  337MOL0     C44400   1.244   6.553   5.725  0.3389  0.8428  0.6820
  337MOL0     C44401   1.210   6.536   5.855 -0.0827  0.5035  0.8522
  337MOL0     N44402   1.146   6.025   6.443  0.2442 -0.5157 -0.6147
  337MOL0     N44403   1.165   6.005   6.571  0.1858 -0.5483  0.0154
  337MOL0     C44404   1.721   6.785   6.408  1.1874 -0.1502  0.9496
  337MOL0     C44405   1.783   6.854   6.310 -0.0258 -0.7520  0.4164
  337MOL0     C44406   1.823   7.043   5.893 -0.2268 -0.1939 -0.3296
  337MOL0     C44407   1.836   6.934   5.797 -0.3356 -0.5565  0.1007
  337MOL0     C44408   1.818   6.960   5.655  0.9712  1.3508 -0.1832
  337MOL0     C44409   1.819   7.088   5.609  0.0942 -1.0627  0.0364
  337MOL0     O44410   1.812   7.103   5.471  0.2816 -0.4240  0.3293
  337MOL0     C44411   1.927   7.068   5.386 -0.8006  0.2197 -0.6879
  337MOL0     C44412   2.030   7.177   5.390  0.0623  0.0035  1.1222
  337MOL0     C44413   1.992   7.313   5.352 -0.0357 -0.6189  0.1049
  337MOL0     C44414   2.111   7.404   5.354  0.0996 -0.6043 -0.5460
  337MOL0     C44415   2.086   7.518   5.451  0.5259 -0.3308  1.2085
  337MOL0     C44416   2.065   7.607   5.521 -0.0917 -0.6010 -0.8044
  337MOL0     C44417   1.819   7.191   5.698 -0.3365  0.9856 -0.3379
  337MOL0     C44418   1.827   7.173   5.839  0.0181  0.1086 -0.1144
  337MOL0     H44419   1.693   6.651   6.046  0.3142  0.9718 -0.5074
  337MOL0     H44420   1.576   6.536   6.234  0.0548  0.4536  1.9004
  337MOL0     H44421   1.486   6.440   6.421  4.0874 -0.1345  0.7448
  337MOL0     H44422   1.411   6.602   6.396  2.9784  1.1282 -0.9746
  337MOL0     H44423   1.317   6.453   6.597  0.4472 -0.3535 -0.3035
  337MOL0     H44424   1.371   6.615   6.645  1.1684  0.2010 -0.7420
  337MOL0     H44425   1.589   6.503   6.713  0.5512 -1.2967 -1.2736
  337MOL0     H44426   1.523   6.345   6.661  0.7896  1.3549 -0.6471
  337MOL0     H44427   1.481   6.509   6.906  1.6554  1.8682 -2.7125
  337MOL0     H44428   1.325   6.473   6.809  0.2970 -3.2217 -3.1780
  337MOL0     H44429   1.388   6.318   7.010 -0.5052  1.6127 -0.9677
  337MOL0     H44430   1.534   6.275   6.909  0.5019  0.3025  0.4196
  337MOL0     H44431   1.331   6.113   6.907 -4.4932 -0.3101 -1.5178
  337MOL0     H44432   1.373   6.166   6.746  3.4464 -1.0182  1.2015
  337MOL0     H44433   1.152   6.292   6.903 -0.8270  1.7785 -2.2806
  337MOL0     H44434   1.191   6.322   6.736 -0.2713  1.6349 -0.0293
  337MOL0     H44435   1.004   6.167   6.826  1.2685  0.0551  3.7642
  337MOL0     H44436   1.122   6.048   6.855  0.1984  0.5405  1.6029
  337MOL0     H44437   0.995   6.279   6.581  1.5614  1.2267 -2.9744
  337MOL0     H44438   0.937   6.261   6.347  0.1676  1.7817 -0.4562
  337MOL0     H44439   1.039   6.143   6.251 -0.9775  0.9145 -1.1108
  337MOL0     H44440   1.247   6.268   6.291  0.5916  0.6596  1.5738
  337MOL0     H44441   1.177   6.389   6.391 -0.1350 -0.6103  0.2540
  337MOL0     H44442   1.149   6.339   6.090  3.2453 -1.6886  1.3298
  337MOL0     H44443   1.038   6.451   6.183 -0.8040 -2.7661  2.6750
  337MOL0     H44444   1.347   6.477   6.142  1.1015 -1.1559  2.4280
  337MOL0     H44445   1.267   6.570   6.262  1.4728 -0.8596  1.2564
  337MOL0     H44446   1.402   6.786   5.989  0.7270  1.5486 -1.2968
  337MOL0     H44447   1.471   6.798   5.761 -0.6867  2.4791  3.4641
  337MOL0     H44448   1.404   6.439   5.275 -0.4378  0.5633 -0.5176
  337MOL0     H44449   1.449   6.471   5.031 -1.4716  0.0889 -0.3089
  337MOL0     H44450   1.519   6.558   4.844 -2.5133 -1.2747  1.8182
  337MOL0     H44451   1.484   6.686   4.727 -0.2754  0.1227 -0.6079
  337MOL0     H44452   1.229   6.580   4.807 -1.0179 -2.8942 -1.2058
  337MOL0     H44453   1.340   6.434   4.825  2.8289 -0.5624 -0.0560
  337MOL0     H44454   1.391   6.442   4.593  1.4603 -0.4247  3.0575
  337MOL0     H44455   1.301   6.610   4.579 -2.1873 -1.5776 -2.5604
  337MOL0     H44456   1.110   6.451   4.655 -1.2673  3.7518 -1.7552
  337MOL0     H44457   1.162   6.494   4.482  2.3307  1.2095 -0.2293
  337MOL0     H44458   1.120   6.240   4.545 -3.4524  6.0639  1.2628
  337MOL0     H44459   1.265   6.248   4.641 -1.2218  1.9867  1.0501
  337MOL0     H44460   1.401   6.272   4.429 -0.3287 -0.0690  2.9512
  337MOL0     H44461   1.252   6.277   4.326 -2.3758  0.5834  0.6155
  337MOL0     H44462   1.194   6.041   4.434 -1.1958  0.6550 -1.6849
  337MOL0     H44463   1.318   6.080   4.300  0.5728 -1.8833  0.1605
  337MOL0     H44464   1.402   5.911   4.460  1.1167  0.5658 -0.2639
  337MOL0     H44465   1.381   6.038   4.595 -0.9544  0.3271  0.6116
  337MOL0     H44466   1.339   6.882   5.077 -0.4085  0.6347  0.0360
  337MOL0     H44467   1.264   6.840   5.310 -1.0211 -1.8446  1.0725
  337MOL0     H44468   1.211   6.489   5.645 -0.5361 -1.1670  2.5335
  337MOL0     H44469   1.153   6.453   5.895  0.7338 -1.2820 -1.4698
  337MOL0     H44470   1.737   6.821   6.510  2.4490  0.2267  0.6324
  337MOL0     H44471   1.836   6.945   6.337 -2.5131  0.1378  2.8180
  337MOL0     H44472   1.821   6.833   5.835 -3.0557 -0.4124 -0.3901
  337MOL0     H44473   1.812   6.886   5.577  1.9573 -0.9694  1.8219
  337MOL0     H44474   1.894   7.050   5.283  1.3273 -5.1180 -0.7626
  337MOL0     H44475   1.984   6.977   5.407  0.6970  0.3914 -3.4983
  337MOL0     H44476   2.067   7.183   5.492  1.0826 -0.6974  0.8061
  337MOL0     H44477   2.099   7.155   5.307 -3.7881 -2.8756 -1.7030
  337MOL0     H44478   1.916   7.362   5.413 -2.3363  1.3472 -3.9241
  337MOL0     H44479   1.946   7.306   5.253 -0.4532  0.9483  0.1574
  337MOL0     H44480   2.199   7.347   5.384 -1.0614 -2.7222 -0.9602
  337MOL0     H44481   2.128   7.445   5.254 -2.1005 -1.8448 -1.5160
  337MOL0     H44482   2.039   7.693   5.579 -3.2314 -0.4853 -2.1702
  337MOL0     H44483   1.805   7.286   5.647  1.6573  0.8564 -1.2045
  337MOL0     H44484   1.827   7.251   5.914  0.0823 -0.4909  0.5191
  338MOL0     O44485   3.715   7.385   9.820  1.0075  0.3184 -0.5008
  338MOL0     C44486   3.822   7.372   9.774 -0.9952 -0.3234  0.7167
  338MOL0     O44487   3.885   7.253   9.776  0.1144  0.9107 -0.8256
  338MOL0     C44488   3.815   7.130   9.777 -0.3118  0.8614  0.5566
  338MOL0     C44489   3.696   7.105   9.696 -0.0671  0.4913 -0.0776
  338MOL0     C44490   3.654   6.976   9.667  0.4205  0.4129 -0.0914
  338MOL0     C44491   3.708   6.864   9.733 -0.3997  1.1436 -0.1973
  338MOL0     O44492   3.651   6.739   9.728  1.0010  0.6101  0.0973
  338MOL0     C44493   3.655   6.694   9.592 -0.0700 -0.5724 -0.3072
  338MOL0     C44494   3.607   6.554   9.582  0.8518 -0.9284 -0.8571
  338MOL0     C44495   3.689   6.439   9.647 -0.4083  0.9579 -0.2859
  338MOL0     C44496   3.607   6.310   9.640  0.7172  1.3602  0.4476
  338MOL0     C44497   3.664   6.195   9.715  0.2955 -0.0387 -0.8062
  338MOL0     C44498   3.602   6.061   9.709  0.1066 -0.7936  0.3267
  338MOL0     C44499   3.484   6.064   9.797  0.2281 -0.0927  0.2599
  338MOL0     C44500   3.413   5.925   9.810 -0.3636 -0.2439  0.0087
  338MOL0     N44501   3.459   5.860   9.931  1.3973  0.8321  0.5265
  338MOL0     C44502   3.537   5.742   9.931  0.0663 -1.2225 -0.0333
  338MOL0     C44503   3.539   5.706  10.062 -0.0076  1.1112  1.3025
  338MOL0     C44504   3.620   5.588  10.105  0.8564 -0.0237  0.1276
  338MOL0     C44505   3.533   5.486  10.179 -0.0175  0.3123 -0.4453
  338MOL0     C44506   3.550   5.514  10.329  0.8276  0.2213 -0.9942
  338MOL0     C44507   3.661   5.432  10.386  0.7673 -0.6713  0.1809
  338MOL0     O44508   3.697   5.483  10.511 -0.6259 -0.7234 -0.8372
  338MOL0     C44509   3.824   5.458  10.543 -1.1860 -0.0582  0.3202
  338MOL0     C44510   3.903   5.350  10.510 -0.0519  0.7664  0.6314
  338MOL0     C44511   4.039   5.346  10.537  0.1446  0.2394 -1.2485
  338MOL0     C44512   4.108   5.459  10.584  0.2607  0.2883 -0.5129
  338MOL0     C44513   4.247   5.446  10.598 -0.6158  0.2260 -0.4958
  338MOL0     O44514   4.307   5.317  10.603  0.0381  0.3518  0.0017
  338MOL0     C44515   4.433   5.309  10.647 -0.2451  0.4828  0.2275
  338MOL0     C44516   4.537   5.281  10.562 -1.4451 -0.1022  0.2253
  338MOL0     C44517   4.671   5.254  10.611  0.0047 -0.9291 -0.4414
  338MOL0     C44518   4.697   5.274  10.748 -0.0697 -0.0874 -0.1299
  338MOL0     O44519   4.816   5.276  10.826 -0.0037  0.0241 -0.7486
  338MOL0     C44520   4.922   5.204  10.762 -0.6799  0.7710  0.4969
  338MOL0     C44521   5.063   5.237  10.808  0.6068  0.3696 -0.4453
  338MOL0     C44522   5.164   5.161  10.724 -0.0963  0.0442 -0.1051
  338MOL0     C44523   5.302   5.197  10.789 -0.5472  0.3343 -0.9934
  338MOL0     C44524   5.336   5.087  10.896 -0.8802  1.3449  0.5201
  338MOL0     C44525   5.472   5.123  10.958  0.9702  0.6662 -0.1509
  338MOL0     C44526   5.488   5.219  11.077 -0.2559 -0.9520  0.1109
  338MOL0     C44527   5.453   5.373  11.045 -0.1104 -0.9503  0.6509
  338MOL0    Cl44528   5.534   5.425  10.893  0.1119  0.4364 -0.6767
  338MOL0     C44529   4.587   5.289  10.827  0.4723 -0.1026  0.1671
  338MOL0     C44530   4.456   5.301  10.782 -0.3341 -0.7835  0.1251
  338MOL0     O44531   4.310   5.551  10.608  0.0588 -0.3531 -0.2754
  338MOL0     C44532   4.035   5.565  10.624  0.2385 -0.4546  0.8121
  338MOL0     C44533   3.895   5.575  10.603 -0.5385 -0.7361  0.5973
  338MOL0     N44534   3.466   5.789  10.139  0.2676 -0.5278  0.5616
  338MOL0     N44535   3.414   5.878  10.060  0.2857  0.1620  0.7169
  338MOL0     C44536   3.814   6.887   9.822 -1.0202  0.3386  0.4881
  338MOL0     C44537   3.870   7.016   9.837 -0.1098  0.1905 -0.7765
  338MOL0     C44538   3.884   7.494   9.701 -0.0917 -0.2198 -0.0078
  338MOL0     C44539   3.797   7.612   9.687  0.0367  0.8621 -0.2160
  338MOL0     C44540   3.848   7.725   9.624 -0.1288  0.1211  0.0607
  338MOL0     C44541   3.977   7.722   9.568 -0.2285 -0.7000  0.6839
  338MOL0     O44542   4.022   7.834   9.499 -0.7742 -0.2045 -0.1288
  338MOL0     C44543   4.126   7.815   9.398 -0.3142  0.1584  1.3829
  338MOL0     C44544   4.070   7.909   9.287 -0.3910  0.1287 -0.2071
  338MOL0     C44545   4.151   7.929   9.156  0.1978 -0.8939 -0.1725
  338MOL0     C44546   4.074   8.023   9.055 -0.1111  0.0861  0.0065
  338MOL0     C44547   4.031   8.154   9.109 -0.4145 -0.1699 -0.3610
  338MOL0     C44548   4.011   8.260   9.165 -0.5583 -0.5306 -0.0023
  338MOL0     C44549   4.058   7.610   9.590  0.5340  0.8154 -0.3758
  338MOL0     C44550   4.015   7.497   9.655  0.2730 -0.4359 -0.6288
  338MOL0     H44551   3.648   7.188   9.644 -0.4427 -0.5536 -1.4579
  338MOL0     H44552   3.582   6.964   9.587 -0.5448  0.1326  0.7902
  338MOL0     H44553   3.754   6.697   9.546 -0.4034 -1.8347 -1.1560
  338MOL0     H44554   3.599   6.763   9.528 -2.8546 -2.1553  0.2806
  338MOL0     H44555   3.582   6.530   9.478 -3.4504 -2.1908  0.2487
  338MOL0     H44556   3.511   6.556   9.635  1.0893 -5.3299  0.1034
  338MOL0     H44557   3.711   6.463   9.751 -1.9884 -2.5347  1.0086
  338MOL0     H44558   3.780   6.429   9.587 -1.6803  3.4875 -2.8984
  338MOL0     H44559   3.504   6.327   9.672  0.3359  1.7440 -0.9053
  338MOL0     H44560   3.604   6.289   9.532  3.1514 -1.1663  0.7512
  338MOL0     H44561   3.655   6.225   9.820 -0.7335 -2.9507  0.0249
  338MOL0     H44562   3.769   6.190   9.688  0.7707  0.0392  0.9202
  338MOL0     H44563   3.677   5.997   9.756  0.9797  0.0861  0.1431
  338MOL0     H44564   3.570   6.025   9.611 -0.6450 -2.5090  1.1425
  338MOL0     H44565   3.524   6.098   9.893  5.3158 -1.8855 -0.9397
  338MOL0     H44566   3.409   6.139   9.770  0.6398  0.1759 -0.1346
  338MOL0     H44567   3.458   5.869   9.727 -4.5172  0.1827 -2.8336
  338MOL0     H44568   3.306   5.924   9.786 -0.5117  2.3694  0.2227
  338MOL0     H44569   3.579   5.686   9.848 -1.1897 -2.4774  0.1405
  338MOL0     H44570   3.697   5.629  10.170  0.2831  2.5831 -0.7241
  338MOL0     H44571   3.679   5.538  10.028  0.0623 -1.2169  0.2584
  338MOL0     H44572   3.553   5.380  10.161  1.5659 -0.1197  3.0179
  338MOL0     H44573   3.431   5.507  10.148 -0.1328 -0.7370 -0.8090
  338MOL0     H44574   3.556   5.620  10.356 -1.6432  0.5527 -1.4572
  338MOL0     H44575   3.463   5.479  10.386  2.3607 -0.5369  0.9784
  338MOL0     H44576   3.735   5.412  10.308 -1.3995 -2.1597 -1.6513
  338MOL0     H44577   3.609   5.337  10.405  0.2443 -0.1381  1.5059
  338MOL0     H44578   3.862   5.263  10.459  0.3779  1.0121 -0.1493
  338MOL0     H44579   4.099   5.255  10.536  2.8713  1.7622  2.5860
  338MOL0     H44580   4.529   5.295  10.455  1.1656  3.3217  0.3061
  338MOL0     H44581   4.753   5.222  10.547 -0.7938 -1.2257 -1.3286
  338MOL0     H44582   4.922   5.224  10.655 -0.4987 -1.7783 -0.0371
  338MOL0     H44583   4.905   5.096  10.771 -3.0622  1.1792  2.0221
  338MOL0     H44584   5.078   5.220  10.915 -3.3620  2.7211  0.6948
  338MOL0     H44585   5.075   5.342  10.780 -0.9001  0.6069 -0.2525
  338MOL0     H44586   5.152   5.176  10.617  0.4487 -0.0626 -0.1817
  338MOL0     H44587   5.147   5.054  10.741  1.2993 -0.0151  1.1019
  338MOL0     H44588   5.390   5.212  10.726 -2.9116  2.2068 -4.1310
  338MOL0     H44589   5.289   5.292  10.842  0.0060 -0.3838  0.4882
  338MOL0     H44590   5.352   4.999  10.833 -0.4753  1.3784  0.5741
  338MOL0     H44591   5.258   5.068  10.971 -0.7477 -2.0117 -0.0464
  338MOL0     H44592   5.531   5.161  10.873 -1.9909  0.5070 -2.4508
  338MOL0     H44593   5.514   5.027  10.986 -0.0455  0.6998  1.6356
  338MOL0     H44594   5.414   5.196  11.154 -1.3703 -0.5014 -0.8031
  338MOL0     H44595   5.588   5.195  11.113 -0.3336 -1.1086  0.2219
  338MOL0     H44596   5.478   5.436  11.130 -0.8910 -1.9648  1.6675
  338MOL0     H44597   5.345   5.379  11.028  0.0251 -2.5028 -1.1394
  338MOL0     H44598   4.607   5.276  10.933  1.6617 -2.1416 -0.2492
  338MOL0     H44599   4.373   5.303  10.851  2.2505  0.3849  3.5083
  338MOL0     H44600   4.075   5.655  10.670  4.4126 -0.6074 -2.0175
  338MOL0     H44601   3.838   5.657  10.645  2.6314 -0.1428  4.4200
  338MOL0     H44602   3.854   6.797   9.868 -1.2554 -1.0331 -1.8698
  338MOL0     H44603   3.957   7.025   9.902 -0.3896 -3.8860  0.4502
  338MOL0     H44604   3.693   7.606   9.720  0.4611 -1.1614  0.9066
  338MOL0     H44605   3.786   7.813   9.610  0.7317  1.3886  3.1703
  338MOL0     H44606   4.134   7.712   9.362 -3.6871  0.5640 -1.0156
  338MOL0     H44607   4.219   7.864   9.431  2.3234 -2.3552 -1.6194
  338MOL0     H44608   3.970   7.877   9.256  1.0366 -1.3787 -3.6736
  338MOL0     H44609   4.064   8.008   9.334  0.8414  0.2701 -0.3275
  338MOL0     H44610   4.172   7.836   9.102 -1.1930 -0.3769 -1.6755
  338MOL0     H44611   4.254   7.963   9.175  0.7644 -1.0042 -2.6555
  338MOL0     H44612   4.137   8.060   8.973  0.1058  1.4184  0.7571
  338MOL0     H44613   3.994   7.964   9.008  2.2839 -3.6093  0.0801
  338MOL0     H44614   3.979   8.356   9.201  1.0754  0.2427 -0.5333
  338MOL0     H44615   4.162   7.602   9.557  0.2841  1.2818 -1.3242
  338MOL0     H44616   4.077   7.412   9.685  0.6912  0.3223  0.7222
  339MOL0     O44617   1.222   2.376   6.981 -0.8866  0.3451  0.6714
  339MOL0     C44618   1.165   2.481   6.967  0.7008 -0.7458 -0.2726
  339MOL0     O44619   1.182   2.581   6.878  0.3555 -0.2915  0.8283
  339MOL0     C44620   1.269   2.551   6.765 -0.5162 -1.0052 -1.1190
  339MOL0     C44621   1.229   2.591   6.641 -0.3880  0.5764 -0.2159
  339MOL0     C44622   1.322   2.596   6.539  0.1404  0.2160  0.5159
  339MOL0     C44623   1.455   2.563   6.569 -0.5557  0.0658 -0.0501
  339MOL0     O44624   1.542   2.559   6.453 -0.4724 -0.6115  0.1632
  339MOL0     C44625   1.669   2.489   6.461  0.1540 -0.7616  0.3482
  339MOL0     C44626   1.665   2.343   6.447  0.3202 -0.0018 -0.2837
  339MOL0     C44627   1.793   2.270   6.499  0.2055 -0.5563 -0.2988
  339MOL0     C44628   1.794   2.136   6.429 -0.7029  0.8550 -0.0424
  339MOL0     C44629   1.919   2.053   6.468 -0.7787  0.7451 -0.2330
  339MOL0     C44630   1.951   1.922   6.389 -0.1446 -0.5861 -0.1854
  339MOL0     C44631   2.019   1.825   6.489  0.5451 -0.0505  0.0421
  339MOL0     C44632   2.045   1.690   6.425 -0.3012  0.2118 -0.0989
  339MOL0     N44633   2.150   1.710   6.325 -0.4284 -0.0530  0.5140
  339MOL0     C44634   2.283   1.720   6.342  0.2451  0.2979 -1.3697
  339MOL0     C44635   2.325   1.675   6.224 -0.5754  0.8200  0.0592
  339MOL0     C44636   2.463   1.621   6.200  0.6664  0.4201 -0.1273
  339MOL0     C44637   2.509   1.649   6.057  0.2723  0.6368 -1.1941
  339MOL0     C44638   2.469   1.557   5.946 -0.3388 -0.3351 -0.0246
  339MOL0     C44639   2.598   1.559   5.850 -0.0135 -0.0576 -0.5872
  339MOL0     O44640   2.572   1.484   5.735  0.0443 -0.6165  0.3068
  339MOL0     C44641   2.680   1.456   5.646 -0.4127  0.8600  0.0313
  339MOL0     C44642   2.806   1.519   5.651  0.0694  0.4834 -0.1945
  339MOL0     C44643   2.903   1.471   5.560 -0.0259  0.1969 -0.2119
  339MOL0     C44644   2.871   1.385   5.463 -0.5706  0.0090  0.0951
  339MOL0     C44645   2.978   1.348   5.366 -0.4083  0.8105  0.2277
  339MOL0     O44646   3.098   1.384   5.396 -0.4736  0.5735  1.0245
  339MOL0     C44647   3.210   1.382   5.314 -0.5647  0.3701 -0.5744
  339MOL0     C44648   3.336   1.373   5.372  0.1730  0.9201 -0.2868
  339MOL0     C44649   3.439   1.314   5.287 -0.2837 -0.7854  0.3412
  339MOL0     C44650   3.422   1.271   5.163  0.1446  0.4810 -0.2972
  339MOL0     O44651   3.524   1.193   5.097 -0.4779  0.0508  0.9563
  339MOL0     C44652   3.478   1.101   5.000 -0.2691 -0.2127 -0.9439
  339MOL0     C44653   3.489   1.143   4.851 -0.0604 -0.5663 -0.0312
  339MOL0     C44654   3.643   1.160   4.803  0.3551  0.5815 -1.1638
  339MOL0     C44655   3.711   1.026   4.780  0.8649  0.1155  0.1715
  339MOL0     C44656   3.850   1.026   4.712 -0.5948 -0.2435 -0.1614
  339MOL0     C44657   3.832   1.075   4.567  1.0117  0.2025  0.6572
  339MOL0     C44658   3.966   1.055   4.492 -1.1746 -0.0801  0.4744
  339MOL0     C44659   3.954   1.086   4.348 -0.2267 -1.1314  0.5550
  339MOL0    Cl44660   3.859   0.952   4.278 -0.1012  0.2802 -0.5667
  339MOL0     C44661   3.310   1.313   5.098 -0.9654 -0.0329 -0.5809
  339MOL0     C44662   3.205   1.377   5.174 -0.7972  0.4605 -0.2650
  339MOL0     O44663   2.941   1.304   5.258  0.2895  0.2949 -1.4441
  339MOL0     C44664   2.750   1.313   5.469 -1.3588 -0.2567  0.6651
  339MOL0     C44665   2.648   1.357   5.554 -0.3229  0.1465 -0.2203
  339MOL0     N44666   2.221   1.658   6.130  0.4981  0.2932 -0.0918
  339MOL0     N44667   2.118   1.680   6.195 -0.0545 -0.1760 -0.5542
  339MOL0     C44668   1.499   2.522   6.694 -0.5994  0.0364 -0.2197
  339MOL0     C44669   1.405   2.515   6.791  0.4580  0.1468 -0.3119
  339MOL0     C44670   1.039   2.505   7.044 -0.0211  0.2976  0.4125
  339MOL0     C44671   0.944   2.608   7.005 -0.0731 -0.0788 -0.1007
  339MOL0     C44672   0.829   2.620   7.070  0.0579  0.9947  0.7676
  339MOL0     C44673   0.791   2.535   7.168 -0.2129  0.6099 -0.7643
  339MOL0     O44674   0.678   2.556   7.244  0.3004 -0.4598 -0.7987
  339MOL0     C44675   0.556   2.532   7.181  1.3674 -0.3011  0.6560
  339MOL0     C44676   0.446   2.523   7.283 -0.4427  0.1088 -0.6936
  339MOL0     C44677   0.467   2.428   7.401 -0.2404  1.2388 -0.2670
  339MOL0     C44678   0.516   2.282   7.376  0.1782  0.0139 -0.4505
  339MOL0     C44679   0.420   2.204   7.300 -1.3925  0.1744  0.0102
  339MOL0     C44680   0.330   2.144   7.250  0.3682  0.7250  0.4525
  339MOL0     C44681   0.887   2.444   7.215 -0.2305  0.2847  0.5977
  339MOL0     C44682   1.010   2.418   7.148  0.2061 -0.4750 -1.0343
  339MOL0     H44683   1.124   2.612   6.623 -0.7178  0.3352  1.2749
  339MOL0     H44684   1.287   2.631   6.442 -0.4030 -4.7933 -1.4445
  339MOL0     H44685   1.716   2.505   6.559  0.8792 -0.7615  0.0026
  339MOL0     H44686   1.744   2.525   6.391  0.7080  0.0272  1.3165
  339MOL0     H44687   1.645   2.323   6.341 -2.6519  1.6348 -0.1431
  339MOL0     H44688   1.573   2.302   6.489  0.6645 -2.3977 -1.6472
  339MOL0     H44689   1.789   2.248   6.606 -0.4821 -1.4549 -0.5014
  339MOL0     H44690   1.893   2.312   6.483  0.6529 -1.5859 -0.2959
  339MOL0     H44691   1.705   2.077   6.451  0.5355 -0.6657  1.1035
  339MOL0     H44692   1.797   2.140   6.319  0.7988 -0.3568 -0.0788
  339MOL0     H44693   1.909   2.031   6.574 -1.3395 -0.7974 -0.5753
  339MOL0     H44694   2.011   2.113   6.463  1.8481 -2.9786 -1.5322
  339MOL0     H44695   2.022   1.943   6.308 -1.2380 -2.0617 -1.5839
  339MOL0     H44696   1.862   1.886   6.337  0.1369  2.1722 -2.8519
  339MOL0     H44697   2.113   1.875   6.512  2.0658 -1.9639 -1.6057
  339MOL0     H44698   1.958   1.810   6.579 -0.1870  0.7102 -0.3141
  339MOL0     H44699   1.955   1.655   6.374 -0.5977  0.4804  0.2434
  339MOL0     H44700   2.077   1.625   6.507 -0.1526  0.2287 -0.1421
  339MOL0     H44701   2.335   1.750   6.432 -3.4316  0.3380  0.9633
  339MOL0     H44702   2.473   1.513   6.215  1.2697  0.8734  3.5189
  339MOL0     H44703   2.537   1.660   6.270  1.2903 -1.5601  0.3689
  339MOL0     H44704   2.618   1.648   6.071  0.1977  3.3768  0.2264
  339MOL0     H44705   2.477   1.750   6.032  0.3922  0.4990 -1.9502
  339MOL0     H44706   2.449   1.452   5.969  4.0646 -1.1633  1.0363
  339MOL0     H44707   2.383   1.598   5.892 -2.3018 -2.1334  1.5535
  339MOL0     H44708   2.688   1.524   5.901 -0.2733  0.3682  0.1932
  339MOL0     H44709   2.598   1.663   5.815 -0.6831  0.3836  0.6435
  339MOL0     H44710   2.828   1.588   5.731 -1.1265 -0.8817  1.3794
  339MOL0     H44711   3.002   1.508   5.585  0.0195 -0.9485  1.4128
  339MOL0     H44712   3.353   1.401   5.475  0.6445 -1.2775  0.2837
  339MOL0     H44713   3.537   1.293   5.329  0.7794 -0.4392 -1.8185
  339MOL0     H44714   3.376   1.069   5.020  0.6576 -1.6029  2.2775
  339MOL0     H44715   3.537   1.010   5.013 -0.0605  0.1056  0.5885
  339MOL0     H44716   3.437   1.238   4.831  1.2043  0.3124  0.6813
  339MOL0     H44717   3.430   1.072   4.793  0.7897  1.9656 -4.5330
  339MOL0     H44718   3.705   1.210   4.878  2.1976 -0.4824 -1.9282
  339MOL0     H44719   3.647   1.222   4.713  0.7037  1.4443 -0.5711
  339MOL0     H44720   3.726   0.983   4.880  2.8056  2.1290  0.8214
  339MOL0     H44721   3.640   0.974   4.715  1.4212 -1.2830  0.6363
  339MOL0     H44722   3.891   0.925   4.716  1.6798  0.3726 -3.7696
  339MOL0     H44723   3.930   1.084   4.759  1.0332 -0.9057 -1.9887
  339MOL0     H44724   3.793   1.177   4.567 -2.0291 -0.8168 -1.6160
  339MOL0     H44725   3.757   1.012   4.519 -1.2535  0.1174  3.9763
  339MOL0     H44726   4.038   1.125   4.537 -1.2837  0.6750 -0.4914
  339MOL0     H44727   4.007   0.954   4.494  2.3673  0.8873 -4.5230
  339MOL0     H44728   4.053   1.091   4.302 -0.0151 -1.5945  0.9502
  339MOL0     H44729   3.905   1.184   4.345 -1.1503 -1.5342  1.5861
  339MOL0     H44730   3.300   1.294   4.991  1.7514  0.0872 -0.9155
  339MOL0     H44731   3.112   1.402   5.123 -2.3323 -1.7241  1.2634
  339MOL0     H44732   2.721   1.241   5.393  2.8505 -1.3205 -0.2013
  339MOL0     H44733   2.560   1.294   5.555  2.2695 -3.8851 -2.0484
  339MOL0     H44734   1.599   2.486   6.718 -0.4109  0.8730  0.2863
  339MOL0     H44735   1.449   2.489   6.886  1.1863 -1.2559 -1.0097
  339MOL0     H44736   0.958   2.669   6.917  3.5930 -1.8812 -0.9622
  339MOL0     H44737   0.754   2.696   7.057  0.2289  1.0006 -0.3038
  339MOL0     H44738   0.550   2.442   7.118  1.0457  0.0668  0.1550
  339MOL0     H44739   0.523   2.603   7.105  0.4191 -1.6290 -0.2354
  339MOL0     H44740   0.438   2.628   7.310 -0.2659  0.8470 -3.2322
  339MOL0     H44741   0.356   2.492   7.229  0.2215  0.1146 -1.8375
  339MOL0     H44742   0.372   2.420   7.456 -1.7862  1.4854 -2.7431
  339MOL0     H44743   0.548   2.470   7.460  3.0652 -2.4351 -1.7650
  339MOL0     H44744   0.615   2.279   7.329  0.4911 -1.4037  0.2470
  339MOL0     H44745   0.515   2.231   7.473  2.1396  0.7535  0.0140
  339MOL0     H44746   0.248   2.091   7.207  0.5819 -0.6339  1.6416
  339MOL0     H44747   0.862   2.377   7.296 -2.4213 -0.8109 -0.8827
  339MOL0     H44748   1.080   2.337   7.166 -0.0535 -1.5995 -4.3470
  340MOL0     O44749   2.846  10.120   9.292 -0.2631  1.2590 -0.4257
  340MOL0     C44750   2.892  10.120   9.405 -0.7005 -1.3633  0.1109
  340MOL0     O44751   2.985  10.207   9.450 -0.1835  0.4026 -0.4414
  340MOL0     C44752   3.054  10.302   9.388 -0.2888  0.5884  0.3044
  340MOL0     C44753   3.117  10.389   9.471 -0.4133  1.1948 -0.0869
  340MOL0     C44754   3.197  10.491   9.414 -0.5785  0.0347  0.1414
  340MOL0     C44755   3.219  10.512   9.283  0.2087  0.7436 -0.5862
  340MOL0     O44756   3.289  10.623   9.240 -0.1122 -0.4923  0.7844
  340MOL0     C44757   3.420  10.651   9.291 -0.5197 -0.3854 -0.4159
  340MOL0     C44758   3.505  10.745   9.178 -0.3117 -0.4438  0.0965
  340MOL0     C44759   3.568  10.654   9.067  0.9259  0.2264  0.7770
  340MOL0     C44760   3.713  10.620   9.101 -0.4275 -0.7037  0.1745
  340MOL0     C44761   3.779  10.532   9.001  1.2000  0.2404  0.2181
  340MOL0     C44762   3.932  10.534   9.003  0.1057 -0.0500 -0.6856
  340MOL0     C44763   3.982  10.455   9.127 -0.0842  0.6620  0.3619
  340MOL0     C44764   4.121  10.392   9.104 -0.1055  0.2244 -1.0331
  340MOL0     N44765   4.217  10.497   9.052  0.4487  0.8334 -0.6334
  340MOL0     C44766   4.278  10.596   9.115  0.0261 -0.3502 -0.3412
  340MOL0     C44767   4.368  10.644   9.026 -0.3028  0.0970 -0.2737
  340MOL0     C44768   4.456  10.765   9.051 -0.6737  0.3357 -0.4256
  340MOL0     C44769   4.363  10.887   9.064  0.7876 -1.0398 -0.2817
  340MOL0     C44770   4.414  11.009   8.991  0.1907  0.7050  0.0433
  340MOL0     C44771   4.333  11.137   9.014 -0.2189  0.1154  0.6513
  340MOL0     O44772   4.339  11.194   9.150 -0.8822 -0.3263 -0.1605
  340MOL0     C44773   4.297  11.323   9.169  0.1657  0.0941  0.6853
  340MOL0     C44774   4.340  11.396   9.275 -0.1152  0.7301 -0.4810
  340MOL0     C44775   4.294  11.521   9.306 -0.8451  0.6187 -0.2752
  340MOL0     C44776   4.232  11.597   9.201 -0.4271 -0.2063  0.6998
  340MOL0     C44777   4.194  11.740   9.216 -1.2003 -0.5271 -0.1888
  340MOL0     O44778   4.157  11.805   9.102 -1.0340  0.2011 -0.1264
  340MOL0     C44779   4.097  11.926   9.102 -0.4304  0.3048 -0.2447
  340MOL0     C44780   4.077  11.996   8.977  0.3483  0.3672  0.2725
  340MOL0     C44781   3.993  12.111   8.961  0.8834  0.7544 -0.0346
  340MOL0     C44782   3.935  12.163   9.074 -0.3418  0.2946 -0.2764
  340MOL0     O44783   3.856  12.269   9.065 -0.1784 -0.4046  0.7331
  340MOL0     C44784   3.756  12.291   9.164 -0.3275  0.2255  0.0126
  340MOL0     C44785   3.672  12.405   9.105 -0.2171 -0.2795 -0.0731
  340MOL0     C44786   3.592  12.488   9.214  0.3099  0.1540 -0.1929
  340MOL0     C44787   3.476  12.578   9.158 -0.4248  0.3699 -1.1640
  340MOL0     C44788   3.357  12.496   9.079  0.2987 -0.5775 -0.4218
  340MOL0     C44789   3.231  12.588   9.074 -0.7999 -0.4785 -0.2365
  340MOL0     C44790   3.131  12.525   8.979 -0.8700 -0.3404 -0.1350
  340MOL0     C44791   2.998  12.505   9.053 -0.0975  0.0890 -0.5458
  340MOL0    Cl44792   3.010  12.382   9.198  0.7774 -0.4679  0.1927
  340MOL0     C44793   3.951  12.090   9.196  0.4755 -0.6897  0.2176
  340MOL0     C44794   4.023  11.973   9.214  0.8071 -0.4600  0.9737
  340MOL0     O44795   4.225  11.801   9.319  0.6730  0.0923  0.6327
  340MOL0     C44796   4.195  11.525   9.085 -0.1705 -1.0068  0.6415
  340MOL0     C44797   4.219  11.392   9.074 -0.2000  1.1331 -0.7038
  340MOL0     N44798   4.357  10.588   8.905  0.1305 -0.3556  0.4894
  340MOL0     N44799   4.262  10.504   8.923 -0.9764  0.4995  0.7664
  340MOL0     C44800   3.154  10.422   9.206 -0.1225  0.4582  0.2169
  340MOL0     C44801   3.074  10.316   9.253  0.0961 -0.1458 -0.6204
  340MOL0     C44802   2.833  10.023   9.500 -0.4384  0.6487  0.4766
  340MOL0     C44803   2.884  10.007   9.631  0.6978  0.1543  0.8036
  340MOL0     C44804   2.830   9.915   9.722  0.0496 -0.5914  1.2345
  340MOL0     C44805   2.711   9.845   9.690 -0.2380  0.2893  0.9185
  340MOL0     O44806   2.652   9.767   9.782 -0.2198  0.5212  0.2461
  340MOL0     C44807   2.517   9.699   9.771 -0.8134  0.2155  0.3585
  340MOL0     C44808   2.449   9.663   9.906  0.2379 -0.3314  0.6798
  340MOL0     C44809   2.552   9.622  10.016  0.0100  1.1854 -1.5244
  340MOL0     C44810   2.613   9.483   9.978 -0.2668 -0.8021 -0.0836
  340MOL0     C44811   2.713   9.456  10.076 -0.5841  0.3164  0.5067
  340MOL0     C44812   2.791   9.423  10.168  0.0129 -1.1013  0.3823
  340MOL0     C44813   2.654   9.873   9.562 -0.7765  1.2521 -0.6489
  340MOL0     C44814   2.715   9.943   9.465 -0.5247 -0.3766  0.4372
  340MOL0     H44815   3.127  10.378   9.578  1.4380  2.5319 -0.0851
  340MOL0     H44816   3.251  10.558   9.481  0.2272  1.7761 -2.0899
  340MOL0     H44817   3.487  10.567   9.311 -0.3368 -0.2423 -0.4154
  340MOL0     H44818   3.403  10.719   9.375  0.5229 -0.0864 -0.4296
  340MOL0     H44819   3.576  10.800   9.240 -0.2905 -3.3635  2.9593
  340MOL0     H44820   3.434  10.820   9.142 -0.1512  0.5327  1.7227
  340MOL0     H44821   3.570  10.712   8.974 -1.6684 -2.7149 -1.3196
  340MOL0     H44822   3.504  10.570   9.038  2.3096 -0.7169  0.3664
  340MOL0     H44823   3.766  10.713   9.123  1.3601 -1.8102  0.7552
  340MOL0     H44824   3.712  10.560   9.193 -1.0442 -1.9440 -0.6114
  340MOL0     H44825   3.748  10.571   8.904 -2.2914  1.0701  1.5206
  340MOL0     H44826   3.739  10.430   9.008  2.3412 -0.1190  3.9158
  340MOL0     H44827   3.963  10.638   8.996  2.4796 -0.7963 -2.8821
  340MOL0     H44828   3.978  10.490   8.914  2.6263 -1.8787  1.3484
  340MOL0     H44829   3.971  10.517   9.217 -0.5890  3.5406 -1.5629
  340MOL0     H44830   3.924  10.364   9.146  0.2688  0.5547  0.9863
  340MOL0     H44831   4.115  10.308   9.035  0.0708 -2.2004  1.7326
  340MOL0     H44832   4.155  10.366   9.205 -1.1066  0.7801 -0.5359
  340MOL0     H44833   4.248  10.642   9.209  0.6335 -1.5531  0.4588
  340MOL0     H44834   4.512  10.779   8.958 -1.8533  0.1124 -1.1944
  340MOL0     H44835   4.518  10.759   9.141 -3.2103  0.0265  1.4058
  340MOL0     H44836   4.360  10.902   9.173 -0.2253 -0.9996 -0.3012
  340MOL0     H44837   4.262  10.874   9.023  1.8310 -1.9873 -2.7455
  340MOL0     H44838   4.513  11.027   9.033  0.9331 -3.1823  0.3429
  340MOL0     H44839   4.419  10.983   8.885  0.3798  1.2495 -0.0861
  340MOL0     H44840   4.229  11.110   8.991  0.5902  0.2281 -4.2805
  340MOL0     H44841   4.375  11.215   8.950  2.4106 -2.6707 -1.2520
  340MOL0     H44842   4.407  11.350   9.348 -2.5639 -0.4364  1.1995
  340MOL0     H44843   4.306  11.555   9.409 -3.0540  0.3283  0.1241
  340MOL0     H44844   4.122  11.964   8.884  1.0143  2.8221 -0.3248
  340MOL0     H44845   3.991  12.159   8.864 -0.4333  0.1644 -0.3137
  340MOL0     H44846   3.807  12.343   9.246  2.6849 -1.0019 -0.9330
  340MOL0     H44847   3.704  12.200   9.192 -0.7530 -0.8229 -3.6748
  340MOL0     H44848   3.600  12.343   9.049  0.8200  0.0591 -1.8737
  340MOL0     H44849   3.716  12.463   9.024  0.3672  2.1662  1.8940
  340MOL0     H44850   3.668  12.555   9.257 -0.5442  1.1992 -0.2888
  340MOL0     H44851   3.554  12.423   9.293 -1.7195  1.0353 -0.3889
  340MOL0     H44852   3.434  12.630   9.245 -0.2288  0.7400 -1.2876
  340MOL0     H44853   3.515  12.653   9.089  4.1631 -0.2725  0.4429
  340MOL0     H44854   3.343  12.407   9.142  1.6010  0.0483  0.8091
  340MOL0     H44855   3.402  12.485   8.980  0.4360  0.4882 -0.4842
  340MOL0     H44856   3.265  12.690   9.052  2.3478 -1.9240 -2.7622
  340MOL0     H44857   3.194  12.593   9.177  2.0416  0.7186  0.8406
  340MOL0     H44858   3.119  12.587   8.890 -0.0762  1.6069  1.0462
  340MOL0     H44859   3.162  12.428   8.940 -1.2426 -1.3689  1.9875
  340MOL0     H44860   2.928  12.466   8.979  0.1526  2.0762 -1.9251
  340MOL0     H44861   2.963  12.604   9.085 -1.7431 -0.3295 -0.9843
  340MOL0     H44862   3.902  12.126   9.286  2.7814  0.9472  0.9265
  340MOL0     H44863   4.031  11.930   9.313 -0.3844 -1.6958  0.5686
  340MOL0     H44864   4.142  11.584   9.010  1.7358  1.0356  0.7943
  340MOL0     H44865   4.186  11.333   8.989 -2.2717 -1.6858  1.8732
  340MOL0     H44866   3.184  10.427   9.102  1.5784 -2.8418  0.4330
  340MOL0     H44867   3.023  10.246   9.188  0.9256  0.5025 -2.0141
  340MOL0     H44868   2.970  10.064   9.664  0.5629 -1.1158  3.6172
  340MOL0     H44869   2.873   9.911   9.822 -1.7445  2.3571  2.2668
  340MOL0     H44870   2.535   9.601   9.725  0.0965 -1.8772  4.6350
  340MOL0     H44871   2.445   9.762   9.718 -1.1629 -0.3108  0.2009
  340MOL0     H44872   2.385   9.742   9.945 -1.0999  0.5770 -2.9310
  340MOL0     H44873   2.385   9.575   9.896  0.1657 -0.0060 -3.9679
  340MOL0     H44874   2.507   9.607  10.115  2.0784  0.0441 -0.6857
  340MOL0     H44875   2.630   9.698  10.024  0.9118  0.2463 -1.2198
  340MOL0     H44876   2.529   9.413   9.972 -1.7486  0.7048  1.6457
  340MOL0     H44877   2.667   9.490   9.883  0.1721 -0.9078  0.1541
  340MOL0     H44878   2.869   9.394  10.236  0.7055  2.5934  1.3812
  340MOL0     H44879   2.552   9.845   9.539 -0.5932 -2.6443  2.1479
  340MOL0     H44880   2.670   9.942   9.366 -2.2455  2.3966  1.0781
  341MOL0     O44881   9.596   2.643   3.137 -0.5429  0.9171  0.9481
  341MOL0     C44882   9.563   2.547   3.202  0.6722  0.2550 -0.9326
  341MOL0     O44883   9.486   2.557   3.325 -0.1643 -0.1961  0.4549
  341MOL0     C44884   9.445   2.679   3.370  0.0630  0.0042 -0.0161
  341MOL0     C44885   9.321   2.730   3.341 -0.2361  0.0951 -0.6015
  341MOL0     C44886   9.258   2.837   3.403 -0.7729 -0.6382  0.6818
  341MOL0     C44887   9.329   2.915   3.492  0.5467 -0.4151  0.3445
  341MOL0     O44888   9.280   3.018   3.557  0.0019  0.7284 -0.1227
  341MOL0     C44889   9.181   2.991   3.665 -0.3040  0.6340 -0.2457
  341MOL0     C44890   9.135   3.120   3.737  0.5943  0.6037 -0.7148
  341MOL0     C44891   9.038   3.096   3.846 -0.4773  0.2320  0.3294
  341MOL0     C44892   8.963   3.221   3.888 -0.7375 -0.2063  0.3754
  341MOL0     C44893   8.861   3.180   3.989  0.7791  0.7112 -0.7388
  341MOL0     C44894   8.918   3.122   4.127 -0.8421  0.1807  0.1738
  341MOL0     C44895   8.797   3.101   4.217  0.5603  0.8986 -0.6814
  341MOL0     C44896   8.698   2.989   4.167  0.5690  0.1093  0.8667
  341MOL0     N44897   8.758   2.859   4.142  0.1737 -0.5098 -0.9142
  341MOL0     C44898   8.779   2.755   4.241 -0.0294  0.3330 -0.2328
  341MOL0     C44899   8.796   2.638   4.178  0.6058  0.4301  0.6893
  341MOL0     C44900   8.843   2.513   4.239  0.1709  0.2959  0.5994
  341MOL0     C44901   8.991   2.509   4.231 -1.2226  0.4495 -0.1016
  341MOL0     C44902   9.053   2.392   4.308  0.9058  0.1833 -0.1785
  341MOL0     C44903   8.992   2.380   4.452 -0.4476  0.7835 -1.2957
  341MOL0     O44904   8.890   2.274   4.458  0.2961 -0.3907 -0.2969
  341MOL0     C44905   8.834   2.258   4.580 -0.1501  1.1357 -0.3092
  341MOL0     C44906   8.857   2.340   4.691  0.4835  0.6195  0.2538
  341MOL0     C44907   8.818   2.297   4.822  0.9555 -0.1049 -0.2134
  341MOL0     C44908   8.748   2.176   4.839  0.3782  0.3212  0.1538
  341MOL0     C44909   8.724   2.116   4.973  0.4115  0.2924  0.1821
  341MOL0     O44910   8.637   2.013   4.981  0.5504 -0.0833  0.0675
  341MOL0     C44911   8.621   1.917   5.074 -0.0862 -0.5530  0.4311
  341MOL0     C44912   8.543   1.817   5.020  0.2017  0.3410  0.5343
  341MOL0     C44913   8.526   1.689   5.082  0.0245 -0.4861  0.3014
  341MOL0     C44914   8.584   1.671   5.215 -0.2149 -0.3786  0.4921
  341MOL0     O44915   8.561   1.566   5.295  0.0611 -0.6715  0.2401
  341MOL0     C44916   8.470   1.465   5.257 -0.5548  0.3094  0.7538
  341MOL0     C44917   8.464   1.373   5.381 -0.4905 -0.3461  0.8745
  341MOL0     C44918   8.372   1.257   5.340 -0.8917  0.1423 -0.0911
  341MOL0     C44919   8.385   1.148   5.445 -0.9570 -0.9022 -0.0681
  341MOL0     C44920   8.279   1.159   5.558 -0.3198 -0.8419 -0.6549
  341MOL0     C44921   8.255   1.019   5.615 -0.1392  0.6169  0.1694
  341MOL0     C44922   8.163   1.025   5.738  0.2482 -0.2302  0.8097
  341MOL0     C44923   8.020   0.996   5.701  0.0999 -0.1404 -0.2179
  341MOL0    Cl44924   7.956   1.150   5.615  0.0601  0.2132 -0.1783
  341MOL0     C44925   8.661   1.783   5.269  0.3998 -0.5323 -0.1110
  341MOL0     C44926   8.672   1.902   5.202 -0.5095 -0.2558  0.5395
  341MOL0     O44927   8.774   2.168   5.072  0.7930  1.1270  0.1888
  341MOL0     C44928   8.702   2.115   4.726 -0.3210 -0.0401  0.2781
  341MOL0     C44929   8.759   2.148   4.600 -0.2442  0.2446 -0.1137
  341MOL0     N44930   8.788   2.674   4.045 -0.2299 -0.0259  1.0076
  341MOL0     N44931   8.768   2.800   4.021  0.2647 -0.2805  0.7032
  341MOL0     C44932   9.464   2.872   3.515  0.0144  0.0544  0.6333
  341MOL0     C44933   9.534   2.759   3.445  0.3147  0.4040 -0.4466
  341MOL0     C44934   9.615   2.414   3.178 -0.3805  0.0902  0.2232
  341MOL0     C44935   9.676   2.385   3.064 -0.0993  0.1268 -0.7877
  341MOL0     C44936   9.699   2.257   3.017 -0.7545 -0.8026 -0.5192
  341MOL0     C44937   9.655   2.146   3.085 -0.5683 -1.2300  0.7747
  341MOL0     O44938   9.675   2.020   3.051 -0.2129  0.8367 -0.5036
  341MOL0     C44939   9.814   1.990   3.044  0.1102 -0.4813  1.1399
  341MOL0     C44940   9.858   1.898   2.938 -0.5393 -0.6215  0.6837
  341MOL0     C44941  10.001   1.883   2.913 -0.1966  0.7269  0.4405
  341MOL0     C44942  10.026   1.768   2.803 -0.2907  0.0547  0.6103
  341MOL0     C44943  10.173   1.765   2.774 -0.2281  0.9396 -0.0829
  341MOL0     C44944  10.290   1.773   2.728  0.5765  0.0867  0.2118
  341MOL0     C44945   9.599   2.178   3.211 -0.2063  0.6875  0.5213
  341MOL0     C44946   9.578   2.301   3.254 -0.5387 -0.6860  0.6186
  341MOL0     H44947   9.266   2.680   3.262 -1.7693  2.3416 -1.0429
  341MOL0     H44948   9.160   2.867   3.365  0.1221 -1.3134 -2.4231
  341MOL0     H44949   9.224   2.918   3.735  1.7507  0.2316 -1.8433
  341MOL0     H44950   9.088   2.945   3.629  1.3226 -2.6265 -0.6026
  341MOL0     H44951   9.110   3.195   3.662 -3.2267  1.0149  0.7259
  341MOL0     H44952   9.223   3.159   3.789 -1.4347  0.7081  2.9563
  341MOL0     H44953   9.096   3.050   3.926  1.1940 -0.2365 -1.0882
  341MOL0     H44954   8.965   3.025   3.806 -0.2861  0.3141 -0.1798
  341MOL0     H44955   9.039   3.291   3.927 -0.3050 -2.0888  3.2312
  341MOL0     H44956   8.910   3.267   3.804 -2.1306  0.4648  1.5792
  341MOL0     H44957   8.795   3.105   3.944 -1.2488 -0.6720  3.9597
  341MOL0     H44958   8.801   3.268   4.015 -0.3813  0.8365 -3.4529
  341MOL0     H44959   8.994   3.190   4.164 -0.8020 -0.9018  2.2457
  341MOL0     H44960   8.976   3.032   4.104  2.0015  1.8789  0.2837
  341MOL0     H44961   8.833   3.071   4.316 -1.1737 -0.8146 -0.5071
  341MOL0     H44962   8.746   3.197   4.223 -2.8593 -0.7756 -0.7347
  341MOL0     H44963   8.645   3.028   4.079  0.7810  0.9120  1.0824
  341MOL0     H44964   8.617   2.990   4.241  1.2829  0.1457  1.6629
  341MOL0     H44965   8.792   2.775   4.347  5.4553  1.0515 -0.7488
  341MOL0     H44966   8.809   2.428   4.178  1.1922  2.7193 -3.8020
  341MOL0     H44967   8.804   2.519   4.341 -0.1197 -0.9315  0.5746
  341MOL0     H44968   9.041   2.599   4.268 -0.3638  0.6580 -1.7141
  341MOL0     H44969   9.018   2.506   4.125  0.6223 -0.6191  0.3494
  341MOL0     H44970   9.035   2.296   4.258  2.0131 -1.2666  2.0526
  341MOL0     H44971   9.161   2.400   4.320  1.8943 -5.9416 -1.6189
  341MOL0     H44972   8.948   2.474   4.484 -3.2845 -1.0731  0.6773
  341MOL0     H44973   9.077   2.362   4.520  0.0414 -1.2973 -2.3565
  341MOL0     H44974   8.914   2.430   4.676 -0.0633  1.4365  2.7363
  341MOL0     H44975   8.845   2.352   4.912 -2.1680  2.0370 -0.4667
  341MOL0     H44976   8.486   1.826   4.928 -0.3706 -2.3950  0.5471
  341MOL0     H44977   8.462   1.611   5.044  1.8155 -1.5481 -0.6994
  341MOL0     H44978   8.507   1.410   5.170 -0.7743 -0.1124  0.9259
  341MOL0     H44979   8.370   1.504   5.236  0.1558  3.0540  2.0474
  341MOL0     H44980   8.433   1.422   5.473  0.2450 -1.8075  1.9311
  341MOL0     H44981   8.565   1.335   5.400 -0.4407 -1.1880 -0.8021
  341MOL0     H44982   8.389   1.222   5.238 -1.9097 -0.7051  0.0125
  341MOL0     H44983   8.268   1.291   5.331 -1.4652 -1.5173 -0.1272
  341MOL0     H44984   8.358   1.059   5.387 -0.3092 -2.1398  1.4726
  341MOL0     H44985   8.486   1.145   5.487 -1.0955 -0.7005  0.2863
  341MOL0     H44986   8.184   1.200   5.523 -0.7821  0.4644  1.9101
  341MOL0     H44987   8.311   1.217   5.645 -3.7460  0.3690 -0.0534
  341MOL0     H44988   8.349   0.971   5.644  0.4116  1.2852 -0.4594
  341MOL0     H44989   8.208   0.963   5.533  0.1261  1.8146 -0.8377
  341MOL0     H44990   8.193   0.955   5.817 -2.0112  0.6927  2.6166
  341MOL0     H44991   8.156   1.125   5.781 -1.6708  1.8066 -3.5783
  341MOL0     H44992   7.966   0.983   5.795  2.0371  3.0149  1.4931
  341MOL0     H44993   8.011   0.905   5.640 -0.2454 -0.0363 -0.3250
  341MOL0     H44994   8.708   1.767   5.365  1.4065 -1.5087 -0.7492
  341MOL0     H44995   8.717   1.983   5.256  1.2689 -1.8721  1.5982
  341MOL0     H44996   8.632   2.031   4.723 -0.7569  0.3476 -1.7528
  341MOL0     H44997   8.728   2.074   4.527  3.9781 -0.8974 -1.0210
  341MOL0     H44998   9.506   2.946   3.584  0.7563  0.8765 -0.6607
  341MOL0     H44999   9.641   2.744   3.461  0.5015  0.4156 -1.6127
  341MOL0     H45000   9.709   2.471   3.006  1.2407 -0.2166 -0.5769
  341MOL0     H45001   9.764   2.242   2.931  1.1035 -2.4463  1.0946
  341MOL0     H45002   9.831   1.955   3.147  1.0327 -0.3107  1.0596
  341MOL0     H45003   9.875   2.081   3.036  1.8842 -1.7767 -1.2570
  341MOL0     H45004   9.816   1.799   2.958  0.8812 -1.6719 -1.2334
  341MOL0     H45005   9.804   1.913   2.845 -1.1070 -1.9454  0.7720
  341MOL0     H45006  10.056   1.836   2.996  0.3001 -1.5038 -1.0568
  341MOL0     H45007  10.038   1.980   2.881  4.5297  0.2075  3.3314
  341MOL0     H45008   9.998   1.664   2.823  0.5491 -0.7453 -2.0825
  341MOL0     H45009   9.971   1.800   2.715  0.1385  1.8600  0.9587
  341MOL0     H45010  10.384   1.774   2.677  0.8489  0.7369  0.7092
  341MOL0     H45011   9.552   2.095   3.262 -0.8063  0.2568 -0.6913
  341MOL0     H45012   9.557   2.314   3.360  2.0272 -0.3865  1.1525
  342MOL0     O45013   0.853   4.669   2.150  0.2142  0.4654  0.0682
  342MOL0     C45014   0.820   4.622   2.040  0.6020  0.4513  1.0515
  342MOL0     O45015   0.756   4.696   1.945  0.2600  0.2957  0.2535
  342MOL0     C45016   0.709   4.823   1.989 -0.3037 -0.4484 -0.3249
  342MOL0     C45017   0.639   4.843   2.114  0.1718 -0.7664  0.0022
  342MOL0     C45018   0.578   4.963   2.141  0.3303 -0.8305  0.7924
  342MOL0     C45019   0.567   5.067   2.045 -0.3100 -0.3060  0.4526
  342MOL0     O45020   0.515   5.188   2.070 -0.1538 -1.0663  0.0276
  342MOL0     C45021   0.374   5.184   2.051 -0.2071  0.5588 -0.6245
  342MOL0     C45022   0.326   5.319   2.010  0.3713 -0.2356 -0.1820
  342MOL0     C45023   0.182   5.334   2.029 -0.0725 -1.0546 -1.1831
  342MOL0     C45024   0.092   5.225   1.979 -0.7900  0.0606 -0.3687
  342MOL0     C45025   0.094   5.233   1.833 -0.6345 -0.8270 -0.1961
  342MOL0     C45026   0.062   5.367   1.755  0.1080  0.3418 -1.0135
  342MOL0     C45027   0.020   5.339   1.609 -0.5433  0.5962  0.3705
  342MOL0     C45028   0.129   5.281   1.517  0.2939 -0.9154 -0.0569
  342MOL0     N45029   0.081   5.206   1.404  0.3210  0.1365 -0.4851
  342MOL0     C45030   0.030   5.078   1.403 -0.1867  0.7528  0.2613
  342MOL0     C45031   0.003   5.059   1.274  0.2190  0.3444  0.7520
  342MOL0     C45032  -0.059   4.946   1.201 -0.0439  0.4197  0.1004
  342MOL0     C45033  -0.184   4.887   1.278 -0.3263  0.6823  0.1298
  342MOL0     C45034  -0.300   4.980   1.295  0.3182 -1.2444 -0.8337
  342MOL0     C45035  -0.420   4.955   1.204  0.8032 -0.2451  0.7966
  342MOL0     O45036  -0.384   4.980   1.064  0.0368 -0.0550 -0.0666
  342MOL0     C45037  -0.487   5.025   0.985  0.7699  0.7021  0.0407
  342MOL0     C45038  -0.462   5.121   0.889  0.4264  0.3003  0.1777
  342MOL0     C45039  -0.565   5.172   0.814 -0.1975 -0.4064  0.2817
  342MOL0     C45040  -0.695   5.127   0.832  0.3784  0.7810  0.4994
  342MOL0     C45041  -0.804   5.187   0.753 -0.1889 -0.7897 -0.4041
  342MOL0     O45042  -0.771   5.307   0.690 -0.1813 -0.4368 -0.0179
  342MOL0     C45043  -0.874   5.377   0.628  1.2291  0.5707  0.2701
  342MOL0     C45044  -0.911   5.322   0.505 -1.0085 -0.6445  0.0064
  342MOL0     C45045  -1.011   5.390   0.426 -0.3495 -0.2844  0.3068
  342MOL0     C45046  -1.069   5.505   0.470  0.7162 -0.3626 -0.9712
  342MOL0     O45047  -1.157   5.562   0.386  0.6522 -0.7355  0.2409
  342MOL0     C45048  -1.227   5.682   0.421 -0.0848 -0.7168 -0.8427
  342MOL0     C45049  -1.319   5.735   0.319 -0.6936 -0.5872  0.4967
  342MOL0     C45050  -1.238   5.795   0.201 -0.5353 -0.2136 -0.7156
  342MOL0     C45051  -1.165   5.932   0.218 -0.4485 -0.4021  0.0899
  342MOL0     C45052  -1.184   6.009   0.085 -0.7539 -0.5697  0.0493
  342MOL0     C45053  -1.112   5.943  -0.035  0.0785 -0.2262 -0.7831
  342MOL0     C45054  -1.152   6.009  -0.170 -0.6053 -1.0086 -0.3461
  342MOL0     C45055  -1.104   6.152  -0.184  0.1202 -0.9754 -0.7069
  342MOL0    Cl45056  -1.169   6.229  -0.321  0.0073  0.1294  0.1429
  342MOL0     C45057  -1.041   5.547   0.603  1.3253 -1.0490  0.3868
  342MOL0     C45058  -0.943   5.488   0.675 -0.6100 -0.4482  0.6084
  342MOL0     O45059  -0.912   5.147   0.772 -0.0071  0.0552 -0.4515
  342MOL0     C45060  -0.731   5.032   0.939 -0.3228 -1.6835 -0.3482
  342MOL0     C45061  -0.622   4.975   0.998 -0.1101  0.3655  0.4310
  342MOL0     N45062   0.033   5.178   1.199  0.2491  0.1426 -0.4524
  342MOL0     N45063   0.066   5.266   1.286 -0.6214  0.0306 -0.1548
  342MOL0     C45064   0.646   5.050   1.926  0.0276 -0.9242 -1.1902
  342MOL0     C45065   0.716   4.940   1.897 -0.1542  0.6867 -0.2275
  342MOL0     C45066   0.881   4.499   1.993  0.1650  0.5544 -0.2654
  342MOL0     C45067   0.898   4.391   2.080  0.4565 -0.4943  0.0936
  342MOL0     C45068   0.968   4.274   2.039  0.0384 -0.4681 -0.6544
  342MOL0     C45069   1.026   4.269   1.911 -0.6104  0.2116 -0.0657
  342MOL0     O45070   1.089   4.156   1.879  0.2515 -0.8869  0.4832
  342MOL0     C45071   1.157   4.146   1.763  0.3697 -0.2888 -1.0289
  342MOL0     C45072   1.212   4.009   1.749 -0.1033 -0.4671  0.4769
  342MOL0     C45073   1.373   4.003   1.769 -0.0781 -0.8493  0.1022
  342MOL0     C45074   1.413   3.854   1.745  0.1800 -0.4012 -0.2182
  342MOL0     C45075   1.545   3.840   1.809  0.1633 -0.2315  0.7280
  342MOL0     C45076   1.651   3.843   1.872  0.4275  0.5533 -1.2810
  342MOL0     C45077   1.005   4.380   1.826  0.2940  0.7262  0.9217
  342MOL0     C45078   0.936   4.493   1.870  0.8244 -0.1542 -0.3167
  342MOL0     H45079   0.632   4.767   2.191 -1.7540  3.0023  3.9344
  342MOL0     H45080   0.523   4.968   2.235 -2.0471  0.9219 -0.5863
  342MOL0     H45081   0.331   5.143   2.143  2.8089  0.4209  0.8333
  342MOL0     H45082   0.354   5.113   1.970 -1.5466  2.2808 -1.8729
  342MOL0     H45083   0.352   5.335   1.905  2.0686 -2.4462 -0.1764
  342MOL0     H45084   0.381   5.377   2.085  0.0283 -2.7152  2.1566
  342MOL0     H45085   0.154   5.435   1.998  0.2795 -0.3644  0.6065
  342MOL0     H45086   0.157   5.322   2.135 -1.1211 -0.8614 -1.3937
  342MOL0     H45087   0.131   5.126   2.004 -1.0705  0.2916  1.0802
  342MOL0     H45088  -0.009   5.245   2.017 -0.8188  0.2002 -0.5208
  342MOL0     H45089   0.015   5.160   1.815 -2.6828  0.6796  2.1400
  342MOL0     H45090   0.185   5.191   1.789 -0.8317 -0.7382 -0.6876
  342MOL0     H45091   0.142   5.442   1.760 -1.3471  1.9826  4.8126
  342MOL0     H45092  -0.019   5.418   1.807 -0.4150 -0.3951 -1.0892
  342MOL0     H45093  -0.073   5.283   1.597 -0.7970  1.3271 -1.3300
  342MOL0     H45094  -0.008   5.435   1.566  1.7644  0.0610 -2.7620
  342MOL0     H45095   0.206   5.224   1.571  0.7456 -2.0403 -1.8094
  342MOL0     H45096   0.173   5.371   1.474 -0.5728  0.8744  2.5538
  342MOL0     H45097   0.020   5.003   1.481 -5.3225 -0.0548 -0.8680
  342MOL0     H45098   0.030   4.883   1.209 -0.0393  0.5634  1.3842
  342MOL0     H45099  -0.076   4.973   1.097  0.2432  1.6545  0.3557
  342MOL0     H45100  -0.150   4.864   1.379 -0.6027  2.3141  0.6310
  342MOL0     H45101  -0.217   4.796   1.227 -0.8314 -0.2212  2.0110
  342MOL0     H45102  -0.325   4.981   1.401 -1.3743  4.0143 -0.9913
  342MOL0     H45103  -0.257   5.080   1.284  1.1096 -1.5067 -0.1994
  342MOL0     H45104  -0.500   5.025   1.229  1.4091  0.3223  1.1656
  342MOL0     H45105  -0.456   4.853   1.223 -0.1299  0.1128  0.9937
  342MOL0     H45106  -0.361   5.160   0.874 -0.5599  2.5570 -1.0111
  342MOL0     H45107  -0.541   5.240   0.734 -0.6870 -1.3774 -0.7280
  342MOL0     H45108  -0.860   5.233   0.471  0.8558  0.0526  0.8109
  342MOL0     H45109  -1.038   5.356   0.327  3.1829 -0.8435 -0.6309
  342MOL0     H45110  -1.163   5.758   0.465 -2.3294  0.5441  0.4374
  342MOL0     H45111  -1.296   5.656   0.502 -0.2153  2.4326  0.1959
  342MOL0     H45112  -1.384   5.813   0.359  0.6187  1.9130 -1.8268
  342MOL0     H45113  -1.382   5.656   0.277 -0.8093 -0.1165 -0.2378
  342MOL0     H45114  -1.308   5.806   0.117 -0.6725  2.4736 -0.3455
  342MOL0     H45115  -1.157   5.729   0.169 -1.7450 -1.1087 -2.0594
  342MOL0     H45116  -1.197   5.997   0.300  2.7651  0.7541  0.5884
  342MOL0     H45117  -1.059   5.927   0.243 -0.4789  2.6193  1.2797
  342MOL0     H45118  -1.134   6.106   0.100  0.1897 -1.4773  3.7208
  342MOL0     H45119  -1.290   6.016   0.061 -1.0421 -2.4034  0.6431
  342MOL0     H45120  -1.128   5.835  -0.047  0.9097 -0.1802 -2.6181
  342MOL0     H45121  -1.004   5.952  -0.026  0.1815 -0.1268 -1.9600
  342MOL0     H45122  -1.129   5.946  -0.257 -3.7014 -1.5028 -0.9293
  342MOL0     H45123  -1.261   6.016  -0.180 -0.7982 -2.4915  0.3807
  342MOL0     H45124  -0.995   6.152  -0.193  0.2654  2.9761 -0.3463
  342MOL0     H45125  -1.138   6.220  -0.105 -1.0814 -1.2994 -0.9209
  342MOL0     H45126  -1.096   5.626   0.654 -0.1007 -0.3944 -2.0160
  342MOL0     H45127  -0.922   5.524   0.775 -2.6735 -1.2451  1.4001
  342MOL0     H45128  -0.836   5.013   0.959 -0.3321 -0.2858  1.1572
  342MOL0     H45129  -0.651   4.894   1.063  3.6116 -2.3746 -1.0197
  342MOL0     H45130   0.653   5.128   1.850 -0.5953 -0.1375 -0.4553
  342MOL0     H45131   0.768   4.920   1.804 -0.7481  0.1839 -0.4564
  342MOL0     H45132   0.848   4.388   2.176  0.2002  2.2703  0.1043
  342MOL0     H45133   0.958   4.189   2.106  1.0469  0.4051  0.6716
  342MOL0     H45134   1.245   4.211   1.766  1.7304 -2.0998  0.5034
  342MOL0     H45135   1.100   4.167   1.672  0.4841 -2.1778 -1.5726
  342MOL0     H45136   1.165   3.933   1.814  1.9047 -3.0552 -0.9100
  342MOL0     H45137   1.185   3.970   1.650  0.5801 -1.3605  0.6359
  342MOL0     H45138   1.401   4.039   1.868 -1.9179 -2.6492  1.3618
  342MOL0     H45139   1.424   4.061   1.692 -1.0366 -0.4139 -0.2146
  342MOL0     H45140   1.349   3.776   1.786 -0.4459 -0.5948 -1.4978
  342MOL0     H45141   1.432   3.836   1.639  0.4016 -0.5401 -0.1554
  342MOL0     H45142   1.747   3.841   1.920  0.4922  1.7593 -1.3179
  342MOL0     H45143   1.058   4.380   1.731 -0.7606 -1.1491  0.2689
  342MOL0     H45144   0.919   4.575   1.801 -0.7528  0.0814  0.3142
  343MOL0     O45145   4.273   6.304   8.947  0.1102  0.2487  0.1606
  343MOL0     C45146   4.390   6.284   8.967 -0.5226 -0.4654  0.1305
  343MOL0     O45147   4.451   6.253   9.085 -0.2218 -0.1964  1.0795
  343MOL0     C45148   4.380   6.266   9.201 -1.0288  0.8305  0.2629
  343MOL0     C45149   4.411   6.178   9.311 -0.0408 -0.3137  0.6192
  343MOL0     C45150   4.357   6.197   9.434 -0.4750 -0.3024 -1.0536
  343MOL0     C45151   4.283   6.305   9.466 -0.4466 -0.6676  0.0670
  343MOL0     O45152   4.257   6.325   9.600  0.0518  0.6034 -0.4703
  343MOL0     C45153   4.191   6.448   9.635  0.4094  0.9508 -0.2699
  343MOL0     C45154   4.148   6.466   9.788  0.3118  0.6525  0.1475
  343MOL0     C45155   4.120   6.335   9.853  0.2961  0.3638  0.1493
  343MOL0     C45156   4.055   6.361   9.993  0.4361 -0.2607 -0.0218
  343MOL0     C45157   4.022   6.223  10.057  0.0615  0.2479 -0.5058
  343MOL0     C45158   3.890   6.162   9.995 -0.2749 -0.0304  0.2687
  343MOL0     C45159   3.856   6.032  10.066 -0.4731  0.0846 -0.6938
  343MOL0     C45160   3.935   5.912  10.007 -0.7928 -0.0689  0.5450
  343MOL0     N45161   3.903   5.879   9.876  0.4511 -0.0263  0.3028
  343MOL0     C45162   3.978   5.911   9.767  0.0995  0.7483 -0.9770
  343MOL0     C45163   3.941   5.829   9.662 -0.2682  0.6253 -0.4577
  343MOL0     C45164   3.983   5.826   9.515 -0.2903  1.0863 -0.2398
  343MOL0     C45165   3.943   5.945   9.434  0.8758  1.3691  0.1514
  343MOL0     C45166   4.010   6.082   9.455 -1.3277  0.6874  0.8431
  343MOL0     C45167   3.930   6.193   9.403  0.6584  0.0026  1.0157
  343MOL0     O45168   3.945   6.205   9.260  0.2809  1.2087  0.1193
  343MOL0     C45169   3.918   6.327   9.200 -0.8371 -0.3033 -1.0481
  343MOL0     C45170   3.868   6.446   9.261 -0.7684 -0.9412 -0.4105
  343MOL0     C45171   3.862   6.572   9.194 -0.0008 -1.4785 -0.5850
  343MOL0     C45172   3.903   6.572   9.057  0.1919 -0.3390  0.1250
  343MOL0     C45173   3.903   6.698   8.970 -0.3990  0.3680  0.7402
  343MOL0     O45174   3.875   6.814   9.034  0.0250  0.5624 -0.2232
  343MOL0     C45175   3.892   6.932   8.961  0.5788 -0.0920 -0.5211
  343MOL0     C45176   3.785   7.016   8.929  0.1005 -0.3965  0.4556
  343MOL0     C45177   3.800   7.128   8.843 -0.1569 -1.0536  0.4565
  343MOL0     C45178   3.931   7.167   8.801  0.4558  0.3654  0.0341
  343MOL0     O45179   3.963   7.281   8.723  0.5579 -0.5328  0.6878
  343MOL0     C45180   3.854   7.385   8.731 -0.7744  0.2984 -0.6280
  343MOL0     C45181   3.909   7.510   8.674  0.4463 -0.4031  1.3085
  343MOL0     C45182   3.805   7.625   8.697 -0.8899  0.1555  0.0001
  343MOL0     C45183   3.866   7.768   8.716 -1.1134 -0.4744  0.6100
  343MOL0     C45184   3.787   7.891   8.648 -0.5588  0.5697  0.1877
  343MOL0     C45185   3.658   7.925   8.727  0.1958  0.2401 -0.5561
  343MOL0     C45186   3.545   7.825   8.698 -0.8272  0.4941 -0.0051
  343MOL0     C45187   3.410   7.848   8.750  0.5508 -0.6146  0.0454
  343MOL0    Cl45188   3.294   7.725   8.665  0.0312 -0.0517 -0.3099
  343MOL0     C45189   4.037   7.079   8.850 -1.2016 -0.0845  0.2379
  343MOL0     C45190   4.016   6.968   8.928 -0.3178 -0.7240  0.6133
  343MOL0     O45191   3.939   6.689   8.857  0.0179 -0.4574 -0.1592
  343MOL0     C45192   3.950   6.449   9.001 -0.4123 -0.1071  0.6122
  343MOL0     C45193   3.963   6.331   9.071 -0.1320 -0.7662  0.2382
  343MOL0     N45194   3.836   5.758   9.714 -0.2725  0.3339 -0.2524
  343MOL0     N45195   3.810   5.788   9.837  1.2805 -0.0097  0.5010
  343MOL0     C45196   4.254   6.399   9.360  0.8084  0.1396  0.2096
  343MOL0     C45197   4.298   6.376   9.229 -0.6945  0.2338  0.0152
  343MOL0     C45198   4.483   6.287   8.852  0.7539  0.5578 -0.0069
  343MOL0     C45199   4.615   6.231   8.853  0.8738  0.1398  0.2331
  343MOL0     C45200   4.691   6.242   8.737  0.4971  0.1130  0.5377
  343MOL0     C45201   4.648   6.306   8.620 -0.7404 -1.0525 -0.6103
  343MOL0     O45202   4.721   6.313   8.507  0.4859 -0.6032  0.8737
  343MOL0     C45203   4.825   6.408   8.514  0.5513  1.0191 -0.1978
  343MOL0     C45204   4.890   6.446   8.377  0.4531  0.0295 -0.4760
  343MOL0     C45205   4.782   6.501   8.283  0.6211  0.2870 -0.2218
  343MOL0     C45206   4.847   6.510   8.141 -0.7820  0.1062 -0.1695
  343MOL0     C45207   4.785   6.621   8.072 -0.7374  0.3612 -0.3171
  343MOL0     C45208   4.748   6.712   8.012  0.3196 -0.2791 -0.1662
  343MOL0     C45209   4.520   6.354   8.620  0.8024 -0.1712  0.2608
  343MOL0     C45210   4.444   6.341   8.731 -0.3216 -0.2819 -0.3736
  343MOL0     H45211   4.460   6.082   9.297  2.1252  0.7231  0.5844
  343MOL0     H45212   4.408   6.136   9.508  0.6106 -0.5845 -2.0086
  343MOL0     H45213   4.094   6.455   9.583 -0.5769  1.7297  1.5730
  343MOL0     H45214   4.261   6.525   9.603  0.8977  1.3277  1.6160
  343MOL0     H45215   4.054   6.522   9.787 -0.8993 -1.2980  0.6588
  343MOL0     H45216   4.222   6.523   9.844 -1.2168  1.5437  1.3359
  343MOL0     H45217   4.217   6.286   9.847  0.8943  1.4968  0.2789
  343MOL0     H45218   4.051   6.274   9.794  1.1393 -1.7072  1.2220
  343MOL0     H45219   4.138   6.395  10.055  1.4858 -1.8879 -0.4725
  343MOL0     H45220   3.973   6.433   9.997 -0.6139 -1.3479 -1.0597
  343MOL0     H45221   4.002   6.239  10.164  1.1436 -0.7814 -0.1303
  343MOL0     H45222   4.098   6.145  10.046  0.5400  0.1302  2.5629
  343MOL0     H45223   3.905   6.144   9.888 -0.3428 -3.1028  0.6870
  343MOL0     H45224   3.810   6.236   9.998  0.7748  1.2560 -1.4620
  343MOL0     H45225   3.887   6.031  10.171  0.8079 -1.3355 -1.0389
  343MOL0     H45226   3.749   6.018  10.049 -0.3486 -0.9336 -0.7178
  343MOL0     H45227   3.927   5.821  10.067 -2.8286 -0.7068 -0.5911
  343MOL0     H45228   4.042   5.938  10.007 -0.3672 -1.3930  3.7041
  343MOL0     H45229   4.071   5.966   9.777  0.2911  0.1314  1.2841
  343MOL0     H45230   3.916   5.747   9.479 -0.6076  0.8681  0.7860
  343MOL0     H45231   4.089   5.802   9.504  1.1893  4.0986  4.5079
  343MOL0     H45232   3.838   5.960   9.463  1.4055  0.8968  2.5758
  343MOL0     H45233   3.947   5.909   9.331 -1.4177 -2.6328  1.2421
  343MOL0     H45234   4.034   6.095   9.561 -2.5487 -1.2174  1.4146
  343MOL0     H45235   4.106   6.079   9.403 -1.2982 -1.7023  0.9224
  343MOL0     H45236   3.959   6.282   9.460  1.1292  0.1232  0.5931
  343MOL0     H45237   3.823   6.181   9.423 -0.0614 -1.3685 -2.7798
  343MOL0     H45238   3.835   6.440   9.364 -1.0554 -0.9273 -0.5007
  343MOL0     H45239   3.820   6.658   9.245 -1.9469 -2.0226 -1.2022
  343MOL0     H45240   3.683   6.995   8.957 -0.6392 -0.2463 -1.9112
  343MOL0     H45241   3.713   7.183   8.809 -0.0460  0.3357  2.2619
  343MOL0     H45242   3.838   7.399   8.838 -1.1633  0.0772 -0.6524
  343MOL0     H45243   3.768   7.345   8.675  0.2969 -1.8351 -0.8570
  343MOL0     H45244   3.910   7.502   8.565 -5.4034  3.5838  0.4816
  343MOL0     H45245   4.003   7.538   8.723  0.4339  2.9057 -0.3161
  343MOL0     H45246   3.740   7.598   8.780  1.4061 -1.7301  1.3363
  343MOL0     H45247   3.754   7.620   8.600  1.5628 -1.0279 -1.3573
  343MOL0     H45248   3.869   7.796   8.822 -1.8105  0.2516  0.4505
  343MOL0     H45249   3.971   7.763   8.685 -0.7765 -1.5194  1.8534
  343MOL0     H45250   3.756   7.878   8.544  1.0898  1.6489 -0.4802
  343MOL0     H45251   3.849   7.981   8.635  0.6831 -0.1780  0.7096
  343MOL0     H45252   3.622   8.026   8.707 -1.0676  0.7201  3.3286
  343MOL0     H45253   3.686   7.928   8.832  2.1060  1.8489 -1.0653
  343MOL0     H45254   3.521   7.818   8.592 -4.3698 -1.1604  0.7450
  343MOL0     H45255   3.565   7.724   8.736  1.8898  0.5890 -0.9513
  343MOL0     H45256   3.391   7.951   8.717  1.1692 -0.7618 -0.8069
  343MOL0     H45257   3.413   7.830   8.857 -2.5553 -0.5288  0.2408
  343MOL0     H45258   4.135   7.100   8.810 -0.4279 -0.4769  1.8205
  343MOL0     H45259   4.092   6.907   8.976  0.2548 -1.8370 -1.5901
  343MOL0     H45260   3.994   6.456   8.902  0.1127 -1.9326  0.6872
  343MOL0     H45261   4.015   6.253   9.016  0.8831  0.8681 -1.2618
  343MOL0     H45262   4.214   6.498   9.377 -0.3660 -0.5475  1.6324
  343MOL0     H45263   4.269   6.454   9.160 -1.9069  3.9562  4.2788
  343MOL0     H45264   4.651   6.186   8.945 -0.2091 -1.2579 -0.0019
  343MOL0     H45265   4.788   6.193   8.724  0.4824  0.0902  0.5142
  343MOL0     H45266   4.900   6.362   8.578 -0.8982  3.2944  3.4639
  343MOL0     H45267   4.784   6.501   8.555  2.0498  1.4874  0.2836
  343MOL0     H45268   4.972   6.516   8.394 -1.0163  0.9379  4.2750
  343MOL0     H45269   4.941   6.357   8.340 -1.5356 -0.4327 -2.2963
  343MOL0     H45270   4.733   6.588   8.327 -1.1180 -1.3785  1.2794
  343MOL0     H45271   4.709   6.419   8.289 -0.0884  0.8011 -1.3670
  343MOL0     H45272   4.954   6.529   8.150 -0.7060  0.2957 -1.3911
  343MOL0     H45273   4.823   6.412   8.098 -1.6007 -0.1779  0.8856
  343MOL0     H45274   4.707   6.801   7.970  0.9960  1.5952  2.8128
  343MOL0     H45275   4.487   6.404   8.530  2.2814  0.1829 -0.1179
  343MOL0     H45276   4.338   6.361   8.724 -0.4122 -1.1656 -1.8493
  344MOL0     O45277  11.340  10.101   9.502  0.9083 -0.8254  0.4439
  344MOL0     C45278  11.294   9.990   9.505 -0.1126 -0.4468 -0.3395
  344MOL0     O45279  11.159   9.956   9.478  0.0335 -0.3919 -0.9540
  344MOL0     C45280  11.080  10.060   9.483 -0.3944 -0.3008  0.2530
  344MOL0     C45281  11.068  10.153   9.374  0.4622  0.4849 -0.0563
  344MOL0     C45282  11.013  10.275   9.400 -0.6295  0.2118  0.6751
  344MOL0     C45283  10.938  10.305   9.514  0.0862 -0.9680 -0.4054
  344MOL0     O45284  10.870  10.430   9.520  0.8562  0.5167  0.4773
  344MOL0     C45285  10.826  10.475   9.643  0.7218  1.3753  0.2355
  344MOL0     C45286  10.798  10.627   9.630  0.0925  0.7590  0.4851
  344MOL0     C45287  10.813  10.714   9.761 -0.4441  0.4951 -0.4463
  344MOL0     C45288  10.751  10.647   9.884  0.0945 -0.4940  0.0423
  344MOL0     C45289  10.745  10.739  10.005 -0.2823  0.1333  0.0857
  344MOL0     C45290  10.684  10.664  10.124 -0.1928 -0.7343 -0.3102
  344MOL0     C45291  10.720  10.743  10.252  0.1283  1.3461 -0.9581
  344MOL0     C45292  10.684  10.885  10.264 -1.1465  0.1797  0.1590
  344MOL0     N45293  10.537  10.899  10.278  0.8163  0.4887  0.5870
  344MOL0     C45294  10.438  10.853  10.195  0.1725 -0.4600 -1.3956
  344MOL0     C45295  10.325  10.860  10.271 -0.5352 -0.3563 -0.0939
  344MOL0     C45296  10.194  10.811  10.226 -0.1326  0.8101  0.4026
  344MOL0     C45297  10.200  10.661  10.247 -0.5664 -0.0351 -0.3531
  344MOL0     C45298  10.203  10.617  10.395 -0.3613 -0.0410  0.0936
  344MOL0     C45299  10.090  10.665  10.477  0.7908 -0.5602 -0.4064
  344MOL0     O45300  10.063  10.587  10.600  1.3184  0.0375  0.2342
  344MOL0     C45301   9.945  10.591  10.671  0.3401 -0.8233  0.0647
  344MOL0     C45302   9.839  10.677  10.638  0.5349 -1.3416 -0.3574
  344MOL0     C45303   9.711  10.679  10.705 -0.3129  0.0065  0.5579
  344MOL0     C45304   9.695  10.593  10.812 -0.7349  0.1534  0.2468
  344MOL0     C45305   9.571  10.580  10.887  0.0786 -0.1010 -0.8519
  344MOL0     O45306   9.576  10.511  11.005 -0.0623 -0.4431 -0.6784
  344MOL0     C45307   9.487  10.512  11.113 -0.3539  0.0730  1.1291
  344MOL0     C45308   9.536  10.450  11.234  0.0683 -0.2159 -0.0279
  344MOL0     C45309   9.451  10.433  11.347  0.4982  0.1770  0.1066
  344MOL0     C45310   9.311  10.468  11.341 -0.6623 -0.0036  0.3760
  344MOL0     O45311   9.242  10.436  11.449  0.9171 -0.7919 -0.4614
  344MOL0     C45312   9.118  10.511  11.477 -0.2003  0.0699 -0.8456
  344MOL0     C45313   9.009  10.433  11.541 -0.0712 -0.1983  0.4637
  344MOL0     C45314   8.875  10.514  11.554  0.6685 -0.1144 -0.0323
  344MOL0     C45315   8.781  10.472  11.677  0.1916  0.1774  0.7695
  344MOL0     C45316   8.673  10.572  11.708 -0.4143 -0.2677  0.1535
  344MOL0     C45317   8.586  10.531  11.826  0.0819  0.4775 -1.0471
  344MOL0     C45318   8.466  10.624  11.836  0.0774  0.2708 -0.2154
  344MOL0     C45319   8.343  10.571  11.908  0.1577 -0.8486  0.2308
  344MOL0    Cl45320   8.389  10.490  12.059  0.4670  0.2984  0.0418
  344MOL0     C45321   9.258  10.522  11.220 -0.0051 -0.0418  0.5024
  344MOL0     C45322   9.341  10.531  11.116  0.4018 -0.1662  1.1034
  344MOL0     O45323   9.475  10.642  10.845 -0.0179 -0.4256 -0.3226
  344MOL0     C45324   9.802  10.506  10.847 -0.3083 -0.5993 -0.0460
  344MOL0     C45325   9.923  10.509  10.781  0.8552  0.3867  0.2175
  344MOL0     N45326  10.347  10.926  10.395 -0.0776 -0.5620  0.5456
  344MOL0     N45327  10.478  10.951  10.391  0.2670  0.8531 -1.0510
  344MOL0     C45328  10.938  10.210   9.621 -0.0148 -1.2483  0.2806
  344MOL0     C45329  11.004  10.088   9.603 -0.2115 -0.5205  0.0606
  344MOL0     C45330  11.389   9.877   9.515  0.5507  0.6362 -0.7409
  344MOL0     C45331  11.338   9.745   9.533  0.1823  0.4552  0.6463
  344MOL0     C45332  11.431   9.645   9.562  0.1317  0.2254 -0.3361
  344MOL0     C45333  11.568   9.661   9.577 -0.0885 -0.9464  0.7824
  344MOL0     O45334  11.669   9.570   9.603  0.5794 -0.6728 -0.1445
  344MOL0     C45335  11.634   9.441   9.627 -0.1752 -0.5537  0.2231
  344MOL0     C45336  11.558   9.394   9.750  0.9328 -0.5377 -0.2820
  344MOL0     C45337  11.648   9.393   9.881  0.2912 -0.0476  0.8401
  344MOL0     C45338  11.568   9.334   9.993 -0.5908  0.9421  0.4808
  344MOL0     C45339  11.662   9.317  10.104 -0.4349 -0.6158 -0.3995
  344MOL0     C45340  11.724   9.305  10.206 -0.3808 -0.3705  0.4529
  344MOL0     C45341  11.611   9.791   9.557 -0.1625  0.0358 -0.8128
  344MOL0     C45342  11.525   9.898   9.532 -1.0960  0.3744  0.5412
  344MOL0     H45343  11.111  10.136   9.276  3.0010  1.1349  0.8487
  344MOL0     H45344  11.004  10.354   9.325  1.2494  0.7352  0.9521
  344MOL0     H45345  10.909  10.461   9.713  0.6811 -6.1714 -0.4391
  344MOL0     H45346  10.740  10.421   9.684  1.0393  0.8453  0.2112
  344MOL0     H45347  10.694  10.630   9.598  0.4411 -1.1802 -1.0911
  344MOL0     H45348  10.850  10.685   9.553 -2.4530  4.4235  1.2706
  344MOL0     H45349  10.774  10.814   9.738 -0.6468 -0.2296 -3.7508
  344MOL0     H45350  10.920  10.721   9.784 -0.1489 -2.1080 -0.7677
  344MOL0     H45351  10.647  10.629   9.854 -0.3583 -0.7984  1.6878
  344MOL0     H45352  10.797  10.551   9.908 -0.3532 -0.2310  2.2057
  344MOL0     H45353  10.688  10.829   9.979  1.2319  0.2190 -3.5574
  344MOL0     H45354  10.847  10.773  10.026  1.0889 -1.8668 -2.6846
  344MOL0     H45355  10.728  10.564  10.117 -0.9221 -0.9624 -5.6212
  344MOL0     H45356  10.576  10.649  10.111 -0.6831 -1.3726  3.3706
  344MOL0     H45357  10.673  10.683  10.330  0.3524 -1.1222 -2.6112
  344MOL0     H45358  10.825  10.727  10.276 -0.9447 -4.0324  1.5057
  344MOL0     H45359  10.714  10.936  10.172 -3.3344  1.8506  0.2898
  344MOL0     H45360  10.743  10.930  10.343  0.5912  2.3858 -2.2131
  344MOL0     H45361  10.440  10.831  10.088 -0.4978 -0.6552 -1.3697
  344MOL0     H45362  10.178  10.832  10.120 -1.1196 -0.0910  0.3520
  344MOL0     H45363  10.106  10.848  10.281  0.6954  1.4960  1.3001
  344MOL0     H45364  10.287  10.631  10.188 -0.6819  3.5536 -2.6008
  344MOL0     H45365  10.104  10.624  10.210 -2.8727  1.7883  3.2201
  344MOL0     H45366  10.216  10.508  10.398  0.8171  0.0791  0.0437
  344MOL0     H45367  10.294  10.654  10.442 -0.4382 -0.0746  0.2653
  344MOL0     H45368  10.005  10.659  10.409  1.1857  1.4184 -1.1496
  344MOL0     H45369  10.105  10.768  10.509 -1.0034 -0.2983 -0.2959
  344MOL0     H45370   9.856  10.739  10.550  1.5967 -0.5036  0.4108
  344MOL0     H45371   9.635  10.745  10.664 -1.4090  0.2145  2.7516
  344MOL0     H45372   9.638  10.413  11.228 -0.2989 -1.4173  0.7659
  344MOL0     H45373   9.483  10.391  11.441  0.3441  2.3674  1.2023
  344MOL0     H45374   9.081  10.553  11.383  0.8904  3.2272  0.0127
  344MOL0     H45375   9.138  10.592  11.548 -0.6273 -0.7551  0.2494
  344MOL0     H45376   9.048  10.411  11.641  0.1182  0.9861  0.6681
  344MOL0     H45377   8.994  10.337  11.491 -1.8998  0.9011 -1.2644
  344MOL0     H45378   8.810  10.500  11.467  0.9708 -0.2504 -0.2360
  344MOL0     H45379   8.906  10.619  11.545  2.7233 -0.6406  0.4351
  344MOL0     H45380   8.737  10.375  11.651 -0.1211  0.3971  0.4782
  344MOL0     H45381   8.845  10.463  11.766  0.1948  0.3323  0.7821
  344MOL0     H45382   8.603  10.581  11.624 -0.2071  0.6807  0.0741
  344MOL0     H45383   8.699  10.675  11.734 -2.9366 -0.0652  2.2679
  344MOL0     H45384   8.649  10.525  11.915  2.7653  0.8898 -2.7917
  344MOL0     H45385   8.536  10.434  11.814  2.1708 -0.6170 -1.3403
  344MOL0     H45386   8.498  10.720  11.879  0.0092  0.2510 -0.1180
  344MOL0     H45387   8.429  10.645  11.735 -0.6489  2.3464  0.4261
  344MOL0     H45388   8.302  10.494  11.843  0.3460  0.1960 -1.1619
  344MOL0     H45389   8.257  10.639  11.917 -0.2448 -1.4509  1.1273
  344MOL0     H45390   9.154  10.544  11.203  0.6400  1.7388 -1.7152
  344MOL0     H45391   9.317  10.555  11.013 -1.7001 -1.8759  1.1517
  344MOL0     H45392   9.788  10.427  10.921  1.8237 -2.7181 -1.7504
  344MOL0     H45393  10.002  10.445  10.820  0.0734  0.0402  1.2757
  344MOL0     H45394  10.879  10.227   9.711  0.8609  0.1776  0.6356
  344MOL0     H45395  10.996  10.013   9.681 -1.9571 -0.1018  0.3265
  344MOL0     H45396  11.234   9.717   9.520 -0.3632  1.1424  3.0543
  344MOL0     H45397  11.389   9.548   9.586  3.2995 -0.5662  2.8437
  344MOL0     H45398  11.726   9.382   9.625  2.2371  2.9594  0.1571
  344MOL0     H45399  11.557   9.416   9.552  0.6731  1.8269 -1.5548
  344MOL0     H45400  11.488   9.478   9.760  2.1174  0.1984  3.0745
  344MOL0     H45401  11.501   9.301   9.753  0.7431 -0.3873  1.9051
  344MOL0     H45402  11.680   9.496   9.895  0.9289 -0.2562  0.9487
  344MOL0     H45403  11.738   9.334   9.864 -0.6647 -1.8140  1.5409
  344MOL0     H45404  11.483   9.394  10.026  1.4240  3.8067  0.7912
  344MOL0     H45405  11.528   9.235   9.970 -3.0795  1.5443  1.8222
  344MOL0     H45406  11.773   9.285  10.299  1.7841 -1.4409 -0.8330
  344MOL0     H45407  11.718   9.806   9.549 -0.2595  0.9032 -0.5116
  344MOL0     H45408  11.560   9.995   9.498 -0.9956  0.5728  1.1963
  345MOL0     O45409   7.993  11.104   6.018  0.5420 -0.2492  0.0919
  345MOL0     C45410   7.972  10.984   6.042  0.1527 -0.8047 -0.4223
  345MOL0     O45411   7.869  10.937   6.125  0.3520  0.5418 -0.1567
  345MOL0     C45412   7.777  11.021   6.188 -0.4311  0.6355  0.1618
  345MOL0     C45413   7.689  11.111   6.123 -0.4886 -1.2830  0.3963
  345MOL0     C45414   7.586  11.178   6.187 -0.5478 -0.1019  0.2028
  345MOL0     C45415   7.573  11.168   6.322 -0.4709  0.7925 -0.0562
  345MOL0     O45416   7.491  11.243   6.387  0.4627  0.0077  0.3199
  345MOL0     C45417   7.543  11.373   6.442  1.0695  0.8834 -0.1124
  345MOL0     C45418   7.447  11.420   6.558 -1.2380 -0.2106 -0.7007
  345MOL0     C45419   7.300  11.450   6.532  0.4268 -0.0866  0.3356
  345MOL0     C45420   7.193  11.327   6.512 -0.7566  0.2196  0.5256
  345MOL0     C45421   7.061  11.378   6.453 -0.1939  1.0503  0.2954
  345MOL0     C45422   6.977  11.262   6.405  0.0838 -0.5616  0.6454
  345MOL0     C45423   6.861  11.309   6.306 -0.0271 -0.2433 -0.4543
  345MOL0     C45424   6.809  11.193   6.221  1.1587  0.4059 -1.1916
  345MOL0     N45425   6.726  11.094   6.303 -0.0339 -0.1949  0.1504
  345MOL0     C45426   6.622  11.108   6.389 -0.9101 -0.2010  0.9150
  345MOL0     C45427   6.611  10.994   6.456  1.6769 -0.8972 -0.0105
  345MOL0     C45428   6.509  10.989   6.566  0.0561 -0.2498  0.2134
  345MOL0     C45429   6.454  10.844   6.586 -0.7887  0.6174  0.1809
  345MOL0     C45430   6.336  10.835   6.690  0.3456  0.3619  1.1000
  345MOL0     C45431   6.371  10.896   6.826 -0.0416  0.3402  0.4358
  345MOL0     O45432   6.453  10.812   6.902  0.3212  0.3188 -0.1097
  345MOL0     C45433   6.488  10.853   7.026  0.2578 -0.0993 -0.4431
  345MOL0     C45434   6.459  10.973   7.090 -0.6774  0.3141 -0.2899
  345MOL0     C45435   6.511  10.992   7.222  0.0763 -0.4728 -0.1175
  345MOL0     C45436   6.585  10.900   7.288  0.4634  0.0080 -0.9272
  345MOL0     C45437   6.636  10.923   7.418 -1.1114 -0.7001 -0.3423
  345MOL0     O45438   6.644  11.054   7.450  0.5442  0.0531  0.3118
  345MOL0     C45439   6.672  11.085   7.585  0.0639 -0.5966  0.0220
  345MOL0     C45440   6.583  11.038   7.688  0.5852 -0.0603  0.1354
  345MOL0     C45441   6.602  11.079   7.822 -0.4053 -0.2184  0.4457
  345MOL0     C45442   6.707  11.159   7.860  0.0209 -0.3667  0.3144
  345MOL0     O45443   6.717  11.192   7.997  0.0284  0.1334  0.3435
  345MOL0     C45444   6.822  11.277   8.045  0.4980  0.0589 -0.5138
  345MOL0     C45445   6.813  11.262   8.196 -0.1539 -0.3580  0.2406
  345MOL0     C45446   6.897  11.359   8.268  0.2725  0.1979  0.6189
  345MOL0     C45447   6.861  11.356   8.427 -0.1399 -1.1143 -0.8237
  345MOL0     C45448   6.979  11.428   8.513 -0.2475  0.7686  0.8901
  345MOL0     C45449   6.937  11.446   8.660 -0.8354 -1.4470 -0.1193
  345MOL0     C45450   6.836  11.557   8.685  0.4337 -0.2129  0.1561
  345MOL0     C45451   6.913  11.703   8.693  0.5268  1.0435 -1.0409
  345MOL0    Cl45452   7.008  11.712   8.843  0.2824 -0.4173 -0.5082
  345MOL0     C45453   6.798  11.198   7.754  0.6182  0.2761 -0.0463
  345MOL0     C45454   6.771  11.177   7.621 -0.0857  0.4644 -0.5291
  345MOL0     O45455   6.687  10.837   7.482  0.1764  0.3326 -0.0469
  345MOL0     C45456   6.592  10.772   7.225 -0.7175 -0.3348  0.1891
  345MOL0     C45457   6.566  10.759   7.092 -0.2391 -0.3949 -0.2146
  345MOL0     N45458   6.710  10.901   6.419  0.2018 -0.6885  0.7957
  345MOL0     N45459   6.768  10.960   6.318 -0.8078 -0.0236 -0.3831
  345MOL0     C45460   7.652  11.072   6.386 -0.0729 -0.0647  0.6165
  345MOL0     C45461   7.751  10.990   6.321  0.4350 -0.4346 -0.8263
  345MOL0     C45462   8.051  10.883   5.980 -0.3578 -0.3352 -0.0663
  345MOL0     C45463   8.035  10.749   6.012  0.3208 -1.4184  0.1415
  345MOL0     C45464   8.115  10.653   5.948  0.5289  0.0539 -1.5288
  345MOL0     C45465   8.217  10.690   5.869  0.4677 -0.0776  0.9545
  345MOL0     O45466   8.308  10.600   5.809  0.1488  0.0467  0.2909
  345MOL0     C45467   8.294  10.459   5.843 -0.2037 -0.0937  0.6829
  345MOL0     C45468   8.417  10.390   5.783 -1.1570  0.2355  0.1012
  345MOL0     C45469   8.433  10.242   5.838  0.0195 -0.3869  1.2251
  345MOL0     C45470   8.577  10.177   5.813  0.8755 -0.5457  0.4627
  345MOL0     C45471   8.695  10.253   5.863 -0.6021 -0.2280  0.2767
  345MOL0     C45472   8.786  10.326   5.894 -0.2893  0.0475 -0.3255
  345MOL0     C45473   8.233  10.822   5.835 -0.0629  0.5174  0.1924
  345MOL0     C45474   8.155  10.920   5.897 -0.0968 -0.0174  0.6863
  345MOL0     H45475   7.697  11.142   6.019 -1.8150 -1.0264  0.3549
  345MOL0     H45476   7.528  11.250   6.129 -0.1720 -0.6702 -0.8983
  345MOL0     H45477   7.525  11.444   6.361 -2.8555 -0.3038 -0.5192
  345MOL0     H45478   7.645  11.363   6.479  0.5550  0.3121  1.2244
  345MOL0     H45479   7.501  11.502   6.607 -1.6523 -0.4678  0.2056
  345MOL0     H45480   7.447  11.342   6.635 -0.2035  1.6233  1.2306
  345MOL0     H45481   7.296  11.504   6.437  0.7722  0.8535  0.8401
  345MOL0     H45482   7.249  11.516   6.603  1.3579  0.9538  0.0669
  345MOL0     H45483   7.249  11.249   6.459 -1.3599 -1.1144  1.7710
  345MOL0     H45484   7.172  11.297   6.615  0.7549 -0.9341  0.5524
  345MOL0     H45485   7.087  11.448   6.372 -1.3084  3.0640  1.5959
  345MOL0     H45486   7.005  11.435   6.528 -0.8706 -2.2296  2.4916
  345MOL0     H45487   6.939  11.197   6.485  3.4450 -2.6658  0.7271
  345MOL0     H45488   7.038  11.190   6.349 -1.1469 -1.2553  0.1404
  345MOL0     H45489   6.771  11.352   6.352 -0.6271 -2.7548  0.8978
  345MOL0     H45490   6.904  11.394   6.252  0.5050  0.0544  0.4096
  345MOL0     H45491   6.892  11.129   6.190  0.5158 -0.7706 -0.5090
  345MOL0     H45492   6.744  11.228   6.140  1.2954  4.0086  0.0850
  345MOL0     H45493   6.582  11.208   6.402  0.1794  0.4774 -0.6929
  345MOL0     H45494   6.427  11.055   6.533 -2.2637 -3.1628 -0.3001
  345MOL0     H45495   6.555  11.024   6.658 -1.3090 -2.1868  1.7186
  345MOL0     H45496   6.536  10.788   6.629 -3.0580 -2.1599  1.2082
  345MOL0     H45497   6.428  10.806   6.487 -1.0953  0.7933  0.1926
  345MOL0     H45498   6.252  10.889   6.645  3.4885  4.1343 -0.7708
  345MOL0     H45499   6.314  10.729   6.708  1.9118 -0.2378 -0.2877
  345MOL0     H45500   6.280  10.899   6.886 -0.2166  0.1936  0.1791
  345MOL0     H45501   6.415  10.994   6.808 -1.8978  1.2280  0.4894
  345MOL0     H45502   6.406  11.058   7.047 -2.3937 -0.4381  0.2418
  345MOL0     H45503   6.497  11.085   7.275  4.8043  0.6837 -0.5180
  345MOL0     H45504   6.496  10.980   7.662  0.2457  0.2872  0.4763
  345MOL0     H45505   6.523  11.044   7.888 -0.4545  0.0323  0.5204
  345MOL0     H45506   6.809  11.378   8.005  0.1535  0.2245  0.0145
  345MOL0     H45507   6.922  11.246   8.012  0.0998 -0.8421 -0.8958
  345MOL0     H45508   6.824  11.159   8.230 -0.8172 -0.8288 -0.9144
  345MOL0     H45509   6.711  11.293   8.218 -0.6052 -2.0733  0.7046
  345MOL0     H45510   6.879  11.460   8.230  2.1738 -0.1368 -1.4061
  345MOL0     H45511   6.999  11.319   8.261 -0.3790 -1.6113  0.9588
  345MOL0     H45512   6.769  11.415   8.434  0.2073 -0.6963  0.4678
  345MOL0     H45513   6.836  11.257   8.465  1.8244 -0.8048  1.4918
  345MOL0     H45514   7.004  11.526   8.470 -0.3577  1.5617  2.5330
  345MOL0     H45515   7.072  11.372   8.504  1.0676  2.9510 -0.0657
  345MOL0     H45516   7.024  11.470   8.722 -0.9023  0.4360 -0.7057
  345MOL0     H45517   6.892  11.356   8.703  0.2990 -2.0914 -0.2217
  345MOL0     H45518   6.758  11.570   8.609  0.6957  3.7161  0.3115
  345MOL0     H45519   6.784  11.541   8.780 -0.2692  3.4222  0.5623
  345MOL0     H45520   6.838  11.782   8.689  0.3465  0.8385 -2.9700
  345MOL0     H45521   6.974  11.720   8.604 -0.3801  0.5053 -1.7837
  345MOL0     H45522   6.884  11.261   7.774 -0.3186  0.7713  2.8792
  345MOL0     H45523   6.837  11.210   7.541 -2.2157 -0.3501 -2.7476
  345MOL0     H45524   6.637  10.693   7.283  1.4634 -0.6013 -1.7115
  345MOL0     H45525   6.595  10.661   7.056 -2.1944 -2.6261  3.5878
  345MOL0     H45526   7.646  11.054   6.493  0.5244  0.5052  0.7491
  345MOL0     H45527   7.808  10.916   6.377 -2.1713 -3.5851 -2.0359
  345MOL0     H45528   7.959  10.720   6.084 -1.5074  1.5537 -0.4087
  345MOL0     H45529   8.097  10.553   5.988  0.9934  0.8437  0.8078
  345MOL0     H45530   8.203  10.420   5.796  0.4228 -0.6199 -0.1320
  345MOL0     H45531   8.285  10.448   5.951  1.8950  3.5026  1.3963
  345MOL0     H45532   8.395  10.377   5.677 -0.3153 -0.2745 -0.0176
  345MOL0     H45533   8.511  10.441   5.804 -0.2275 -1.7879  1.1299
  345MOL0     H45534   8.363  10.182   5.778 -0.8312 -1.6501  3.3754
  345MOL0     H45535   8.409  10.237   5.945  2.1899  0.0524  1.7807
  345MOL0     H45536   8.585  10.083   5.869  1.0619 -1.1309 -0.5068
  345MOL0     H45537   8.593  10.153   5.707 -1.1346  1.8954 -0.4945
  345MOL0     H45538   8.868  10.388   5.925  0.7748 -2.3444  1.9724
  345MOL0     H45539   8.323  10.844   5.778 -1.1409  1.2471 -1.2956
  345MOL0     H45540   8.194  11.019   5.879  1.7429 -1.0242 -1.2681
  346MOL0     O45541   8.174   6.790   1.698  1.0004 -0.6580 -0.1700
  346MOL0     C45542   8.230   6.795   1.804 -0.6730  0.1802  0.0750
  346MOL0     O45543   8.365   6.773   1.820  0.2882 -0.2263 -0.0967
  346MOL0     C45544   8.459   6.795   1.716 -0.1027 -0.4022 -0.2476
  346MOL0     C45545   8.570   6.711   1.712  0.0251  0.5389  0.2975
  346MOL0     C45546   8.648   6.701   1.596 -0.1244 -1.1065  0.1453
  346MOL0     C45547   8.629   6.800   1.489  0.1469 -0.1379  0.9145
  346MOL0     O45548   8.706   6.815   1.383  0.1665  0.2672 -0.2596
  346MOL0     C45549   8.842   6.778   1.395 -0.8440  0.7197  0.1511
  346MOL0     C45550   8.870   6.631   1.343  0.2056  0.9066  0.5373
  346MOL0     C45551   8.910   6.616   1.198 -0.4868  0.8640  1.3173
  346MOL0     C45552   8.875   6.478   1.140 -1.0401  0.1405  0.1807
  346MOL0     C45553   8.845   6.499   0.995  0.1995 -0.2122  0.7306
  346MOL0     C45554   8.904   6.390   0.907  0.0819  0.4677 -0.0988
  346MOL0     C45555   8.853   6.248   0.938 -0.4417  0.9456  0.0358
  346MOL0     C45556   8.707   6.226   0.894  0.2777  0.0493 -0.5416
  346MOL0     N45557   8.651   6.104   0.970 -0.3723  0.4025  0.8954
  346MOL0     C45558   8.652   5.973   0.925  0.1933  0.1712  0.1788
  346MOL0     C45559   8.561   5.916   1.019  0.4752 -0.5308  0.9183
  346MOL0     C45560   8.496   5.781   1.022 -0.6172 -1.0519 -0.0162
  346MOL0     C45561   8.606   5.675   1.021  0.1857 -0.4985 -0.1582
  346MOL0     C45562   8.539   5.533   1.047  0.3023  0.5410 -0.6032
  346MOL0     C45563   8.652   5.437   1.094 -1.2198 -0.3190  0.4024
  346MOL0     O45564   8.733   5.387   0.985  0.0993  0.5718  0.3212
  346MOL0     C45565   8.866   5.392   1.017 -0.1610  0.2220 -1.1222
  346MOL0     C45566   8.946   5.449   0.926 -0.5945 -0.9861 -0.6786
  346MOL0     C45567   9.084   5.458   0.947 -0.2184  0.5377  0.8196
  346MOL0     C45568   9.143   5.432   1.071 -0.0622 -0.2945  0.3853
  346MOL0     C45569   9.274   5.478   1.109  0.1949  0.1063 -0.0738
  346MOL0     O45570   9.309   5.596   1.046 -0.4130  0.2998 -0.2004
  346MOL0     C45571   9.426   5.658   1.087  0.5554 -0.4865 -0.9251
  346MOL0     C45572   9.429   5.780   1.157  1.3730 -0.0190  0.4077
  346MOL0     C45573   9.545   5.830   1.210 -0.0242 -0.6183 -0.7648
  346MOL0     C45574   9.672   5.771   1.183 -0.1409 -0.7426 -0.2050
  346MOL0     O45575   9.785   5.826   1.236  0.0886 -0.0364 -0.3519
  346MOL0     C45576   9.868   5.744   1.314 -0.9280 -0.2320 -1.1198
  346MOL0     C45577   9.988   5.819   1.362 -0.3036 -0.2597  0.0310
  346MOL0     C45578   9.942   5.920   1.477 -0.4295 -1.4058  0.1961
  346MOL0     C45579   9.825   6.017   1.441 -0.0948  0.7513 -0.6491
  346MOL0     C45580   9.807   6.114   1.557 -0.3483 -0.7336  0.2317
  346MOL0     C45581   9.717   6.226   1.517 -0.3506  0.0598  1.2494
  346MOL0     C45582   9.792   6.339   1.443  0.4851  0.0859 -0.2246
  346MOL0     C45583   9.698   6.462   1.420  0.5079  1.0861 -1.3331
  346MOL0    Cl45584   9.631   6.518   1.575 -0.0622  0.6538  0.3153
  346MOL0     C45585   9.670   5.656   1.097 -0.9991  0.9758 -1.0599
  346MOL0     C45586   9.546   5.601   1.055  0.3601 -0.3795 -0.1143
  346MOL0     O45587   9.350   5.415   1.189 -1.1484  0.3213 -0.3716
  346MOL0     C45588   9.066   5.357   1.159 -0.3675  0.0116 -0.4692
  346MOL0     C45589   8.931   5.336   1.131 -0.4419 -0.2653  0.5506
  346MOL0     N45590   8.524   6.009   1.117 -0.4036 -0.6920  0.0118
  346MOL0     N45591   8.585   6.118   1.082  0.2141  0.0840 -0.1286
  346MOL0     C45592   8.524   6.892   1.505  0.3057 -0.5620  0.4461
  346MOL0     C45593   8.433   6.884   1.611  0.3975  0.1603  0.1079
  346MOL0     C45594   8.159   6.829   1.927 -0.1707  0.5847 -0.4900
  346MOL0     C45595   8.019   6.840   1.931 -0.0134  0.5340  0.2322
  346MOL0     C45596   7.948   6.874   2.046 -0.9136 -0.1661 -0.6402
  346MOL0     C45597   8.024   6.882   2.166  0.0340 -0.5751 -0.9901
  346MOL0     O45598   7.981   6.900   2.295 -0.2724  0.5086 -0.0907
  346MOL0     C45599   7.853   6.862   2.337  0.8574 -0.3879  0.8122
  346MOL0     C45600   7.851   6.875   2.494 -0.9722  0.7148  0.1213
  346MOL0     C45601   7.733   6.797   2.556  0.0262  0.4063  0.4987
  346MOL0     C45602   7.769   6.638   2.556 -0.9892 -0.7687 -0.1303
  346MOL0     C45603   7.688   6.560   2.656  0.8866 -0.6862  0.3667
  346MOL0     C45604   7.623   6.500   2.745 -0.0978 -0.2583 -1.0836
  346MOL0     C45605   8.166   6.863   2.162  0.4505 -0.4550  0.3493
  346MOL0     C45606   8.238   6.851   2.047  0.1531 -0.4735  0.6545
  346MOL0     H45607   8.581   6.647   1.798  2.6198  0.4698 -0.0214
  346MOL0     H45608   8.730   6.630   1.588 -0.4666 -1.5285  0.3103
  346MOL0     H45609   8.881   6.793   1.496  2.4604  0.2948 -0.9298
  346MOL0     H45610   8.901   6.846   1.333  1.8174  0.3744  2.1204
  346MOL0     H45611   8.776   6.582   1.370 -1.1303  1.4361 -2.7707
  346MOL0     H45612   8.950   6.573   1.391 -0.1898  0.0633  0.1989
  346MOL0     H45613   9.016   6.645   1.191  0.0115 -1.0659  0.4124
  346MOL0     H45614   8.857   6.689   1.136  0.1187  0.8835  0.8091
  346MOL0     H45615   8.958   6.415   1.174 -1.5072  0.2321  1.5595
  346MOL0     H45616   8.783   6.444   1.188 -0.2515  1.1426  2.5327
  346MOL0     H45617   8.886   6.594   0.958 -1.1188  0.5656  1.2185
  346MOL0     H45618   8.739   6.508   0.972  0.5824  1.1871 -0.6770
  346MOL0     H45619   9.012   6.391   0.920  0.0911 -0.6960  0.0163
  346MOL0     H45620   8.882   6.410   0.801 -1.7482 -1.1379 -0.0813
  346MOL0     H45621   8.923   6.191   0.876  2.5643  6.3834 -2.2444
  346MOL0     H45622   8.870   6.210   1.039  1.2322  1.4085 -0.0522
  346MOL0     H45623   8.704   6.207   0.786 -0.7328 -1.2569 -0.3147
  346MOL0     H45624   8.658   6.320   0.920  1.0976  0.0657  1.0858
  346MOL0     H45625   8.702   5.930   0.839 -0.7703 -1.1246  0.2237
  346MOL0     H45626   8.440   5.774   0.929 -3.1146  0.5821  1.2345
  346MOL0     H45627   8.423   5.777   1.104  0.7315  1.2208  1.4247
  346MOL0     H45628   8.681   5.694   1.099  0.5246  1.0702 -0.8352
  346MOL0     H45629   8.658   5.668   0.925  2.7234 -0.4466  1.1401
  346MOL0     H45630   8.463   5.550   1.124  1.6373  1.3961  0.5833
  346MOL0     H45631   8.492   5.482   0.963  1.2057  0.4813 -1.0897
  346MOL0     H45632   8.608   5.348   1.139 -1.5286 -1.1993 -1.5490
  346MOL0     H45633   8.705   5.495   1.171 -1.5962  2.5742 -1.3640
  346MOL0     H45634   8.897   5.502   0.845 -2.0622  0.3936  1.0105
  346MOL0     H45635   9.141   5.504   0.867 -4.2167 -0.0475 -2.7453
  346MOL0     H45636   9.340   5.836   1.183  0.4561 -0.7579 -1.0120
  346MOL0     H45637   9.534   5.910   1.282 -0.1117 -0.1240 -1.3183
  346MOL0     H45638   9.908   5.659   1.259  0.3910 -0.3438 -0.0281
  346MOL0     H45639   9.806   5.713   1.399 -1.5133  2.3817 -0.5032
  346MOL0     H45640  10.031   5.878   1.280 -0.0659  0.7483  0.8620
  346MOL0     H45641  10.060   5.743   1.395  0.3961  1.5165  3.0189
  346MOL0     H45642  10.037   5.964   1.508 -1.1683 -0.4189  1.1036
  346MOL0     H45643   9.920   5.869   1.571 -2.1738 -1.6944 -0.3268
  346MOL0     H45644   9.846   6.069   1.347 -3.0003  1.3375 -1.0757
  346MOL0     H45645   9.729   5.966   1.430  0.6003 -0.3111 -2.0708
  346MOL0     H45646   9.903   6.161   1.577  0.7187 -1.4835 -2.6478
  346MOL0     H45647   9.781   6.063   1.650  1.6377  1.9692  2.4289
  346MOL0     H45648   9.653   6.265   1.597 -5.5177  3.8757 -3.9018
  346MOL0     H45649   9.651   6.175   1.446  3.2998 -1.8531 -1.0936
  346MOL0     H45650   9.864   6.377   1.516 -0.3245  0.0738  0.5835
  346MOL0     H45651   9.846   6.306   1.353  1.0152  2.4180 -0.8400
  346MOL0     H45652   9.619   6.427   1.353  0.5877 -0.8817 -0.4766
  346MOL0     H45653   9.750   6.552   1.388  1.8025  0.9029  0.1357
  346MOL0     H45654   9.767   5.613   1.075 -0.5504 -0.6046  3.0479
  346MOL0     H45655   9.542   5.507   1.001  0.3523  0.1608 -1.0774
  346MOL0     H45656   9.095   5.329   1.260  1.1364  0.8336 -0.6443
  346MOL0     H45657   8.876   5.286   1.210  2.1901 -2.5092  1.1226
  346MOL0     H45658   8.513   6.976   1.438 -0.1473 -0.6705  0.3812
  346MOL0     H45659   8.351   6.955   1.601 -2.1673 -2.8406 -2.5507
  346MOL0     H45660   7.960   6.826   1.841  1.8371  0.8779 -1.1016
  346MOL0     H45661   7.843   6.887   2.024 -0.2340  3.2511 -2.7077
  346MOL0     H45662   7.835   6.758   2.307  0.5564 -0.6227  1.7726
  346MOL0     H45663   7.781   6.927   2.286  2.2967  0.9480  0.3845
  346MOL0     H45664   7.944   6.843   2.543 -0.2902  3.3375  0.7070
  346MOL0     H45665   7.844   6.981   2.522  2.1130  1.3189 -0.9966
  346MOL0     H45666   7.632   6.818   2.521 -1.2216 -0.8693  3.0378
  346MOL0     H45667   7.734   6.842   2.655  0.7749  2.1761 -0.2806
  346MOL0     H45668   7.743   6.599   2.457 -2.2991  1.0125 -0.5479
  346MOL0     H45669   7.878   6.628   2.562 -0.8800 -1.2106 -2.2212
  346MOL0     H45670   7.552   6.452   2.810 -0.3157  0.4132 -0.8213
  346MOL0     H45671   8.215   6.863   2.259 -1.6225  1.9914  1.5221
  346MOL0     H45672   8.344   6.828   2.053  0.2839  0.0095  0.2686
  347MOL0     O45673   0.441   6.828   4.968  0.7783  0.5352  0.2955
  347MOL0     C45674   0.518   6.871   5.038  0.4038 -0.7133 -0.0311
  347MOL0     O45675   0.580   6.797   5.144  0.0969 -1.2038  0.4585
  347MOL0     C45676   0.532   6.685   5.191  0.4645  0.0559 -0.4571
  347MOL0     C45677   0.425   6.684   5.275  0.6629  0.3907 -1.3647
  347MOL0     C45678   0.371   6.558   5.302 -0.8067  0.2411  0.3123
  347MOL0     C45679   0.435   6.435   5.264  0.2534  0.0152 -0.1475
  347MOL0     O45680   0.371   6.312   5.297  0.6266 -0.5880 -0.3311
  347MOL0     C45681   0.400   6.179   5.237  0.4678 -0.2296  0.9560
  347MOL0     C45682   0.340   6.087   5.340 -0.8598  0.5379 -0.0037
  347MOL0     C45683   0.368   5.944   5.304  1.3206 -0.4364  0.3077
  347MOL0     C45684   0.319   5.849   5.419  0.1090  0.5821 -0.1221
  347MOL0     C45685   0.362   5.703   5.398 -0.2729  0.7825  0.9678
  347MOL0     C45686   0.505   5.669   5.436  0.6248 -0.6914 -0.3982
  347MOL0     C45687   0.549   5.527   5.435  0.3218 -0.0608  0.3161
  347MOL0     C45688   0.697   5.519   5.480 -0.0752  0.3879 -0.4439
  347MOL0     N45689   0.708   5.535   5.634 -0.4942 -0.4998  0.5124
  347MOL0     C45690   0.722   5.444   5.729 -0.1478  0.0662  0.1211
  347MOL0     C45691   0.743   5.507   5.849  1.1020 -0.0202  0.1531
  347MOL0     C45692   0.757   5.448   5.983  0.1919  0.2071  0.1556
  347MOL0     C45693   0.629   5.402   6.062  0.0616 -1.0993  0.1781
  347MOL0     C45694   0.538   5.296   5.998 -0.3089  0.8425  0.1314
  347MOL0     C45695   0.415   5.253   6.089 -0.5086  0.3763  0.5483
  347MOL0     O45696   0.327   5.356   6.130 -0.3816  0.2563 -0.2051
  347MOL0     C45697   0.227   5.321   6.216 -0.5056  0.2432  0.5678
  347MOL0     C45698   0.197   5.188   6.247 -0.4972  0.0918  0.1045
  347MOL0     C45699   0.110   5.158   6.354  0.0107  0.7534  0.3764
  347MOL0     C45700   0.033   5.261   6.408 -0.0358  0.0389 -0.3918
  347MOL0     C45701  -0.071   5.226   6.508  0.8135  0.3454 -0.0980
  347MOL0     O45702  -0.168   5.323   6.546  0.3140  0.2079  0.5930
  347MOL0     C45703  -0.295   5.287   6.581  1.0441  0.4119  0.2266
  347MOL0     C45704  -0.361   5.381   6.668 -0.1817  0.9337  0.5451
  347MOL0     C45705  -0.485   5.355   6.726 -0.3066  0.4936 -0.5073
  347MOL0     C45706  -0.556   5.232   6.700  0.7806 -1.5507 -0.2189
  347MOL0     O45707  -0.674   5.214   6.761 -0.5269  0.2200 -0.2275
  347MOL0     C45708  -0.664   5.168   6.891  0.3213  0.0022 -0.4195
  347MOL0     C45709  -0.802   5.153   6.964 -0.1095 -1.1776 -0.0773
  347MOL0     C45710  -0.880   5.027   6.919  0.3755  0.7553 -0.2235
  347MOL0     C45711  -1.012   4.999   6.988  0.0075  0.3464 -0.5844
  347MOL0     C45712  -1.086   4.886   6.919  0.4678 -0.3072  0.2664
  347MOL0     C45713  -1.005   4.755   6.911  0.1069 -0.4867  0.2494
  347MOL0     C45714  -1.105   4.639   6.909  0.1929  0.5456  0.0251
  347MOL0     C45715  -1.047   4.502   6.935  0.4319 -0.0696  0.4056
  347MOL0    Cl45716  -1.030   4.483   7.111  0.5947 -0.5634  0.2731
  347MOL0     C45717  -0.496   5.145   6.607  0.2508 -0.1016 -0.1863
  347MOL0     C45718  -0.364   5.166   6.552 -0.2157  0.2107  0.0384
  347MOL0     O45719  -0.072   5.106   6.558  0.4942 -0.1760 -0.0877
  347MOL0     C45720   0.062   5.392   6.365  0.4227  0.6093  0.8352
  347MOL0     C45721   0.158   5.420   6.264 -0.7482  1.0889 -0.1757
  347MOL0     N45722   0.727   5.641   5.826 -0.0667 -0.1203 -0.1629
  347MOL0     N45723   0.719   5.656   5.700 -0.2705 -1.1597 -0.1083
  347MOL0     C45724   0.562   6.438   5.196  0.2901  0.5673 -0.5527
  347MOL0     C45725   0.606   6.567   5.157  1.1181  0.5808  0.3387
  347MOL0     C45726   0.554   7.007   5.022 -0.5520  0.0202  0.3118
  347MOL0     C45727   0.678   7.049   5.069  0.5923 -0.7084 -0.0164
  347MOL0     C45728   0.732   7.167   5.029 -0.3039 -0.8641 -0.6976
  347MOL0     C45729   0.667   7.247   4.939 -2.0334 -0.8694 -1.6692
  347MOL0     O45730   0.744   7.365   4.919  0.0996 -0.3043 -0.1172
  347MOL0     C45731   0.689   7.477   4.848 -0.5509 -0.0434 -0.2918
  347MOL0     C45732   0.702   7.471   4.691 -0.3342  0.5758 -0.0407
  347MOL0     C45733   0.579   7.536   4.611 -0.6500 -0.2556 -0.5432
  347MOL0     C45734   0.510   7.447   4.514 -0.0608  0.9980 -0.0619
  347MOL0     C45735   0.571   7.434   4.373 -0.1514 -0.1069 -0.3772
  347MOL0     C45736   0.622   7.409   4.265 -1.1759 -0.1725 -0.0628
  347MOL0     C45737   0.549   7.204   4.875 -0.1388 -0.1606 -0.1598
  347MOL0     C45738   0.482   7.093   4.931 -0.4187  0.6514  0.4092
  347MOL0     H45739   0.382   6.775   5.314  0.6391  0.2774 -1.1267
  347MOL0     H45740   0.281   6.542   5.361 -1.1457  0.0089 -0.2575
  347MOL0     H45741   0.506   6.169   5.211 -0.1474 -0.0249 -2.0595
  347MOL0     H45742   0.341   6.167   5.146  0.8223 -2.6838  0.9662
  347MOL0     H45743   0.232   6.099   5.350 -0.7584 -0.1429  3.1108
  347MOL0     H45744   0.398   6.115   5.429  3.4817  0.1886 -2.4553
  347MOL0     H45745   0.468   5.929   5.261  0.4446  2.9528 -3.4634
  347MOL0     H45746   0.310   5.921   5.214  4.0635  1.0473 -1.9820
  347MOL0     H45747   0.357   5.875   5.519  1.3630 -0.1976 -0.3762
  347MOL0     H45748   0.210   5.846   5.431  0.2663 -2.2998  1.5484
  347MOL0     H45749   0.354   5.676   5.292 -1.0150 -0.2745  1.2765
  347MOL0     H45750   0.300   5.631   5.452 -0.9669 -0.0303 -0.8209
  347MOL0     H45751   0.516   5.711   5.537  0.8091  1.1300 -1.1356
  347MOL0     H45752   0.580   5.715   5.372 -1.6310  1.3014 -1.7982
  347MOL0     H45753   0.488   5.460   5.497  2.5651 -0.2282  2.4976
  347MOL0     H45754   0.537   5.491   5.333  1.0812 -0.1766  0.2666
  347MOL0     H45755   0.768   5.589   5.435 -1.0764  1.6159 -0.1730
  347MOL0     H45756   0.727   5.422   5.440  0.4716  0.5739 -0.4872
  347MOL0     H45757   0.741   5.338   5.714  0.8213  0.4693 -1.8196
  347MOL0     H45758   0.791   5.524   6.054 -0.9690 -0.2257  1.2267
  347MOL0     H45759   0.832   5.369   5.972 -2.0798 -1.9410 -0.9571
  347MOL0     H45760   0.571   5.494   6.073  0.9843 -0.5532  0.6213
  347MOL0     H45761   0.663   5.361   6.157 -0.0379 -3.6418 -0.8022
  347MOL0     H45762   0.492   5.328   5.904 -1.3530 -1.9048 -0.3759
  347MOL0     H45763   0.606   5.212   5.978 -3.2830 -1.9077  0.8280
  347MOL0     H45764   0.464   5.206   6.175  1.7499  1.6829  0.0477
  347MOL0     H45765   0.367   5.180   6.022  2.1339  0.4821 -1.6683
  347MOL0     H45766   0.258   5.105   6.210  0.1110  0.2933  0.6441
  347MOL0     H45767   0.095   5.056   6.387 -1.0387  0.2327 -1.5306
  347MOL0     H45768  -0.315   5.469   6.712 -1.0915  2.0408 -0.6459
  347MOL0     H45769  -0.523   5.423   6.803  0.2311  0.3918 -0.1419
  347MOL0     H45770  -0.611   5.248   6.942 -1.5227  1.3454 -0.5041
  347MOL0     H45771  -0.611   5.073   6.902 -2.0826 -1.2766  0.9077
  347MOL0     H45772  -0.858   5.243   6.936 -0.2482 -1.5159 -0.9152
  347MOL0     H45773  -0.773   5.156   7.069 -0.1074 -3.0852  0.0171
  347MOL0     H45774  -0.812   4.942   6.934  2.9845  2.4691 -1.6105
  347MOL0     H45775  -0.906   5.032   6.813 -0.6619  1.3605  0.0500
  347MOL0     H45776  -0.994   4.978   7.094 -1.0646 -0.8220 -0.6023
  347MOL0     H45777  -1.060   5.096   6.981 -0.3447  0.0704 -2.2549
  347MOL0     H45778  -1.119   4.915   6.819 -1.6421 -0.4327  0.8812
  347MOL0     H45779  -1.170   4.874   6.988  0.5969  1.0722  0.6763
  347MOL0     H45780  -0.941   4.747   6.999 -0.4004  1.2673  0.8283
  347MOL0     H45781  -0.934   4.770   6.830 -0.8298  0.7224 -0.3849
  347MOL0     H45782  -1.172   4.649   6.994  2.6383  0.9626  2.0219
  347MOL0     H45783  -1.158   4.648   6.814  1.5349  0.9984 -0.7160
  347MOL0     H45784  -0.948   4.480   6.894 -0.1258 -0.9893 -0.4903
  347MOL0     H45785  -1.112   4.425   6.894  0.3511  0.1646  0.0845
  347MOL0     H45786  -0.554   5.065   6.563 -0.7068  1.0277 -1.0480
  347MOL0     H45787  -0.325   5.085   6.491  0.0606 -0.0679  0.5795
  347MOL0     H45788   0.008   5.466   6.424  0.3672  2.2920 -1.2261
  347MOL0     H45789   0.172   5.527   6.254  2.0776  0.8563  0.4886
  347MOL0     H45790   0.617   6.351   5.163 -1.2208 -0.6436 -0.0013
  347MOL0     H45791   0.684   6.581   5.082  0.4069 -2.2515 -1.0656
  347MOL0     H45792   0.734   6.993   5.144  2.4946  0.9543 -0.0949
  347MOL0     H45793   0.827   7.206   5.064 -1.4232  2.0298 -0.6136
  347MOL0     H45794   0.732   7.572   4.882  0.4945 -1.0034  1.1850
  347MOL0     H45795   0.580   7.476   4.864 -0.3092  0.4711  1.7673
  347MOL0     H45796   0.798   7.519   4.673  1.2386 -0.1284  5.0377
  347MOL0     H45797   0.719   7.370   4.653 -1.3771  0.2967  0.1886
  347MOL0     H45798   0.603   7.634   4.571  1.8908  1.3716  4.1404
  347MOL0     H45799   0.500   7.565   4.682  0.7681 -2.6092  2.2630
  347MOL0     H45800   0.518   7.348   4.560  3.7269  1.1091 -0.1729
  347MOL0     H45801   0.405   7.478   4.514  0.1590  1.8824 -2.1161
  347MOL0     H45802   0.671   7.374   4.176 -0.5176 -1.4066  0.7497
  347MOL0     H45803   0.504   7.272   4.803 -3.6515 -2.4672 -0.3724
  347MOL0     H45804   0.389   7.062   4.885  2.0750 -2.3448 -3.1431
  348MOL0     O45805   8.123   6.435   5.227 -0.1240 -0.5957  0.0236
  348MOL0     C45806   8.190   6.375   5.312  0.5154 -0.2210 -0.0382
  348MOL0     O45807   8.307   6.409   5.367 -0.2056 -0.4924  0.3923
  348MOL0     C45808   8.360   6.536   5.359 -0.0648  0.0929  0.1566
  348MOL0     C45809   8.445   6.571   5.463  0.1358  0.3602 -0.0166
  348MOL0     C45810   8.543   6.675   5.445 -0.7857 -0.4796 -0.2986
  348MOL0     C45811   8.553   6.742   5.318 -0.3875  1.4313  0.2620
  348MOL0     O45812   8.640   6.836   5.275 -0.1123 -0.6218 -0.4283
  348MOL0     C45813   8.694   6.919   5.388 -0.2251  1.2498  0.2663
  348MOL0     C45814   8.762   7.056   5.353 -0.8070 -0.5989 -0.3194
  348MOL0     C45815   8.674   7.162   5.302  0.2080  0.3495  0.5989
  348MOL0     C45816   8.565   7.184   5.405  0.3182  0.8347 -0.3090
  348MOL0     C45817   8.484   7.305   5.374 -0.3536  0.1571 -0.6841
  348MOL0     C45818   8.373   7.354   5.470 -0.2498 -0.2073  0.3044
  348MOL0     C45819   8.266   7.261   5.506  0.1057  0.0517 -0.8299
  348MOL0     C45820   8.293   7.170   5.629 -0.1512 -0.4147  0.1063
  348MOL0     N45821   8.205   7.053   5.649 -1.0888  0.1167  0.9794
  348MOL0     C45822   8.219   6.928   5.600 -1.2456  0.0306  0.3813
  348MOL0     C45823   8.116   6.854   5.641 -0.6657 -0.7722 -0.1869
  348MOL0     C45824   8.083   6.713   5.608  0.4292  0.4071  0.4716
  348MOL0     C45825   8.107   6.620   5.726 -0.0022 -0.4377  0.4680
  348MOL0     C45826   8.087   6.474   5.697  0.2207  0.2130  0.4105
  348MOL0     C45827   7.937   6.455   5.694 -0.8293  0.5506 -0.7661
  348MOL0     O45828   7.896   6.461   5.833  0.2339 -0.4678  0.5344
  348MOL0     C45829   7.765   6.439   5.873 -0.4175  0.0584 -0.2742
  348MOL0     C45830   7.665   6.398   5.787  1.1884  0.7311 -0.3741
  348MOL0     C45831   7.536   6.378   5.830 -0.0073  0.0717 -1.9155
  348MOL0     C45832   7.504   6.406   5.965  1.1013 -0.4195 -0.3295
  348MOL0     C45833   7.357   6.400   6.016 -0.5870  0.0337  0.2149
  348MOL0     O45834   7.321   6.436   6.143 -0.6610  0.4754 -0.9377
  348MOL0     C45835   7.206   6.393   6.214 -0.7762 -0.0868  0.3797
  348MOL0     C45836   7.134   6.497   6.277 -0.0608  0.1386  0.0712
  348MOL0     C45837   7.015   6.468   6.342 -0.0392  0.4748 -0.1017
  348MOL0     C45838   6.977   6.332   6.351 -0.2944 -0.4289  0.2789
  348MOL0     O45839   6.871   6.305   6.440 -0.3064  0.1686  0.5923
  348MOL0     C45840   6.784   6.207   6.388  0.4176 -0.2501  0.5500
  348MOL0     C45841   6.652   6.220   6.469 -0.3001  0.1047 -0.2028
  348MOL0     C45842   6.550   6.113   6.424 -0.0542  0.0489 -0.7416
  348MOL0     C45843   6.451   6.160   6.319 -0.4270 -0.4172  0.0333
  348MOL0     C45844   6.347   6.049   6.279  0.1061  0.4412 -0.5635
  348MOL0     C45845   6.207   6.101   6.242 -1.8247  0.4665 -0.2647
  348MOL0     C45846   6.120   6.155   6.357 -0.1398  0.7107 -0.2636
  348MOL0     C45847   6.026   6.261   6.312  1.0424 -0.0902  0.1023
  348MOL0    Cl45848   5.941   6.323   6.470  0.3469 -0.0167  0.6511
  348MOL0     C45849   7.056   6.234   6.291  0.0355  0.1816 -0.8166
  348MOL0     C45850   7.179   6.262   6.229 -0.1168 -0.1672  0.4793
  348MOL0     O45851   7.292   6.340   5.931 -0.3877 -0.0989  0.2974
  348MOL0     C45852   7.604   6.441   6.058 -0.2938 -0.2334 -1.0821
  348MOL0     C45853   7.738   6.464   6.014  0.2353  0.9770 -0.9177
  348MOL0     N45854   8.033   6.937   5.719  0.3827 -0.2557  0.3961
  348MOL0     N45855   8.093   7.052   5.725  0.0900 -0.2009  0.2245
  348MOL0     C45856   8.457   6.708   5.221 -0.4003  0.3869 -0.9019
  348MOL0     C45857   8.364   6.606   5.239  0.2079 -0.1616  1.4390
  348MOL0     C45858   8.124   6.246   5.349 -0.3077 -0.3410 -0.3222
  348MOL0     C45859   8.145   6.198   5.486 -0.4084  1.0103  0.3756
  348MOL0     C45860   8.091   6.073   5.522  1.5309 -1.5216  0.6070
  348MOL0     C45861   8.018   5.999   5.425 -0.0376 -0.4079  0.4243
  348MOL0     O45862   7.958   5.882   5.472  0.4658 -0.1806  0.3242
  348MOL0     C45863   7.928   5.771   5.395 -0.7582 -0.3165  0.3507
  348MOL0     C45864   8.069   5.698   5.390 -0.4739 -0.0142 -0.3375
  348MOL0     C45865   8.049   5.568   5.314  0.0526 -0.3876  0.7816
  348MOL0     C45866   8.169   5.486   5.289 -0.2750  0.4831 -0.4561
  348MOL0     C45867   8.180   5.395   5.404 -0.5762  0.9148 -0.1244
  348MOL0     C45868   8.201   5.337   5.507  0.2113  0.3260 -0.5752
  348MOL0     C45869   7.998   6.052   5.300 -0.2067  0.2828  0.2595
  348MOL0     C45870   8.048   6.178   5.258 -0.1792 -0.4978 -0.2416
  348MOL0     H45871   8.446   6.509   5.552 -0.4330 -0.2784 -0.4397
  348MOL0     H45872   8.621   6.693   5.518  0.3762  3.5984 -2.2750
  348MOL0     H45873   8.782   6.858   5.409 -1.1686 -0.4620 -0.5190
  348MOL0     H45874   8.623   6.922   5.471 -3.7061 -0.1053 -2.3886
  348MOL0     H45875   8.852   7.050   5.292 -1.8185  3.2241 -2.5137
  348MOL0     H45876   8.807   7.092   5.445  2.8218 -1.7655 -1.4855
  348MOL0     H45877   8.637   7.128   5.205 -2.3428  1.4656  1.0918
  348MOL0     H45878   8.731   7.256   5.301 -0.3576  0.6952  0.2836
  348MOL0     H45879   8.503   7.094   5.411  2.5937 -0.7880  0.4239
  348MOL0     H45880   8.608   7.195   5.505  0.6885  2.8092 -0.6296
  348MOL0     H45881   8.444   7.298   5.273 -1.2664  0.1383 -0.3321
  348MOL0     H45882   8.552   7.391   5.376 -0.5990  0.3559 -0.7510
  348MOL0     H45883   8.338   7.442   5.416 -0.2936  0.1266  0.8756
  348MOL0     H45884   8.419   7.385   5.564 -0.4946  3.3232 -0.6159
  348MOL0     H45885   8.181   7.324   5.536  0.8328  0.0876  1.3273
  348MOL0     H45886   8.241   7.189   5.428  1.5301 -1.4033  0.0072
  348MOL0     H45887   8.304   7.220   5.725  3.0850 -1.4227  0.4102
  348MOL0     H45888   8.391   7.124   5.609  0.6563  0.9360  0.8072
  348MOL0     H45889   8.297   6.905   5.528 -2.0382  5.1915 -2.6547
  348MOL0     H45890   8.151   6.681   5.529 -0.9945  0.1316 -0.6952
  348MOL0     H45891   7.975   6.716   5.587 -0.4523 -3.8287  3.1363
  348MOL0     H45892   8.043   6.648   5.810 -1.7440 -1.1262 -0.5792
  348MOL0     H45893   8.214   6.613   5.752  0.2979 -2.3589 -1.0619
  348MOL0     H45894   8.132   6.451   5.600 -2.5214 -0.2655 -0.8353
  348MOL0     H45895   8.129   6.408   5.773  1.0936  0.2071 -0.0643
  348MOL0     H45896   7.911   6.353   5.664  0.6694 -0.5834  1.4518
  348MOL0     H45897   7.874   6.513   5.627  0.7981  5.0378  1.2279
  348MOL0     H45898   7.689   6.373   5.684  0.6308  0.8123 -0.5260
  348MOL0     H45899   7.467   6.345   5.754  1.9118 -2.3519 -2.7066
  348MOL0     H45900   7.171   6.599   6.270  1.5016 -0.3143  1.0770
  348MOL0     H45901   6.950   6.545   6.383  0.3371  1.1028 -0.6834
  348MOL0     H45902   6.834   6.111   6.402 -1.5089 -1.4089 -0.0618
  348MOL0     H45903   6.772   6.238   6.284 -0.9416 -1.2203  0.3882
  348MOL0     H45904   6.614   6.321   6.452  1.3779  0.6644 -0.9318
  348MOL0     H45905   6.684   6.214   6.574 -1.7483  4.3360  0.6884
  348MOL0     H45906   6.509   6.085   6.522  1.1554  3.3076  0.8559
  348MOL0     H45907   6.606   6.026   6.389 -4.1421 -2.6380 -1.2700
  348MOL0     H45908   6.396   6.248   6.354  0.3267 -0.0231  0.2427
  348MOL0     H45909   6.497   6.189   6.224  2.4862 -0.0141  1.4743
  348MOL0     H45910   6.343   5.990   6.371 -0.6221  0.8475 -0.3261
  348MOL0     H45911   6.400   5.990   6.204 -0.3447 -1.7318  0.7422
  348MOL0     H45912   6.155   6.024   6.184 -0.8069  1.3647 -2.5032
  348MOL0     H45913   6.231   6.175   6.165  0.9228  1.6883  1.6102
  348MOL0     H45914   6.070   6.072   6.408 -4.3075  1.6610 -2.3183
  348MOL0     H45915   6.180   6.205   6.433 -1.3299  0.9771  0.5256
  348MOL0     H45916   5.955   6.225   6.237  1.7732  0.4751 -0.8824
  348MOL0     H45917   6.076   6.347   6.267  1.1252 -0.5860 -0.7874
  348MOL0     H45918   7.028   6.130   6.304 -3.0927  0.6351 -2.7296
  348MOL0     H45919   7.245   6.188   6.183  1.6342  2.7292 -2.0257
  348MOL0     H45920   7.577   6.452   6.162  0.8967  0.0850 -0.7963
  348MOL0     H45921   7.801   6.500   6.094 -1.7251  3.5364 -0.3922
  348MOL0     H45922   8.463   6.756   5.124  0.4763  0.4303 -0.8318
  348MOL0     H45923   8.308   6.582   5.149  3.9130  1.3992 -1.5672
  348MOL0     H45924   8.206   6.253   5.557  0.1398  1.2931 -0.3042
  348MOL0     H45925   8.110   6.037   5.623 -1.1522 -2.6928  0.7660
  348MOL0     H45926   7.901   5.793   5.291 -1.5921  0.4194  0.7150
  348MOL0     H45927   7.840   5.725   5.440 -1.8353  1.1175 -0.1924
  348MOL0     H45928   8.158   5.742   5.343  0.4662 -2.0305 -0.5431
  348MOL0     H45929   8.091   5.658   5.489 -0.8443  1.8704  0.5489
  348MOL0     H45930   8.015   5.602   5.216  2.6146 -1.0330 -0.4062
  348MOL0     H45931   7.970   5.503   5.351  0.4656 -1.5994 -0.3934
  348MOL0     H45932   8.157   5.437   5.192 -2.6759  0.2605 -0.0931
  348MOL0     H45933   8.255   5.554   5.284 -0.2159  0.4881  0.4763
  348MOL0     H45934   8.222   5.269   5.587  1.7280  2.5583  1.0499
  348MOL0     H45935   7.942   6.001   5.222  0.1031  1.5996 -0.8583
  348MOL0     H45936   8.019   6.223   5.163  0.7432  1.6371  0.4355
  349MOL0     O45937   9.040   4.185   4.918 -0.5060  0.6699 -0.2701
  349MOL0     C45938   8.966   4.266   4.872  0.8935  0.1925 -0.4939
  349MOL0     O45939   8.995   4.339   4.753  0.1563  0.1697 -0.5145
  349MOL0     C45940   9.118   4.340   4.695  0.0305  0.1336 -0.8034
  349MOL0     C45941   9.250   4.288   4.739 -0.1375 -0.0849 -0.3600
  349MOL0     C45942   9.364   4.315   4.652  0.5857  0.3495 -0.4385
  349MOL0     C45943   9.353   4.407   4.543  0.8538 -0.9244  0.1489
  349MOL0     O45944   9.451   4.425   4.454 -0.7046 -0.8330 -0.0105
  349MOL0     C45945   9.573   4.467   4.512 -0.8581 -0.2710 -0.3736
  349MOL0     C45946   9.672   4.535   4.413  0.4081  1.2977  0.0433
  349MOL0     C45947   9.718   4.437   4.296  0.3237 -0.2165  0.0524
  349MOL0     C45948   9.846   4.498   4.237  0.0799 -0.4812 -0.2993
  349MOL0     C45949   9.890   4.406   4.120  0.4324 -1.2527 -0.5986
  349MOL0     C45950  10.030   4.441   4.064  0.1271  0.1497 -0.0293
  349MOL0     C45951  10.082   4.362   3.946 -0.1419  0.4973  0.7818
  349MOL0     C45952  10.234   4.371   3.946 -0.3410 -1.2558  0.0135
  349MOL0     N45953  10.283   4.512   3.931  0.7390  0.0498 -0.0368
  349MOL0     C45954  10.313   4.556   3.801  0.4301 -0.2444  0.0377
  349MOL0     C45955  10.325   4.685   3.822 -0.2547  0.0284 -0.3618
  349MOL0     C45956  10.365   4.782   3.716 -0.2148 -0.3743  0.1207
  349MOL0     C45957  10.250   4.813   3.622 -0.2577 -0.1429  0.0519
  349MOL0     C45958  10.159   4.928   3.677 -0.5654  0.7580 -0.6784
  349MOL0     C45959  10.038   4.969   3.599  0.7306 -0.0926 -0.4767
  349MOL0     O45960   9.935   4.860   3.628  0.3373 -0.1022  0.5161
  349MOL0     C45961   9.857   4.877   3.746 -0.2234 -0.8621 -0.4676
  349MOL0     C45962   9.885   4.963   3.856 -0.0886  0.4467 -0.4108
  349MOL0     C45963   9.792   4.956   3.958 -0.9027 -0.8182  0.2310
  349MOL0     C45964   9.686   4.867   3.973  0.9807  1.3352 -0.4246
  349MOL0     C45965   9.586   4.867   4.080  0.4563  0.3669  0.0792
  349MOL0     O45966   9.490   4.775   4.093 -0.1267  0.2273 -0.1773
  349MOL0     C45967   9.412   4.778   4.199  0.8060  0.1021 -0.0633
  349MOL0     C45968   9.445   4.798   4.340  0.1624  0.0352 -0.6342
  349MOL0     C45969   9.355   4.817   4.445 -0.1230 -0.3774 -0.9241
  349MOL0     C45970   9.221   4.813   4.412  0.2902 -0.2696  0.1300
  349MOL0     O45971   9.136   4.785   4.518  0.5523 -0.6768  0.3278
  349MOL0     C45972   9.143   4.853   4.640 -0.0755  0.7572  0.4052
  349MOL0     C45973   9.183   4.750   4.748 -0.4366 -0.6878  0.0552
  349MOL0     C45974   9.187   4.806   4.888  0.0372 -0.3764  0.3081
  349MOL0     C45975   9.222   4.693   4.991  0.7466  0.3676  0.0347
  349MOL0     C45976   9.257   4.741   5.132  0.7685  1.1981 -0.0291
  349MOL0     C45977   9.162   4.840   5.196  0.2379 -0.2529  0.0538
  349MOL0     C45978   9.227   4.904   5.320 -0.1219 -0.2295 -0.6393
  349MOL0     C45979   9.302   5.028   5.272 -0.1602 -0.9168  0.2140
  349MOL0    Cl45980   9.167   5.160   5.216  0.5337  0.0581 -0.4395
  349MOL0     C45981   9.178   4.802   4.282  0.7280  0.4932  0.3200
  349MOL0     C45982   9.269   4.776   4.181 -0.8348 -0.3046  1.0266
  349MOL0     O45983   9.606   4.964   4.155 -0.5273  0.4794 -0.3877
  349MOL0     C45984   9.669   4.779   3.863  0.2384  0.3091  0.5127
  349MOL0     C45985   9.752   4.785   3.757  0.4511 -0.5832 -0.1463
  349MOL0     N45986  10.306   4.723   3.949 -0.4048 -0.6140  0.0995
  349MOL0     N45987  10.273   4.619   4.017  1.0108 -0.5194 -0.4371
  349MOL0     C45988   9.222   4.454   4.506  0.1035  0.1072 -0.0290
  349MOL0     C45989   9.106   4.415   4.575 -0.3223 -0.6940  0.1516
  349MOL0     C45990   8.831   4.301   4.933  0.7297 -0.2492  0.4067
  349MOL0     C45991   8.772   4.213   5.023 -1.1730  0.1568  1.4295
  349MOL0     C45992   8.645   4.250   5.079 -0.3937  0.6770  0.2639
  349MOL0     C45993   8.580   4.366   5.047  0.3565  1.6373 -0.2090
  349MOL0     O45994   8.449   4.395   5.090 -0.3261 -0.7573  0.0831
  349MOL0     C45995   8.415   4.338   5.225 -0.0100 -0.2304 -0.7221
  349MOL0     C45996   8.332   4.437   5.299 -0.4710 -0.2298 -0.3453
  349MOL0     C45997   8.193   4.445   5.231  0.2073 -0.3507 -0.3219
  349MOL0     C45998   8.101   4.557   5.304 -0.0686  0.6320 -0.0814
  349MOL0     C45999   8.167   4.683   5.288  1.0407 -0.5488 -0.8229
  349MOL0     C46000   8.227   4.786   5.263 -0.4681 -0.1935  0.3276
  349MOL0     C46001   8.644   4.460   4.971  0.8070  0.5132  0.1470
  349MOL0     C46002   8.765   4.421   4.902 -0.3204 -0.0771  0.4692
  349MOL0     H46003   9.267   4.244   4.837  1.0855 -0.5652 -0.7773
  349MOL0     H46004   9.453   4.263   4.686  0.6939 -0.0227 -1.2612
  349MOL0     H46005   9.616   4.374   4.551 -0.5731 -0.8280 -1.9332
  349MOL0     H46006   9.564   4.536   4.596 -0.4215  2.2071 -2.2507
  349MOL0     H46007   9.759   4.564   4.473  1.4828 -4.6232  2.0191
  349MOL0     H46008   9.639   4.629   4.368  1.1353  0.9510 -1.2519
  349MOL0     H46009   9.631   4.430   4.231 -0.7505  2.4998  1.0185
  349MOL0     H46010   9.742   4.338   4.335 -1.7114 -0.9057 -0.3610
  349MOL0     H46011   9.838   4.603   4.206 -2.4762  0.5495  3.2093
  349MOL0     H46012   9.917   4.490   4.320 -0.0295 -1.9032 -0.3215
  349MOL0     H46013   9.813   4.400   4.043  0.8045  1.9092 -1.3443
  349MOL0     H46014   9.891   4.302   4.153  0.1513 -0.2208  3.2713
  349MOL0     H46015  10.102   4.442   4.146  0.1817 -1.3320 -0.0349
  349MOL0     H46016  10.016   4.546   4.039 -0.1919  0.2328  0.4887
  349MOL0     H46017  10.068   4.255   3.965  0.9922  0.6551  2.7865
  349MOL0     H46018  10.028   4.379   3.853 -0.0258 -1.3294  0.3495
  349MOL0     H46019  10.260   4.301   3.867  0.2085  2.3676 -3.2755
  349MOL0     H46020  10.266   4.338   4.046 -0.3795  0.3614  0.5915
  349MOL0     H46021  10.333   4.503   3.709  1.2260 -1.1005  0.6826
  349MOL0     H46022  10.447   4.740   3.657 -1.3971 -0.0775 -1.8341
  349MOL0     H46023  10.396   4.874   3.767 -1.0505  0.7897 -1.3869
  349MOL0     H46024  10.190   4.721   3.613 -0.1943 -0.4864  2.5359
  349MOL0     H46025  10.290   4.840   3.524  2.5952  0.0816  1.2041
  349MOL0     H46026  10.135   4.910   3.783  0.3797 -0.6711 -0.6780
  349MOL0     H46027  10.227   5.013   3.673  1.4997 -0.6982  1.0746
  349MOL0     H46028  10.066   4.983   3.495 -0.4598 -2.6867 -1.2267
  349MOL0     H46029  10.004   5.065   3.641  1.2511 -0.7060  1.4743
  349MOL0     H46030   9.968   5.032   3.849 -0.8181  1.7577  2.2545
  349MOL0     H46031   9.812   5.045   4.016 -1.5545 -1.7873  2.0433
  349MOL0     H46032   9.545   4.835   4.362  0.1046  0.0240 -0.3540
  349MOL0     H46033   9.394   4.837   4.544  1.9338  1.3124 -1.9891
  349MOL0     H46034   9.045   4.900   4.644  0.0765  1.0072  1.4436
  349MOL0     H46035   9.222   4.929   4.642  1.2079 -0.5360  2.4202
  349MOL0     H46036   9.278   4.704   4.718  0.1816  0.1331  0.6906
  349MOL0     H46037   9.116   4.663   4.747 -1.8839  0.1494  4.2655
  349MOL0     H46038   9.092   4.852   4.918  1.2585 -0.3781  5.0826
  349MOL0     H46039   9.258   4.889   4.891  0.4015 -0.6443 -0.5495
  349MOL0     H46040   9.138   4.624   5.008  2.1730 -1.2862  0.6274
  349MOL0     H46041   9.295   4.623   4.951  0.3478 -1.0274  1.6169
  349MOL0     H46042   9.354   4.791   5.131  1.1339  0.5125  0.6275
  349MOL0     H46043   9.278   4.653   5.194  3.1190  0.9137 -1.1228
  349MOL0     H46044   9.072   4.784   5.224 -0.2451  1.2005  1.5511
  349MOL0     H46045   9.126   4.913   5.123  3.0396 -1.6657 -2.9983
  349MOL0     H46046   9.145   4.934   5.385 -0.9741 -0.1711 -1.7130
  349MOL0     H46047   9.291   4.834   5.375 -0.8436 -1.4286 -1.2686
  349MOL0     H46048   9.373   5.000   5.194  0.5224 -3.2638  1.5551
  349MOL0     H46049   9.360   5.074   5.352  1.5297 -0.5510 -1.1726
  349MOL0     H46050   9.075   4.804   4.249  0.6453  2.7084  0.5460
  349MOL0     H46051   9.230   4.778   4.080 -0.9722  3.2862  1.0175
  349MOL0     H46052   9.595   4.700   3.869  1.0283 -0.5363 -0.5371
  349MOL0     H46053   9.742   4.708   3.681  0.6453 -1.1340  0.3850
  349MOL0     H46054   9.212   4.498   4.408  1.3835  0.3154 -0.0923
  349MOL0     H46055   9.006   4.436   4.538  0.8735  1.8746 -1.8560
  349MOL0     H46056   8.828   4.125   5.054  0.2945  1.0959  1.5284
  349MOL0     H46057   8.602   4.169   5.137  1.8827 -2.4232 -2.0124
  349MOL0     H46058   8.501   4.335   5.292 -1.5534 -0.0498  1.3717
  349MOL0     H46059   8.363   4.243   5.211 -1.7693  0.3878  1.2094
  349MOL0     H46060   8.337   4.398   5.401  4.1299  0.3181 -0.1856
  349MOL0     H46061   8.378   4.536   5.302  1.9072 -1.1166 -2.8835
  349MOL0     H46062   8.142   4.348   5.224 -0.2424  0.0360 -3.9634
  349MOL0     H46063   8.220   4.468   5.128 -0.2624  1.4878 -0.0655
  349MOL0     H46064   8.004   4.553   5.255 -0.3549 -1.4608  0.5667
  349MOL0     H46065   8.090   4.539   5.412  1.3513  1.7255  0.2767
  349MOL0     H46066   8.282   4.872   5.230 -2.0815  1.0125  0.6470
  349MOL0     H46067   8.586   4.549   4.951  0.0617  0.3666  1.5138
  349MOL0     H46068   8.804   4.481   4.821 -1.2308  0.0474  0.1059
  350MOL0     O46069   3.271   4.200   6.661  0.0178  0.0099 -0.1472
  350MOL0     C46070   3.262   4.211   6.541  0.0102 -0.1178  0.5685
  350MOL0     O46071   3.233   4.329   6.479 -0.0514 -0.3964 -0.4434
  350MOL0     C46072   3.221   4.441   6.562  0.2104  0.0804 -0.6045
  350MOL0     C46073   3.327   4.529   6.594 -0.5475  0.4102 -0.6848
  350MOL0     C46074   3.309   4.627   6.690 -1.0810 -1.1193  0.4072
  350MOL0     C46075   3.184   4.638   6.766 -0.1181  0.8567  0.4272
  350MOL0     O46076   3.172   4.726   6.865 -0.4278 -0.2791  0.0711
  350MOL0     C46077   3.270   4.698   6.964  0.2559  0.3851 -1.3008
  350MOL0     C46078   3.210   4.741   7.102 -0.0096  0.2353  0.5444
  350MOL0     C46079   3.235   4.888   7.137 -0.1558 -0.4326  0.4246
  350MOL0     C46080   3.107   4.966   7.149  0.9726 -0.2239 -0.8519
  350MOL0     C46081   3.134   5.122   7.151  0.5183 -0.3610 -0.4137
  350MOL0     C46082   3.240   5.157   7.262  0.9522 -1.2365  0.1319
  350MOL0     C46083   3.248   5.309   7.292  0.2134  0.0814  0.7064
  350MOL0     C46084   3.346   5.355   7.400  0.6751 -0.3688 -0.1570
  350MOL0     N46085   3.291   5.453   7.493  0.0516 -0.3030 -0.7422
  350MOL0     C46086   3.232   5.575   7.457 -0.7002 -0.6720 -0.4715
  350MOL0     C46087   3.180   5.629   7.571 -0.2130 -0.7680 -0.1456
  350MOL0     C46088   3.117   5.762   7.571 -0.8792 -0.9758 -0.6192
  350MOL0     C46089   2.969   5.767   7.619  1.0051 -0.4831  0.0836
  350MOL0     C46090   2.920   5.906   7.657 -0.7540 -0.1188 -0.5629
  350MOL0     C46091   2.772   5.916   7.682 -0.1237 -0.3246  0.2558
  350MOL0     O46092   2.719   6.031   7.743 -0.1512 -0.4963 -0.0802
  350MOL0     C46093   2.708   6.150   7.681  0.8762  0.0088  0.2256
  350MOL0     C46094   2.670   6.247   7.766  0.2036 -0.1119  0.2185
  350MOL0     C46095   2.664   6.382   7.725 -0.1574  0.5215  0.0901
  350MOL0     C46096   2.671   6.411   7.590 -0.0143 -0.2156 -0.4224
  350MOL0     C46097   2.660   6.556   7.543  0.1400 -0.0621 -0.4938
  350MOL0     O46098   2.597   6.639   7.631  0.3070  0.4923 -0.2853
  350MOL0     C46099   2.598   6.769   7.603 -0.4653  0.5920  0.7696
  350MOL0     C46100   2.492   6.822   7.528  0.7081  0.0356  1.1498
  350MOL0     C46101   2.486   6.956   7.510  0.8445  0.3157  0.2157
  350MOL0     C46102   2.580   7.044   7.572  0.3753  0.2369 -0.4050
  350MOL0     O46103   2.552   7.179   7.550  0.1128  0.2289  0.3956
  350MOL0     C46104   2.655   7.284   7.567  0.2080 -0.6357  0.2282
  350MOL0     C46105   2.639   7.357   7.709 -0.5691  0.3900 -0.7538
  350MOL0     C46106   2.605   7.508   7.704  0.4338  0.5910  0.7220
  350MOL0     C46107   2.569   7.553   7.845 -0.3065 -0.7053 -0.3292
  350MOL0     C46108   2.568   7.698   7.882  0.5291  0.1096 -0.0110
  350MOL0     C46109   2.690   7.785   7.832  0.4856 -0.1193  0.2134
  350MOL0     C46110   2.646   7.936   7.858 -0.7436 -0.3252 -0.3306
  350MOL0     C46111   2.717   8.012   7.963  0.6433  0.9421  1.3943
  350MOL0    Cl46112   2.673   7.961   8.120  0.0959  0.0268 -0.0320
  350MOL0     C46113   2.686   6.988   7.652 -0.3162  0.9540 -0.9231
  350MOL0     C46114   2.698   6.850   7.669 -0.1706  0.1760  0.7724
  350MOL0     O46115   2.710   6.594   7.435 -0.0930 -0.4903  0.0892
  350MOL0     C46116   2.709   6.309   7.499  0.2794 -0.1121  0.3960
  350MOL0     C46117   2.734   6.181   7.544  0.1726 -0.0847 -0.3539
  350MOL0     N46118   3.203   5.541   7.674 -0.3922  0.0451  0.1027
  350MOL0     N46119   3.265   5.434   7.626  0.0646 -0.0108 -0.0449
  350MOL0     C46120   3.084   4.554   6.740 -0.4394 -0.3115  1.1540
  350MOL0     C46121   3.110   4.455   6.641  0.6002  0.6407 -0.6804
  350MOL0     C46122   3.271   4.091   6.466  0.7909  0.6457  0.4999
  350MOL0     C46123   3.280   4.111   6.330  0.2091 -0.9330  0.5755
  350MOL0     C46124   3.263   3.997   6.246 -0.9642  0.5077  0.3028
  350MOL0     C46125   3.239   3.871   6.295  0.5406 -0.3881 -1.3900
  350MOL0     O46126   3.212   3.761   6.217  0.6897 -0.1819 -0.0470
  350MOL0     C46127   3.305   3.721   6.121  0.0197  0.2321 -0.5760
  350MOL0     C46128   3.405   3.617   6.168  0.3144 -0.4905  0.7763
  350MOL0     C46129   3.503   3.552   6.059 -0.0200 -0.4043  0.8642
  350MOL0     C46130   3.602   3.463   6.126  0.9709  0.3489 -0.1026
  350MOL0     C46131   3.702   3.539   6.206  0.1198  0.4122 -1.3107
  350MOL0     C46132   3.774   3.600   6.279  0.1539  0.3580  0.3990
  350MOL0     C46133   3.235   3.847   6.433  0.8890 -0.4558  0.2288
  350MOL0     C46134   3.251   3.964   6.511  0.0613  0.1721  0.4094
  350MOL0     H46135   3.423   4.524   6.545 -0.6297 -1.1312 -0.7429
  350MOL0     H46136   3.395   4.686   6.719  1.0461 -3.0424 -1.5621
  350MOL0     H46137   3.366   4.744   6.939  1.2297 -0.3899  0.8676
  350MOL0     H46138   3.288   4.591   6.977  1.7709  0.7931  0.3487
  350MOL0     H46139   3.250   4.676   7.180  1.7774  1.6702  0.8941
  350MOL0     H46140   3.105   4.710   7.097  0.6727 -2.4399  1.3023
  350MOL0     H46141   3.282   4.927   7.046 -1.2721  0.1236  0.0632
  350MOL0     H46142   3.297   4.889   7.227  2.0136 -0.2347 -1.0034
  350MOL0     H46143   3.055   4.936   7.057  1.3526  0.7657 -1.4036
  350MOL0     H46144   3.064   4.918   7.237  2.1477 -0.3991 -0.3553
  350MOL0     H46145   3.048   5.184   7.178  0.7965 -1.4660  3.7306
  350MOL0     H46146   3.173   5.150   7.053  2.3937  0.0722  0.4061
  350MOL0     H46147   3.333   5.119   7.220  0.1372 -2.4941 -0.5772
  350MOL0     H46148   3.220   5.098   7.353  0.8798 -0.3143  0.7316
  350MOL0     H46149   3.274   5.358   7.198 -1.4546 -1.9562 -0.9252
  350MOL0     H46150   3.149   5.348   7.317 -0.4625 -0.6308 -0.7088
  350MOL0     H46151   3.436   5.384   7.345  0.8316 -1.0105 -0.2404
  350MOL0     H46152   3.387   5.272   7.458  1.1132 -0.7085 -0.9495
  350MOL0     H46153   3.216   5.623   7.361  2.8519 -0.5223 -1.1199
  350MOL0     H46154   3.136   5.801   7.470  3.1302  2.7662  1.2028
  350MOL0     H46155   3.173   5.823   7.643  0.0157 -1.4491 -0.9086
  350MOL0     H46156   2.965   5.694   7.701  0.5817  0.1547  0.6413
  350MOL0     H46157   2.896   5.734   7.544  0.1698  3.2332 -0.9316
  350MOL0     H46158   2.968   5.939   7.749 -0.5829 -1.9722  0.0617
  350MOL0     H46159   2.950   5.982   7.585 -0.0082  0.2967  0.1766
  350MOL0     H46160   2.724   5.823   7.715 -0.6861 -0.4458 -0.8505
  350MOL0     H46161   2.725   5.912   7.584 -1.4247 -0.9782  0.8915
  350MOL0     H46162   2.642   6.226   7.868 -0.8706  1.1336  0.2015
  350MOL0     H46163   2.647   6.463   7.795 -2.9580 -1.0627  1.4104
  350MOL0     H46164   2.424   6.753   7.479  0.9101 -1.0164  2.2982
  350MOL0     H46165   2.403   6.993   7.450 -0.8666  1.0953  2.8815
  350MOL0     H46166   2.643   7.360   7.490 -3.9797  1.2237  2.3945
  350MOL0     H46167   2.757   7.245   7.566 -0.6173 -2.9570  0.3475
  350MOL0     H46168   2.734   7.347   7.764 -0.9151  1.5672  0.1282
  350MOL0     H46169   2.555   7.302   7.753 -3.4595  4.8973  0.1442
  350MOL0     H46170   2.518   7.529   7.640 -1.3630  1.7299  3.3755
  350MOL0     H46171   2.693   7.561   7.667 -0.2974  0.2594 -1.6925
  350MOL0     H46172   2.469   7.510   7.854 -0.5977 -0.0850 -0.5488
  350MOL0     H46173   2.628   7.500   7.920 -0.1678  0.7366  0.6261
  350MOL0     H46174   2.560   7.705   7.991 -1.0399 -0.6506 -0.0587
  350MOL0     H46175   2.482   7.744   7.833 -2.2827 -3.6556  0.9688
  350MOL0     H46176   2.701   7.772   7.724  0.1164  1.0386  0.0286
  350MOL0     H46177   2.785   7.760   7.881 -0.4518 -0.2243  2.0572
  350MOL0     H46178   2.662   7.983   7.761 -0.2375 -1.1138 -0.6347
  350MOL0     H46179   2.538   7.947   7.874 -0.6287 -0.8803  0.9624
  350MOL0     H46180   2.704   8.121   7.958 -1.3972  0.6842 -0.7000
  350MOL0     H46181   2.823   7.991   7.946  0.3224 -0.7089  1.3215
  350MOL0     H46182   2.750   7.045   7.718  0.5456  1.7636 -2.4073
  350MOL0     H46183   2.773   6.801   7.730  0.0736  1.4934  1.5673
  350MOL0     H46184   2.723   6.345   7.398 -2.0261  3.1671  1.0744
  350MOL0     H46185   2.768   6.110   7.470 -0.2462 -2.8425  1.9615
  350MOL0     H46186   2.992   4.552   6.798  0.7182  2.4485  3.3369
  350MOL0     H46187   3.031   4.380   6.634 -0.3919  1.0696  3.5364
  350MOL0     H46188   3.317   4.204   6.288  2.8030 -2.6157 -1.1096
  350MOL0     H46189   3.270   4.007   6.138 -0.6018 -0.5000  0.2216
  350MOL0     H46190   3.355   3.804   6.069 -1.5517  2.4661  1.2515
  350MOL0     H46191   3.243   3.670   6.047  1.6491 -0.5797 -1.4416
  350MOL0     H46192   3.470   3.679   6.231  0.5808 -0.2991  0.3173
  350MOL0     H46193   3.361   3.536   6.227 -1.7495 -1.7866 -2.2933
  350MOL0     H46194   3.553   3.630   6.001  0.8935 -3.0776 -2.2228
  350MOL0     H46195   3.441   3.497   5.988 -1.5080  3.2490 -0.9130
  350MOL0     H46196   3.547   3.378   6.167  0.7823  0.2778 -0.4976
  350MOL0     H46197   3.661   3.420   6.045  0.4987 -0.2173 -0.1462
  350MOL0     H46198   3.840   3.656   6.342  1.3059  0.6788 -1.0169
  350MOL0     H46199   3.214   3.749   6.474  0.2417  1.0849  3.9357
  350MOL0     H46200   3.270   3.940   6.616  1.5788 -1.4635 -0.1771
  351MOL0     O46201   6.243   0.605   8.611  0.7455 -0.0343 -0.2549
  351MOL0     C46202   6.271   0.615   8.495 -0.2274  0.4900  0.1760
  351MOL0     O46203   6.237   0.537   8.392  0.4125  0.4153 -0.3578
  351MOL0     C46204   6.153   0.427   8.394 -0.1050 -0.0104  0.1012
  351MOL0     C46205   6.071   0.382   8.496 -0.3022 -0.5636 -1.0722
  351MOL0     C46206   6.001   0.254   8.482 -0.1196 -1.2311  0.9679
  351MOL0     C46207   5.995   0.192   8.356 -0.3214 -0.0134 -1.1384
  351MOL0     O46208   5.940   0.064   8.327 -0.6542  0.1369 -0.3581
  351MOL0     C46209   5.825   0.043   8.405  0.2460  0.7660  1.0865
  351MOL0     C46210   5.737  -0.061   8.334 -0.7887 -0.0818 -0.0623
  351MOL0     C46211   5.640   0.006   8.247 -0.8164  0.5425  0.1330
  351MOL0     C46212   5.568  -0.106   8.160 -0.6950 -0.3273  0.1246
  351MOL0     C46213   5.466  -0.022   8.068  0.0671 -0.2932 -0.0292
  351MOL0     C46214   5.403  -0.123   7.962 -0.3634 -0.8724  0.4367
  351MOL0     C46215   5.493  -0.194   7.866 -0.0654 -0.4906  0.7369
  351MOL0     C46216   5.541  -0.094   7.751  0.1221 -0.0713 -0.2835
  351MOL0     N46217   5.660  -0.159   7.690  0.1182 -0.2663  0.1509
  351MOL0     C46218   5.784  -0.110   7.670  1.2382  0.1710 -0.1676
  351MOL0     C46219   5.843  -0.195   7.579 -0.1804 -0.1610  0.2818
  351MOL0     C46220   5.989  -0.173   7.535 -0.7108 -0.6188  0.4023
  351MOL0     C46221   6.077  -0.294   7.559 -0.2103  0.3107 -0.3659
  351MOL0     C46222   6.229  -0.273   7.525  0.1711 -0.6436  0.6546
  351MOL0     C46223   6.327  -0.187   7.614 -0.0288 -0.3507  0.3228
  351MOL0     O46224   6.284  -0.051   7.640 -0.6224  0.0502 -0.1268
  351MOL0     C46225   6.346   0.018   7.748 -0.0776  0.2267  0.0122
  351MOL0     C46226   6.474  -0.009   7.803 -0.4713  0.1756 -0.2942
  351MOL0     C46227   6.530   0.079   7.888 -0.5371 -0.5529 -0.5183
  351MOL0     C46228   6.462   0.191   7.938 -0.3200  0.1310 -0.2870
  351MOL0     C46229   6.517   0.267   8.052  0.3138 -0.2533 -0.3506
  351MOL0     O46230   6.643   0.248   8.105 -0.4312 -0.3888 -0.4597
  351MOL0     C46231   6.701   0.337   8.195 -0.1518 -0.0132 -0.2118
  351MOL0     C46232   6.830   0.380   8.165  0.8120  0.5461 -0.7689
  351MOL0     C46233   6.896   0.475   8.251 -0.4321 -0.4618  0.6472
  351MOL0     C46234   6.840   0.509   8.373  1.0640 -1.4794  0.5849
  351MOL0     O46235   6.914   0.597   8.438 -1.0246 -0.0179 -0.2017
  351MOL0     C46236   6.840   0.698   8.505  0.1403 -0.1508 -0.0561
  351MOL0     C46237   6.920   0.768   8.621 -0.1267 -0.0740 -0.0496
  351MOL0     C46238   6.987   0.664   8.721  0.2698  0.3907  0.4213
  351MOL0     C46239   7.056   0.733   8.846 -0.4173 -0.1906 -0.6714
  351MOL0     C46240   7.089   0.633   8.959 -0.7613 -0.4991 -0.1004
  351MOL0     C46241   7.104   0.705   9.089  0.8347  0.3559  0.1422
  351MOL0     C46242   7.144   0.594   9.200  0.3674  0.5122  0.6631
  351MOL0     C46243   7.129   0.665   9.338  0.3734 -0.6258 -0.1208
  351MOL0    Cl46244   7.273   0.775   9.358  0.0786  0.3296  0.6592
  351MOL0     C46245   6.711   0.448   8.410 -0.0810  0.2349  0.9141
  351MOL0     C46246   6.646   0.372   8.319  1.2559 -0.3871  0.1373
  351MOL0     O46247   6.438   0.352   8.094 -0.0668  0.3160 -0.0208
  351MOL0     C46248   6.346   0.232   7.872  0.1438  0.2162 -0.4126
  351MOL0     C46249   6.278   0.134   7.794 -0.6307  0.0078  0.6370
  351MOL0     N46250   5.739  -0.274   7.526  0.4727 -0.6778  0.2271
  351MOL0     N46251   5.633  -0.254   7.596 -0.6336  0.2666 -0.7473
  351MOL0     C46252   6.075   0.246   8.257  1.7934 -0.4302 -0.0897
  351MOL0     C46253   6.153   0.359   8.272 -0.4215 -0.0495 -0.7548
  351MOL0     C46254   6.367   0.721   8.449  0.0792  0.0682 -1.1259
  351MOL0     C46255   6.439   0.716   8.326 -0.4452 -0.4955  0.1407
  351MOL0     C46256   6.533   0.820   8.300  0.1175 -0.1591 -0.0890
  351MOL0     C46257   6.554   0.934   8.377  0.2319  0.6549 -0.3916
  351MOL0     O46258   6.639   1.035   8.350 -0.5041  0.6863  0.0572
  351MOL0     C46259   6.716   1.051   8.232  0.1197  0.3298  0.0567
  351MOL0     C46260   6.836   1.149   8.267  0.5218  0.6223 -0.3353
  351MOL0     C46261   6.936   1.070   8.345  0.4684 -0.4363  0.4994
  351MOL0     C46262   7.061   1.153   8.388 -0.3894 -0.0826 -0.1400
  351MOL0     C46263   7.139   1.094   8.493 -0.1572 -0.6950 -0.2998
  351MOL0     C46264   7.192   1.036   8.588 -0.0808  0.6120  1.3258
  351MOL0     C46265   6.479   0.937   8.497 -0.1037  0.3141 -0.5241
  351MOL0     C46266   6.386   0.840   8.525  1.1633 -0.4017 -0.2892
  351MOL0     H46267   6.052   0.432   8.590  0.9001 -1.2192 -0.4525
  351MOL0     H46268   5.951   0.209   8.567  1.2264 -0.2929  2.3070
  351MOL0     H46269   5.764   0.133   8.398  0.4550  0.8021 -2.4860
  351MOL0     H46270   5.835   0.012   8.509 -1.7771 -0.6246  0.9302
  351MOL0     H46271   5.681  -0.111   8.413 -1.0833  0.1519 -0.1217
  351MOL0     H46272   5.788  -0.138   8.275  0.1127 -1.1136  1.9504
  351MOL0     H46273   5.698   0.074   8.184  0.4618 -1.6271 -1.1563
  351MOL0     H46274   5.569   0.058   8.311  1.9259  0.8516  3.1771
  351MOL0     H46275   5.646  -0.153   8.099  2.9025  5.0229 -0.1029
  351MOL0     H46276   5.524  -0.182   8.225 -2.6161  1.6052  1.2054
  351MOL0     H46277   5.519   0.062   8.024 -3.5643  1.2046 -1.9828
  351MOL0     H46278   5.390   0.018   8.136  2.0594  2.2186  0.8539
  351MOL0     H46279   5.350  -0.053   7.898 -0.0994 -1.1804 -0.1249
  351MOL0     H46280   5.340  -0.200   8.006 -1.2821  0.2104  1.0565
  351MOL0     H46281   5.575  -0.251   7.911  1.5157 -3.2301 -4.7353
  351MOL0     H46282   5.436  -0.271   7.813  1.3367 -0.5170 -0.8065
  351MOL0     H46283   5.577   0.004   7.785 -1.1138  0.8764 -1.6067
  351MOL0     H46284   5.461  -0.087   7.677 -0.0330 -2.8484 -0.4787
  351MOL0     H46285   5.832  -0.026   7.718  1.3625  0.5271 -0.8969
  351MOL0     H46286   6.035  -0.085   7.581  2.4543 -1.4645 -0.8270
  351MOL0     H46287   5.988  -0.150   7.428 -2.4692 -0.7861  0.3572
  351MOL0     H46288   6.049  -0.380   7.497  1.4290 -1.6005  1.3791
  351MOL0     H46289   6.068  -0.316   7.666 -1.2814 -1.2194 -0.7350
  351MOL0     H46290   6.266  -0.376   7.530 -2.2491 -1.5734  0.3965
  351MOL0     H46291   6.225  -0.232   7.423 -1.0487  1.9569  1.6697
  351MOL0     H46292   6.426  -0.182   7.568  2.1235  1.8311  4.5894
  351MOL0     H46293   6.340  -0.227   7.715  2.5770  1.6317  0.8697
  351MOL0     H46294   6.525  -0.097   7.766  0.5340 -0.0479  1.5384
  351MOL0     H46295   6.622   0.048   7.935 -1.1566 -1.7694 -0.0682
  351MOL0     H46296   6.882   0.344   8.077 -0.6963  1.6511 -2.1862
  351MOL0     H46297   6.992   0.510   8.215 -0.7162  1.1816  1.3804
  351MOL0     H46298   6.757   0.646   8.554  0.2799 -0.9091 -0.5994
  351MOL0     H46299   6.798   0.777   8.442  1.0560  0.8003  0.4951
  351MOL0     H46300   6.852   0.827   8.684  0.4308 -2.0159  2.5252
  351MOL0     H46301   6.989   0.835   8.569  1.4239 -1.8793 -0.4525
  351MOL0     H46302   7.057   0.595   8.673  0.0737 -0.2050  0.9792
  351MOL0     H46303   6.905   0.604   8.760  0.7559  0.1114  1.0304
  351MOL0     H46304   7.140   0.791   8.807 -1.7928  2.1725 -0.3551
  351MOL0     H46305   6.992   0.806   8.896  0.7311 -0.8045  1.8170
  351MOL0     H46306   7.182   0.590   8.922  1.2395  4.4601 -1.6835
  351MOL0     H46307   7.009   0.558   8.968  0.0565 -1.4333 -0.4270
  351MOL0     H46308   7.013   0.762   9.112  2.6842  3.3877  0.4819
  351MOL0     H46309   7.186   0.777   9.089 -0.5509  2.0198 -1.1853
  351MOL0     H46310   7.081   0.506   9.192  1.6109 -0.5674  2.0925
  351MOL0     H46311   7.245   0.557   9.178 -1.2377 -1.8181 -4.1195
  351MOL0     H46312   7.127   0.594   9.421  0.9079 -1.0473 -0.4603
  351MOL0     H46313   7.033   0.716   9.343  0.8784  0.3813 -0.3502
  351MOL0     H46314   6.671   0.471   8.508 -0.3769  0.6441  0.6984
  351MOL0     H46315   6.547   0.328   8.326  1.0563 -0.0717 -0.5323
  351MOL0     H46316   6.292   0.321   7.902  3.1704  1.8536  0.6015
  351MOL0     H46317   6.187   0.169   7.746 -1.5925  1.7855  3.4654
  351MOL0     H46318   6.060   0.195   8.162  1.8383 -2.2548  0.8418
  351MOL0     H46319   6.213   0.389   8.187  2.0237  0.3177  0.9933
  351MOL0     H46320   6.433   0.645   8.244  0.5681 -0.9916  0.4738
  351MOL0     H46321   6.589   0.822   8.207  0.1654  2.4300 -0.0846
  351MOL0     H46322   6.658   1.102   8.154  3.3873  0.4812 -2.5124
  351MOL0     H46323   6.760   0.955   8.201  3.4166  1.8462 -0.3862
  351MOL0     H46324   6.889   1.185   8.178  0.8635  3.0813  0.7813
  351MOL0     H46325   6.798   1.236   8.322 -2.5195 -1.5684  1.3218
  351MOL0     H46326   6.968   0.974   8.303 -0.2759 -0.8165  0.7882
  351MOL0     H46327   6.892   1.054   8.444  1.2626  0.4183  1.0048
  351MOL0     H46328   7.119   1.152   8.295 -0.3059  2.4270 -0.1983
  351MOL0     H46329   7.036   1.256   8.416 -3.0900 -0.7082  0.1045
  351MOL0     H46330   7.213   0.991   8.683  2.7390  3.2792  2.1228
  351MOL0     H46331   6.480   1.020   8.567  0.1658 -2.1652  2.6693
  351MOL0     H46332   6.339   0.863   8.620 -1.2008  2.2370 -1.9343
  352MOL0     O46333   5.011   9.607   4.066 -0.0079 -0.0041  0.1263
  352MOL0     C46334   5.073   9.658   3.974  0.1681  0.6344  0.0452
  352MOL0     O46335   5.208   9.638   3.952  0.2043  0.5050  0.4397
  352MOL0     C46336   5.267   9.542   4.028 -0.8664  0.3097  0.3970
  352MOL0     C46337   5.254   9.407   3.992 -0.0428  1.2967 -0.0184
  352MOL0     C46338   5.323   9.314   4.063  0.2855  0.4452  0.0664
  352MOL0     C46339   5.398   9.337   4.183  0.0529  1.2809  0.2625
  352MOL0     O46340   5.461   9.245   4.269 -0.3220 -0.0019  0.9715
  352MOL0     C46341   5.505   9.118   4.211  0.5423  0.7190  0.1236
  352MOL0     C46342   5.591   9.052   4.318 -0.7658 -0.6651  1.0699
  352MOL0     C46343   5.520   8.989   4.445  0.7883 -0.2459  0.4656
  352MOL0     C46344   5.490   8.840   4.421  0.0431  0.6719  0.0733
  352MOL0     C46345   5.429   8.778   4.548 -0.3725  0.5537 -1.2376
  352MOL0     C46346   5.299   8.833   4.615 -1.3461  0.5148  0.0378
  352MOL0     C46347   5.185   8.797   4.527 -0.3691  0.0184  0.9087
  352MOL0     C46348   5.042   8.857   4.565 -0.4293  0.3913 -0.0086
  352MOL0     N46349   5.059   9.004   4.606  0.0153  0.4788 -0.2110
  352MOL0     C46350   5.089   9.106   4.519  1.1776 -0.6740 -1.0389
  352MOL0     C46351   5.122   9.219   4.591 -0.0685  0.2917 -0.3297
  352MOL0     C46352   5.163   9.349   4.539  0.0164 -0.8104  0.0792
  352MOL0     C46353   5.072   9.410   4.435 -0.3249  0.1867  0.2729
  352MOL0     C46354   4.921   9.429   4.471  0.3503 -1.1326 -0.0815
  352MOL0     C46355   4.844   9.507   4.358 -0.4340  0.1076  0.0264
  352MOL0     O46356   4.698   9.492   4.367 -0.0126  0.4110 -0.3352
  352MOL0     C46357   4.629   9.605   4.354 -1.4878  0.4157  0.4090
  352MOL0     C46358   4.524   9.622   4.435  0.0696  0.9543 -0.0542
  352MOL0     C46359   4.447   9.735   4.438  0.8434  0.8839 -0.5496
  352MOL0     C46360   4.467   9.835   4.342  0.2871  0.2909 -0.9262
  352MOL0     C46361   4.383   9.953   4.324  0.4523 -0.5192  0.2516
  352MOL0     O46362   4.423  10.039   4.221 -0.4675 -0.3611 -0.4229
  352MOL0     C46363   4.354  10.151   4.194  0.1555  0.2049 -0.1939
  352MOL0     C46364   4.407  10.265   4.251  0.8151  0.4530  0.3499
  352MOL0     C46365   4.328  10.385   4.251  0.0033 -0.2060  0.1100
  352MOL0     C46366   4.193  10.385   4.202  0.1132 -0.3333  0.0656
  352MOL0     O46367   4.109  10.492   4.224  0.2153  0.0234  0.5811
  352MOL0     C46368   4.152  10.599   4.310 -0.3438 -0.1754 -0.6168
  352MOL0     C46369   4.052  10.709   4.354  1.0652  0.5384 -0.0182
  352MOL0     C46370   3.950  10.754   4.241  0.1539 -0.5665 -0.8768
  352MOL0     C46371   3.846  10.859   4.289  0.1018  0.5237 -0.0489
  352MOL0     C46372   3.893  11.005   4.272 -0.9344 -0.0233 -0.1309
  352MOL0     C46373   3.892  11.053   4.131 -0.3031  0.4618  0.4781
  352MOL0     C46374   3.932  11.198   4.134 -0.6998 -0.8633  0.1709
  352MOL0     C46375   3.898  11.272   3.999  0.1777  0.2199 -0.1059
  352MOL0    Cl46376   3.962  11.435   4.013 -0.2156 -0.2763  0.3248
  352MOL0     C46377   4.134  10.273   4.143  0.4358  0.2839 -0.4652
  352MOL0     C46378   4.212  10.148   4.149 -0.9581 -0.3151 -0.0826
  352MOL0     O46379   4.276   9.962   4.384  0.1843  0.1191 -0.0177
  352MOL0     C46380   4.574   9.824   4.258 -0.2484 -0.2510  0.3486
  352MOL0     C46381   4.657   9.704   4.258 -0.0711 -0.3376  0.4396
  352MOL0     N46382   5.100   9.184   4.718 -0.0898  0.6304 -1.3797
  352MOL0     N46383   5.067   9.059   4.731 -0.3026 -0.2148 -0.7929
  352MOL0     C46384   5.406   9.473   4.219  0.1369 -1.2602 -0.5338
  352MOL0     C46385   5.338   9.573   4.143 -0.3805 -0.2100 -0.1088
  352MOL0     C46386   5.010   9.757   3.884 -0.7332  0.5956  0.4685
  352MOL0     C46387   4.873   9.779   3.890 -0.3554  0.1625 -1.2645
  352MOL0     C46388   4.811   9.861   3.798  0.2274 -0.4408  1.2503
  352MOL0     C46389   4.885   9.914   3.687 -0.1144 -1.0316 -0.4557
  352MOL0     O46390   4.808   9.973   3.598 -0.2654 -1.0117 -0.1525
  352MOL0     C46391   4.868  10.014   3.472 -0.1984  0.5986  0.0521
  352MOL0     C46392   4.756  10.057   3.390 -0.1370 -0.5203 -0.9058
  352MOL0     C46393   4.810  10.104   3.259 -0.5826 -0.3787 -0.5543
  352MOL0     C46394   4.697  10.172   3.170 -0.8791  0.4112 -0.7237
  352MOL0     C46395   4.586  10.075   3.137  0.6365  0.3544 -0.0051
  352MOL0     C46396   4.489  10.011   3.129  0.3426 -0.4779  0.2199
  352MOL0     C46397   5.024   9.905   3.681  1.0040  0.4213 -0.1548
  352MOL0     C46398   5.085   9.823   3.782  0.5593  0.3828 -1.7674
  352MOL0     H46399   5.195   9.379   3.905 -3.1171 -2.0232  2.8348
  352MOL0     H46400   5.319   9.216   4.015 -1.0812  2.2639 -4.0474
  352MOL0     H46401   5.564   9.126   4.119  2.6687 -0.8869  1.2607
  352MOL0     H46402   5.410   9.066   4.198  0.6097  0.9943 -1.8041
  352MOL0     H46403   5.649   9.140   4.349  0.6240 -0.5883 -1.5053
  352MOL0     H46404   5.658   8.980   4.271 -0.3226  2.3264 -3.5936
  352MOL0     H46405   5.428   9.038   4.475  1.3773  0.7511  0.6814
  352MOL0     H46406   5.595   9.005   4.522 -2.3469  0.6176  3.5882
  352MOL0     H46407   5.414   8.832   4.343 -2.0867  2.4493  1.8478
  352MOL0     H46408   5.572   8.785   4.375 -2.9853 -1.0990 -3.8019
  352MOL0     H46409   5.510   8.798   4.619 -1.8586  3.5340 -0.2379
  352MOL0     H46410   5.419   8.669   4.538 -0.0767  0.5607 -1.6412
  352MOL0     H46411   5.310   8.940   4.633 -0.3875  0.3822  0.2902
  352MOL0     H46412   5.283   8.774   4.706  0.2818  0.9662  0.6471
  352MOL0     H46413   5.215   8.818   4.425 -1.5577  0.7725  0.6904
  352MOL0     H46414   5.186   8.687   4.531  0.7279 -0.2891 -3.4222
  352MOL0     H46415   5.007   8.793   4.646  2.1935 -1.5218 -0.2702
  352MOL0     H46416   4.970   8.855   4.483 -2.2931 -2.8713  1.5285
  352MOL0     H46417   5.093   9.115   4.411  0.4378  4.0662 -0.8783
  352MOL0     H46418   5.265   9.345   4.498 -0.8139  1.4140 -2.4085
  352MOL0     H46419   5.164   9.418   4.624  0.4935 -0.4686 -0.1975
  352MOL0     H46420   5.074   9.359   4.339 -1.7034  1.8185 -0.6935
  352MOL0     H46421   5.119   9.505   4.408 -0.5129 -0.0779 -1.0614
  352MOL0     H46422   4.884   9.332   4.505 -3.4985  0.1864  0.0429
  352MOL0     H46423   4.903   9.488   4.561 -1.4356 -3.3555  1.1273
  352MOL0     H46424   4.872   9.475   4.257 -2.1630  1.4408 -0.9384
  352MOL0     H46425   4.869   9.613   4.361  2.0935 -0.3958 -0.9649
  352MOL0     H46426   4.504   9.548   4.512  1.3416  0.5468 -0.0956
  352MOL0     H46427   4.356   9.747   4.496  1.4249  2.1843  0.1435
  352MOL0     H46428   4.506  10.249   4.293  1.3457 -3.1778 -1.9292
  352MOL0     H46429   4.368  10.474   4.300 -2.9812  1.7387 -0.6929
  352MOL0     H46430   4.230  10.657   4.259 -2.3749 -0.8957 -5.1223
  352MOL0     H46431   4.178  10.548   4.402  1.6897  0.6377 -0.6857
  352MOL0     H46432   4.103  10.796   4.395  0.6589  0.9809 -0.4350
  352MOL0     H46433   3.993  10.675   4.439  3.4865 -1.5492  0.9705
  352MOL0     H46434   3.891  10.664   4.222 -2.1566  0.0168  2.5945
  352MOL0     H46435   4.015  10.784   4.159  0.7590  0.6034  0.0124
  352MOL0     H46436   3.753  10.850   4.233 -1.9842  0.5835  3.1002
  352MOL0     H46437   3.816  10.835   4.392 -1.6089  0.6065 -0.5107
  352MOL0     H46438   3.992  10.997   4.318 -1.0168 -1.1175 -0.1142
  352MOL0     H46439   3.833  11.071   4.334  0.4482  0.6596  0.5170
  352MOL0     H46440   3.790  11.043   4.094 -1.8902  2.5264  3.9010
  352MOL0     H46441   3.959  11.000   4.062  1.9115  1.7720  1.5170
  352MOL0     H46442   3.886  11.257   4.214  2.5977  1.9023  0.2011
  352MOL0     H46443   4.040  11.192   4.151 -0.8773  1.7834  3.2849
  352MOL0     H46444   3.791  11.276   3.981  0.1543  0.5366  0.1077
  352MOL0     H46445   3.949  11.226   3.913  1.9831 -0.8087  1.4400
  352MOL0     H46446   4.026  10.281   4.137  0.0849 -0.7040  2.8361
  352MOL0     H46447   4.165  10.051   4.139 -0.1197 -0.5467 -2.2545
  352MOL0     H46448   4.610   9.902   4.193  0.4270 -1.4676 -0.7803
  352MOL0     H46449   4.742   9.693   4.190  0.2741 -2.1316  1.1005
  352MOL0     H46450   5.472   9.485   4.304  1.7995 -5.5629 -0.9865
  352MOL0     H46451   5.351   9.678   4.166 -0.6460 -0.5199  1.5784
  352MOL0     H46452   4.808   9.727   3.960 -1.0669  0.0288 -2.0124
  352MOL0     H46453   4.707   9.883   3.820  0.5747  1.6299  1.0132
  352MOL0     H46454   4.906   9.920   3.429 -1.8519 -0.9058  1.6686
  352MOL0     H46455   4.956  10.076   3.486  0.8890 -1.2585  2.1418
  352MOL0     H46456   4.680   9.983   3.361 -1.7817  0.7433  0.0120
  352MOL0     H46457   4.716  10.151   3.429 -1.8170 -0.0697 -3.4557
  352MOL0     H46458   4.848  10.015   3.208  2.5167 -0.5765  1.7903
  352MOL0     H46459   4.890  10.178   3.267 -1.3408  0.8172 -2.9702
  352MOL0     H46460   4.659  10.258   3.228 -2.2454 -0.8930  0.4172
  352MOL0     H46461   4.739  10.214   3.079 -1.4939  1.6240 -0.4836
  352MOL0     H46462   4.396   9.958   3.116 -0.0254  0.3544 -0.6863
  352MOL0     H46463   5.081   9.957   3.604  0.0561 -0.8866 -1.7977
  352MOL0     H46464   5.194   9.820   3.782  0.7927  0.7862  3.0322
  353MOL0     O46465   2.518   3.665  11.245 -0.5645  0.2918  0.1269
  353MOL0     C46466   2.473   3.697  11.354 -0.2880 -0.6463  0.2661
  353MOL0     O46467   2.414   3.821  11.387 -0.0176 -0.9442  0.0888
  353MOL0     C46468   2.418   3.936  11.307 -0.4350  0.4681  0.1516
  353MOL0     C46469   2.463   4.055  11.368 -0.0776  0.0633 -0.1577
  353MOL0     C46470   2.477   4.174  11.299  0.4377  0.5532  0.2661
  353MOL0     C46471   2.463   4.173  11.159 -0.0456  0.2700 -0.6422
  353MOL0     O46472   2.499   4.278  11.074  0.2682  0.3342  0.3618
  353MOL0     C46473   2.582   4.257  10.960  0.8573  0.7421  0.7254
  353MOL0     C46474   2.692   4.363  10.963 -0.2053  0.3068 -1.5320
  353MOL0     C46475   2.797   4.347  10.858 -0.0341  0.1323  0.0971
  353MOL0     C46476   2.894   4.473  10.835  0.0509 -0.1114 -0.1288
  353MOL0     C46477   2.977   4.439  10.708  0.9482 -0.3381 -0.1470
  353MOL0     C46478   3.080   4.564  10.697  0.4622  0.8430 -0.6508
  353MOL0     C46479   2.993   4.690  10.656  1.1381 -0.9084 -0.1500
  353MOL0     C46480   3.067   4.786  10.566  0.5902  0.0325  0.1282
  353MOL0     N46481   3.168   4.846  10.652  0.1080 -0.4227 -1.0455
  353MOL0     C46482   3.278   4.785  10.692  0.1395  0.7738  0.1613
  353MOL0     C46483   3.328   4.864  10.788  0.0356  0.0151 -0.0197
  353MOL0     C46484   3.439   4.817  10.880 -0.5563 -0.4607  0.5320
  353MOL0     C46485   3.401   4.831  11.030  1.2314  0.8034  0.5436
  353MOL0     C46486   3.506   4.818  11.135  0.0179 -0.1451 -0.4868
  353MOL0     C46487   3.453   4.829  11.267 -0.1204 -1.4596 -1.3461
  353MOL0     O46488   3.351   4.930  11.274 -0.2781  0.7518 -0.0372
  353MOL0     C46489   3.251   4.914  11.369 -0.5377  0.5443  0.2783
  353MOL0     C46490   3.265   4.855  11.496 -0.1246 -0.4082  0.1204
  353MOL0     C46491   3.159   4.852  11.585 -0.0502 -0.5000  1.0068
  353MOL0     C46492   3.026   4.903  11.547 -0.1182 -0.8690 -0.1648
  353MOL0     C46493   2.905   4.892  11.640 -0.0133  0.6394  0.7080
  353MOL0     O46494   2.778   4.909  11.590  0.1375 -0.2364  0.0428
  353MOL0     C46495   2.667   4.886  11.656  0.1193  0.6056 -0.9189
  353MOL0     C46496   2.562   4.863  11.578 -0.0012 -0.6119  0.1635
  353MOL0     C46497   2.437   4.823  11.631 -0.0031  1.0423  0.4554
  353MOL0     C46498   2.418   4.810  11.769  0.0895  0.4776 -0.2282
  353MOL0     O46499   2.293   4.794  11.815  0.7374 -0.3319 -0.7301
  353MOL0     C46500   2.263   4.772  11.952 -0.1555 -0.0758  0.2342
  353MOL0     C46501   2.114   4.760  11.968  0.1999  0.1557 -0.7973
  353MOL0     C46502   2.040   4.661  11.878 -0.2820  0.2805 -0.5230
  353MOL0     C46503   2.042   4.526  11.961 -0.3696 -0.2267  0.3009
  353MOL0     C46504   1.993   4.404  11.879  0.2298 -0.3358 -0.3205
  353MOL0     C46505   1.975   4.281  11.961 -0.2284 -0.8882 -1.4424
  353MOL0     C46506   2.110   4.222  12.011 -0.7146 -1.3280 -0.3741
  353MOL0     C46507   2.101   4.081  12.052  0.5539 -0.0636 -0.5644
  353MOL0    Cl46508   2.011   4.077  12.204 -0.0534  0.2755 -0.0048
  353MOL0     C46509   2.525   4.848  11.845 -0.2577 -0.1164  0.1888
  353MOL0     C46510   2.651   4.884  11.794  0.3735  0.1498 -0.0992
  353MOL0     O46511   2.926   4.842  11.748 -0.6198  0.0187 -0.8157
  353MOL0     C46512   3.009   4.937  11.408  0.2192  0.1227 -0.0610
  353MOL0     C46513   3.125   4.958  11.335 -0.5183  0.3238  0.1486
  353MOL0     N46514   3.257   4.985  10.783  0.2417 -0.4463 -0.2614
  353MOL0     N46515   3.164   4.971  10.700 -0.0227 -0.6920 -0.0152
  353MOL0     C46516   2.419   4.054  11.105 -0.0893 -0.8753 -0.1838
  353MOL0     C46517   2.410   3.932  11.171  0.2249  0.0893  0.2374
  353MOL0     C46518   2.496   3.594  11.457  0.7114  0.2996 -0.8985
  353MOL0     C46519   2.507   3.453  11.423 -0.1855 -0.0477 -0.2185
  353MOL0     C46520   2.497   3.353  11.521  0.6114 -0.1166 -0.5599
  353MOL0     C46521   2.474   3.387  11.655  0.9585 -0.2071 -1.1525
  353MOL0     O46522   2.457   3.285  11.745  0.3737  0.1026  0.5565
  353MOL0     C46523   2.553   3.288  11.844 -0.2141  0.3605 -0.2679
  353MOL0     C46524   2.577   3.145  11.897  0.6015 -0.9622 -1.1400
  353MOL0     C46525   2.468   3.116  12.010  0.2030 -0.3014  0.2303
  353MOL0     C46526   2.476   3.203  12.140 -0.5154 -0.7438 -0.3202
  353MOL0     C46527   2.373   3.158  12.228 -0.2661 -0.9094 -0.3175
  353MOL0     C46528   2.286   3.131  12.302 -0.0158  0.2815  0.5378
  353MOL0     C46529   2.470   3.522  11.696 -0.2563 -0.3977  0.7496
  353MOL0     C46530   2.483   3.621  11.596  0.1295 -0.6441  0.0586
  353MOL0     H46531   2.467   4.047  11.476  0.3604 -1.8322 -0.2943
  353MOL0     H46532   2.507   4.260  11.358  2.3769  0.2820 -0.2665
  353MOL0     H46533   2.511   4.259  10.877  1.6884 -1.4016 -0.1237
  353MOL0     H46534   2.640   4.164  10.958  1.8193  0.9507  5.6477
  353MOL0     H46535   2.732   4.365  11.065 -2.9342  1.9038 -0.3685
  353MOL0     H46536   2.661   4.467  10.954  3.0137  1.4331 -1.0203
  353MOL0     H46537   2.737   4.329  10.768 -0.0853 -3.0979  0.6656
  353MOL0     H46538   2.861   4.261  10.880  0.5239  0.1415 -1.3395
  353MOL0     H46539   2.823   4.556  10.825 -0.3113 -0.4519 -0.3962
  353MOL0     H46540   2.961   4.503  10.917 -0.7755  2.7846 -0.4024
  353MOL0     H46541   2.919   4.429  10.616  1.1291 -0.3977 -0.2559
  353MOL0     H46542   3.029   4.344  10.723 -0.1902 -0.5848  2.8860
  353MOL0     H46543   3.156   4.545  10.622  0.7019 -1.2887  0.0644
  353MOL0     H46544   3.133   4.576  10.792  0.9976  0.6566 -0.9269
  353MOL0     H46545   2.900   4.655  10.612  1.5290 -2.7405  0.3731
  353MOL0     H46546   2.952   4.738  10.746 -1.8230  1.3135 -2.4838
  353MOL0     H46547   2.994   4.863  10.539 -0.1397 -0.8623 -0.5347
  353MOL0     H46548   3.123   4.756  10.477  3.8892  1.4668  1.5398
  353MOL0     H46549   3.312   4.690  10.652 -2.2297  0.2535 -0.8291
  353MOL0     H46550   3.524   4.881  10.853 -0.9286 -0.6930 -1.3208
  353MOL0     H46551   3.475   4.717  10.853  2.5566  0.1416  1.9219
  353MOL0     H46552   3.343   4.738  11.032  1.2623  0.7699 -0.1509
  353MOL0     H46553   3.348   4.927  11.043 -1.4674 -0.0270 -2.9225
  353MOL0     H46554   3.559   4.724  11.121 -0.9752 -0.9489  0.9231
  353MOL0     H46555   3.583   4.896  11.126  0.2696 -0.4165 -0.7484
  353MOL0     H46556   3.531   4.859  11.338  0.0048  2.6242 -2.9654
  353MOL0     H46557   3.433   4.728  11.305  3.2296 -1.7857 -0.0849
  353MOL0     H46558   3.362   4.820  11.531  1.2963  1.1687 -1.9663
  353MOL0     H46559   3.176   4.820  11.687  1.1275 -0.6991  0.7588
  353MOL0     H46560   2.575   4.847  11.471  2.1710 -1.2425  0.4767
  353MOL0     H46561   2.356   4.796  11.564 -0.0765 -0.3249  1.0521
  353MOL0     H46562   2.309   4.851  12.012  1.0444  0.0548 -0.8103
  353MOL0     H46563   2.311   4.681  11.987  2.5999  1.2069  0.0823
  353MOL0     H46564   2.067   4.856  11.944 -1.1412 -1.1164 -3.8176
  353MOL0     H46565   2.095   4.728  12.070  1.2033 -0.4329 -0.7830
  353MOL0     H46566   2.105   4.649  11.791  1.2419 -0.0564  0.6132
  353MOL0     H46567   1.936   4.685  11.855 -1.2493 -1.9815  1.1268
  353MOL0     H46568   2.146   4.511  11.989 -0.7403 -1.7200  0.9519
  353MOL0     H46569   1.999   4.534  12.061  3.1115 -0.9911  1.9715
  353MOL0     H46570   2.072   4.386  11.806  1.6559 -1.1161  1.3628
  353MOL0     H46571   1.904   4.425  11.818 -0.2858 -1.6481 -0.0467
  353MOL0     H46572   1.924   4.203  11.902  1.0495 -0.8939 -2.5831
  353MOL0     H46573   1.910   4.305  12.046  2.5023  4.5625 -0.4887
  353MOL0     H46574   2.189   4.227  11.936 -0.2799 -0.4612  0.1313
  353MOL0     H46575   2.138   4.279  12.100 -0.1407 -2.4322  0.1699
  353MOL0     H46576   2.197   4.032  12.073 -0.1650 -0.2600  2.9553
  353MOL0     H46577   2.062   4.024  11.968 -0.6734  1.4045 -1.0323
  353MOL0     H46578   2.511   4.856  11.952  1.4486  0.7452  0.3836
  353MOL0     H46579   2.729   4.913  11.865  1.6136 -1.7444 -0.6323
  353MOL0     H46580   2.917   4.975  11.364 -0.5466 -1.7273 -0.1539
  353MOL0     H46581   3.112   5.002  11.236  0.7165  1.4830  0.4636
  353MOL0     H46582   2.418   4.060  10.997 -1.5227  0.4058 -0.1290
  353MOL0     H46583   2.388   3.838  11.121  0.4544 -0.5344  1.2855
  353MOL0     H46584   2.521   3.413  11.323 -4.6025  1.1493 -1.5416
  353MOL0     H46585   2.526   3.254  11.486 -4.4973 -1.4206 -2.1235
  353MOL0     H46586   2.529   3.353  11.928 -0.2289 -0.0437  0.0455
  353MOL0     H46587   2.653   3.308  11.804 -0.5908  0.9839 -0.9116
  353MOL0     H46588   2.579   3.073  11.815  0.5491 -1.5777 -0.6108
  353MOL0     H46589   2.675   3.145  11.945  0.2278  0.1920 -0.3257
  353MOL0     H46590   2.478   3.013  12.044 -1.7158  0.9147  5.3269
  353MOL0     H46591   2.378   3.156  11.963  0.2434  1.0533  1.2542
  353MOL0     H46592   2.567   3.183  12.197 -1.2067 -2.9182  0.1108
  353MOL0     H46593   2.468   3.311  12.127  0.7002 -0.6946 -0.8319
  353MOL0     H46594   2.209   3.096  12.368  1.3263 -2.1965  0.9121
  353MOL0     H46595   2.453   3.568  11.792  2.1799  2.5806 -0.0809
  353MOL0     H46596   2.474   3.723  11.630  1.0974 -0.8847  1.0627
  354MOL0     O46597   4.256   0.955   0.686  0.0699 -0.1612 -0.1570
  354MOL0     C46598   4.318   1.047   0.739  0.4783 -0.5742 -0.3906
  354MOL0     O46599   4.385   1.143   0.675 -0.3090  0.7173  0.2926
  354MOL0     C46600   4.422   1.130   0.539 -0.2511  0.2870 -0.5539
  354MOL0     C46601   4.460   1.248   0.470  0.2050 -0.2570 -0.3940
  354MOL0     C46602   4.495   1.246   0.338  0.2250  0.4732 -1.0667
  354MOL0     C46603   4.511   1.125   0.265  1.1231 -0.7201  0.0698
  354MOL0     O46604   4.551   1.104   0.140  0.7897 -0.3843  0.5093
  354MOL0     C46605   4.538   1.221   0.060 -0.0212 -0.7668 -0.0428
  354MOL0     C46606   4.541   1.190  -0.092  0.3757  0.4506  0.1479
  354MOL0     C46607   4.410   1.129  -0.167 -0.2783 -0.1828 -0.6829
  354MOL0     C46608   4.367   0.995  -0.097  0.4895  0.6334  0.3749
  354MOL0     C46609   4.259   0.917  -0.168  0.2887  0.3733  0.4737
  354MOL0     C46610   4.120   0.964  -0.141  0.6176 -0.1822 -0.6931
  354MOL0     C46611   4.020   0.875  -0.197 -0.5375  1.0511 -0.4761
  354MOL0     C46612   3.877   0.910  -0.158  0.0056  0.3594  0.1755
  354MOL0     N46613   3.792   0.808  -0.221  0.2091 -0.0227  0.6857
  354MOL0     C46614   3.722   0.820  -0.344 -0.7678 -0.5648  0.2037
  354MOL0     C46615   3.647   0.705  -0.356  0.5704 -0.3492  0.0705
  354MOL0     C46616   3.566   0.654  -0.470  1.0591  0.1036  0.2673
  354MOL0     C46617   3.418   0.704  -0.449 -0.9385 -0.2785  0.0395
  354MOL0     C46618   3.339   0.636  -0.333 -0.3344  0.1307  0.2335
  354MOL0     C46619   3.198   0.633  -0.376  0.2211 -0.5271  0.1121
  354MOL0     O46620   3.119   0.616  -0.255 -0.1823  0.0279 -0.6869
  354MOL0     C46621   3.007   0.690  -0.248  0.6653 -0.4762 -0.9514
  354MOL0     C46622   2.984   0.758  -0.129  0.2387  0.3920 -0.6349
  354MOL0     C46623   2.868   0.836  -0.115  0.9922 -0.1179 -0.9432
  354MOL0     C46624   2.765   0.843  -0.219  0.0402  0.2960  0.1348
  354MOL0     C46625   2.636   0.908  -0.208 -0.8434 -0.7623  0.2550
  354MOL0     O46626   2.531   0.882  -0.297 -0.3329 -0.5632 -0.0310
  354MOL0     C46627   2.400   0.917  -0.273 -0.7134 -0.5116 -0.3473
  354MOL0     C46628   2.349   0.935  -0.146 -0.3530 -0.4103  0.0639
  354MOL0     C46629   2.206   0.965  -0.128 -0.0241  0.2501 -0.3631
  354MOL0     C46630   2.120   0.985  -0.238 -0.0794 -1.2769 -0.3168
  354MOL0     O46631   1.992   1.022  -0.203 -0.0088  0.2715 -0.0586
  354MOL0     C46632   1.927   1.117  -0.293  0.8655 -0.3555 -0.8257
  354MOL0     C46633   1.829   1.179  -0.201  0.7671  0.0676 -0.4519
  354MOL0     C46634   1.786   1.319  -0.252  0.0902  0.1116  0.5590
  354MOL0     C46635   1.670   1.387  -0.180  0.5512  0.8369  0.9117
  354MOL0     C46636   1.632   1.540  -0.222 -0.1574 -0.1007  0.1560
  354MOL0     C46637   1.576   1.627  -0.112  0.3459 -0.5390 -0.6413
  354MOL0     C46638   1.437   1.602  -0.078  0.2495  0.4204 -0.2319
  354MOL0     C46639   1.382   1.654   0.063 -0.2954 -0.1312 -0.0124
  354MOL0    Cl46640   1.409   1.831   0.081 -0.2421  0.7842 -0.2329
  354MOL0     C46641   2.173   0.965  -0.378 -0.5126  0.5469 -0.5490
  354MOL0     C46642   2.310   0.925  -0.384  0.2981  0.0676 -0.1063
  354MOL0     O46643   2.627   0.988  -0.111  0.4450 -0.7458  0.3127
  354MOL0     C46644   2.793   0.764  -0.332 -0.0055 -0.2883  0.7050
  354MOL0     C46645   2.915   0.690  -0.351  0.0022  0.0784  0.5728
  354MOL0     N46646   3.668   0.632  -0.246 -0.5225  0.5233 -1.1062
  354MOL0     N46647   3.746   0.700  -0.162  0.1290 -0.4915 -0.1258
  354MOL0     C46648   4.479   1.006   0.335  0.2239 -0.1966  0.3095
  354MOL0     C46649   4.433   1.007   0.467  0.5214 -0.5286 -0.4464
  354MOL0     C46650   4.312   1.061   0.884  0.9907 -0.5697  0.4497
  354MOL0     C46651   4.360   1.172   0.964  0.3009 -0.2689  0.4949
  354MOL0     C46652   4.337   1.176   1.099  0.8500  0.1736 -0.1083
  354MOL0     C46653   4.277   1.075   1.168 -0.3729  0.1583  0.6356
  354MOL0     O46654   4.292   1.076   1.309  0.0324 -0.2712  0.2542
  354MOL0     C46655   4.239   0.961   1.381 -0.1458  1.1054  0.1309
  354MOL0     C46656   4.256   1.011   1.526  0.4205 -0.3878  0.1806
  354MOL0     C46657   4.394   1.039   1.572  0.0181  0.0907  0.2479
  354MOL0     C46658   4.475   0.915   1.596  0.2350 -0.9645 -0.2699
  354MOL0     C46659   4.603   0.968   1.651 -0.5512  0.9889  0.7045
  354MOL0     C46660   4.716   0.989   1.693 -0.9028  0.4961 -0.7590
  354MOL0     C46661   4.223   0.973   1.092 -0.8601 -0.3449 -0.1785
  354MOL0     C46662   4.229   0.973   0.951 -0.6209  0.3753 -0.5173
  354MOL0     H46663   4.455   1.337   0.532 -2.3517 -0.1919 -0.5662
  354MOL0     H46664   4.520   1.338   0.285  3.0104 -0.0930 -0.9229
  354MOL0     H46665   4.625   1.283   0.084  1.7464 -2.8797 -0.6340
  354MOL0     H46666   4.451   1.285   0.079  1.4273  1.1006  0.6263
  354MOL0     H46667   4.615   1.110  -0.106  1.0828  1.2388 -0.7697
  354MOL0     H46668   4.564   1.286  -0.138 -2.2741  0.5002 -1.2685
  354MOL0     H46669   4.447   1.115  -0.268 -0.7544  0.7568 -1.0063
  354MOL0     H46670   4.317   1.188  -0.170 -2.7006 -3.7626 -1.9503
  354MOL0     H46671   4.462   0.942  -0.092  0.9254  1.3288 -0.3086
  354MOL0     H46672   4.321   1.006   0.002 -0.6361  1.8600 -0.2518
  354MOL0     H46673   4.273   0.824  -0.114  0.8583  0.8048  1.0804
  354MOL0     H46674   4.278   0.912  -0.276 -1.6402 -1.2579  0.1432
  354MOL0     H46675   4.103   1.058  -0.196  0.1918 -0.6766 -1.4221
  354MOL0     H46676   4.103   0.976  -0.034  0.3763  1.4362 -0.8866
  354MOL0     H46677   4.038   0.855  -0.304  1.4972 -0.3853  0.0658
  354MOL0     H46678   4.045   0.777  -0.155  1.8434  1.5881 -0.5028
  354MOL0     H46679   3.860   1.011  -0.195  0.7283  0.6921  0.7242
  354MOL0     H46680   3.869   0.899  -0.049  1.0901  1.4292  0.3920
  354MOL0     H46681   3.715   0.892  -0.425 -4.5797 -1.3974 -0.3861
  354MOL0     H46682   3.573   0.546  -0.487  1.5728  0.4015 -1.5577
  354MOL0     H46683   3.600   0.703  -0.561  0.4341  0.1702  0.0657
  354MOL0     H46684   3.365   0.684  -0.543 -0.1566  3.2380 -1.2842
  354MOL0     H46685   3.422   0.811  -0.429 -0.7908 -0.6123  1.9860
  354MOL0     H46686   3.388   0.539  -0.322 -2.5885 -1.1199 -0.2314
  354MOL0     H46687   3.347   0.684  -0.235 -0.8310  2.8006 -0.9415
  354MOL0     H46688   3.192   0.543  -0.438 -0.1411  0.4722 -1.3540
  354MOL0     H46689   3.171   0.730  -0.420 -1.0075 -1.2501 -0.7913
  354MOL0     H46690   3.060   0.745  -0.052  0.9458 -1.8315 -1.6226
  354MOL0     H46691   2.855   0.901  -0.029  2.8982  1.9780 -2.1273
  354MOL0     H46692   2.406   0.921  -0.055 -0.5925  0.3201  0.3326
  354MOL0     H46693   2.167   0.989  -0.030  1.3545 -0.0808  0.2843
  354MOL0     H46694   1.872   1.077  -0.378 -5.2980  1.2167  1.8940
  354MOL0     H46695   2.007   1.185  -0.326 -0.3428  2.1237  0.9908
  354MOL0     H46696   1.867   1.189  -0.098 -0.8273 -0.0090  0.1765
  354MOL0     H46697   1.751   1.105  -0.179  2.5974 -1.0891  2.9549
  354MOL0     H46698   1.754   1.307  -0.356  1.0601 -0.0730  0.2645
  354MOL0     H46699   1.865   1.395  -0.248  1.1536 -0.9569  0.2891
  354MOL0     H46700   1.581   1.325  -0.175  0.0101  1.4134 -0.8473
  354MOL0     H46701   1.710   1.401  -0.079  3.4633 -0.3818  0.0426
  354MOL0     H46702   1.561   1.539  -0.305  0.1550  0.7471 -0.1326
  354MOL0     H46703   1.722   1.587  -0.261  0.0455 -2.3615 -2.4347
  354MOL0     H46704   1.592   1.727  -0.153  0.8721 -1.6540 -3.4137
  354MOL0     H46705   1.635   1.613  -0.022 -2.2827 -1.4620  1.0743
  354MOL0     H46706   1.365   1.640  -0.152 -0.6105 -0.2326  0.2405
  354MOL0     H46707   1.419   1.494  -0.081  5.3002 -0.6981  1.2205
  354MOL0     H46708   1.430   1.610   0.152 -1.5286 -2.3239 -0.3515
  354MOL0     H46709   1.277   1.630   0.081 -0.2294  0.9957  2.2872
  354MOL0     H46710   2.113   0.994  -0.464  0.9667  1.3186 -1.3481
  354MOL0     H46711   2.360   0.918  -0.480 -0.6748  2.5432 -0.8709
  354MOL0     H46712   2.711   0.755  -0.402 -0.2546 -0.6223  1.0363
  354MOL0     H46713   2.945   0.628  -0.435  0.9762  0.1415  0.8681
  354MOL0     H46714   4.483   0.909   0.288  2.2041  0.4505 -0.9975
  354MOL0     H46715   4.417   0.916   0.523  4.5364  0.5143  2.8755
  354MOL0     H46716   4.413   1.256   0.920 -0.7631  0.8913  1.3429
  354MOL0     H46717   4.367   1.266   1.152  1.7046  0.8173 -1.6224
  354MOL0     H46718   4.300   0.874   1.355  1.2173  1.6121  1.4659
  354MOL0     H46719   4.138   0.930   1.351 -0.5837 -0.0980  2.6152
  354MOL0     H46720   4.200   1.104   1.516  0.3818 -0.2909  1.1300
  354MOL0     H46721   4.202   0.949   1.599 -0.4800 -1.1548 -1.0992
  354MOL0     H46722   4.367   1.078   1.671 -3.3438 -0.5534 -0.2794
  354MOL0     H46723   4.442   1.115   1.511 -0.6345  1.5937  1.5444
  354MOL0     H46724   4.423   0.851   1.667 -0.8955 -0.8273 -0.9504
  354MOL0     H46725   4.485   0.861   1.502  1.4338  0.3486 -0.9427
  354MOL0     H46726   4.820   1.001   1.719 -0.4324  0.7652 -2.6305
  354MOL0     H46727   4.176   0.881   1.125 -0.0596 -0.5474  0.4270
  354MOL0     H46728   4.178   0.889   0.904  1.4722 -4.0599  4.0953
  355MOL0     O46729   1.296   7.345   1.398 -0.0746  1.0869 -0.0222
  355MOL0     C46730   1.253   7.368   1.287  0.1641 -0.3654  1.2421
  355MOL0     O46731   1.161   7.459   1.259  0.1150  0.0528  0.2193
  355MOL0     C46732   1.099   7.513   1.359 -0.1141  0.1501 -1.0712
  355MOL0     C46733   1.080   7.648   1.345  0.3520  0.0259  0.3107
  355MOL0     C46734   1.023   7.723   1.448 -0.2789  0.3376 -0.4893
  355MOL0     C46735   0.973   7.654   1.558 -0.4326  0.5794 -0.4238
  355MOL0     O46736   0.921   7.717   1.664 -0.1976 -0.3610 -0.4927
  355MOL0     C46737   0.976   7.841   1.711 -0.1645 -0.3322 -0.2503
  355MOL0     C46738   1.126   7.858   1.747  0.2535  0.3362  0.5171
  355MOL0     C46739   1.160   7.753   1.862 -0.2077  0.1632  0.7675
  355MOL0     C46740   1.309   7.761   1.877  0.1268  0.1683  0.3355
  355MOL0     C46741   1.359   7.653   1.968 -0.9855  1.5383 -0.4259
  355MOL0     C46742   1.376   7.708   2.113 -0.6973  0.1927  0.6794
  355MOL0     C46743   1.444   7.601   2.201 -0.1037  0.3049  0.8450
  355MOL0     C46744   1.495   7.666   2.328  0.1183 -0.0560  0.2199
  355MOL0     N46745   1.408   7.694   2.442 -0.3936  1.0540 -0.0166
  355MOL0     C46746   1.447   7.768   2.557  0.1400 -0.0873 -0.6262
  355MOL0     C46747   1.331   7.769   2.633 -0.5878  0.5108 -0.2237
  355MOL0     C46748   1.326   7.799   2.784 -0.4813 -0.4996 -0.9606
  355MOL0     C46749   1.243   7.930   2.815  0.4676 -0.7684 -0.1254
  355MOL0     C46750   1.092   7.918   2.832 -0.4858  0.2548  0.6934
  355MOL0     C46751   1.050   7.833   2.945 -0.4177  0.0991  0.5006
  355MOL0     O46752   1.101   7.874   3.065 -0.1900  0.4162  0.5567
  355MOL0     C46753   1.057   7.992   3.121 -1.0207 -0.2395  0.9700
  355MOL0     C46754   0.927   7.991   3.169 -0.8131  0.6883  0.3237
  355MOL0     C46755   0.868   8.104   3.234 -0.4977  0.4305  0.2158
  355MOL0     C46756   0.943   8.218   3.236 -0.6840 -0.5479  0.1391
  355MOL0     C46757   0.879   8.339   3.286 -0.3628  0.6395  0.2554
  355MOL0     O46758   0.973   8.436   3.335  0.6317 -0.2656  0.1224
  355MOL0     C46759   0.925   8.555   3.387 -0.7129  0.2928 -0.9335
  355MOL0     C46760   0.809   8.562   3.473 -1.3522  0.5363 -0.3834
  355MOL0     C46761   0.767   8.683   3.526 -0.0611 -0.4317  0.0869
  355MOL0     C46762   0.841   8.802   3.498  0.1550  1.3867 -0.4811
  355MOL0     O46763   0.801   8.928   3.532 -0.7220 -0.4175  0.2249
  355MOL0     C46764   0.737   8.954   3.652  0.0358  0.1749  0.0493
  355MOL0     C46765   0.753   9.111   3.679  1.1439 -0.0221 -0.5778
  355MOL0     C46766   0.642   9.152   3.781 -0.1098  0.0461  0.6283
  355MOL0     C46767   0.668   9.288   3.808  1.1887  0.3472 -0.3821
  355MOL0     C46768   0.582   9.346   3.931 -0.2625  0.6910  0.1015
  355MOL0     C46769   0.452   9.405   3.883  0.3677  0.0190  0.2577
  355MOL0     C46770   0.373   9.461   4.009  0.4560 -0.8352 -0.1687
  355MOL0     C46771   0.222   9.460   3.993  0.4872 -0.5570  0.3454
  355MOL0    Cl46772   0.127   9.567   4.113 -0.2778  0.3732  0.3968
  355MOL0     C46773   0.937   8.802   3.400 -0.3144  0.1865  0.8810
  355MOL0     C46774   0.970   8.676   3.341 -0.9840  0.2658  0.1954
  355MOL0     O46775   0.755   8.338   3.282 -0.6717 -0.0980 -0.0262
  355MOL0     C46776   1.078   8.211   3.207 -0.0758  0.4100  0.1622
  355MOL0     C46777   1.141   8.099   3.157  0.7761 -0.9654  0.8832
  355MOL0     N46778   1.226   7.705   2.559  1.1591  1.0049  0.0470
  355MOL0     N46779   1.276   7.669   2.451 -0.2263 -0.4600 -0.5588
  355MOL0     C46780   0.976   7.517   1.571  0.3532 -0.5663 -0.3080
  355MOL0     C46781   1.049   7.445   1.470  0.0490 -0.0532  0.1310
  355MOL0     C46782   1.318   7.303   1.161  0.0459  0.1872  0.4565
  355MOL0     C46783   1.402   7.189   1.172  0.4525  0.1216 -0.3684
  355MOL0     C46784   1.448   7.123   1.063 -0.4904  0.6130 -0.3480
  355MOL0     C46785   1.419   7.169   0.930  0.5676 -0.0857 -0.1867
  355MOL0     O46786   1.484   7.118   0.817 -0.1320 -0.1651 -0.2195
  355MOL0     C46787   1.499   7.188   0.697 -0.0155 -0.1302  0.1023
  355MOL0     C46788   1.597   7.118   0.608  0.0957 -0.3289 -0.0211
  355MOL0     C46789   1.609   7.180   0.467 -0.2284  0.6805 -0.4827
  355MOL0     C46790   1.725   7.109   0.394  0.5143  0.0829 -0.8401
  355MOL0     C46791   1.735   7.167   0.264 -0.4011  0.0387  0.5663
  355MOL0     C46792   1.754   7.223   0.161  0.2716  0.1782  0.2238
  355MOL0     C46793   1.340   7.284   0.913 -0.3772 -0.0857 -0.0639
  355MOL0     C46794   1.289   7.348   1.027 -0.5625 -0.2057 -0.0366
  355MOL0     H46795   1.118   7.693   1.253  1.1551 -0.2070  0.5183
  355MOL0     H46796   1.020   7.831   1.441 -3.7729  0.4034  0.0474
  355MOL0     H46797   0.919   7.878   1.796  1.2420  2.1593 -0.3002
  355MOL0     H46798   0.971   7.918   1.633  0.1209 -0.5510 -0.4887
  355MOL0     H46799   1.151   7.959   1.781  0.5612  0.5626 -0.3506
  355MOL0     H46800   1.178   7.828   1.655 -3.2034 -2.7612 -0.6665
  355MOL0     H46801   1.124   7.653   1.836 -1.8540  0.5906  1.2856
  355MOL0     H46802   1.115   7.782   1.957 -0.3233  2.6146  0.0350
  355MOL0     H46803   1.349   7.733   1.779 -1.0883  0.4824 -0.2727
  355MOL0     H46804   1.326   7.866   1.902 -2.2357  0.3490  1.5220
  355MOL0     H46805   1.445   7.593   1.936 -1.7866  0.1727 -0.1380
  355MOL0     H46806   1.281   7.578   1.986  2.4308 -2.2753 -0.0974
  355MOL0     H46807   1.281   7.724   2.166 -0.9256 -2.8847  1.3931
  355MOL0     H46808   1.438   7.798   2.104 -0.5829  0.1212  0.7554
  355MOL0     H46809   1.378   7.517   2.222 -0.7787  0.9391  1.3381
  355MOL0     H46810   1.532   7.572   2.144  2.3953  3.4821  2.7514
  355MOL0     H46811   1.541   7.763   2.307 -0.0927 -0.3272 -1.5739
  355MOL0     H46812   1.572   7.603   2.373 -0.4066 -0.7068  0.2302
  355MOL0     H46813   1.546   7.804   2.583  0.3603 -0.7534 -0.5304
  355MOL0     H46814   1.428   7.809   2.824 -1.4250 -1.9047  2.1010
  355MOL0     H46815   1.280   7.714   2.835 -0.4110 -0.4856 -0.8736
  355MOL0     H46816   1.254   8.001   2.732 -2.1498 -0.8635 -0.6428
  355MOL0     H46817   1.277   7.981   2.906 -3.0789  1.4121  0.2226
  355MOL0     H46818   1.056   8.021   2.836  1.6783  1.1327 -0.7737
  355MOL0     H46819   1.054   7.872   2.740  0.5629  0.7866 -0.0176
  355MOL0     H46820   1.085   7.731   2.926 -0.0099  0.8316 -3.3871
  355MOL0     H46821   0.942   7.827   2.954 -0.3956 -0.4410  0.4191
  355MOL0     H46822   0.868   7.905   3.139  1.7514 -0.2472 -2.4906
  355MOL0     H46823   0.763   8.101   3.260 -1.0145  0.8063 -1.6979
  355MOL0     H46824   0.743   8.477   3.491 -1.6947  1.1296  1.3327
  355MOL0     H46825   0.678   8.681   3.589 -2.5871 -1.1902 -3.1928
  355MOL0     H46826   0.776   8.894   3.735 -1.3584 -0.3392  0.3509
  355MOL0     H46827   0.631   8.931   3.642 -0.2315  1.1796  0.4986
  355MOL0     H46828   0.732   9.158   3.583  2.3822 -3.6353 -2.8158
  355MOL0     H46829   0.848   9.138   3.726  0.8450 -5.6485  4.4497
  355MOL0     H46830   0.651   9.101   3.878  2.2566 -2.2278 -0.6529
  355MOL0     H46831   0.542   9.134   3.740  0.1867 -0.6137  0.1733
  355MOL0     H46832   0.773   9.300   3.837  1.4064 -1.8681 -0.0971
  355MOL0     H46833   0.643   9.343   3.717 -2.4591 -1.9683 -0.9707
  355MOL0     H46834   0.642   9.428   3.969  0.8797 -0.1565  0.1848
  355MOL0     H46835   0.544   9.269   3.999 -2.2651  1.1474 -0.4270
  355MOL0     H46836   0.387   9.332   3.833  0.4739  2.2477 -3.5130
  355MOL0     H46837   0.462   9.486   3.810  0.3707 -1.3916 -1.3889
  355MOL0     H46838   0.398   9.406   4.101  1.0437  1.4420  1.1026
  355MOL0     H46839   0.407   9.564   4.015 -0.4126 -0.6147  1.7448
  355MOL0     H46840   0.186   9.357   3.985  1.1171 -0.6797 -1.0816
  355MOL0     H46841   0.200   9.504   3.895  0.0794  2.8983  1.8159
  355MOL0     H46842   0.976   8.899   3.372 -1.7570  0.9646  1.4346
  355MOL0     H46843   1.050   8.683   3.268 -1.2638 -1.1150 -0.2889
  355MOL0     H46844   1.141   8.295   3.233  1.2236 -1.0400  1.8851
  355MOL0     H46845   1.248   8.099   3.142  0.6094 -0.2728 -0.4939
  355MOL0     H46846   0.927   7.470   1.655  0.4295  1.8818  1.1906
  355MOL0     H46847   1.054   7.339   1.493 -0.6255 -0.0779  0.1806
  355MOL0     H46848   1.424   7.137   1.264  0.6801  0.3096 -0.3175
  355MOL0     H46849   1.508   7.033   1.079 -2.3916 -0.7273 -0.3673
  355MOL0     H46850   1.517   7.295   0.708 -4.5148  0.9215 -0.7596
  355MOL0     H46851   1.402   7.182   0.647  0.1570 -3.1791 -0.0530
  355MOL0     H46852   1.694   7.121   0.659  0.4351 -2.1629 -0.5081
  355MOL0     H46853   1.574   7.012   0.597  1.3216 -1.0675  3.3995
  355MOL0     H46854   1.634   7.286   0.478  2.6672  0.0256  0.2942
  355MOL0     H46855   1.515   7.167   0.413 -0.4458 -0.5255  0.1266
  355MOL0     H46856   1.815   7.119   0.455 -0.4942 -1.6901  1.0305
  355MOL0     H46857   1.709   7.003   0.376 -0.7310 -0.4958  2.9504
  355MOL0     H46858   1.784   7.279   0.075 -1.3991 -0.5735 -0.9007
  355MOL0     H46859   1.316   7.318   0.813 -0.6639  1.4837  0.5175
  355MOL0     H46860   1.243   7.440   0.993  1.4666  0.8063 -0.2223
  356MOL0     O46861   6.424   8.263  10.293 -0.0297 -0.1218 -1.3127
  356MOL0     C46862   6.485   8.371  10.302  0.6126 -1.2593  0.3164
  356MOL0     O46863   6.558   8.413  10.412 -0.1857  1.1803  0.3636
  356MOL0     C46864   6.563   8.343  10.530 -0.8833  0.8922 -0.1196
  356MOL0     C46865   6.532   8.397  10.650  0.4686  0.6654 -0.6170
  356MOL0     C46866   6.545   8.321  10.769 -0.1007 -0.2242 -0.3783
  356MOL0     C46867   6.569   8.190  10.765 -0.3068  0.1096  0.4640
  356MOL0     O46868   6.568   8.116  10.880  0.1575  0.5185  0.2734
  356MOL0     C46869   6.588   7.971  10.886  0.1344 -0.5883  1.3510
  356MOL0     C46870   6.569   7.903  11.019  0.4322 -0.0224  0.2078
  356MOL0     C46871   6.546   7.747  11.009 -1.1890  0.1136 -0.6101
  356MOL0     C46872   6.475   7.697  11.130 -0.0191  0.2233 -1.0609
  356MOL0     C46873   6.439   7.546  11.112  0.1018  0.0682  0.2940
  356MOL0     C46874   6.366   7.509  10.989 -0.5275 -1.2956  0.2211
  356MOL0     C46875   6.299   7.377  11.005 -0.5858 -0.1553  0.2283
  356MOL0     C46876   6.263   7.298  10.881 -0.1749  0.0653 -0.1555
  356MOL0     N46877   6.232   7.157  10.902 -0.1988 -0.2881  0.6427
  356MOL0     C46878   6.141   7.096  10.986 -0.2395 -0.6519 -0.1127
  356MOL0     C46879   6.121   6.969  10.937 -0.1003 -0.4492  0.5202
  356MOL0     C46880   6.034   6.862  10.997  0.6811 -0.2847  0.0255
  356MOL0     C46881   5.898   6.890  10.956  1.4615  0.2314 -0.8053
  356MOL0     C46882   5.795   6.798  11.024  0.3206  0.9640  0.9455
  356MOL0     C46883   5.671   6.785  10.937  0.8888 -0.5989 -0.0812
  356MOL0     O46884   5.596   6.909  10.940 -0.7717 -0.9904  0.0508
  356MOL0     C46885   5.480   6.923  10.868  0.1458  0.3614  0.2753
  356MOL0     C46886   5.476   6.866  10.735  0.2527 -0.1135  0.3469
  356MOL0     C46887   5.366   6.904  10.652  0.2125  0.5656 -1.3103
  356MOL0     C46888   5.262   6.983  10.694  0.0900  0.6543 -0.8862
  356MOL0     C46889   5.155   7.026  10.604  0.1684 -0.6730  0.0428
  356MOL0     O46890   5.103   7.149  10.649  0.2632  0.1848  1.2695
  356MOL0     C46891   5.001   7.208  10.584  0.6587 -1.0703  0.9875
  356MOL0     C46892   4.869   7.149  10.601  0.0203 -0.5538 -0.7275
  356MOL0     C46893   4.759   7.208  10.539 -0.4136  1.0893 -0.9086
  356MOL0     C46894   4.775   7.323  10.470 -0.2976 -0.1736  0.6093
  356MOL0     O46895   4.675   7.387  10.404  0.1340  0.3409  0.2528
  356MOL0     C46896   4.611   7.483  10.478 -0.9304  0.8400  0.0630
  356MOL0     C46897   4.504   7.540  10.385 -0.0047  0.1690 -0.7267
  356MOL0     C46898   4.389   7.446  10.354 -0.2839 -0.4714 -0.4175
  356MOL0     C46899   4.323   7.366  10.471 -0.3936  0.9121  0.0015
  356MOL0     C46900   4.180   7.320  10.428 -0.1334 -0.2359 -0.3944
  356MOL0     C46901   4.162   7.265  10.289  0.2614  0.3590  0.2542
  356MOL0     C46902   4.025   7.190  10.277 -0.2503  0.3547  0.0536
  356MOL0     C46903   4.044   7.067  10.190  0.6518  0.0940  0.4255
  356MOL0    Cl46904   4.142   6.946  10.284 -0.6578  0.1701 -0.0209
  356MOL0     C46905   4.909   7.371  10.443  0.2019 -0.3131 -0.0127
  356MOL0     C46906   5.017   7.311  10.490  0.0617  0.0140 -0.3282
  356MOL0     O46907   5.123   6.971  10.500  0.1815  0.1310 -0.2391
  356MOL0     C46908   5.260   7.028  10.826 -0.2126  0.5983  0.3864
  356MOL0     C46909   5.368   6.998  10.915  0.1322 -0.3453  0.3962
  356MOL0     N46910   6.198   6.956  10.827 -0.7261  0.0731  0.3998
  356MOL0     N46911   6.270   7.067  10.809  0.2827 -0.4558 -0.1657
  356MOL0     C46912   6.589   8.122  10.641 -0.7159  1.1114 -0.5741
  356MOL0     C46913   6.586   8.201  10.525 -0.2473  0.0878  0.4097
  356MOL0     C46914   6.476   8.449  10.170  0.7052  0.0774 -0.4248
  356MOL0     C46915   6.428   8.396  10.047  0.7273 -0.9574  0.6824
  356MOL0     C46916   6.446   8.464   9.923  0.9816 -0.9423 -0.2453
  356MOL0     C46917   6.511   8.588   9.923  0.0970 -0.1077  0.9186
  356MOL0     O46918   6.524   8.665   9.809  0.0667 -0.3701  0.4635
  356MOL0     C46919   6.407   8.747   9.799 -0.5459  0.0043 -0.3265
  356MOL0     C46920   6.419   8.853   9.688 -0.5307  0.4593 -1.1905
  356MOL0     C46921   6.445   8.779   9.551  0.3536  0.6518 -0.8241
  356MOL0     C46922   6.442   8.882   9.445  0.6138  0.2625  0.0304
  356MOL0     C46923   6.488   8.823   9.322 -0.8658  0.4114  1.2286
  356MOL0     C46924   6.531   8.773   9.216  1.3337 -0.5101 -0.1972
  356MOL0     C46925   6.569   8.637  10.041 -0.0542  0.1496  2.3354
  356MOL0     C46926   6.550   8.563  10.156 -0.5473 -0.6956 -0.3922
  356MOL0     H46927   6.498   8.499  10.664  3.9400  1.7382  1.1263
  356MOL0     H46928   6.531   8.352  10.872  2.5739 -0.3219  0.0844
  356MOL0     H46929   6.692   7.945  10.861  0.3443  0.2343  1.3230
  356MOL0     H46930   6.513   7.926  10.820  1.2276  2.5579 -2.4605
  356MOL0     H46931   6.474   7.936  11.063  0.2219  0.4400 -0.5856
  356MOL0     H46932   6.655   7.917  11.085  2.2542  0.8976 -2.2287
  356MOL0     H46933   6.643   7.701  10.993  0.3005  1.9361  2.2257
  356MOL0     H46934   6.479   7.725  10.926 -0.4086 -6.3219 -0.0102
  356MOL0     H46935   6.522   7.706  11.229 -2.7970  1.5694  0.2475
  356MOL0     H46936   6.375   7.739  11.137 -0.4495 -0.4902 -2.5745
  356MOL0     H46937   6.374   7.512  11.193  0.7484 -0.4213  0.6142
  356MOL0     H46938   6.521   7.475  11.121 -1.5390 -2.1024 -0.8424
  356MOL0     H46939   6.440   7.520  10.909  1.4280  3.1456  2.2842
  356MOL0     H46940   6.295   7.589  10.966 -0.2895 -0.8689  0.9348
  356MOL0     H46941   6.360   7.306  11.061 -1.3581 -0.2346  0.9986
  356MOL0     H46942   6.209   7.395  11.065  0.3526 -0.7554  1.8815
  356MOL0     H46943   6.346   7.290  10.811 -0.3192 -1.6881 -0.1793
  356MOL0     H46944   6.175   7.345  10.837 -0.7368 -0.6809  0.1389
  356MOL0     H46945   6.084   7.140  11.068  1.4347  0.5815  0.4644
  356MOL0     H46946   6.050   6.869  11.105  2.8656 -1.8506 -0.1393
  356MOL0     H46947   6.055   6.761  10.960  1.1537 -0.7411  1.4558
  356MOL0     H46948   5.889   6.882  10.847 -0.5832  2.3737 -0.8538
  356MOL0     H46949   5.866   6.989  10.988  0.8983  0.3850 -1.8180
  356MOL0     H46950   5.836   6.697  11.032  2.0573  1.5477 -0.0924
  356MOL0     H46951   5.770   6.834  11.125  0.5969  1.3668  0.8700
  356MOL0     H46952   5.608   6.705  10.977  0.8575  0.8728  3.0703
  356MOL0     H46953   5.710   6.766  10.836  1.1218 -1.8425  0.2213
  356MOL0     H46954   5.555   6.801  10.697  0.7641  0.5893  0.1965
  356MOL0     H46955   5.372   6.870  10.549  1.9543 -0.0099 -1.0569
  356MOL0     H46956   4.834   7.072  10.670  0.5901  0.8994  1.2757
  356MOL0     H46957   4.658   7.176  10.563  0.3453 -1.0593 -0.3096
  356MOL0     H46958   4.688   7.559  10.493 -0.0942  0.0453 -0.1025
  356MOL0     H46959   4.566   7.456  10.574 -2.8267 -0.1556 -1.0526
  356MOL0     H46960   4.555   7.574  10.295  2.2796 -1.8540 -0.3056
  356MOL0     H46961   4.466   7.629  10.435 -2.4857 -2.0006  1.6291
  356MOL0     H46962   4.419   7.376  10.275  0.7468  0.0773 -0.5322
  356MOL0     H46963   4.305   7.506  10.318 -0.6504 -0.3674  0.5859
  356MOL0     H46964   4.379   7.275  10.495 -1.4175  0.1381 -0.4836
  356MOL0     H46965   4.325   7.419  10.567  1.6228 -1.7034  1.5491
  356MOL0     H46966   4.125   7.414  10.434  0.7661  0.3623 -1.2988
  356MOL0     H46967   4.147   7.250  10.505 -1.1121  0.0458 -0.5519
  356MOL0     H46968   4.240   7.188  10.279 -0.7061 -1.1649  3.1945
  356MOL0     H46969   4.174   7.339  10.210 -0.5770  1.0838  0.7880
  356MOL0     H46970   3.977   7.165  10.372  1.6363 -2.6134  0.3431
  356MOL0     H46971   3.946   7.251  10.234 -0.5207 -1.1237 -1.6618
  356MOL0     H46972   4.096   7.088  10.096  1.9617 -2.2195  0.5634
  356MOL0     H46973   3.947   7.026  10.161  1.1766 -0.4796 -0.5481
  356MOL0     H46974   4.933   7.462  10.388  0.3881  0.0094  0.5890
  356MOL0     H46975   5.117   7.339  10.460  0.2057 -0.3208 -0.1734
  356MOL0     H46976   5.189   7.101  10.862  0.2476  1.0420  0.4144
  356MOL0     H46977   5.368   7.026  11.020 -0.3089  4.5881 -0.6716
  356MOL0     H46978   6.594   8.014  10.637  0.5666  1.2035 -2.9014
  356MOL0     H46979   6.600   8.148  10.431  2.5668 -2.6333  2.1496
  356MOL0     H46980   6.372   8.304  10.054 -1.5647  0.4167  1.3552
  356MOL0     H46981   6.406   8.428   9.829 -0.0126  1.1599 -0.6798
  356MOL0     H46982   6.378   8.791   9.895 -1.5063  0.2253 -0.6980
  356MOL0     H46983   6.320   8.685   9.777 -0.1175 -1.2885  1.4019
  356MOL0     H46984   6.332   8.920   9.690 -2.1709 -1.5041  1.8923
  356MOL0     H46985   6.507   8.914   9.707 -1.0284  0.6183  0.8561
  356MOL0     H46986   6.370   8.705   9.519  2.5062 -0.8935 -2.5701
  356MOL0     H46987   6.544   8.734   9.563 -0.0465 -0.2329 -0.6710
  356MOL0     H46988   6.340   8.918   9.427  0.4788 -0.3995 -0.5974
  356MOL0     H46989   6.508   8.963   9.477  2.9662 -1.0810 -1.0982
  356MOL0     H46990   6.559   8.713   9.132  0.1919 -0.9403 -0.2946
  356MOL0     H46991   6.635   8.722  10.028 -1.3409  0.7546 -1.6280
  356MOL0     H46992   6.608   8.609  10.236 -1.1595  1.8241 -1.3074
  357MOL0     O46993   6.294   8.702  11.185 -1.4300  0.5752 -0.0413
  357MOL0     C46994   6.397   8.680  11.257  0.2034  0.1786 -0.3365
  357MOL0     O46995   6.483   8.781  11.320  0.4588  0.0446  0.4112
  357MOL0     C46996   6.468   8.916  11.300 -1.1203  0.7412 -0.0072
  357MOL0     C46997   6.402   8.974  11.197 -0.7329  0.1434  0.3675
  357MOL0     C46998   6.385   9.111  11.195 -0.3970 -0.3954  0.2813
  357MOL0     C46999   6.447   9.189  11.290 -0.4039  0.6320  0.2493
  357MOL0     O47000   6.431   9.320  11.306  0.1668  0.0020  1.6352
  357MOL0     C47001   6.363   9.405  11.206  0.6221  0.9815 -0.2937
  357MOL0     C47002   6.403   9.547  11.229 -0.6391  0.1898  0.3493
  357MOL0     C47003   6.294   9.653  11.186 -0.4584 -0.2116  0.6694
  357MOL0     C47004   6.332   9.797  11.189  0.3610 -0.5109 -0.8436
  357MOL0     C47005   6.239   9.901  11.133  0.8681  0.0337  0.0040
  357MOL0     C47006   6.229  10.007  11.237  0.7760  0.7338 -0.2898
  357MOL0     C47007   6.128  10.113  11.189  0.0310 -0.3822  0.5380
  357MOL0     C47008   6.179  10.251  11.251 -0.0708  0.1011  0.6257
  357MOL0     N47009   6.111  10.269  11.378  0.1130  1.8901 -0.9460
  357MOL0     C47010   5.982  10.310  11.393  0.1883 -0.1712 -0.4332
  357MOL0     C47011   5.957  10.296  11.535  0.5814 -1.2695  1.2633
  357MOL0     C47012   5.834  10.331  11.610  0.1000  0.5205 -0.9950
  357MOL0     C47013   5.720  10.223  11.601 -0.4289 -0.4465  0.2133
  357MOL0     C47014   5.727  10.106  11.713  2.0362  0.1690  0.2230
  357MOL0     C47015   5.674   9.978  11.649  0.7006 -0.2142 -0.0499
  357MOL0     O47016   5.720   9.961  11.511  0.8321  0.1737  1.0816
  357MOL0     C47017   5.749   9.840  11.447 -0.3519 -0.2363 -0.3434
  357MOL0     C47018   5.807   9.844  11.322  0.1266 -0.4418 -0.2411
  357MOL0     C47019   5.836   9.729  11.251 -0.3849 -0.7233 -0.1018
  357MOL0     C47020   5.813   9.594  11.304 -0.0072 -0.3615  0.9183
  357MOL0     C47021   5.859   9.478  11.227  0.3983 -0.3192 -0.7396
  357MOL0     O47022   5.819   9.358  11.270 -0.1323  0.6181  0.2860
  357MOL0     C47023   5.882   9.247  11.209  0.1654 -0.8463 -2.4008
  357MOL0     C47024   5.807   9.177  11.112  0.7925  0.4920  0.3239
  357MOL0     C47025   5.856   9.052  11.070  0.3222 -0.5141 -0.3295
  357MOL0     C47026   5.975   8.995  11.125 -0.5477 -0.2585  0.0458
  357MOL0     O47027   6.036   8.882  11.100  0.1454  1.0551 -0.4037
  357MOL0     C47028   5.955   8.754  11.094  0.2215 -0.0900 -0.0935
  357MOL0     C47029   5.962   8.689  10.952  0.6290  0.4868 -0.1122
  357MOL0     C47030   5.889   8.751  10.830  0.2397 -0.1075  0.0302
  357MOL0     C47031   5.898   8.666  10.705  0.0418  0.4940 -0.2373
  357MOL0     C47032   5.793   8.717  10.598 -0.1525  0.8671  0.1725
  357MOL0     C47033   5.790   8.634  10.467  1.0401  0.0096 -0.0291
  357MOL0     C47034   5.709   8.498  10.489  0.5886  0.3094 -0.7697
  357MOL0     C47035   5.775   8.373  10.421 -0.8036 -0.0896 -0.2691
  357MOL0    Cl47036   5.843   8.268  10.557  0.0351 -0.5584 -0.0137
  357MOL0     C47037   6.052   9.074  11.214  0.2311 -0.2570  0.5486
  357MOL0     C47038   6.004   9.196  11.250 -0.5574  0.5982 -0.2845
  357MOL0     O47039   5.918   9.506  11.121  0.1094 -0.5714 -0.7079
  357MOL0     C47040   5.744   9.593  11.429 -0.3875  0.5001  0.2784
  357MOL0     C47041   5.711   9.720  11.496 -1.0832 -0.9172 -0.5998
  357MOL0     N47042   6.071  10.250  11.588 -0.2599 -0.8647 -0.4405
  357MOL0     N47043   6.163  10.238  11.507  1.1995  0.1328  1.0501
  357MOL0     C47044   6.514   9.127  11.397  0.3771 -0.2181 -0.5804
  357MOL0     C47045   6.533   8.988  11.400  0.7936 -0.5707  0.5343
  357MOL0     C47046   6.432   8.538  11.279  0.4055 -0.2879 -0.5370
  357MOL0     C47047   6.528   8.503  11.374  0.2366  0.3336 -0.0965
  357MOL0     C47048   6.566   8.366  11.393 -0.0294  0.8330 -0.6551
  357MOL0     C47049   6.520   8.271  11.308  0.2540 -0.1516 -0.2175
  357MOL0     O47050   6.556   8.143  11.299  0.3738 -0.5496 -0.3368
  357MOL0     C47051   6.677   8.089  11.363  0.0016 -0.2111 -0.2181
  357MOL0     C47052   6.801   8.113  11.271 -0.6481 -0.5268 -0.0020
  357MOL0     C47053   6.915   8.020  11.310 -0.1624 -0.0475 -0.0107
  357MOL0     C47054   6.982   8.055  11.447 -0.1547 -0.4994 -0.0297
  357MOL0     C47055   7.122   8.035  11.434 -0.4006 -0.1243 -0.3599
  357MOL0     C47056   7.232   8.017  11.397  0.1379  0.1329  1.0787
  357MOL0     C47057   6.421   8.304  11.218  0.6815  0.7396  0.0815
  357MOL0     C47058   6.377   8.429  11.205  0.2198 -1.0332 -0.3418
  357MOL0     H47059   6.351   8.934  11.110 -2.6717  2.1251  0.5104
  357MOL0     H47060   6.318   9.142  11.115 -1.9472 -0.3292  1.5644
  357MOL0     H47061   6.255   9.396  11.222  0.0647  1.0212 -3.3486
  357MOL0     H47062   6.393   9.367  11.108 -1.9397 -1.7507 -0.1996
  357MOL0     H47063   6.494   9.564  11.171 -1.6872 -1.8075 -2.0708
  357MOL0     H47064   6.427   9.578  11.331 -4.3326  0.3072  1.3246
  357MOL0     H47065   6.200   9.631  11.238  0.7509 -0.9129  2.6707
  357MOL0     H47066   6.278   9.637  11.079  0.5271 -0.3270  0.5333
  357MOL0     H47067   6.359   9.822  11.292 -1.7685 -1.4869 -0.0001
  357MOL0     H47068   6.423   9.797  11.128 -0.1806 -1.2302 -1.6637
  357MOL0     H47069   6.139   9.857  11.124  0.7485  0.1330  0.7958
  357MOL0     H47070   6.281   9.948  11.044 -1.1014  4.6700  1.2160
  357MOL0     H47071   6.326  10.041  11.275  0.7066  1.3349 -0.6309
  357MOL0     H47072   6.181   9.964  11.325  1.6619  0.2315 -0.0393
  357MOL0     H47073   6.141  10.125  11.082  2.2007  2.3000  1.0000
  357MOL0     H47074   6.022  10.094  11.205 -0.3304 -1.6553 -2.7651
  357MOL0     H47075   6.166  10.325  11.171 -0.2548 -1.7149 -1.1225
  357MOL0     H47076   6.287  10.259  11.267  0.2256  0.8502 -1.4381
  357MOL0     H47077   5.907  10.350  11.325  0.3082  1.2187  0.2096
  357MOL0     H47078   5.802  10.426  11.567  2.2817  0.4393 -3.0001
  357MOL0     H47079   5.862  10.341  11.715  1.1302 -0.9330 -1.1051
  357MOL0     H47080   5.719  10.193  11.495 -1.1142  1.7732 -0.4553
  357MOL0     H47081   5.633  10.289  11.604  1.2461  2.1196 -2.1889
  357MOL0     H47082   5.828  10.093  11.753  1.8907  0.9118  0.8668
  357MOL0     H47083   5.652  10.141  11.785  1.9499 -1.4453  0.9742
  357MOL0     H47084   5.565   9.970  11.656  0.6655  1.1185  1.4852
  357MOL0     H47085   5.723   9.903  11.711  0.4343 -0.2042  0.1753
  357MOL0     H47086   5.838   9.937  11.276  0.0199 -0.6090 -0.6596
  357MOL0     H47087   5.894   9.742  11.160 -0.2546 -0.2499  0.0444
  357MOL0     H47088   5.720   9.222  11.065  0.6981  2.3037  2.0975
  357MOL0     H47089   5.799   8.992  11.000 -2.9243  2.3581 -0.4455
  357MOL0     H47090   5.861   8.774  11.146  0.0614 -0.4673 -0.2310
  357MOL0     H47091   6.005   8.680  11.156  2.0269  0.0994 -1.2377
  357MOL0     H47092   5.912   8.593  10.963  0.8660  0.4892  1.1956
  357MOL0     H47093   6.064   8.682  10.914  0.6864  1.3653 -0.1567
  357MOL0     H47094   5.935   8.848  10.814 -1.4491  0.3960 -2.3580
  357MOL0     H47095   5.782   8.767  10.850  0.5874  0.9788  1.1143
  357MOL0     H47096   5.998   8.678  10.662  0.1693  0.3549  0.0136
  357MOL0     H47097   5.875   8.562  10.729  2.7909 -0.4967 -1.3806
  357MOL0     H47098   5.838   8.810  10.562  0.0866 -0.6412 -4.0762
  357MOL0     H47099   5.693   8.710  10.642 -0.9947 -0.2056 -1.7531
  357MOL0     H47100   5.893   8.608  10.441  0.5202 -0.6858 -1.5311
  357MOL0     H47101   5.753   8.706  10.394 -0.2072  0.5065  1.0569
  357MOL0     H47102   5.691   8.473  10.594  0.5081 -0.6321 -0.9971
  357MOL0     H47103   5.608   8.512  10.449 -0.7805  0.5383  2.4175
  357MOL0     H47104   5.862   8.391  10.356 -0.9954  1.9993 -0.0144
  357MOL0     H47105   5.684   8.335  10.375 -2.9881  1.7494  2.2607
  357MOL0     H47106   6.142   9.036  11.260  1.3340  0.3183 -1.0413
  357MOL0     H47107   6.065   9.246  11.325  2.8520  1.9413 -3.6242
  357MOL0     H47108   5.723   9.493  11.466  0.8901 -0.4941 -1.5253
  357MOL0     H47109   5.676   9.709  11.598  3.5803  1.6257  1.6220
  357MOL0     H47110   6.554   9.188  11.478 -2.4179  0.0809  0.7192
  357MOL0     H47111   6.593   8.950  11.482 -0.4061  1.4131  2.4349
  357MOL0     H47112   6.568   8.582  11.437  1.7719 -0.2933 -0.2422
  357MOL0     H47113   6.651   8.351  11.459 -0.3803 -1.1595 -0.6101
  357MOL0     H47114   6.650   7.983  11.373 -1.7563  0.1626 -0.6155
  357MOL0     H47115   6.689   8.126  11.465 -1.4855  1.4510 -0.6016
  357MOL0     H47116   6.772   8.106  11.166 -2.7591 -3.9373  0.6708
  357MOL0     H47117   6.834   8.217  11.277 -1.4670 -0.1594 -1.4997
  357MOL0     H47118   6.993   8.030  11.234 -2.1005 -1.3300 -2.3223
  357MOL0     H47119   6.885   7.916  11.321 -1.2061  0.4653  2.9051
  357MOL0     H47120   6.970   8.159  11.478  0.3126 -0.6202  0.5789
  357MOL0     H47121   6.929   7.997  11.523 -1.3932 -0.6102 -0.9448
  357MOL0     H47122   7.330   7.993  11.363 -0.9386 -2.0445 -0.7315
  357MOL0     H47123   6.393   8.225  11.150  1.5716 -1.8752  2.5716
  357MOL0     H47124   6.302   8.456  11.131 -1.8936 -1.1847  1.6134
  358MOL0     O47125   2.793   5.036   6.067  0.4117 -0.1334 -0.1412
  358MOL0     C47126   2.773   5.156   6.043  0.9500 -0.1735 -0.6722
  358MOL0     O47127   2.727   5.208   5.928  0.2727 -0.9292 -0.6417
  358MOL0     C47128   2.669   5.134   5.831 -0.9939  0.9086 -0.1961
  358MOL0     C47129   2.760   5.050   5.761 -0.1668 -0.8208 -0.2169
  358MOL0     C47130   2.720   4.979   5.657 -0.3298 -0.1246  0.7998
  358MOL0     C47131   2.582   4.981   5.626 -0.3708  1.3033 -0.8704
  358MOL0     O47132   2.535   4.906   5.519 -0.6252 -1.1601 -0.6704
  358MOL0     C47133   2.451   4.795   5.552 -0.2023 -0.7406 -0.8697
  358MOL0     C47134   2.462   4.692   5.447  0.5796  0.2767  0.5263
  358MOL0     C47135   2.384   4.564   5.481 -0.4226 -0.9254 -0.6033
  358MOL0     C47136   2.427   4.439   5.410  0.7353 -0.2586  0.2428
  358MOL0     C47137   2.416   4.442   5.257  0.3726  0.4065  1.2420
  358MOL0     C47138   2.418   4.299   5.196 -0.2445  0.4797 -0.5491
  358MOL0     C47139   2.377   4.284   5.051 -0.6203 -0.9178 -0.3625
  358MOL0     C47140   2.352   4.140   5.008  0.3271  0.3096 -1.2840
  358MOL0     N47141   2.490   4.090   4.970  0.7467  0.2558  0.3971
  358MOL0     C47142   2.584   4.045   5.051 -0.6334  0.7253  0.4595
  358MOL0     C47143   2.693   4.030   4.964 -0.3748  1.6264 -0.2061
  358MOL0     C47144   2.822   3.970   5.020  1.1289 -0.0277  0.4338
  358MOL0     C47145   2.838   3.826   5.074  0.0453 -0.2601  0.5229
  358MOL0     C47146   2.874   3.734   4.961 -1.2031 -0.3745 -1.3151
  358MOL0     C47147   2.791   3.735   4.830 -0.8165  0.8178 -0.4056
  358MOL0     O47148   2.788   3.598   4.772  0.5876 -0.0009  0.6491
  358MOL0     C47149   2.710   3.585   4.655 -0.1467  0.2476  0.4331
  358MOL0     C47150   2.694   3.446   4.610 -0.6401 -0.1776 -0.3769
  358MOL0     C47151   2.645   3.428   4.474  0.8650 -0.1063  0.1349
  358MOL0     C47152   2.597   3.534   4.396 -0.5578  0.6616 -0.3809
  358MOL0     C47153   2.527   3.508   4.268 -0.4881  0.7873  0.1423
  358MOL0     O47154   2.439   3.608   4.222 -1.0326  0.3507  0.2854
  358MOL0     C47155   2.386   3.570   4.106  0.0978 -0.2927  0.8390
  358MOL0     C47156   2.254   3.526   4.100 -0.6605  0.2396 -0.3976
  358MOL0     C47157   2.198   3.466   3.987  0.4208 -1.0586  0.7699
  358MOL0     C47158   2.281   3.453   3.866 -0.3935 -0.5553 -1.0080
  358MOL0     O47159   2.243   3.395   3.747  0.1113  0.3181 -0.6210
  358MOL0     C47160   2.146   3.294   3.773 -0.8476 -0.0942 -0.6430
  358MOL0     C47161   2.127   3.217   3.636  0.1963 -0.5621 -0.1152
  358MOL0     C47162   2.250   3.144   3.575  0.4003 -0.2018  0.8570
  358MOL0     C47163   2.369   3.230   3.539  0.0462  0.7675  1.1843
  358MOL0     C47164   2.463   3.170   3.420 -0.0904 -0.4682 -0.0107
  358MOL0     C47165   2.564   3.072   3.473 -0.9081 -0.1602  0.0486
  358MOL0     C47166   2.510   2.925   3.494  0.0475 -0.2404 -0.8749
  358MOL0     C47167   2.538   2.851   3.364 -1.2734  0.6624  0.2511
  358MOL0    Cl47168   2.440   2.900   3.234  0.0498  0.0711 -0.3212
  358MOL0     C47169   2.408   3.509   3.864 -0.0049  0.5962 -0.7552
  358MOL0     C47170   2.454   3.569   3.983 -1.6722  0.0335  0.5235
  358MOL0     O47171   2.535   3.398   4.216 -0.2579 -0.1704 -0.2504
  358MOL0     C47172   2.595   3.661   4.457 -0.4638  0.1168 -0.0102
  358MOL0     C47173   2.660   3.699   4.583  0.7630  0.4203  0.2478
  358MOL0     N47174   2.657   4.072   4.835  0.4552 -0.5797 -1.0598
  358MOL0     N47175   2.542   4.118   4.850  0.8680  0.5499  0.3902
  358MOL0     C47176   2.495   5.056   5.700 -0.0631 -0.0023  0.0968
  358MOL0     C47177   2.538   5.144   5.806  0.5065 -0.3917  0.9232
  358MOL0     C47178   2.818   5.249   6.149  0.4045 -0.3264  0.1564
  358MOL0     C47179   2.776   5.388   6.151 -0.4964  0.1758  0.5562
  358MOL0     C47180   2.832   5.468   6.243  1.6914 -0.5512 -0.2634
  358MOL0     C47181   2.915   5.424   6.344  0.9310  0.4245 -0.7719
  358MOL0     O47182   2.957   5.523   6.434  0.4283  0.9231  0.1242
  358MOL0     C47183   2.999   5.479   6.567  0.7940 -0.0987 -0.1868
  358MOL0     C47184   2.980   5.575   6.691 -0.3058  0.4330  0.7993
  358MOL0     C47185   2.989   5.723   6.648 -0.6866 -0.9695  0.2436
  358MOL0     C47186   3.048   5.815   6.756  0.3603 -0.2071  0.8504
  358MOL0     C47187   3.194   5.798   6.771 -0.8391 -0.4137 -0.0237
  358MOL0     C47188   3.315   5.800   6.773 -0.5195  0.5792 -0.7478
  358MOL0     C47189   2.944   5.284   6.349 -0.2634 -0.2598  0.1565
  358MOL0     C47190   2.894   5.199   6.253  0.0283  0.5766 -1.0460
  358MOL0     H47191   2.863   5.045   5.794  0.0299  0.9186 -0.4867
  358MOL0     H47192   2.796   4.924   5.602  0.8034 -0.6383  2.8161
  358MOL0     H47193   2.350   4.832   5.567  0.8317  1.0726  2.7090
  358MOL0     H47194   2.479   4.762   5.652  2.6705  2.5086 -0.4125
  358MOL0     H47195   2.568   4.671   5.426  0.4786 -0.3862  0.6404
  358MOL0     H47196   2.427   4.738   5.355  1.4638 -0.2212 -0.0774
  358MOL0     H47197   2.283   4.591   5.452  0.2204  1.2682 -0.9936
  358MOL0     H47198   2.385   4.541   5.588  1.0013  2.8475  0.3488
  358MOL0     H47199   2.533   4.417   5.429  0.0483 -3.9540  0.5028
  358MOL0     H47200   2.370   4.357   5.454 -0.8207  1.4792  1.5925
  358MOL0     H47201   2.497   4.511   5.229  2.1478  1.3538  7.3003
  358MOL0     H47202   2.323   4.493   5.233  0.1529  0.1957  1.6315
  358MOL0     H47203   2.352   4.236   5.256 -2.1315  2.1910 -0.7196
  358MOL0     H47204   2.522   4.266   5.189 -0.5719 -0.3009 -2.4989
  358MOL0     H47205   2.293   4.353   5.042  1.3163  1.4171 -2.0495
  358MOL0     H47206   2.453   4.331   4.988 -1.2145  1.7098  0.7361
  358MOL0     H47207   2.291   4.126   4.918  1.8577 -0.1467 -2.2957
  358MOL0     H47208   2.309   4.078   5.087 -0.2863 -0.2379 -2.0332
  358MOL0     H47209   2.592   4.028   5.158  0.1667  0.6782  0.4036
  358MOL0     H47210   2.841   4.028   5.111  1.6440  1.0490 -0.3402
  358MOL0     H47211   2.899   4.002   4.949  0.0573  3.6626  0.7317
  358MOL0     H47212   2.751   3.798   5.135  0.1795  2.1101  1.9247
  358MOL0     H47213   2.924   3.824   5.141  0.5481 -3.2805 -0.0783
  358MOL0     H47214   2.978   3.747   4.930 -1.6863 -2.4105 -4.2016
  358MOL0     H47215   2.864   3.634   5.004 -3.1989  0.3298 -0.0446
  358MOL0     H47216   2.843   3.803   4.761 -2.5066  0.3500 -2.2565
  358MOL0     H47217   2.690   3.766   4.858  0.3750  2.7527  2.2022
  358MOL0     H47218   2.730   3.364   4.672  3.2569  0.4030 -1.5827
  358MOL0     H47219   2.661   3.328   4.437  5.7542  0.5593 -0.1240
  358MOL0     H47220   2.190   3.548   4.185 -3.4465  1.6938 -2.6716
  358MOL0     H47221   2.097   3.428   3.988  0.1090 -0.2545  1.3230
  358MOL0     H47222   2.054   3.339   3.812 -1.1331 -1.2789  0.1103
  358MOL0     H47223   2.178   3.225   3.851 -0.1142  1.5346  0.5630
  358MOL0     H47224   2.091   3.298   3.572  3.0656  1.6012  0.8264
  358MOL0     H47225   2.044   3.145   3.635  2.1907 -2.9987  0.2611
  358MOL0     H47226   2.218   3.096   3.482 -1.5975 -1.1367  1.9635
  358MOL0     H47227   2.290   3.071   3.646 -0.3487 -1.2827  0.1909
  358MOL0     H47228   2.330   3.325   3.502  3.7737  1.3965 -1.7258
  358MOL0     H47229   2.430   3.259   3.625  1.6299  0.2340  0.2873
  358MOL0     H47230   2.516   3.258   3.382 -0.0079 -0.1654  0.7867
  358MOL0     H47231   2.402   3.133   3.337 -0.1790 -2.3714  0.8540
  358MOL0     H47232   2.611   3.108   3.565 -0.6674 -1.3334  0.3921
  358MOL0     H47233   2.641   3.078   3.396 -1.4609  0.7700 -0.4644
  358MOL0     H47234   2.547   2.885   3.588 -2.6595  0.3068  0.5143
  358MOL0     H47235   2.402   2.932   3.508  0.4250  2.8199  1.6533
  358MOL0     H47236   2.523   2.748   3.397 -3.6443  0.6458 -0.7175
  358MOL0     H47237   2.644   2.862   3.338  0.4216 -0.2023  5.5295
  358MOL0     H47238   2.472   3.496   3.777  4.4441 -1.3904  2.4030
  358MOL0     H47239   2.557   3.603   3.981 -1.8297  0.6284  1.5768
  358MOL0     H47240   2.542   3.740   4.406 -2.4221 -0.9999  0.2023
  358MOL0     H47241   2.654   3.806   4.602 -1.0810  0.8539 -2.3487
  358MOL0     H47242   2.390   5.064   5.673 -0.6421 -1.7773  1.5804
  358MOL0     H47243   2.469   5.206   5.862 -1.4765 -1.7897  0.1386
  358MOL0     H47244   2.715   5.427   6.070  3.5673  1.6163 -2.0885
  358MOL0     H47245   2.804   5.572   6.234 -1.1145 -1.4083 -5.3178
  358MOL0     H47246   3.107   5.475   6.547  0.6604 -0.0926 -0.9331
  358MOL0     H47247   2.975   5.375   6.592 -1.1531  1.0124  3.0980
  358MOL0     H47248   2.887   5.550   6.742  1.9229  0.2111  5.2279
  358MOL0     H47249   3.050   5.557   6.773 -3.4834 -0.1608  3.6100
  358MOL0     H47250   2.902   5.763   6.595  0.0895 -1.7642 -1.6863
  358MOL0     H47251   3.074   5.742   6.582  1.5396  1.5921  3.5246
  358MOL0     H47252   3.021   5.920   6.744  0.1570 -0.2017  1.3090
  358MOL0     H47253   2.995   5.793   6.850 -0.3027  0.4149  0.6339
  358MOL0     H47254   3.421   5.806   6.787 -0.7459 -1.6179  3.1098
  358MOL0     H47255   2.998   5.233   6.428  1.2025  2.0644  0.7501
  358MOL0     H47256   2.926   5.096   6.245  0.1669  0.4166  1.0569
  359MOL0     O47257   2.235   3.759   5.270  0.3811 -0.1139 -0.3224
  359MOL0     C47258   2.329   3.767   5.189  0.6689  0.9679 -0.0115
  359MOL0     O47259   2.462   3.803   5.214 -0.5422  0.6523 -0.0153
  359MOL0     C47260   2.493   3.846   5.336 -0.5104 -0.4483  0.2946
  359MOL0     C47261   2.433   3.960   5.385  0.0020 -0.5141 -0.1325
  359MOL0     C47262   2.478   4.016   5.505  0.0514  0.4262 -0.3777
  359MOL0     C47263   2.580   3.958   5.586 -0.6447 -0.3260  0.3276
  359MOL0     O47264   2.653   4.009   5.690 -0.5294  0.6460 -0.2084
  359MOL0     C47265   2.643   4.153   5.702 -1.2501 -0.6431 -0.7180
  359MOL0     C47266   2.730   4.193   5.823  0.6311 -0.2908  0.8896
  359MOL0     C47267   2.691   4.336   5.872  0.4061 -0.8850  0.3982
  359MOL0     C47268   2.656   4.440   5.758  0.4200  0.0361 -0.0067
  359MOL0     C47269   2.694   4.580   5.815  0.9166 -0.0395  0.1925
  359MOL0     C47270   2.576   4.612   5.913 -0.2135 -0.3512  0.6545
  359MOL0     C47271   2.594   4.757   5.979  0.1947 -0.0296 -0.2161
  359MOL0     C47272   2.494   4.742   6.097  0.9587 -0.8187 -0.4162
  359MOL0     N47273   2.471   4.869   6.177 -0.2324  1.2491 -0.1961
  359MOL0     C47274   2.564   4.925   6.259 -1.1550  1.1442 -0.3064
  359MOL0     C47275   2.506   5.042   6.304 -0.2014 -0.0713 -0.4018
  359MOL0     C47276   2.551   5.150   6.394  0.8027  0.0363  0.1000
  359MOL0     C47277   2.470   5.151   6.523 -0.0422 -0.6346  0.6635
  359MOL0     C47278   2.524   5.264   6.619  0.0391 -0.2095 -0.9508
  359MOL0     C47279   2.462   5.255   6.759 -1.4294 -0.0223 -1.2153
  359MOL0     O47280   2.519   5.351   6.865  0.4394  0.2891  0.2287
  359MOL0     C47281   2.509   5.482   6.848 -0.4818  0.3037 -0.4260
  359MOL0     C47282   2.404   5.551   6.786  0.8969 -0.0576  0.6166
  359MOL0     C47283   2.418   5.688   6.779  0.7564 -0.5784 -0.4749
  359MOL0     C47284   2.525   5.765   6.830 -0.7107  0.3463  0.7498
  359MOL0     C47285   2.540   5.910   6.833 -0.4583 -0.3687  0.3712
  359MOL0     O47286   2.432   5.982   6.865  0.3031 -0.2076  0.3267
  359MOL0     C47287   2.408   6.113   6.847  0.1013 -0.5802  0.4804
  359MOL0     C47288   2.499   6.223   6.822  0.1034  0.8179  0.2967
  359MOL0     C47289   2.446   6.358   6.797  0.0879 -0.4587 -0.5671
  359MOL0     C47290   2.307   6.377   6.796  0.0933 -0.8860  0.1868
  359MOL0     O47291   2.242   6.488   6.738  0.7475 -0.0646  0.2585
  359MOL0     C47292   2.310   6.588   6.676 -0.1804 -0.1887 -0.1874
  359MOL0     C47293   2.338   6.700   6.773 -0.8741 -0.7056  0.3366
  359MOL0     C47294   2.325   6.835   6.701  1.2792 -1.6222 -0.2374
  359MOL0     C47295   2.383   6.950   6.790 -0.4591 -0.6053 -0.2975
  359MOL0     C47296   2.312   7.084   6.787 -0.8242  0.3322 -0.4261
  359MOL0     C47297   2.356   7.168   6.900 -0.6373 -0.1688  0.0334
  359MOL0     C47298   2.292   7.124   7.039  0.1021  0.1157  0.5818
  359MOL0     C47299   2.286   7.234   7.146 -0.5698 -0.0476  0.8135
  359MOL0    Cl47300   2.202   7.375   7.085  0.2269  0.0393  0.1997
  359MOL0     C47301   2.228   6.268   6.826 -0.5863 -0.6065 -0.4675
  359MOL0     C47302   2.270   6.137   6.848 -0.0864 -0.9256 -0.1025
  359MOL0     O47303   2.646   5.964   6.798 -0.6031  0.7532 -0.0259
  359MOL0     C47304   2.634   5.698   6.871 -0.3758  0.4299 -0.4283
  359MOL0     C47305   2.626   5.557   6.881  0.1129 -0.0392 -0.7323
  359MOL0     N47306   2.381   5.058   6.242 -0.5589  0.0257 -1.0729
  359MOL0     N47307   2.363   4.954   6.164 -0.3930  0.2927  0.1246
  359MOL0     C47308   2.645   3.850   5.529 -0.1060 -0.6934  0.4557
  359MOL0     C47309   2.607   3.796   5.413  0.0816  0.4028 -0.3385
  359MOL0     C47310   2.289   3.721   5.055 -0.5615  0.8935 -0.5596
  359MOL0     C47311   2.387   3.725   4.956  0.5240 -0.9176  0.0520
  359MOL0     C47312   2.362   3.665   4.840 -0.3062  0.3934  0.6780
  359MOL0     C47313   2.244   3.607   4.803  0.6192 -0.7339  0.0406
  359MOL0     O47314   2.227   3.541   4.688 -0.8466 -0.2857 -0.0108
  359MOL0     C47315   2.112   3.473   4.662  0.5805  0.5224  0.2560
  359MOL0     C47316   2.125   3.380   4.536  0.2934 -0.5155 -0.4759
  359MOL0     C47317   1.975   3.335   4.485 -0.0762  0.0010 -0.5719
  359MOL0     C47318   1.973   3.315   4.337 -0.5751  1.1031  1.0686
  359MOL0     C47319   1.912   3.419   4.253 -0.1134  1.0777 -0.2221
  359MOL0     C47320   1.867   3.506   4.189  0.8243  0.3469 -1.1596
  359MOL0     C47321   2.143   3.599   4.907 -0.6563 -0.0876 -0.3849
  359MOL0     C47322   2.161   3.654   5.031 -1.1750  0.0126 -0.4256
  359MOL0     H47323   2.348   3.998   5.328  0.7347 -2.6630 -2.8714
  359MOL0     H47324   2.435   4.111   5.535 -2.7328 -1.8221  3.8261
  359MOL0     H47325   2.538   4.185   5.711 -1.9048 -2.4289 -1.5488
  359MOL0     H47326   2.677   4.200   5.610  0.4656  2.2778  1.2203
  359MOL0     H47327   2.837   4.189   5.798  0.2519 -0.3881 -0.7929
  359MOL0     H47328   2.707   4.122   5.903 -0.3567 -2.2538 -1.0311
  359MOL0     H47329   2.784   4.371   5.918  0.1177  2.6911 -1.3588
  359MOL0     H47330   2.611   4.337   5.947  2.7415  0.4445  3.0623
  359MOL0     H47331   2.718   4.417   5.670 -0.6257 -1.0517 -0.4733
  359MOL0     H47332   2.553   4.431   5.723  1.5544 -0.4251 -3.6325
  359MOL0     H47333   2.682   4.661   5.744 -2.0558 -1.1360 -0.6759
  359MOL0     H47334   2.790   4.585   5.867  0.4865  0.5548  0.9517
  359MOL0     H47335   2.571   4.530   5.985 -0.3495 -3.1907 -2.3659
  359MOL0     H47336   2.485   4.601   5.853 -0.2892  0.6177  0.5692
  359MOL0     H47337   2.699   4.775   6.003  0.5583 -0.6435 -1.2865
  359MOL0     H47338   2.570   4.828   5.900 -1.5193 -1.0816 -0.6993
  359MOL0     H47339   2.529   4.666   6.167  1.5599  1.2150  1.6368
  359MOL0     H47340   2.403   4.694   6.060  1.1211 -1.5829  0.1478
  359MOL0     H47341   2.671   4.905   6.260 -1.2319  0.7098 -0.5830
  359MOL0     H47342   2.536   5.247   6.348  0.3451  1.6070  3.2729
  359MOL0     H47343   2.656   5.142   6.422  1.3062  0.9092 -1.4513
  359MOL0     H47344   2.474   5.058   6.581 -2.3601 -2.3015 -1.5912
  359MOL0     H47345   2.366   5.177   6.500  0.2232 -1.1225 -1.3003
  359MOL0     H47346   2.633   5.261   6.620  0.2305  1.9486 -3.2002
  359MOL0     H47347   2.497   5.363   6.580  0.5527  0.2420 -0.1704
  359MOL0     H47348   2.460   5.157   6.807  1.3789  1.7806  3.1629
  359MOL0     H47349   2.359   5.290   6.755  0.1489  5.6687 -0.6206
  359MOL0     H47350   2.303   5.516   6.766  0.5907  1.1877 -0.1204
  359MOL0     H47351   2.332   5.752   6.762 -0.8217 -2.0567  1.4819
  359MOL0     H47352   2.606   6.208   6.819  0.7234  4.4374 -0.7179
  359MOL0     H47353   2.511   6.439   6.765 -3.8213  2.5209 -1.7956
  359MOL0     H47354   2.259   6.621   6.585  2.7689  2.7662 -0.9708
  359MOL0     H47355   2.407   6.559   6.637  0.7231 -0.4757  2.1164
  359MOL0     H47356   2.430   6.694   6.833  1.4946 -1.8538 -3.0899
  359MOL0     H47357   2.261   6.687   6.849  0.5959 -4.9807  1.3681
  359MOL0     H47358   2.217   6.848   6.689  1.7877  1.2707 -2.7271
  359MOL0     H47359   2.376   6.836   6.604 -2.1110 -0.7654 -2.1927
  359MOL0     H47360   2.362   6.930   6.896 -1.7362 -2.6693 -0.8814
  359MOL0     H47361   2.489   6.959   6.764 -0.0505  2.2198  1.8033
  359MOL0     H47362   2.205   7.065   6.783 -1.1508  1.4621  1.6311
  359MOL0     H47363   2.328   7.140   6.694 -0.9043  1.5764  0.2794
  359MOL0     H47364   2.332   7.272   6.874 -1.2302  0.2775  2.1681
  359MOL0     H47365   2.464   7.158   6.919 -0.3211 -2.3379 -2.3581
  359MOL0     H47366   2.187   7.095   7.039 -0.4995  2.0476 -1.5344
  359MOL0     H47367   2.333   7.028   7.072 -1.5199 -1.6044 -2.1097
  359MOL0     H47368   2.390   7.263   7.163  0.5838 -1.9384 -2.1286
  359MOL0     H47369   2.240   7.203   7.240 -2.7086  1.7986  0.4361
  359MOL0     H47370   2.120   6.271   6.826 -0.5832 -0.4001  0.0930
  359MOL0     H47371   2.196   6.058   6.862 -2.7557  1.2963 -0.8978
  359MOL0     H47372   2.734   5.739   6.886 -0.7185  1.7633 -1.6483
  359MOL0     H47373   2.708   5.512   6.936  0.3974  1.5974  0.2231
  359MOL0     H47374   2.723   3.806   5.590 -3.0387 -0.9538  4.3863
  359MOL0     H47375   2.663   3.712   5.373  2.4327  1.1057  1.2688
  359MOL0     H47376   2.482   3.776   4.962 -0.3386  0.8543 -0.5939
  359MOL0     H47377   2.446   3.677   4.772  0.3947 -1.3133  1.1825
  359MOL0     H47378   2.027   3.541   4.648  0.5278  0.0743 -1.8608
  359MOL0     H47379   2.089   3.408   4.748  0.9846  1.0756  0.7892
  359MOL0     H47380   2.184   3.420   4.453  0.6587 -0.7570 -0.3362
  359MOL0     H47381   2.182   3.297   4.579  0.9866  0.3145  0.2244
  359MOL0     H47382   1.909   3.421   4.495 -1.9842 -1.4765  0.0863
  359MOL0     H47383   1.948   3.241   4.535 -2.3558  1.1391  0.4683
  359MOL0     H47384   2.075   3.308   4.297 -1.4985  1.2034 -1.5016
  359MOL0     H47385   1.932   3.217   4.311 -0.0614  1.1831 -0.0775
  359MOL0     H47386   1.842   3.601   4.147  1.5910  1.7830  1.4458
  359MOL0     H47387   2.042   3.561   4.900  0.0058 -2.3088  1.0131
  359MOL0     H47388   2.092   3.641   5.115  0.6211 -2.7691  0.7655
  360MOL0     O47389   0.973   7.151   9.893  0.9886  0.2677  0.4473
  360MOL0     C47390   0.992   7.073   9.981  0.2967  0.5418  0.2440
  360MOL0     O47391   1.051   6.953   9.973  0.3361 -1.3906  0.0225
  360MOL0     C47392   1.127   6.911   9.871 -0.1268  0.3396  0.0600
  360MOL0     C47393   1.251   6.868   9.900 -0.2960  0.0671 -0.7082
  360MOL0     C47394   1.340   6.804   9.816 -0.6932 -0.1696 -0.2248
  360MOL0     C47395   1.298   6.794   9.677 -0.3265  0.4042  0.6477
  360MOL0     O47396   1.382   6.730   9.594  0.1493 -0.1067  0.6869
  360MOL0     C47397   1.395   6.774   9.459 -0.3480  0.6041 -0.8688
  360MOL0     C47398   1.480   6.656   9.398 -0.8624 -0.4417 -0.2317
  360MOL0     C47399   1.392   6.555   9.330  0.7502  0.6612 -0.1017
  360MOL0     C47400   1.318   6.472   9.429  0.5877 -0.4729 -0.6762
  360MOL0     C47401   1.394   6.400   9.538 -0.7205  0.4314 -0.1587
  360MOL0     C47402   1.510   6.312   9.491 -0.6653 -1.8637 -0.5127
  360MOL0     C47403   1.594   6.230   9.590  0.7676 -0.1886  0.0903
  360MOL0     C47404   1.680   6.321   9.692 -0.2677  0.2839  0.7080
  360MOL0     N47405   1.798   6.369   9.628 -0.3636  0.7524 -0.1269
  360MOL0     C47406   1.916   6.299   9.630 -0.2916  0.1288  1.2564
  360MOL0     C47407   1.994   6.376   9.543 -0.3085  0.2288  0.2491
  360MOL0     C47408   2.125   6.330   9.483 -0.8847 -0.0952  0.5767
  360MOL0     C47409   2.243   6.319   9.584  0.6116 -0.0395 -0.0653
  360MOL0     C47410   2.321   6.453   9.594 -0.4153 -0.3460  0.8925
  360MOL0     C47411   2.428   6.459   9.712 -0.4384 -0.4365 -0.1013
  360MOL0     O47412   2.541   6.365   9.702  0.3987  0.0662  0.1187
  360MOL0     C47413   2.660   6.401   9.669 -0.0262  0.2225  0.1147
  360MOL0     C47414   2.763   6.354   9.747 -0.5162 -0.8024 -0.3743
  360MOL0     C47415   2.903   6.364   9.709  0.5973  1.1226 -0.1412
  360MOL0     C47416   2.945   6.425   9.593 -0.1553 -0.3050  0.2737
  360MOL0     C47417   3.085   6.412   9.548 -0.3742 -0.2691  0.1763
  360MOL0     O47418   3.110   6.449   9.422 -0.3056 -0.4686  0.2907
  360MOL0     C47419   3.228   6.411   9.365  0.1419  1.1120 -0.2129
  360MOL0     C47420   3.320   6.511   9.302  0.4566  0.1918  0.1305
  360MOL0     C47421   3.430   6.464   9.236 -0.5222 -0.9477 -0.8201
  360MOL0     C47422   3.465   6.337   9.228  0.1207  0.9883  0.1019
  360MOL0     O47423   3.575   6.293   9.156  0.3500  0.0335  0.6664
  360MOL0     C47424   3.541   6.217   9.040  0.1114  0.0189 -0.1426
  360MOL0     C47425   3.647   6.266   8.943 -0.5862  0.7385  1.1588
  360MOL0     C47426   3.634   6.200   8.801  0.6045 -0.7800 -0.1110
  360MOL0     C47427   3.713   6.285   8.695 -0.0840 -1.2166  0.6218
  360MOL0     C47428   3.672   6.245   8.549 -0.2878 -0.8620  0.3660
  360MOL0     C47429   3.764   6.284   8.443 -0.0531  0.1621  0.4949
  360MOL0     C47430   3.823   6.437   8.450  0.7981 -0.0507 -0.1691
  360MOL0     C47431   3.843   6.500   8.316 -0.4530  0.1488  0.0285
  360MOL0    Cl47432   3.897   6.383   8.187  0.0633 -0.3645 -0.2581
  360MOL0     C47433   3.366   6.241   9.285 -0.2647  0.2213 -0.7251
  360MOL0     C47434   3.251   6.277   9.350  0.2094  0.0025 -0.4322
  360MOL0     O47435   3.169   6.386   9.627  0.2576 -0.2228 -0.2424
  360MOL0     C47436   2.841   6.481   9.512 -0.3728  0.3829 -0.2719
  360MOL0     C47437   2.703   6.456   9.543  0.3213  1.6105  0.3418
  360MOL0     N47438   1.924   6.497   9.511  0.7436  0.8551 -0.4403
  360MOL0     N47439   1.805   6.490   9.558 -0.4991 -0.4168  0.2299
  360MOL0     C47440   1.173   6.855   9.641 -0.0614 -0.0745 -0.2918
  360MOL0     C47441   1.083   6.904   9.743 -0.1371  0.0930 -0.1585
  360MOL0     C47442   0.920   7.080  10.102 -0.8777  0.3406 -0.8378
  360MOL0     C47443   0.966   7.021  10.219  0.1147 -0.2352 -0.4028
  360MOL0     C47444   0.897   7.032  10.342  0.7539  0.5196  0.6493
  360MOL0     C47445   0.779   7.104  10.349 -0.4436 -0.3223 -0.9786
  360MOL0     O47446   0.735   7.141  10.479  0.4600  0.0607 -0.0066
  360MOL0     C47447   0.595   7.197  10.483 -0.6961  1.0701 -1.2475
  360MOL0     C47448   0.544   7.204  10.622 -0.5627  0.1883  0.2593
  360MOL0     C47449   0.395   7.240  10.621 -0.6572  0.7397  0.4081
  360MOL0     C47450   0.344   7.246  10.759  0.2185 -0.0732  0.0129
  360MOL0     C47451   0.400   7.367  10.826  0.5691 -0.3560 -0.7910
  360MOL0     C47452   0.441   7.474  10.866  0.2333 -0.2162  0.0819
  360MOL0     C47453   0.727   7.154  10.234  0.3430  0.4161 -0.7334
  360MOL0     C47454   0.793   7.138  10.116 -0.2527 -0.2135  0.1845
  360MOL0     H47455   1.286   6.891  10.000  1.2163 -1.0682 -0.9362
  360MOL0     H47456   1.433   6.762   9.854  1.5054  2.1735 -2.5872
  360MOL0     H47457   1.449   6.869   9.449 -1.5162  1.4786  0.7964
  360MOL0     H47458   1.301   6.778   9.403 -0.5743  0.6062 -0.4882
  360MOL0     H47459   1.560   6.616   9.461  0.1035  1.5129 -0.1531
  360MOL0     H47460   1.529   6.707   9.314  0.0441  0.6061  0.8880
  360MOL0     H47461   1.446   6.486   9.264  0.9062  3.5651 -3.3257
  360MOL0     H47462   1.320   6.611   9.269 -0.5459 -1.0036 -0.1637
  360MOL0     H47463   1.255   6.540   9.488  1.0790 -1.0332  0.5348
  360MOL0     H47464   1.254   6.405   9.370 -1.2324  0.8664 -0.3128
  360MOL0     H47465   1.319   6.337   9.587 -0.7869  0.8756  0.3171
  360MOL0     H47466   1.440   6.476   9.602  0.7129 -0.4452 -0.0739
  360MOL0     H47467   1.580   6.382   9.443 -2.2161 -0.7709 -1.2577
  360MOL0     H47468   1.459   6.237   9.430 -0.7695 -0.1411 -2.6707
  360MOL0     H47469   1.513   6.192   9.653  2.0880  1.8349  3.2452
  360MOL0     H47470   1.650   6.144   9.552 -0.2563 -2.1943  2.8594
  360MOL0     H47471   1.702   6.253   9.775 -0.3983  0.0069  0.5189
  360MOL0     H47472   1.625   6.409   9.724  1.4644  1.2205  1.2070
  360MOL0     H47473   1.941   6.197   9.655  0.9293 -0.2728 -1.2448
  360MOL0     H47474   2.157   6.409   9.414 -0.1880 -2.4735 -1.9913
  360MOL0     H47475   2.108   6.239   9.425  2.8811 -1.2947  1.0663
  360MOL0     H47476   2.300   6.236   9.542 -2.8816 -1.1232 -3.2665
  360MOL0     H47477   2.203   6.298   9.683 -1.5727 -1.0216 -1.0820
  360MOL0     H47478   2.374   6.466   9.499 -3.0356 -2.6142 -1.0766
  360MOL0     H47479   2.250   6.537   9.597  1.6731  1.5215  0.9443
  360MOL0     H47480   2.378   6.444   9.808 -1.6412 -1.3942 -0.8481
  360MOL0     H47481   2.464   6.562   9.719 -0.8526 -0.0117 -2.9724
  360MOL0     H47482   2.732   6.297   9.833 -1.1699 -0.3229 -0.2897
  360MOL0     H47483   2.973   6.310   9.773 -1.8652  1.1183  2.7347
  360MOL0     H47484   3.311   6.617   9.325  1.7880 -0.0748  2.1750
  360MOL0     H47485   3.495   6.543   9.199 -1.1430  0.7673  1.4880
  360MOL0     H47486   3.441   6.241   9.001 -0.0308 -0.6521 -0.1888
  360MOL0     H47487   3.548   6.110   9.058 -1.3150 -0.0525  0.1339
  360MOL0     H47488   3.747   6.241   8.979 -0.1794 -0.6401 -0.7922
  360MOL0     H47489   3.645   6.374   8.928  1.3899  0.4728 -1.5661
  360MOL0     H47490   3.526   6.193   8.781 -0.0039  0.5140  2.2564
  360MOL0     H47491   3.672   6.098   8.797  0.1084 -0.9316 -1.4767
  360MOL0     H47492   3.689   6.390   8.715  2.5144 -0.8678  2.4562
  360MOL0     H47493   3.818   6.269   8.720  0.1139 -0.4402  0.3121
  360MOL0     H47494   3.571   6.276   8.522 -0.5517 -0.8725  1.3232
  360MOL0     H47495   3.667   6.135   8.552  3.0341 -1.1389  0.0267
  360MOL0     H47496   3.718   6.279   8.344  0.3670  1.1470  0.2331
  360MOL0     H47497   3.850   6.216   8.437  0.8761  1.4092 -2.5094
  360MOL0     H47498   3.758   6.496   8.514 -1.5370 -0.6818 -1.8494
  360MOL0     H47499   3.916   6.426   8.508  1.4690  1.6174 -0.8535
  360MOL0     H47500   3.900   6.592   8.326 -0.5270  0.3932 -1.6220
  360MOL0     H47501   3.745   6.537   8.285  0.1538  2.6928  0.9279
  360MOL0     H47502   3.392   6.137   9.266 -0.7482 -0.1850  0.6552
  360MOL0     H47503   3.178   6.206   9.388 -0.4928  0.6813 -0.5039
  360MOL0     H47504   2.876   6.516   9.415  2.7651  2.4381  1.4200
  360MOL0     H47505   2.627   6.501   9.480 -1.3581  2.9600  3.1530
  360MOL0     H47506   1.130   6.839   9.542  0.3664 -3.7584 -0.0219
  360MOL0     H47507   0.987   6.953   9.727  0.5847  0.4788 -4.3003
  360MOL0     H47508   1.055   6.959  10.220  0.4706  0.1405  3.0226
  360MOL0     H47509   0.940   6.991  10.433  1.3960  0.9635  0.5562
  360MOL0     H47510   0.532   7.117  10.443 -0.2607 -1.3196  2.3451
  360MOL0     H47511   0.590   7.291  10.426  4.0564  2.8776  0.7564
  360MOL0     H47512   0.561   7.103  10.661  1.9152  0.3659 -0.1502
  360MOL0     H47513   0.599   7.283  10.674 -1.9609  1.2085  0.2273
  360MOL0     H47514   0.341   7.156  10.575 -2.6689  2.6972 -0.9783
  360MOL0     H47515   0.384   7.335  10.569 -0.6599  0.4260 -0.1804
  360MOL0     H47516   0.235   7.246  10.760  0.2138  0.3257 -0.1616
  360MOL0     H47517   0.364   7.160  10.823  0.6144 -0.5613 -0.7498
  360MOL0     H47518   0.496   7.564  10.883 -0.2484  0.1411 -0.2129
  360MOL0     H47519   0.633   7.207  10.242 -0.5087 -1.2394  1.0151
  360MOL0     H47520   0.744   7.171  10.025 -0.3043  3.8895  1.5102
  361MOL0     O47521   1.110   8.037   9.614  0.3481  0.2123  0.6054
  361MOL0     C47522   1.155   8.109   9.525  0.1043  0.0494 -0.1648
  361MOL0     O47523   1.214   8.230   9.549 -0.4153 -0.4473 -0.0735
  361MOL0     C47524   1.203   8.284   9.678  0.2733 -0.3011 -0.0041
  361MOL0     C47525   1.296   8.248   9.774 -0.0757 -0.2700  0.0539
  361MOL0     C47526   1.287   8.298   9.911 -0.7819 -0.2294  0.1953
  361MOL0     C47527   1.171   8.373   9.945  0.0483 -0.3062  0.4870
  361MOL0     O47528   1.150   8.412  10.075 -0.7591 -0.5406  0.9026
  361MOL0     C47529   1.191   8.552  10.087 -0.1038 -0.8271 -0.0370
  361MOL0     C47530   1.208   8.589  10.235  0.9166  1.1458 -0.7843
  361MOL0     C47531   1.076   8.562  10.308 -1.3251 -0.4146 -0.1222
  361MOL0     C47532   1.091   8.600  10.456 -0.6137  0.1949 -0.2442
  361MOL0     C47533   1.194   8.508  10.543  0.6142  0.2226  0.4628
  361MOL0     C47534   1.125   8.368  10.555  0.4963  0.7438 -0.1547
  361MOL0     C47535   1.208   8.254  10.615 -0.3279  0.0542  0.9995
  361MOL0     C47536   1.307   8.207  10.502 -0.2517 -0.1089 -0.9145
  361MOL0     N47537   1.221   8.123  10.409  0.4167 -0.7436  0.8153
  361MOL0     C47538   1.170   8.160  10.287 -0.5399  0.5904  1.2046
  361MOL0     C47539   1.113   8.047  10.237 -0.5272  0.6244 -0.3827
  361MOL0     C47540   1.056   8.052  10.098  0.3075 -0.5518  0.6535
  361MOL0     C47541   1.088   7.943   9.996 -0.9533 -0.2297 -0.8915
  361MOL0     C47542   1.243   7.942   9.983 -0.1721  0.4959  0.7221
  361MOL0     C47543   1.293   7.894   9.843 -0.0760 -0.7668 -0.2924
  361MOL0     O47544   1.434   7.861   9.836  0.4074  0.3889 -0.0144
  361MOL0     C47545   1.468   7.794   9.724  0.7223  0.2091  0.2263
  361MOL0     C47546   1.415   7.830   9.599  0.2360  0.0554  0.2488
  361MOL0     C47547   1.461   7.783   9.479 -1.2869 -0.2933  0.9979
  361MOL0     C47548   1.567   7.691   9.474  1.2116 -0.3241 -0.9270
  361MOL0     C47549   1.623   7.640   9.349 -0.6677 -0.3107  0.1228
  361MOL0     O47550   1.748   7.564   9.347  0.1183 -1.0934  0.2558
  361MOL0     C47551   1.774   7.480   9.239  0.7207 -0.2469 -0.2302
  361MOL0     C47552   1.891   7.508   9.172 -0.6289 -0.2106 -0.0881
  361MOL0     C47553   1.924   7.452   9.048  0.2426 -0.2420 -0.1266
  361MOL0     C47554   1.838   7.351   8.997  0.5670  1.2107  0.4930
  361MOL0     O47555   1.877   7.281   8.882 -0.0153 -0.3797 -0.2116
  361MOL0     C47556   1.959   7.326   8.772 -0.3514 -0.4993  0.4389
  361MOL0     C47557   1.932   7.241   8.641 -0.2707 -0.1175  0.4867
  361MOL0     C47558   2.013   7.110   8.660 -0.5290 -0.6535  0.3481
  361MOL0     C47559   2.019   7.047   8.515 -0.0753 -0.2247 -0.2883
  361MOL0     C47560   2.103   6.912   8.522 -0.7582 -0.3040  0.3475
  361MOL0     C47561   2.114   6.851   8.385  0.9466  0.2323  0.4067
  361MOL0     C47562   2.002   6.751   8.349  0.2429  0.1849 -1.1166
  361MOL0     C47563   2.016   6.681   8.215  0.5057  0.2670 -0.6929
  361MOL0    Cl47564   2.129   6.543   8.267 -0.1189  0.0251  0.2799
  361MOL0     C47565   1.723   7.320   9.067  0.3464  0.0392  0.5883
  361MOL0     C47566   1.684   7.389   9.185 -0.1728 -0.5929 -0.2205
  361MOL0     O47567   1.559   7.678   9.249 -0.3255  0.4009  0.4461
  361MOL0     C47568   1.609   7.637   9.599  0.2791  0.0873 -0.5445
  361MOL0     C47569   1.564   7.692   9.723  0.5465 -1.3944  0.4650
  361MOL0     N47570   1.131   7.936  10.318  1.0468  0.0882 -1.2802
  361MOL0     N47571   1.203   7.991  10.419 -0.8825 -0.2829 -0.3132
  361MOL0     C47572   1.071   8.393   9.854  0.0855 -0.4611  0.3625
  361MOL0     C47573   1.086   8.357   9.720 -0.5282  0.1435 -0.2541
  361MOL0     C47574   1.162   8.052   9.392  0.4045 -0.4654  0.4698
  361MOL0     C47575   1.125   7.915   9.377  0.6127  0.7282  0.5953
  361MOL0     C47576   1.101   7.860   9.246  0.3717 -0.3211  0.0204
  361MOL0     C47577   1.140   7.930   9.138 -0.8719  0.9183  1.2538
  361MOL0     O47578   1.120   7.871   9.016  0.8450 -0.0317 -0.4166
  361MOL0     C47579   1.227   7.795   8.962  0.1069 -0.4765 -0.4976
  361MOL0     C47580   1.210   7.769   8.816 -0.1238 -0.5470  0.5796
  361MOL0     C47581   1.201   7.623   8.788 -0.1399  0.0369  0.0415
  361MOL0     C47582   1.094   7.533   8.838 -0.1256 -0.6895  0.4676
  361MOL0     C47583   1.117   7.485   8.977  0.3280  0.2114  0.1626
  361MOL0     C47584   1.144   7.422   9.078  0.9082 -0.4032  0.5377
  361MOL0     C47585   1.177   8.066   9.146  0.0093  1.3941 -0.1414
  361MOL0     C47586   1.180   8.128   9.275  0.3422  0.9601 -0.3102
  361MOL0     H47587   1.381   8.190   9.741  1.8195  1.3487  1.7477
  361MOL0     H47588   1.361   8.275   9.987 -0.4832 -2.8058 -0.7849
  361MOL0     H47589   1.109   8.611  10.044 -1.9615 -1.7139  2.0404
  361MOL0     H47590   1.287   8.556  10.036 -1.1576 -1.3483 -2.1601
  361MOL0     H47591   1.238   8.694  10.250 -2.0426  1.9785 -0.0492
  361MOL0     H47592   1.282   8.529  10.290 -1.0682 -1.2612 -0.5891
  361MOL0     H47593   1.054   8.456  10.291  0.5626 -1.0190  0.9205
  361MOL0     H47594   0.998   8.626  10.265 -0.8085  0.4655  0.2131
  361MOL0     H47595   1.125   8.703  10.461 -0.6383  0.5823 -4.3983
  361MOL0     H47596   0.992   8.586  10.499 -1.8104  0.2605 -2.7827
  361MOL0     H47597   1.200   8.555  10.641  2.0024  4.3786 -1.3978
  361MOL0     H47598   1.296   8.516  10.505 -0.7082  1.7158 -3.2239
  361MOL0     H47599   1.085   8.331  10.460 -0.7426 -0.5892  0.8603
  361MOL0     H47600   1.041   8.388  10.622  2.0851  2.9043  1.3279
  361MOL0     H47601   1.251   8.279  10.712 -0.4315  3.6845  0.2722
  361MOL0     H47602   1.146   8.167  10.635  1.0449 -1.0513  0.6441
  361MOL0     H47603   1.377   8.139  10.552  0.4536  1.1222 -0.1923
  361MOL0     H47604   1.370   8.285  10.460 -1.5212  0.9661 -0.8878
  361MOL0     H47605   1.166   8.258  10.240  1.1066 -0.6827 -1.8438
  361MOL0     H47606   1.079   8.148  10.052 -2.5069 -0.1523 -0.1529
  361MOL0     H47607   0.946   8.056  10.104  0.3253  0.0976  0.5702
  361MOL0     H47608   1.026   7.966   9.909 -4.2769  2.6727  1.9501
  361MOL0     H47609   1.048   7.861  10.055 -0.2461 -0.2317 -0.4035
  361MOL0     H47610   1.274   8.046   9.998  0.5432  0.1564  1.6796
  361MOL0     H47611   1.274   7.879  10.067 -2.2528  0.7979  1.7900
  361MOL0     H47612   1.280   7.987   9.787 -1.6291  2.0451  4.1474
  361MOL0     H47613   1.237   7.818   9.789 -0.6794 -0.3907 -0.2122
  361MOL0     H47614   1.338   7.907   9.602  0.8348  0.8071 -1.8428
  361MOL0     H47615   1.414   7.827   9.391 -2.1000 -2.5593  0.2230
  361MOL0     H47616   1.970   7.569   9.214 -0.0290 -0.6104 -0.6122
  361MOL0     H47617   2.018   7.478   9.000  0.5558  0.1723  0.6944
  361MOL0     H47618   2.066   7.328   8.795 -0.0160 -0.6743 -1.0154
  361MOL0     H47619   1.931   7.429   8.749 -4.5018 -1.2179  1.4151
  361MOL0     H47620   1.977   7.312   8.571 -2.7379  1.4334  0.3780
  361MOL0     H47621   1.826   7.224   8.619 -0.9938  2.0136  2.0560
  361MOL0     H47622   1.973   7.039   8.734 -2.5631 -0.3243 -0.3781
  361MOL0     H47623   2.115   7.138   8.690 -0.3765 -1.7468  0.9186
  361MOL0     H47624   1.921   7.023   8.473 -0.6089  3.4880 -1.5585
  361MOL0     H47625   2.071   7.111   8.443 -0.2499  1.6716  1.1874
  361MOL0     H47626   2.055   6.843   8.593 -1.6727 -1.3012 -1.1680
  361MOL0     H47627   2.204   6.933   8.558  0.1641 -1.3275 -1.5099
  361MOL0     H47628   2.201   6.784   8.387  0.7625 -0.0900 -1.1838
  361MOL0     H47629   2.128   6.924   8.305 -0.1793  0.8563  0.7590
  361MOL0     H47630   1.977   6.680   8.429  2.4611 -2.3439 -2.5130
  361MOL0     H47631   1.919   6.823   8.345  2.8094  3.3957 -0.5686
  361MOL0     H47632   2.073   6.740   8.142  2.3691 -4.3592 -3.4169
  361MOL0     H47633   1.917   6.648   8.183 -1.7841  4.9639  0.6806
  361MOL0     H47634   1.679   7.236   9.014  2.0196 -0.6104  0.1599
  361MOL0     H47635   1.591   7.364   9.235 -0.7467  0.5832 -0.6711
  361MOL0     H47636   1.680   7.556   9.606  2.2286  1.8856  1.7904
  361MOL0     H47637   1.590   7.658   9.822 -2.2213 -5.3310  0.0721
  361MOL0     H47638   0.976   8.439   9.879 -0.3351  0.0388 -1.9460
  361MOL0     H47639   0.997   8.389   9.666 -1.2511  1.3452  1.5239
  361MOL0     H47640   1.099   7.839   9.450 -1.0355  0.9184  0.2436
  361MOL0     H47641   1.073   7.755   9.237  2.0400 -0.7899 -0.2017
  361MOL0     H47642   1.244   7.702   9.016  0.9239 -1.8847 -2.9851
  361MOL0     H47643   1.320   7.850   8.982 -1.0841  1.5192 -0.1773
  361MOL0     H47644   1.127   7.827   8.774 -0.3360 -2.2163 -1.4800
  361MOL0     H47645   1.300   7.807   8.768 -0.7518 -1.2256 -1.2349
  361MOL0     H47646   1.297   7.576   8.811  0.7693  0.5380 -2.3631
  361MOL0     H47647   1.187   7.620   8.679 -5.2157  1.1212  0.4007
  361MOL0     H47648   0.997   7.578   8.817  0.2399 -0.2360 -0.2704
  361MOL0     H47649   1.112   7.446   8.774 -3.3154 -1.8361  0.9721
  361MOL0     H47650   1.168   7.382   9.174  1.4842 -0.3750  0.4063
  361MOL0     H47651   1.197   8.109   9.048  1.8235 -3.3423 -2.1584
  361MOL0     H47652   1.198   8.235   9.271  0.4411  0.9183 -1.4571
  362MOL0     O47653   3.203   7.501   9.206  0.7451  0.3450 -0.4657
  362MOL0     C47654   3.145   7.566   9.297  0.4433  0.5746  0.7447
  362MOL0     O47655   3.044   7.515   9.373  0.0098  0.1499 -0.3705
  362MOL0     C47656   2.991   7.386   9.362 -0.2623  0.0403  0.1157
  362MOL0     C47657   2.880   7.358   9.444 -0.8791 -0.0293  0.0415
  362MOL0     C47658   2.806   7.243   9.435  0.2454  0.3565  0.1834
  362MOL0     C47659   2.852   7.132   9.355 -0.2451  0.3453  0.3253
  362MOL0     O47660   2.769   7.023   9.349  0.0820  0.2046  0.3614
  362MOL0     C47661   2.816   6.882   9.350  0.2785 -0.4213  0.3304
  362MOL0     C47662   2.713   6.774   9.338  0.1762 -0.5628 -0.0699
  362MOL0     C47663   2.619   6.783   9.223 -0.0855  0.3112  0.1414
  362MOL0     C47664   2.563   6.651   9.168 -0.9175  0.7655  0.1460
  362MOL0     C47665   2.642   6.615   9.038  0.0522  0.2344  0.2947
  362MOL0     C47666   2.594   6.503   8.951 -0.6864  0.8270 -0.2289
  362MOL0     C47667   2.591   6.368   9.024 -0.0089 -0.4976  0.3154
  362MOL0     C47668   2.447   6.321   9.028  0.5612  0.4945 -0.3084
  362MOL0     N47669   2.426   6.211   9.118  0.9925 -0.2013  0.3730
  362MOL0     C47670   2.498   6.094   9.107 -0.2888 -0.2437 -0.3053
  362MOL0     C47671   2.457   6.029   9.214  0.6569  0.9519 -0.0906
  362MOL0     C47672   2.495   5.882   9.252 -0.4632 -0.0381 -0.0693
  362MOL0     C47673   2.538   5.809   9.124  0.0568 -0.1612 -0.4415
  362MOL0     C47674   2.522   5.653   9.134 -0.7937 -0.1847  0.5599
  362MOL0     C47675   2.581   5.596   9.272  1.4618  0.1894  0.0782
  362MOL0     O47676   2.602   5.455   9.236 -0.3502 -0.7734  0.3945
  362MOL0     C47677   2.532   5.348   9.276 -0.0329  0.3786 -0.2485
  362MOL0     C47678   2.573   5.213   9.245  0.4366 -0.0374  0.4755
  362MOL0     C47679   2.498   5.101   9.282  0.6967 -0.9357  0.7524
  362MOL0     C47680   2.379   5.118   9.355  0.0266 -0.6058 -0.8982
  362MOL0     C47681   2.290   5.003   9.379 -0.1431 -0.1316 -0.4303
  362MOL0     O47682   2.326   4.872   9.355 -0.0631 -0.2757  0.5276
  362MOL0     C47683   2.239   4.774   9.370  0.0580  0.4000 -0.8562
  362MOL0     C47684   2.147   4.751   9.275  0.1580  0.1092 -0.1561
  362MOL0     C47685   2.065   4.643   9.290 -0.8713  0.0496  0.0780
  362MOL0     C47686   2.069   4.548   9.396 -0.4049 -0.8828  0.4620
  362MOL0     O47687   1.978   4.441   9.416  0.2098 -0.4308  0.1762
  362MOL0     C47688   1.860   4.442   9.341 -0.3426 -0.2118 -0.8884
  362MOL0     C47689   1.758   4.337   9.376 -0.9007  0.1289  0.1345
  362MOL0     C47690   1.806   4.188   9.372 -0.3337  0.2533 -1.0356
  362MOL0     C47691   1.715   4.102   9.453  1.0342  0.0682 -0.7696
  362MOL0     C47692   1.780   3.973   9.491 -0.3341  0.0050  0.2858
  362MOL0     C47693   1.690   3.872   9.546 -0.2196  0.4723 -0.0995
  362MOL0     C47694   1.765   3.749   9.599  0.1773  0.1280  0.4008
  362MOL0     C47695   1.672   3.640   9.626  0.1920 -0.6409  0.7756
  362MOL0    Cl47696   1.748   3.487   9.670  0.0443 -0.3002 -0.2797
  362MOL0     C47697   2.166   4.581   9.499  0.7128  0.4035  0.2681
  362MOL0     C47698   2.248   4.693   9.486 -0.8223 -0.4609  0.8377
  362MOL0     O47699   2.173   5.035   9.407  0.5517 -0.3488 -0.3107
  362MOL0     C47700   2.340   5.252   9.384 -0.9712 -0.7098  0.6237
  362MOL0     C47701   2.414   5.362   9.346  0.5696  0.4458 -0.1163
  362MOL0     N47702   2.368   6.103   9.283  0.2869 -0.3706  0.5285
  362MOL0     N47703   2.351   6.216   9.225 -0.1125  0.4117 -0.2218
  362MOL0     C47704   2.966   7.157   9.285  0.4504  0.4222 -0.1286
  362MOL0     C47705   3.031   7.274   9.280  0.0654 -0.8249  0.1448
  362MOL0     C47706   3.163   7.718   9.303  0.3760  0.1398 -0.0346
  362MOL0     C47707   3.124   7.799   9.416 -0.9942  0.4579 -0.7518
  362MOL0     C47708   3.147   7.935   9.429 -0.1011  0.6080  0.2660
  362MOL0     C47709   3.199   8.010   9.327 -0.8441 -0.6302  0.2757
  362MOL0     O47710   3.237   8.139   9.320 -0.3988 -0.6109 -0.7279
  362MOL0     C47711   3.201   8.222   9.427 -0.2814 -0.4483  0.1699
  362MOL0     C47712   3.057   8.264   9.416 -0.2565 -0.6406  0.3957
  362MOL0     C47713   3.040   8.312   9.266 -0.3091 -0.1132  0.6258
  362MOL0     C47714   2.903   8.367   9.254 -0.3318  0.9023 -0.8400
  362MOL0     C47715   2.885   8.440   9.124  1.0084 -0.0975  0.1933
  362MOL0     C47716   2.870   8.495   9.020  0.3232  0.1786  0.8983
  362MOL0     C47717   3.240   7.938   9.215  0.0445  0.7017  0.2707
  362MOL0     C47718   3.222   7.798   9.202 -0.3552  0.8881 -0.7289
  362MOL0     H47719   2.845   7.438   9.509  2.0426 -0.1324  1.9199
  362MOL0     H47720   2.709   7.227   9.480  0.2748  0.4487  0.2788
  362MOL0     H47721   2.867   6.882   9.447 -1.3106  1.6108  1.2301
  362MOL0     H47722   2.893   6.870   9.273  0.8934 -1.7868  1.1199
  362MOL0     H47723   2.666   6.762   9.436  0.2766 -1.6544 -0.1453
  362MOL0     H47724   2.760   6.676   9.325 -0.5596 -1.1499  1.4371
  362MOL0     H47725   2.664   6.841   9.142 -0.8828  1.5556  0.5677
  362MOL0     H47726   2.540   6.854   9.249  1.9104  2.4025  0.8831
  362MOL0     H47727   2.571   6.571   9.242 -0.4123  0.6047 -0.0724
  362MOL0     H47728   2.457   6.657   9.143 -1.4385 -2.7492  0.9176
  362MOL0     H47729   2.741   6.586   9.073  0.1393  0.3605  0.1515
  362MOL0     H47730   2.649   6.703   8.973 -0.2214  2.0384  2.5790
  362MOL0     H47731   2.668   6.497   8.871  1.3501 -1.8548  1.7043
  362MOL0     H47732   2.494   6.524   8.912 -1.0609  0.9157  0.7531
  362MOL0     H47733   2.667   6.301   8.983  1.3222  1.3763 -0.4311
  362MOL0     H47734   2.621   6.389   9.126  0.9606 -0.0301 -0.0564
  362MOL0     H47735   2.402   6.324   8.929  4.6763  1.8604 -2.3802
  362MOL0     H47736   2.391   6.404   9.072  0.5629  0.7723 -0.8291
  362MOL0     H47737   2.568   6.065   9.029 -2.6218  0.7601 -2.9544
  362MOL0     H47738   2.414   5.828   9.303 -0.8738  0.1468 -0.5138
  362MOL0     H47739   2.585   5.877   9.313 -1.0042 -1.6716  0.6601
  362MOL0     H47740   2.644   5.832   9.107  0.1738 -0.8774 -0.7042
  362MOL0     H47741   2.471   5.844   9.044 -1.3240  1.4056  1.3118
  362MOL0     H47742   2.415   5.638   9.119 -0.6172  0.2100 -1.4030
  362MOL0     H47743   2.582   5.615   9.051  0.2834  0.1342  1.1740
  362MOL0     H47744   2.512   5.612   9.355  1.5364  0.1062  0.1558
  362MOL0     H47745   2.672   5.646   9.304  0.3927  1.2375  1.5930
  362MOL0     H47746   2.671   5.190   9.205 -0.3967 -2.9395 -0.1046
  362MOL0     H47747   2.533   4.999   9.267  2.6944 -0.2152  0.2446
  362MOL0     H47748   2.127   4.833   9.207 -0.9338 -0.8013 -0.9720
  362MOL0     H47749   1.988   4.625   9.216  0.6298 -2.2766 -1.0486
  362MOL0     H47750   1.881   4.435   9.234  0.7014  1.6481 -0.8366
  362MOL0     H47751   1.816   4.541   9.355 -2.4432 -1.2614  0.5208
  362MOL0     H47752   1.676   4.357   9.307 -1.9441  0.2646  1.3899
  362MOL0     H47753   1.724   4.358   9.477 -1.6229  0.9060 -0.2564
  362MOL0     H47754   1.909   4.187   9.408 -0.7606  3.4112  0.5674
  362MOL0     H47755   1.808   4.152   9.268  1.4718 -0.1105 -0.9064
  362MOL0     H47756   1.686   4.152   9.546  3.6791 -0.1474  0.2377
  362MOL0     H47757   1.625   4.065   9.402 -0.4884 -4.8784  4.4028
  362MOL0     H47758   1.860   3.991   9.563  0.9227 -0.7370 -0.8996
  362MOL0     H47759   1.825   3.929   9.402 -0.4516 -0.0025  0.2292
  362MOL0     H47760   1.616   3.835   9.474  0.2375  0.6053 -0.6435
  362MOL0     H47761   1.629   3.916   9.626  2.2683  2.2679  0.9591
  362MOL0     H47762   1.835   3.709   9.525  1.1108 -0.5751  1.6362
  362MOL0     H47763   1.817   3.769   9.693 -0.8779  0.3161  0.9554
  362MOL0     H47764   1.600   3.624   9.545  1.6029 -2.6758 -0.1777
  362MOL0     H47765   1.624   3.667   9.720 -0.1446 -1.3204  0.7997
  362MOL0     H47766   2.152   4.522   9.589 -2.9059 -1.0026 -1.0464
  362MOL0     H47767   2.330   4.692   9.558 -1.3393  1.9355  1.5586
  362MOL0     H47768   2.248   5.268   9.439 -2.1196  0.8129 -1.5712
  362MOL0     H47769   2.387   5.457   9.391 -0.8601 -0.1733  0.4198
  362MOL0     H47770   3.020   7.080   9.232  2.0549  0.1689  1.7425
  362MOL0     H47771   3.120   7.271   9.218  0.7367  1.8018  0.8537
  362MOL0     H47772   3.091   7.750   9.507 -0.0457 -0.7096 -1.0159
  362MOL0     H47773   3.113   7.985   9.519  1.5596  0.5005  0.9788
  362MOL0     H47774   3.260   8.315   9.430 -1.1779  0.1247  0.5026
  362MOL0     H47775   3.225   8.178   9.524  2.9986 -1.4251 -0.9372
  362MOL0     H47776   2.995   8.180   9.446  1.1474 -0.6183  3.7951
  362MOL0     H47777   3.026   8.341   9.487 -2.4492 -1.9054  0.9003
  362MOL0     H47778   3.066   8.237   9.191  0.2186  0.8040 -0.1278
  362MOL0     H47779   3.112   8.390   9.238 -2.0060  1.0341 -0.6719
  362MOL0     H47780   2.838   8.280   9.258  0.6940  0.1594  0.5228
  362MOL0     H47781   2.882   8.439   9.333  3.3250  1.4397 -0.1606
  362MOL0     H47782   2.869   8.537   8.922 -1.0905 -2.4356 -0.2938
  362MOL0     H47783   3.306   7.975   9.137  2.8231  0.0202  2.1266
  362MOL0     H47784   3.261   7.742   9.118  4.1361  0.8591  1.0952
  363MOL0     O47785   0.597   5.402  10.350  0.0118  0.4560 -0.9427
  363MOL0     C47786   0.569   5.514  10.311 -0.3293  0.1672 -0.1311
  363MOL0     O47787   0.655   5.616  10.281  0.7032 -0.6273 -0.2088
  363MOL0     C47788   0.786   5.613  10.320 -1.3140  0.0616  0.0938
  363MOL0     C47789   0.870   5.712  10.259  0.0854 -0.3599 -0.0890
  363MOL0     C47790   1.008   5.719  10.292 -1.1320  0.5143  0.9723
  363MOL0     C47791   1.064   5.627  10.374  0.3420  0.7280 -1.1719
  363MOL0     O47792   1.202   5.630  10.387  0.1413  0.1630  0.6643
  363MOL0     C47793   1.273   5.530  10.459 -0.9335 -0.2439  0.1043
  363MOL0     C47794   1.427   5.553  10.478  0.1822 -0.5265  0.0984
  363MOL0     C47795   1.503   5.528  10.347  0.1328 -0.4984 -0.2441
  363MOL0     C47796   1.655   5.513  10.386  1.0636 -0.5710 -0.1612
  363MOL0     C47797   1.755   5.486  10.275  0.3513  0.0260 -0.3451
  363MOL0     C47798   1.847   5.606  10.267  0.5987 -0.2474  0.0009
  363MOL0     C47799   1.969   5.603  10.165 -0.6907 -1.0241  0.2345
  363MOL0     C47800   2.079   5.495  10.200  0.5675  0.4649 -0.0386
  363MOL0     N47801   2.195   5.500  10.109  0.6771 -1.0236  0.7761
  363MOL0     C47802   2.326   5.511  10.164  0.7063 -1.0613  0.2004
  363MOL0     C47803   2.406   5.478  10.064  0.1624  0.6778 -0.2624
  363MOL0     C47804   2.559   5.493  10.066 -0.2588 -0.6786 -0.3284
  363MOL0     C47805   2.606   5.603  10.159  0.2409 -0.2392  0.6761
  363MOL0     C47806   2.755   5.624  10.139  0.3406 -0.0151 -0.2734
  363MOL0     C47807   2.834   5.492  10.161  0.0345 -0.4412  0.0179
  363MOL0     O47808   2.975   5.508  10.153  0.3606  0.1679  0.1183
  363MOL0     C47809   3.036   5.481  10.035 -0.0563 -1.3408 -0.9868
  363MOL0     C47810   3.165   5.431  10.034 -0.1277  1.1205 -0.5254
  363MOL0     C47811   3.244   5.422   9.920  0.1840  0.4819 -0.9612
  363MOL0     C47812   3.193   5.458   9.796 -0.5006 -0.6964  0.1529
  363MOL0     C47813   3.281   5.451   9.678  0.3189 -0.5083  0.7148
  363MOL0     O47814   3.406   5.413   9.693  0.0004  0.3891  0.3784
  363MOL0     C47815   3.496   5.404   9.588 -0.2690 -0.3566 -0.1267
  363MOL0     C47816   3.476   5.328   9.477 -0.2012  0.6739 -0.7324
  363MOL0     C47817   3.564   5.328   9.373  0.3565  0.4798  0.2536
  363MOL0     C47818   3.686   5.402   9.378  0.5717  0.3030 -0.6692
  363MOL0     O47819   3.756   5.385   9.261  0.0343  0.1918  0.3772
  363MOL0     C47820   3.897   5.409   9.282  0.2213  0.3675  0.4779
  363MOL0     C47821   3.969   5.349   9.156 -0.4401 -0.2551 -0.3812
  363MOL0     C47822   3.946   5.200   9.155  0.7231 -0.3074  0.3274
  363MOL0     C47823   4.037   5.134   9.043 -1.0854  0.0573  0.2751
  363MOL0     C47824   4.002   5.165   8.899  0.4918  0.4779  0.8586
  363MOL0     C47825   3.877   5.087   8.854  0.1421  0.2359  0.9448
  363MOL0     C47826   3.878   5.043   8.696  0.3433  0.0931 -0.3304
  363MOL0     C47827   4.022   4.990   8.660 -0.2105 -0.9087 -0.8267
  363MOL0    Cl47828   4.007   4.852   8.539  0.0484 -0.4928 -0.2157
  363MOL0     C47829   3.709   5.482   9.490  0.9063 -0.3204  0.2424
  363MOL0     C47830   3.618   5.474   9.592  0.3091 -0.3779  0.4395
  363MOL0     O47831   3.232   5.460   9.567 -0.0398  0.0638 -0.1246
  363MOL0     C47832   3.071   5.518   9.796  1.2883  0.0712  0.6583
  363MOL0     C47833   2.991   5.535   9.911 -0.5404 -1.0670  0.6791
  363MOL0     N47834   2.326   5.453   9.952  0.8202 -0.4168  0.2704
  363MOL0     N47835   2.206   5.460   9.981  0.5904  0.0326  0.3133
  363MOL0     C47836   0.990   5.515  10.427 -0.2852  0.7426 -0.2335
  363MOL0     C47837   0.853   5.515  10.396 -0.2955  0.1977 -0.1279
  363MOL0     C47838   0.427   5.546  10.290  1.1478 -0.2533 -1.3561
  363MOL0     C47839   0.395   5.659  10.223 -0.2008  0.5454 -0.4513
  363MOL0     C47840   0.263   5.696  10.219 -0.3380 -0.1273 -0.1535
  363MOL0     C47841   0.154   5.616  10.264 -0.9086  0.4666 -0.2386
  363MOL0     O47842   0.025   5.664  10.257 -0.5300  0.1673  0.2212
  363MOL0     C47843  -0.082   5.589  10.320 -0.1006  0.4531 -0.0738
  363MOL0     C47844  -0.218   5.648  10.264 -1.1041  0.6400 -0.0380
  363MOL0     C47845  -0.336   5.569  10.316  0.6035  0.3469  0.9863
  363MOL0     C47846  -0.468   5.597  10.242  0.0197 -0.1281 -0.0219
  363MOL0     C47847  -0.507   5.742  10.246  0.2500 -0.3634 -0.5077
  363MOL0     C47848  -0.556   5.853  10.256 -0.2686  1.1432  0.0950
  363MOL0     C47849   0.194   5.499  10.333 -0.1019 -0.4121 -0.8496
  363MOL0     C47850   0.328   5.466  10.341 -0.6414  1.0970  0.6329
  363MOL0     H47851   0.810   5.790  10.212  0.4322 -1.3093 -2.1841
  363MOL0     H47852   1.066   5.796  10.242  2.2814  0.6306  4.6426
  363MOL0     H47853   1.262   5.433  10.409  2.6312 -0.3447 -0.8403
  363MOL0     H47854   1.226   5.524  10.557 -3.3335  0.0958 -0.9587
  363MOL0     H47855   1.456   5.475  10.549  0.8558  0.3135  0.7600
  363MOL0     H47856   1.452   5.651  10.518 -0.3610 -0.8999  1.3937
  363MOL0     H47857   1.482   5.611  10.279  0.2278 -0.9441 -0.8270
  363MOL0     H47858   1.470   5.442  10.287  1.9706 -0.3560 -1.5261
  363MOL0     H47859   1.673   5.609  10.436  0.6855 -1.8152  2.5464
  363MOL0     H47860   1.663   5.438  10.465 -0.9314 -1.4277 -0.6978
  363MOL0     H47861   1.715   5.476  10.173  1.2269  2.9265 -1.0573
  363MOL0     H47862   1.809   5.394  10.297 -2.6167 -1.2829  2.4187
  363MOL0     H47863   1.874   5.626  10.371 -2.9060  0.8262  0.8432
  363MOL0     H47864   1.788   5.689  10.227  0.3263  0.4421  1.7747
  363MOL0     H47865   1.924   5.597  10.066  1.5655  3.8394 -1.3837
  363MOL0     H47866   2.029   5.694  10.171 -0.7368 -0.9397 -0.4551
  363MOL0     H47867   2.039   5.395  10.182 -1.5279  0.8233  2.1182
  363MOL0     H47868   2.099   5.512  10.306 -1.6281  2.9655  0.0862
  363MOL0     H47869   2.356   5.528  10.266 -1.6362  0.5466  0.7054
  363MOL0     H47870   2.588   5.514   9.963 -0.0047 -0.7863 -0.2795
  363MOL0     H47871   2.602   5.397  10.095 -0.2393  0.1648  2.7675
  363MOL0     H47872   2.581   5.561  10.257 -4.5523 -0.2806 -0.3331
  363MOL0     H47873   2.549   5.696  10.160  0.1492 -0.2934  1.3270
  363MOL0     H47874   2.750   5.674  10.042 -0.3492  0.8550  0.1871
  363MOL0     H47875   2.787   5.699  10.212 -1.4921 -0.8073  1.4353
  363MOL0     H47876   2.806   5.429  10.075 -1.4790 -0.5927  0.6008
  363MOL0     H47877   2.787   5.442  10.246  1.2538 -0.3105  0.7863
  363MOL0     H47878   3.210   5.393  10.125 -2.5407 -0.6841  0.0183
  363MOL0     H47879   3.338   5.374   9.946 -1.2254  0.2625  5.4427
  363MOL0     H47880   3.384   5.269   9.481 -0.2063  0.7372  2.2029
  363MOL0     H47881   3.549   5.269   9.283 -2.1340  1.7908 -0.3019
  363MOL0     H47882   3.926   5.352   9.371 -2.2431  0.1351  1.2230
  363MOL0     H47883   3.930   5.512   9.299 -0.0746  0.5192  0.1443
  363MOL0     H47884   4.076   5.366   9.171 -0.0541 -1.2206 -1.8135
  363MOL0     H47885   3.937   5.395   9.062 -1.3058 -2.8169 -1.4254
  363MOL0     H47886   3.842   5.173   9.134  0.5132  0.0947  0.8370
  363MOL0     H47887   3.989   5.178   9.253  0.9172  2.1228  0.8585
  363MOL0     H47888   4.141   5.170   9.043 -1.0169 -0.0412 -1.4108
  363MOL0     H47889   4.039   5.026   9.059  0.4224 -0.3002 -1.7940
  363MOL0     H47890   4.089   5.145   8.836 -0.2973  2.8325 -1.1635
  363MOL0     H47891   4.003   5.274   8.888  4.2561  0.4663 -0.5522
  363MOL0     H47892   3.791   5.155   8.862 -0.7681 -0.9271  1.2881
  363MOL0     H47893   3.870   5.001   8.921 -0.9434 -2.2939 -2.1376
  363MOL0     H47894   3.801   4.969   8.674  2.0867 -0.9028 -3.8452
  363MOL0     H47895   3.864   5.126   8.626  1.6806 -0.8979 -1.8546
  363MOL0     H47896   4.074   4.952   8.749 -0.4044  2.5996  0.9285
  363MOL0     H47897   4.081   5.079   8.636  0.4830 -1.4613 -1.2272
  363MOL0     H47898   3.788   5.555   9.502 -2.5027  3.9098 -0.4369
  363MOL0     H47899   3.641   5.532   9.681 -1.0673  1.0544 -0.0948
  363MOL0     H47900   3.035   5.555   9.701 -1.7275  0.0976  1.6862
  363MOL0     H47901   2.902   5.597   9.905  0.3893  0.2472 -0.2306
  363MOL0     H47902   1.028   5.448  10.504 -1.1450  0.4040 -0.0874
  363MOL0     H47903   0.792   5.442  10.447  0.8483 -0.6675  0.0681
  363MOL0     H47904   0.455   5.727  10.163  0.7740 -0.5885 -0.8073
  363MOL0     H47905   0.235   5.790  10.172 -3.0507 -1.1565 -0.8018
  363MOL0     H47906  -0.083   5.597  10.429  0.8233  0.4030 -0.0531
  363MOL0     H47907  -0.093   5.484  10.295  1.0286  0.2435  0.2536
  363MOL0     H47908  -0.227   5.755  10.283  2.3925  1.8033 -3.5862
  363MOL0     H47909  -0.232   5.628  10.158 -3.4642 -0.7653  0.4618
  363MOL0     H47910  -0.337   5.589  10.423 -3.1856  0.4575  1.0822
  363MOL0     H47911  -0.325   5.462  10.296 -2.1692 -0.4399  3.1052
  363MOL0     H47912  -0.455   5.573  10.136 -0.4538  1.3878 -0.4541
  363MOL0     H47913  -0.556   5.540  10.273 -1.6923  0.1438 -3.7965
  363MOL0     H47914  -0.606   5.948  10.252 -0.6818  0.8892 -1.7387
  363MOL0     H47915   0.112   5.439  10.371 -0.1975  0.3164  0.1160
  363MOL0     H47916   0.359   5.376  10.393  2.5614  0.7253 -1.6694
  364MOL0     O47917   1.441   8.922   8.621  0.2413  0.1178 -0.0491
  364MOL0     C47918   1.435   8.902   8.749 -0.4279 -0.1766  1.1715
  364MOL0     O47919   1.345   8.828   8.811  0.8417  1.0822 -0.6218
  364MOL0     C47920   1.225   8.830   8.743 -0.3602 -0.6604 -0.3524
  364MOL0     C47921   1.128   8.920   8.798  0.6728 -0.6800 -0.2132
  364MOL0     C47922   0.995   8.927   8.760 -0.1387 -0.2230  0.3787
  364MOL0     C47923   0.956   8.838   8.659  0.6087 -1.0781 -0.3546
  364MOL0     O47924   0.829   8.842   8.602  0.7128 -0.0098 -0.0447
  364MOL0     C47925   0.722   8.858   8.700 -0.3391 -0.1509 -0.3969
  364MOL0     C47926   0.590   8.831   8.626 -1.6538  0.0588 -0.3675
  364MOL0     C47927   0.488   8.882   8.719  0.1642  0.3624  1.2175
  364MOL0     C47928   0.353   8.870   8.646  0.1191 -0.3081  0.3498
  364MOL0     C47929   0.248   8.841   8.755  0.3037 -0.1702  0.0882
  364MOL0     C47930   0.227   8.944   8.871  0.0667 -0.4567 -0.3255
  364MOL0     C47931   0.135   8.876   8.974  0.2972 -0.7784 -0.7107
  364MOL0     C47932   0.188   8.744   9.030 -0.2957 -0.2845 -1.0412
  364MOL0     N47933   0.164   8.738   9.180  0.1924 -0.0714  1.1950
  364MOL0     C47934   0.051   8.769   9.247 -0.0271  0.6388  0.1285
  364MOL0     C47935   0.085   8.765   9.380  0.7133 -0.1202 -0.4526
  364MOL0     C47936  -0.004   8.809   9.499  0.3854 -0.4694  0.3025
  364MOL0     C47937  -0.072   8.698   9.575 -0.5786  0.1100 -0.4743
  364MOL0     C47938  -0.165   8.618   9.484  0.6042  0.2602  1.1481
  364MOL0     C47939  -0.249   8.511   9.545 -0.8266  0.5001 -0.2901
  364MOL0     O47940  -0.348   8.568   9.639  0.2286  0.7320 -0.4648
  364MOL0     C47941  -0.335   8.559   9.775  0.4878  0.6291  0.5531
  364MOL0     C47942  -0.214   8.520   9.839 -0.7292 -0.1050  0.2984
  364MOL0     C47943  -0.210   8.501   9.979  0.0639 -0.4104  1.1208
  364MOL0     C47944  -0.328   8.505  10.054  0.5486  0.5594 -0.5370
  364MOL0     C47945  -0.348   8.449  10.193 -0.0415  0.5871 -0.8724
  364MOL0     O47946  -0.246   8.373  10.246  0.4518 -0.2501  1.4525
  364MOL0     C47947  -0.260   8.339  10.376  0.7979  0.0507  0.3819
  364MOL0     C47948  -0.274   8.205  10.408  0.7631  1.4877 -0.2908
  364MOL0     C47949  -0.277   8.172  10.553 -1.0888 -1.0307  0.8375
  364MOL0     C47950  -0.266   8.278  10.644 -0.6148  0.8095 -0.1132
  364MOL0     O47951  -0.263   8.252  10.779  0.5742  0.7883 -0.5106
  364MOL0     C47952  -0.135   8.278  10.842 -0.3891  0.9039  0.3617
  364MOL0     C47953  -0.103   8.183  10.958 -0.2788 -0.2511 -0.0829
  364MOL0     C47954  -0.134   8.031  10.930  0.7886  1.6837 -0.5201
  364MOL0     C47955  -0.084   7.944  11.052  0.5039  0.2511 -0.2630
  364MOL0     C47956  -0.123   7.801  11.044  0.0237  1.6979  1.1240
  364MOL0     C47957  -0.071   7.712  10.922 -0.5451  0.3132  0.0517
  364MOL0     C47958   0.086   7.713  10.906  0.4012 -0.0501 -0.5249
  364MOL0     C47959   0.128   7.655  10.770  0.1684 -0.5558 -0.6271
  364MOL0    Cl47960   0.099   7.477  10.785  0.1182 -0.1890  0.4333
  364MOL0     C47961  -0.260   8.415  10.602  0.4002  0.7080 -0.6519
  364MOL0     C47962  -0.254   8.445  10.471  1.4778 -0.4996  0.0756
  364MOL0     O47963  -0.452   8.481  10.257  0.3382 -0.3153 -1.1826
  364MOL0     C47964  -0.439   8.560   9.996  0.3666 -0.1801 -0.2301
  364MOL0     C47965  -0.447   8.591   9.860  0.0348  0.5079 -0.4680
  364MOL0     N47966   0.225   8.741   9.385 -0.5277  0.4513 -0.4542
  364MOL0     N47967   0.267   8.720   9.261  0.6338 -0.4928  0.7995
  364MOL0     C47968   1.049   8.747   8.603  0.1898  0.7785  0.1076
  364MOL0     C47969   1.178   8.740   8.652 -0.3485  0.9283  0.0757
  364MOL0     C47970   1.537   8.971   8.827  0.7135  0.6981  0.8385
  364MOL0     C47971   1.657   9.022   8.769  0.0968  0.3448  0.4626
  364MOL0     C47972   1.760   9.068   8.852 -0.5671  0.3124  0.1768
  364MOL0     C47973   1.744   9.068   8.989 -0.2207  0.3617 -0.1984
  364MOL0     O47974   1.841   9.103   9.073 -0.0191 -0.7201 -0.4081
  364MOL0     C47975   1.957   9.014   9.067  0.5918  0.7871  0.2103
  364MOL0     C47976   2.061   9.033   9.186 -0.5573  0.1372 -0.2110
  364MOL0     C47977   2.114   9.177   9.207  0.1583 -0.7071 -0.0442
  364MOL0     C47978   2.222   9.195   9.320  0.1629  0.1735  0.4136
  364MOL0     C47979   2.349   9.153   9.265  0.1012 -0.0620 -0.5172
  364MOL0     C47980   2.453   9.125   9.207  0.2043  0.6513  0.2582
  364MOL0     C47981   1.620   9.017   9.045 -0.2916  1.0237  0.5441
  364MOL0     C47982   1.516   8.971   8.965  0.4763 -0.3557 -0.8093
  364MOL0     H47983   1.165   8.985   8.877 -3.5634  2.4206 -0.4473
  364MOL0     H47984   0.927   9.002   8.800 -0.7247 -0.8429  0.5646
  364MOL0     H47985   0.717   8.963   8.729  0.2355  0.8253 -3.4425
  364MOL0     H47986   0.732   8.788   8.783 -5.2166  0.5215  1.0432
  364MOL0     H47987   0.584   8.728   8.593  4.4365 -0.2403 -1.6262
  364MOL0     H47988   0.581   8.891   8.535  0.0940  2.5298  0.9698
  364MOL0     H47989   0.508   8.986   8.748  1.9516  0.5564 -0.4772
  364MOL0     H47990   0.499   8.816   8.805 -1.0119 -0.4791  0.7425
  364MOL0     H47991   0.322   8.955   8.584  2.5496 -1.9332 -3.5360
  364MOL0     H47992   0.348   8.780   8.584 -0.1944 -1.5127  2.0671
  364MOL0     H47993   0.270   8.740   8.790 -0.5746  0.7000  3.4804
  364MOL0     H47994   0.152   8.812   8.712  0.5496 -0.7361 -0.0889
  364MOL0     H47995   0.180   9.037   8.839 -0.6882  0.8402  3.8860
  364MOL0     H47996   0.325   8.970   8.914  1.8572 -3.1404 -2.4442
  364MOL0     H47997   0.127   8.941   9.062 -0.6004 -3.3838  1.2809
  364MOL0     H47998   0.034   8.855   8.936  0.3383  1.4877 -2.2575
  364MOL0     H47999   0.296   8.741   9.012  0.2853 -0.7186  2.0456
  364MOL0     H48000   0.141   8.660   8.977  1.4018 -0.8890 -1.6690
  364MOL0     H48001  -0.045   8.771   9.196  0.6298 -1.6303 -1.3392
  364MOL0     H48002  -0.070   8.879   9.447  2.2849 -0.2752 -2.0211
  364MOL0     H48003   0.057   8.865   9.570  2.7745 -0.1727 -1.8641
  364MOL0     H48004  -0.131   8.729   9.662  0.3086 -2.0758  0.9818
  364MOL0     H48005  -0.007   8.623   9.621 -0.5899 -0.5960 -1.5906
  364MOL0     H48006  -0.223   8.679   9.414 -0.2590 -0.4802  1.2076
  364MOL0     H48007  -0.098   8.556   9.423 -0.1609  0.1900  0.3660
  364MOL0     H48008  -0.184   8.436   9.592 -1.5766  0.2442  0.3686
  364MOL0     H48009  -0.307   8.461   9.466  0.5514 -0.3964 -0.7655
  364MOL0     H48010  -0.126   8.483   9.787  0.4007 -0.8002  2.5575
  364MOL0     H48011  -0.118   8.459  10.019  2.0327 -0.6340 -3.1513
  364MOL0     H48012  -0.271   8.126  10.333  0.4881  1.9657 -0.8095
  364MOL0     H48013  -0.301   8.070  10.581 -2.5798 -0.7059  0.8228
  364MOL0     H48014  -0.129   8.384  10.869 -1.7205  1.4667 -1.3604
  364MOL0     H48015  -0.060   8.245  10.769 -0.0677 -0.5518  1.3188
  364MOL0     H48016  -0.162   8.209  11.046  0.9799 -1.7328  1.2376
  364MOL0     H48017   0.004   8.200  10.976 -0.6746  1.4099  0.9296
  364MOL0     H48018  -0.084   8.001  10.838 -0.4835  0.2466 -0.7860
  364MOL0     H48019  -0.243   8.023  10.926  0.9251 -0.0946 -2.5721
  364MOL0     H48020   0.025   7.942  11.055  0.5990 -3.9350  0.2302
  364MOL0     H48021  -0.120   7.986  11.146  1.0456  0.2679 -0.0600
  364MOL0     H48022  -0.232   7.790  11.040  0.3135 -2.3859 -1.0002
  364MOL0     H48023  -0.096   7.745  11.134  1.6298 -0.5226 -0.6084
  364MOL0     H48024  -0.110   7.751  10.828 -1.4892  0.2058  0.3885
  364MOL0     H48025  -0.114   7.613  10.935  0.0338  0.1795  1.1187
  364MOL0     H48026   0.118   7.816  10.922 -1.8164  0.8543 -1.5493
  364MOL0     H48027   0.138   7.663  10.988 -1.3950 -0.8682  0.1722
  364MOL0     H48028   0.234   7.679  10.764  0.4547 -1.2406  1.1320
  364MOL0     H48029   0.074   7.700  10.686 -1.3968 -4.8128 -2.1714
  364MOL0     H48030  -0.272   8.501  10.667  0.2200 -0.7948  1.4060
  364MOL0     H48031  -0.255   8.548  10.437  0.1783 -1.2713 -2.4173
  364MOL0     H48032  -0.525   8.585  10.057  1.7490 -2.0909  2.7082
  364MOL0     H48033  -0.545   8.623   9.825 -0.1140  2.9982  1.9197
  364MOL0     H48034   1.012   8.677   8.528  1.5525  0.9289 -0.7527
  364MOL0     H48035   1.240   8.661   8.611 -1.5884  1.4263 -3.0089
  364MOL0     H48036   1.669   9.027   8.661 -1.6040 -1.9355  0.0884
  364MOL0     H48037   1.853   9.098   8.806  0.9130 -2.6305  1.0418
  364MOL0     H48038   2.012   9.018   8.973  0.1354 -3.6117 -0.4317
  364MOL0     H48039   1.934   8.908   9.079  2.8507  0.1570 -0.6029
  364MOL0     H48040   2.017   8.997   9.279  0.4620 -2.2139 -0.5594
  364MOL0     H48041   2.147   8.966   9.174  0.1746  0.5485  2.1765
  364MOL0     H48042   2.023   9.237   9.225  0.1867 -1.3421  2.6766
  364MOL0     H48043   2.155   9.215   9.113  3.3669 -1.5984  0.8678
  364MOL0     H48044   2.239   9.300   9.346 -0.5369  1.4455 -3.5534
  364MOL0     H48045   2.194   9.143   9.412 -6.0100 -0.3207 -1.3396
  364MOL0     H48046   2.544   9.102   9.156 -0.5159 -0.4724 -0.6003
  364MOL0     H48047   1.618   9.013   9.154 -2.5602  2.1296  0.6053
  364MOL0     H48048   1.425   8.943   9.017  0.9036  0.4281  0.4221
  365MOL0     O48049   1.347   5.753   3.891  0.3432  0.1792 -0.0149
  365MOL0     C48050   1.406   5.814   3.981 -0.4121 -1.3642  0.7731
  365MOL0     O48051   1.464   5.761   4.097  0.7679  0.5191 -0.0020
  365MOL0     C48052   1.472   5.622   4.112  0.7939 -0.8949 -0.4646
  365MOL0     C48053   1.357   5.549   4.092  0.5270 -0.0391 -0.1382
  365MOL0     C48054   1.354   5.410   4.136  0.3651  0.5541  0.3813
  365MOL0     C48055   1.458   5.354   4.194 -0.3965  0.6641  0.3911
  365MOL0     O48056   1.457   5.222   4.239  0.1920  0.4889  0.6180
  365MOL0     C48057   1.436   5.206   4.385 -0.5096  0.2423 -0.0291
  365MOL0     C48058   1.395   5.058   4.419 -0.4925 -0.0463 -0.4239
  365MOL0     C48059   1.430   5.031   4.559  0.0838 -0.7163 -1.4111
  365MOL0     C48060   1.359   4.904   4.609  0.0316 -0.0184 -0.5216
  365MOL0     C48061   1.392   4.879   4.755 -0.5482  0.4173  0.5296
  365MOL0     C48062   1.544   4.845   4.789 -0.4442 -0.5458  1.1890
  365MOL0     C48063   1.601   4.722   4.727  0.4274 -0.3944 -0.1185
  365MOL0     C48064   1.747   4.689   4.772  0.6803 -0.6698  0.4258
  365MOL0     N48065   1.852   4.762   4.687  0.6485  0.8725 -0.7377
  365MOL0     C48066   1.958   4.700   4.622  0.1354  0.8079  0.4147
  365MOL0     C48067   2.052   4.795   4.609 -0.4177  0.1981 -0.8331
  365MOL0     C48068   2.193   4.776   4.559  0.0775 -0.4300 -0.8798
  365MOL0     C48069   2.307   4.766   4.668  0.5416 -0.1791 -0.1512
  365MOL0     C48070   2.435   4.695   4.628 -0.3884  0.0662  0.1375
  365MOL0     C48071   2.565   4.752   4.695  0.0766  0.0932  0.5350
  365MOL0     O48072   2.556   4.761   4.831 -0.3619 -0.3490  0.1416
  365MOL0     C48073   2.633   4.671   4.911 -0.4932 -0.6513  1.0160
  365MOL0     C48074   2.682   4.711   5.035 -0.6990  0.1942 -0.7832
  365MOL0     C48075   2.736   4.625   5.130  0.4197  1.2292  0.2519
  365MOL0     C48076   2.754   4.484   5.092 -1.6944 -0.4901 -0.2870
  365MOL0     C48077   2.800   4.394   5.200  0.8860  0.0652  0.3950
  365MOL0     O48078   2.777   4.437   5.334 -0.2039 -0.0614 -0.1045
  365MOL0     C48079   2.856   4.397   5.435 -0.6003  0.3622  0.4410
  365MOL0     C48080   2.896   4.501   5.518  0.5476 -0.1888 -1.0972
  365MOL0     C48081   2.986   4.476   5.621 -0.5592 -1.6526  0.5046
  365MOL0     C48082   3.034   4.349   5.657  0.5962 -0.2025 -0.0599
  365MOL0     O48083   3.108   4.313   5.767 -0.3091 -0.2077  0.9874
  365MOL0     C48084   3.224   4.393   5.797 -0.1557  0.6539 -0.2428
  365MOL0     C48085   3.309   4.356   5.914  0.5822 -0.4615  0.5344
  365MOL0     C48086   3.229   4.325   6.044 -0.1665  0.0103 -0.6521
  365MOL0     C48087   3.113   4.427   6.068  0.6336 -0.5080 -0.3403
  365MOL0     C48088   3.041   4.412   6.203 -0.2605 -0.8484 -0.3639
  365MOL0     C48089   2.918   4.515   6.207 -0.5461  0.0178  0.2638
  365MOL0     C48090   2.860   4.538   6.345  0.1251 -0.5516  0.4346
  365MOL0     C48091   2.927   4.646   6.429 -0.6900 -0.5499  0.6178
  365MOL0    Cl48092   2.875   4.803   6.357  0.1683 -0.5598 -0.4485
  365MOL0     C48093   2.975   4.243   5.585  0.5224 -0.1046 -0.2477
  365MOL0     C48094   2.895   4.270   5.472  1.2630 -0.1475 -0.5237
  365MOL0     O48095   2.859   4.293   5.169  0.1482  0.2169 -0.2591
  365MOL0     C48096   2.721   4.446   4.960  0.7251  0.6000 -0.2417
  365MOL0     C48097   2.661   4.534   4.872  0.6958 -0.0240  0.2954
  365MOL0     N48098   1.988   4.920   4.644 -0.0852 -0.1874 -0.4067
  365MOL0     N48099   1.871   4.890   4.700  0.0067  0.0478  0.2604
  365MOL0     C48100   1.572   5.428   4.227  0.7657 -0.1812  0.2364
  365MOL0     C48101   1.583   5.560   4.175 -0.0552  0.4771  0.3741
  365MOL0     C48102   1.394   5.957   3.974 -0.0996 -0.7330 -0.2802
  365MOL0     C48103   1.482   6.036   4.047 -0.2403  0.2917 -0.4949
  365MOL0     C48104   1.488   6.178   4.033  0.7080  0.3054  0.2112
  365MOL0     C48105   1.404   6.246   3.953 -0.5953  0.5293  1.1018
  365MOL0     O48106   1.403   6.379   3.922 -1.0617  0.3291  0.3131
  365MOL0     C48107   1.495   6.466   3.997  0.7859  0.4353  0.1075
  365MOL0     C48108   1.441   6.612   3.992 -0.4331 -0.9601  0.2962
  365MOL0     C48109   1.293   6.631   4.028  0.4809  0.8466  0.1189
  365MOL0     C48110   1.266   6.600   4.171  0.2374 -0.2249 -0.8615
  365MOL0     C48111   1.217   6.715   4.250  0.6565 -0.4910  0.4082
  365MOL0     C48112   1.176   6.794   4.334 -0.0037  0.4566  0.2961
  365MOL0     C48113   1.316   6.161   3.880  0.8484  0.0715 -1.2119
  365MOL0     C48114   1.309   6.021   3.889  0.2049 -0.3977  0.1005
  365MOL0     H48115   1.268   5.585   4.042 -1.5380 -2.0100  1.9010
  365MOL0     H48116   1.270   5.348   4.104  2.1728 -2.0409  0.2811
  365MOL0     H48117   1.358   5.270   4.428  0.6897  1.3563  0.5839
  365MOL0     H48118   1.525   5.234   4.443  0.1734 -0.1272 -0.8907
  365MOL0     H48119   1.463   5.004   4.353  3.5304  2.8966  0.8752
  365MOL0     H48120   1.293   5.039   4.383 -0.0544 -2.5168 -0.5794
  365MOL0     H48121   1.403   5.116   4.622 -1.3229 -1.8048 -0.4748
  365MOL0     H48122   1.539   5.029   4.571 -0.0904  2.2541  3.6255
  365MOL0     H48123   1.250   4.911   4.612  0.0649  1.3771 -1.7270
  365MOL0     H48124   1.385   4.812   4.556  0.5207 -0.4663  0.4696
  365MOL0     H48125   1.335   4.791   4.785 -2.5322  1.8516  1.1964
  365MOL0     H48126   1.350   4.963   4.812 -3.6155 -0.6322 -0.0197
  365MOL0     H48127   1.543   4.837   4.898  0.6901  2.1427  1.4728
  365MOL0     H48128   1.605   4.931   4.761 -1.7945  0.4829  1.3022
  365MOL0     H48129   1.533   4.641   4.753  1.1481 -2.6556 -4.3456
  365MOL0     H48130   1.600   4.715   4.617  0.0603  5.5406 -0.8520
  365MOL0     H48131   1.770   4.582   4.775  1.9389 -0.3954  2.1229
  365MOL0     H48132   1.753   4.723   4.875  2.7212  2.5000 -0.5887
  365MOL0     H48133   1.970   4.594   4.604 -1.2404  0.5622  0.8197
  365MOL0     H48134   2.215   4.865   4.498  0.9918 -1.5176 -2.1865
  365MOL0     H48135   2.190   4.682   4.503 -1.9508  0.2127 -1.9410
  365MOL0     H48136   2.271   4.715   4.758  2.1411 -1.2259 -0.0652
  365MOL0     H48137   2.331   4.869   4.695 -1.2479 -0.1044  1.4112
  365MOL0     H48138   2.419   4.589   4.648 -0.2467 -0.4726 -2.2989
  365MOL0     H48139   2.445   4.718   4.521  2.3022 -0.1191  0.2920
  365MOL0     H48140   2.604   4.843   4.649 -2.0866  1.4920  1.3655
  365MOL0     H48141   2.636   4.675   4.662  0.7735  0.1193  1.9187
  365MOL0     H48142   2.662   4.813   5.066 -3.1518 -0.8290  1.3772
  365MOL0     H48143   2.761   4.664   5.228  0.4622 -1.6940  1.5075
  365MOL0     H48144   2.861   4.602   5.498  0.0672 -0.1756 -0.2238
  365MOL0     H48145   3.009   4.565   5.680 -2.4078  2.1190 -3.8652
  365MOL0     H48146   3.179   4.490   5.822 -2.7730 -0.7719  0.9805
  365MOL0     H48147   3.288   4.400   5.708 -1.6390  1.2411 -1.3131
  365MOL0     H48148   3.372   4.442   5.940 -0.9629  0.6338  0.8499
  365MOL0     H48149   3.382   4.277   5.892  1.5971  1.1112 -2.4244
  365MOL0     H48150   3.304   4.325   6.125  0.7185  1.4381 -1.4325
  365MOL0     H48151   3.179   4.228   6.035 -0.2290 -0.1597  1.1831
  365MOL0     H48152   3.151   4.530   6.058  2.5590 -0.7891  2.7538
  365MOL0     H48153   3.038   4.419   5.989  2.9025 -1.4841 -2.5100
  365MOL0     H48154   3.118   4.436   6.276  3.2173  0.0471 -3.9645
  365MOL0     H48155   3.013   4.309   6.227 -2.3209  0.0046  1.2477
  365MOL0     H48156   2.844   4.479   6.135  1.3770 -2.0392 -0.8048
  365MOL0     H48157   2.954   4.616   6.184 -2.0306  1.1609  2.6136
  365MOL0     H48158   2.754   4.559   6.332 -0.6617 -2.2108  3.2536
  365MOL0     H48159   2.877   4.447   6.403  0.8595 -0.0209  1.0779
  365MOL0     H48160   3.037   4.650   6.434 -0.5792  1.2047 -1.5030
  365MOL0     H48161   2.899   4.642   6.534  1.4252 -0.4728  1.2468
  365MOL0     H48162   2.989   4.137   5.604  0.1174 -0.8426 -3.5014
  365MOL0     H48163   2.855   4.181   5.425 -0.7509 -1.1711  2.7770
  365MOL0     H48164   2.733   4.343   4.929 -0.8911  0.7954 -1.6785
  365MOL0     H48165   2.629   4.500   4.775 -2.5498  0.4861  1.0882
  365MOL0     H48166   1.647   5.372   4.282  0.2455 -0.9080  0.2190
  365MOL0     H48167   1.657   5.632   4.207 -2.3964  2.1938  2.2434
  365MOL0     H48168   1.568   5.998   4.101  0.1728  0.6124 -0.9190
  365MOL0     H48169   1.567   6.219   4.095  1.1332 -0.9068  0.4929
  365MOL0     H48170   1.599   6.459   3.965  0.3324  2.2953 -2.0292
  365MOL0     H48171   1.490   6.433   4.101  3.9864 -1.6264 -0.2762
  365MOL0     H48172   1.505   6.671   4.058  0.4276 -1.6305  0.0854
  365MOL0     H48173   1.471   6.642   3.891 -1.6997 -0.6866 -0.0138
  365MOL0     H48174   1.233   6.561   3.969  2.5811 -2.0808  1.1883
  365MOL0     H48175   1.257   6.730   4.000 -1.3641  0.1960  0.0817
  365MOL0     H48176   1.198   6.514   4.177  0.2934 -0.2554 -0.6779
  365MOL0     H48177   1.356   6.571   4.225 -1.0733 -1.2988  0.8849
  365MOL0     H48178   1.116   6.851   4.402 -0.0298  0.7679  0.0155
  365MOL0     H48179   1.240   6.201   3.814  0.0889 -2.2587 -1.8465
  365MOL0     H48180   1.230   5.973   3.831 -0.9809  0.5548  0.8583
  366MOL0     O48181   1.417   0.379  10.502 -0.2653  0.2379 -0.1499
  366MOL0     C48182   1.462   0.437  10.402 -0.6412  0.4110  0.0458
  366MOL0     O48183   1.586   0.459  10.384  0.2467 -0.3645  0.0024
  366MOL0     C48184   1.672   0.432  10.495  0.4694 -1.3806 -0.3272
  366MOL0     C48185   1.702   0.526  10.599 -0.1547  0.1937  0.4199
  366MOL0     C48186   1.772   0.481  10.718  0.4753 -0.7691 -0.6117
  366MOL0     C48187   1.820   0.349  10.731  0.5190 -0.8130 -0.0492
  366MOL0     O48188   1.868   0.293  10.847 -0.1113  1.1632  0.7349
  366MOL0     C48189   1.772   0.275  10.952 -0.0383 -0.0852  0.2230
  366MOL0     C48190   1.809   0.155  11.044  0.3954 -0.6003 -0.5233
  366MOL0     C48191   1.805   0.023  10.973 -0.8071  0.4784  0.0251
  366MOL0     C48192   1.673  -0.050  11.002 -0.4632  0.2898  0.2211
  366MOL0     C48193   1.577  -0.033  10.880 -0.0248 -0.8276 -0.2798
  366MOL0     C48194   1.613  -0.101  10.749 -0.2143  0.0191  0.7862
  366MOL0     C48195   1.496  -0.103  10.647 -0.1186  0.9995 -0.2100
  366MOL0     C48196   1.442   0.029  10.580 -0.0525  0.1436 -0.7893
  366MOL0     N48197   1.339   0.002  10.484  0.9003  0.3200 -0.3015
  366MOL0     C48198   1.299   0.065  10.367 -0.3986 -1.0803 -1.1111
  366MOL0     C48199   1.244  -0.027  10.288 -0.3094  1.1792 -0.3005
  366MOL0     C48200   1.187  -0.035  10.151  0.0845  0.0154 -0.4598
  366MOL0     C48201   1.132   0.100  10.092 -0.4785 -0.1284  0.4721
  366MOL0     C48202   1.016   0.068   9.994  0.3136 -0.4243 -0.7691
  366MOL0     C48203   1.065   0.009   9.867  0.1579  0.5203  0.0893
  366MOL0     O48204   1.146   0.115   9.801  0.3021 -0.4102 -1.3029
  366MOL0     C48205   1.231   0.068   9.706 -0.1144 -0.0470 -0.1023
  366MOL0     C48206   1.348   0.147   9.683  0.5840 -0.3364  0.7973
  366MOL0     C48207   1.446   0.115   9.584  0.0597  0.9013 -0.1759
  366MOL0     C48208   1.442  -0.009   9.517  0.1757  0.4851 -1.0440
  366MOL0     C48209   1.563  -0.053   9.435  0.4686 -0.8345  0.2901
  366MOL0     O48210   1.680   0.022   9.448 -0.8908 -0.0969  0.0747
  366MOL0     C48211   1.805  -0.010   9.388  0.0477 -1.0250  0.3683
  366MOL0     C48212   1.823  -0.088   9.276  0.5971 -0.0953  0.4965
  366MOL0     C48213   1.952  -0.102   9.229 -1.2744 -0.8359  0.3807
  366MOL0     C48214   2.058  -0.016   9.265  0.0786  0.0555 -0.3961
  366MOL0     O48215   2.177  -0.021   9.190  0.4391  0.0135 -0.2883
  366MOL0     C48216   2.298   0.046   9.232 -0.0772  0.0032  0.7794
  366MOL0     C48217   2.430  -0.008   9.182  0.3218 -0.3600 -0.1008
  366MOL0     C48218   2.421  -0.012   9.029 -0.0260 -0.2893  0.3241
  366MOL0     C48219   2.553  -0.071   8.963  0.2473 -0.5041  0.5196
  366MOL0     C48220   2.543  -0.129   8.825 -0.1007  0.2104  0.7454
  366MOL0     C48221   2.653  -0.240   8.797 -0.8104  0.2916  0.3429
  366MOL0     C48222   2.797  -0.184   8.833  0.1771  0.6194 -0.2480
  366MOL0     C48223   2.908  -0.271   8.759 -0.3978 -0.2744 -0.1075
  366MOL0    Cl48224   3.071  -0.256   8.821 -0.9954 -0.4171  0.0217
  366MOL0     C48225   2.035   0.065   9.374 -1.0109 -0.4813 -0.6570
  366MOL0     C48226   1.916   0.059   9.448 -0.2985  0.5512  0.5714
  366MOL0     O48227   1.543  -0.140   9.349 -0.1937 -0.3368 -0.8758
  366MOL0     C48228   1.328  -0.083   9.548 -0.2038  0.0898  0.8616
  366MOL0     C48229   1.228  -0.051   9.636 -0.5607 -1.2731  0.1968
  366MOL0     N48230   1.237  -0.150  10.356 -0.2792 -0.7876 -0.0724
  366MOL0     N48231   1.276  -0.124  10.475 -0.9103 -0.2416 -0.6658
  366MOL0     C48232   1.789   0.270  10.621 -0.6787 -0.0025  0.2419
  366MOL0     C48233   1.715   0.309  10.509 -0.4494 -0.4313  0.6887
  366MOL0     C48234   1.369   0.454  10.293 -0.4028 -0.7292  0.1167
  366MOL0     C48235   1.233   0.453  10.312 -0.0420  0.3773 -0.3131
  366MOL0     C48236   1.145   0.470  10.204  0.0854  0.1760 -0.6678
  366MOL0     C48237   1.189   0.498  10.068 -0.2939  0.0861 -0.1927
  366MOL0     O48238   1.101   0.534   9.970  1.0589  0.0619  0.2062
  366MOL0     C48239   1.131   0.521   9.832  0.6036 -0.0040 -0.6553
  366MOL0     C48240   1.012   0.546   9.749  0.1101 -0.3742  1.1859
  366MOL0     C48241   0.942   0.682   9.777  0.0032  0.5652 -0.1480
  366MOL0     C48242   0.831   0.705   9.671 -0.3115 -1.0928  0.9021
  366MOL0     C48243   0.720   0.792   9.706 -0.5739 -0.0055 -1.0355
  366MOL0     C48244   0.649   0.888   9.749  0.0063 -0.4882 -0.2967
  366MOL0     C48245   1.332   0.489  10.057 -0.1880  0.7988  0.4364
  366MOL0     C48246   1.422   0.475  10.162  0.5334  0.1279  0.3427
  366MOL0     H48247   1.666   0.626  10.578 -1.1063 -0.1040  0.6196
  366MOL0     H48248   1.791   0.549  10.800  1.8533  1.9813 -3.0489
  366MOL0     H48249   1.669   0.268  10.915 -0.7616 -0.6456  2.1637
  366MOL0     H48250   1.772   0.368  11.010 -0.3589 -0.2175  0.4446
  366MOL0     H48251   1.747   0.159  11.135  0.6838  2.0599 -0.3804
  366MOL0     H48252   1.912   0.154  11.080  0.3448  0.7769 -0.2781
  366MOL0     H48253   1.876  -0.043  11.024 -1.6378 -0.6066 -0.1733
  366MOL0     H48254   1.834   0.032  10.869 -1.7676  0.4238 -0.2630
  366MOL0     H48255   1.690  -0.157  11.013 -0.9371  0.1060 -0.7314
  366MOL0     H48256   1.636  -0.021  11.101  0.6715 -1.3457  1.1609
  366MOL0     H48257   1.565   0.074  10.862  3.0502 -0.2023  0.7741
  366MOL0     H48258   1.479  -0.077  10.903 -0.8831 -0.3603 -2.7455
  366MOL0     H48259   1.653  -0.200  10.775  1.6633  0.3972 -0.4459
  366MOL0     H48260   1.696  -0.051  10.698 -0.5458 -2.2976 -2.3166
  366MOL0     H48261   1.530  -0.164  10.563  1.5321  1.6257 -0.0215
  366MOL0     H48262   1.411  -0.154  10.695 -0.8588  1.7696 -0.6659
  366MOL0     H48263   1.528   0.077  10.532 -1.2662 -0.6272 -3.9829
  366MOL0     H48264   1.397   0.095  10.654 -0.7469 -3.0833  1.9355
  366MOL0     H48265   1.318   0.170  10.343 -1.1064 -1.0320 -1.5007
  366MOL0     H48266   1.107  -0.109  10.154  1.3532 -1.4929 -1.6869
  366MOL0     H48267   1.262  -0.081  10.086 -0.5661  0.1546 -1.3302
  366MOL0     H48268   1.215   0.159  10.052 -0.2608  1.5804  3.1883
  366MOL0     H48269   1.086   0.162  10.169 -1.9243  0.3654 -0.7409
  366MOL0     H48270   0.961  -0.020  10.029  0.8562  0.0582  1.4581
  366MOL0     H48271   0.945   0.148   9.974  0.0781 -0.6486 -0.8432
  366MOL0     H48272   0.986  -0.032   9.804  0.4937  0.9417 -0.6198
  366MOL0     H48273   1.146  -0.061   9.891  1.8233  1.7756 -1.5472
  366MOL0     H48274   1.372   0.241   9.732 -0.2726  0.4119 -0.1729
  366MOL0     H48275   1.537   0.174   9.573 -0.7408  1.7667 -2.7490
  366MOL0     H48276   1.738  -0.120   9.216  2.0375 -0.0554 -1.6905
  366MOL0     H48277   1.971  -0.145   9.132  0.6965  2.7621 -1.0285
  366MOL0     H48278   2.309   0.054   9.340 -0.1109 -0.5175  0.8229
  366MOL0     H48279   2.290   0.151   9.203  0.1172 -0.4752 -1.1617
  366MOL0     H48280   2.451  -0.109   9.220 -0.9675  0.1245  2.1219
  366MOL0     H48281   2.510   0.051   9.227 -1.3550 -1.5134  5.1429
  366MOL0     H48282   2.380   0.074   8.976  1.8222  1.7698  2.0649
  366MOL0     H48283   2.345  -0.088   9.006 -0.8829  0.8338 -0.6689
  366MOL0     H48284   2.627   0.008   8.978  0.3143 -0.5529  0.4468
  366MOL0     H48285   2.589  -0.155   9.023  1.5483 -1.2569 -1.2486
  366MOL0     H48286   2.543  -0.041   8.760 -1.7977  1.4572  2.3187
  366MOL0     H48287   2.446  -0.179   8.819  1.0490 -1.9400 -1.0074
  366MOL0     H48288   2.637  -0.264   8.692  3.8828 -2.1808 -0.0860
  366MOL0     H48289   2.637  -0.329   8.860  2.8011  1.5480  3.3961
  366MOL0     H48290   2.784  -0.085   8.787  1.3646  1.0273  0.2648
  366MOL0     H48291   2.810  -0.180   8.941 -0.4104 -0.5690 -0.1177
  366MOL0     H48292   2.922  -0.264   8.650 -0.8469 -0.0084 -0.1455
  366MOL0     H48293   2.878  -0.375   8.773  0.5888 -0.5433  0.0959
  366MOL0     H48294   2.095   0.153   9.392 -0.6611 -0.5803 -1.2934
  366MOL0     H48295   1.893   0.152   9.498  1.1991  1.0172  0.4402
  366MOL0     H48296   1.315  -0.185   9.512  0.5169  0.8178 -1.6852
  366MOL0     H48297   1.135  -0.107   9.630 -0.8273 -0.7687 -0.4766
  366MOL0     H48298   1.815   0.165  10.627 -0.8654  0.0327  1.9018
  366MOL0     H48299   1.688   0.244  10.427 -0.2793  0.1291  0.1802
  366MOL0     H48300   1.200   0.433  10.414  0.5737  0.1199 -0.1562
  366MOL0     H48301   1.037   0.467  10.218  0.4291 -2.0127  2.3515
  366MOL0     H48302   1.182   0.428   9.807 -4.3894 -3.9630  2.1429
  366MOL0     H48303   1.193   0.606   9.801  1.3129 -1.3930 -3.3661
  366MOL0     H48304   1.042   0.536   9.645  3.6356 -0.6320  2.1230
  366MOL0     H48305   0.952   0.454   9.751  2.8000 -2.2868 -0.5508
  366MOL0     H48306   1.020   0.758   9.782  0.9339 -0.3579 -0.3899
  366MOL0     H48307   0.884   0.668   9.869 -2.2594  0.6356 -1.5001
  366MOL0     H48308   0.885   0.743   9.583  0.7310 -0.8699  1.6165
  366MOL0     H48309   0.781   0.612   9.642  2.2365 -2.8376  1.7582
  366MOL0     H48310   0.596   0.967   9.798  3.8057  2.7441 -0.8799
  366MOL0     H48311   1.381   0.508   9.963  1.6630 -0.1179  1.1729
  366MOL0     H48312   1.527   0.476  10.137  1.0143  1.3835  2.2204
  367MOL0     O48313   0.180  10.898   2.406  1.2625 -0.4214 -0.0021
  367MOL0     C48314   0.067  10.904   2.352  0.3634  0.9027  0.4577
  367MOL0     O48315   0.010  10.793   2.293  0.1883  0.0050 -0.9802
  367MOL0     C48316   0.084  10.680   2.279 -0.0297  0.8702 -0.6949
  367MOL0     C48317   0.083  10.581   2.377 -0.2584  0.9552 -0.7550
  367MOL0     C48318   0.142  10.452   2.361 -0.2163  0.5487  1.1630
  367MOL0     C48319   0.212  10.417   2.240  0.8995 -0.2658  0.4249
  367MOL0     O48320   0.275  10.295   2.228 -0.7402  1.2370 -0.7164
  367MOL0     C48321   0.332  10.275   2.099 -0.6553 -0.3584 -0.2576
  367MOL0     C48322   0.355  10.119   2.077  0.9237 -1.1298 -0.6016
  367MOL0     C48323   0.221  10.037   2.046 -0.0873  0.5521 -0.8984
  367MOL0     C48324   0.249   9.883   2.054  0.2130 -0.4326  0.8980
  367MOL0     C48325   0.119   9.804   2.050  1.0287  0.4296  0.2546
  367MOL0     C48326   0.151   9.653   2.054  0.7645  0.7406  0.6525
  367MOL0     C48327   0.225   9.612   1.921  0.6362  0.4700 -0.5455
  367MOL0     C48328   0.232   9.464   1.885 -0.3795 -0.0176  0.0600
  367MOL0     N48329   0.095   9.410   1.874 -0.4218  0.0696 -0.0512
  367MOL0     C48330  -0.026   9.453   1.815 -0.7173  0.7220 -0.8321
  367MOL0     C48331  -0.122   9.375   1.862 -0.6715  0.2602  0.5751
  367MOL0     C48332  -0.266   9.391   1.836  0.1843  0.8235 -0.2018
  367MOL0     C48333  -0.363   9.311   1.926 -0.3421 -0.6933 -0.0437
  367MOL0     C48334  -0.510   9.356   1.899 -0.5914 -0.0733  0.1581
  367MOL0     C48335  -0.555   9.282   1.772  0.2017 -0.6011  0.3318
  367MOL0     O48336  -0.661   9.369   1.714 -0.2382  0.5105  0.3606
  367MOL0     C48337  -0.763   9.311   1.658  0.2638 -0.2511  0.5946
  367MOL0     C48338  -0.756   9.182   1.601  0.0597 -0.2271  0.0975
  367MOL0     C48339  -0.872   9.135   1.532  0.5629  0.2820  0.5096
  367MOL0     C48340  -0.989   9.210   1.526 -0.7395  0.3840  0.2194
  367MOL0     C48341  -1.110   9.167   1.460 -0.1949  0.2611 -0.8257
  367MOL0     O48342  -1.094   9.071   1.364 -0.8232 -0.4788  0.6491
  367MOL0     C48343  -1.183   9.043   1.266  0.6224  0.5851  0.2879
  367MOL0     C48344  -1.283   9.133   1.230  0.5461 -0.0576 -0.2388
  367MOL0     C48345  -1.363   9.095   1.122 -0.0107 -0.2172  0.0645
  367MOL0     C48346  -1.340   8.980   1.048  0.2552 -0.3150 -0.2943
  367MOL0     O48347  -1.411   8.963   0.930 -0.2060  0.6991 -0.9866
  367MOL0     C48348  -1.540   8.900   0.946 -0.7524  0.1369 -0.3537
  367MOL0     C48349  -1.532   8.750   0.928 -0.1300 -0.1375 -0.5112
  367MOL0     C48350  -1.498   8.713   0.779  1.3686 -0.0419  0.6049
  367MOL0     C48351  -1.625   8.720   0.681 -0.3526  0.7266  0.1981
  367MOL0     C48352  -1.590   8.680   0.545 -0.3055  0.3514 -0.2989
  367MOL0     C48353  -1.580   8.531   0.511 -0.2426 -0.8363 -0.5342
  367MOL0     C48354  -1.528   8.529   0.367 -0.0814  0.3639 -0.1155
  367MOL0     C48355  -1.552   8.406   0.292  0.8158  0.4112  0.2710
  367MOL0    Cl48356  -1.487   8.448   0.133  0.3698 -0.1243  0.5132
  367MOL0     C48357  -1.246   8.890   1.088  0.1539  0.4229 -0.5281
  367MOL0     C48358  -1.174   8.917   1.200  0.1650  0.4869 -0.5817
  367MOL0     O48359  -1.219   9.196   1.507 -0.5488 -0.1059 -0.1058
  367MOL0     C48360  -0.997   9.330   1.596 -0.6779  0.7888 -0.1669
  367MOL0     C48361  -0.885   9.385   1.658  0.3884 -0.5557  0.6031
  367MOL0     N48362  -0.062   9.280   1.938 -0.2049  0.5938  0.5651
  367MOL0     N48363   0.065   9.298   1.947 -0.1759 -0.2334 -0.4945
  367MOL0     C48364   0.225  10.528   2.142  0.5606  0.2531  1.3743
  367MOL0     C48365   0.162  10.647   2.172  0.6591 -0.8889  0.3194
  367MOL0     C48366  -0.001  11.033   2.349 -0.1151  0.0189 -0.3620
  367MOL0     C48367  -0.132  11.054   2.315 -0.4222  0.2981  0.1338
  367MOL0     C48368  -0.190  11.185   2.303  0.2794  0.4343 -0.3239
  367MOL0     C48369  -0.122  11.297   2.336  0.4542 -0.7876 -0.4878
  367MOL0     O48370  -0.162  11.429   2.308 -0.4364 -0.0266  0.1822
  367MOL0     C48371  -0.290  11.466   2.248 -0.4925 -0.6340 -0.7381
  367MOL0     C48372  -0.354  11.578   2.338 -1.0500 -0.3131 -0.0741
  367MOL0     C48373  -0.475  11.525   2.416  0.0732 -0.0535  0.0728
  367MOL0     C48374  -0.452  11.416   2.517 -0.5816  0.1802  0.2660
  367MOL0     C48375  -0.567  11.360   2.587  0.9190  0.2895  0.0522
  367MOL0     C48376  -0.676  11.319   2.621  0.2067  0.8163  0.4838
  367MOL0     C48377   0.008  11.279   2.368  0.5611 -0.2499 -0.7368
  367MOL0     C48378   0.065  11.149   2.387 -0.0132 -0.1454 -0.5503
  367MOL0     H48379   0.026  10.615   2.463 -1.3851  0.1362 -1.1655
  367MOL0     H48380   0.123  10.374   2.435 -0.5054 -1.1620 -0.6244
  367MOL0     H48381   0.431  10.322   2.097 -0.0143 -1.4042  2.2814
  367MOL0     H48382   0.273  10.314   2.016 -0.7267  2.0867  0.8633
  367MOL0     H48383   0.403  10.079   2.167 -1.2823 -1.0170  0.6884
  367MOL0     H48384   0.423  10.112   1.991 -0.1339  2.2809 -1.8716
  367MOL0     H48385   0.180  10.064   1.949  0.7165  0.4453 -1.2777
  367MOL0     H48386   0.144  10.058   2.122  1.0894  3.3993 -0.3898
  367MOL0     H48387   0.314   9.864   1.968  0.0108  3.2734 -0.2179
  367MOL0     H48388   0.304   9.867   2.146  1.5003 -1.2948  0.0139
  367MOL0     H48389   0.071   9.814   1.951  2.6202 -2.2300 -0.8677
  367MOL0     H48390   0.059   9.841   2.134 -0.8403 -0.0213 -0.8207
  367MOL0     H48391   0.056   9.599   2.045  0.9658 -0.1006  2.8221
  367MOL0     H48392   0.190   9.614   2.149  0.0267 -2.7081 -0.3065
  367MOL0     H48393   0.174   9.655   1.833  0.8206  1.3917 -0.2124
  367MOL0     H48394   0.327   9.651   1.916  1.0239 -0.5736 -1.0321
  367MOL0     H48395   0.297   9.417   1.959  0.6942  0.4561 -0.5518
  367MOL0     H48396   0.269   9.447   1.783  1.8844 -5.4667  1.4956
  367MOL0     H48397  -0.045   9.539   1.751 -3.1431  2.1353  1.5926
  367MOL0     H48398  -0.300   9.373   1.734 -2.1064 -4.0692  1.0909
  367MOL0     H48399  -0.285   9.494   1.867  0.3488 -0.0493  3.1926
  367MOL0     H48400  -0.355   9.326   2.034 -1.0586  0.8871 -0.1792
  367MOL0     H48401  -0.362   9.202   1.914 -3.0976 -0.9411  1.1736
  367MOL0     H48402  -0.575   9.331   1.984 -2.4806  2.9457 -0.2728
  367MOL0     H48403  -0.506   9.464   1.885  2.2460 -0.4472 -3.7702
  367MOL0     H48404  -0.595   9.182   1.787 -0.6693 -0.1013  1.6029
  367MOL0     H48405  -0.472   9.277   1.701  0.8900  0.0639  1.0632
  367MOL0     H48406  -0.662   9.128   1.590 -1.0866 -1.8192 -3.4793
  367MOL0     H48407  -0.882   9.039   1.483  0.5161  0.3522  0.3788
  367MOL0     H48408  -1.302   9.225   1.285  2.0801  0.2650 -0.1836
  367MOL0     H48409  -1.444   9.159   1.090  1.4451  0.9164 -1.5280
  367MOL0     H48410  -1.597   8.944   0.864 -1.5618 -1.4877 -0.6889
  367MOL0     H48411  -1.592   8.921   1.040  0.1725 -0.8297  0.4055
  367MOL0     H48412  -1.620   8.702   0.971  1.6567 -3.4847 -0.2609
  367MOL0     H48413  -1.445   8.723   0.989 -0.3584  3.6826  1.8669
  367MOL0     H48414  -1.447   8.618   0.760  1.0204 -0.6124  2.4264
  367MOL0     H48415  -1.426   8.785   0.738  1.7842  1.0898  3.1693
  367MOL0     H48416  -1.701   8.652   0.721 -0.9587  1.4818  0.3497
  367MOL0     H48417  -1.662   8.823   0.681 -1.0219  0.4933 -0.0174
  367MOL0     H48418  -1.493   8.727   0.527  1.2426 -2.4209  0.1438
  367MOL0     H48419  -1.673   8.727   0.492 -1.7565 -1.6237  0.1261
  367MOL0     H48420  -1.679   8.486   0.526 -0.6719 -0.1778 -1.2875
  367MOL0     H48421  -1.503   8.488   0.575  2.3777  0.8441 -2.3843
  367MOL0     H48422  -1.595   8.601   0.319  2.3875  3.1053  0.2400
  367MOL0     H48423  -1.421   8.554   0.366  0.3148 -1.2211  0.2296
  367MOL0     H48424  -1.661   8.393   0.286  0.3519  2.2146  2.8467
  367MOL0     H48425  -1.502   8.322   0.339 -1.4567 -0.9552  0.4005
  367MOL0     H48426  -1.232   8.791   1.047  0.9458  0.4532 -0.3402
  367MOL0     H48427  -1.090   8.859   1.237  0.1559  0.9263  0.1525
  367MOL0     H48428  -1.094   9.377   1.601 -0.7068  0.7861 -0.6697
  367MOL0     H48429  -0.885   9.476   1.717  0.8067 -2.5590  3.9555
  367MOL0     H48430   0.285  10.509   2.053 -0.7060 -2.8629  1.0334
  367MOL0     H48431   0.174  10.725   2.099 -1.8390  0.2028  0.9811
  367MOL0     H48432  -0.187  10.966   2.283 -1.8851  1.3242 -0.2988
  367MOL0     H48433  -0.296  11.184   2.281 -0.1607  0.0672  1.6159
  367MOL0     H48434  -0.360  11.384   2.230  2.2104 -2.6309 -2.9844
  367MOL0     H48435  -0.263  11.515   2.155  2.1268  0.0947  0.3265
  367MOL0     H48436  -0.285  11.619   2.413 -0.4581  2.5992 -2.0174
  367MOL0     H48437  -0.379  11.662   2.273 -2.3425 -0.8444 -0.2909
  367MOL0     H48438  -0.544  11.491   2.338  2.2344 -3.1438 -0.6982
  367MOL0     H48439  -0.502  11.614   2.474  0.9996  1.5693 -1.8740
  367MOL0     H48440  -0.385  11.344   2.468 -0.8014 -0.4215  0.8243
  367MOL0     H48441  -0.381  11.464   2.586  0.9224  3.9942 -3.4928
  367MOL0     H48442  -0.769  11.270   2.642  1.1770 -1.1361  0.4777
  367MOL0     H48443   0.078  11.362   2.372  0.2473 -0.0367  0.7856
  367MOL0     H48444   0.166  11.142   2.425  0.6297 -0.8753 -2.3113
  368MOL0     O48445   2.595   5.475   5.247  0.6961 -0.0364  1.1405
  368MOL0     C48446   2.493   5.524   5.302  0.0552  0.4390  0.0529
  368MOL0     O48447   2.481   5.655   5.354 -0.3464 -0.6602  0.1479
  368MOL0     C48448   2.580   5.751   5.332  0.2993 -0.0989 -0.6125
  368MOL0     C48449   2.619   5.772   5.199  0.3586 -0.2575  0.6177
  368MOL0     C48450   2.722   5.863   5.169 -1.0014  1.1106 -0.0539
  368MOL0     C48451   2.782   5.937   5.269  0.8499 -0.0522 -0.2334
  368MOL0     O48452   2.893   6.017   5.245  0.3601  0.1376  0.2347
  368MOL0     C48453   2.858   6.156   5.284 -0.0127  0.4579  0.1468
  368MOL0     C48454   2.957   6.246   5.226  0.0043 -0.6732  0.7321
  368MOL0     C48455   3.096   6.200   5.250 -0.6935 -0.5234 -0.3485
  368MOL0     C48456   3.191   6.313   5.289 -0.1037  1.2357 -0.9690
  368MOL0     C48457   3.335   6.253   5.301 -0.0635 -0.0694  0.6225
  368MOL0     C48458   3.431   6.347   5.364 -1.1597  0.7077  0.7138
  368MOL0     C48459   3.417   6.367   5.511  1.1110  0.2952  0.7442
  368MOL0     C48460   3.559   6.377   5.570 -0.0921  0.5618 -0.6138
  368MOL0     N48461   3.560   6.394   5.725  0.4469  0.8638  0.5904
  368MOL0     C48462   3.550   6.520   5.783  0.7110  0.5102  0.4434
  368MOL0     C48463   3.575   6.489   5.915 -0.7337 -0.3592  0.7489
  368MOL0     C48464   3.574   6.578   6.044  0.0243 -0.1681  0.3883
  368MOL0     C48465   3.617   6.508   6.168 -1.5124  0.1259 -0.2052
  368MOL0     C48466   3.769   6.537   6.200 -0.8872  0.5862  1.3024
  368MOL0     C48467   3.872   6.493   6.105 -0.6617  0.2093 -0.4436
  368MOL0     O48468   3.998   6.525   6.165  0.0885  1.0176  0.6105
  368MOL0     C48469   4.118   6.472   6.125  0.5262 -0.1639 -0.2793
  368MOL0     C48470   4.228   6.516   6.193  0.1672 -1.0099 -0.3906
  368MOL0     C48471   4.351   6.467   6.154  0.5502  0.1840  0.5076
  368MOL0     C48472   4.385   6.382   6.050 -0.2839  0.1134 -0.7179
  368MOL0     C48473   4.522   6.337   6.019  0.5469 -0.5238  1.1467
  368MOL0     O48474   4.538   6.258   5.909 -0.0950  0.0115 -0.4149
  368MOL0     C48475   4.664   6.239   5.856 -0.0063  0.3872 -0.0362
  368MOL0     C48476   4.746   6.349   5.819  0.2283  0.4766 -0.2150
  368MOL0     C48477   4.882   6.316   5.792  0.6114 -0.5127 -0.1843
  368MOL0     C48478   4.931   6.184   5.795  0.1767  0.3717 -0.4130
  368MOL0     O48479   5.058   6.139   5.790 -0.1536 -0.1645  0.0165
  368MOL0     C48480   5.156   6.237   5.780 -0.8665 -0.2612  0.4808
  368MOL0     C48481   5.297   6.183   5.763  0.2947  0.3302  0.0056
  368MOL0     C48482   5.346   6.110   5.894  0.6627  0.0630 -0.1631
  368MOL0     C48483   5.488   6.091   5.895 -0.0693  0.0901 -0.4066
  368MOL0     C48484   5.565   6.051   6.025  0.1698 -1.3910  0.1289
  368MOL0     C48485   5.692   5.962   5.999 -0.0061 -0.6851 -0.7216
  368MOL0     C48486   5.758   5.942   6.139  0.1976  0.1907 -0.5957
  368MOL0     C48487   5.878   5.852   6.111 -0.4279  0.2329 -1.2108
  368MOL0    Cl48488   5.949   5.801   6.271 -0.1966  0.6329 -0.0907
  368MOL0     C48489   4.844   6.086   5.818 -0.4450  0.3244 -0.8692
  368MOL0     C48490   4.708   6.107   5.832 -0.7102 -1.4222 -0.8129
  368MOL0     O48491   4.611   6.364   6.099  0.7050 -0.0289 -0.1340
  368MOL0     C48492   4.271   6.340   5.978  0.6708  0.2137 -0.7540
  368MOL0     C48493   4.133   6.376   6.021 -0.4458  0.0623 -0.4564
  368MOL0     N48494   3.608   6.357   5.920  0.3859  0.3379  0.1253
  368MOL0     N48495   3.582   6.295   5.812  0.1404 -0.2956 -0.0523
  368MOL0     C48496   2.752   5.905   5.406  0.2415  1.0274 -0.5157
  368MOL0     C48497   2.654   5.808   5.440 -0.2792 -0.6291 -0.2900
  368MOL0     C48498   2.370   5.432   5.340  0.1288 -0.9619 -0.2349
  368MOL0     C48499   2.237   5.479   5.349 -0.0191  0.4065  0.1033
  368MOL0     C48500   2.135   5.396   5.389 -0.4127 -0.2336  0.1318
  368MOL0     C48501   2.165   5.269   5.442  1.0858  0.6895  0.0415
  368MOL0     O48502   2.073   5.178   5.495 -0.0489  0.1223 -0.3839
  368MOL0     C48503   1.936   5.215   5.506  0.1033  0.0972  0.6411
  368MOL0     C48504   1.865   5.133   5.606  0.9878 -0.7029 -0.0628
  368MOL0     C48505   1.869   4.984   5.578 -0.0817 -0.3371  0.2242
  368MOL0     C48506   1.775   4.888   5.665 -0.0610 -0.3722  0.0343
  368MOL0     C48507   1.625   4.905   5.653 -0.4967 -1.1709  0.0940
  368MOL0     C48508   1.505   4.910   5.658  0.0878  0.0953 -0.0127
  368MOL0     C48509   2.295   5.227   5.435 -0.0004 -0.1282  0.4511
  368MOL0     C48510   2.401   5.309   5.394 -0.8486 -0.8077  1.1981
  368MOL0     H48511   2.572   5.733   5.108  1.0371  2.3667 -0.9610
  368MOL0     H48512   2.757   5.870   5.067  0.3063 -2.5550 -0.0192
  368MOL0     H48513   2.866   6.161   5.393  1.0972 -2.1393  0.2551
  368MOL0     H48514   2.755   6.177   5.253 -0.9597 -0.4202  2.4425
  368MOL0     H48515   2.934   6.342   5.273  0.2460 -0.8710  1.2650
  368MOL0     H48516   2.944   6.254   5.118  2.1510 -2.4522  0.2630
  368MOL0     H48517   3.133   6.150   5.160  0.1381 -1.2651  0.3887
  368MOL0     H48518   3.103   6.129   5.333 -2.6638  0.7429  0.9649
  368MOL0     H48519   3.183   6.397   5.219  1.1024  1.2406 -1.1321
  368MOL0     H48520   3.164   6.346   5.389  0.0019 -0.4107 -0.3774
  368MOL0     H48521   3.361   6.216   5.201 -0.3194 -2.5536  1.4093
  368MOL0     H48522   3.330   6.163   5.362 -1.4993 -0.2976  0.1990
  368MOL0     H48523   3.424   6.450   5.329 -1.2603  1.2631  2.3135
  368MOL0     H48524   3.535   6.325   5.336 -1.5874 -0.0872 -0.3316
  368MOL0     H48525   3.358   6.458   5.521 -2.5961 -1.8436  0.0932
  368MOL0     H48526   3.349   6.293   5.554 -0.2362  2.7728  3.1768
  368MOL0     H48527   3.607   6.462   5.521  2.3573  0.0197  0.6847
  368MOL0     H48528   3.622   6.291   5.546 -1.3890 -1.1720  1.7635
  368MOL0     H48529   3.517   6.611   5.735  1.1724  0.8102  0.6942
  368MOL0     H48530   3.473   6.617   6.060  0.0839  1.7315 -2.9070
  368MOL0     H48531   3.623   6.675   6.034 -2.4407  1.0131 -1.0511
  368MOL0     H48532   3.592   6.402   6.168 -2.6763  0.3471  1.8818
  368MOL0     H48533   3.559   6.559   6.246  0.6862  3.2001 -0.3753
  368MOL0     H48534   3.788   6.644   6.213 -0.5125  1.0203 -1.9679
  368MOL0     H48535   3.792   6.489   6.296 -0.7037 -3.1791 -0.4269
  368MOL0     H48536   3.857   6.538   6.007  0.6341  0.7412 -0.4059
  368MOL0     H48537   3.858   6.384   6.106 -0.1675  0.1241  1.6335
  368MOL0     H48538   4.205   6.582   6.275 -0.0928  1.9316 -2.6737
  368MOL0     H48539   4.432   6.511   6.212  0.1566 -0.1847  1.3621
  368MOL0     H48540   4.713   6.453   5.825 -1.0660  0.0030  2.2417
  368MOL0     H48541   4.948   6.398   5.767  1.3612 -0.4444  1.8181
  368MOL0     H48542   5.153   6.300   5.869  0.6542  3.2241 -1.7174
  368MOL0     H48543   5.131   6.304   5.697 -1.2370  1.5876  2.0231
  368MOL0     H48544   5.362   6.269   5.741  1.2786 -0.7149 -1.3447
  368MOL0     H48545   5.303   6.123   5.672 -3.5078 -2.1848  1.1679
  368MOL0     H48546   5.291   6.017   5.912  1.7540 -0.9662 -1.8725
  368MOL0     H48547   5.311   6.168   5.981  0.7136 -1.0704  0.6410
  368MOL0     H48548   5.510   6.011   5.824 -1.2819 -1.6632  1.0986
  368MOL0     H48549   5.528   6.184   5.852 -3.6903  1.3705 -1.3456
  368MOL0     H48550   5.490   5.996   6.084  1.4268 -1.3920  1.8125
  368MOL0     H48551   5.585   6.144   6.080  2.4238 -1.2336 -0.8701
  368MOL0     H48552   5.759   6.016   5.931 -1.6130  1.3483 -0.7788
  368MOL0     H48553   5.657   5.870   5.952 -3.4029  0.2562 -0.3161
  368MOL0     H48554   5.799   6.031   6.187  1.7988 -1.5541  1.5183
  368MOL0     H48555   5.695   5.888   6.210 -4.4621  2.8841 -2.2721
  368MOL0     H48556   5.954   5.902   6.049  0.4036 -1.7732 -1.8789
  368MOL0     H48557   5.844   5.767   6.052 -1.2736  0.2033 -0.6992
  368MOL0     H48558   4.887   5.986   5.821 -1.0017 -0.0126 -2.7563
  368MOL0     H48559   4.633   6.028   5.824 -3.5568  0.9335  0.5377
  368MOL0     H48560   4.282   6.256   5.909 -1.8508  0.0500 -1.0354
  368MOL0     H48561   4.047   6.327   5.976 -0.1187 -0.2910 -0.7109
  368MOL0     H48562   2.807   5.955   5.485 -0.6618 -0.5381  1.1818
  368MOL0     H48563   2.623   5.808   5.543 -2.8193 -1.4648 -0.9740
  368MOL0     H48564   2.214   5.576   5.305  0.5541 -0.7407 -2.9850
  368MOL0     H48565   2.031   5.425   5.381 -0.6062 -1.0220 -0.3181
  368MOL0     H48566   1.879   5.195   5.415 -1.7776  1.0954  1.5520
  368MOL0     H48567   1.927   5.320   5.533  0.6941 -0.0152  1.3016
  368MOL0     H48568   1.920   5.151   5.699  0.0166  2.2411  0.0447
  368MOL0     H48569   1.760   5.162   5.610  1.3886  0.9922 -1.1765
  368MOL0     H48570   1.974   4.956   5.585  0.4515 -0.2872 -4.4317
  368MOL0     H48571   1.863   4.968   5.470 -1.2046 -2.0111  0.4963
  368MOL0     H48572   1.799   4.783   5.644 -2.7352 -0.9808 -0.3053
  368MOL0     H48573   1.801   4.908   5.769  1.2131  0.6125 -0.4376
  368MOL0     H48574   1.398   4.905   5.655  0.1351 -1.7708  0.3587
  368MOL0     H48575   2.310   5.122   5.458 -1.7584  0.1868  3.6245
  368MOL0     H48576   2.509   5.299   5.400 -0.0713  4.2369  0.3538
  369MOL0     O48577   1.605   7.066   4.174  0.1949  0.3626  0.3718
  369MOL0     C48578   1.596   7.019   4.059  0.1196  0.4943 -0.0915
  369MOL0     O48579   1.703   6.997   3.977  0.5534  0.1019  0.6180
  369MOL0     C48580   1.832   7.018   4.017 -0.4167  0.0672 -0.1508
  369MOL0     C48581   1.932   6.933   3.957  0.2019 -0.5938  0.0054
  369MOL0     C48582   2.060   6.951   3.972 -0.0909  0.1284 -0.7931
  369MOL0     C48583   2.105   7.063   4.035 -0.0824  0.8900  0.5356
  369MOL0     O48584   2.237   7.080   4.023  0.5085  0.0465  0.6338
  369MOL0     C48585   2.292   7.185   4.099 -0.8266 -0.6046  0.1558
  369MOL0     C48586   2.437   7.165   4.061 -1.5517  0.2396 -1.3871
  369MOL0     C48587   2.510   7.258   4.159 -0.7954  0.8917  0.0201
  369MOL0     C48588   2.636   7.317   4.099 -1.8362 -0.2686  0.7249
  369MOL0     C48589   2.675   7.465   4.130 -0.5369 -0.0335  0.0868
  369MOL0     C48590   2.611   7.560   4.032  0.7717 -1.2835  0.4804
  369MOL0     C48591   2.691   7.686   4.001 -1.0638 -0.7227  0.2339
  369MOL0     C48592   2.812   7.667   3.912  1.0870 -0.4341  0.2183
  369MOL0     N48593   2.874   7.793   3.853  0.2237 -0.0629  0.5155
  369MOL0     C48594   2.886   7.828   3.726 -0.3260  0.5698  0.8619
  369MOL0     C48595   2.984   7.920   3.719 -0.2312 -0.2817 -0.1706
  369MOL0     C48596   3.016   7.993   3.592 -0.3156 -0.3409 -0.3044
  369MOL0     C48597   3.033   8.144   3.619  0.0443  0.0469 -0.9268
  369MOL0     C48598   3.154   8.186   3.699 -1.3827 -0.2445  0.8234
  369MOL0     C48599   3.286   8.163   3.628  0.2689  0.4984  0.4269
  369MOL0     O48600   3.366   8.277   3.600  0.0618 -0.0713  0.7010
  369MOL0     C48601   3.458   8.262   3.500  0.0948  0.1058  0.8830
  369MOL0     C48602   3.471   8.369   3.416  0.5233  0.3893 -0.2600
  369MOL0     C48603   3.558   8.365   3.304 -0.2231  0.2348  0.1102
  369MOL0     C48604   3.645   8.252   3.293 -0.7214 -0.1190 -0.4152
  369MOL0     C48605   3.742   8.255   3.184  0.0008 -0.0805 -0.6045
  369MOL0     O48606   3.805   8.130   3.154 -0.4251  0.3014 -1.1017
  369MOL0     C48607   3.911   8.098   3.070  0.4845  0.5146  0.0250
  369MOL0     C48608   3.998   8.186   2.997  0.6232  1.5295  0.0719
  369MOL0     C48609   4.074   8.130   2.895 -0.2406 -0.1218 -0.0562
  369MOL0     C48610   4.096   7.996   2.869  0.5862  0.6357  0.2045
  369MOL0     O48611   4.166   7.940   2.769  0.3665  0.9061  0.5367
  369MOL0     C48612   4.222   8.026   2.661  0.7187  0.7804  0.0797
  369MOL0     C48613   4.130   8.052   2.534 -0.7136 -0.8187 -0.2539
  369MOL0     C48614   4.152   7.928   2.442  0.5951 -0.2024 -0.1406
  369MOL0     C48615   4.116   7.955   2.297 -0.5155 -0.2608  0.0367
  369MOL0     C48616   4.150   7.831   2.200  0.3308  0.0488  0.3736
  369MOL0     C48617   4.063   7.809   2.076  0.5794 -0.2438  0.8196
  369MOL0     C48618   4.067   7.927   1.983 -0.8569 -0.3561  0.0231
  369MOL0     C48619   3.993   7.879   1.848 -0.2070  0.2770 -0.1020
  369MOL0    Cl48620   4.078   7.760   1.744 -0.1489  0.2182  0.1227
  369MOL0     C48621   4.037   7.914   2.967  0.8078  0.3880 -0.0044
  369MOL0     C48622   3.945   7.963   3.062 -1.6334  0.3718  0.4093
  369MOL0     O48623   3.778   8.367   3.144  0.2732  0.8388 -0.5273
  369MOL0     C48624   3.634   8.140   3.383  0.3162  0.0037  0.0341
  369MOL0     C48625   3.543   8.145   3.486  0.0298 -0.6162  0.3596
  369MOL0     N48626   3.030   7.940   3.843 -0.6962  1.1013 -0.4973
  369MOL0     N48627   2.971   7.856   3.930 -0.0422 -0.9717  0.5412
  369MOL0     C48628   2.014   7.136   4.115  0.7313 -0.7849  1.1104
  369MOL0     C48629   1.879   7.116   4.102  0.0718 -0.2196  0.4608
  369MOL0     C48630   1.464   6.974   4.000  0.1578 -0.3430  0.8515
  369MOL0     C48631   1.460   6.902   3.879 -1.2305 -1.1420  0.5970
  369MOL0     C48632   1.338   6.882   3.815 -0.4530  0.6507 -0.1738
  369MOL0     C48633   1.217   6.930   3.858 -0.0072 -1.3966  0.0745
  369MOL0     O48634   1.098   6.906   3.799  0.7504  0.0271  0.6460
  369MOL0     C48635   0.991   6.878   3.898  0.5049  1.1851 -0.6356
  369MOL0     C48636   0.953   6.730   3.906 -0.0174 -0.1750 -0.4935
  369MOL0     C48637   0.930   6.658   3.774  0.2867 -0.2347  0.0833
  369MOL0     C48638   0.975   6.507   3.770  0.1543  0.2171 -0.3881
  369MOL0     C48639   0.941   6.439   3.893 -0.2659  0.6762  0.5816
  369MOL0     C48640   0.918   6.365   3.989  0.1401 -0.4791 -0.7233
  369MOL0     C48641   1.224   7.011   3.975  0.2105  0.6942  0.6104
  369MOL0     C48642   1.348   7.025   4.041 -0.3347 -0.4861  0.5664
  369MOL0     H48643   1.893   6.848   3.902 -0.0763  0.5114 -1.5639
  369MOL0     H48644   2.143   6.897   3.926  2.4171  0.5596  2.7975
  369MOL0     H48645   2.273   7.177   4.206 -3.6993 -1.0096 -0.3051
  369MOL0     H48646   2.242   7.273   4.057 -0.4155 -0.1711  0.5544
  369MOL0     H48647   2.452   7.205   3.960 -3.1678  4.5179 -0.1881
  369MOL0     H48648   2.470   7.061   4.065 -1.4667  0.2853  2.7526
  369MOL0     H48649   2.533   7.207   4.253 -0.5276  2.9632  1.1397
  369MOL0     H48650   2.445   7.343   4.182  1.1661  2.1814  1.0302
  369MOL0     H48651   2.713   7.251   4.140 -3.7055 -1.9273  1.7223
  369MOL0     H48652   2.644   7.321   3.990  0.0179  0.6988  0.8622
  369MOL0     H48653   2.783   7.463   4.110 -0.8077  3.4190 -2.8091
  369MOL0     H48654   2.660   7.498   4.233  0.3073 -1.6825  0.7791
  369MOL0     H48655   2.513   7.590   4.069 -0.1092 -2.5649 -0.6925
  369MOL0     H48656   2.598   7.517   3.932  1.7560 -0.1939 -0.1425
  369MOL0     H48657   2.636   7.766   3.951 -1.7253 -2.6677 -2.3918
  369MOL0     H48658   2.736   7.722   4.094  1.0542 -1.6110 -0.3816
  369MOL0     H48659   2.785   7.596   3.832  0.0674 -1.3656  1.3526
  369MOL0     H48660   2.885   7.611   3.971  0.0851 -0.8985  1.0431
  369MOL0     H48661   2.832   7.794   3.638  0.2454 -1.4236  1.2441
  369MOL0     H48662   2.941   7.960   3.519 -0.4942 -3.2935  1.0677
  369MOL0     H48663   3.112   7.968   3.547  0.7910  0.6012  1.4295
  369MOL0     H48664   2.944   8.174   3.675  1.0737 -0.0728  0.8642
  369MOL0     H48665   3.042   8.199   3.525  2.5340  1.5593  0.0774
  369MOL0     H48666   3.150   8.294   3.710 -5.7713  0.1180 -2.0599
  369MOL0     H48667   3.160   8.141   3.798 -0.7145 -2.6388 -0.2228
  369MOL0     H48668   3.278   8.100   3.539  1.1966  1.1138 -0.1036
  369MOL0     H48669   3.334   8.097   3.701 -2.4481  0.5427  2.4432
  369MOL0     H48670   3.403   8.452   3.431  1.9320  1.3479  1.1012
  369MOL0     H48671   3.565   8.442   3.228  0.1791  2.1311  1.9817
  369MOL0     H48672   3.983   8.293   3.008 -2.1811  1.0660  1.5535
  369MOL0     H48673   4.119   8.205   2.831  0.6896 -1.2880 -0.8113
  369MOL0     H48674   4.311   7.968   2.636 -0.7854 -0.8635 -1.8672
  369MOL0     H48675   4.249   8.126   2.694  2.4267  0.4577 -0.2888
  369MOL0     H48676   4.160   8.141   2.478 -3.0021 -0.9677 -1.8359
  369MOL0     H48677   4.026   8.062   2.566 -0.5794 -0.6032  0.1222
  369MOL0     H48678   4.099   7.842   2.484  2.2650 -1.8794 -1.2852
  369MOL0     H48679   4.259   7.902   2.442  0.5594 -0.3980  0.8529
  369MOL0     H48680   4.007   7.964   2.303 -0.8000 -3.7119  2.8875
  369MOL0     H48681   4.156   8.049   2.256 -5.2438  1.9887 -0.1411
  369MOL0     H48682   4.125   7.743   2.260 -1.8066  1.1278  1.1572
  369MOL0     H48683   4.249   7.827   2.154  0.2613  0.2421  0.2079
  369MOL0     H48684   3.958   7.798   2.106 -1.4545  1.6667 -4.4054
  369MOL0     H48685   4.094   7.715   2.030 -2.3304 -0.1558 -1.6281
  369MOL0     H48686   4.005   8.010   2.018  1.6182  2.1410 -1.1130
  369MOL0     H48687   4.162   7.970   1.949 -1.2347 -0.9886 -1.9638
  369MOL0     H48688   3.964   7.959   1.780  2.2979  0.4792 -1.0268
  369MOL0     H48689   3.904   7.828   1.889  0.7648 -0.0565  1.7216
  369MOL0     H48690   4.061   7.808   2.971  2.7211  0.8185  0.4699
  369MOL0     H48691   3.894   7.906   3.139  2.3643 -2.0390  1.5236
  369MOL0     H48692   3.694   8.050   3.372  1.2928  0.8053 -1.5688
  369MOL0     H48693   3.528   8.056   3.547 -1.1183 -0.8606 -0.2338
  369MOL0     H48694   2.053   7.212   4.182 -1.7588  0.1972  1.5385
  369MOL0     H48695   1.806   7.179   4.152 -1.8785 -1.3844 -0.7871
  369MOL0     H48696   1.554   6.869   3.837 -2.0371 -0.4544 -1.8948
  369MOL0     H48697   1.317   6.838   3.718  0.6522  5.0494 -2.7490
  369MOL0     H48698   0.906   6.930   3.854  0.4300  2.7726  1.2290
  369MOL0     H48699   1.006   6.902   4.004 -0.5542  0.6525 -0.3502
  369MOL0     H48700   1.033   6.685   3.966 -0.4409 -0.0448  0.1847
  369MOL0     H48701   0.863   6.723   3.969 -0.9505 -0.9202 -1.8442
  369MOL0     H48702   0.974   6.710   3.688 -2.4710  1.4330 -0.4593
  369MOL0     H48703   0.823   6.664   3.749 -0.0877  0.1090  1.6202
  369MOL0     H48704   0.925   6.463   3.684  1.2517  0.5527 -1.2184
  369MOL0     H48705   1.083   6.500   3.753  0.2716  0.4218  0.2341
  369MOL0     H48706   0.909   6.308   4.079  0.6843 -2.6316 -1.9568
  369MOL0     H48707   1.135   7.065   4.005 -1.7730 -1.3229 -1.2882
  369MOL0     H48708   1.350   7.109   4.109  3.0184  0.4497 -0.5095
  370MOL0     O48709  10.354   5.691   9.041  0.4063  0.2000  0.5076
  370MOL0     C48710  10.246   5.704   8.977  0.0689 -0.8909  0.0642
  370MOL0     O48711  10.161   5.609   8.954  0.0930  0.5504 -0.6170
  370MOL0     C48712  10.174   5.477   8.990  0.5502 -0.5075 -0.3720
  370MOL0     C48713  10.059   5.424   9.054  0.5904  0.2968  0.0439
  370MOL0     C48714  10.054   5.294   9.115  0.1324  0.4129  0.6585
  370MOL0     C48715  10.155   5.205   9.098  0.4281 -0.1025  0.1713
  370MOL0     O48716  10.136   5.084   9.149 -0.0473 -0.7990 -0.5389
  370MOL0     C48717  10.208   4.981   9.090 -0.2574  0.4766 -1.5766
  370MOL0     C48718  10.144   4.845   9.129  0.9380 -0.5806 -0.6684
  370MOL0     C48719  10.217   4.724   9.099 -0.3323  0.8482 -0.1818
  370MOL0     C48720  10.135   4.593   9.119 -0.2241  0.7681 -0.1438
  370MOL0     C48721  10.230   4.468   9.109  0.1961 -0.3537 -0.2078
  370MOL0     C48722  10.304   4.444   9.243  0.4424  0.4859  0.6151
  370MOL0     C48723  10.413   4.334   9.235  0.5904 -0.1836 -0.2872
  370MOL0     C48724  10.349   4.191   9.215 -0.5408  0.1903 -0.6022
  370MOL0     N48725  10.452   4.086   9.185  1.1991 -0.9517  0.1717
  370MOL0     C48726  10.580   4.079   9.225 -0.1932 -0.4208 -0.4881
  370MOL0     C48727  10.627   3.956   9.188  0.2717 -0.8145  0.0553
  370MOL0     C48728  10.767   3.911   9.217 -0.4872  0.1361 -1.0134
  370MOL0     C48729  10.864   3.973   9.103  0.3860  0.3773 -0.4615
  370MOL0     C48730  10.899   4.110   9.143 -1.2689 -0.0825 -0.4643
  370MOL0     C48731  10.943   4.192   9.026  0.3977  0.0613  0.5439
  370MOL0     O48732  10.829   4.247   8.942 -0.1074  0.4338  0.4913
  370MOL0     C48733  10.824   4.194   8.817 -0.4725  0.1471  0.4290
  370MOL0     C48734  10.929   4.205   8.723  0.0142  0.1821  0.4527
  370MOL0     C48735  10.929   4.142   8.599 -0.4222 -0.5278 -0.0854
  370MOL0     C48736  10.816   4.066   8.551  0.2559 -0.6456 -0.9578
  370MOL0     C48737  10.804   4.013   8.415  0.1573  0.0475  0.7070
  370MOL0     O48738  10.888   4.071   8.322  0.3178  0.1477 -0.1200
  370MOL0     C48739  10.903   4.024   8.197 -0.1737 -0.4782 -0.3948
  370MOL0     C48740  10.877   3.900   8.140  0.1693  0.6937  0.2540
  370MOL0     C48741  10.889   3.874   8.000  1.0287  0.4260 -1.2347
  370MOL0     C48742  10.933   3.981   7.919 -0.2330 -0.9196  0.4797
  370MOL0     O48743  10.973   3.976   7.784 -0.5201  0.5232 -0.9495
  370MOL0     C48744  10.978   3.845   7.733 -0.1926 -0.4679 -1.0329
  370MOL0     C48745  11.042   3.850   7.593  0.5235 -0.7053 -0.4720
  370MOL0     C48746  11.174   3.934   7.594 -0.2127  1.2461  0.2217
  370MOL0     C48747  11.236   3.937   7.457  0.1941  1.2838 -0.1747
  370MOL0     C48748  11.337   4.056   7.439 -1.0386 -0.0790 -0.0441
  370MOL0     C48749  11.463   4.041   7.521 -0.7301 -1.2469  0.2860
  370MOL0     C48750  11.517   4.166   7.569  1.7339 -0.6745 -1.1953
  370MOL0     C48751  11.651   4.156   7.630 -0.1927  0.0095 -0.3134
  370MOL0    Cl48752  11.642   4.055   7.779  0.1421  0.4204  1.1019
  370MOL0     C48753  10.951   4.109   7.972  0.5372  0.7320 -0.4724
  370MOL0     C48754  10.942   4.128   8.110 -0.3948 -0.2055  0.0025
  370MOL0     O48755  10.732   3.913   8.391 -0.7863 -0.0575  0.2335
  370MOL0     C48756  10.718   4.042   8.653  0.3928 -0.8652  1.1838
  370MOL0     C48757  10.718   4.112   8.780  0.1207  0.0842 -0.2076
  370MOL0     N48758  10.521   3.884   9.146 -0.2743 -0.2773  0.6752
  370MOL0     N48759  10.421   3.972   9.122  0.3835  0.2809 -1.3382
  370MOL0     C48760  10.279   5.255   9.046  0.6299  0.5560  1.0569
  370MOL0     C48761  10.289   5.392   8.996  0.4570 -0.7379  0.8482
  370MOL0     C48762  10.218   5.842   8.923 -0.4162  0.7023 -0.4655
  370MOL0     C48763  10.101   5.865   8.849 -0.4934 -0.7949  0.1118
  370MOL0     C48764  10.060   5.994   8.799  0.0856 -0.0931 -1.2812
  370MOL0     C48765  10.146   6.097   8.819 -1.0926 -1.1190 -1.2229
  370MOL0     O48766  10.125   6.218   8.765 -0.4777 -0.5066  0.1966
  370MOL0     C48767  10.011   6.260   8.683  0.1472 -0.2203 -0.1898
  370MOL0     C48768  10.031   6.237   8.531  0.7137 -0.9348 -0.6893
  370MOL0     C48769   9.926   6.319   8.451 -0.5925 -0.1909  0.1217
  370MOL0     C48770   9.977   6.451   8.419  0.1887 -0.3155 -1.1821
  370MOL0     C48771   9.864   6.547   8.401  1.0330  0.5246  0.4129
  370MOL0     C48772   9.755   6.607   8.382 -0.6656 -0.3462 -1.0432
  370MOL0     C48773  10.270   6.067   8.878 -0.2967  0.2802 -0.0662
  370MOL0     C48774  10.310   5.945   8.925  0.1699  0.0785 -1.0248
  370MOL0     H48775   9.958   5.461   9.048  0.3964 -0.1541  0.4826
  370MOL0     H48776   9.965   5.264   9.170 -0.2451  0.0115 -0.1551
  370MOL0     H48777  10.310   4.977   9.127 -0.2570 -1.7038 -1.6785
  370MOL0     H48778  10.204   4.993   8.981 -3.0354  1.2028 -1.4898
  370MOL0     H48779  10.048   4.844   9.077  0.8163 -3.1893 -0.5072
  370MOL0     H48780  10.129   4.856   9.236  2.5053 -0.5384 -0.4306
  370MOL0     H48781  10.309   4.713   9.156  1.8297 -2.6028 -3.8397
  370MOL0     H48782  10.250   4.718   8.994  0.7685  3.6577 -0.0725
  370MOL0     H48783  10.101   4.601   9.223  0.4085  1.5254  0.0186
  370MOL0     H48784  10.048   4.555   9.064  0.2991 -1.5512  0.5212
  370MOL0     H48785  10.298   4.476   9.024 -2.5612  2.0802 -2.4054
  370MOL0     H48786  10.175   4.376   9.090 -1.9444 -0.0747  3.6084
  370MOL0     H48787  10.231   4.416   9.319 -2.6628 -1.5434 -2.8101
  370MOL0     H48788  10.357   4.536   9.270  1.8075 -0.0834 -0.0281
  370MOL0     H48789  10.465   4.363   9.143  1.7521  0.3292  0.5060
  370MOL0     H48790  10.483   4.341   9.319  3.3145 -3.3357 -2.0601
  370MOL0     H48791  10.294   4.211   9.123 -0.9470  1.2943 -0.1393
  370MOL0     H48792  10.279   4.165   9.295 -0.3334 -0.8537 -0.7430
  370MOL0     H48793  10.629   4.162   9.276 -1.1630 -0.4036  0.4443
  370MOL0     H48794  10.779   3.803   9.205 -0.6528  0.0109 -0.0777
  370MOL0     H48795  10.793   3.941   9.319 -0.2105 -1.4535 -0.5965
  370MOL0     H48796  10.817   3.977   9.004  1.0427 -0.9603 -0.8449
  370MOL0     H48797  10.950   3.906   9.110 -1.9706 -2.6867  2.4716
  370MOL0     H48798  10.819   4.162   9.197 -0.8532 -3.1335  3.5863
  370MOL0     H48799  10.986   4.109   9.210  0.1059 -3.7021 -2.0687
  370MOL0     H48800  11.010   4.130   8.965 -0.7013 -0.3365 -0.2981
  370MOL0     H48801  10.999   4.281   9.056  2.2949 -0.4288 -1.2795
  370MOL0     H48802  11.020   4.254   8.755 -0.8014  2.8167 -0.9532
  370MOL0     H48803  11.007   4.161   8.525 -1.0253  1.2245 -0.3237
  370MOL0     H48804  10.844   3.812   8.194  0.1818 -0.2407 -1.2026
  370MOL0     H48805  10.869   3.773   7.967 -1.8575  1.1960 -2.0810
  370MOL0     H48806  10.874   3.812   7.741 -0.7957  1.6827  1.0332
  370MOL0     H48807  11.044   3.785   7.798  3.1230  2.5950 -1.2691
  370MOL0     H48808  10.970   3.892   7.523  1.9663  0.0292 -1.5778
  370MOL0     H48809  11.073   3.751   7.557  1.1759 -0.0670 -1.7316
  370MOL0     H48810  11.245   3.898   7.669 -1.2564  0.7727  0.9929
  370MOL0     H48811  11.139   4.033   7.622  2.1694  2.0891  0.4828
  370MOL0     H48812  11.286   3.847   7.421  2.2565  2.4335 -0.3286
  370MOL0     H48813  11.163   3.963   7.379  0.9598  0.8442 -1.0646
  370MOL0     H48814  11.286   4.150   7.465 -1.5180 -0.5610  0.8025
  370MOL0     H48815  11.369   4.078   7.337  4.1886 -3.3349  0.5328
  370MOL0     H48816  11.525   4.004   7.439  0.3372  2.9364 -1.0226
  370MOL0     H48817  11.452   3.959   7.593  1.5605 -0.9937  0.9794
  370MOL0     H48818  11.530   4.230   7.481  2.4333  0.4574 -0.3060
  370MOL0     H48819  11.443   4.210   7.636  0.5314 -1.2013 -2.1300
  370MOL0     H48820  11.693   4.252   7.660  0.5323 -0.0654 -1.0688
  370MOL0     H48821  11.721   4.119   7.555 -1.9171 -1.7428 -1.1420
  370MOL0     H48822  10.984   4.186   7.904  1.0658 -0.6394 -1.8232
  370MOL0     H48823  10.963   4.226   8.152  0.5228  0.2177 -1.3482
  370MOL0     H48824  10.631   3.982   8.627 -1.2591  2.0043 -0.5634
  370MOL0     H48825  10.640   4.087   8.852 -1.4243  2.9101 -0.7817
  370MOL0     H48826  10.364   5.191   9.066  0.5479 -0.3991 -1.4077
  370MOL0     H48827  10.384   5.431   8.960 -0.0527 -1.5927 -1.6269
  370MOL0     H48828  10.034   5.781   8.834  1.5919 -3.0085  2.2111
  370MOL0     H48829   9.965   6.015   8.752 -0.5496 -0.3958 -0.1592
  370MOL0     H48830   9.996   6.364   8.714  0.6608  0.5431 -2.3103
  370MOL0     H48831   9.921   6.210   8.719 -0.0971 -0.9099 -1.7107
  370MOL0     H48832  10.131   6.272   8.503  0.6748 -1.0138 -0.9289
  370MOL0     H48833  10.036   6.138   8.485  4.9481 -1.1806 -0.0877
  370MOL0     H48834   9.842   6.324   8.521 -0.6812  1.6321 -0.0595
  370MOL0     H48835   9.896   6.265   8.361 -3.8536 -1.3047  1.7445
  370MOL0     H48836  10.031   6.483   8.509  0.0009  1.3092 -1.6150
  370MOL0     H48837  10.043   6.439   8.333  0.2370  0.5840 -1.2786
  370MOL0     H48838   9.665   6.663   8.365 -0.1929  0.8907  0.2737
  370MOL0     H48839  10.338   6.151   8.877  1.6115 -1.1554 -2.6346
  370MOL0     H48840  10.402   5.944   8.982 -1.1762  2.7473  1.4254
  371MOL0     O48841   7.812   0.154   9.692 -0.4631  0.2284  0.1543
  371MOL0     C48842   7.895   0.110   9.771  0.4658  1.0577 -0.0380
  371MOL0     O48843   7.974   0.176   9.865 -0.2198  0.0752  0.7716
  371MOL0     C48844   7.936   0.301   9.899  0.8551 -0.0819  0.9528
  371MOL0     C48845   8.017   0.406   9.853  0.2660  1.0501 -0.3676
  371MOL0     C48846   7.989   0.537   9.890 -0.5242  0.2869  0.0371
  371MOL0     C48847   7.872   0.567   9.958  0.2570  0.1334 -0.5012
  371MOL0     O48848   7.834   0.700   9.969 -0.3044  0.1408 -0.0092
  371MOL0     C48849   7.706   0.748  10.021 -0.5470 -0.7540 -1.0399
  371MOL0     C48850   7.688   0.896   9.976  0.0841 -0.2299  0.2409
  371MOL0     C48851   7.819   0.966  10.002  0.4076 -1.7288  0.7777
  371MOL0     C48852   7.831   1.008  10.144 -0.1647  0.7949  0.1684
  371MOL0     C48853   7.982   1.043  10.164 -0.3768 -0.6122 -0.0551
  371MOL0     C48854   8.053   0.911  10.190 -0.6148 -0.6126 -0.3803
  371MOL0     C48855   8.154   0.874  10.079 -0.2708 -1.0441  0.0753
  371MOL0     C48856   8.247   0.759  10.118  0.1788  0.4006 -0.2055
  371MOL0     N48857   8.369   0.745  10.040  0.8128  1.0402 -0.3275
  371MOL0     C48858   8.363   0.713   9.904 -0.9086  0.0007  0.0424
  371MOL0     C48859   8.476   0.769   9.849 -0.1452 -0.0083  0.4171
  371MOL0     C48860   8.518   0.783   9.702  0.1083  0.0062  0.9270
  371MOL0     C48861   8.591   0.664   9.644  0.5048  0.5381 -0.1559
  371MOL0     C48862   8.730   0.663   9.703 -0.1472  0.1890  0.5261
  371MOL0     C48863   8.808   0.540   9.663  0.3525 -0.0020 -0.4391
  371MOL0     O48864   8.732   0.432   9.720 -0.1267 -0.2956  0.4551
  371MOL0     C48865   8.755   0.320   9.659 -0.7079  0.4056 -0.2937
  371MOL0     C48866   8.708   0.279   9.533 -0.6158  0.1951  0.3838
  371MOL0     C48867   8.725   0.143   9.483 -0.8088  0.1849  0.2693
  371MOL0     C48868   8.796   0.051   9.565  0.1291 -0.2651  0.5691
  371MOL0     C48869   8.822  -0.089   9.514 -1.4481 -0.1146 -0.5501
  371MOL0     O48870   8.772  -0.123   9.385 -0.2791  0.3950 -0.0991
  371MOL0     C48871   8.763  -0.256   9.352 -0.5745  0.3121  0.2258
  371MOL0     C48872   8.865  -0.350   9.374  0.2978  0.2210 -0.3499
  371MOL0     C48873   8.847  -0.479   9.323 -0.4544  0.1832 -1.3387
  371MOL0     C48874   8.722  -0.529   9.297  0.1427 -0.0837 -0.5149
  371MOL0     O48875   8.710  -0.666   9.276  0.5935  0.8469 -0.0136
  371MOL0     C48876   8.571  -0.714   9.252  0.6661  0.4530 -0.1916
  371MOL0     C48877   8.571  -0.862   9.207 -1.2845  0.2332  0.4651
  371MOL0     C48878   8.433  -0.918   9.211  0.8556  0.0856 -0.0777
  371MOL0     C48879   8.424  -1.069   9.153 -0.9372  0.2764 -0.0890
  371MOL0     C48880   8.280  -1.121   9.149 -1.0596 -1.2234  0.3399
  371MOL0     C48881   8.279  -1.278   9.136  0.8143 -1.2152  0.1874
  371MOL0     C48882   8.139  -1.327   9.101 -0.2671 -0.7360 -0.0833
  371MOL0     C48883   8.127  -1.479   9.104  1.2004  0.5764 -0.2852
  371MOL0    Cl48884   7.974  -1.541   9.057  0.3700  0.0981 -0.4599
  371MOL0     C48885   8.621  -0.436   9.282 -0.9588 -0.4804  0.2087
  371MOL0     C48886   8.645  -0.296   9.295 -0.2301 -0.1465  0.3220
  371MOL0     O48887   8.861  -0.168   9.603 -1.1749  0.1645 -0.1459
  371MOL0     C48888   8.830   0.092   9.694  0.4618  0.2916  0.2089
  371MOL0     C48889   8.818   0.224   9.742  0.1581  0.0816 -0.4976
  371MOL0     N48890   8.543   0.830   9.948  0.6059 -0.2147 -0.0515
  371MOL0     N48891   8.481   0.816  10.058 -0.1331  1.3496 -0.2534
  371MOL0     C48892   7.781   0.465   9.997  0.0309 -1.3844  1.0534
  371MOL0     C48893   7.816   0.331   9.973  0.2089 -0.5286  0.3209
  371MOL0     C48894   7.931  -0.028   9.748  0.1129  0.0432 -0.1171
  371MOL0     C48895   8.060  -0.089   9.790  0.0357 -0.0074 -0.1733
  371MOL0     C48896   8.075  -0.226   9.787 -0.1136  0.1691  0.5602
  371MOL0     C48897   7.976  -0.310   9.739 -0.3923 -0.7605  0.2924
  371MOL0     O48898   7.979  -0.444   9.730 -0.2600 -0.9250  0.4468
  371MOL0     C48899   8.095  -0.526   9.724  0.3622 -0.6440 -0.1878
  371MOL0     C48900   8.125  -0.563   9.580 -0.7517  0.9435  0.7699
  371MOL0     C48901   8.198  -0.454   9.500 -0.7172 -0.8058 -0.2904
  371MOL0     C48902   8.303  -0.514   9.409  1.0119 -0.1711  0.2930
  371MOL0     C48903   8.239  -0.596   9.315 -0.4842 -0.3548  1.1334
  371MOL0     C48904   8.199  -0.676   9.224 -0.2761 -0.9342  0.5559
  371MOL0     C48905   7.870  -0.251   9.676  0.5027  0.1332  1.0888
  371MOL0     C48906   7.844  -0.111   9.683 -0.0449  0.2612 -0.3467
  371MOL0     H48907   8.115   0.389   9.811  1.5836  1.9558  2.1340
  371MOL0     H48908   8.051   0.623   9.865 -1.4301  1.7669  2.4771
  371MOL0     H48909   7.714   0.741  10.130  1.0898  0.7614 -1.0124
  371MOL0     H48910   7.617   0.695   9.987  0.8330 -2.8305 -1.6380
  371MOL0     H48911   7.600   0.941  10.024  1.9917 -0.3933  4.2714
  371MOL0     H48912   7.669   0.889   9.868 -2.3399  2.4482  0.3763
  371MOL0     H48913   7.813   1.057   9.941  0.4458 -2.5927 -0.5551
  371MOL0     H48914   7.913   0.919   9.972 -0.2859 -1.7596 -1.5462
  371MOL0     H48915   7.781   1.105  10.144  0.3480  1.0657 -0.1669
  371MOL0     H48916   7.779   0.949  10.220 -0.2056 -0.0104 -0.4651
  371MOL0     H48917   7.987   1.108  10.251  2.5307  0.1321 -0.6630
  371MOL0     H48918   8.023   1.095  10.076 -0.6464 -2.1423 -1.1226
  371MOL0     H48919   7.994   0.819  10.205  0.6945 -1.3400  0.4851
  371MOL0     H48920   8.105   0.919  10.286  0.9876 -0.8918 -1.2105
  371MOL0     H48921   8.104   0.848   9.985 -0.4173 -2.6559  0.5554
  371MOL0     H48922   8.211   0.966  10.067 -0.9409  0.2131  4.4948
  371MOL0     H48923   8.189   0.666  10.110  0.2348  0.2107  1.3016
  371MOL0     H48924   8.277   0.770  10.223 -0.8098  0.7750  0.0557
  371MOL0     H48925   8.282   0.681   9.840 -0.9878  2.5088 -1.2425
  371MOL0     H48926   8.584   0.871   9.697  0.4541 -0.1910  1.8220
  371MOL0     H48927   8.432   0.805   9.639 -0.0434  0.4133  1.2637
  371MOL0     H48928   8.604   0.676   9.537  4.1929  0.1729  0.1370
  371MOL0     H48929   8.525   0.577   9.658 -0.7506  0.8155 -3.5832
  371MOL0     H48930   8.800   0.743   9.675  1.4042 -1.1323  0.5107
  371MOL0     H48931   8.731   0.663   9.812  2.5060  0.8455  0.5763
  371MOL0     H48932   8.911   0.548   9.698 -0.0107 -0.2022  0.7085
  371MOL0     H48933   8.834   0.526   9.558  1.5939 -0.5313 -0.0755
  371MOL0     H48934   8.662   0.359   9.477 -0.9462  0.7935  1.4807
  371MOL0     H48935   8.681   0.117   9.387 -1.3376  2.3755 -0.1317
  371MOL0     H48936   8.953  -0.315   9.427  1.0726 -2.2796  0.1897
  371MOL0     H48937   8.923  -0.556   9.334 -1.6620 -1.0013 -1.0724
  371MOL0     H48938   8.527  -0.655   9.170 -0.2233  1.4002  0.9334
  371MOL0     H48939   8.516  -0.712   9.346  1.1083  0.0868  0.0745
  371MOL0     H48940   8.627  -0.920   9.281 -1.5192  0.3685  0.7472
  371MOL0     H48941   8.630  -0.884   9.117 -1.2795 -0.5682  0.6533
  371MOL0     H48942   8.370  -0.866   9.139  0.0383  0.0700  0.6167
  371MOL0     H48943   8.398  -0.910   9.314  4.0741  1.3025  1.0536
  371MOL0     H48944   8.466  -1.084   9.053 -0.1813  0.1150  0.2440
  371MOL0     H48945   8.480  -1.135   9.219  0.0171  2.5627  1.5047
  371MOL0     H48946   8.236  -1.076   9.059  2.4229  0.0361 -0.8895
  371MOL0     H48947   8.231  -1.090   9.242 -0.1023 -0.0381  0.4722
  371MOL0     H48948   8.307  -1.312   9.236  0.3802  3.2124  2.0410
  371MOL0     H48949   8.348  -1.323   9.065 -0.7433 -0.2320 -2.0656
  371MOL0     H48950   8.069  -1.281   9.172  1.0884  1.5333 -0.1068
  371MOL0     H48951   8.112  -1.281   9.005  1.2234  4.0582  1.5031
  371MOL0     H48952   8.133  -1.519   9.205 -4.2408  1.5967  0.7289
  371MOL0     H48953   8.211  -1.523   9.048  2.1888 -0.8000  2.1327
  371MOL0     H48954   8.517  -0.451   9.253 -0.1029 -1.0191 -3.0450
  371MOL0     H48955   8.569  -0.219   9.289  1.3657  1.5072  0.4399
  371MOL0     H48956   8.892   0.028   9.757  1.4050 -0.4116 -1.3655
  371MOL0     H48957   8.855   0.237   9.844 -6.7098 -0.2212  2.5716
  371MOL0     H48958   7.692   0.477  10.057 -0.6771  1.1166 -0.3526
  371MOL0     H48959   7.747   0.257  10.012 -3.2772  1.8413 -0.8390
  371MOL0     H48960   8.141  -0.024   9.823  0.0949 -0.0794 -0.1774
  371MOL0     H48961   8.167  -0.269   9.826 -0.1237  0.2747  0.7020
  371MOL0     H48962   8.071  -0.619   9.776 -1.9925 -2.5498 -4.3047
  371MOL0     H48963   8.185  -0.481   9.770 -1.0642 -0.1585  2.3345
  371MOL0     H48964   8.178  -0.659   9.581 -2.5649 -0.1377  3.0114
  371MOL0     H48965   8.029  -0.586   9.533 -1.2494  0.6307  1.8893
  371MOL0     H48966   8.225  -0.369   9.563 -3.0004  0.3838 -0.8068
  371MOL0     H48967   8.119  -0.412   9.436  1.0506  2.1722 -0.7110
  371MOL0     H48968   8.340  -0.427   9.352 -1.3674  0.6403 -0.1103
  371MOL0     H48969   8.386  -0.562   9.463 -1.7428 -3.7437  1.7170
  371MOL0     H48970   8.179  -0.734   9.136 -2.0237 -0.8403  0.8519
  371MOL0     H48971   7.805  -0.321   9.625  0.0617 -0.1877  2.0712
  371MOL0     H48972   7.750  -0.072   9.646 -0.5601  0.2681  0.9391
  372MOL0     O48973   2.264   9.674   7.885  0.6223  0.5962 -0.4204
  372MOL0     C48974   2.290   9.568   7.829 -0.5330  0.1580 -0.3054
  372MOL0     O48975   2.221   9.446   7.833  0.2100 -0.7074 -0.1984
  372MOL0     C48976   2.115   9.448   7.908  0.1543 -1.1308 -1.0804
  372MOL0     C48977   2.122   9.467   8.054 -0.0630  0.5482  0.8530
  372MOL0     C48978   2.005   9.486   8.118  0.7173 -0.8726 -0.4998
  372MOL0     C48979   1.879   9.480   8.060 -0.0939  0.5157 -0.1186
  372MOL0     O48980   1.775   9.496   8.145 -0.2755 -0.2582 -0.9958
  372MOL0     C48981   1.639   9.481   8.104 -0.2641  0.2319 -0.1425
  372MOL0     C48982   1.538   9.526   8.207  0.5533 -0.4392 -0.7980
  372MOL0     C48983   1.539   9.417   8.322  0.4083 -0.5414 -0.0338
  372MOL0     C48984   1.404   9.341   8.309 -1.5979  0.7495  0.7459
  372MOL0     C48985   1.391   9.212   8.400 -0.1718  0.2876 -0.1534
  372MOL0     C48986   1.256   9.141   8.403  0.0841 -0.0369  0.1924
  372MOL0     C48987   1.212   9.073   8.266 -1.2475 -0.5002 -0.6660
  372MOL0     C48988   1.307   8.962   8.236 -0.3697 -0.4934 -0.1061
  372MOL0     N48989   1.347   8.950   8.095 -0.2081 -0.6776 -0.9647
  372MOL0     C48990   1.310   8.847   8.007 -0.1603 -0.2904 -1.2539
  372MOL0     C48991   1.383   8.848   7.897  0.1132 -0.4596  0.2342
  372MOL0     C48992   1.361   8.766   7.773  0.5640  0.1901  0.4403
  372MOL0     C48993   1.258   8.829   7.674  0.9815 -0.2323  0.0414
  372MOL0     C48994   1.274   8.772   7.530 -0.0853 -0.6131 -0.0495
  372MOL0     C48995   1.235   8.628   7.516  0.1324 -0.0099 -0.0670
  372MOL0     O48996   1.095   8.624   7.512 -0.7860 -0.1025 -0.2254
  372MOL0     C48997   1.043   8.505   7.550  0.6741  0.3584 -0.3617
  372MOL0     C48998   0.981   8.505   7.680  0.7167 -0.0778  0.2771
  372MOL0     C48999   0.944   8.385   7.741 -0.8817  0.7398  0.7692
  372MOL0     C49000   0.962   8.257   7.672 -0.7007 -0.4234  0.2257
  372MOL0     C49001   0.936   8.127   7.732  0.5754 -0.9537 -0.1449
  372MOL0     O49002   0.945   8.011   7.656  0.9399 -0.1360 -0.1633
  372MOL0     C49003   0.938   7.896   7.728 -0.7060  0.1020 -0.8915
  372MOL0     C49004   0.843   7.863   7.823  0.4956  0.4165  0.7303
  372MOL0     C49005   0.841   7.739   7.888 -0.4416  0.5664  0.1457
  372MOL0     C49006   0.933   7.639   7.853 -0.3514 -0.3224 -0.1883
  372MOL0     O49007   0.924   7.513   7.893  0.7386 -0.0605  0.1932
  372MOL0     C49008   0.860   7.427   7.801  0.6718  0.2519  0.6617
  372MOL0     C49009   0.849   7.297   7.876 -0.0873  0.2173 -0.1973
  372MOL0     C49010   0.759   7.198   7.812 -0.6056 -0.8635  0.6119
  372MOL0     C49011   0.764   7.062   7.885  0.4670  0.8981  0.3173
  372MOL0     C49012   0.626   6.984   7.867  0.0164 -0.4428 -0.1055
  372MOL0     C49013   0.631   6.840   7.931  0.5024  0.2030  0.5590
  372MOL0     C49014   0.498   6.760   7.914  0.4532  0.5106  0.2890
  372MOL0     C49015   0.520   6.603   7.920  0.6283 -0.4334  0.1209
  372MOL0    Cl49016   0.383   6.507   7.867  0.0237 -0.1838  0.0149
  372MOL0     C49017   1.030   7.672   7.749  0.4344 -0.1616  0.1926
  372MOL0     C49018   1.035   7.799   7.690  0.1949  0.1019  0.5939
  372MOL0     O49019   0.939   8.127   7.856 -0.3359  0.3589  1.0629
  372MOL0     C49020   1.029   8.258   7.546  0.4358 -1.5798 -1.9199
  372MOL0     C49021   1.072   8.383   7.491 -0.0253  0.5329  0.7321
  372MOL0     N49022   1.456   8.960   7.909  0.2106  0.1067 -0.0406
  372MOL0     N49023   1.446   9.013   8.030 -0.1309  1.0483 -0.1696
  372MOL0     C49024   1.870   9.469   7.921 -0.4734  0.2726  0.6533
  372MOL0     C49025   1.990   9.454   7.845 -0.4977  0.4258 -0.9635
  372MOL0     C49026   2.420   9.576   7.746 -0.2098 -0.3399  0.5923
  372MOL0     C49027   2.436   9.494   7.635  0.1584 -0.0543 -0.5994
  372MOL0     C49028   2.562   9.493   7.566  0.2038 -0.4651 -0.9344
  372MOL0     C49029   2.672   9.578   7.599 -0.6388 -0.2978 -0.6344
  372MOL0     O49030   2.802   9.560   7.549 -0.1855 -0.3072 -0.1490
  372MOL0     C49031   2.800   9.552   7.404 -0.5041  0.1096  0.3078
  372MOL0     C49032   2.729   9.663   7.327 -0.1855 -0.0804  1.3222
  372MOL0     C49033   2.813   9.791   7.354 -1.0755 -0.0292  0.7049
  372MOL0     C49034   2.966   9.795   7.303  0.1563  0.1264  0.2208
  372MOL0     C49035   2.980   9.745   7.166  0.6257  0.0737  0.2879
  372MOL0     C49036   2.993   9.698   7.051  0.6996 -0.8683 -1.1543
  372MOL0     C49037   2.650   9.662   7.712 -0.1530 -0.2482 -0.3753
  372MOL0     C49038   2.526   9.669   7.787  0.2547 -0.1622  0.4427
  372MOL0     H49039   2.216   9.477   8.108  0.4184  0.3667  0.0752
  372MOL0     H49040   2.019   9.509   8.223 -1.7108 -1.1361 -0.0615
  372MOL0     H49041   1.620   9.375   8.084 -2.9527  0.2887  1.4886
  372MOL0     H49042   1.620   9.538   8.013 -0.8118  0.7181  0.2636
  372MOL0     H49043   1.438   9.541   8.165  0.0194  0.6941  0.8076
  372MOL0     H49044   1.576   9.620   8.249 -1.0365  0.1858 -0.6965
  372MOL0     H49045   1.549   9.464   8.421  1.9808  0.0770 -0.4571
  372MOL0     H49046   1.617   9.342   8.306  0.3277 -1.5675  3.4365
  372MOL0     H49047   1.330   9.421   8.313  2.3567  4.9164 -0.8278
  372MOL0     H49048   1.396   9.309   8.204  0.1873 -0.2901  0.8933
  372MOL0     H49049   1.439   9.245   8.493  2.6256  3.1360 -2.3799
  372MOL0     H49050   1.476   9.152   8.366  0.1236 -0.1640  1.3032
  372MOL0     H49051   1.174   9.211   8.422 -0.8173 -1.1213  0.3979
  372MOL0     H49052   1.259   9.062   8.479 -3.1248 -0.7037 -0.2439
  372MOL0     H49053   1.108   9.040   8.268 -1.0249 -1.1914 -0.2000
  372MOL0     H49054   1.217   9.146   8.185  1.1275  1.5831  1.1852
  372MOL0     H49055   1.256   8.870   8.269 -0.8683 -0.2299 -0.1313
  372MOL0     H49056   1.390   8.962   8.308 -1.6944  0.3783  1.4879
  372MOL0     H49057   1.228   8.779   8.027 -1.8441  2.1708  0.8904
  372MOL0     H49058   1.323   8.668   7.803 -0.3884 -0.2340 -1.9372
  372MOL0     H49059   1.462   8.750   7.733  0.6342  1.7605 -0.0820
  372MOL0     H49060   1.271   8.937   7.664  1.8797 -0.5739 -4.0843
  372MOL0     H49061   1.153   8.816   7.702  0.4588  0.1788 -1.6113
  372MOL0     H49062   1.211   8.822   7.456  0.3794  2.2079  1.3214
  372MOL0     H49063   1.377   8.781   7.494  1.1716  0.1113  3.3421
  372MOL0     H49064   1.270   8.558   7.592 -1.7821  0.8596  1.7257
  372MOL0     H49065   1.281   8.592   7.423  3.5021  1.9902  0.6595
  372MOL0     H49066   0.954   8.588   7.744  1.6183 -2.5402  4.1909
  372MOL0     H49067   0.900   8.372   7.840  3.2512  1.1231  2.8920
  372MOL0     H49068   0.772   7.941   7.850 -1.2266 -0.3797 -1.2033
  372MOL0     H49069   0.773   7.714   7.969 -0.0178 -0.3176  0.2456
  372MOL0     H49070   0.931   7.406   7.721  0.2353  2.1280 -0.2784
  372MOL0     H49071   0.772   7.479   7.760  2.5602  2.4502 -0.8207
  372MOL0     H49072   0.795   7.318   7.968 -1.9135  1.3534 -1.4649
  372MOL0     H49073   0.949   7.257   7.895 -0.3534  0.4993  1.9431
  372MOL0     H49074   0.808   7.181   7.715  0.5008  0.2182  0.9426
  372MOL0     H49075   0.656   7.231   7.801 -0.9561 -2.3900 -1.1295
  372MOL0     H49076   0.844   7.004   7.837  0.8720 -0.1920  2.1959
  372MOL0     H49077   0.782   7.072   7.992  1.5700  0.7033  0.1655
  372MOL0     H49078   0.604   6.989   7.760  1.1316 -0.9831 -0.3712
  372MOL0     H49079   0.547   7.037   7.921 -1.6943 -2.0970 -0.8928
  372MOL0     H49080   0.648   6.840   8.040 -1.6925  2.3809  0.9715
  372MOL0     H49081   0.708   6.787   7.874  1.7279  0.8755  1.5315
  372MOL0     H49082   0.432   6.795   7.993 -1.8713  1.4733 -1.9493
  372MOL0     H49083   0.455   6.761   7.814 -0.3708 -0.6254  0.6081
  372MOL0     H49084   0.560   6.569   8.016  2.9024 -2.3936 -1.3997
  372MOL0     H49085   0.600   6.592   7.847 -0.9066 -0.3635 -1.6626
  372MOL0     H49086   1.105   7.604   7.711 -0.6930 -1.4863  0.2492
  372MOL0     H49087   1.098   7.821   7.605 -2.1979 -2.3280 -2.0062
  372MOL0     H49088   1.058   8.164   7.501 -0.4922 -1.8407 -1.9888
  372MOL0     H49089   1.148   8.397   7.415  1.1809  0.3877  1.8744
  372MOL0     H49090   1.775   9.479   7.868 -2.0900  0.0645  3.3329
  372MOL0     H49091   1.983   9.450   7.737 -1.4249  2.0438 -1.0020
  372MOL0     H49092   2.364   9.414   7.624 -0.6887  0.7415 -0.8797
  372MOL0     H49093   2.582   9.410   7.500  3.0242 -1.7690  1.3110
  372MOL0     H49094   2.747   9.459   7.381 -2.9310  1.1893  1.2135
  372MOL0     H49095   2.905   9.544   7.372 -0.7403 -0.8493 -0.2727
  372MOL0     H49096   2.725   9.641   7.220  0.5840  0.5282  1.1584
  372MOL0     H49097   2.624   9.683   7.355 -0.3473  2.5068 -0.7716
  372MOL0     H49098   2.810   9.813   7.461  0.0105 -0.4357  0.8339
  372MOL0     H49099   2.769   9.883   7.312  2.5913  3.2426  3.2493
  372MOL0     H49100   3.017   9.892   7.301  0.4124  0.0642  2.0178
  372MOL0     H49101   3.029   9.727   7.361 -1.8831 -1.7472  0.3444
  372MOL0     H49102   3.009   9.663   6.951  1.6858  0.0440 -1.3292
  372MOL0     H49103   2.737   9.722   7.735 -0.0184  0.1756 -1.8575
  372MOL0     H49104   2.510   9.733   7.873 -0.7910  0.0540  0.0966
  373MOL0     O49105   1.448  10.291   4.812  0.2292 -1.3942  0.0385
  373MOL0     C49106   1.520  10.197   4.805  0.0386  0.7433 -0.0001
  373MOL0     O49107   1.505  10.086   4.718 -0.0596  0.0435  0.1079
  373MOL0     C49108   1.396  10.077   4.632  0.2962 -0.1585 -1.1733
  373MOL0     C49109   1.369   9.959   4.567 -0.1246  1.0480  1.0270
  373MOL0     C49110   1.268   9.946   4.476 -0.2792 -0.1678  0.6014
  373MOL0     C49111   1.189  10.062   4.447  0.6478  0.3364  0.3859
  373MOL0     O49112   1.083  10.066   4.360 -0.1834  0.1318  0.0488
  373MOL0     C49113   0.978   9.971   4.400  0.6671  0.1725 -0.5120
  373MOL0     C49114   0.854  10.046   4.460  0.3782  0.0157  0.4718
  373MOL0     C49115   0.875  10.155   4.557  0.6721  0.8958 -0.1590
  373MOL0     C49116   0.920  10.103   4.691 -1.0249 -0.0858 -0.8670
  373MOL0     C49117   0.925  10.219   4.803 -0.3524  0.5427 -0.5514
  373MOL0     C49118   1.056  10.303   4.802  1.2798  0.1436 -0.5676
  373MOL0     C49119   1.045  10.412   4.907  0.1636 -0.3964 -0.1012
  373MOL0     C49120   1.098  10.356   5.044 -0.9678  0.3263 -0.0424
  373MOL0     N49121   1.058  10.424   5.169  0.7231 -0.0571  0.4608
  373MOL0     C49122   1.139  10.527   5.207  0.3664  0.7372  0.0344
  373MOL0     C49123   1.090  10.572   5.324 -0.0264 -0.8990  0.5476
  373MOL0     C49124   1.120  10.702   5.380  0.2872 -0.3447  0.1947
  373MOL0     C49125   1.212  10.704   5.497  0.2711  0.1918 -0.4573
  373MOL0     C49126   1.130  10.762   5.622  0.2708  0.5942  0.3075
  373MOL0     C49127   0.999  10.686   5.669  0.1731 -0.3238  0.0713
  373MOL0     O49128   0.960  10.744   5.793  0.4888  0.5451  0.1214
  373MOL0     C49129   0.828  10.713   5.839 -0.9920 -0.3928 -0.2180
  373MOL0     C49130   0.805  10.739   5.974 -0.7360 -0.5631  0.0266
  373MOL0     C49131   0.683  10.692   6.027  0.1025  0.9520  0.6987
  373MOL0     C49132   0.580  10.646   5.949 -0.3985  0.8967 -0.2510
  373MOL0     C49133   0.444  10.641   6.003 -0.5021  0.7121 -0.7907
  373MOL0     O49134   0.342  10.646   5.916  0.3015  0.5866 -0.6979
  373MOL0     C49135   0.213  10.632   5.972 -0.5895 -0.2494 -0.1659
  373MOL0     C49136   0.166  10.701   6.086 -0.2232  0.1102 -0.1965
  373MOL0     C49137   0.035  10.684   6.131  1.2049 -0.3071  0.8917
  373MOL0     C49138  -0.055  10.602   6.064 -0.4607  0.2262  0.3879
  373MOL0     O49139  -0.183  10.597   6.123  0.2983 -0.4049 -0.3208
  373MOL0     C49140  -0.258  10.473   6.094  0.7974 -0.6811  0.1886
  373MOL0     C49141  -0.388  10.472   6.169 -0.6382 -0.3856  0.2769
  373MOL0     C49142  -0.373  10.476   6.321 -0.1648 -0.1208 -0.4293
  373MOL0     C49143  -0.514  10.465   6.378 -0.5711  0.2175 -0.6021
  373MOL0     C49144  -0.528  10.493   6.528 -0.2107  0.5031 -0.8962
  373MOL0     C49145  -0.471  10.624   6.575 -0.6348  0.2666  0.3284
  373MOL0     C49146  -0.506  10.647   6.722 -0.0699  0.6288  0.7828
  373MOL0     C49147  -0.424  10.576   6.832 -0.4520 -0.9186 -0.5192
  373MOL0    Cl49148  -0.256  10.644   6.839  0.0384 -0.1201  0.7211
  373MOL0     C49149  -0.003  10.552   5.939 -0.4530  0.2547 -0.5666
  373MOL0     C49150   0.124  10.573   5.892 -0.1119  0.8128 -0.5200
  373MOL0     O49151   0.434  10.623   6.122  0.0079  0.2879  0.1834
  373MOL0     C49152   0.596  10.629   5.806  0.5273 -0.8523 -0.5352
  373MOL0     C49153   0.730  10.647   5.755 -0.0018  0.3489  0.2762
  373MOL0     N49154   0.974  10.500   5.352  0.1511 -0.0344  0.4285
  373MOL0     N49155   0.958  10.404   5.266 -0.7959  0.0592 -0.1525
  373MOL0     C49156   1.220  10.190   4.492 -0.1756  0.5186  0.2471
  373MOL0     C49157   1.338  10.187   4.574  0.7550  0.1223  0.6636
  373MOL0     C49158   1.630  10.183   4.912  1.1698  0.2419  0.2560
  373MOL0     C49159   1.693  10.058   4.944  0.3787 -0.8830  1.0660
  373MOL0     C49160   1.798  10.059   5.043  0.7802 -0.4477  0.4913
  373MOL0     C49161   1.819  10.166   5.122 -0.1197 -0.5548  0.7663
  373MOL0     O49162   1.909  10.145   5.226  0.1915 -0.2107 -0.0030
  373MOL0     C49163   1.866  10.212   5.345 -0.2814  0.3964  0.2595
  373MOL0     C49164   1.941  10.156   5.472  0.9018 -0.5100 -0.4868
  373MOL0     C49165   2.093  10.156   5.438  0.1491  0.6994 -0.2354
  373MOL0     C49166   2.157  10.086   5.565  0.2443  0.0166  1.1287
  373MOL0     C49167   2.304  10.051   5.539 -0.2234  0.4912 -0.4520
  373MOL0     C49168   2.426  10.021   5.530  0.1988 -0.0714 -0.3659
  373MOL0     C49169   1.754  10.280   5.090 -0.4614 -0.6525 -0.9208
  373MOL0     C49170   1.666  10.297   4.979 -0.5011  0.5979 -0.0287
  373MOL0     H49171   1.427   9.869   4.585 -0.5412  0.8474  1.3991
  373MOL0     H49172   1.245   9.851   4.428 -0.8470 -0.6988  1.8640
  373MOL0     H49173   1.020   9.896   4.468  5.0852  1.4368 -1.5279
  373MOL0     H49174   0.940   9.934   4.305  1.9569  3.9871 -2.7423
  373MOL0     H49175   0.783   9.974   4.501 -0.6274 -1.0316 -2.8540
  373MOL0     H49176   0.794  10.088   4.379  0.2323  0.9065  1.0251
  373MOL0     H49177   0.777  10.194   4.586 -0.0096 -1.5566  1.1690
  373MOL0     H49178   0.946  10.231   4.522  1.7653  0.9160  1.9215
  373MOL0     H49179   0.844  10.033   4.726 -0.0503 -0.2168  1.0923
  373MOL0     H49180   1.020  10.058   4.681  0.5706  2.6534  1.3542
  373MOL0     H49181   0.906  10.167   4.897 -1.3582 -0.8086 -1.4758
  373MOL0     H49182   0.844  10.291   4.787 -0.2063  1.9812  3.9924
  373MOL0     H49183   1.050  10.341   4.699 -0.6389 -2.9284 -1.7092
  373MOL0     H49184   1.152  10.250   4.800  1.7426  0.9685 -2.5024
  373MOL0     H49185   1.103  10.502   4.885 -3.3128  1.7956 -1.0623
  373MOL0     H49186   0.942  10.447   4.922  0.1874 -0.5651  0.5116
  373MOL0     H49187   1.206  10.356   5.032 -0.4683 -0.1269  3.3793
  373MOL0     H49188   1.057  10.255   5.056  3.4821 -1.9343 -1.7365
  373MOL0     H49189   1.229  10.573   5.167  1.0500  1.4181  2.2387
  373MOL0     H49190   1.023  10.745   5.405  1.4424  1.3362  2.1190
  373MOL0     H49191   1.144  10.766   5.295 -1.8540 -0.3028 -0.4311
  373MOL0     H49192   1.287  10.779   5.469 -1.0795  1.1990 -1.4818
  373MOL0     H49193   1.269  10.612   5.515  1.3763  0.7765 -0.8578
  373MOL0     H49194   1.199  10.777   5.705  0.6705  1.1907 -0.1272
  373MOL0     H49195   1.099  10.860   5.585  0.4850 -0.3010 -2.4692
  373MOL0     H49196   1.016  10.578   5.680 -0.2431 -0.1611  2.8937
  373MOL0     H49197   0.923  10.708   5.593 -2.8792  0.8844  3.2281
  373MOL0     H49198   0.878  10.782   6.043 -0.3322  0.1436 -0.8112
  373MOL0     H49199   0.680  10.707   6.134 -0.5591 -1.2305  1.0314
  373MOL0     H49200   0.225  10.765   6.151 -1.6225 -0.8443  2.1470
  373MOL0     H49201   0.001  10.729   6.224 -0.5645  2.0423 -0.7498
  373MOL0     H49202  -0.193  10.390   6.121  2.8135  0.8274  0.2585
  373MOL0     H49203  -0.292  10.463   5.990 -1.5293  2.9054  0.4054
  373MOL0     H49204  -0.431  10.377   6.135  4.2178 -1.6511 -3.4565
  373MOL0     H49205  -0.448  10.554   6.130  2.4108  1.6397 -0.4888
  373MOL0     H49206  -0.318  10.567   6.346  1.3060 -0.4049 -2.3868
  373MOL0     H49207  -0.318  10.383   6.338 -0.3223 -0.6086 -2.3408
  373MOL0     H49208  -0.576  10.544   6.335  1.7980  2.9244  0.5935
  373MOL0     H49209  -0.560  10.369   6.357 -1.6515  1.1232 -2.7131
  373MOL0     H49210  -0.481  10.419   6.593 -1.7867  1.6898  1.7916
  373MOL0     H49211  -0.635  10.474   6.542  0.5305 -3.5339  0.6406
  373MOL0     H49212  -0.534  10.695   6.522 -0.7271  0.2924  0.4727
  373MOL0     H49213  -0.363  10.636   6.559 -0.9652  1.7062 -1.0156
  373MOL0     H49214  -0.504  10.753   6.747  1.3126  0.8101  0.0074
  373MOL0     H49215  -0.606  10.606   6.732  1.3821 -4.8756 -2.8076
  373MOL0     H49216  -0.431  10.470   6.808 -2.4222 -1.0777  0.5511
  373MOL0     H49217  -0.475  10.580   6.928  0.8069  0.2718  0.1408
  373MOL0     H49218  -0.072  10.499   5.874 -1.1174 -3.7289  2.9589
  373MOL0     H49219   0.164  10.542   5.796 -0.4896  1.2350 -0.8169
  373MOL0     H49220   0.527  10.571   5.745 -0.8617 -0.5557  0.7031
  373MOL0     H49221   0.748  10.614   5.653 -0.7485  1.3783 -0.2124
  373MOL0     H49222   1.172  10.285   4.472  1.1703  1.0512 -0.5999
  373MOL0     H49223   1.380  10.286   4.593  0.9260 -0.3107  2.7400
  373MOL0     H49224   1.680   9.966   4.887  3.9972  0.5908 -2.6914
  373MOL0     H49225   1.837   9.960   5.063 -1.5008 -2.1174 -2.5007
  373MOL0     H49226   1.758  10.209   5.361 -0.1365  0.4699  1.3331
  373MOL0     H49227   1.907  10.313   5.337  1.3604 -0.2220  0.5009
  373MOL0     H49228   1.905  10.217   5.554  1.4098  1.2153 -1.5065
  373MOL0     H49229   1.897  10.056   5.479  0.3895 -0.3678 -1.4858
  373MOL0     H49230   2.129  10.258   5.427 -2.3322  1.5810 -0.7657
  373MOL0     H49231   2.119  10.099   5.348 -0.1433 -0.1599  0.2061
  373MOL0     H49232   2.141  10.161   5.643  2.0260  2.6431 -0.8288
  373MOL0     H49233   2.098   9.999   5.593 -0.5921 -0.4538 -1.7441
  373MOL0     H49234   2.533  10.016   5.522  0.0865 -1.1000 -1.5238
  373MOL0     H49235   1.781  10.366   5.149  1.8237 -0.6161 -1.8913
  373MOL0     H49236   1.617  10.392   4.961 -0.5835  0.5036 -0.3079
  374MOL0     O49237   6.081  10.701   1.400  0.5732  0.4836  0.6663
  374MOL0     C49238   6.049  10.780   1.317  0.4982  0.5919 -0.5352
  374MOL0     O49239   6.100  10.901   1.298 -0.3095  0.2557 -0.4117
  374MOL0     C49240   6.169  10.953   1.404  1.3333 -1.4401 -0.8207
  374MOL0     C49241   6.100  10.972   1.517 -0.7090 -0.4151 -0.2415
  374MOL0     C49242   6.163  11.013   1.627 -0.5158 -0.3045 -0.6449
  374MOL0     C49243   6.306  11.033   1.637  1.6614  1.0464  1.1804
  374MOL0     O49244   6.377  11.064   1.750 -0.2051  0.6320  0.5440
  374MOL0     C49245   6.348  11.193   1.798 -0.9737  0.5554  0.4352
  374MOL0     C49246   6.458  11.291   1.761  0.3920 -0.1813  0.3431
  374MOL0     C49247   6.428  11.437   1.795 -0.1552 -0.1464  0.4555
  374MOL0     C49248   6.515  11.538   1.735  0.3251 -0.2680  0.7392
  374MOL0     C49249   6.659  11.529   1.756 -0.1788 -0.2078 -0.6109
  374MOL0     C49250   6.723  11.653   1.677  0.5584  0.0232  0.3510
  374MOL0     C49251   6.872  11.652   1.651 -0.4378 -0.1168  0.5222
  374MOL0     C49252   6.927  11.752   1.550  0.6391 -0.0213 -0.2138
  374MOL0     N49253   6.890  11.893   1.589 -1.0483  0.4021  0.1009
  374MOL0     C49254   6.940  11.956   1.693  0.3195 -0.0434 -0.2986
  374MOL0     C49255   6.895  12.081   1.685  0.7032 -0.1515  0.3018
  374MOL0     C49256   6.927  12.204   1.776 -0.4909  0.4817 -0.2114
  374MOL0     C49257   7.077  12.227   1.768  0.7108 -0.4879 -0.8491
  374MOL0     C49258   7.117  12.299   1.638 -0.1787  0.7958 -0.0423
  374MOL0     C49259   7.273  12.321   1.623  0.1000  0.2311  0.1424
  374MOL0     O49260   7.300  12.355   1.484 -0.2912 -0.4285 -0.1778
  374MOL0     C49261   7.263  12.485   1.445 -0.1355  0.6050  0.2748
  374MOL0     C49262   7.253  12.502   1.303  0.1448  0.3321 -0.4888
  374MOL0     C49263   7.219  12.626   1.240 -1.0025  0.2538 -0.7100
  374MOL0     C49264   7.197  12.740   1.318 -0.7395  0.6921  0.0058
  374MOL0     C49265   7.179  12.875   1.253 -0.1812  1.0185  0.3153
  374MOL0     O49266   7.151  12.873   1.115 -1.1158  0.2623 -0.2195
  374MOL0     C49267   7.119  12.995   1.067 -0.0775  0.0498 -0.5803
  374MOL0     C49268   6.997  13.055   1.101 -1.1026 -0.3534  0.4559
  374MOL0     C49269   6.961  13.185   1.047  1.0593 -0.4517 -0.2741
  374MOL0     C49270   7.050  13.254   0.967 -0.5532 -0.1697  0.5784
  374MOL0     O49271   7.028  13.367   0.897  0.1001  0.1083  0.2305
  374MOL0     C49272   6.897  13.428   0.897 -0.6917  0.8724 -0.1938
  374MOL0     C49273   6.873  13.500   1.031 -0.1675 -0.2355 -0.1270
  374MOL0     C49274   6.736  13.564   1.043 -0.3083 -1.8796 -0.2072
  374MOL0     C49275   6.722  13.649   1.170  0.8190  0.1743 -0.2644
  374MOL0     C49276   6.571  13.677   1.194 -0.3458 -0.9178 -0.4389
  374MOL0     C49277   6.536  13.778   1.299  0.3806 -0.0676 -0.3569
  374MOL0     C49278   6.535  13.727   1.437  0.3587  0.2534 -0.8233
  374MOL0     C49279   6.480  13.825   1.535 -0.5982 -0.6458 -0.7075
  374MOL0    Cl49280   6.536  13.987   1.495  0.0308 -0.1089  0.2973
  374MOL0     C49281   7.167  13.192   0.931  0.1601 -0.1038 -0.1129
  374MOL0     C49282   7.206  13.070   0.991 -0.1789 -0.2804  0.5211
  374MOL0     O49283   7.195  12.978   1.319  0.1531  0.0672  0.3803
  374MOL0     C49284   7.199  12.725   1.461  0.0135  0.3846  0.3465
  374MOL0     C49285   7.231  12.599   1.517 -0.8143  0.0888  0.1147
  374MOL0     N49286   6.822  12.095   1.567  0.1602  0.1216  0.7821
  374MOL0     N49287   6.821  11.980   1.513  0.5889  0.0832 -0.5539
  374MOL0     C49288   6.378  11.032   1.515  0.2576  0.2960  0.0675
  374MOL0     C49289   6.297  11.006   1.394 -0.4944  0.6144 -0.2388
  374MOL0     C49290   5.951  10.728   1.214 -0.1073 -0.0090 -0.0798
  374MOL0     C49291   5.889  10.605   1.219  0.7761  0.1173 -0.1887
  374MOL0     C49292   5.799  10.562   1.128 -0.0196 -0.3699 -0.0248
  374MOL0     C49293   5.765  10.633   1.014  0.5490 -0.8369  0.1287
  374MOL0     O49294   5.651  10.611   0.940 -0.1825 -0.5881 -0.0719
  374MOL0     C49295   5.577  10.501   0.964  0.3131  0.4961  0.3034
  374MOL0     C49296   5.465  10.478   0.872  0.8336  0.1712  0.5352
  374MOL0     C49297   5.335  10.508   0.950  0.5396 -0.0078 -0.0256
  374MOL0     C49298   5.215  10.435   0.876 -0.0119  0.3145  0.3448
  374MOL0     C49299   5.105  10.451   0.968  0.6544  0.0443 -0.2909
  374MOL0     C49300   5.016  10.466   1.050  0.0265  0.9747 -0.0280
  374MOL0     C49301   5.828  10.757   1.002  0.1013 -0.2444  0.9157
  374MOL0     C49302   5.919  10.803   1.097  0.2871  0.7307 -0.6388
  374MOL0     H49303   5.994  10.950   1.530 -0.1694 -3.3098 -0.2583
  374MOL0     H49304   6.099  11.024   1.714  3.0719  1.1121  2.0963
  374MOL0     H49305   6.345  11.194   1.907  2.7134  1.1196  0.6685
  374MOL0     H49306   6.251  11.233   1.768  0.4209  3.7736 -0.2542
  374MOL0     H49307   6.476  11.286   1.654  0.6231 -2.2134  0.4432
  374MOL0     H49308   6.553  11.264   1.807  1.1399  1.1254 -0.3933
  374MOL0     H49309   6.427  11.456   1.903  2.4179 -2.7181  1.0744
  374MOL0     H49310   6.328  11.459   1.758  0.2020  3.3864  1.2878
  374MOL0     H49311   6.497  11.550   1.627  5.1979  0.0506 -0.2654
  374MOL0     H49312   6.472  11.624   1.787 -0.0601  0.5773 -0.9024
  374MOL0     H49313   6.702  11.434   1.725 -1.0962 -2.1025  3.2800
  374MOL0     H49314   6.678  11.541   1.864 -2.0329  0.0384 -0.2833
  374MOL0     H49315   6.693  11.746   1.726  0.5938 -0.3440  1.0828
  374MOL0     H49316   6.674  11.637   1.580 -0.1397 -3.6024  1.1419
  374MOL0     H49317   6.910  11.679   1.750 -0.1319  0.9920  0.1177
  374MOL0     H49318   6.896  11.550   1.620 -0.8625 -0.0490 -0.0424
  374MOL0     H49319   6.893  11.735   1.448 -0.1262  3.7983 -0.7664
  374MOL0     H49320   7.036  11.742   1.549  1.0169  2.8691  0.8183
  374MOL0     H49321   7.010  11.918   1.766 -0.6105  1.0022  1.1998
  374MOL0     H49322   6.913  12.179   1.882  1.7649 -0.3553 -0.0622
  374MOL0     H49323   6.886  12.298   1.738  2.0520  2.4606  1.5802
  374MOL0     H49324   7.130  12.131   1.772  2.6475  0.5446  0.1916
  374MOL0     H49325   7.117  12.289   1.849 -0.9804  0.4054 -0.6605
  374MOL0     H49326   7.083  12.237   1.555 -1.8224  0.8054  0.5689
  374MOL0     H49327   7.068  12.397   1.626 -0.7044  0.8874  2.2905
  374MOL0     H49328   7.329  12.227   1.635  0.1867 -0.4251 -3.8938
  374MOL0     H49329   7.309  12.389   1.699 -1.1821 -0.6536  1.6007
  374MOL0     H49330   7.275  12.416   1.240 -1.6257 -1.6032  1.3637
  374MOL0     H49331   7.214  12.622   1.131  0.4868  2.4682 -0.9228
  374MOL0     H49332   6.939  12.996   1.171 -1.2143 -1.3955 -0.4865
  374MOL0     H49333   6.865  13.234   1.060  1.0668  0.4854 -2.9586
  374MOL0     H49334   6.813  13.359   0.889 -0.2579 -0.1235  2.5524
  374MOL0     H49335   6.886  13.489   0.807 -1.0261 -0.4301 -1.0627
  374MOL0     H49336   6.962  13.565   1.033 -2.4289  3.0945 -0.0920
  374MOL0     H49337   6.886  13.432   1.116 -2.0959 -2.6013 -1.5949
  374MOL0     H49338   6.659  13.487   1.040 -0.4368 -2.1384  3.7247
  374MOL0     H49339   6.707  13.635   0.966 -2.0732  0.8718  2.7430
  374MOL0     H49340   6.764  13.592   1.254  0.3133 -0.2796 -0.3156
  374MOL0     H49341   6.780  13.742   1.166  1.9115 -0.4230  0.9062
  374MOL0     H49342   6.520  13.580   1.203  0.3898 -1.9397 -4.9330
  374MOL0     H49343   6.541  13.713   1.096  1.2033 -0.6522 -0.8399
  374MOL0     H49344   6.436  13.811   1.270  0.4505 -1.6662 -2.7623
  374MOL0     H49345   6.612  13.857   1.293  1.6791 -0.8888  3.0486
  374MOL0     H49346   6.483  13.631   1.447  0.9985 -0.1738 -1.4689
  374MOL0     H49347   6.635  13.700   1.474 -0.0515 -0.2753 -0.0757
  374MOL0     H49348   6.511  13.792   1.635 -2.0151  0.0317 -0.0120
  374MOL0     H49349   6.372  13.816   1.524 -0.4935 -0.4982 -1.9886
  374MOL0     H49350   7.228  13.241   0.856  0.1484  0.0629 -0.0115
  374MOL0     H49351   7.302  13.027   0.967  0.7484  0.7570  2.2178
  374MOL0     H49352   7.164  12.800   1.531 -1.9093 -0.7635  0.6903
  374MOL0     H49353   7.235  12.596   1.625 -0.0607 -1.9014  0.0708
  374MOL0     H49354   6.475  11.080   1.509  0.3963  0.0245  0.1554
  374MOL0     H49355   6.345  11.005   1.297  2.2634  0.8741  1.0402
  374MOL0     H49356   5.902  10.537   1.302  1.5922  0.6556  0.1348
  374MOL0     H49357   5.747  10.471   1.156 -2.0540  0.7941  0.1571
  374MOL0     H49358   5.532  10.493   1.063  1.9554 -1.9508  0.9413
  374MOL0     H49359   5.650  10.420   0.977  1.5019  1.5781  0.6036
  374MOL0     H49360   5.466  10.536   0.779 -0.7532 -1.8176 -0.8506
  374MOL0     H49361   5.471  10.376   0.832  1.0102  1.3296 -2.7387
  374MOL0     H49362   5.322  10.617   0.953 -4.2557 -0.2973 -2.3015
  374MOL0     H49363   5.332  10.451   1.043 -1.6743  1.5552  0.9406
  374MOL0     H49364   5.172  10.483   0.788  0.4216 -3.9770 -2.5056
  374MOL0     H49365   5.239  10.329   0.862  1.1017  0.7440 -1.2188
  374MOL0     H49366   4.943  10.489   1.125 -1.4382 -2.0847 -0.3564
  374MOL0     H49367   5.794  10.830   0.929  1.0292  0.7307  1.4201
  374MOL0     H49368   5.960  10.903   1.088 -1.7834  2.2027  3.5219
  375MOL0     O49369   6.749   6.547   2.617  0.4936 -0.5014 -0.3464
  375MOL0     C49370   6.752   6.605   2.725  0.1053 -0.6411  0.7814
  375MOL0     O49371   6.840   6.700   2.765  0.3444 -0.2280 -0.2238
  375MOL0     C49372   6.901   6.788   2.669 -0.0328 -0.2626  0.9521
  375MOL0     C49373   7.036   6.834   2.676 -0.0811 -0.0370  0.0612
  375MOL0     C49374   7.100   6.917   2.578 -0.1893  0.6620 -1.1383
  375MOL0     C49375   7.020   6.958   2.469  0.7897  1.3596  0.6415
  375MOL0     O49376   7.087   7.038   2.385 -0.7371  0.1926 -0.4858
  375MOL0     C49377   7.021   7.086   2.274  0.8382  0.0643 -0.5921
  375MOL0     C49378   7.126   7.134   2.176  0.3059  0.0706 -0.4747
  375MOL0     C49379   7.068   7.214   2.058 -0.0058  1.1778 -0.1411
  375MOL0     C49380   7.182   7.273   1.981  0.1480 -0.2703  0.6809
  375MOL0     C49381   7.158   7.365   1.859  0.2552 -0.1071  0.3274
  375MOL0     C49382   7.112   7.501   1.915  0.5870  1.0895 -0.6986
  375MOL0     C49383   7.062   7.595   1.810  0.0697  0.2216  0.6395
  375MOL0     C49384   6.939   7.546   1.744 -0.9211  0.2650  0.1839
  375MOL0     N49385   6.830   7.499   1.827  0.7326  0.8288 -0.5499
  375MOL0     C49386   6.762   7.386   1.800 -0.4206  0.7626 -0.8219
  375MOL0     C49387   6.679   7.372   1.909 -0.1591 -0.2302 -0.0287
  375MOL0     C49388   6.597   7.259   1.950  0.1080 -0.5972 -0.3992
  375MOL0     C49389   6.448   7.279   1.964 -0.0055  0.4591 -0.1078
  375MOL0     C49390   6.387   7.281   1.828 -0.0314  0.5340  0.1400
  375MOL0     C49391   6.273   7.184   1.822  0.0791  0.3699 -0.5281
  375MOL0     O49392   6.293   7.047   1.834  0.1143  0.6333 -1.1906
  375MOL0     C49393   6.317   6.968   1.727 -0.1161 -1.3512  0.0926
  375MOL0     C49394   6.278   6.833   1.753 -0.6958 -0.3875 -0.0890
  375MOL0     C49395   6.307   6.738   1.656  0.6302  1.1004  0.0982
  375MOL0     C49396   6.334   6.777   1.523  0.1986  0.0114 -0.3818
  375MOL0     C49397   6.345   6.663   1.427 -0.0202  0.7465 -0.5916
  375MOL0     O49398   6.260   6.556   1.459 -0.2228 -0.3106 -0.4866
  375MOL0     C49399   6.274   6.431   1.399  0.8559 -0.7478 -0.3092
  375MOL0     C49400   6.320   6.412   1.275 -0.1847  0.4395  0.4958
  375MOL0     C49401   6.321   6.287   1.209  0.0819  0.5083  0.0274
  375MOL0     C49402   6.264   6.175   1.271  0.6443 -0.3538 -0.8008
  375MOL0     O49403   6.231   6.054   1.215 -0.5002  0.2505 -0.9966
  375MOL0     C49404   6.321   6.008   1.112 -0.4472 -0.2840 -0.3107
  375MOL0     C49405   6.281   5.871   1.062  1.0708 -0.1178  0.6070
  375MOL0     C49406   6.143   5.855   1.023  0.2883  0.5034  0.7843
  375MOL0     C49407   6.101   5.934   0.897  0.5753 -0.4704  0.4719
  375MOL0     C49408   5.952   5.896   0.862  0.6557 -0.1059 -0.5360
  375MOL0     C49409   5.919   5.752   0.811 -0.4408 -0.1976  0.1601
  375MOL0     C49410   5.782   5.711   0.856  0.1554 -0.3102  0.5656
  375MOL0     C49411   5.752   5.594   0.765  0.7860 -0.5044 -0.5777
  375MOL0    Cl49412   5.573   5.570   0.758  0.5388  0.4339  0.3814
  375MOL0     C49413   6.214   6.193   1.402  0.7787 -0.0538  0.7462
  375MOL0     C49414   6.219   6.323   1.460 -0.5171  0.4540  0.1587
  375MOL0     O49415   6.434   6.665   1.339 -0.0786 -0.6589  1.2392
  375MOL0     C49416   6.376   6.907   1.504  0.0422  0.2683 -0.0525
  375MOL0     C49417   6.360   7.010   1.605  0.8557  1.2297  0.5559
  375MOL0     N49418   6.690   7.479   1.994 -0.1085 -0.3298 -0.0466
  375MOL0     N49419   6.786   7.555   1.947  0.0929 -0.2397  0.3187
  375MOL0     C49420   6.888   6.908   2.455  0.3967 -0.6518 -0.1788
  375MOL0     C49421   6.832   6.825   2.552  0.6011 -0.8526 -0.6128
  375MOL0     C49422   6.638   6.578   2.813 -0.4675  0.1398 -0.2080
  375MOL0     C49423   6.542   6.475   2.783 -0.4317  0.2321  0.2531
  375MOL0     C49424   6.432   6.454   2.868 -0.3870  1.1478 -0.2753
  375MOL0     C49425   6.390   6.545   2.969  0.3129  0.2701  1.1484
  375MOL0     O49426   6.273   6.518   3.025  0.4884 -0.5974 -0.5896
  375MOL0     C49427   6.237   6.611   3.130  0.4134  0.3869  0.4220
  375MOL0     C49428   6.120   6.553   3.202 -0.0986  0.4303  0.5122
  375MOL0     C49429   5.999   6.545   3.119 -0.1784 -0.0377 -0.5630
  375MOL0     C49430   5.872   6.522   3.190 -0.0310 -0.2007 -0.1576
  375MOL0     C49431   5.766   6.450   3.119  0.6872  0.5950 -0.3389
  375MOL0     C49432   5.672   6.408   3.061 -0.1367  0.6422  0.1705
  375MOL0     C49433   6.482   6.653   2.988 -0.6785 -0.9671  0.0360
  375MOL0     C49434   6.596   6.671   2.911  0.0443 -0.1562 -0.7600
  375MOL0     H49435   7.086   6.827   2.772 -0.2136 -0.4019  0.1058
  375MOL0     H49436   7.200   6.957   2.593 -1.1029  2.1607  1.6978
  375MOL0     H49437   6.962   7.174   2.303  1.4010  0.1199  0.4141
  375MOL0     H49438   6.949   7.019   2.226 -1.4058 -0.6130  3.3551
  375MOL0     H49439   7.193   7.052   2.147  1.9885 -0.0555  3.1449
  375MOL0     H49440   7.202   7.201   2.217  0.1000  1.7192 -2.6162
  375MOL0     H49441   6.997   7.296   2.074 -1.3195  0.4677 -2.0430
  375MOL0     H49442   7.018   7.146   1.989  0.8148  0.3635  0.0398
  375MOL0     H49443   7.249   7.321   2.053 -0.0212 -0.7998  1.1913
  375MOL0     H49444   7.251   7.195   1.947 -1.0011 -1.0443  0.0953
  375MOL0     H49445   7.082   7.317   1.797  1.2887  0.0795 -1.1356
  375MOL0     H49446   7.239   7.394   1.792 -1.3915 -2.4331 -2.9235
  375MOL0     H49447   7.191   7.542   1.978 -1.2989  0.7164  2.0469
  375MOL0     H49448   7.027   7.494   1.983  2.6352  1.9369  2.0809
  375MOL0     H49449   7.042   7.692   1.855 -1.1922 -1.5045  4.1291
  375MOL0     H49450   7.142   7.621   1.740  1.9527 -0.7822  2.3072
  375MOL0     H49451   6.966   7.463   1.677  0.9185  1.2996 -0.4119
  375MOL0     H49452   6.909   7.636   1.691  0.6642  1.8987  1.9196
  375MOL0     H49453   6.790   7.326   1.714  1.4753 -0.6297  0.6621
  375MOL0     H49454   6.618   7.237   2.055  1.1478 -0.3757 -0.5453
  375MOL0     H49455   6.615   7.162   1.903  2.1923 -1.1484  1.3837
  375MOL0     H49456   6.429   7.377   2.008  0.9252  0.4525  0.3307
  375MOL0     H49457   6.401   7.206   2.031  2.5854  0.8595  2.3386
  375MOL0     H49458   6.341   7.377   1.802 -4.9241 -1.0895  1.7021
  375MOL0     H49459   6.458   7.261   1.748  0.5419 -0.8176  0.9503
  375MOL0     H49460   6.212   7.209   1.735 -1.1309 -1.3741 -0.2363
  375MOL0     H49461   6.218   7.202   1.915  2.6590 -1.0332  1.4252
  375MOL0     H49462   6.249   6.801   1.853  0.6660  2.6909  1.4124
  375MOL0     H49463   6.295   6.637   1.694  0.0046  0.2902 -2.0494
  375MOL0     H49464   6.374   6.490   1.223 -1.2755  1.3568  0.7223
  375MOL0     H49465   6.375   6.290   1.114  3.9454  0.6092  2.0067
  375MOL0     H49466   6.418   5.987   1.158 -0.3367 -1.4782 -1.0186
  375MOL0     H49467   6.329   6.073   1.024  1.7831 -0.1029 -0.0363
  375MOL0     H49468   6.303   5.793   1.136 -1.8876 -3.9531 -2.1741
  375MOL0     H49469   6.345   5.849   0.976 -3.0744  0.5234 -2.9858
  375MOL0     H49470   6.073   5.878   1.104 -1.5870 -1.9434 -0.0196
  375MOL0     H49471   6.125   5.751   0.996 -2.8101  0.9133  1.0022
  375MOL0     H49472   6.119   6.041   0.909 -1.1786 -0.1167  0.3556
  375MOL0     H49473   6.156   5.897   0.810 -2.6515 -1.1306 -1.4560
  375MOL0     H49474   5.915   5.967   0.787 -2.0037 -1.4395 -0.6255
  375MOL0     H49475   5.884   5.904   0.948 -0.9668 -3.0443 -1.4425
  375MOL0     H49476   5.992   5.680   0.850  2.4661  2.0937 -0.6467
  375MOL0     H49477   5.915   5.750   0.702 -0.4977 -0.4947  0.1682
  375MOL0     H49478   5.764   5.676   0.958 -1.5495 -1.2049 -0.0178
  375MOL0     H49479   5.709   5.789   0.830 -2.2350 -2.9529 -1.1942
  375MOL0     H49480   5.810   5.511   0.806  1.5168  0.0976 -0.3629
  375MOL0     H49481   5.782   5.605   0.661 -1.4287  1.8394 -1.0712
  375MOL0     H49482   6.162   6.117   1.459 -1.4725  1.1409  0.4252
  375MOL0     H49483   6.168   6.333   1.555 -2.8834  0.7460 -1.0511
  375MOL0     H49484   6.423   6.944   1.413  1.3680  1.4356  1.0692
  375MOL0     H49485   6.384   7.114   1.589  1.7304  0.7216 -1.7110
  375MOL0     H49486   6.824   6.932   2.371  0.2009  1.4717  0.5239
  375MOL0     H49487   6.725   6.804   2.552  0.9304 -3.5555  2.8568
  375MOL0     H49488   6.539   6.428   2.685 -4.4590  0.4520  0.0805
  375MOL0     H49489   6.373   6.368   2.839  1.2224 -0.5632  1.1891
  375MOL0     H49490   6.206   6.710   3.095 -2.0032 -0.4465  0.0311
  375MOL0     H49491   6.326   6.624   3.193 -0.1694 -1.3018  1.6440
  375MOL0     H49492   6.139   6.453   3.242 -2.2925 -0.4369 -0.4421
  375MOL0     H49493   6.094   6.620   3.285  3.2994  0.9092  1.3727
  375MOL0     H49494   6.012   6.459   3.053 -1.3527 -0.6682 -0.0121
  375MOL0     H49495   5.982   6.635   3.059 -1.9426 -1.4892 -2.3950
  375MOL0     H49496   5.881   6.463   3.282 -0.5921 -0.6878 -0.4056
  375MOL0     H49497   5.834   6.618   3.224  0.7552 -0.3665  1.2540
  375MOL0     H49498   5.585   6.373   3.010 -0.5756  1.1624  0.5451
  375MOL0     H49499   6.451   6.714   3.072 -6.0232 -1.4630 -1.2159
  375MOL0     H49500   6.668   6.750   2.929  0.8795 -0.9151 -0.6958
  376MOL0     O49501   1.519   8.046   1.204  0.1363  0.3042  0.3291
  376MOL0     C49502   1.497   7.999   1.316  0.6463 -0.4893 -0.5633
  376MOL0     O49503   1.510   7.869   1.349  0.3708 -0.5479 -0.2722
  376MOL0     C49504   1.572   7.790   1.269  0.6641 -0.3648  0.1994
  376MOL0     C49505   1.495   7.702   1.194  0.1562 -0.3227  0.6453
  376MOL0     C49506   1.550   7.622   1.101 -1.4775  0.4567 -0.5793
  376MOL0     C49507   1.692   7.617   1.081  0.3352  0.1634 -0.0443
  376MOL0     O49508   1.759   7.535   0.998 -0.9645  0.5113  0.1173
  376MOL0     C49509   1.684   7.436   0.918 -0.4703  0.3580 -0.4591
  376MOL0     C49510   1.797   7.361   0.842 -0.7728 -0.0252 -0.1993
  376MOL0     C49511   1.824   7.440   0.716 -0.2975  0.5625  0.2174
  376MOL0     C49512   1.924   7.375   0.619 -0.4638 -0.2843  0.2561
  376MOL0     C49513   1.939   7.449   0.481  0.2046  0.4995 -1.2738
  376MOL0     C49514   1.975   7.591   0.507 -0.4323 -0.6738  0.9328
  376MOL0     C49515   2.048   7.648   0.377  0.7539  0.8428  0.2534
  376MOL0     C49516   1.935   7.678   0.270  0.4408  0.3014  0.4853
  376MOL0     N49517   2.007   7.725   0.154  0.4428 -0.0474  0.6666
  376MOL0     C49518   2.028   7.855   0.123  0.4190  1.2329  0.6921
  376MOL0     C49519   2.081   7.850  -0.001  0.1919  0.2091 -0.0270
  376MOL0     C49520   2.133   7.966  -0.095  0.7883  0.1949 -0.0985
  376MOL0     C49521   2.289   7.992  -0.067 -0.9893 -0.8000 -0.0585
  376MOL0     C49522   2.312   8.100   0.044  0.3011  0.4251 -0.8143
  376MOL0     C49523   2.460   8.105   0.085  0.0130 -0.4671 -0.1344
  376MOL0     O49524   2.497   7.965   0.118  0.2025 -0.4784  0.1325
  376MOL0     C49525   2.628   7.932   0.104 -0.2541 -0.1961 -0.1119
  376MOL0     C49526   2.658   7.805   0.062 -0.2026  0.6983  0.0908
  376MOL0     C49527   2.783   7.755   0.020  0.1176 -0.6005  0.3488
  376MOL0     C49528   2.893   7.832   0.061  0.3161  0.1759 -0.2107
  376MOL0     C49529   3.028   7.786   0.046 -0.2994 -0.4911 -0.2139
  376MOL0     O49530   3.116   7.874   0.005 -0.2518  0.6957  0.0716
  376MOL0     C49531   3.249   7.840   0.013 -0.8783 -0.3233  0.2404
  376MOL0     C49532   3.327   7.895   0.116  0.0456  0.5608  1.0119
  376MOL0     C49533   3.469   7.885   0.116 -0.9690 -0.0666  0.7614
  376MOL0     C49534   3.525   7.803   0.021 -0.4548  0.4346 -0.2737
  376MOL0     O49535   3.662   7.785   0.031  0.1867 -0.6913  0.0260
  376MOL0     C49536   3.724   7.689  -0.058 -0.1028  0.0187 -0.5193
  376MOL0     C49537   3.872   7.669  -0.039 -0.8362 -0.5040 -0.3111
  376MOL0     C49538   3.903   7.621   0.105 -0.2786 -0.1413 -0.0903
  376MOL0     C49539   4.046   7.573   0.119  0.1730 -0.0011  0.0449
  376MOL0     C49540   4.086   7.558   0.272 -0.1439  0.6639 -0.1897
  376MOL0     C49541   4.153   7.427   0.298 -0.3028  0.1901 -0.9090
  376MOL0     C49542   4.169   7.392   0.450 -0.3981  0.6680 -0.2449
  376MOL0     C49543   4.273   7.492   0.510  0.4231 -0.4806 -1.1877
  376MOL0    Cl49544   4.432   7.480   0.425 -0.8890 -0.2134  0.6993
  376MOL0     C49545   3.438   7.745  -0.078 -0.5490 -0.0521 -0.3316
  376MOL0     C49546   3.299   7.769  -0.088 -0.3827  0.5872 -1.0051
  376MOL0     O49547   3.054   7.668   0.077 -0.2522  0.2253  0.7795
  376MOL0     C49548   2.867   7.964   0.112 -0.5453  0.3978  0.4901
  376MOL0     C49549   2.740   8.014   0.134 -0.6271 -0.0576  0.5765
  376MOL0     N49550   2.107   7.718  -0.042 -0.4345  0.0008 -0.2353
  376MOL0     N49551   2.068   7.647   0.056 -0.0609 -0.4980 -0.2564
  376MOL0     C49552   1.761   7.699   1.167 -0.4190  0.3466  0.1415
  376MOL0     C49553   1.708   7.789   1.260  0.3473  0.1536 -0.5166
  376MOL0     C49554   1.433   8.094   1.401  0.4617 -0.3707 -0.8380
  376MOL0     C49555   1.469   8.231   1.397 -0.4349  0.1767 -0.5178
  376MOL0     C49556   1.385   8.320   1.464  0.7543  0.3130 -0.0031
  376MOL0     C49557   1.275   8.275   1.548  0.4081 -0.8911 -0.0707
  376MOL0     O49558   1.193   8.360   1.611 -0.2503  0.1874 -0.1379
  376MOL0     C49559   1.112   8.444   1.528 -0.5732  0.2649  0.4565
  376MOL0     C49560   1.040   8.551   1.611 -0.6424 -0.3274  0.2409
  376MOL0     C49561   1.137   8.657   1.675 -0.1817 -0.5550 -0.1754
  376MOL0     C49562   1.219   8.619   1.807  0.2679 -0.2999  0.8335
  376MOL0     C49563   1.302   8.736   1.841 -0.5178  0.5027  0.4433
  376MOL0     C49564   1.364   8.833   1.880 -0.3486 -0.0396 -0.0016
  376MOL0     C49565   1.254   8.141   1.559 -0.2671 -0.3295 -0.0190
  376MOL0     C49566   1.332   8.048   1.487 -0.5556  0.2534  0.7963
  376MOL0     H49567   1.387   7.711   1.204  0.1521 -0.5206  0.7839
  376MOL0     H49568   1.484   7.568   1.034 -1.1735  3.7536 -3.9099
  376MOL0     H49569   1.600   7.475   0.860 -1.5953  0.1114  0.9544
  376MOL0     H49570   1.637   7.362   0.984 -0.1017  1.3248  0.9369
  376MOL0     H49571   1.755   7.265   0.810  2.0441 -0.8260 -1.9318
  376MOL0     H49572   1.886   7.350   0.905 -3.4696  2.2842  4.5784
  376MOL0     H49573   1.867   7.535   0.748  0.4777  0.1476  0.4334
  376MOL0     H49574   1.726   7.464   0.674 -0.5072  3.1436  1.9138
  376MOL0     H49575   2.022   7.376   0.667 -0.6865  2.2129  0.7826
  376MOL0     H49576   1.880   7.277   0.596 -0.4196 -0.0814 -0.7278
  376MOL0     H49577   1.849   7.450   0.420 -0.2315 -2.5161 -0.8326
  376MOL0     H49578   2.007   7.394   0.416 -0.3983  0.5782 -1.9753
  376MOL0     H49579   2.041   7.597   0.594  0.9575 -1.9817  0.0103
  376MOL0     H49580   1.886   7.653   0.523  0.4529  1.1399 -0.7685
  376MOL0     H49581   2.105   7.733   0.415  1.6858  1.2097 -1.8109
  376MOL0     H49582   2.117   7.574   0.336 -1.2340 -1.1447  0.2683
  376MOL0     H49583   1.862   7.744   0.318 -1.5171  0.0555 -1.9151
  376MOL0     H49584   1.873   7.593   0.241  1.2844 -0.4020  0.7295
  376MOL0     H49585   2.010   7.942   0.184 -3.5299 -0.2366  1.9645
  376MOL0     H49586   2.071   8.055  -0.081  2.4869  1.7386 -1.8082
  376MOL0     H49587   2.118   7.926  -0.196  2.0613  0.1246 -0.2849
  376MOL0     H49588   2.332   8.024  -0.163 -0.7377 -4.0363 -1.1537
  376MOL0     H49589   2.335   7.898  -0.035 -2.1389 -0.9303  1.2715
  376MOL0     H49590   2.279   8.199   0.013 -0.0636  0.2665 -0.9355
  376MOL0     H49591   2.256   8.064   0.131 -0.0797  0.9525 -0.8353
  376MOL0     H49592   2.477   8.165   0.175  1.9987  0.4777 -1.0830
  376MOL0     H49593   2.520   8.127  -0.003 -2.0049 -0.5144 -1.6079
  376MOL0     H49594   2.582   7.727   0.055  1.1583 -0.5024 -2.8416
  376MOL0     H49595   2.792   7.652  -0.013 -0.0869 -1.0403  1.6033
  376MOL0     H49596   3.279   7.966   0.183 -2.4131 -0.2180  0.1742
  376MOL0     H49597   3.535   7.934   0.188 -0.6802  0.3015  0.2591
  376MOL0     H49598   3.704   7.704  -0.165 -0.0871 -1.7465 -0.7925
  376MOL0     H49599   3.689   7.589  -0.031  1.9307 -0.8828 -1.0755
  376MOL0     H49600   3.923   7.764  -0.055 -0.5523 -0.4426  0.9014
  376MOL0     H49601   3.911   7.587  -0.101  0.3146 -1.6657  1.8284
  376MOL0     H49602   3.854   7.525   0.127  1.1518 -1.0990 -0.8783
  376MOL0     H49603   3.877   7.699   0.177  0.1093  0.2601 -0.3788
  376MOL0     H49604   4.062   7.483   0.060  0.1894 -0.2663  0.4491
  376MOL0     H49605   4.107   7.640   0.059 -4.2941  1.2594 -3.7186
  376MOL0     H49606   3.997   7.564   0.336  1.5379 -0.9618  2.5409
  376MOL0     H49607   4.161   7.634   0.296  2.0036 -1.2877 -0.2829
  376MOL0     H49608   4.246   7.425   0.239 -1.7435  1.6720 -3.4182
  376MOL0     H49609   4.086   7.352   0.256 -1.8606  1.8800 -1.5801
  376MOL0     H49610   4.067   7.400   0.488  0.4560  0.0788  2.3834
  376MOL0     H49611   4.214   7.293   0.463 -2.3489  0.0960  3.9261
  376MOL0     H49612   4.272   7.465   0.616  2.1516 -3.3187 -1.8080
  376MOL0     H49613   4.234   7.594   0.500  1.6835  0.0265 -1.0854
  376MOL0     H49614   3.475   7.689  -0.164 -1.7722  2.0330 -2.3445
  376MOL0     H49615   3.232   7.736  -0.166 -0.2371 -0.6504 -0.6227
  376MOL0     H49616   2.946   8.035   0.132 -0.6835  0.5027  0.6658
  376MOL0     H49617   2.719   8.117   0.160  0.2698  1.3278 -3.4162
  376MOL0     H49618   1.868   7.690   1.155 -0.3007 -2.1856  2.2137
  376MOL0     H49619   1.776   7.840   1.327  1.0150 -1.9809  0.5257
  376MOL0     H49620   1.559   8.251   1.340 -0.8846 -0.9734 -1.6774
  376MOL0     H49621   1.391   8.427   1.449 -0.7107  0.8387  2.6645
  376MOL0     H49622   1.048   8.369   1.481  2.2349 -1.8606 -0.2722
  376MOL0     H49623   1.160   8.494   1.444 -1.2242 -0.2220 -0.2149
  376MOL0     H49624   0.963   8.603   1.552 -1.1967 -1.0821  0.2963
  376MOL0     H49625   0.980   8.506   1.690 -1.6576 -0.4401 -0.5759
  376MOL0     H49626   1.074   8.743   1.700 -2.7819 -2.4391  0.2063
  376MOL0     H49627   1.213   8.686   1.602  1.7086 -0.3128  1.7805
  376MOL0     H49628   1.151   8.591   1.887  2.2436 -0.4938  2.5229
  376MOL0     H49629   1.274   8.525   1.792 -0.1686 -0.6429  1.3599
  376MOL0     H49630   1.425   8.918   1.901  0.5683  0.5652 -4.1973
  376MOL0     H49631   1.173   8.107   1.623  1.5867 -1.4411  1.8914
  376MOL0     H49632   1.318   7.941   1.502 -0.2940 -0.0617 -1.0407
  377MOL0     O49633   8.127  10.906   0.605 -0.3561 -0.4315 -0.3037
  377MOL0     C49634   8.205  10.996   0.605  0.6007  0.5133  0.5137
  377MOL0     O49635   8.217  11.083   0.502  0.5531 -0.2605 -0.0118
  377MOL0     C49636   8.104  11.097   0.423 -0.6435  0.3816  0.9011
  377MOL0     C49637   7.969  11.108   0.472 -0.0085  0.2635 -0.6947
  377MOL0     C49638   7.864  11.116   0.370  0.0799  0.1747 -0.6997
  377MOL0     C49639   7.886  11.120   0.234 -0.5725  0.5688 -0.0971
  377MOL0     O49640   7.802  11.124   0.131 -0.7169  0.0496 -0.0307
  377MOL0     C49641   7.659  11.110   0.170  0.3246  0.0559  0.2742
  377MOL0     C49642   7.627  10.960   0.182  1.4761 -0.5805 -0.5493
  377MOL0     C49643   7.576  10.903   0.046 -0.7685 -0.1172 -0.3643
  377MOL0     C49644   7.568  10.751   0.069  0.0550  0.7759  0.2160
  377MOL0     C49645   7.521  10.688  -0.064 -0.2652  0.2053 -0.3477
  377MOL0     C49646   7.479  10.543  -0.036  1.2607  0.3552  1.0296
  377MOL0     C49647   7.577  10.442   0.021 -1.0180 -1.7979 -0.1399
  377MOL0     C49648   7.568  10.302  -0.026 -0.7685  0.1813  0.0809
  377MOL0     N49649   7.436  10.237  -0.040  0.1387  0.1950  0.4382
  377MOL0     C49650   7.350  10.249  -0.144 -0.2630  0.0711 -0.2476
  377MOL0     C49651   7.239  10.179  -0.097  0.0444 -0.7306 -0.5718
  377MOL0     C49652   7.109  10.163  -0.164  0.4698  0.0100 -0.0619
  377MOL0     C49653   7.038  10.285  -0.217 -1.0267  0.5136  0.3720
  377MOL0     C49654   6.973  10.375  -0.099  0.5296 -0.2727 -0.3890
  377MOL0     C49655   7.083  10.435   0.003 -0.3036  1.2396  0.5865
  377MOL0     O49656   7.010  10.488   0.112  0.3608 -0.2748  0.1340
  377MOL0     C49657   6.953  10.611   0.122 -0.6691 -0.1184  0.3012
  377MOL0     C49658   6.960  10.704   0.021 -0.8044  0.5277  0.8203
  377MOL0     C49659   6.886  10.823   0.039 -0.0193 -0.1001  0.0086
  377MOL0     C49660   6.802  10.844   0.148  0.7530 -0.3984 -0.4348
  377MOL0     C49661   6.710  10.961   0.149  0.5816 -0.3784 -0.2795
  377MOL0     O49662   6.585  10.934   0.195  0.2465  0.8014  1.0842
  377MOL0     C49663   6.477  11.010   0.182  0.2205 -0.6827 -1.1486
  377MOL0     C49664   6.443  11.074   0.059 -0.4706 -0.1493 -0.1813
  377MOL0     C49665   6.318  11.143   0.057  0.0007  0.1547 -0.0784
  377MOL0     C49666   6.229  11.147   0.163  0.6820  0.0015  0.6399
  377MOL0     O49667   6.110  11.229   0.147  0.2483 -0.3731  0.4872
  377MOL0     C49668   6.006  11.213   0.249 -0.5305  0.3500 -0.4124
  377MOL0     C49669   5.897  11.298   0.199  0.2687 -0.0458  0.8540
  377MOL0     C49670   5.868  11.276   0.053 -0.6095 -0.2101  0.0040
  377MOL0     C49671   5.757  11.364   0.009 -0.0195  0.0259 -0.3614
  377MOL0     C49672   5.691  11.314  -0.110  1.4207  0.0851 -0.1290
  377MOL0     C49673   5.623  11.428  -0.196  1.2355 -0.3055 -0.2759
  377MOL0     C49674   5.481  11.460  -0.127  0.2192  0.4684  0.0554
  377MOL0     C49675   5.405  11.583  -0.198  0.2556  0.1710 -0.1014
  377MOL0    Cl49676   5.335  11.526  -0.354 -0.0273 -0.2583 -0.3185
  377MOL0     C49677   6.269  11.072   0.282  0.8322  0.1470  0.9323
  377MOL0     C49678   6.391  11.019   0.293  0.0840  0.9928  1.1327
  377MOL0     O49679   6.738  11.058   0.089  0.1653 -0.9323  0.3815
  377MOL0     C49680   6.792  10.747   0.243  1.3813  0.0153  0.1113
  377MOL0     C49681   6.869  10.632   0.233 -0.5863 -0.2168  0.5851
  377MOL0     N49682   7.267  10.119   0.022 -0.7189  0.1226  0.6587
  377MOL0     N49683   7.390  10.140   0.042  0.9967 -0.3997 -0.0695
  377MOL0     C49684   8.025  11.107   0.198  0.1215 -0.0829  0.5562
  377MOL0     C49685   8.135  11.100   0.287 -0.1250 -0.4025  0.1125
  377MOL0     C49686   8.303  10.999   0.712  0.2359  0.2952 -0.4891
  377MOL0     C49687   8.283  10.937   0.838 -0.0530 -0.0766 -0.0761
  377MOL0     C49688   8.395  10.924   0.927  0.2103 -0.6976 -0.0679
  377MOL0     C49689   8.516  10.991   0.898 -0.8932  0.2159  0.3026
  377MOL0     O49690   8.611  10.986   0.998 -0.2293 -0.2132  0.6390
  377MOL0     C49691   8.580  11.021   1.131  0.2962 -0.1825  0.0112
  377MOL0     C49692   8.718  11.078   1.172  0.6522  0.2210  0.3766
  377MOL0     C49693   8.740  11.118   1.311 -0.2422 -0.7191 -0.3470
  377MOL0     C49694   8.875  11.193   1.326 -0.4235 -0.2566 -0.1589
  377MOL0     C49695   8.903  11.229   1.472  1.0158  0.3055  0.5207
  377MOL0     C49696   8.912  11.277   1.581  0.3454 -0.2958 -0.6628
  377MOL0     C49697   8.529  11.060   0.784  0.6963  0.0236 -0.3679
  377MOL0     C49698   8.426  11.071   0.687  0.0743  0.3428 -0.7183
  377MOL0     H49699   7.942  11.115   0.577  1.0258 -1.7890 -0.2506
  377MOL0     H49700   7.761  11.116   0.402  0.3587  1.8469  0.3931
  377MOL0     H49701   7.610  11.144   0.078 -2.1098 -1.1967  1.0260
  377MOL0     H49702   7.637  11.170   0.259 -1.8860 -0.1740 -0.0469
  377MOL0     H49703   7.557  10.948   0.265  0.5592  2.7361 -0.7003
  377MOL0     H49704   7.713  10.900   0.215  1.0658 -1.0213 -0.2645
  377MOL0     H49705   7.650  10.928  -0.031  1.4312  2.8029  2.4393
  377MOL0     H49706   7.477  10.941   0.021  0.1335  4.8421  2.3005
  377MOL0     H49707   7.667  10.715   0.101 -0.5322  0.3505  1.6191
  377MOL0     H49708   7.495  10.728   0.147 -3.1860  1.7447 -2.2800
  377MOL0     H49709   7.597  10.700  -0.142 -0.3731  0.2334 -0.4487
  377MOL0     H49710   7.431  10.745  -0.088  0.8105  1.2703 -2.0989
  377MOL0     H49711   7.448  10.502  -0.132 -0.4869 -0.6351  1.9574
  377MOL0     H49712   7.392  10.541   0.030  1.0172  0.8934  0.7307
  377MOL0     H49713   7.678  10.470  -0.010 -1.8945 -0.8025 -2.3102
  377MOL0     H49714   7.571  10.447   0.130  2.3319  0.6570  0.0809
  377MOL0     H49715   7.640  10.245   0.034  1.1216  3.0078  0.7056
  377MOL0     H49716   7.608  10.297  -0.128  2.9752 -3.1318  1.4066
  377MOL0     H49717   7.378  10.299  -0.236  1.6261 -0.7109 -0.1454
  377MOL0     H49718   7.041  10.105  -0.102  0.1176  1.9725  1.4751
  377MOL0     H49719   7.127  10.097  -0.250  2.8587  0.9113 -0.3417
  377MOL0     H49720   6.959  10.244  -0.281 -0.9204 -1.8661  1.6557
  377MOL0     H49721   7.101  10.355  -0.273  1.0812  2.3694  4.6188
  377MOL0     H49722   6.924  10.464  -0.140 -1.0004 -0.3629  1.1067
  377MOL0     H49723   6.909  10.311  -0.037  2.8911 -0.7953  1.6539
  377MOL0     H49724   7.152  10.503  -0.048  0.6085  0.5279  0.8359
  377MOL0     H49725   7.149  10.358   0.045 -0.5332  1.4709  1.3907
  377MOL0     H49726   7.034  10.708  -0.058  0.3138  2.1232  1.9041
  377MOL0     H49727   6.892  10.903  -0.033 -0.5046 -0.3409 -0.3090
  377MOL0     H49728   6.508  11.063  -0.027 -0.8412  2.3052 -0.8250
  377MOL0     H49729   6.281  11.195  -0.031 -0.5829  0.6735  0.4614
  377MOL0     H49730   6.027  11.252   0.349 -4.6762 -0.3041  0.9371
  377MOL0     H49731   5.970  11.111   0.263 -0.4708  0.3427 -0.3163
  377MOL0     H49732   5.925  11.404   0.205 -0.4546  0.0572  3.2581
  377MOL0     H49733   5.803  11.271   0.246 -0.2138 -0.5577 -0.3552
  377MOL0     H49734   5.849  11.171   0.029 -1.3403  0.7358 -4.5120
  377MOL0     H49735   5.955  11.303  -0.008  1.7420 -2.4821  2.1493
  377MOL0     H49736   5.684  11.382   0.089  0.8722  0.5545  0.3590
  377MOL0     H49737   5.795  11.462  -0.020  2.6297 -0.9909 -0.5940
  377MOL0     H49738   5.619  11.236  -0.083  0.1409  0.7624 -1.4684
  377MOL0     H49739   5.763  11.261  -0.174 -0.7703 -2.2329 -0.8769
  377MOL0     H49740   5.598  11.394  -0.297 -5.6375  2.0125  0.1201
  377MOL0     H49741   5.695  11.508  -0.215 -0.6137  1.3799 -0.4394
  377MOL0     H49742   5.419  11.370  -0.129  0.3498  0.3274  1.4759
  377MOL0     H49743   5.503  11.490  -0.024  2.3895 -2.2707  0.5319
  377MOL0     H49744   5.473  11.668  -0.212  0.9180 -0.2326  0.5632
  377MOL0     H49745   5.334  11.616  -0.121 -0.5519 -0.7687 -0.4209
  377MOL0     H49746   6.212  11.062   0.374  1.1304 -2.8168  0.9080
  377MOL0     H49747   6.429  10.968   0.381  3.5689 -0.0046 -0.7534
  377MOL0     H49748   6.744  10.754   0.340  5.4213 -1.0570  2.4264
  377MOL0     H49749   6.869  10.562   0.315 -3.7177 -0.9274  0.1357
  377MOL0     H49750   8.049  11.093   0.093 -3.5590  0.9279 -0.5713
  377MOL0     H49751   8.235  11.080   0.248  0.1060 -3.0030  1.7635
  377MOL0     H49752   8.188  10.886   0.843 -0.6494  0.6528 -2.4450
  377MOL0     H49753   8.381  10.856   1.011 -0.3529 -1.6333 -0.8892
  377MOL0     H49754   8.551  10.936   1.193 -0.5861 -0.9874 -1.4545
  377MOL0     H49755   8.497  11.092   1.138  1.8514  1.8934 -1.3585
  377MOL0     H49756   8.794  11.001   1.155 -3.2081 -3.6740 -1.0926
  377MOL0     H49757   8.734  11.163   1.104  0.2738 -2.4638 -3.3692
  377MOL0     H49758   8.732  11.026   1.369 -0.6316 -0.2642  0.3378
  377MOL0     H49759   8.654  11.181   1.337 -1.1710 -1.0444 -2.4013
  377MOL0     H49760   8.949  11.127   1.279 -1.6096 -1.2372 -0.7139
  377MOL0     H49761   8.878  11.290   1.276  0.7123  0.2136  0.7760
  377MOL0     H49762   8.914  11.321   1.679  2.5855  0.4864 -1.0183
  377MOL0     H49763   8.623  11.104   0.751  0.2668 -0.0236 -1.6975
  377MOL0     H49764   8.450  11.122   0.595  1.4667  1.4716  0.2419
  378MOL0     O49765   1.378   2.527   2.866  1.3314 -0.4650 -0.6274
  378MOL0     C49766   1.457   2.601   2.803  0.9543 -0.2088 -0.1877
  378MOL0     O49767   1.503   2.581   2.675 -0.6660  0.6562 -0.5258
  378MOL0     C49768   1.470   2.467   2.600 -0.0693 -0.7876 -0.0815
  378MOL0     C49769   1.378   2.470   2.494 -0.4514  0.9903 -1.2621
  378MOL0     C49770   1.353   2.356   2.419  0.6903 -0.3342  1.5177
  378MOL0     C49771   1.426   2.236   2.438  0.0987 -0.0933 -0.0695
  378MOL0     O49772   1.425   2.124   2.367  0.1415 -0.6848 -0.7619
  378MOL0     C49773   1.361   2.127   2.241 -0.1996 -0.4640 -0.1106
  378MOL0     C49774   1.378   1.988   2.190  0.3779 -0.6349 -0.0762
  378MOL0     C49775   1.344   1.968   2.045  1.1291 -0.5016  1.6467
  378MOL0     C49776   1.297   1.827   2.020  0.3320  0.6598  0.1409
  378MOL0     C49777   1.280   1.776   1.873  0.3674 -0.8976 -0.9706
  378MOL0     C49778   1.415   1.749   1.805 -0.9003  0.8688  0.2394
  378MOL0     C49779   1.397   1.665   1.682  0.3574 -0.2777  0.4624
  378MOL0     C49780   1.363   1.516   1.708 -0.3850  0.7984 -0.3986
  378MOL0     N49781   1.356   1.441   1.577  0.4289 -0.0105 -0.8479
  378MOL0     C49782   1.273   1.335   1.567 -0.6719  0.5279 -0.4734
  378MOL0     C49783   1.288   1.306   1.437 -0.2136 -0.6371  1.2040
  378MOL0     C49784   1.198   1.201   1.374 -0.1206  0.3570  0.7091
  378MOL0     C49785   1.284   1.087   1.318 -0.4935 -1.1358  0.2500
  378MOL0     C49786   1.219   1.009   1.200 -0.4087  1.3976 -0.2907
  378MOL0     C49787   1.174   1.092   1.085  0.4004  0.3287 -0.4246
  378MOL0     O49788   1.050   1.023   1.046 -0.5505  0.7614 -0.6778
  378MOL0     C49789   1.024   1.007   0.921  0.6484 -0.1610  0.8563
  378MOL0     C49790   0.897   1.052   0.889 -0.6535  1.2021 -0.2729
  378MOL0     C49791   0.854   1.042   0.758 -0.1625 -0.1901 -0.5232
  378MOL0     C49792   0.927   0.978   0.654  0.9972  1.3084 -0.0784
  378MOL0     C49793   0.885   0.968   0.511  0.3293  0.3589  1.0098
  378MOL0     O49794   0.975   0.907   0.425 -0.7525  0.4136 -0.4017
  378MOL0     C49795   0.970   0.925   0.291  0.3568  0.1854  0.2987
  378MOL0     C49796   0.862   0.950   0.208  0.1226 -0.3992 -0.7969
  378MOL0     C49797   0.875   0.964   0.075  0.1754  0.6548  0.1861
  378MOL0     C49798   1.001   0.962   0.015  0.2962 -0.1441  0.0139
  378MOL0     O49799   1.005   0.983  -0.119 -0.0621 -0.1798  0.3306
  378MOL0     C49800   1.031   1.121  -0.162  0.4363 -0.5519  0.3315
  378MOL0     C49801   1.162   1.133  -0.238 -0.1051  0.0268  0.9714
  378MOL0     C49802   1.185   1.042  -0.363 -0.1977 -0.6919  0.2112
  378MOL0     C49803   1.315   1.069  -0.434  0.5253 -0.0252 -0.9792
  378MOL0     C49804   1.350   0.978  -0.553 -0.5295 -0.5284  0.4177
  378MOL0     C49805   1.492   0.989  -0.597  0.3235 -0.7385 -0.1942
  378MOL0     C49806   1.600   0.937  -0.504 -1.3710  0.2903 -1.2377
  378MOL0     C49807   1.702   0.845  -0.572 -0.4686 -0.3906 -1.2551
  378MOL0    Cl49808   1.821   0.798  -0.462 -0.3244 -0.0218 -0.3896
  378MOL0     C49809   1.114   0.917   0.086  0.0206  0.4452  0.3124
  378MOL0     C49810   1.091   0.900   0.228 -0.2684 -0.4580 -0.3437
  378MOL0     O49811   0.785   1.031   0.483  0.4183 -0.2394  0.0178
  378MOL0     C49812   1.052   0.917   0.697 -0.3813  0.6657 -0.3836
  378MOL0     C49813   1.100   0.938   0.831  0.5510  0.1631 -0.9746
  378MOL0     N49814   1.386   1.384   1.379  0.1084 -0.1852 -1.3588
  378MOL0     N49815   1.431   1.465   1.469 -0.7512  0.6909 -0.2160
  378MOL0     C49816   1.528   2.239   2.532  0.2673  0.3680  0.9086
  378MOL0     C49817   1.549   2.348   2.613  0.1932 -0.0654  0.5140
  378MOL0     C49818   1.491   2.730   2.867  0.5347 -0.0525 -0.3973
  378MOL0     C49819   1.484   2.753   3.008  0.1172  0.4448  0.7011
  378MOL0     C49820   1.502   2.880   3.066  0.1680  0.6531 -0.0801
  378MOL0     C49821   1.503   2.990   2.982 -0.4413  0.1909  0.0369
  378MOL0     O49822   1.493   3.113   3.049  0.1607 -0.0682 -0.5583
  378MOL0     C49823   1.464   3.231   2.969 -0.2307 -0.6277  0.4130
  378MOL0     C49824   1.413   3.347   3.051 -1.0743  0.3273 -0.0877
  378MOL0     C49825   1.389   3.471   2.977 -0.0608 -0.0811  0.1520
  378MOL0     C49826   1.340   3.586   3.063  0.1507  0.6605  0.2858
  378MOL0     C49827   1.330   3.705   2.977  0.0582 -0.3414  0.1820
  378MOL0     C49828   1.318   3.796   2.895 -0.1376 -0.2446 -0.1160
  378MOL0     C49829   1.507   2.976   2.845 -0.5654  0.4291 -0.7969
  378MOL0     C49830   1.517   2.850   2.788 -0.6644  0.2515 -0.0435
  378MOL0     H49831   1.326   2.564   2.481 -3.7090 -0.2968  1.0177
  378MOL0     H49832   1.285   2.372   2.336  3.1236 -0.6725 -0.6900
  378MOL0     H49833   1.413   2.198   2.177 -0.6158  0.5385  0.6403
  378MOL0     H49834   1.255   2.151   2.248  0.3029  2.6493 -1.4162
  378MOL0     H49835   1.309   1.929   2.250  0.3958  0.1381  0.7127
  378MOL0     H49836   1.479   1.955   2.216  1.4954  1.9650 -0.7765
  378MOL0     H49837   1.434   1.980   1.985  0.2963  2.7499  0.8170
  378MOL0     H49838   1.263   2.035   2.012  3.0633  2.1925  2.0036
  378MOL0     H49839   1.362   1.749   2.060 -2.1482 -2.8608 -2.0781
  378MOL0     H49840   1.201   1.808   2.070 -0.7437  1.4323 -1.5213
  378MOL0     H49841   1.234   1.859   1.818  1.9237 -0.6576 -1.9624
  378MOL0     H49842   1.221   1.684   1.879 -0.2644 -0.4592 -0.3282
  378MOL0     H49843   1.480   1.693   1.873 -1.7397  0.3634  0.6333
  378MOL0     H49844   1.474   1.835   1.771  0.9809 -1.4217 -2.7985
  378MOL0     H49845   1.311   1.708   1.629 -1.8359 -3.8165  0.8324
  378MOL0     H49846   1.488   1.681   1.624  0.8688  4.0728  2.0461
  378MOL0     H49847   1.264   1.503   1.754  0.3364  0.2075  1.0351
  378MOL0     H49848   1.431   1.474   1.782 -1.9436 -3.9564 -1.3206
  378MOL0     H49849   1.207   1.289   1.640 -1.5131  1.9729 -0.2627
  378MOL0     H49850   1.130   1.249   1.304  0.4252 -0.0004 -0.0796
  378MOL0     H49851   1.126   1.167   1.449 -0.4552  1.4587  0.9071
  378MOL0     H49852   1.295   1.020   1.404 -1.2604  0.3156  1.5169
  378MOL0     H49853   1.382   1.123   1.286  1.0909 -4.0136  1.4712
  378MOL0     H49854   1.291   0.933   1.169 -1.7076 -0.2964  0.7006
  378MOL0     H49855   1.132   0.956   1.239  0.5013 -0.3422 -0.5347
  378MOL0     H49856   1.263   1.098   1.022  1.4258  0.9299  1.0359
  378MOL0     H49857   1.145   1.192   1.117  3.2671  0.2937  2.9780
  378MOL0     H49858   0.830   1.081   0.969 -0.7210  1.2933 -0.3615
  378MOL0     H49859   0.757   1.086   0.736 -0.2530 -0.6160 -1.0322
  378MOL0     H49860   0.761   0.963   0.246  0.6121 -0.8421  0.7264
  378MOL0     H49861   0.793   0.985   0.006 -1.6218  2.7058  2.7629
  378MOL0     H49862   1.022   1.193  -0.080  1.0014 -0.1477  0.0444
  378MOL0     H49863   0.951   1.140  -0.235  0.2038 -0.7232  0.5383
  378MOL0     H49864   1.239   1.104  -0.165  0.9280  0.7153  0.1865
  378MOL0     H49865   1.163   1.237  -0.272 -2.3594  1.2365  4.1636
  378MOL0     H49866   1.097   1.042  -0.427  1.4225  0.4855 -2.1894
  378MOL0     H49867   1.191   0.945  -0.314 -2.6980 -0.4983  1.0358
  378MOL0     H49868   1.327   1.170  -0.473  2.6399 -0.5604 -1.8792
  378MOL0     H49869   1.395   1.063  -0.359  0.1494  1.3882 -0.4421
  378MOL0     H49870   1.289   0.999  -0.641  0.1992 -0.4279 -0.0725
  378MOL0     H49871   1.340   0.875  -0.518 -4.2445 -0.6902 -0.7193
  378MOL0     H49872   1.526   1.091  -0.616  1.1475 -0.6659  1.5542
  378MOL0     H49873   1.492   0.931  -0.690 -1.5375 -0.7208 -0.2414
  378MOL0     H49874   1.652   1.019  -0.455 -0.3582 -0.4248 -1.0698
  378MOL0     H49875   1.552   0.880  -0.424  2.4374 -0.8305  0.5248
  378MOL0     H49876   1.736   0.892  -0.665  3.3680 -1.3869 -0.5108
  378MOL0     H49877   1.655   0.751  -0.601  2.9751 -2.4489 -0.6549
  378MOL0     H49878   1.208   0.898   0.035  1.8628  4.3636  1.8251
  378MOL0     H49879   1.172   0.856   0.285 -0.6132 -0.0849  0.4530
  378MOL0     H49880   1.111   0.856   0.630  1.3774  0.1170  1.5552
  378MOL0     H49881   1.201   0.919   0.867  2.1209  2.3965 -3.7902
  378MOL0     H49882   1.581   2.145   2.540 -1.4637 -0.6139  1.4589
  378MOL0     H49883   1.625   2.353   2.690  3.1250  1.0818 -2.2390
  378MOL0     H49884   1.477   2.671   3.079 -1.0364  1.1536  1.4413
  378MOL0     H49885   1.506   2.888   3.174  0.8213 -0.8237  0.0302
  378MOL0     H49886   1.384   3.210   2.898 -2.6973  2.2997  2.0518
  378MOL0     H49887   1.557   3.263   2.922 -1.1020  1.1544 -0.2052
  378MOL0     H49888   1.333   3.330   3.124 -1.5243  0.8372 -0.4505
  378MOL0     H49889   1.492   3.383   3.117  0.1260  2.1219 -2.3491
  378MOL0     H49890   1.339   3.448   2.882 -0.9431 -1.4425  0.9153
  378MOL0     H49891   1.482   3.516   2.943 -2.1821  2.4023 -2.9918
  378MOL0     H49892   1.241   3.559   3.103 -0.6008 -0.2640 -2.0165
  378MOL0     H49893   1.404   3.606   3.149 -4.3546  0.7242  4.0029
  378MOL0     H49894   1.330   3.876   2.825  1.1130 -1.8565 -1.8440
  378MOL0     H49895   1.524   3.067   2.788  0.9843 -0.7502 -2.3099
  378MOL0     H49896   1.526   2.841   2.681 -0.9055  0.1383 -0.0555
  379MOL0     O49897   8.901  10.304   4.377 -0.0483  0.3858  0.1132
  379MOL0     C49898   8.913  10.335   4.496  0.0892  0.6990 -0.0896
  379MOL0     O49899   9.032  10.357   4.562 -0.2522 -0.2930  0.1369
  379MOL0     C49900   9.141  10.365   4.478  0.7959  0.9090  0.1876
  379MOL0     C49901   9.211  10.247   4.444 -0.0753  0.2936  0.6742
  379MOL0     C49902   9.322  10.273   4.364  0.4934 -1.4897 -0.0711
  379MOL0     C49903   9.367  10.394   4.308 -0.0970  0.0420  0.1287
  379MOL0     O49904   9.479  10.425   4.238  0.2437 -0.4231  0.1276
  379MOL0     C49905   9.576  10.323   4.222  0.3847 -0.7601 -0.1294
  379MOL0     C49906   9.717  10.373   4.192 -0.1456 -1.1009  0.8733
  379MOL0     C49907   9.821  10.299   4.276 -0.4568  0.3832 -0.3099
  379MOL0     C49908   9.829  10.147   4.228 -0.5308 -0.9634 -0.5813
  379MOL0     C49909   9.978  10.103   4.217 -0.5146 -0.0850 -0.1330
  379MOL0     C49910  10.042  10.056   4.350  0.5571 -0.4938 -1.8549
  379MOL0     C49911  10.190  10.007   4.313 -0.9274  0.1167 -1.0719
  379MOL0     C49912  10.271   9.944   4.426  0.9337  0.0850  0.8040
  379MOL0     N49913  10.195   9.825   4.477 -0.2588  0.4065 -0.0948
  379MOL0     C49914  10.109   9.834   4.582  0.7301 -0.5396 -0.1439
  379MOL0     C49915  10.081   9.703   4.615 -0.1052  0.2391  0.3496
  379MOL0     C49916   9.983   9.656   4.713  0.4686  0.6449  0.5620
  379MOL0     C49917   9.893   9.538   4.663 -0.1229 -0.6024  0.2072
  379MOL0     C49918   9.794   9.588   4.549  0.3770  0.2510 -0.2943
  379MOL0     C49919   9.709   9.469   4.505  0.8387  0.0673  0.5214
  379MOL0     O49920   9.600   9.432   4.597 -0.4418  0.0574  0.4355
  379MOL0     C49921   9.520   9.324   4.553 -0.0389  0.6609 -1.1014
  379MOL0     C49922   9.389   9.319   4.604 -0.1599 -0.5883  1.3837
  379MOL0     C49923   9.293   9.234   4.559 -0.0451 -0.3633 -0.5321
  379MOL0     C49924   9.320   9.150   4.450 -0.1238  0.1492  0.0917
  379MOL0     C49925   9.215   9.078   4.392 -0.6834 -0.6739  0.9764
  379MOL0     O49926   9.082   9.070   4.440 -0.3826 -0.0154  0.4222
  379MOL0     C49927   8.997   8.972   4.393 -0.1600 -0.8098 -1.2663
  379MOL0     C49928   8.921   8.912   4.489 -0.7755 -0.5979  0.3298
  379MOL0     C49929   8.816   8.832   4.450  0.0768 -0.6008 -0.1948
  379MOL0     C49930   8.799   8.808   4.307 -0.0850  0.7014  0.0486
  379MOL0     O49931   8.709   8.720   4.258  0.1931 -0.5030  0.4688
  379MOL0     C49932   8.643   8.621   4.333  0.1106  0.0984  0.1796
  379MOL0     C49933   8.594   8.520   4.236  0.5426 -0.0024 -0.6845
  379MOL0     C49934   8.705   8.431   4.164 -0.1109 -0.5771 -0.8444
  379MOL0     C49935   8.652   8.305   4.092  0.3825  0.6543 -0.0608
  379MOL0     C49936   8.762   8.244   4.000 -0.0781 -0.5669  0.3654
  379MOL0     C49937   8.707   8.121   3.940  0.1292 -0.6299  0.0484
  379MOL0     C49938   8.605   8.122   3.823 -0.3905 -0.4028 -0.6909
  379MOL0     C49939   8.643   8.224   3.697  0.3693 -0.1713 -0.7522
  379MOL0    Cl49940   8.553   8.183   3.554  0.2703 -0.2693 -0.0263
  379MOL0     C49941   8.877   8.864   4.214 -0.2662 -1.1008 -0.4464
  379MOL0     C49942   8.971   8.964   4.256 -0.4593  0.2017 -0.4835
  379MOL0     O49943   9.254   9.015   4.293  0.2392 -0.1573 -0.1315
  379MOL0     C49944   9.451   9.152   4.398  0.3274  0.6406 -0.8868
  379MOL0     C49945   9.549   9.243   4.443 -0.1033  0.1363 -0.8131
  379MOL0     N49946  10.144   9.621   4.521 -0.2973 -0.5444  0.1145
  379MOL0     N49947  10.220   9.691   4.442 -1.1092  0.2868  0.2069
  379MOL0     C49948   9.290  10.500   4.346  1.0548  0.8484  0.8371
  379MOL0     C49949   9.176  10.487   4.422  0.9916  0.4596 -0.0753
  379MOL0     C49950   8.803  10.313   4.596  0.1734 -0.8002  1.1472
  379MOL0     C49951   8.840  10.288   4.723  0.2182 -0.5233 -0.1603
  379MOL0     C49952   8.740  10.293   4.821 -0.8351 -0.5969 -0.2495
  379MOL0     C49953   8.602  10.317   4.794  0.1312 -0.1405  0.1198
  379MOL0     O49954   8.519  10.319   4.903  1.3950 -0.3130 -0.0578
  379MOL0     C49955   8.377  10.335   4.892  0.0634  0.7087  0.1877
  379MOL0     C49956   8.297  10.258   5.008 -0.4866 -0.0442 -0.0373
  379MOL0     C49957   8.298  10.359   5.121 -0.7899  0.1919 -0.4854
  379MOL0     C49958   8.237  10.289   5.245 -0.0887  0.1355  0.0524
  379MOL0     C49959   8.106  10.352   5.291  0.7520  0.2651 -0.0464
  379MOL0     C49960   7.995  10.399   5.311  0.2948  0.1949 -0.4981
  379MOL0     C49961   8.572  10.334   4.660  0.0861 -0.7581 -0.4030
  379MOL0     C49962   8.673  10.338   4.559  0.0610  0.2242  0.2932
  379MOL0     H49963   9.184  10.153   4.491  0.3200  0.1901  0.6934
  379MOL0     H49964   9.374  10.181   4.338  1.6707 -0.6394 -0.8433
  379MOL0     H49965   9.546  10.263   4.135 -1.7670 -0.7162  0.5258
  379MOL0     H49966   9.567  10.260   4.311  3.7127 -1.1163  0.1061
  379MOL0     H49967   9.725  10.480   4.212 -0.8148 -0.7467 -0.6033
  379MOL0     H49968   9.746  10.358   4.087  0.4158 -0.1674  0.8931
  379MOL0     H49969   9.814  10.304   4.385  0.5845  2.2962 -0.2909
  379MOL0     H49970   9.916  10.353   4.266 -1.6919  3.1006  1.4142
  379MOL0     H49971   9.765  10.089   4.295 -1.8185  0.1647 -0.8123
  379MOL0     H49972   9.777  10.133   4.133 -1.3998 -1.3099 -0.0648
  379MOL0     H49973  10.033  10.189   4.177 -0.4031  1.4502  2.9612
  379MOL0     H49974   9.980  10.015   4.152 -1.6405 -2.4667  2.8160
  379MOL0     H49975   9.983   9.984   4.408  0.4668  0.2345 -1.0202
  379MOL0     H49976  10.065  10.144   4.412 -1.2996 -1.8576  0.9865
  379MOL0     H49977  10.199   9.938   4.229  1.2570 -0.2440 -0.5988
  379MOL0     H49978  10.242  10.102   4.294 -1.9545  1.7210  3.0514
  379MOL0     H49979  10.304  10.012   4.504 -0.4348  2.4228 -0.5567
  379MOL0     H49980  10.365   9.917   4.376  1.3642  3.9478 -0.8284
  379MOL0     H49981  10.082   9.923   4.639 -4.2815 -2.4147  0.9002
  379MOL0     H49982   9.935   9.745   4.754 -1.1972  0.9253 -1.8159
  379MOL0     H49983  10.046   9.612   4.791 -0.5321 -0.2644  0.8824
  379MOL0     H49984   9.831   9.497   4.744 -0.0679  1.9580  1.6735
  379MOL0     H49985   9.959   9.458   4.630  0.9444 -0.0620  0.9579
  379MOL0     H49986   9.732   9.669   4.590  0.8531  0.1741  0.6014
  379MOL0     H49987   9.839   9.625   4.455  0.6881 -1.1010 -0.6971
  379MOL0     H49988   9.775   9.381   4.506  1.5724  0.5944 -0.3264
  379MOL0     H49989   9.664   9.485   4.407 -2.0053  1.1676  1.9117
  379MOL0     H49990   9.368   9.391   4.683 -1.4037  0.2437  0.3388
  379MOL0     H49991   9.205   9.235   4.622  1.0865 -1.0269  1.1101
  379MOL0     H49992   8.944   8.926   4.594 -1.6398  1.6152  0.2799
  379MOL0     H49993   8.758   8.785   4.528 -0.2921 -5.0731 -2.7978
  379MOL0     H49994   8.572   8.660   4.405  2.1035  1.4508  1.5142
  379MOL0     H49995   8.715   8.571   4.398  1.9253  1.1051 -0.9490
  379MOL0     H49996   8.541   8.578   4.160 -2.8367 -2.2092 -0.1851
  379MOL0     H49997   8.519   8.457   4.284 -0.3000  1.0473 -0.5867
  379MOL0     H49998   8.774   8.398   4.242 -0.5891 -1.5213 -0.8054
  379MOL0     H49999   8.764   8.491   4.095 -1.3253 -0.1411 -1.5262
  379MOL0     H50000   8.631   8.226   4.166 -1.7314  0.1378 -1.1533
  379MOL0     H50001   8.570   8.333   4.027  2.3850  3.0941 -1.7396
  379MOL0     H50002   8.840   8.219   4.073 -0.8206 -0.6266  1.1573
  379MOL0     H50003   8.790   8.324   3.932 -0.7612  2.4600  3.3791
  379MOL0     H50004   8.666   8.060   4.021 -1.0423 -1.2531 -0.9809
  379MOL0     H50005   8.786   8.056   3.902  0.0071 -1.5095  1.2609
  379MOL0     H50006   8.601   8.018   3.790  0.2795  0.4949 -4.0185
  379MOL0     H50007   8.507   8.150   3.864  0.5802  0.8030  0.9051
  379MOL0     H50008   8.749   8.225   3.669  0.3919  2.4263 -0.7966
  379MOL0     H50009   8.629   8.332   3.708  0.2123 -0.2589 -0.0546
  379MOL0     H50010   8.852   8.853   4.109 -3.4242  0.0581  0.0798
  379MOL0     H50011   9.020   9.031   4.187 -0.4166  0.4567 -0.2084
  379MOL0     H50012   9.479   9.078   4.324  3.0513 -2.0721  2.4882
  379MOL0     H50013   9.644   9.246   4.390  0.0655 -2.4453 -0.7546
  379MOL0     H50014   9.314  10.598   4.307 -0.7755  1.0859  0.2147
  379MOL0     H50015   9.124  10.580   4.437 -1.4244 -1.0969  1.9481
  379MOL0     H50016   8.940  10.271   4.760  0.0581  0.6353  0.8874
  379MOL0     H50017   8.768  10.285   4.925  0.7450  0.0200 -0.5951
  379MOL0     H50018   8.341  10.302   4.794  1.4287  1.8434 -0.7479
  379MOL0     H50019   8.345  10.440   4.884  1.4663  1.0251 -2.5392
  379MOL0     H50020   8.195  10.236   4.974 -0.7046  3.2618 -2.0148
  379MOL0     H50021   8.356  10.169   5.028 -3.0157 -1.6977  0.5862
  379MOL0     H50022   8.249  10.454   5.101  3.2667  2.0644 -2.7662
  379MOL0     H50023   8.406  10.373   5.124 -0.4658 -2.0742  0.5627
  379MOL0     H50024   8.226  10.184   5.214 -0.1758  0.5152 -1.2782
  379MOL0     H50025   8.321  10.288   5.315 -0.6094  0.6878  0.6909
  379MOL0     H50026   7.901  10.432   5.349  1.2763 -0.5017  2.8875
  379MOL0     H50027   8.472  10.359   4.628  0.7604  1.0767 -1.1757
  379MOL0     H50028   8.654  10.367   4.457  5.6164  3.8058 -0.1605
  380MOL0     O50029   1.334   6.713   1.867 -0.3814 -0.0607 -0.5462
  380MOL0     C50030   1.356   6.602   1.914 -0.1851  0.1490  0.0626
  380MOL0     O50031   1.312   6.556   2.034 -0.0170  0.3269 -0.7099
  380MOL0     C50032   1.261   6.653   2.120  0.1675 -0.8886 -0.8145
  380MOL0     C50033   1.305   6.661   2.254 -0.2001 -0.0597 -0.1974
  380MOL0     C50034   1.233   6.735   2.342 -0.1837 -0.6093 -0.0713
  380MOL0     C50035   1.139   6.820   2.297  0.3780 -0.4399 -1.0776
  380MOL0     O50036   1.092   6.906   2.389 -0.2960 -0.0762 -0.3107
  380MOL0     C50037   1.073   7.049   2.353  0.0481  0.3484 -0.3385
  380MOL0     C50038   0.939   7.078   2.285  0.5470  0.6005  0.2834
  380MOL0     C50039   0.825   6.983   2.322  0.3384  0.0590 -0.0512
  380MOL0     C50040   0.685   7.039   2.271 -0.7945 -0.3008 -1.1393
  380MOL0     C50041   0.580   6.937   2.299  0.1473  0.4734  0.2918
  380MOL0     C50042   0.447   6.971   2.242 -0.6618 -0.4507  0.1773
  380MOL0     C50043   0.383   7.102   2.279 -0.7064 -0.3394 -0.2072
  380MOL0     C50044   0.260   7.138   2.198  0.6774  0.3417  0.2671
  380MOL0     N50045   0.214   7.278   2.209 -0.5198 -0.0187 -0.7115
  380MOL0     C50046   0.293   7.386   2.228  0.0224 -0.1483  1.0014
  380MOL0     C50047   0.201   7.488   2.243 -0.1882  0.9244  0.3295
  380MOL0     C50048   0.221   7.625   2.244  0.0010 -0.8732 -0.1908
  380MOL0     C50049   0.205   7.688   2.111 -1.2221  0.3402 -0.2396
  380MOL0     C50050   0.235   7.849   2.129 -0.0551  0.0900  0.0298
  380MOL0     C50051   0.216   7.912   1.996 -0.4230  0.4425  0.9482
  380MOL0     O50052   0.081   7.904   1.946 -0.0453 -0.4594  0.1506
  380MOL0     C50053   0.045   7.823   1.834 -0.7202  0.1768 -1.0240
  380MOL0     C50054   0.128   7.718   1.788  0.0937 -0.3915  0.6322
  380MOL0     C50055   0.102   7.659   1.670  0.2359  0.7931 -0.2353
  380MOL0     C50056  -0.001   7.704   1.588  0.0261 -0.6289  0.2379
  380MOL0     C50057  -0.020   7.636   1.458 -0.7334 -0.1237 -0.1162
  380MOL0     O50058  -0.132   7.658   1.387 -1.1261 -0.9202 -0.8486
  380MOL0     C50059  -0.164   7.598   1.268  0.2164  0.4009  0.7883
  380MOL0     C50060  -0.084   7.562   1.159 -0.2243  0.3475 -0.0373
  380MOL0     C50061  -0.130   7.489   1.050  0.0448  0.0780 -0.0679
  380MOL0     C50062  -0.265   7.455   1.041 -0.0852 -0.4725  0.0427
  380MOL0     O50063  -0.328   7.390   0.935  0.1018  0.4224 -0.4537
  380MOL0     C50064  -0.255   7.335   0.826 -0.0729  0.2343  0.0667
  380MOL0     C50065  -0.240   7.438   0.711 -0.0983 -0.3001 -0.0257
  380MOL0     C50066  -0.179   7.383   0.581  0.9149  0.0275  0.5220
  380MOL0     C50067  -0.229   7.466   0.464 -0.0500 -0.5813 -0.7827
  380MOL0     C50068  -0.131   7.465   0.355 -0.9543 -0.8621 -0.4950
  380MOL0     C50069  -0.075   7.326   0.306  0.2216  0.3907  0.3218
  380MOL0     C50070  -0.188   7.229   0.277  0.7945 -0.2629 -0.0331
  380MOL0     C50071  -0.132   7.112   0.211  0.0837  0.3448  0.2558
  380MOL0    Cl50072  -0.120   7.140   0.039 -0.3649  0.4227  0.0751
  380MOL0     C50073  -0.344   7.484   1.156 -0.3018 -0.1887  0.2369
  380MOL0     C50074  -0.294   7.565   1.259  0.9802 -1.0550  0.3281
  380MOL0     O50075   0.074   7.565   1.424  0.3703  0.0417 -0.5320
  380MOL0     C50076  -0.100   7.791   1.649  0.5890 -0.0763  0.0775
  380MOL0     C50077  -0.075   7.844   1.771 -0.6358  0.6782  0.1191
  380MOL0     N50078   0.074   7.437   2.220  0.6538  0.3041  0.8832
  380MOL0     N50079   0.081   7.305   2.211 -0.3270  0.2664  0.7063
  380MOL0     C50080   1.083   6.812   2.171 -0.0699  0.8124  0.0699
  380MOL0     C50081   1.143   6.715   2.087 -0.0059  0.5183  0.5080
  380MOL0     C50082   1.439   6.505   1.831  0.2820 -0.2148 -0.6697
  380MOL0     C50083   1.495   6.542   1.705 -0.2410  0.3425  0.3187
  380MOL0     C50084   1.556   6.445   1.622 -0.2911 -0.0682  0.7853
  380MOL0     C50085   1.563   6.305   1.660  0.0690 -0.0202 -0.5046
  380MOL0     O50086   1.603   6.206   1.571 -0.0725  0.1130  0.0171
  380MOL0     C50087   1.705   6.239   1.474  0.4815 -0.0813 -0.4281
  380MOL0     C50088   1.843   6.212   1.517 -0.0237  0.1231 -0.0131
  380MOL0     C50089   1.859   6.064   1.548  0.9385  0.3036 -0.3569
  380MOL0     C50090   2.000   6.019   1.557  0.4193 -0.5627  0.2129
  380MOL0     C50091   2.024   5.882   1.589 -0.1541  0.1623 -0.1557
  380MOL0     C50092   2.035   5.766   1.616 -0.4669  0.1567 -0.0965
  380MOL0     C50093   1.502   6.276   1.783 -1.3933  0.0888  0.4068
  380MOL0     C50094   1.454   6.374   1.874 -0.1680  0.4570  0.1563
  380MOL0     H50095   1.395   6.605   2.276 -0.6227 -1.8838 -2.6909
  380MOL0     H50096   1.259   6.731   2.447  1.7618 -4.6737 -0.4963
  380MOL0     H50097   1.147   7.097   2.288 -0.8341  2.8704  0.3968
  380MOL0     H50098   1.073   7.098   2.451  1.7496  1.2666 -0.7566
  380MOL0     H50099   0.945   7.076   2.176 -1.9637 -3.4565  0.0069
  380MOL0     H50100   0.907   7.175   2.323 -0.8879  0.5090 -0.6185
  380MOL0     H50101   0.823   6.973   2.431  0.2199  1.0605  0.0483
  380MOL0     H50102   0.846   6.880   2.292  4.9626  0.2567  1.7342
  380MOL0     H50103   0.665   7.135   2.319  2.1941  0.3772 -1.0664
  380MOL0     H50104   0.691   7.057   2.163  1.4293 -1.2828 -1.2227
  380MOL0     H50105   0.568   6.911   2.404  1.6262  2.2360  0.9643
  380MOL0     H50106   0.607   6.843   2.251 -0.6397  0.5425 -0.2975
  380MOL0     H50107   0.380   6.890   2.272  1.3690 -1.7860  1.3415
  380MOL0     H50108   0.457   6.979   2.133 -1.1497  0.9875  0.2127
  380MOL0     H50109   0.353   7.109   2.384 -0.4358  1.9074 -0.2348
  380MOL0     H50110   0.452   7.183   2.257 -2.0281  0.3776 -1.9646
  380MOL0     H50111   0.183   7.067   2.226  0.9269  0.0260  0.1518
  380MOL0     H50112   0.285   7.121   2.093 -6.3210  0.3989 -1.9030
  380MOL0     H50113   0.398   7.402   2.205 -0.1810 -0.5785 -0.2839
  380MOL0     H50114   0.317   7.657   2.285 -0.0831  1.8225 -1.8577
  380MOL0     H50115   0.141   7.670   2.303 -0.2678 -0.5208 -0.8056
  380MOL0     H50116   0.101   7.679   2.077 -0.6338  0.1218 -2.1422
  380MOL0     H50117   0.273   7.642   2.039 -0.8854 -2.1443  1.5508
  380MOL0     H50118   0.166   7.904   2.193 -3.0793 -3.5549  0.2925
  380MOL0     H50119   0.341   7.856   2.156 -0.6869  2.1245  2.3259
  380MOL0     H50120   0.287   7.869   1.926 -0.1105  1.1571  0.8134
  380MOL0     H50121   0.244   8.018   2.006 -2.5010  0.8706  3.3577
  380MOL0     H50122   0.216   7.680   1.839  1.5067  0.7961 -0.7874
  380MOL0     H50123   0.158   7.572   1.637 -1.4074  0.2224 -1.6914
  380MOL0     H50124   0.023   7.575   1.164 -0.1685  1.0084 -2.1407
  380MOL0     H50125  -0.060   7.459   0.973 -1.7779 -0.9493 -1.3894
  380MOL0     H50126  -0.316   7.254   0.784 -0.0831  0.7162 -0.8810
  380MOL0     H50127  -0.166   7.282   0.860  0.1430  1.0962  0.9094
  380MOL0     H50128  -0.173   7.520   0.739 -0.0811  0.0542 -1.0824
  380MOL0     H50129  -0.331   7.490   0.681 -0.0949  1.5453  2.7529
  380MOL0     H50130  -0.211   7.280   0.558  2.8181 -0.5069  0.1492
  380MOL0     H50131  -0.070   7.380   0.584  0.9178 -1.8602  0.3138
  380MOL0     H50132  -0.327   7.441   0.422 -1.4663  4.1229 -0.8455
  380MOL0     H50133  -0.250   7.569   0.493 -1.2537 -1.2761  1.0095
  380MOL0     H50134  -0.049   7.529   0.389  0.1229 -2.3769 -0.1484
  380MOL0     H50135  -0.167   7.523   0.269 -0.6537 -2.1755 -1.5268
  380MOL0     H50136  -0.021   7.285   0.391 -0.5113 -1.3056  0.0039
  380MOL0     H50137  -0.001   7.334   0.225  1.8679 -2.2363  1.4501
  380MOL0     H50138  -0.237   7.192   0.368 -0.2506 -2.3282 -1.3461
  380MOL0     H50139  -0.261   7.277   0.211  1.5371 -0.8145 -1.2770
  380MOL0     H50140  -0.201   7.028   0.211  1.9716 -1.3736 -2.4605
  380MOL0     H50141  -0.036   7.086   0.256 -0.1178 -0.2302  0.3569
  380MOL0     H50142  -0.450   7.458   1.150 -0.6606 -1.0427  5.4577
  380MOL0     H50143  -0.359   7.581   1.345  1.2032 -1.7939  0.6432
  380MOL0     H50144  -0.183   7.826   1.588  1.5226  1.4669 -0.3717
  380MOL0     H50145  -0.138   7.922   1.812 -3.6320 -0.4677 -1.9814
  380MOL0     H50146   0.988   6.859   2.147 -1.4093 -1.2924  0.9493
  380MOL0     H50147   1.104   6.696   1.988 -0.3100 -2.9391  1.1842
  380MOL0     H50148   1.495   6.646   1.673 -0.5074  1.4911  3.6389
  380MOL0     H50149   1.584   6.482   1.524  2.5889 -0.2389  1.4466
  380MOL0     H50150   1.703   6.341   1.433  0.2371  0.8847  1.7906
  380MOL0     H50151   1.670   6.186   1.385  1.1567  2.4265 -2.3066
  380MOL0     H50152   1.907   6.256   1.439  1.5462 -0.7002  0.7681
  380MOL0     H50153   1.881   6.273   1.600  3.6513  0.9488 -2.0886
  380MOL0     H50154   1.804   5.999   1.479 -1.9713  0.0716  2.0030
  380MOL0     H50155   1.824   6.045   1.650  0.6149  1.0575 -0.3148
  380MOL0     H50156   2.045   6.050   1.463 -0.6800 -2.4881 -1.0375
  380MOL0     H50157   2.036   6.080   1.640  0.9410 -3.5057  2.3083
  380MOL0     H50158   2.064   5.665   1.637  0.3625  0.3832 -0.1250
  380MOL0     H50159   1.484   6.175   1.818 -1.1520  0.8673  2.9941
  380MOL0     H50160   1.416   6.328   1.965  0.3957  0.9475  0.6480
  381MOL0     O50161   6.746   6.757   0.291  0.4539 -0.3708 -0.0932
  381MOL0     C50162   6.817   6.660   0.309 -0.1079  0.2790  0.1494
  381MOL0     O50163   6.943   6.652   0.364 -0.0459  0.5081 -0.7097
  381MOL0     C50164   6.988   6.729   0.471  0.9774  0.1050  0.9551
  381MOL0     C50165   6.910   6.783   0.570 -0.0835  0.1715  0.5768
  381MOL0     C50166   6.956   6.853   0.681  0.1037  0.0740 -0.4298
  381MOL0     C50167   7.093   6.863   0.702  0.3805  0.2397  0.0280
  381MOL0     O50168   7.156   6.936   0.799 -0.3560 -0.4610  0.0244
  381MOL0     C50169   7.100   6.954   0.929 -0.3930 -0.5944 -0.4522
  381MOL0     C50170   7.078   6.811   0.984 -0.0433 -0.3995 -0.3597
  381MOL0     C50171   7.057   6.806   1.135  1.2619 -0.6160  0.7825
  381MOL0     C50172   6.983   6.685   1.176  0.5751  0.3899  0.2361
  381MOL0     C50173   6.954   6.688   1.331 -0.0088  0.0081  0.7525
  381MOL0     C50174   6.960   6.548   1.407  0.8417  0.2516  1.0857
  381MOL0     C50175   6.847   6.458   1.352 -0.5961 -0.1190  1.0370
  381MOL0     C50176   6.708   6.509   1.366 -0.0757 -1.2097  0.4000
  381MOL0     N50177   6.666   6.516   1.507  0.0625 -0.0855 -0.5739
  381MOL0     C50178   6.577   6.423   1.546  0.5908  0.5537  0.5666
  381MOL0     C50179   6.532   6.465   1.659  0.9688 -0.6180  0.3546
  381MOL0     C50180   6.435   6.380   1.738  0.0397 -0.3923  0.4260
  381MOL0     C50181   6.452   6.397   1.891  0.3283  0.0519  0.8733
  381MOL0     C50182   6.391   6.275   1.961  0.2000 -0.7571  0.3634
  381MOL0     C50183   6.372   6.308   2.107  0.2708  0.9302  1.7663
  381MOL0     O50184   6.371   6.191   2.184 -1.1029  0.9468 -0.1959
  381MOL0     C50185   6.260   6.110   2.203  0.4765  0.1528  0.7141
  381MOL0     C50186   6.267   5.997   2.280  0.3828  0.2707 -0.5147
  381MOL0     C50187   6.157   5.908   2.299 -0.9832 -1.2864  0.2599
  381MOL0     C50188   6.033   5.935   2.242  0.4150 -0.2232 -0.2850
  381MOL0     C50189   5.910   5.861   2.278  0.6250 -0.3455 -0.8824
  381MOL0     O50190   5.793   5.935   2.273 -0.1307 -0.4943  0.0607
  381MOL0     C50191   5.668   5.887   2.286 -0.3031  0.3804 -0.4940
  381MOL0     C50192   5.626   5.756   2.245  0.6900 -0.4416  0.4493
  381MOL0     C50193   5.496   5.713   2.246  1.1297 -0.1412 -0.4802
  381MOL0     C50194   5.398   5.802   2.305 -0.9603  0.6271  0.3146
  381MOL0     O50195   5.265   5.766   2.309 -0.6757 -0.0052  0.3525
  381MOL0     C50196   5.226   5.629   2.346  0.4949 -0.2709  0.3857
  381MOL0     C50197   5.094   5.632   2.425  0.5001  0.0473  0.0705
  381MOL0     C50198   5.048   5.757   2.494 -0.0680  1.2344  0.0161
  381MOL0     C50199   4.961   5.728   2.614  0.1828 -0.1841 -0.1762
  381MOL0     C50200   4.815   5.761   2.591  0.3135  0.6840 -0.1039
  381MOL0     C50201   4.744   5.657   2.498 -0.0112  0.3375  0.2509
  381MOL0     C50202   4.599   5.657   2.501  0.6773  0.1908  0.9598
  381MOL0     C50203   4.525   5.600   2.623 -0.0055 -0.3524 -1.4081
  381MOL0    Cl50204   4.354   5.612   2.592 -0.2170 -0.2168  0.0171
  381MOL0     C50205   5.437   5.927   2.355 -0.4375  0.1907 -0.7188
  381MOL0     C50206   5.572   5.969   2.338  0.7699  0.6078 -0.3069
  381MOL0     O50207   5.908   5.744   2.325  0.3841  0.2772  0.2683
  381MOL0     C50208   6.019   6.053   2.163 -0.4741  0.6066  0.1215
  381MOL0     C50209   6.136   6.133   2.145 -0.4275  0.3109 -0.6043
  381MOL0     N50210   6.582   6.591   1.685 -0.3947 -0.9411 -0.4059
  381MOL0     N50211   6.662   6.627   1.589  0.2298 -0.0624  0.1892
  381MOL0     C50212   7.176   6.811   0.604  0.5618  0.3138  0.2747
  381MOL0     C50213   7.128   6.744   0.487  0.4748  0.7844 -0.1385
  381MOL0     C50214   6.769   6.532   0.251  0.3808 -0.1728  0.6445
  381MOL0     C50215   6.842   6.420   0.283 -0.6647  0.1279  0.2125
  381MOL0     C50216   6.822   6.302   0.217  0.3662  0.0985  0.3552
  381MOL0     C50217   6.721   6.289   0.126  0.4235 -0.2398  0.6443
  381MOL0     O50218   6.712   6.169   0.059  0.3945  0.0210 -0.0747
  381MOL0     C50219   6.591   6.125  -0.004 -0.7845 -0.4791 -0.2788
  381MOL0     C50220   6.527   6.033   0.099  0.7652 -1.1843 -0.1289
  381MOL0     C50221   6.391   5.968   0.048 -0.4959 -0.0375  0.6900
  381MOL0     C50222   6.392   5.894  -0.083  0.3664 -0.4472 -0.2440
  381MOL0     C50223   6.276   5.801  -0.099 -0.5827  0.4200  0.2168
  381MOL0     C50224   6.185   5.718  -0.108  0.1077  0.1287 -0.4580
  381MOL0     C50225   6.646   6.398   0.090  1.4634 -0.3818 -0.3166
  381MOL0     C50226   6.663   6.522   0.153 -0.1731  0.1897 -0.2155
  381MOL0     H50227   6.804   6.762   0.561  0.0246 -0.4698  0.7195
  381MOL0     H50228   6.914   6.900   0.770  3.1895  1.1209  0.5862
  381MOL0     H50229   7.006   7.011   0.922 -0.7772 -1.2442 -0.6801
  381MOL0     H50230   7.177   6.999   0.992  1.9436 -4.5093 -0.2399
  381MOL0     H50231   7.170   6.753   0.974  0.7809  0.1337  2.8197
  381MOL0     H50232   7.001   6.765   0.923 -0.0542  0.4839 -1.0318
  381MOL0     H50233   6.991   6.891   1.157  2.7036  1.0528 -1.0020
  381MOL0     H50234   7.155   6.820   1.181 -0.1406  3.8806  3.0290
  381MOL0     H50235   6.882   6.670   1.135 -0.0691  3.1975  0.6390
  381MOL0     H50236   7.038   6.594   1.147 -1.4328 -1.1050  0.8582
  381MOL0     H50237   6.866   6.751   1.348 -0.5227 -1.0733  2.3348
  381MOL0     H50238   7.039   6.747   1.366  1.5103 -0.5515 -1.7821
  381MOL0     H50239   6.948   6.549   1.516  0.4522  0.6510  1.0398
  381MOL0     H50240   7.062   6.508   1.400  2.2371  3.4994  1.0147
  381MOL0     H50241   6.866   6.457   1.244 -0.9998  0.4802  0.9599
  381MOL0     H50242   6.855   6.355   1.387  0.9576 -1.6009 -2.9946
  381MOL0     H50243   6.640   6.438   1.317 -2.1437  0.6904  0.3556
  381MOL0     H50244   6.691   6.605   1.317 -3.6743 -2.3695 -0.9663
  381MOL0     H50245   6.552   6.330   1.495 -1.6909  1.6854 -0.5536
  381MOL0     H50246   6.457   6.274   1.723 -1.7065 -0.9752  1.5967
  381MOL0     H50247   6.332   6.406   1.711  0.7883  2.3008 -0.1711
  381MOL0     H50248   6.403   6.493   1.910 -0.3560  0.5313 -2.5606
  381MOL0     H50249   6.560   6.404   1.904  0.1189  1.6205  2.0599
  381MOL0     H50250   6.292   6.247   1.924 -0.2817 -1.3138  1.9962
  381MOL0     H50251   6.448   6.182   1.953 -0.6345 -1.3281  0.8959
  381MOL0     H50252   6.283   6.370   2.116  0.5184  1.4376  0.8385
  381MOL0     H50253   6.462   6.365   2.132  1.6674  1.2462 -2.8655
  381MOL0     H50254   6.358   5.987   2.338  0.1355  1.1433  0.0488
  381MOL0     H50255   6.175   5.839   2.381 -1.3203 -0.6503  0.8802
  381MOL0     H50256   5.711   5.693   2.224  2.0317  1.9018 -1.7172
  381MOL0     H50257   5.477   5.614   2.206  3.2267 -1.0142  0.5573
  381MOL0     H50258   5.300   5.578   2.408  0.1005  0.6294  1.6436
  381MOL0     H50259   5.215   5.564   2.259 -1.2772 -1.4702  1.4277
  381MOL0     H50260   5.086   5.555   2.502  2.8450  1.5719  1.9726
  381MOL0     H50261   5.012   5.607   2.357  0.6155  1.1748 -0.5282
  381MOL0     H50262   5.002   5.823   2.420  1.1900 -1.1913 -3.1635
  381MOL0     H50263   5.138   5.808   2.530  0.5727  1.0122 -1.2282
  381MOL0     H50264   4.961   5.622   2.642 -0.5020  0.0120  0.6232
  381MOL0     H50265   5.005   5.784   2.698  0.8735  0.1074 -0.7171
  381MOL0     H50266   4.790   5.863   2.561 -0.6514  0.0187 -1.6850
  381MOL0     H50267   4.765   5.737   2.685 -0.5711 -3.4010 -1.4297
  381MOL0     H50268   4.782   5.556   2.519 -0.0181  0.2019 -0.3623
  381MOL0     H50269   4.773   5.676   2.394 -0.4405  3.3603  0.5860
  381MOL0     H50270   4.552   5.754   2.484  1.0857  0.2972  0.3871
  381MOL0     H50271   4.575   5.590   2.418 -0.9036  3.1544 -1.1434
  381MOL0     H50272   4.562   5.647   2.714 -0.9310 -0.7139 -0.8225
  381MOL0     H50273   4.548   5.495   2.643 -1.4621 -0.4391  0.0248
  381MOL0     H50274   5.360   5.996   2.389  0.4546  0.3466  1.1204
  381MOL0     H50275   5.569   6.074   2.363  0.6449  0.4817  0.2268
  381MOL0     H50276   5.935   6.082   2.101  1.3058  2.0300 -1.7870
  381MOL0     H50277   6.121   6.210   2.070 -2.8796  1.0145  0.4839
  381MOL0     H50278   7.282   6.815   0.627  0.8321  2.8915 -0.9900
  381MOL0     H50279   7.196   6.700   0.415 -0.1500  3.4200 -2.4978
  381MOL0     H50280   6.919   6.426   0.360 -0.3709 -1.3947  0.0755
  381MOL0     H50281   6.875   6.218   0.261  2.3241  1.4029  0.5657
  381MOL0     H50282   6.617   6.076  -0.098  1.8960  2.3706 -1.2233
  381MOL0     H50283   6.522   6.205  -0.033  1.1810  2.5099  2.5388
  381MOL0     H50284   6.593   5.954   0.135 -3.3095 -3.8476  2.3611
  381MOL0     H50285   6.513   6.093   0.190  5.1776 -0.4443  0.2610
  381MOL0     H50286   6.312   6.042   0.036 -1.1016 -1.1593 -3.5849
  381MOL0     H50287   6.371   5.903   0.133  2.8376  0.1639  1.7951
  381MOL0     H50288   6.399   5.959  -0.171  1.3719 -0.0796  0.0937
  381MOL0     H50289   6.482   5.834  -0.094  0.4207 -1.1084  2.8159
  381MOL0     H50290   6.113   5.639  -0.117  1.8539 -1.5649 -0.1159
  381MOL0     H50291   6.571   6.398   0.012  2.4908  0.3156 -1.3524
  381MOL0     H50292   6.595   6.602   0.127  0.6760  0.8611 -0.4275
  382MOL0     O50293   5.356   6.937   4.432 -0.5232 -0.5594 -0.4658
  382MOL0     C50294   5.409   6.936   4.327  1.3816 -0.3473  0.4056
  382MOL0     O50295   5.530   6.879   4.301 -0.4889  0.1560 -0.5954
  382MOL0     C50296   5.622   6.877   4.409  0.7483  0.6363  0.5957
  382MOL0     C50297   5.674   6.749   4.431 -0.4783  0.3213  0.2369
  382MOL0     C50298   5.788   6.738   4.517  0.9377  0.4321  0.2711
  382MOL0     C50299   5.836   6.855   4.581 -0.6873  0.0959 -0.6936
  382MOL0     O50300   5.944   6.854   4.659 -0.1021  0.9803  0.4313
  382MOL0     C50301   5.990   6.730   4.722  0.5680  0.8834 -0.9124
  382MOL0     C50302   5.910   6.670   4.832 -0.8866  0.8359  0.0122
  382MOL0     C50303   5.905   6.770   4.950  0.5972 -1.1383 -0.6169
  382MOL0     C50304   5.889   6.679   5.079  0.7458  0.5582  0.5871
  382MOL0     C50305   5.882   6.753   5.212  0.3158  0.0032 -0.1934
  382MOL0     C50306   6.020   6.814   5.252  0.3455 -0.5264  0.1235
  382MOL0     C50307   6.034   6.876   5.390  0.4316 -0.3644 -0.0707
  382MOL0     C50308   5.963   7.019   5.403 -0.6230  0.6155 -0.6807
  382MOL0     N50309   5.818   7.018   5.405 -0.0937  0.7024 -0.6251
  382MOL0     C50310   5.733   6.964   5.509 -0.7030 -0.0519 -0.6381
  382MOL0     C50311   5.603   6.977   5.468 -0.0851 -1.1963  0.1268
  382MOL0     C50312   5.486   6.941   5.548 -0.1403 -0.4428  0.6321
  382MOL0     C50313   5.401   7.069   5.591 -1.1601 -1.1933  0.3864
  382MOL0     C50314   5.279   7.049   5.681 -0.1992 -0.2092  0.3956
  382MOL0     C50315   5.181   7.165   5.659  0.1490  0.8134  0.4388
  382MOL0     O50316   5.083   7.169   5.768  0.4997  0.5137  0.7733
  382MOL0     C50317   4.968   7.099   5.762  0.6016  1.0303 -0.5467
  382MOL0     C50318   4.864   7.132   5.849 -1.0312 -1.2420 -0.3517
  382MOL0     C50319   4.742   7.066   5.843  0.9093 -0.7133 -0.4952
  382MOL0     C50320   4.717   6.961   5.753  0.3203 -0.0610 -0.1463
  382MOL0     C50321   4.583   6.915   5.742 -0.6772 -0.5396 -0.4799
  382MOL0     O50322   4.501   6.918   5.854  0.6626  0.5408  0.6988
  382MOL0     C50323   4.364   6.868   5.836 -0.9816 -0.5170 -0.3038
  382MOL0     C50324   4.290   6.893   5.722 -0.5277  0.1575  1.4763
  382MOL0     C50325   4.154   6.863   5.709  0.0212 -0.9485  0.6936
  382MOL0     C50326   4.095   6.801   5.820 -0.6025  0.3083  0.0955
  382MOL0     O50327   3.961   6.752   5.832 -0.0602  0.2643  0.7185
  382MOL0     C50328   3.878   6.724   5.717 -0.5206 -0.1825 -0.0984
  382MOL0     C50329   3.937   6.613   5.621 -0.0578  0.9263 -0.3426
  382MOL0     C50330   3.959   6.476   5.687 -0.0169  0.8782  0.4329
  382MOL0     C50331   3.990   6.362   5.596 -1.1802 -0.9002 -0.5663
  382MOL0     C50332   4.005   6.224   5.652 -0.4276 -0.0221 -1.4463
  382MOL0     C50333   4.076   6.121   5.561  0.4751  0.0374 -0.3749
  382MOL0     C50334   4.001   6.118   5.425  0.5327  0.3799  0.0708
  382MOL0     C50335   4.060   5.997   5.347  0.2836  0.8772  0.0314
  382MOL0    Cl50336   4.021   6.004   5.161  0.4779  0.0100 -0.0221
  382MOL0     C50337   4.179   6.759   5.925  0.3526  0.0228 -1.0398
  382MOL0     C50338   4.311   6.794   5.936  0.2413  0.3441 -0.8758
  382MOL0     O50339   4.555   6.878   5.628 -0.0429 -0.8050 -0.1210
  382MOL0     C50340   4.824   6.925   5.664  0.4752 -0.2415 -0.3707
  382MOL0     C50341   4.940   6.995   5.672 -0.7394  0.4522  0.2401
  382MOL0     N50342   5.606   7.039   5.345 -0.1494  0.8221 -0.7159
  382MOL0     N50343   5.726   7.063   5.308  0.0373  0.5024 -0.3846
  382MOL0     C50344   5.768   6.977   4.573  0.2213  0.3590 -0.6282
  382MOL0     C50345   5.664   6.987   4.480 -0.2453 -1.5200 -0.2337
  382MOL0     C50346   5.322   6.977   4.214 -0.6324 -0.0627  0.0601
  382MOL0     C50347   5.192   7.028   4.230  0.2356  1.0560 -0.1693
  382MOL0     C50348   5.105   7.061   4.126 -0.5296  0.0387  0.0195
  382MOL0     C50349   5.148   7.056   4.001  0.0960  0.1036  1.3482
  382MOL0     O50350   5.052   7.062   3.897  0.2364  0.3869 -0.6959
  382MOL0     C50351   5.073   7.006   3.765  0.2407 -0.7715 -0.7148
  382MOL0     C50352   5.071   6.856   3.768 -0.7471  0.6906  0.3324
  382MOL0     C50353   5.095   6.784   3.643 -0.7682 -0.3452 -0.1626
  382MOL0     C50354   5.046   6.637   3.642 -0.4448 -0.4327  0.3947
  382MOL0     C50355   5.107   6.561   3.526 -0.4406 -0.4668  0.0788
  382MOL0     C50356   5.165   6.499   3.443 -0.0969  0.4747  0.1559
  382MOL0     C50357   5.282   7.013   3.975  0.7161 -0.0630 -0.6132
  382MOL0     C50358   5.368   6.982   4.082  0.3511  0.4317 -0.1525
  382MOL0     H50359   5.657   6.674   4.355  0.9228 -0.1579  0.3630
  382MOL0     H50360   5.843   6.644   4.519 -0.7772 -0.6121  0.0037
  382MOL0     H50361   6.088   6.750   4.766  0.4903 -1.7725  0.6739
  382MOL0     H50362   6.014   6.651   4.650 -2.3541 -1.1905  0.1728
  382MOL0     H50363   5.949   6.573   4.863 -0.1432  1.1855  0.1949
  382MOL0     H50364   5.810   6.649   4.792 -1.7001  1.3442  1.7002
  382MOL0     H50365   5.824   6.844   4.945  0.8138 -0.8346  0.2681
  382MOL0     H50366   5.995   6.830   4.956  1.1179 -1.7985 -1.5353
  382MOL0     H50367   5.798   6.621   5.064  0.4775  0.4922  2.3554
  382MOL0     H50368   5.974   6.609   5.077  1.2942  1.2025  0.7636
  382MOL0     H50369   5.850   6.685   5.292  0.7556  1.1064  0.9496
  382MOL0     H50370   5.814   6.838   5.198 -0.1315 -0.3119  0.0432
  382MOL0     H50371   6.042   6.898   5.185 -0.9275  0.8452  1.3353
  382MOL0     H50372   6.091   6.733   5.238  2.3220  0.8905  1.4604
  382MOL0     H50373   5.989   6.809   5.464  2.4180  0.6730  2.2085
  382MOL0     H50374   6.139   6.881   5.419  1.1074  2.3182 -2.5830
  382MOL0     H50375   5.988   7.091   5.324 -0.4118  0.4010 -0.8119
  382MOL0     H50376   5.988   7.060   5.501  3.7337 -1.9051 -0.4677
  382MOL0     H50377   5.766   6.928   5.606 -1.3000 -1.9999 -1.1116
  382MOL0     H50378   5.515   6.886   5.638 -0.5531 -1.0421  0.4033
  382MOL0     H50379   5.428   6.882   5.477 -3.2274  0.5154  2.1693
  382MOL0     H50380   5.372   7.127   5.503 -0.2077 -1.9769 -0.4807
  382MOL0     H50381   5.468   7.126   5.657 -1.0046 -1.5407  0.5304
  382MOL0     H50382   5.228   6.963   5.636 -1.0050  0.7690 -0.6185
  382MOL0     H50383   5.316   7.026   5.781  0.3088  0.8063  0.4583
  382MOL0     H50384   5.138   7.144   5.560  0.2023 -0.4241  0.6673
  382MOL0     H50385   5.242   7.256   5.654  2.1757 -0.3284  2.4773
  382MOL0     H50386   4.873   7.218   5.915  1.0726 -1.0695 -0.8105
  382MOL0     H50387   4.661   7.104   5.904  0.2198  2.0146 -2.8830
  382MOL0     H50388   4.330   6.944   5.635 -0.7378  1.9247  2.3635
  382MOL0     H50389   4.104   6.882   5.615  2.3023  0.9579 -0.2298
  382MOL0     H50390   3.856   6.819   5.667 -0.0152  0.6819  1.2491
  382MOL0     H50391   3.784   6.686   5.756  2.0906 -2.1873  5.2500
  382MOL0     H50392   4.027   6.646   5.569 -0.8292  3.4818 -0.1917
  382MOL0     H50393   3.883   6.599   5.527  0.9214 -0.9927 -0.6848
  382MOL0     H50394   3.875   6.443   5.749 -0.8854  1.6637 -0.2994
  382MOL0     H50395   4.045   6.493   5.753 -1.1099  1.3200  1.7959
  382MOL0     H50396   3.906   6.369   5.526  2.0346  0.1087 -4.6762
  382MOL0     H50397   4.079   6.394   5.542 -1.2661 -2.1890 -1.5259
  382MOL0     H50398   3.905   6.193   5.684  1.1114 -3.4301  0.7468
  382MOL0     H50399   4.064   6.237   5.744 -1.8882 -2.4698 -0.0673
  382MOL0     H50400   4.066   6.021   5.605 -1.4706  0.9891  1.6180
  382MOL0     H50401   4.181   6.150   5.560  1.2845 -2.6438 -0.1152
  382MOL0     H50402   3.894   6.096   5.438 -0.7707  4.1341 -2.5746
  382MOL0     H50403   4.012   6.213   5.372  1.8006 -0.6041 -1.5170
  382MOL0     H50404   4.019   5.906   5.392 -1.2179  0.1090 -2.6912
  382MOL0     H50405   4.170   5.990   5.345  0.3105  1.1347  0.4264
  382MOL0     H50406   4.154   6.698   6.011  1.9390  1.1318  0.2774
  382MOL0     H50407   4.352   6.781   6.036 -1.5398  2.9867  0.3318
  382MOL0     H50408   4.805   6.844   5.595 -0.4011 -1.1118  0.8347
  382MOL0     H50409   5.005   6.965   5.591  0.1088  1.7931  0.4075
  382MOL0     H50410   5.799   7.059   4.638  1.1560 -0.8159  0.4546
  382MOL0     H50411   5.616   7.084   4.472  0.4187 -1.0088  1.5534
  382MOL0     H50412   5.161   7.043   4.333 -0.2441 -0.9178  0.0138
  382MOL0     H50413   5.003   7.091   4.148 -0.2459  1.1257 -0.1117
  382MOL0     H50414   5.156   7.059   3.718 -0.8649 -0.1254 -2.0155
  382MOL0     H50415   4.992   7.035   3.697 -0.1699  1.3926  0.6186
  382MOL0     H50416   5.141   6.809   3.838  1.4286 -0.4266 -2.3947
  382MOL0     H50417   4.974   6.826   3.807 -0.5555  1.3445  1.3762
  382MOL0     H50418   5.204   6.787   3.636 -0.8020 -1.1054 -1.3883
  382MOL0     H50419   5.046   6.837   3.561  1.2107  0.1605 -1.0803
  382MOL0     H50420   5.075   6.583   3.733 -1.8476 -0.5937  0.7647
  382MOL0     H50421   4.937   6.637   3.634 -0.4601  0.9144  0.3579
  382MOL0     H50422   5.200   6.434   3.365 -3.3008 -1.3213  0.0639
  382MOL0     H50423   5.313   7.012   3.871 -0.5377 -1.0989 -0.9970
  382MOL0     H50424   5.465   6.952   4.044  0.0125  1.5764 -2.0706
  383MOL0     O50425   8.175   0.998   1.258  0.1941 -0.5847 -0.8020
  383MOL0     C50426   8.193   0.976   1.136 -0.5188 -0.9258  0.3975
  383MOL0     O50427   8.178   1.063   1.037  0.3611 -0.5448  0.4433
  383MOL0     C50428   8.137   1.192   1.054 -0.7662 -0.6098 -0.4562
  383MOL0     C50429   8.048   1.249   0.968 -0.8848 -0.6116 -0.3065
  383MOL0     C50430   8.013   1.383   0.970 -0.2465  0.4096  0.1360
  383MOL0     C50431   8.087   1.471   1.044  0.3624 -0.5297 -0.2218
  383MOL0     O50432   8.064   1.604   1.031 -0.3449  0.4653 -0.5230
  383MOL0     C50433   7.974   1.660   1.131 -0.3724  0.6826 -0.3036
  383MOL0     C50434   7.984   1.816   1.140 -0.3205  0.7296 -0.0887
  383MOL0     C50435   7.949   1.870   0.997  0.3822  0.1583 -1.5594
  383MOL0     C50436   7.894   2.007   0.998 -0.9679  0.9193 -0.9118
  383MOL0     C50437   7.907   2.092   0.877  1.1742 -1.1486  0.8644
  383MOL0     C50438   7.806   2.042   0.772 -0.4902 -0.1806  0.6975
  383MOL0     C50439   7.840   2.082   0.634 -0.0079 -0.0823  0.4100
  383MOL0     C50440   7.743   2.042   0.537 -0.2310  0.2634  0.2102
  383MOL0     N50441   7.774   2.123   0.421 -0.8801 -0.3444  0.1402
  383MOL0     C50442   7.835   2.075   0.299  0.4394  0.4408 -0.7790
  383MOL0     C50443   7.863   2.186   0.230  0.3602  0.4060 -0.0137
  383MOL0     C50444   7.930   2.198   0.095  0.2719  0.8571  0.5524
  383MOL0     C50445   8.044   2.304   0.085  0.1838  0.8409 -0.7994
  383MOL0     C50446   8.117   2.293  -0.046 -0.4823  0.3076  0.7158
  383MOL0     C50447   8.150   2.437  -0.086 -0.3157  0.0736 -0.7149
  383MOL0     O50448   8.232   2.449  -0.196  0.2020  0.3830  0.1841
  383MOL0     C50449   8.175   2.396  -0.314  0.1922 -0.4668 -0.5348
  383MOL0     C50450   8.273   2.337  -0.398 -0.0206  0.3727 -0.1540
  383MOL0     C50451   8.242   2.301  -0.532  0.3029 -0.3353  0.6076
  383MOL0     C50452   8.115   2.333  -0.583  0.2033 -0.6846  0.0411
  383MOL0     C50453   8.082   2.316  -0.727  0.5609  0.6214 -0.6836
  383MOL0     O50454   7.955   2.339  -0.754  0.1166  0.1017 -0.0396
  383MOL0     C50455   7.905   2.336  -0.883 -0.4041  0.4349 -0.2432
  383MOL0     C50456   7.905   2.221  -0.956 -0.1529 -0.1848 -0.4561
  383MOL0     C50457   7.827   2.208  -1.067  0.5072 -0.4967 -0.4532
  383MOL0     C50458   7.749   2.315  -1.114 -1.7440  0.0851  0.1051
  383MOL0     O50459   7.674   2.317  -1.223 -0.2711 -0.4569  0.8623
  383MOL0     C50460   7.726   2.303  -1.354 -0.0553 -0.4251  0.0735
  383MOL0     C50461   7.632   2.354  -1.470  1.1052 -0.5667 -0.7417
  383MOL0     C50462   7.523   2.260  -1.497 -0.5532 -0.0492 -0.1949
  383MOL0     C50463   7.389   2.287  -1.420 -1.2754 -0.0800 -0.4618
  383MOL0     C50464   7.325   2.150  -1.367  0.8031 -0.3460  0.5989
  383MOL0     C50465   7.382   2.078  -1.237  0.0347 -0.0305  0.2910
  383MOL0     C50466   7.366   2.172  -1.122  0.3685  0.1053  0.1864
  383MOL0     C50467   7.405   2.106  -0.993  0.1466  0.5500 -0.0362
  383MOL0    Cl50468   7.322   1.948  -0.975  0.0285 -0.7371  0.1985
  383MOL0     C50469   7.743   2.432  -1.039  0.0639  0.0000 -0.0269
  383MOL0     C50470   7.822   2.443  -0.927  0.9728  0.7301  0.3171
  383MOL0     O50471   8.165   2.276  -0.807  0.3472 -0.7598 -0.3979
  383MOL0     C50472   8.016   2.397  -0.493  0.1284  0.2495 -0.5581
  383MOL0     C50473   8.053   2.426  -0.359  0.8437 -0.3597  0.4178
  383MOL0     N50474   7.792   2.286   0.288  0.8369  0.1348  0.0318
  383MOL0     N50475   7.737   2.256   0.401 -0.4612  0.1511 -0.9692
  383MOL0     C50476   8.189   1.426   1.128 -0.1226 -0.4590  0.5401
  383MOL0     C50477   8.213   1.285   1.133 -0.0737 -0.0655  0.5207
  383MOL0     C50478   8.252   0.839   1.112  1.4545 -0.8750 -0.3425
  383MOL0     C50479   8.248   0.733   1.203  0.9253  0.2455 -0.6130
  383MOL0     C50480   8.295   0.603   1.179  0.0155 -0.4295 -0.8755
  383MOL0     C50481   8.343   0.571   1.051  0.1379  1.0593 -0.6614
  383MOL0     O50482   8.407   0.451   1.028  0.5235 -0.0818  0.0926
  383MOL0     C50483   8.307   0.347   1.047  0.7678 -0.1044  0.1011
  383MOL0     C50484   8.323   0.258   1.168  0.1686 -0.2430 -0.0127
  383MOL0     C50485   8.448   0.168   1.157 -0.4529 -0.7764 -0.2872
  383MOL0     C50486   8.440   0.054   1.265  0.2544 -0.3669 -0.2075
  383MOL0     C50487   8.333  -0.038   1.222  0.3069  0.4263  0.0953
  383MOL0     C50488   8.235  -0.101   1.182  0.4297  0.3137 -0.5878
  383MOL0     C50489   8.339   0.673   0.963 -0.1358  0.2999  0.8117
  383MOL0     C50490   8.305   0.807   0.989 -0.8596 -0.8370 -0.2914
  383MOL0     H50491   8.011   1.181   0.891  1.9154 -0.4424 -1.9562
  383MOL0     H50492   7.947   1.415   0.890 -1.7928 -0.0098  1.1911
  383MOL0     H50493   7.993   1.621   1.231 -3.1014 -0.4091 -0.1292
  383MOL0     H50494   7.872   1.639   1.099 -0.2301 -2.4699  1.0033
  383MOL0     H50495   8.081   1.859   1.165  0.2488  0.3089 -1.4711
  383MOL0     H50496   7.916   1.856   1.217  0.7335  1.5635  0.4316
  383MOL0     H50497   7.874   1.805   0.952  3.8774 -1.9192 -5.0617
  383MOL0     H50498   8.035   1.856   0.930 -1.3944  3.0375 -4.7326
  383MOL0     H50499   7.788   1.996   1.023 -0.6403 -0.8931 -0.1039
  383MOL0     H50500   7.938   2.059   1.084 -4.1730  1.9673  0.2456
  383MOL0     H50501   8.010   2.095   0.843  0.8197  0.8658 -0.2000
  383MOL0     H50502   7.880   2.194   0.908  1.4855 -1.2112  1.3377
  383MOL0     H50503   7.702   2.063   0.795 -1.0986 -3.6258  1.6107
  383MOL0     H50504   7.809   1.933   0.784  1.6612 -0.1878  0.5177
  383MOL0     H50505   7.864   2.189   0.634  0.7777 -0.2178 -1.4416
  383MOL0     H50506   7.934   2.033   0.606 -1.4570 -3.1459  0.5933
  383MOL0     H50507   7.639   2.061   0.564  0.1161 -0.0217  1.8506
  383MOL0     H50508   7.749   1.935   0.516 -1.1299  0.2426  0.0167
  383MOL0     H50509   7.867   1.973   0.282  1.2414  0.5612 -0.0871
  383MOL0     H50510   7.850   2.226   0.026 -1.8741 -4.2823  0.5482
  383MOL0     H50511   7.965   2.095   0.090 -1.2894  0.1322  2.8824
  383MOL0     H50512   8.114   2.269   0.162 -0.0510 -1.5419 -1.5798
  383MOL0     H50513   8.007   2.402   0.116  0.5790 -0.1071  3.2656
  383MOL0     H50514   8.209   2.233  -0.043 -0.7844 -0.2214 -0.3335
  383MOL0     H50515   8.064   2.244  -0.128  1.9266 -1.8592  0.2994
  383MOL0     H50516   8.212   2.472  -0.003  1.0480 -0.2053 -1.5803
  383MOL0     H50517   8.065   2.506  -0.090  0.3384  0.8717 -1.5124
  383MOL0     H50518   8.375   2.319  -0.365 -0.6916 -1.0676  1.2610
  383MOL0     H50519   8.322   2.258  -0.592 -0.2071  0.7497 -0.9189
  383MOL0     H50520   7.961   2.132  -0.930 -2.2491 -1.1630  0.9930
  383MOL0     H50521   7.834   2.125  -1.137 -1.1060 -1.0040 -0.0502
  383MOL0     H50522   7.753   2.200  -1.381 -1.1125  0.2570 -4.3136
  383MOL0     H50523   7.822   2.356  -1.358  1.9392 -3.7441 -0.9259
  383MOL0     H50524   7.691   2.368  -1.561 -0.0069  2.6498 -1.0948
  383MOL0     H50525   7.584   2.450  -1.445 -0.1924 -1.4787  0.4050
  383MOL0     H50526   7.558   2.157  -1.496  0.8063  0.1311 -4.9465
  383MOL0     H50527   7.509   2.279  -1.603  0.4470  0.2627 -0.2847
  383MOL0     H50528   7.384   2.362  -1.342 -2.9056 -0.9957  0.3564
  383MOL0     H50529   7.313   2.332  -1.484 -0.9728 -1.8763 -2.1954
  383MOL0     H50530   7.326   2.080  -1.451  3.5926  0.9402 -0.5480
  383MOL0     H50531   7.217   2.159  -1.352  0.4006 -3.1695 -0.0035
  383MOL0     H50532   7.484   2.049  -1.265 -0.1680  0.0713 -0.5636
  383MOL0     H50533   7.319   1.989  -1.236 -0.7025  0.2440 -4.1836
  383MOL0     H50534   7.424   2.263  -1.140  2.0090 -0.8616  0.3688
  383MOL0     H50535   7.261   2.203  -1.118  0.5415  0.8525 -0.7432
  383MOL0     H50536   7.352   2.166  -0.919  0.0242  1.7094 -1.0263
  383MOL0     H50537   7.515   2.106  -0.996  0.1954 -2.5310 -1.3185
  383MOL0     H50538   7.675   2.510  -1.073 -0.0827 -0.6683 -1.3373
  383MOL0     H50539   7.827   2.540  -0.879  0.9851 -0.8191  3.7266
  383MOL0     H50540   7.923   2.424  -0.541  0.3001 -1.2435 -1.7770
  383MOL0     H50541   7.982   2.488  -0.305 -0.8608 -2.7811  1.1600
  383MOL0     H50542   8.253   1.493   1.184 -1.1386  2.7478 -1.8120
  383MOL0     H50543   8.285   1.250   1.207 -2.8421  0.2566  3.5689
  383MOL0     H50544   8.208   0.766   1.298 -0.5552 -1.1114 -0.7223
  383MOL0     H50545   8.307   0.541   1.267  0.5660  0.7344 -0.1115
  383MOL0     H50546   8.327   0.288   0.956  0.3228 -0.0317 -0.0418
  383MOL0     H50547   8.204   0.381   1.041  1.6877  2.8233 -0.5860
  383MOL0     H50548   8.319   0.311   1.264 -0.3108  3.2977 -1.8112
  383MOL0     H50549   8.238   0.191   1.183  0.7590 -0.8613  0.6463
  383MOL0     H50550   8.540   0.223   1.181 -1.2390 -0.1350  1.4486
  383MOL0     H50551   8.456   0.135   1.053 -1.1987  0.5068 -0.7768
  383MOL0     H50552   8.537   0.002   1.260  2.5027  3.4426 -0.5298
  383MOL0     H50553   8.422   0.100   1.363 -1.5656 -0.2257 -0.5778
  383MOL0     H50554   8.141  -0.153   1.176  0.3134  0.1309  1.7950
  383MOL0     H50555   8.365   0.650   0.861  1.4708  1.4451  0.9218
  383MOL0     H50556   8.331   0.878   0.910  1.0404 -2.7292 -1.4894
  384MOL0     O50557   7.471   4.843  11.374 -0.4628 -0.1162 -0.1684
  384MOL0     C50558   7.360   4.820  11.410 -0.2669  0.0316 -0.6064
  384MOL0     O50559   7.246   4.826  11.338 -0.3952 -0.2147  0.2824
  384MOL0     C50560   7.239   4.879  11.212  0.1589  0.8815  0.0646
  384MOL0     C50561   7.113   4.848  11.159 -0.3470 -0.0230 -0.4644
  384MOL0     C50562   7.085   4.890  11.025 -0.0766 -0.8538  0.6821
  384MOL0     C50563   7.175   4.959  10.947 -0.6772 -0.2870 -0.5835
  384MOL0     O50564   7.156   4.986  10.816 -0.0558 -0.1941  0.3405
  384MOL0     C50565   7.165   4.879  10.718  0.7962 -0.3095 -0.5383
  384MOL0     C50566   7.045   4.869  10.626 -0.4098 -0.8161  0.3486
  384MOL0     C50567   6.916   4.831  10.702 -0.3514  0.9069 -0.2382
  384MOL0     C50568   6.786   4.836  10.621  0.4366 -0.1253 -0.0421
  384MOL0     C50569   6.661   4.831  10.708  0.2000  0.7101  0.1395
  384MOL0     C50570   6.536   4.899  10.645 -0.2909 -0.0338 -0.7200
  384MOL0     C50571   6.491   4.838  10.514  0.5415  0.0497  0.3543
  384MOL0     C50572   6.331   4.819  10.502  0.1135  0.0443 -0.2940
  384MOL0     N50573   6.262   4.954  10.495 -0.4470  0.6828  0.4237
  384MOL0     C50574   6.275   5.025  10.381  0.2686  0.0260 -0.9894
  384MOL0     C50575   6.192   5.130  10.390  0.4293  0.1245 -0.7705
  384MOL0     C50576   6.188   5.248  10.294 -0.2224 -0.2234 -0.6253
  384MOL0     C50577   6.057   5.284  10.242 -0.9788 -0.2275 -0.8504
  384MOL0     C50578   5.977   5.174  10.179 -0.1889  0.4819 -0.7912
  384MOL0     C50579   5.847   5.216  10.115 -0.5835  0.9822  0.8380
  384MOL0     O50580   5.870   5.318  10.006  0.4914  0.1533 -0.3075
  384MOL0     C50581   5.949   5.302   9.900 -0.7673  0.2055 -0.3238
  384MOL0     C50582   5.919   5.198   9.811  0.3386 -1.0541  0.0622
  384MOL0     C50583   6.003   5.160   9.705  0.3849  1.1498 -0.5038
  384MOL0     C50584   6.134   5.222   9.703  0.0696 -0.3195  0.1456
  384MOL0     C50585   6.222   5.198   9.588  0.4643  0.2756 -0.9169
  384MOL0     O50586   6.167   5.141   9.486 -0.3600  0.1183  0.4092
  384MOL0     C50587   6.240   5.121   9.373 -0.3369  1.0316 -0.2164
  384MOL0     C50588   6.271   4.985   9.354 -0.1366  1.2374  0.4528
  384MOL0     C50589   6.336   4.947   9.244 -0.2672  0.3176 -0.0858
  384MOL0     C50590   6.388   5.037   9.156 -0.6752 -0.7694  0.0892
  384MOL0     O50591   6.455   4.986   9.047 -0.2050 -0.0782 -0.1432
  384MOL0     C50592   6.553   5.080   8.987 -1.1744 -0.7266 -0.4300
  384MOL0     C50593   6.662   5.124   9.084  0.2397 -0.1905 -0.0425
  384MOL0     C50594   6.725   5.003   9.159  0.0192  0.4344  1.1050
  384MOL0     C50595   6.845   5.041   9.244 -0.1541 -0.8060  0.1227
  384MOL0     C50596   6.876   4.934   9.356  0.4624  0.2029  0.8906
  384MOL0     C50597   6.778   4.941   9.471 -0.9525  0.1749 -1.1533
  384MOL0     C50598   6.795   4.845   9.586 -0.0977 -0.2591 -0.2775
  384MOL0     C50599   6.729   4.717   9.540  0.0740 -0.2201  0.9862
  384MOL0    Cl50600   6.763   4.590   9.655 -0.5371 -0.3355 -0.2054
  384MOL0     C50601   6.349   5.171   9.170 -0.1391  0.1387 -0.0552
  384MOL0     C50602   6.271   5.211   9.272  0.0389  0.1995  0.5244
  384MOL0     O50603   6.338   5.240   9.594 -0.0829 -0.3433 -0.3691
  384MOL0     C50604   6.168   5.328   9.789 -0.8470 -0.2246  0.3095
  384MOL0     C50605   6.071   5.368   9.887  0.7538  0.7658  0.1748
  384MOL0     N50606   6.120   5.119  10.505  0.1556  0.8951 -0.0225
  384MOL0     N50607   6.158   5.009  10.563 -0.9768 -0.1121 -0.3300
  384MOL0     C50608   7.298   4.990  11.007  0.4151  0.3853  0.7228
  384MOL0     C50609   7.329   4.960  11.132 -0.4242 -0.8850 -0.1150
  384MOL0     C50610   7.345   4.760  11.550 -0.6769  0.4114 -0.3139
  384MOL0     C50611   7.457   4.744  11.633  1.5565 -0.4465  0.4747
  384MOL0     C50612   7.446   4.717  11.769  0.0020 -0.1275  0.5370
  384MOL0     C50613   7.321   4.687  11.825  0.4669 -0.2111 -0.3897
  384MOL0     O50614   7.303   4.643  11.955  0.2722  0.4806  1.3964
  384MOL0     C50615   7.415   4.660  12.054 -0.0666  0.3670  1.1308
  384MOL0     C50616   7.397   4.574  12.186 -0.8354 -0.7549  0.0355
  384MOL0     C50617   7.266   4.617  12.260 -0.5863 -0.1103  0.6417
  384MOL0     C50618   7.294   4.713  12.373 -0.2516 -0.5473  0.2387
  384MOL0     C50619   7.177   4.787  12.416 -0.6875  0.0052  0.2620
  384MOL0     C50620   7.087   4.862  12.455  0.0452  0.6521  0.2527
  384MOL0     C50621   7.212   4.682  11.735  0.5384 -0.0740  0.4183
  384MOL0     C50622   7.230   4.709  11.598  0.8657  0.1022  0.3636
  384MOL0     H50623   7.028   4.819  11.221 -1.2457  3.5646  0.1965
  384MOL0     H50624   6.980   4.881  10.999  0.4074  1.0819 -2.5207
  384MOL0     H50625   7.178   4.784  10.770 -0.5232 -0.4534 -0.4293
  384MOL0     H50626   7.253   4.912  10.661 -0.3173  1.2497 -1.4452
  384MOL0     H50627   7.058   4.785  10.557 -0.1069  0.0618 -0.6915
  384MOL0     H50628   7.040   4.959  10.564  0.5170 -1.4898 -0.7469
  384MOL0     H50629   6.892   4.898  10.785 -3.0664 -0.8570  0.5295
  384MOL0     H50630   6.917   4.739  10.762 -0.1708  0.4518 -0.9239
  384MOL0     H50631   6.787   4.934  10.571 -1.4249  0.4502  0.9751
  384MOL0     H50632   6.775   4.769  10.535 -2.9147  3.4123 -2.7682
  384MOL0     H50633   6.686   4.887  10.799 -1.3300  2.9200 -0.7149
  384MOL0     H50634   6.637   4.726  10.724  0.5816  0.3726 -1.3931
  384MOL0     H50635   6.553   5.006  10.633 -2.8089  0.1018 -4.8819
  384MOL0     H50636   6.457   4.887  10.720 -1.4885 -0.3999 -2.0007
  384MOL0     H50637   6.534   4.890  10.428  2.1152 -2.1031 -0.2495
  384MOL0     H50638   6.527   4.734  10.510 -0.8271 -0.4257 -0.9383
  384MOL0     H50639   6.290   4.774  10.593 -2.1497 -0.5227 -1.4993
  384MOL0     H50640   6.299   4.756  10.418 -1.4011  2.7514 -1.8758
  384MOL0     H50641   6.354   5.016  10.307  1.6765 -2.3525  0.6710
  384MOL0     H50642   6.255   5.226  10.210 -1.6703 -0.9481 -1.6450
  384MOL0     H50643   6.231   5.331  10.350  0.7605 -1.5010  0.5923
  384MOL0     H50644   6.073   5.362  10.167 -1.3534 -0.2712 -0.9762
  384MOL0     H50645   5.989   5.324  10.318 -0.1390 -1.8262  0.8178
  384MOL0     H50646   6.044   5.121  10.110 -2.5211  0.0426 -2.8526
  384MOL0     H50647   5.943   5.099  10.251  0.3004 -0.5252 -1.5814
  384MOL0     H50648   5.780   5.261  10.188 -0.6026  1.9655  0.2324
  384MOL0     H50649   5.802   5.125  10.075 -1.5525  1.7542  0.1172
  384MOL0     H50650   5.822   5.150   9.795  0.8766 -1.2751 -3.1369
  384MOL0     H50651   5.982   5.083   9.631 -1.9616 -0.4463  1.6419
  384MOL0     H50652   6.233   4.906   9.419  0.5360 -0.2675 -0.9173
  384MOL0     H50653   6.346   4.840   9.230 -1.4573  0.2771 -0.8084
  384MOL0     H50654   6.507   5.170   8.946  1.7343  0.8652 -0.4706
  384MOL0     H50655   6.593   5.033   8.896 -4.4996  1.8062 -3.4840
  384MOL0     H50656   6.620   5.191   9.160 -1.1087  1.0455 -1.7826
  384MOL0     H50657   6.732   5.188   9.030  0.3068  0.8651  1.2457
  384MOL0     H50658   6.755   4.924   9.089  0.2021  1.8737 -0.5008
  384MOL0     H50659   6.648   4.969   9.229  1.8245 -1.8015  2.1483
  384MOL0     H50660   6.928   5.051   9.173  0.8030 -4.5226  0.4912
  384MOL0     H50661   6.828   5.140   9.286  1.7537  0.6777 -2.3362
  384MOL0     H50662   6.973   4.961   9.399  1.0869 -0.1774 -0.2274
  384MOL0     H50663   6.872   4.833   9.314 -2.6583  0.1049  1.1664
  384MOL0     H50664   6.675   4.932   9.434 -0.8967 -0.5025 -1.1518
  384MOL0     H50665   6.788   5.044   9.505 -0.8136  0.4374 -1.9675
  384MOL0     H50666   6.895   4.813   9.618  0.1153  1.7656  1.2770
  384MOL0     H50667   6.744   4.879   9.676  0.2309  0.0107 -0.1903
  384MOL0     H50668   6.767   4.681   9.444 -1.6196  0.2298  0.1057
  384MOL0     H50669   6.623   4.730   9.514  0.9871  1.8976 -2.2905
  384MOL0     H50670   6.383   5.260   9.120 -3.0309  1.7709  0.6349
  384MOL0     H50671   6.249   5.317   9.266 -0.7011 -0.0272 -2.2133
  384MOL0     H50672   6.264   5.377   9.769  0.6894 -2.8783  0.7214
  384MOL0     H50673   6.091   5.447   9.958  0.0293  0.1053  1.1418
  384MOL0     H50674   7.356   5.052  10.939 -0.5642  0.4466 -0.0757
  384MOL0     H50675   7.414   5.002  11.184  0.4536  1.3593 -3.0714
  384MOL0     H50676   7.552   4.776  11.592  0.9200 -0.6705 -1.2431
  384MOL0     H50677   7.529   4.717  11.839  1.9849 -0.5408 -1.6748
  384MOL0     H50678   7.409   4.769  12.064 -0.5854  1.0748 -4.1212
  384MOL0     H50679   7.516   4.641  12.017 -0.7597 -0.7440 -0.2973
  384MOL0     H50680   7.395   4.468  12.159  1.7471 -0.3683 -2.0164
  384MOL0     H50681   7.482   4.598  12.251 -0.5689 -1.6048  0.0062
  384MOL0     H50682   7.227   4.526  12.306  0.7389  0.0512  2.1603
  384MOL0     H50683   7.194   4.664  12.192 -1.0122  1.2476  1.9634
  384MOL0     H50684   7.350   4.669  12.456  0.2660  0.3636  0.3947
  384MOL0     H50685   7.356   4.797  12.340  0.7465  0.2275  3.7074
  384MOL0     H50686   7.002   4.927  12.461  1.0960  2.0487  0.6120
  384MOL0     H50687   7.112   4.655  11.770  1.1086 -0.4417  1.8579
  384MOL0     H50688   7.139   4.715  11.538  0.4182  0.3949  1.0601
  385MOL0     O50689   8.289   9.602   9.073  0.0203  0.9039 -0.6501
  385MOL0     C50690   8.403   9.606   9.020 -0.8259 -0.7345  0.4592
  385MOL0     O50691   8.435   9.592   8.886 -0.7996 -0.4634 -0.7388
  385MOL0     C50692   8.348   9.586   8.789 -0.0149 -0.0365 -0.5025
  385MOL0     C50693   8.378   9.517   8.672  0.1642  0.1505 -0.0679
  385MOL0     C50694   8.292   9.528   8.564  0.5831 -0.8301  0.9122
  385MOL0     C50695   8.162   9.573   8.571  0.4239 -0.7740 -0.0842
  385MOL0     O50696   8.088   9.559   8.462  0.8928 -0.2537  0.3761
  385MOL0     C50697   7.992   9.652   8.419 -0.5769 -0.4378 -1.1330
  385MOL0     C50698   7.990   9.650   8.269  0.2733 -0.3218 -0.3922
  385MOL0     C50699   7.957   9.784   8.220 -0.5304 -0.0891  0.4923
  385MOL0     C50700   7.830   9.851   8.279  0.4123 -0.6530 -0.4052
  385MOL0     C50701   7.784   9.977   8.202  0.6116 -0.0171  0.0933
  385MOL0     C50702   7.627   9.991   8.202  0.0753  0.9853 -0.1687
  385MOL0     C50703   7.574  10.011   8.345  0.3654  0.1795 -0.6646
  385MOL0     C50704   7.423   9.989   8.355 -0.0422 -0.1361  0.4685
  385MOL0     N50705   7.371  10.016   8.494  0.1497  0.9201 -0.4671
  385MOL0     C50706   7.259   9.949   8.539 -0.0687  0.9286  0.0209
  385MOL0     C50707   7.239   9.999   8.659  1.3567 -0.0019  0.3447
  385MOL0     C50708   7.147   9.931   8.753 -0.7506  0.6228  0.4654
  385MOL0     C50709   7.000   9.941   8.712  1.2675  0.1326 -0.0461
  385MOL0     C50710   6.942  10.079   8.730  0.2663 -0.3384  0.6468
  385MOL0     C50711   6.793  10.063   8.706 -0.1489 -0.0124  0.3389
  385MOL0     O50712   6.731  10.181   8.653 -0.6661  0.1375  0.2342
  385MOL0     C50713   6.595  10.194   8.678 -0.2897 -0.1123  0.2277
  385MOL0     C50714   6.497  10.186   8.577 -0.0307 -0.7079  0.4749
  385MOL0     C50715   6.360  10.198   8.588  0.1338  0.3295  0.4946
  385MOL0     C50716   6.311  10.214   8.719  0.5988  0.5065 -0.8404
  385MOL0     C50717   6.174  10.219   8.754  0.1154 -0.3827  0.5111
  385MOL0     O50718   6.083  10.244   8.643  1.2807  0.7604  0.1292
  385MOL0     C50719   5.948  10.261   8.671 -0.1726  0.0054 -0.1010
  385MOL0     C50720   5.874  10.197   8.577 -0.1759  0.6324 -0.2810
  385MOL0     C50721   5.733  10.189   8.610 -1.9349  0.9367  0.2562
  385MOL0     C50722   5.677  10.268   8.709 -0.2509  1.3293 -0.0636
  385MOL0     O50723   5.543  10.244   8.722  0.5287  0.1642  0.6221
  385MOL0     C50724   5.474  10.341   8.810 -0.1090  0.0302  0.2947
  385MOL0     C50725   5.317  10.350   8.789 -0.1936 -0.7972  0.0467
  385MOL0     C50726   5.251  10.426   8.900  0.2235  0.8966 -0.7211
  385MOL0     C50727   5.107  10.367   8.904  0.4363  0.6995 -0.4203
  385MOL0     C50728   5.033  10.433   9.023 -0.7944 -0.2525 -0.1088
  385MOL0     C50729   5.005  10.581   9.003 -0.6140 -0.1252 -0.3156
  385MOL0     C50730   4.913  10.641   9.105  0.1943 -0.5205 -0.2885
  385MOL0     C50731   4.854  10.775   9.056 -0.6922 -0.5038 -0.1253
  385MOL0    Cl50732   4.791  10.855   9.203  0.2189  0.2323  0.2927
  385MOL0     C50733   5.751  10.331   8.802 -0.0821  0.7300  0.8071
  385MOL0     C50734   5.888  10.318   8.792  0.0997 -0.0122  0.4682
  385MOL0     O50735   6.151  10.214   8.870  0.3782  0.1644 -0.1475
  385MOL0     C50736   6.401  10.222   8.830  0.0026 -0.1566 -0.4289
  385MOL0     C50737   6.541  10.215   8.807  0.3230  0.9243 -0.1785
  385MOL0     N50738   7.318  10.101   8.691  1.1163 -0.1465  0.4778
  385MOL0     N50739   7.408  10.108   8.588  0.6609  0.5755 -0.0279
  385MOL0     C50740   8.130   9.641   8.689 -0.0249  0.6537 -0.2669
  385MOL0     C50741   8.214   9.648   8.800  0.5405 -0.9262  1.4097
  385MOL0     C50742   8.518   9.587   9.111 -0.6760  0.0987 -0.1267
  385MOL0     C50743   8.514   9.573   9.248 -1.3582 -0.3686  0.0696
  385MOL0     C50744   8.626   9.568   9.330  0.1772  1.9444 -0.1553
  385MOL0     C50745   8.752   9.577   9.274  0.8291 -0.0968  0.1608
  385MOL0     O50746   8.866   9.570   9.346 -0.4336 -0.7311 -0.2348
  385MOL0     C50747   8.865   9.579   9.494  0.6784  0.3923  0.3689
  385MOL0     C50748   8.813   9.718   9.533 -0.0234 -0.1794 -0.7349
  385MOL0     C50749   8.943   9.799   9.570 -0.3058  0.8741  0.6970
  385MOL0     C50750   9.023   9.855   9.448  0.3237  0.2821  1.2587
  385MOL0     C50751   9.061   9.994   9.481  1.0335 -0.3806  0.3697
  385MOL0     C50752   9.095  10.111   9.498 -1.1691  1.0130  0.5555
  385MOL0     C50753   8.760   9.606   9.134  0.9574 -0.6781 -0.2324
  385MOL0     C50754   8.646   9.608   9.057  1.0527  0.4015  0.4079
  385MOL0     H50755   8.469   9.462   8.648  1.8012  3.6885 -2.9834
  385MOL0     H50756   8.308   9.473   8.471 -4.8132 -2.2286  0.4859
  385MOL0     H50757   7.999   9.752   8.462 -3.5990 -1.1702  1.4309
  385MOL0     H50758   7.894   9.615   8.451 -0.0954 -0.3423  0.5481
  385MOL0     H50759   7.932   9.575   8.216  0.6405  0.8209 -2.5226
  385MOL0     H50760   8.090   9.615   8.241  0.2379  0.0893 -1.0481
  385MOL0     H50761   7.957   9.780   8.110  0.5115  1.2678  0.4154
  385MOL0     H50762   8.045   9.842   8.250  0.2191 -1.9995  2.1908
  385MOL0     H50763   7.752   9.774   8.283  0.3372 -0.5346  0.5681
  385MOL0     H50764   7.850   9.877   8.383 -3.7842 -0.4980  0.5608
  385MOL0     H50765   7.821   9.976   8.099  0.5477  0.6046  0.0651
  385MOL0     H50766   7.844  10.062   8.234 -0.4930  0.0470  2.1765
  385MOL0     H50767   7.586   9.894   8.172  2.0023  0.6582 -1.9905
  385MOL0     H50768   7.590  10.064   8.129 -1.9719  0.7928  0.5964
  385MOL0     H50769   7.621   9.940   8.413 -0.7832 -2.0123 -2.0398
  385MOL0     H50770   7.600  10.110   8.383 -2.0937  1.4080 -1.9607
  385MOL0     H50771   7.395   9.892   8.314 -0.7556  0.1958  0.1514
  385MOL0     H50772   7.374  10.055   8.283 -0.2078  0.1351  0.8225
  385MOL0     H50773   7.208   9.861   8.502 -0.5820  0.4611  1.7503
  385MOL0     H50774   7.156   9.968   8.855  1.0291 -0.6105  0.8004
  385MOL0     H50775   7.185   9.828   8.751  0.4503  1.0478 -1.1525
  385MOL0     H50776   6.947   9.875   8.782  2.9547 -0.1699  0.9779
  385MOL0     H50777   6.989   9.916   8.606 -0.3545 -1.1483  0.3724
  385MOL0     H50778   6.977  10.114   8.828  3.6727  0.5840 -0.7350
  385MOL0     H50779   6.987  10.148   8.658  2.1171 -2.9122 -0.8305
  385MOL0     H50780   6.753  10.046   8.807  1.1662  5.2423  2.0683
  385MOL0     H50781   6.791   9.977   8.639  2.2913 -1.8363  2.4002
  385MOL0     H50782   6.529  10.179   8.474 -1.2508 -1.4145  0.1223
  385MOL0     H50783   6.299  10.192   8.498  1.8997 -6.8406 -0.8426
  385MOL0     H50784   5.931  10.145   8.500  1.9916  3.5353 -0.8147
  385MOL0     H50785   5.663  10.132   8.550 -0.7967  0.0345 -0.2571
  385MOL0     H50786   5.514  10.441   8.788 -0.6317  0.1988  0.0843
  385MOL0     H50787   5.499  10.310   8.911 -1.5038  1.3351  1.0867
  385MOL0     H50788   5.272  10.251   8.786 -2.3408  0.1369  0.0196
  385MOL0     H50789   5.303  10.395   8.690  0.2393 -1.9934 -0.5752
  385MOL0     H50790   5.246  10.531   8.871 -1.6780  0.2311 -3.0933
  385MOL0     H50791   5.308  10.401   8.990 -0.5282  2.5951  0.2667
  385MOL0     H50792   5.051  10.390   8.813 -0.1595  0.3365 -0.1462
  385MOL0     H50793   5.106  10.260   8.927 -3.2930  1.2908  3.2885
  385MOL0     H50794   5.101  10.415   9.107  0.1067 -1.4822 -1.0731
  385MOL0     H50795   4.942  10.381   9.052 -0.2842  0.2350  2.6002
  385MOL0     H50796   4.958  10.590   8.905 -2.9933  4.3046  0.9660
  385MOL0     H50797   5.089  10.649   9.021 -2.0143  1.2891  1.1417
  385MOL0     H50798   4.840  10.564   9.131  1.6952 -2.3181 -1.1576
  385MOL0     H50799   4.965  10.672   9.197 -1.1677 -1.2359  0.7648
  385MOL0     H50800   4.766  10.762   8.992  0.1275  0.0146 -1.4003
  385MOL0     H50801   4.923  10.837   8.998 -2.8883  1.3138 -0.9735
  385MOL0     H50802   5.722  10.379   8.895  2.2780  2.8097  0.5766
  385MOL0     H50803   5.938  10.374   8.871  0.0587  0.1686  0.3661
  385MOL0     H50804   6.367  10.240   8.931 -3.2057 -0.4519 -1.3273
  385MOL0     H50805   6.609  10.237   8.888  0.1580  1.6453 -0.2341
  385MOL0     H50806   8.037   9.697   8.687 -0.0594  0.6001 -0.1650
  385MOL0     H50807   8.179   9.685   8.896  2.5482  2.3326  1.0381
  385MOL0     H50808   8.417   9.575   9.298 -2.3088 -3.0025 -1.4811
  385MOL0     H50809   8.598   9.568   9.435 -1.0904  0.7839 -0.4639
  385MOL0     H50810   8.965   9.559   9.533  0.2869  1.5387  2.0474
  385MOL0     H50811   8.798   9.504   9.539  0.3475  1.6555  2.1029
  385MOL0     H50812   8.753   9.770   9.457  0.7178 -1.0474 -1.9535
  385MOL0     H50813   8.756   9.704   9.625  1.4011 -0.1525  0.1771
  385MOL0     H50814   9.019   9.754   9.634 -0.6164 -0.0866  0.4013
  385MOL0     H50815   8.901   9.879   9.632  0.3114  1.7369  0.0188
  385MOL0     H50816   9.114   9.796   9.435  0.8556  1.5928 -1.6273
  385MOL0     H50817   8.960   9.848   9.359  2.1016  2.7516 -0.3309
  385MOL0     H50818   9.151  10.202   9.506 -0.8116  0.7220  1.4595
  385MOL0     H50819   8.860   9.605   9.093  0.3277  2.1463 -2.0956
  385MOL0     H50820   8.674   9.611   8.952  1.3733  1.5426  0.5137
  386MOL0     O50821   3.266   8.038   7.351 -0.1200  0.0293  0.2727
  386MOL0     C50822   3.356   7.965   7.307  0.2650  0.5364  0.4915
  386MOL0     O50823   3.483   7.954   7.356 -0.3410 -0.5197  0.1849
  386MOL0     C50824   3.532   8.048   7.448 -0.1831 -0.6743 -0.3724
  386MOL0     C50825   3.532   8.006   7.582  0.5704  0.7701  0.3873
  386MOL0     C50826   3.564   8.096   7.684 -0.1474  0.4253  0.3404
  386MOL0     C50827   3.600   8.228   7.661 -0.6529 -0.4223  0.1394
  386MOL0     O50828   3.646   8.305   7.769  0.6511 -0.0607  0.0406
  386MOL0     C50829   3.539   8.371   7.844 -0.0156  0.9422  0.3807
  386MOL0     C50830   3.430   8.440   7.768  1.2128 -0.0478 -0.2391
  386MOL0     C50831   3.322   8.518   7.849 -0.0732  0.1009 -0.2555
  386MOL0     C50832   3.237   8.584   7.755 -0.1204 -0.2966 -0.2248
  386MOL0     C50833   3.164   8.703   7.807 -0.7226  1.4359  0.1641
  386MOL0     C50834   3.027   8.656   7.876  0.4193  0.1646 -0.3967
  386MOL0     C50835   2.951   8.774   7.948 -0.6946 -0.1323  0.3198
  386MOL0     C50836   2.850   8.851   7.860  0.1401  0.9133 -0.0689
  386MOL0     N50837   2.910   8.895   7.729 -0.0729 -0.2553 -0.3193
  386MOL0     C50838   3.018   8.977   7.707  1.1112  0.0372 -0.1788
  386MOL0     C50839   3.038   8.995   7.573  1.7506 -0.0312  0.0101
  386MOL0     C50840   3.129   9.092   7.505 -0.8709  0.3345  0.3157
  386MOL0     C50841   3.286   9.097   7.553 -0.9291  0.8868  0.0262
  386MOL0     C50842   3.340   8.952   7.583  0.4326 -0.7501  0.0283
  386MOL0     C50843   3.489   8.972   7.593  0.1785  0.8403  0.7243
  386MOL0     O50844   3.529   9.059   7.699  0.4964 -0.5287  0.3209
  386MOL0     C50845   3.649   9.065   7.752 -1.1158 -0.3306 -0.0030
  386MOL0     C50846   3.666   9.187   7.820 -0.1449  0.3368 -0.2522
  386MOL0     C50847   3.784   9.225   7.889  0.2415 -0.3033 -0.2303
  386MOL0     C50848   3.895   9.147   7.862  0.1696  0.0349 -1.3274
  386MOL0     C50849   4.026   9.162   7.938 -0.0597  0.8734  1.0396
  386MOL0     O50850   4.043   9.286   7.992  0.2744 -0.1468 -0.7188
  386MOL0     C50851   4.173   9.307   8.044  0.6872 -0.1117  0.2401
  386MOL0     C50852   4.179   9.294   8.186 -0.9494 -1.6887  0.1116
  386MOL0     C50853   4.295   9.329   8.246 -0.6789  0.6887  0.1713
  386MOL0     C50854   4.415   9.340   8.172 -0.4255  0.0504 -0.5639
  386MOL0     O50855   4.523   9.360   8.247  0.4682  0.7365 -0.2810
  386MOL0     C50856   4.652   9.326   8.214  0.9206  0.5783  0.4709
  386MOL0     C50857   4.758   9.385   8.311  0.5706 -0.3964 -0.3780
  386MOL0     C50858   4.733   9.335   8.453  1.2934  1.1800 -0.5576
  386MOL0     C50859   4.851   9.341   8.554 -0.3725 -0.0419 -0.2066
  386MOL0     C50860   4.952   9.233   8.534 -1.2511 -0.8743 -0.0969
  386MOL0     C50861   5.050   9.186   8.647  0.1557 -0.0157 -0.6721
  386MOL0     C50862   4.963   9.147   8.776  0.1593  0.1327  0.1012
  386MOL0     C50863   5.055   9.073   8.877 -0.7954 -1.1256  0.8750
  386MOL0    Cl50864   4.965   9.046   9.017 -0.1427  0.2309 -0.1807
  386MOL0     C50865   4.416   9.343   8.032 -0.6104  0.4845 -0.0984
  386MOL0     C50866   4.293   9.330   7.968 -0.6996  0.5172 -0.9033
  386MOL0     O50867   4.109   9.077   7.920  0.2495  0.8363 -0.5653
  386MOL0     C50868   3.880   9.021   7.790 -0.4954 -0.2587  0.6377
  386MOL0     C50869   3.753   8.982   7.740 -0.2198  0.2472 -0.1874
  386MOL0     N50870   2.948   8.910   7.508  0.4727  0.1021 -0.4634
  386MOL0     N50871   2.868   8.854   7.604 -0.4962  0.0292  0.4901
  386MOL0     C50872   3.603   8.268   7.525  0.8271 -0.6341 -0.5861
  386MOL0     C50873   3.560   8.184   7.420 -0.3445  0.2864  0.1489
  386MOL0     C50874   3.320   7.885   7.186  0.0856  0.0142  0.8802
  386MOL0     C50875   3.403   7.775   7.138  0.2553 -0.6274 -0.1474
  386MOL0     C50876   3.375   7.694   7.042  0.6247  1.2008  1.5402
  386MOL0     C50877   3.252   7.712   6.972 -0.5653  0.4916  0.1424
  386MOL0     O50878   3.204   7.617   6.874 -0.0378  0.0140  0.0521
  386MOL0     C50879   3.240   7.479   6.895 -0.1928  0.0349 -0.5441
  386MOL0     C50880   3.350   7.452   6.787  0.1220 -0.5143 -0.0754
  386MOL0     C50881   3.380   7.311   6.771  0.0565  0.6413  0.2784
  386MOL0     C50882   3.481   7.270   6.671  0.6820 -0.3612  0.7674
  386MOL0     C50883   3.498   7.129   6.667 -0.4466  0.6565  0.1849
  386MOL0     C50884   3.504   7.004   6.670  0.5757  0.0237  0.4195
  386MOL0     C50885   3.173   7.820   7.006 -0.5958 -0.3807  0.0385
  386MOL0     C50886   3.211   7.910   7.108 -0.2105 -0.1814 -0.0059
  386MOL0     H50887   3.517   7.906   7.623  3.7462 -0.0724 -0.2432
  386MOL0     H50888   3.554   8.075   7.790  1.0708  1.5260  0.7098
  386MOL0     H50889   3.580   8.437   7.920 -1.7665 -1.1415  3.3873
  386MOL0     H50890   3.481   8.292   7.894 -2.9472  0.5972 -3.1380
  386MOL0     H50891   3.392   8.373   7.690  2.1727 -1.5522  0.5352
  386MOL0     H50892   3.486   8.518   7.717 -1.3751  1.4514 -0.9969
  386MOL0     H50893   3.368   8.587   7.920  1.5169 -0.7726 -0.4012
  386MOL0     H50894   3.262   8.442   7.900  1.9981 -2.6313 -1.6302
  386MOL0     H50895   3.302   8.616   7.673 -0.5996 -1.5904 -1.1390
  386MOL0     H50896   3.168   8.507   7.720  0.7178 -1.4716  0.6409
  386MOL0     H50897   3.119   8.753   7.720 -0.4753  1.4113  0.0202
  386MOL0     H50898   3.221   8.767   7.876 -0.0783 -1.0076  2.0227
  386MOL0     H50899   3.057   8.583   7.951  1.9955 -0.4229 -1.5375
  386MOL0     H50900   2.963   8.609   7.800  1.3672 -1.6913 -0.0886
  386MOL0     H50901   2.898   8.749   8.040  0.1865  2.9959  1.8138
  386MOL0     H50902   3.022   8.853   7.974 -1.9177  0.3343  2.4746
  386MOL0     H50903   2.820   8.939   7.918 -1.4736 -0.8657  1.9825
  386MOL0     H50904   2.767   8.784   7.834 -0.7367  1.5417  1.0261
  386MOL0     H50905   3.069   9.031   7.787  3.1065 -1.3521 -0.4387
  386MOL0     H50906   3.083   9.191   7.512 -2.0797  0.1960 -3.4210
  386MOL0     H50907   3.132   9.055   7.402  1.3165 -4.5981  1.8548
  386MOL0     H50908   3.301   9.159   7.641 -2.6680  0.7471  0.4609
  386MOL0     H50909   3.340   9.143   7.470 -0.9753  4.3999  1.7853
  386MOL0     H50910   3.295   8.923   7.678 -0.7097  1.9992  0.4162
  386MOL0     H50911   3.330   8.872   7.509  3.0362 -2.5305  1.4224
  386MOL0     H50912   3.527   8.994   7.493 -0.6187 -1.2092 -0.0715
  386MOL0     H50913   3.514   8.867   7.610 -0.8526  0.1983 -1.4027
  386MOL0     H50914   3.586   9.260   7.824  0.2956  0.9916 -2.1920
  386MOL0     H50915   3.780   9.308   7.959 -1.8923 -1.7277  1.4565
  386MOL0     H50916   4.094   9.265   8.247  1.7060 -3.5718  3.2397
  386MOL0     H50917   4.310   9.340   8.353  0.2730 -0.1339  0.1388
  386MOL0     H50918   4.678   9.346   8.110 -0.8905 -0.3853 -0.2168
  386MOL0     H50919   4.646   9.217   8.219  0.8884  0.6029  1.0518
  386MOL0     H50920   4.753   9.494   8.318 -1.5111 -0.5479  5.1035
  386MOL0     H50921   4.862   9.360   8.289  1.4591  2.9728 -0.4796
  386MOL0     H50922   4.689   9.235   8.440  0.2507  1.3272  1.4413
  386MOL0     H50923   4.660   9.404   8.496  0.4113  0.9599 -1.6492
  386MOL0     H50924   4.899   9.439   8.557 -4.2760  2.0922  0.1506
  386MOL0     H50925   4.806   9.318   8.651  0.8557  1.7991  0.8688
  386MOL0     H50926   5.021   9.260   8.453 -0.3535  0.7906  1.1533
  386MOL0     H50927   4.897   9.144   8.502 -0.4011 -0.2751 -3.6911
  386MOL0     H50928   5.113   9.273   8.669 -2.4511  2.0426 -0.8906
  386MOL0     H50929   5.107   9.097   8.618 -1.6888 -1.8971  1.0662
  386MOL0     H50930   4.923   9.242   8.812  3.9400  1.6823  0.6640
  386MOL0     H50931   4.879   9.085   8.744 -1.7119  1.6053  1.8820
  386MOL0     H50932   5.150   9.121   8.902 -0.7534 -0.0355 -1.1834
  386MOL0     H50933   5.082   8.978   8.830 -0.9313 -1.7353  1.9839
  386MOL0     H50934   4.511   9.365   7.985  1.5281  0.1071  3.5886
  386MOL0     H50935   4.276   9.327   7.860 -2.4665  2.6744 -0.7498
  386MOL0     H50936   3.963   8.952   7.781 -1.2008 -0.9316 -0.9393
  386MOL0     H50937   3.737   8.895   7.676 -0.6091  1.8112 -2.3563
  386MOL0     H50938   3.623   8.370   7.495  1.7664 -0.8242 -0.6424
  386MOL0     H50939   3.556   8.225   7.319  0.2670 -1.0407 -0.4389
  386MOL0     H50940   3.500   7.762   7.185  1.5215 -1.3820 -2.7723
  386MOL0     H50941   3.449   7.622   7.010  2.5142  4.7339 -3.3866
  386MOL0     H50942   3.157   7.409   6.877 -0.1924  0.0479 -0.5993
  386MOL0     H50943   3.272   7.463   6.998 -0.6606 -0.9833 -0.5456
  386MOL0     H50944   3.306   7.487   6.694 -1.6257 -1.1726  0.4622
  386MOL0     H50945   3.448   7.501   6.796  0.5247 -0.7860 -2.3857
  386MOL0     H50946   3.286   7.259   6.751  0.3112  0.4687 -0.5247
  386MOL0     H50947   3.386   7.267   6.872 -0.1962  1.1957  0.5389
  386MOL0     H50948   3.459   7.313   6.573  0.7172  3.2673  2.1797
  386MOL0     H50949   3.585   7.298   6.694  0.3500 -1.3535  3.9915
  386MOL0     H50950   3.504   6.897   6.670 -3.2629 -0.1822  3.3392
  386MOL0     H50951   3.078   7.824   6.952 -1.3626 -3.6975  0.9061
  386MOL0     H50952   3.152   8.000   7.117  2.3058  1.8439 -2.1288
  387MOL0     O50953   8.303   5.243   0.695  0.7241  0.1382 -0.1524
  387MOL0     C50954   8.400   5.246   0.619  0.0441 -0.2217  0.1578
  387MOL0     O50955   8.448   5.137   0.553  0.6485 -0.5277 -0.0276
  387MOL0     C50956   8.405   5.014   0.567  0.3191 -0.3752 -0.6227
  387MOL0     C50957   8.493   4.917   0.530 -0.0854  0.4145  0.3417
  387MOL0     C50958   8.471   4.777   0.552  1.0260  1.3664  0.3325
  387MOL0     C50959   8.351   4.738   0.605 -0.8035  0.4527  0.6282
  387MOL0     O50960   8.331   4.596   0.618  1.0830 -1.2199  0.4527
  387MOL0     C50961   8.433   4.506   0.673  0.2355 -0.3727 -0.3329
  387MOL0     C50962   8.384   4.438   0.797 -0.3210  0.2173 -0.6879
  387MOL0     C50963   8.378   4.518   0.932 -0.2405 -0.2000 -0.3401
  387MOL0     C50964   8.290   4.447   1.037 -0.5284 -1.1112 -0.2416
  387MOL0     C50965   8.270   4.532   1.167 -0.3437 -0.5986  0.0017
  387MOL0     C50966   8.172   4.458   1.260 -0.0313  0.1054  0.3958
  387MOL0     C50967   8.151   4.515   1.398 -0.4378 -0.3046  0.2202
  387MOL0     C50968   8.023   4.442   1.463  0.0924  0.4137 -0.3093
  387MOL0     N50969   8.010   4.478   1.601 -0.4123  1.2179 -1.0332
  387MOL0     C50970   7.919   4.570   1.654 -0.3560 -0.0411 -0.0639
  387MOL0     C50971   7.952   4.593   1.783 -0.5022 -0.0948 -0.1436
  387MOL0     C50972   7.890   4.677   1.889  0.3101 -0.2381  0.4366
  387MOL0     C50973   7.740   4.659   1.901  0.4996  1.1331 -0.0669
  387MOL0     C50974   7.681   4.727   2.028  0.3511  0.7152 -0.2772
  387MOL0     C50975   7.531   4.688   2.053 -0.1785  0.2645 -0.3055
  387MOL0     O50976   7.458   4.762   1.964 -0.0383 -0.6233  0.4598
  387MOL0     C50977   7.333   4.730   1.924 -0.5484 -0.8071 -0.5382
  387MOL0     C50978   7.258   4.833   1.876  0.1379  0.2801 -0.1324
  387MOL0     C50979   7.118   4.828   1.854  0.1947 -0.3501  0.7733
  387MOL0     C50980   7.063   4.701   1.870  1.0079 -0.0834  0.5503
  387MOL0     C50981   6.914   4.702   1.827 -0.8413 -0.6158 -0.6834
  387MOL0     O50982   6.855   4.581   1.840  0.3041  0.0953 -0.0653
  387MOL0     C50983   6.725   4.568   1.807  1.0503 -1.3552 -0.9463
  387MOL0     C50984   6.624   4.578   1.904 -1.5216  0.1053 -0.6191
  387MOL0     C50985   6.493   4.533   1.879 -0.1540  1.0900  0.4025
  387MOL0     C50986   6.457   4.483   1.750 -0.6966 -1.5094 -0.1392
  387MOL0     O50987   6.333   4.424   1.724 -0.3334  0.5603 -0.4177
  387MOL0     C50988   6.221   4.515   1.715  0.3421  0.6841 -0.2770
  387MOL0     C50989   6.105   4.482   1.612  0.0556 -0.3350  0.4795
  387MOL0     C50990   6.062   4.328   1.615 -0.0194 -1.5016 -1.0291
  387MOL0     C50991   5.947   4.286   1.524 -0.8804 -0.2915  0.3167
  387MOL0     C50992   5.915   4.134   1.515 -0.2757 -0.7317  0.4817
  387MOL0     C50993   5.856   4.084   1.650 -0.0034 -0.8142 -0.4210
  387MOL0     C50994   5.852   3.932   1.657  0.2731  0.1897 -0.0742
  387MOL0     C50995   5.847   3.890   1.807  0.5373 -0.2769 -0.1598
  387MOL0    Cl50996   5.863   3.715   1.822  0.0040 -0.2564 -0.0658
  387MOL0     C50997   6.551   4.477   1.653 -0.3330  0.2446 -0.5260
  387MOL0     C50998   6.682   4.522   1.679  1.0036  1.0495 -0.4966
  387MOL0     O50999   6.860   4.806   1.792 -0.0388 -1.1131  0.2056
  387MOL0     C51000   7.136   4.592   1.930 -0.1928  0.4756  0.7615
  387MOL0     C51001   7.276   4.598   1.950 -0.2380 -0.1416 -0.2543
  387MOL0     N51002   8.072   4.520   1.807  0.4842 -0.5793  0.6362
  387MOL0     N51003   8.099   4.447   1.702 -0.2657 -0.0982  0.2183
  387MOL0     C51004   8.259   4.831   0.638 -0.1291 -0.1437  0.7008
  387MOL0     C51005   8.282   4.966   0.615 -0.2376  0.4837 -0.3776
  387MOL0     C51006   8.482   5.372   0.611  0.0369 -0.0056 -0.2385
  387MOL0     C51007   8.596   5.376   0.539  0.1500  0.0913 -1.0483
  387MOL0     C51008   8.672   5.492   0.539  0.5089  0.6025  0.8791
  387MOL0     C51009   8.638   5.610   0.611  0.2954  0.2815  0.5325
  387MOL0     O51010   8.707   5.724   0.591 -0.5443 -0.3752  0.5069
  387MOL0     C51011   8.767   5.752   0.467  0.5863 -0.5478 -0.0856
  387MOL0     C51012   8.782   5.904   0.456  0.1655  0.3289  0.4348
  387MOL0     C51013   8.642   5.962   0.475  0.2021 -1.2231  0.6380
  387MOL0     C51014   8.607   6.088   0.402 -0.7800 -0.4304  0.1641
  387MOL0     C51015   8.705   6.183   0.436 -0.4612  0.9129 -0.2214
  387MOL0     C51016   8.803   6.259   0.450  0.6233 -0.1168  0.0865
  387MOL0     C51017   8.519   5.608   0.675  0.5307 -1.3976 -0.0457
  387MOL0     C51018   8.443   5.491   0.682  0.6429  0.4679  0.4276
  387MOL0     H51019   8.591   4.952   0.499 -0.2090 -0.2199 -0.8175
  387MOL0     H51020   8.541   4.702   0.520 -1.0763 -0.8970  0.7575
  387MOL0     H51021   8.529   4.556   0.690  0.5116 -0.8088 -0.5662
  387MOL0     H51022   8.440   4.432   0.592  0.6190  0.2281 -0.8679
  387MOL0     H51023   8.443   4.347   0.814 -1.2804  0.2149  4.0870
  387MOL0     H51024   8.278   4.417   0.786 -1.4400  4.4887  0.1874
  387MOL0     H51025   8.344   4.617   0.900 -0.2747  0.1886  0.8552
  387MOL0     H51026   8.481   4.539   0.962  0.4901  1.1119 -3.4281
  387MOL0     H51027   8.196   4.422   0.986 -0.4440 -1.2361 -0.3370
  387MOL0     H51028   8.331   4.351   1.070  3.1530  0.6476  0.8479
  387MOL0     H51029   8.237   4.634   1.146  1.5970  0.3517  1.2283
  387MOL0     H51030   8.368   4.552   1.212 -0.9129  2.7234 -0.0350
  387MOL0     H51031   8.223   4.365   1.287  1.5092  1.8268  4.1557
  387MOL0     H51032   8.073   4.446   1.215 -0.1818  2.0648  0.1081
  387MOL0     H51033   8.244   4.510   1.456 -1.2431 -1.3723  1.4721
  387MOL0     H51034   8.123   4.620   1.388 -0.9800 -0.4383  0.3146
  387MOL0     H51035   8.051   4.337   1.454  1.2214  0.3630  2.6404
  387MOL0     H51036   7.930   4.463   1.409 -0.2298  3.8183  1.3008
  387MOL0     H51037   7.831   4.617   1.611 -0.5321 -0.8076 -0.5495
  387MOL0     H51038   7.919   4.782   1.883  0.2912 -0.3321 -1.8949
  387MOL0     H51039   7.930   4.644   1.986  0.2499 -0.5489  0.3576
  387MOL0     H51040   7.711   4.553   1.900  2.0521  0.6504 -2.7103
  387MOL0     H51041   7.682   4.713   1.826 -1.8305  2.1828  2.3330
  387MOL0     H51042   7.736   4.697   2.117  0.5229 -3.5802 -1.6337
  387MOL0     H51043   7.703   4.834   2.026  0.5576  0.8742  3.4661
  387MOL0     H51044   7.502   4.715   2.155  3.6779  0.6139  0.8589
  387MOL0     H51045   7.534   4.579   2.043  0.7821  0.0399  1.8411
  387MOL0     H51046   7.310   4.926   1.857  0.0918  1.2063  3.4846
  387MOL0     H51047   7.062   4.918   1.829  0.4990 -0.0697  1.0929
  387MOL0     H51048   6.646   4.608   2.006  2.5522  2.2031 -1.8722
  387MOL0     H51049   6.421   4.515   1.959  2.0805 -0.0669  2.2887
  387MOL0     H51050   6.253   4.616   1.688  1.5107  0.7471  1.1769
  387MOL0     H51051   6.174   4.508   1.814 -0.6366 -0.7447 -0.8109
  387MOL0     H51052   6.144   4.486   1.510 -0.3237  0.5664  0.3619
  387MOL0     H51053   6.019   4.549   1.619 -0.7413 -1.2066 -0.6205
  387MOL0     H51054   6.017   4.311   1.714 -1.2331  1.6671 -0.9049
  387MOL0     H51055   6.161   4.284   1.598  2.6426  3.7537 -1.4440
  387MOL0     H51056   5.855   4.339   1.551 -2.0036 -1.6001 -0.7362
  387MOL0     H51057   5.961   4.319   1.421 -2.0993 -2.2836 -0.5620
  387MOL0     H51058   6.006   4.074   1.508 -0.6269 -1.1317 -0.9140
  387MOL0     H51059   5.851   4.111   1.429  1.3982 -1.2679 -0.6523
  387MOL0     H51060   5.754   4.122   1.663 -0.4550 -2.5482  1.7226
  387MOL0     H51061   5.924   4.113   1.731  1.9832 -2.7791 -1.2785
  387MOL0     H51062   5.769   3.893   1.596 -1.5267  2.3378  0.8577
  387MOL0     H51063   5.941   3.889   1.611 -0.0119  1.1752 -1.6112
  387MOL0     H51064   5.750   3.919   1.848  0.3898  2.2092 -1.9985
  387MOL0     H51065   5.924   3.945   1.861  0.6952 -2.5356  2.1206
  387MOL0     H51066   6.520   4.437   1.557  2.6416  0.8329 -1.8285
  387MOL0     H51067   6.752   4.496   1.600 -0.5409 -1.4301 -1.1610
  387MOL0     H51068   7.097   4.491   1.937  3.4174 -0.9908  2.1929
  387MOL0     H51069   7.336   4.514   1.985  1.4725  0.9277 -0.4889
  387MOL0     H51070   8.164   4.798   0.678 -1.2204  1.5450 -0.3513
  387MOL0     H51071   8.200   5.034   0.635 -0.6319 -0.5679  1.8420
  387MOL0     H51072   8.635   5.283   0.499 -0.6380 -0.6154 -0.2300
  387MOL0     H51073   8.756   5.488   0.471  0.4598  3.2854  0.5538
  387MOL0     H51074   8.708   5.721   0.381  2.6359 -3.0647 -0.7019
  387MOL0     H51075   8.865   5.702   0.468  1.4223  0.9060 -2.0929
  387MOL0     H51076   8.848   5.932   0.538  3.0016 -0.9902 -1.2312
  387MOL0     H51077   8.830   5.938   0.364  4.6248 -2.7028  1.2709
  387MOL0     H51078   8.624   5.987   0.580 -0.7712  1.5386 -0.0844
  387MOL0     H51079   8.563   5.894   0.443 -4.6392  3.0462  2.1782
  387MOL0     H51080   8.619   6.072   0.295 -1.4471  0.9381 -0.1406
  387MOL0     H51081   8.504   6.120   0.425 -0.2609  3.3829 -1.9802
  387MOL0     H51082   8.875   6.337   0.463  1.2879 -0.4677 -1.2615
  387MOL0     H51083   8.494   5.700   0.726 -2.3539 -0.6523 -2.4844
  387MOL0     H51084   8.352   5.493   0.741  0.5525 -1.1463  0.3675
  388MOL0     O51085   5.324  11.217   3.838 -0.0600  0.6695  0.0867
  388MOL0     C51086   5.329  11.096   3.817  0.4356 -0.8898  0.5080
  388MOL0     O51087   5.440  11.023   3.794  0.4161  0.3283 -0.1615
  388MOL0     C51088   5.564  11.082   3.786  0.2056  0.7376  0.4032
  388MOL0     C51089   5.679  10.998   3.819  0.0827 -0.4503 -0.0268
  388MOL0     C51090   5.818  11.028   3.793 -0.0947 -1.1917 -0.1221
  388MOL0     C51091   5.847  11.152   3.744 -0.3669 -1.2731  0.6084
  388MOL0     O51092   5.974  11.177   3.688 -0.8117  0.3826 -1.1863
  388MOL0     C51093   6.089  11.168   3.781  0.3924 -0.4221 -0.5015
  388MOL0     C51094   6.182  11.278   3.739 -0.2875  0.2831 -0.8795
  388MOL0     C51095   6.272  11.247   3.618  0.3466  0.1674 -0.7813
  388MOL0     C51096   6.199  11.231   3.477  0.6492 -0.7648  0.8765
  388MOL0     C51097   6.306  11.222   3.361  0.2252  0.6621 -0.8651
  388MOL0     C51098   6.398  11.348   3.337  0.0062 -1.4062  0.9418
  388MOL0     C51099   6.320  11.468   3.280  0.1606  0.4279  0.1000
  388MOL0     C51100   6.408  11.588   3.245 -0.2359 -0.4464  0.6999
  388MOL0     N51101   6.339  11.686   3.157  0.2175  0.0605  0.6101
  388MOL0     C51102   6.222  11.753   3.195  0.5978 -0.2543  0.0149
  388MOL0     C51103   6.174  11.801   3.074  0.2890 -0.8018 -0.4015
  388MOL0     C51104   6.053  11.896   3.060  0.2722 -0.4603  0.7086
  388MOL0     C51105   5.921  11.814   3.082 -0.8122 -0.1143 -0.2680
  388MOL0     C51106   5.784  11.898   3.094  0.7892  0.1556  0.1450
  388MOL0     C51107   5.663  11.802   3.070  0.3231 -0.6179  0.4820
  388MOL0     O51108   5.538  11.879   3.055  0.5873  0.6368 -0.3310
  388MOL0     C51109   5.427  11.815   3.026 -0.1895 -0.8693  0.5622
  388MOL0     C51110   5.328  11.799   3.124 -0.1176  0.2478  0.1771
  388MOL0     C51111   5.204  11.751   3.085 -0.5368  1.2364 -0.5818
  388MOL0     C51112   5.176  11.699   2.949 -0.2964  0.7424 -0.6491
  388MOL0     C51113   5.041  11.642   2.927 -1.3273 -0.1824 -0.0491
  388MOL0     O51114   4.978  11.603   3.036  0.3682  0.7701 -0.1756
  388MOL0     C51115   4.847  11.563   3.021  0.2324 -1.4487 -0.7794
  388MOL0     C51116   4.755  11.652   2.962  0.0155 -0.2158  1.3646
  388MOL0     C51117   4.617  11.628   2.964  0.5729  0.0657 -0.9684
  388MOL0     C51118   4.580  11.512   3.035 -0.5613 -0.1536  0.4137
  388MOL0     O51119   4.445  11.501   3.036 -0.3422 -0.9989  0.8877
  388MOL0     C51120   4.375  11.455   3.158 -0.4533  1.1628  0.7717
  388MOL0     C51121   4.361  11.577   3.252 -0.7577  0.0152  0.1887
  388MOL0     C51122   4.286  11.687   3.185 -0.5574 -0.5951 -0.3870
  388MOL0     C51123   4.265  11.818   3.281 -0.2115  0.3450 -0.2156
  388MOL0     C51124   4.398  11.894   3.280  0.0156  0.2659  0.8786
  388MOL0     C51125   4.387  12.031   3.359  0.2018 -0.1705 -0.6584
  388MOL0     C51126   4.526  12.097   3.365 -0.1958  0.1856 -0.4589
  388MOL0     C51127   4.527  12.197   3.477  0.0831 -0.1703 -0.4203
  388MOL0    Cl51128   4.381  12.302   3.474 -0.2331  0.3169  0.1282
  388MOL0     C51129   4.667  11.426   3.096 -0.4533 -1.2974  0.5629
  388MOL0     C51130   4.803  11.446   3.082  0.9090  0.0166  0.0415
  388MOL0     O51131   4.998  11.648   2.811 -0.0053  0.4947 -0.5230
  388MOL0     C51132   5.276  11.719   2.859 -0.2871 -0.6127  0.0219
  388MOL0     C51133   5.402  11.773   2.895  1.2104  0.6875 -0.8809
  388MOL0     N51134   6.254  11.758   2.974 -0.2223 -0.0913  0.5064
  388MOL0     N51135   6.344  11.676   3.027  0.1186 -0.7758  0.5179
  388MOL0     C51136   5.742  11.242   3.714  0.9643  0.4846 -0.1924
  388MOL0     C51137   5.604  11.204   3.728  0.5111 -0.3893 -0.3165
  388MOL0     C51138   5.194  11.015   3.816  0.0004 -0.7882  0.6250
  388MOL0     C51139   5.205  10.875   3.833  0.6806  0.3917  0.4455
  388MOL0     C51140   5.095  10.790   3.812  0.3922  0.3116 -0.3238
  388MOL0     C51141   4.971  10.845   3.817 -0.0965  0.1672 -0.0302
  388MOL0     O51142   4.854  10.773   3.831  0.1973  0.4098  0.4453
  388MOL0     C51143   4.847  10.628   3.840  0.1980  0.4514  0.6300
  388MOL0     C51144   4.697  10.601   3.874  0.2172  0.3658 -0.6193
  388MOL0     C51145   4.663  10.635   4.028 -0.6636  0.3494  0.3399
  388MOL0     C51146   4.601  10.783   4.056 -1.0618  0.3707 -0.3746
  388MOL0     C51147   4.467  10.805   3.989 -0.6325 -0.8756 -0.7943
  388MOL0     C51148   4.352  10.811   3.935  0.2444  0.0787  0.5701
  388MOL0     C51149   4.957  10.987   3.808 -1.3583 -0.2777  0.5164
  388MOL0     C51150   5.064  11.074   3.807 -0.6123 -0.7369 -0.0744
  388MOL0     H51151   5.646  10.901   3.854  0.8801 -1.6178 -2.3354
  388MOL0     H51152   5.896  10.959   3.823  1.6019  1.5510  2.3167
  388MOL0     H51153   6.141  11.072   3.777 -2.2807 -1.9256 -0.9533
  388MOL0     H51154   6.057  11.177   3.886 -0.9009 -3.0479 -0.5969
  388MOL0     H51155   6.246  11.314   3.819  0.1731 -1.6848 -0.3278
  388MOL0     H51156   6.122  11.365   3.709 -0.3721  1.4928  2.3676
  388MOL0     H51157   6.326  11.156   3.644  2.2416  1.7336  1.0898
  388MOL0     H51158   6.332  11.338   3.612 -4.7310  4.0522  0.2027
  388MOL0     H51159   6.142  11.138   3.482  0.3176 -0.6566 -0.6100
  388MOL0     H51160   6.146  11.324   3.452  2.7737  0.4660  0.6818
  388MOL0     H51161   6.243  11.215   3.272 -3.3816 -0.9890  1.5522
  388MOL0     H51162   6.360  11.128   3.379 -1.2750  0.1015  1.0631
  388MOL0     H51163   6.454  11.314   3.249  2.2674  0.3116  1.6181
  388MOL0     H51164   6.466  11.370   3.420 -0.7806  1.6115  0.8964
  388MOL0     H51165   6.266  11.433   3.191 -0.1995 -2.2337  1.2446
  388MOL0     H51166   6.250  11.506   3.355  0.3615  1.1575 -0.0771
  388MOL0     H51167   6.501  11.554   3.198 -0.4697  0.0917 -0.1720
  388MOL0     H51168   6.435  11.641   3.337 -0.6693 -0.9140  1.1008
  388MOL0     H51169   6.178  11.768   3.293 -1.7472 -1.3312 -0.8201
  388MOL0     H51170   6.062  11.951   2.966 -0.0352  0.6746  1.3229
  388MOL0     H51171   6.070  11.974   3.135  1.3665  1.0527 -1.0139
  388MOL0     H51172   5.936  11.766   3.179  0.5968 -0.0691 -0.4447
  388MOL0     H51173   5.921  11.730   3.013  3.1686  0.3342 -1.0495
  388MOL0     H51174   5.788  11.936   3.197  1.0376  0.0896  0.1593
  388MOL0     H51175   5.792  11.978   3.020  4.0911  0.0291  0.2006
  388MOL0     H51176   5.664  11.735   3.156 -2.0158  0.1695  1.2060
  388MOL0     H51177   5.686  11.742   2.982  2.9006  3.2080 -1.7712
  388MOL0     H51178   5.346  11.826   3.228 -1.6310 -2.1705  1.1716
  388MOL0     H51179   5.135  11.747   3.169  0.7201  1.1254  0.4623
  388MOL0     H51180   4.782  11.744   2.911 -3.5832 -0.0961 -0.6877
  388MOL0     H51181   4.539  11.691   2.921 -0.0551 -0.2799 -0.3607
  388MOL0     H51182   4.425  11.373   3.209  3.0395  1.8807 -1.1935
  388MOL0     H51183   4.275  11.420   3.130  0.6818 -0.7832 -1.2282
  388MOL0     H51184   4.462  11.606   3.283 -0.6882 -0.0506  0.0265
  388MOL0     H51185   4.300  11.561   3.341 -1.5867 -0.8759 -0.5066
  388MOL0     H51186   4.184  11.649   3.172 -0.6176 -0.5754  0.0137
  388MOL0     H51187   4.328  11.730   3.094  0.9788  1.0117  1.0064
  388MOL0     H51188   4.179  11.878   3.251  1.1001  2.2378 -0.3949
  388MOL0     H51189   4.249  11.793   3.386  3.1549 -1.0785  0.0760
  388MOL0     H51190   4.429  11.911   3.176  1.1661  0.6848  1.2681
  388MOL0     H51191   4.473  11.826   3.322 -0.1890 -1.4620 -1.3486
  388MOL0     H51192   4.339  12.019   3.457 -0.2091  2.7419 -0.4190
  388MOL0     H51193   4.322  12.099   3.303  0.8748  1.3297  0.3226
  388MOL0     H51194   4.597  12.018   3.393 -0.9562 -0.1544  0.5412
  388MOL0     H51195   4.543  12.141   3.266 -0.6324 -1.9168 -1.5110
  388MOL0     H51196   4.617  12.258   3.463  0.8616 -1.3408 -0.7372
  388MOL0     H51197   4.541  12.152   3.576  0.4281  2.3204  0.7450
  388MOL0     H51198   4.627  11.337   3.143 -0.8813 -1.1822  0.4182
  388MOL0     H51199   4.871  11.382   3.137  0.6604 -0.4920 -0.2383
  388MOL0     H51200   5.259  11.693   2.755  0.1902 -0.0734 -0.1992
  388MOL0     H51201   5.465  11.787   2.809  1.7790 -3.1783 -1.2880
  388MOL0     H51202   5.759  11.337   3.666 -0.1737  0.3351 -0.9384
  388MOL0     H51203   5.530  11.273   3.689  0.2663 -1.5175 -1.9381
  388MOL0     H51204   5.302  10.829   3.850  1.8463  2.7149  0.5012
  388MOL0     H51205   5.116  10.684   3.809 -1.1808 -0.0399  0.2441
  388MOL0     H51206   4.909  10.587   3.920 -0.0523 -3.4352 -0.9783
  388MOL0     H51207   4.873  10.574   3.748 -1.5962 -0.5602  0.6825
  388MOL0     H51208   4.626  10.651   3.808  1.9305  1.4176 -1.7386
  388MOL0     H51209   4.685  10.494   3.857  1.2950 -0.1596  1.5242
  388MOL0     H51210   4.757  10.635   4.084  1.1189  4.7325 -2.1436
  388MOL0     H51211   4.587  10.561   4.056 -1.5914  1.6455  1.3729
  388MOL0     H51212   4.584  10.805   4.162  0.0376 -2.6520  0.5320
  388MOL0     H51213   4.677  10.854   4.021 -0.9592  1.2504  1.5324
  388MOL0     H51214   4.253  10.811   3.893  0.7920 -1.0443 -0.8021
  388MOL0     H51215   4.863  11.038   3.792 -0.9260  0.8486  1.4012
  388MOL0     H51216   5.047  11.179   3.785 -1.2401 -0.1407  2.9525
  389MOL0     O51217   8.095  10.189   8.241 -0.2699 -0.7078  0.3320
  389MOL0     C51218   8.156  10.224   8.144  0.4870 -0.4914  1.4306
  389MOL0     O51219   8.277  10.177   8.090 -0.9421  0.7439 -0.6859
  389MOL0     C51220   8.352  10.107   8.187 -0.6013 -0.2574 -0.4015
  389MOL0     C51221   8.343   9.968   8.192 -0.0402 -0.2701 -1.3138
  389MOL0     C51222   8.424   9.900   8.282 -0.3556 -0.6319  0.7795
  389MOL0     C51223   8.513   9.965   8.369  0.4217 -0.4231  1.0272
  389MOL0     O51224   8.601   9.910   8.467 -0.1540 -0.5124 -0.5323
  389MOL0     C51225   8.613   9.762   8.471 -0.0813  0.3076  0.9623
  389MOL0     C51226   8.679   9.729   8.600  0.2190 -0.6494  0.0567
  389MOL0     C51227   8.776   9.614   8.603 -0.6564 -0.0762 -0.0745
  389MOL0     C51228   8.873   9.607   8.732  0.4444  0.4503  0.0165
  389MOL0     C51229   8.998   9.528   8.708 -0.8975  0.3892  0.4432
  389MOL0     C51230   9.091   9.533   8.832  0.2465  0.2193 -0.5138
  389MOL0     C51231   9.209   9.458   8.806 -1.0094  0.0478  0.1223
  389MOL0     C51232   9.308   9.476   8.927  0.0707 -0.1962  0.0435
  389MOL0     N51233   9.439   9.539   8.901  1.0460 -0.0306 -0.6091
  389MOL0     C51234   9.520   9.589   8.997  0.2033  0.4843 -0.1736
  389MOL0     C51235   9.632   9.627   8.928  0.1390  0.2559 -0.3735
  389MOL0     C51236   9.767   9.661   8.989 -0.1316 -0.5010 -0.0514
  389MOL0     C51237   9.855   9.538   9.006 -0.4128  0.4442 -0.1899
  389MOL0     C51238   9.983   9.525   8.926 -0.5852  0.1330  0.0243
  389MOL0     C51239  10.061   9.402   8.972 -1.5256 -0.0921 -0.3204
  389MOL0     O51240  10.189   9.428   8.922 -0.4072 -1.0109  0.8068
  389MOL0     C51241  10.226   9.431   8.791 -0.4270 -0.0686 -1.2313
  389MOL0     C51242  10.352   9.484   8.762 -1.0691  0.1893 -0.4013
  389MOL0     C51243  10.389   9.488   8.628  0.0768  0.3049  0.3242
  389MOL0     C51244  10.307   9.440   8.519 -0.3813 -0.2938  0.1087
  389MOL0     C51245  10.357   9.448   8.386 -0.4722 -0.3069  0.6490
  389MOL0     O51246  10.309   9.361   8.295  0.9655  0.9689  0.5891
  389MOL0     C51247  10.401   9.333   8.195  0.0238  0.1249 -1.2444
  389MOL0     C51248  10.473   9.218   8.206  0.2182 -0.0722  0.0697
  389MOL0     C51249  10.549   9.170   8.102 -1.0917  0.3472  0.0503
  389MOL0     C51250  10.575   9.243   7.989 -0.0933  0.1531 -1.4068
  389MOL0     O51251  10.638   9.198   7.873 -0.3590 -0.4575 -0.0901
  389MOL0     C51252  10.638   9.055   7.838 -0.7449  0.2001 -0.8533
  389MOL0     C51253  10.700   9.020   7.703  0.4872  0.1279 -0.2403
  389MOL0     C51254  10.837   9.098   7.689  0.6277 -0.1436  0.6367
  389MOL0     C51255  10.929   9.115   7.812 -0.1966 -0.1923 -0.1199
  389MOL0     C51256  11.054   9.196   7.764  0.5797 -0.5738 -0.7185
  389MOL0     C51257  11.181   9.114   7.770 -0.1279 -0.0602  1.1236
  389MOL0     C51258  11.318   9.185   7.755  0.8098  0.4245 -0.6477
  389MOL0     C51259  11.430   9.074   7.742  0.4860 -0.4870  0.3104
  389MOL0    Cl51260  11.489   9.038   7.898  0.3679  0.2474 -0.5419
  389MOL0     C51261  10.520   9.368   7.987 -0.4882 -0.6509  0.5162
  389MOL0     C51262  10.421   9.412   8.080 -0.7334 -0.4748  0.7109
  389MOL0     O51263  10.423   9.547   8.362 -0.4264 -0.0767  1.0572
  389MOL0     C51264  10.191   9.374   8.560  0.7445  0.0529 -0.6754
  389MOL0     C51265  10.149   9.375   8.694 -0.9719  0.1384  0.5467
  389MOL0     N51266   9.605   9.627   8.790 -0.3772  0.3864 -0.6086
  389MOL0     N51267   9.487   9.568   8.777 -0.0755  0.2266  0.3075
  389MOL0     C51268   8.541  10.108   8.353  1.0653 -0.1667  0.5856
  389MOL0     C51269   8.464  10.170   8.255 -0.6625 -0.4276 -0.5089
  389MOL0     C51270   8.095  10.346   8.081 -0.4442  0.5653  0.6657
  389MOL0     C51271   7.966  10.386   8.096  0.1880  0.0112  0.3735
  389MOL0     C51272   7.914  10.488   8.016  0.2669 -0.8339  0.7052
  389MOL0     C51273   7.982  10.549   7.904  0.7211 -0.2869 -0.5533
  389MOL0     O51274   7.935  10.652   7.833 -0.2233  0.9556  0.2256
  389MOL0     C51275   7.963  10.795   7.883  0.9116  1.0042  0.3330
  389MOL0     C51276   7.858  10.885   7.823  0.4039 -0.0185  0.9002
  389MOL0     C51277   7.726  10.921   7.893  0.0950  0.1031  0.6694
  389MOL0     C51278   7.768  10.993   8.018  0.2406  0.5146 -0.7528
  389MOL0     C51279   7.650  11.043   8.092 -1.0673 -0.3821  0.7038
  389MOL0     C51280   7.548  11.087   8.136  0.2970  0.2440 -0.1848
  389MOL0     C51281   8.118  10.504   7.892  0.6669 -0.4612 -0.0029
  389MOL0     C51282   8.182  10.410   7.978  0.6678  0.2575 -0.2271
  389MOL0     H51283   8.268   9.909   8.142 -2.8380  0.5554  1.5451
  389MOL0     H51284   8.406   9.795   8.302 -2.6987 -0.3735  0.3610
  389MOL0     H51285   8.682   9.737   8.390  2.5250 -1.4622  3.5357
  389MOL0     H51286   8.515   9.716   8.453  1.1833 -1.1394 -3.2368
  389MOL0     H51287   8.598   9.702   8.669 -0.4474  0.1337 -0.3852
  389MOL0     H51288   8.728   9.821   8.633 -0.1285 -0.2261 -0.5697
  389MOL0     H51289   8.848   9.611   8.520  0.1524  1.7611  0.5005
  389MOL0     H51290   8.713   9.525   8.599 -2.7332  1.3364  0.0418
  389MOL0     H51291   8.901   9.710   8.756 -0.0304 -0.0291  2.9708
  389MOL0     H51292   8.818   9.562   8.814 -0.2833  0.2076 -0.5984
  389MOL0     H51293   9.049   9.576   8.624 -1.4313 -0.0586 -0.1480
  389MOL0     H51294   8.968   9.425   8.684 -0.9671  0.4541  0.2474
  389MOL0     H51295   9.033   9.490   8.915  1.6983 -0.1581  0.3593
  389MOL0     H51296   9.109   9.637   8.858  0.1590  0.1196 -0.0409
  389MOL0     H51297   9.184   9.351   8.807  0.2964 -0.2797 -0.1570
  389MOL0     H51298   9.254   9.486   8.710  1.6426  2.5004  1.9153
  389MOL0     H51299   9.348   9.381   8.962  1.3645  0.2142 -0.2289
  389MOL0     H51300   9.257   9.517   9.014 -1.1123  1.6439 -1.4332
  389MOL0     H51301   9.493   9.589   9.102  1.4677 -0.5466  0.1695
  389MOL0     H51302   9.749   9.724   9.076  0.1603  0.9229 -0.9917
  389MOL0     H51303   9.816   9.726   8.915 -1.2454 -0.2712 -0.6110
  389MOL0     H51304   9.807   9.446   8.970  2.2453 -0.4536 -1.7717
  389MOL0     H51305   9.874   9.530   9.113 -1.3489  0.2770 -0.0226
  389MOL0     H51306   9.964   9.512   8.819  0.8515  2.1941 -0.5519
  389MOL0     H51307  10.043   9.616   8.934 -1.1491  0.9240 -3.3230
  389MOL0     H51308  10.016   9.309   8.935 -1.3407 -0.1369 -0.4299
  389MOL0     H51309  10.070   9.415   9.080 -5.0982  1.9913 -0.0867
  389MOL0     H51310  10.414   9.533   8.836  0.0187  0.6753 -1.5810
  389MOL0     H51311  10.487   9.528   8.608 -0.4619  2.4079  1.6045
  389MOL0     H51312  10.463   9.154   8.293 -0.7012  0.2265  0.1952
  389MOL0     H51313  10.604   9.077   8.109 -1.0975  0.1927 -1.5270
  389MOL0     H51314  10.540   9.008   7.851 -0.1078 -1.1486 -0.7774
  389MOL0     H51315  10.701   9.014   7.918  2.4857  2.1528 -2.2260
  389MOL0     H51316  10.634   9.048   7.621 -0.4190  0.4168  0.5792
  389MOL0     H51317  10.725   8.915   7.687  1.5492  0.8470 -4.3663
  389MOL0     H51318  10.811   9.198   7.654  0.9201  0.0114  0.8561
  389MOL0     H51319  10.893   9.046   7.610 -2.1861  1.1063 -2.4145
  389MOL0     H51320  10.887   9.179   7.890 -0.5744 -0.0409 -0.4363
  389MOL0     H51321  10.954   9.021   7.860  3.6079 -0.4365 -2.1707
  389MOL0     H51322  11.058   9.287   7.824 -2.6836  2.2441 -4.2503
  389MOL0     H51323  11.051   9.238   7.663 -0.6843  0.7660 -0.1589
  389MOL0     H51324  11.175   9.040   7.690 -0.0085  0.9941  0.1091
  389MOL0     H51325  11.179   9.075   7.872 -1.8619  3.9847  2.8777
  389MOL0     H51326  11.334   9.255   7.673  2.6802  1.8614  0.8431
  389MOL0     H51327  11.344   9.244   7.844 -0.0448  1.5524 -1.1208
  389MOL0     H51328  11.518   9.112   7.689 -0.4408  2.2263  0.5577
  389MOL0     H51329  11.391   8.992   7.682  1.6216 -1.1135  0.4091
  389MOL0     H51330  10.536   9.434   7.902  0.6647 -1.9600 -0.3345
  389MOL0     H51331  10.370   9.507   8.074  1.3274  0.8720  3.0108
  389MOL0     H51332  10.133   9.331   8.478 -0.0039  1.0069 -0.6684
  389MOL0     H51333  10.061   9.320   8.727  1.7360 -3.1918  3.0019
  389MOL0     H51334   8.619  10.155   8.412  1.6939 -1.7380  1.0651
  389MOL0     H51335   8.482  10.274   8.228  0.8010 -1.0942 -2.3115
  389MOL0     H51336   7.917  10.337   8.179  0.0650 -0.2778  0.1322
  389MOL0     H51337   7.812  10.519   8.037 -0.1639 -1.9194  0.2296
  389MOL0     H51338   8.061  10.811   7.838  0.9167 -0.4924 -0.2329
  389MOL0     H51339   7.973  10.805   7.992 -0.2235 -0.9714  0.6689
  389MOL0     H51340   7.902  10.985   7.809  0.6031 -0.1591  0.5035
  389MOL0     H51341   7.838  10.842   7.724  2.6890 -1.4353  0.9992
  389MOL0     H51342   7.677  10.827   7.920  1.4698 -0.9721 -0.5060
  389MOL0     H51343   7.662  10.980   7.826 -0.1695  1.7503  2.2876
  389MOL0     H51344   7.835  10.934   8.080 -0.3126  1.7615  1.1394
  389MOL0     H51345   7.827  11.082   7.996  1.6740  0.2954  1.7917
  389MOL0     H51346   7.463  11.124   8.191  1.1449 -1.4986  2.5057
  389MOL0     H51347   8.186  10.545   7.818 -0.7266  0.7126 -0.6668
  389MOL0     H51348   8.287  10.386   7.966  0.7494 -0.6637  1.8281
  390MOL0     O51349   6.059  11.081   9.560  0.7144 -0.0847  0.6715
  390MOL0     C51350   6.050  11.190   9.502  1.1472  0.3602  0.3351
  390MOL0     O51351   6.011  11.214   9.367  0.1474  0.4343 -0.5797
  390MOL0     C51352   6.016  11.101   9.278 -0.2113  0.3799 -0.0816
  390MOL0     C51353   6.053  10.960   9.297 -0.5103  0.0069 -0.0434
  390MOL0     C51354   6.051  10.873   9.182 -0.0752 -0.5609 -0.6995
  390MOL0     C51355   6.023  10.922   9.050  0.7576 -0.3724  0.2142
  390MOL0     O51356   6.056  10.848   8.941 -0.3762 -0.6448  0.9970
  390MOL0     C51357   6.049  10.701   8.940 -0.2578  0.3046 -0.2632
  390MOL0     C51358   6.191  10.646   8.927 -0.0876 -0.3983 -0.0149
  390MOL0     C51359   6.254  10.688   8.796 -0.5252  0.0502  0.8801
  390MOL0     C51360   6.374  10.612   8.746  0.3193 -0.0041 -1.0316
  390MOL0     C51361   6.442  10.679   8.620 -0.3196 -0.5246  0.0569
  390MOL0     C51362   6.550  10.585   8.559  0.3360 -1.4341  0.2410
  390MOL0     C51363   6.500  10.492   8.455 -0.3689  0.1395 -0.3636
  390MOL0     C51364   6.447  10.554   8.321 -0.6267 -0.4002 -0.0798
  390MOL0     N51365   6.430  10.432   8.238  0.1488 -0.0846 -0.4090
  390MOL0     C51366   6.517  10.368   8.147 -0.1637 -0.1407 -0.2195
  390MOL0     C51367   6.471  10.242   8.133 -0.2576 -0.5983 -0.2462
  390MOL0     C51368   6.544  10.134   8.056  0.5122 -0.9921  0.7918
  390MOL0     C51369   6.584  10.004   8.124  0.5639 -0.7204  0.5776
  390MOL0     C51370   6.641  10.015   8.267 -0.5875  0.3541  0.0735
  390MOL0     C51371   6.759  10.115   8.288 -0.1616  0.2534  0.5375
  390MOL0     O51372   6.860  10.102   8.187 -0.3064  0.9033  0.1689
  390MOL0     C51373   6.971  10.186   8.196 -0.1648 -0.3383 -0.0588
  390MOL0     C51374   6.995  10.291   8.292  0.5187 -0.2084 -0.0749
  390MOL0     C51375   7.121  10.357   8.289 -0.0287 -0.1077  0.6277
  390MOL0     C51376   7.225  10.313   8.200 -0.2568  0.9443  0.6907
  390MOL0     C51377   7.363  10.375   8.203  1.0528  0.0336 -1.0102
  390MOL0     O51378   7.385  10.476   8.286  0.6281  0.3192 -0.2892
  390MOL0     C51379   7.515  10.520   8.295 -0.8620 -0.0449  0.2690
  390MOL0     C51380   7.567  10.616   8.200  0.2563  0.1172  0.7691
  390MOL0     C51381   7.693  10.667   8.226 -0.1152 -0.2271  0.0974
  390MOL0     C51382   7.763  10.630   8.334 -0.1245  0.6211  0.8012
  390MOL0     O51383   7.884  10.680   8.344 -0.3657  0.0181  0.7913
  390MOL0     C51384   7.979  10.586   8.393 -0.4430  0.0553  0.3989
  390MOL0     C51385   8.126  10.617   8.363  0.3247 -0.5688  0.6286
  390MOL0     C51386   8.243  10.530   8.411 -0.3876  0.3740 -0.0574
  390MOL0     C51387   8.369  10.611   8.386 -0.5024 -0.9902 -0.3037
  390MOL0     C51388   8.486  10.536   8.437 -0.3459 -0.4617 -0.1698
  390MOL0     C51389   8.620  10.573   8.386 -1.0960 -0.6397 -0.7693
  390MOL0     C51390   8.739  10.504   8.442  1.0368 -0.6362 -0.4416
  390MOL0     C51391   8.862  10.535   8.356  0.1531 -0.1687  0.6638
  390MOL0    Cl51392   8.908  10.699   8.377  0.2587 -0.5095  0.0867
  390MOL0     C51393   7.701  10.546   8.433  0.2861 -0.1484 -0.0276
  390MOL0     C51394   7.584  10.489   8.410  0.3798  0.6109  0.1919
  390MOL0     O51395   7.444  10.315   8.141 -0.7142 -0.0356 -0.4346
  390MOL0     C51396   7.195  10.204   8.112 -0.1691 -0.3789  0.8012
  390MOL0     C51397   7.069  10.149   8.105 -0.2380  0.5531  0.0950
  390MOL0     N51398   6.356  10.229   8.188 -0.5346 -0.1575 -1.0201
  390MOL0     N51399   6.330  10.347   8.257  0.5668 -0.0127  0.0824
  390MOL0     C51400   5.982  11.053   9.040 -0.1201 -0.8698 -0.0115
  390MOL0     C51401   5.976  11.147   9.149  0.0184  0.7154  0.0613
  390MOL0     C51402   6.076  11.299   9.596 -1.0643 -0.3656  0.4962
  390MOL0     C51403   6.100  11.430   9.555 -1.1578  0.5288  0.8231
  390MOL0     C51404   6.153  11.529   9.641  0.1866  0.6933  0.2682
  390MOL0     C51405   6.175  11.501   9.772  0.6756 -0.1115  0.2961
  390MOL0     O51406   6.203  11.597   9.863 -0.7605  0.1684  0.1044
  390MOL0     C51407   6.305  11.688   9.844 -0.4242  0.2745 -0.1783
  390MOL0     C51408   6.437  11.628   9.778 -0.2062 -0.0214  0.5698
  390MOL0     C51409   6.514  11.551   9.892 -0.4376  0.5317 -0.2560
  390MOL0     C51410   6.665  11.605   9.918  0.4276 -0.2995  0.8793
  390MOL0     C51411   6.743  11.564   9.802  0.2833  0.6003  0.8205
  390MOL0     C51412   6.802  11.530   9.707 -0.4784 -0.0541  0.5920
  390MOL0     C51413   6.156  11.371   9.817  0.3079  0.1815 -0.3115
  390MOL0     C51414   6.104  11.271   9.734 -0.9337 -0.4448  0.2761
  390MOL0     H51415   6.080  10.909   9.389  1.3784  0.1001 -0.5049
  390MOL0     H51416   6.088  10.773   9.203  1.8338 -1.0869 -5.3721
  390MOL0     H51417   5.992  10.672   8.851  0.4653  0.9286 -0.9453
  390MOL0     H51418   5.997  10.662   9.027  0.0909 -0.6798 -0.4923
  390MOL0     H51419   6.194  10.537   8.937  2.7652 -0.3301  0.8984
  390MOL0     H51420   6.237  10.699   9.011 -4.3162  1.5152  1.3498
  390MOL0     H51421   6.277  10.795   8.796  1.7863 -0.4028  0.8756
  390MOL0     H51422   6.176  10.668   8.721 -0.1753 -0.4104  0.6290
  390MOL0     H51423   6.451  10.609   8.825 -0.3046 -0.1246 -0.4191
  390MOL0     H51424   6.341  10.509   8.731 -1.8864  0.4707  0.1763
  390MOL0     H51425   6.486  10.776   8.647 -3.1151  0.7824  0.2670
  390MOL0     H51426   6.363  10.706   8.550 -1.3401  4.2175  2.5685
  390MOL0     H51427   6.605  10.534   8.639  2.7245  0.6655  0.0407
  390MOL0     H51428   6.618  10.656   8.512 -3.5794  2.6914  0.0351
  390MOL0     H51429   6.581  10.419   8.447  0.3972  0.8627  0.5018
  390MOL0     H51430   6.412  10.445   8.499 -0.0098  1.4360  1.8794
  390MOL0     H51431   6.517  10.619   8.267 -1.1318 -1.3701 -2.0045
  390MOL0     H51432   6.351  10.594   8.354 -0.5100 -1.9452  2.4105
  390MOL0     H51433   6.611  10.410   8.113 -0.1544  0.5851  0.6745
  390MOL0     H51434   6.635  10.179   8.014 -0.5649 -0.7435 -1.4535
  390MOL0     H51435   6.481  10.101   7.972  3.0944  0.5957 -1.9861
  390MOL0     H51436   6.638   9.931   8.064  0.8883 -1.2699  1.5237
  390MOL0     H51437   6.487   9.955   8.136  0.2192 -0.0560  0.5467
  390MOL0     H51438   6.561  10.043   8.336 -0.2281  0.8529  0.2964
  390MOL0     H51439   6.668   9.913   8.294 -0.4512  0.2507 -0.4415
  390MOL0     H51440   6.794  10.094   8.389 -0.5051 -3.6631  0.0080
  390MOL0     H51441   6.709  10.212   8.277 -2.0556 -0.8935 -2.1386
  390MOL0     H51442   6.916  10.311   8.364  0.9059 -2.0780  0.9246
  390MOL0     H51443   7.139  10.432   8.365  0.5174 -0.2686  0.6617
  390MOL0     H51444   7.510  10.644   8.113  2.4363  0.3374 -0.6623
  390MOL0     H51445   7.748  10.729   8.156  1.8790  0.9809  2.5712
  390MOL0     H51446   7.952  10.490   8.349 -0.2850  0.2272 -0.0853
  390MOL0     H51447   7.971  10.590   8.502 -0.4156  3.5265  0.3774
  390MOL0     H51448   8.147  10.721   8.390 -0.2940 -0.4778  0.7678
  390MOL0     H51449   8.126  10.619   8.254 -0.2298  2.1863  0.6101
  390MOL0     H51450   8.252  10.428   8.371  1.9481  0.1174  0.9872
  390MOL0     H51451   8.234  10.520   8.519 -1.0491 -0.2465 -0.1569
  390MOL0     H51452   8.386  10.618   8.278  4.4653 -2.1006  0.1423
  390MOL0     H51453   8.374  10.709   8.433  0.8254 -1.4407  0.5588
  390MOL0     H51454   8.482  10.429   8.418  2.1501 -0.3235 -1.9272
  390MOL0     H51455   8.481  10.558   8.544  1.9111  2.2017 -0.5073
  390MOL0     H51456   8.635  10.678   8.413 -0.4427 -0.8757 -0.1822
  390MOL0     H51457   8.616  10.565   8.277  0.6716 -1.9922 -0.7716
  390MOL0     H51458   8.757  10.541   8.544  1.0246  1.2218 -1.0843
  390MOL0     H51459   8.704  10.400   8.446  1.2606 -0.8856 -3.2129
  390MOL0     H51460   8.846  10.511   8.251 -1.7148 -1.0152  1.1120
  390MOL0     H51461   8.943  10.474   8.397  0.1315  0.5021  1.7436
  390MOL0     H51462   7.754  10.525   8.526  1.7892  2.2678 -0.2437
  390MOL0     H51463   7.536  10.425   8.484 -0.7418  2.0621  0.7578
  390MOL0     H51464   7.264  10.172   8.034  1.1007  1.3873  1.1439
  390MOL0     H51465   7.052  10.069   8.034  2.9003 -0.1888  0.0312
  390MOL0     H51466   5.956  11.085   8.940  0.2119  1.2299  0.5213
  390MOL0     H51467   5.957  11.251   9.125 -1.7802  1.7060  4.6238
  390MOL0     H51468   6.081  11.475   9.457  0.1417 -0.0572  0.2814
  390MOL0     H51469   6.178  11.630   9.613 -2.5562  2.0770  2.3651
  390MOL0     H51470   6.325  11.719   9.948 -1.0496 -1.0214  0.3512
  390MOL0     H51471   6.276  11.768   9.775 -0.9153 -1.0997 -1.6077
  390MOL0     H51472   6.420  11.573   9.685 -0.2309  2.4653 -1.0001
  390MOL0     H51473   6.498  11.710   9.738 -2.2376 -0.6546 -4.5281
  390MOL0     H51474   6.516  11.445   9.867  0.0680  0.5893 -0.4782
  390MOL0     H51475   6.453  11.565   9.982  1.1678  1.2561  0.7654
  390MOL0     H51476   6.657  11.714   9.921  0.5672 -0.3013  1.5441
  390MOL0     H51477   6.714  11.568  10.008  2.0491  0.7458  0.4841
  390MOL0     H51478   6.858  11.498   9.622  0.7157 -0.5686  1.5398
  390MOL0     H51479   6.180  11.344   9.920  1.8516 -3.6932 -1.5299
  390MOL0     H51480   6.079  11.178   9.783  0.1243 -1.0961 -0.3680
  391MOL0     O51481   5.094   1.371   1.185 -0.0713 -0.6402 -0.4960
  391MOL0     C51482   5.197   1.395   1.137 -0.3355  0.7138  0.8940
  391MOL0     O51483   5.271   1.504   1.149 -0.1371  0.2883  0.1428
  391MOL0     C51484   5.237   1.610   1.231  0.5090 -0.1737  0.0965
  391MOL0     C51485   5.109   1.658   1.255 -0.5587  0.1429 -0.1248
  391MOL0     C51486   5.095   1.759   1.347  0.0360 -0.2646 -0.9410
  391MOL0     C51487   5.201   1.809   1.423  0.6862  0.2550  0.2579
  391MOL0     O51488   5.203   1.915   1.510  0.5650  0.8522 -0.0801
  391MOL0     C51489   5.089   2.011   1.517  0.1155  0.3072  0.3720
  391MOL0     C51490   5.083   2.090   1.653  0.3723 -0.3921  0.2206
  391MOL0     C51491   5.180   2.209   1.673  0.0258  0.2956 -0.0334
  391MOL0     C51492   5.159   2.265   1.820  0.2508 -0.0385  0.3048
  391MOL0     C51493   5.266   2.374   1.848  0.2091 -0.3176  0.2204
  391MOL0     C51494   5.235   2.524   1.795 -0.2803  0.0712 -0.3982
  391MOL0     C51495   5.362   2.617   1.799  0.2673 -0.1571 -0.8970
  391MOL0     C51496   5.395   2.655   1.944 -0.5463  0.1099 -0.1609
  391MOL0     N51497   5.480   2.555   2.014 -0.1823  0.5094  0.1201
  391MOL0     C51498   5.593   2.503   1.958  0.4058  0.5359  0.5668
  391MOL0     C51499   5.645   2.425   2.052  0.7249 -0.1421 -1.3095
  391MOL0     C51500   5.754   2.332   2.035  0.5473 -1.0114  0.0986
  391MOL0     C51501   5.734   2.187   2.094  0.2469 -0.1423  0.4056
  391MOL0     C51502   5.838   2.090   2.040 -0.6740  0.1468 -0.5878
  391MOL0     C51503   5.867   1.996   2.154 -0.7404  0.0271  0.2309
  391MOL0     O51504   5.956   1.892   2.097 -0.4499  0.2172  0.5931
  391MOL0     C51505   5.915   1.803   2.005  1.3207  0.2184 -0.5481
  391MOL0     C51506   5.777   1.767   1.987  0.4659 -0.6745  1.0257
  391MOL0     C51507   5.758   1.671   1.882  1.1825  0.6584 -0.6923
  391MOL0     C51508   5.857   1.624   1.803  0.7826  0.0510  0.5925
  391MOL0     C51509   5.829   1.531   1.684  0.8587  0.4106 -0.1634
  391MOL0     O51510   5.694   1.504   1.647 -0.1746 -0.6637  0.2912
  391MOL0     C51511   5.675   1.404   1.550 -0.5871  0.2020  0.0737
  391MOL0     C51512   5.557   1.417   1.470 -0.2811  0.5926 -0.8712
  391MOL0     C51513   5.532   1.325   1.366  0.0371 -0.6957 -0.0175
  391MOL0     C51514   5.622   1.225   1.327 -0.8292  0.4583  0.0573
  391MOL0     O51515   5.602   1.155   1.215  1.0371  0.4249  0.3409
  391MOL0     C51516   5.594   1.005   1.227 -1.3026 -1.4644  0.0901
  391MOL0     C51517   5.455   0.953   1.253  0.6933 -0.1117  0.3000
  391MOL0     C51518   5.469   0.832   1.352 -0.8542 -0.7846  0.2474
  391MOL0     C51519   5.565   0.724   1.301  0.8479  0.6566 -0.1317
  391MOL0     C51520   5.567   0.602   1.395  0.1673 -0.0290 -0.1807
  391MOL0     C51521   5.706   0.541   1.412 -0.1532 -0.1162  0.4433
  391MOL0     C51522   5.682   0.397   1.454  1.1586  0.1667 -0.2379
  391MOL0     C51523   5.820   0.323   1.437 -0.1498  0.0516  0.2450
  391MOL0    Cl51524   5.883   0.310   1.267  0.0709  0.0424  0.2230
  391MOL0     C51525   5.731   1.211   1.407 -0.7059  0.4923 -1.4898
  391MOL0     C51526   5.760   1.297   1.521  0.3283  0.2391 -0.1115
  391MOL0     O51527   5.925   1.475   1.645  0.1691 -0.7766  0.5507
  391MOL0     C51528   5.989   1.657   1.833 -0.0890  0.2152  0.4976
  391MOL0     C51529   6.017   1.744   1.933 -0.6726  0.3236 -0.8099
  391MOL0     N51530   5.572   2.433   2.170 -0.3259  0.1565  0.2563
  391MOL0     N51531   5.469   2.509   2.144 -0.4573  0.6251  0.3830
  391MOL0     C51532   5.331   1.773   1.394  0.1304 -0.4659 -0.7883
  391MOL0     C51533   5.344   1.680   1.295  0.1428 -0.1515  0.2321
  391MOL0     C51534   5.240   1.290   1.037 -0.9804 -1.0627 -0.3015
  391MOL0     C51535   5.353   1.325   0.958 -0.2979  0.5704 -0.0439
  391MOL0     C51536   5.432   1.232   0.886 -0.0225  0.8158  0.0897
  391MOL0     C51537   5.388   1.097   0.880  0.7468 -0.5682 -2.1668
  391MOL0     O51538   5.444   0.987   0.825  0.3957 -0.4447 -0.4537
  391MOL0     C51539   5.582   0.992   0.808 -0.1079 -0.0820 -0.2971
  391MOL0     C51540   5.637   0.846   0.821  0.9787  0.8547  0.2491
  391MOL0     C51541   5.588   0.772   0.692 -0.2167  0.2111 -0.0586
  391MOL0     C51542   5.652   0.636   0.671  0.2333  0.6959 -0.8920
  391MOL0     C51543   5.613   0.545   0.778 -0.2846 -0.2997  0.2692
  391MOL0     C51544   5.579   0.469   0.866  0.0657  0.4452 -0.1938
  391MOL0     C51545   5.265   1.068   0.930 -0.0829 -0.2412 -0.5446
  391MOL0     C51546   5.189   1.160   1.014 -0.4715  0.3412 -0.0862
  391MOL0     H51547   5.015   1.627   1.211  0.4870  1.1504 -3.3005
  391MOL0     H51548   4.997   1.794   1.375  0.2891  0.4182 -0.8967
  391MOL0     H51549   4.991   1.963   1.509 -1.0964  2.8435 -1.2615
  391MOL0     H51550   5.089   2.089   1.441 -3.1690  0.9990  0.9375
  391MOL0     H51551   5.103   2.020   1.734  0.3620  0.7972  1.2742
  391MOL0     H51552   4.980   2.127   1.659  0.5735  0.5279 -1.3143
  391MOL0     H51553   5.151   2.288   1.603  0.5436 -2.0861 -3.1433
  391MOL0     H51554   5.284   2.179   1.659  1.3636  2.1612  4.2836
  391MOL0     H51555   5.059   2.307   1.829  0.2745 -0.3712  2.6942
  391MOL0     H51556   5.156   2.179   1.887 -3.2153 -1.4521 -1.4098
  391MOL0     H51557   5.354   2.337   1.797 -1.7865 -0.6987 -3.2298
  391MOL0     H51558   5.279   2.380   1.957 -5.2904  0.2466  1.1753
  391MOL0     H51559   5.154   2.576   1.848  1.4371  1.7707  0.6867
  391MOL0     H51560   5.192   2.514   1.695 -2.2762  0.5842  0.3508
  391MOL0     H51561   5.451   2.576   1.751 -0.4345 -2.0965 -0.6016
  391MOL0     H51562   5.345   2.704   1.734  1.6016 -0.8307 -2.2004
  391MOL0     H51563   5.301   2.658   2.001  0.7762  3.5404  2.0946
  391MOL0     H51564   5.438   2.755   1.950  2.1607 -1.0392  1.2665
  391MOL0     H51565   5.640   2.532   1.865 -0.5450  0.1411 -0.0570
  391MOL0     H51566   5.849   2.376   2.069  0.5184 -0.0891 -0.9711
  391MOL0     H51567   5.747   2.322   1.927  0.1856  0.2186 -0.0026
  391MOL0     H51568   5.635   2.163   2.053 -0.5949  5.6415 -1.9292
  391MOL0     H51569   5.741   2.183   2.203 -1.9282 -0.9269  0.5775
  391MOL0     H51570   5.798   2.035   1.954 -0.8493 -0.0158 -0.4015
  391MOL0     H51571   5.928   2.146   2.012 -0.7736  0.9670  0.7064
  391MOL0     H51572   5.778   1.947   2.196  1.5564 -1.4341  3.8669
  391MOL0     H51573   5.918   2.051   2.234  0.5498 -0.6904 -0.0909
  391MOL0     H51574   5.699   1.806   2.052 -2.9967 -1.1043 -2.5475
  391MOL0     H51575   5.658   1.639   1.858  1.8281 -0.7722 -1.6262
  391MOL0     H51576   5.488   1.495   1.501 -0.5466 -0.5700  1.7774
  391MOL0     H51577   5.443   1.326   1.304  1.5866  1.2197 -2.4442
  391MOL0     H51578   5.669   0.974   1.300 -0.4330 -0.5030 -0.3645
  391MOL0     H51579   5.652   0.967   1.143  1.1340  0.6557  0.7003
  391MOL0     H51580   5.409   0.925   1.159  4.4354 -3.3994 -0.8495
  391MOL0     H51581   5.391   1.028   1.299 -0.0995 -0.1347 -0.7377
  391MOL0     H51582   5.374   0.780   1.366 -2.1499  1.3891 -0.0160
  391MOL0     H51583   5.502   0.871   1.448  0.0142  0.2127 -0.4313
  391MOL0     H51584   5.536   0.702   1.198 -0.0913  0.0907  0.2402
  391MOL0     H51585   5.666   0.765   1.307  1.1427  0.1095 -1.2437
  391MOL0     H51586   5.498   0.536   1.342  0.1924 -0.1386 -0.0767
  391MOL0     H51587   5.531   0.633   1.493  1.3818  3.6672 -0.7409
  391MOL0     H51588   5.758   0.602   1.487  0.7480 -0.5593  0.1905
  391MOL0     H51589   5.763   0.548   1.319 -1.5637  0.6360 -0.4042
  391MOL0     H51590   5.656   0.399   1.560  1.5715 -2.6235 -0.0295
  391MOL0     H51591   5.601   0.354   1.395  0.0694  0.7239  0.7898
  391MOL0     H51592   5.824   0.221   1.476  1.7031  0.0680  0.2038
  391MOL0     H51593   5.894   0.396   1.472  0.5091  0.7001 -2.3011
  391MOL0     H51594   5.809   1.136   1.399 -2.1987 -1.4704  1.0251
  391MOL0     H51595   5.842   1.269   1.586  0.0745 -4.4547 -1.4267
  391MOL0     H51596   6.071   1.608   1.781 -0.5308 -2.4399  2.1133
  391MOL0     H51597   6.123   1.765   1.950 -0.6796  1.0577 -1.6154
  391MOL0     H51598   5.414   1.815   1.451 -1.6627 -0.7963  2.3094
  391MOL0     H51599   5.449   1.663   1.274 -0.0062  1.4007 -2.0590
  391MOL0     H51600   5.390   1.427   0.960  0.0797  0.4803 -1.3226
  391MOL0     H51601   5.525   1.253   0.835  1.4198 -0.2174  2.1844
  391MOL0     H51602   5.639   1.053   0.879  0.0973 -0.9485  0.2938
  391MOL0     H51603   5.602   1.027   0.706 -1.4978  1.2010 -0.1738
  391MOL0     H51604   5.746   0.835   0.819  0.8955 -1.3839  3.0920
  391MOL0     H51605   5.595   0.801   0.911 -3.8466  3.0059 -0.6020
  391MOL0     H51606   5.607   0.823   0.598  0.5237 -1.8620 -1.1020
  391MOL0     H51607   5.479   0.767   0.696 -0.3410  1.9337 -0.8214
  391MOL0     H51608   5.629   0.597   0.571 -2.0217 -1.1956  0.2741
  391MOL0     H51609   5.761   0.643   0.669  0.3885  0.3541  2.0990
  391MOL0     H51610   5.535   0.405   0.940  1.0028  2.0900  1.9181
  391MOL0     H51611   5.235   0.966   0.908 -0.1966 -0.3933  0.2685
  391MOL0     H51612   5.110   1.119   1.075  0.0512  0.8346  0.9609
  392MOL0     O51613   0.935   1.507   6.034  0.1619 -0.5158 -0.5923
  392MOL0     C51614   0.817   1.509   6.034  0.4679  0.5736 -0.6313
  392MOL0     O51615   0.732   1.441   5.954  0.1983 -0.2886 -0.0577
  392MOL0     C51616   0.792   1.361   5.860  0.0614 -0.4782 -0.0515
  392MOL0     C51617   0.765   1.224   5.858  0.0311 -0.1167 -0.1279
  392MOL0     C51618   0.823   1.143   5.757  0.0519 -0.5124 -0.2100
  392MOL0     C51619   0.901   1.200   5.654 -0.9630 -0.1906  0.4318
  392MOL0     O51620   0.976   1.116   5.571 -0.1995  0.1622 -0.2947
  392MOL0     C51621   1.102   1.066   5.614 -0.1600  0.0951 -0.3726
  392MOL0     C51622   1.088   0.977   5.737 -0.0860  0.6255  0.0030
  392MOL0     C51623   1.203   0.878   5.763  0.2636  0.2191 -0.6010
  392MOL0     C51624   1.162   0.774   5.871  0.3136 -1.0156  0.1545
  392MOL0     C51625   1.279   0.687   5.891 -0.5270  0.1896 -0.2556
  392MOL0     C51626   1.220   0.551   5.920 -0.2058  0.4815 -0.0992
  392MOL0     C51627   1.338   0.454   5.937 -0.0099  0.8035  1.1811
  392MOL0     C51628   1.403   0.458   6.074  0.0203  0.2619  0.3432
  392MOL0     N51629   1.530   0.385   6.088 -0.1627 -0.4611  0.2538
  392MOL0     C51630   1.578   0.269   6.031 -0.3108  1.0369  0.2217
  392MOL0     C51631   1.707   0.257   6.049  1.2830 -0.1310 -0.1471
  392MOL0     C51632   1.775   0.122   6.009 -0.6734 -0.3803  0.1319
  392MOL0     C51633   1.817   0.153   5.873  0.2320  0.0124  0.8212
  392MOL0     C51634   1.942   0.235   5.853  0.1745 -0.6651 -0.2820
  392MOL0     C51635   1.977   0.247   5.716  0.0894 -0.2336  0.0881
  392MOL0     O51636   2.020   0.117   5.676 -0.0795  0.3566 -0.4328
  392MOL0     C51637   2.133   0.097   5.601  0.2006  0.0862 -0.0235
  392MOL0     C51638   2.245   0.169   5.603 -0.1814 -0.4569 -0.0975
  392MOL0     C51639   2.352   0.138   5.509 -0.2688 -0.5257 -0.5753
  392MOL0     C51640   2.353   0.030   5.432  1.3467  0.4577  0.3333
  392MOL0     C51641   2.456  -0.004   5.338  0.0312  0.4336  0.2772
  392MOL0     O51642   2.420  -0.071   5.218  0.4402 -0.3468 -0.4116
  392MOL0     C51643   2.494  -0.086   5.106 -0.3131 -0.3382  0.1991
  392MOL0     C51644   2.463  -0.190   5.016  0.0180 -0.7701  0.3982
  392MOL0     C51645   2.539  -0.207   4.901 -0.2346 -0.7762  0.0846
  392MOL0     C51646   2.648  -0.122   4.875 -0.1600  0.1847 -0.0940
  392MOL0     O51647   2.714  -0.133   4.759 -0.3873 -0.2105  0.0080
  392MOL0     C51648   2.852  -0.111   4.765 -0.0116 -0.0014  1.0301
  392MOL0     C51649   2.934  -0.231   4.718  0.2473 -0.7537  0.7245
  392MOL0     C51650   3.075  -0.244   4.778  0.2575  0.9325 -0.0940
  392MOL0     C51651   3.151  -0.361   4.718  0.0140  0.5201  0.0791
  392MOL0     C51652   3.301  -0.370   4.737  0.3964 -0.3159  0.1387
  392MOL0     C51653   3.364  -0.506   4.718  0.0582  0.3024  0.3477
  392MOL0     C51654   3.513  -0.488   4.711  0.3378  0.1001 -0.1761
  392MOL0     C51655   3.560  -0.448   4.572 -0.7210 -0.0598 -0.2099
  392MOL0    Cl51656   3.731  -0.376   4.592 -0.0646  0.1299 -0.1061
  392MOL0     C51657   2.690  -0.026   4.974  0.5760  0.2556  0.0222
  392MOL0     C51658   2.610  -0.013   5.084 -0.0029  1.0482 -0.7602
  392MOL0     O51659   2.562   0.045   5.363 -0.5039  0.1876 -0.2557
  392MOL0     C51660   2.244  -0.060   5.445 -0.1975 -0.1615 -0.1706
  392MOL0     C51661   2.131  -0.018   5.521 -0.8224 -0.9733  0.0150
  392MOL0     N51662   1.753   0.371   6.119 -0.6805 -0.2306  0.6480
  392MOL0     N51663   1.647   0.442   6.140 -1.0133  0.4251 -0.4859
  392MOL0     C51664   0.927   1.340   5.666  0.1952  0.2300  1.0515
  392MOL0     C51665   0.872   1.421   5.765  0.2622  0.6551 -0.4604
  392MOL0     C51666   0.754   1.597   6.135  0.5579  0.8183  0.5806
  392MOL0     C51667   0.617   1.612   6.137  0.4252 -0.0182 -0.3182
  392MOL0     C51668   0.551   1.672   6.243  0.5995  0.4934 -0.1862
  392MOL0     C51669   0.624   1.719   6.358  0.1887  0.5535 -0.9451
  392MOL0     O51670   0.559   1.761   6.471 -0.1159  0.1017  0.3635
  392MOL0     C51671   0.486   1.882   6.468 -0.0551  0.2244  0.3872
  392MOL0     C51672   0.577   2.005   6.481  0.4421 -0.1266  0.3676
  392MOL0     C51673   0.618   2.049   6.612  0.1177 -0.0635  0.1388
  392MOL0     C51674   0.718   2.156   6.582 -0.0816 -1.0125  0.5993
  392MOL0     C51675   0.754   2.211   6.715 -0.8863 -0.9217  0.6480
  392MOL0     C51676   0.783   2.256   6.828 -0.2377 -0.6745 -0.3561
  392MOL0     C51677   0.769   1.694   6.359 -1.0709  0.2232 -0.9337
  392MOL0     C51678   0.828   1.644   6.240 -0.7997 -1.1217  0.1166
  392MOL0     H51679   0.695   1.177   5.926  0.7643 -2.5418 -0.9392
  392MOL0     H51680   0.794   1.039   5.758  0.1709 -0.5573  1.2349
  392MOL0     H51681   1.170   1.148   5.639  0.5612  1.9631 -6.6807
  392MOL0     H51682   1.149   0.997   5.544  1.3555 -0.3517  1.0368
  392MOL0     H51683   0.994   0.923   5.726 -0.0120  0.9914 -3.9814
  392MOL0     H51684   1.084   1.046   5.822  1.2940 -2.2345  2.5831
  392MOL0     H51685   1.278   0.946   5.804 -0.1933  0.1906  0.3234
  392MOL0     H51686   1.238   0.830   5.672  0.3146  0.3891 -0.6721
  392MOL0     H51687   1.136   0.828   5.962 -0.1968 -0.9299 -0.0364
  392MOL0     H51688   1.073   0.715   5.849 -0.9437  0.4582  1.1302
  392MOL0     H51689   1.350   0.720   5.968  2.4986 -0.4636 -2.5576
  392MOL0     H51690   1.334   0.689   5.797  0.4687 -0.0382  0.3054
  392MOL0     H51691   1.160   0.510   5.839 -2.5486 -4.1263  3.4739
  392MOL0     H51692   1.156   0.548   6.009  0.1738  0.8224  0.1901
  392MOL0     H51693   1.291   0.358   5.912 -1.3881  1.7681 -0.1620
  392MOL0     H51694   1.426   0.445   5.872  0.7614  2.0673  2.0082
  392MOL0     H51695   1.329   0.437   6.151  1.0217  1.3762  1.6597
  392MOL0     H51696   1.424   0.563   6.097 -0.7367  0.7278 -1.0235
  392MOL0     H51697   1.521   0.191   5.982 -0.9254  2.4826 -1.4575
  392MOL0     H51698   1.712   0.033   6.024  0.8775 -1.3113  1.5337
  392MOL0     H51699   1.861   0.110   6.076 -0.1786  2.7018  0.1935
  392MOL0     H51700   1.740   0.202   5.813  2.0318 -0.2862 -1.8868
  392MOL0     H51701   1.827   0.054   5.827 -1.0283  1.5888 -3.2131
  392MOL0     H51702   1.924   0.335   5.891  2.9089 -0.1408 -0.1182
  392MOL0     H51703   2.025   0.200   5.916  2.3321  1.3366 -1.7981
  392MOL0     H51704   2.058   0.321   5.721  0.2384 -0.4804  2.0623
  392MOL0     H51705   1.902   0.279   5.643 -2.2270 -0.1103  2.4005
  392MOL0     H51706   2.253   0.248   5.677  0.3632  1.3799 -2.0060
  392MOL0     H51707   2.435   0.207   5.499 -0.0054 -0.8109 -0.3667
  392MOL0     H51708   2.373  -0.250   5.029 -0.1038 -0.4761  0.9410
  392MOL0     H51709   2.515  -0.288   4.833  1.5959 -1.9929  0.8072
  392MOL0     H51710   2.895  -0.083   4.862 -0.2291 -0.2163  1.1891
  392MOL0     H51711   2.887  -0.030   4.700 -1.8142  0.3804  0.4843
  392MOL0     H51712   2.953  -0.204   4.614  1.4529  3.4936  1.8516
  392MOL0     H51713   2.870  -0.320   4.723 -2.3311  1.0078  0.9101
  392MOL0     H51714   3.072  -0.267   4.885 -2.5782 -0.1581 -0.3226
  392MOL0     H51715   3.125  -0.153   4.745 -0.9069  2.4592  2.0516
  392MOL0     H51716   3.110  -0.458   4.747 -1.0498  1.1888  0.9052
  392MOL0     H51717   3.121  -0.362   4.612 -0.3690 -0.2505  0.1933
  392MOL0     H51718   3.324  -0.343   4.840  3.1096 -1.0569 -0.1994
  392MOL0     H51719   3.342  -0.288   4.676 -0.4166 -1.5391 -2.1632
  392MOL0     H51720   3.337  -0.554   4.624 -0.5116 -0.7675  1.0349
  392MOL0     H51721   3.347  -0.581   4.797  1.7770 -1.2948 -0.7331
  392MOL0     H51722   3.559  -0.420   4.783  1.1681 -1.6262  0.9920
  392MOL0     H51723   3.564  -0.580   4.742 -0.9284 -0.0674  1.6318
  392MOL0     H51724   3.494  -0.371   4.531 -0.1047  0.8362  0.4347
  392MOL0     H51725   3.565  -0.533   4.503  2.4080  1.3731 -1.9733
  392MOL0     H51726   2.768   0.047   4.953  0.5809  0.0329 -0.7534
  392MOL0     H51727   2.639   0.059   5.159 -2.0095 -1.2361  2.4499
  392MOL0     H51728   2.248  -0.146   5.379  1.8787  0.0956 -0.4476
  392MOL0     H51729   2.036  -0.071   5.527 -1.3965  0.1222  0.8281
  392MOL0     H51730   0.987   1.378   5.584 -0.1441 -2.0929 -0.3525
  392MOL0     H51731   0.897   1.527   5.769 -0.8264  0.9223 -0.2861
  392MOL0     H51732   0.553   1.579   6.056  1.2821  0.6597 -1.2854
  392MOL0     H51733   0.445   1.696   6.249  0.5056  0.3363 -1.0837
  392MOL0     H51734   0.412   1.877   6.549 -1.9169 -1.3222 -1.2919
  392MOL0     H51735   0.435   1.888   6.371  0.1155 -1.4227  0.1776
  392MOL0     H51736   0.667   1.994   6.421 -0.2842 -0.2452 -0.7365
  392MOL0     H51737   0.523   2.082   6.427 -3.1275 -1.6412  1.4406
  392MOL0     H51738   0.665   1.965   6.665  1.8471  0.4835 -0.4518
  392MOL0     H51739   0.533   2.069   6.677 -1.1435 -4.2570  0.0644
  392MOL0     H51740   0.803   2.111   6.530 -3.1876 -1.0428 -5.3966
  392MOL0     H51741   0.677   2.240   6.525  3.4748  0.5031  0.0262
  392MOL0     H51742   0.792   2.302   6.924 -2.3578 -3.2741  1.2373
  392MOL0     H51743   0.825   1.733   6.444 -1.9102  2.2425 -1.2608
  392MOL0     H51744   0.936   1.639   6.230 -0.9480 -1.3106 -1.7231
  393MOL0     O51745   2.398   7.316   9.400  0.0782 -0.2761  0.0867
  393MOL0     C51746   2.290   7.301   9.346 -0.0919  0.8696  0.2064
  393MOL0     O51747   2.271   7.260   9.219 -0.4630 -0.1472  0.2820
  393MOL0     C51748   2.371   7.229   9.133 -0.1798 -0.6134 -0.6354
  393MOL0     C51749   2.495   7.188   9.171  0.6887  0.9827  1.0072
  393MOL0     C51750   2.583   7.136   9.082  0.6098 -0.7997 -0.3292
  393MOL0     C51751   2.560   7.136   8.942  0.7393  0.1095  0.2571
  393MOL0     O51752   2.630   7.086   8.840  0.3944 -0.1000  0.3171
  393MOL0     C51753   2.758   7.048   8.876 -0.2444  0.2939 -0.5068
  393MOL0     C51754   2.840   7.048   8.748 -0.0382  0.5531  0.3354
  393MOL0     C51755   2.876   7.189   8.693 -0.6068 -1.1105  0.4272
  393MOL0     C51756   2.968   7.183   8.566  0.0783 -0.0772 -0.7110
  393MOL0     C51757   3.115   7.157   8.592  0.2150  0.4457 -0.2377
  393MOL0     C51758   3.192   7.122   8.461 -0.3219  0.9042  0.0379
  393MOL0     C51759   3.208   6.962   8.458  0.0466 -0.3300  0.0137
  393MOL0     C51760   3.087   6.893   8.388 -0.0749 -0.2213 -0.7653
  393MOL0     N51761   3.114   6.756   8.344 -0.9175  1.0741 -0.5010
  393MOL0     C51762   3.189   6.726   8.231 -0.3373  0.4033  0.4418
  393MOL0     C51763   3.199   6.592   8.236 -0.8226  0.1478 -0.1784
  393MOL0     C51764   3.288   6.503   8.148 -0.1198 -0.5138  0.5115
  393MOL0     C51765   3.435   6.527   8.140  0.8926 -0.5581  0.0136
  393MOL0     C51766   3.504   6.420   8.052 -0.5963 -0.4753  0.3201
  393MOL0     C51767   3.507   6.284   8.123  0.5677  0.5396 -0.0521
  393MOL0     O51768   3.598   6.189   8.065  0.0080 -0.4627  0.6315
  393MOL0     C51769   3.649   6.079   8.128 -0.3151 -1.1279 -1.5335
  393MOL0     C51770   3.598   6.045   8.250 -0.2261  0.2868  0.2239
  393MOL0     C51771   3.669   5.944   8.327  0.2154  0.4692 -0.9616
  393MOL0     C51772   3.775   5.877   8.277  0.3756  1.0341  0.5757
  393MOL0     C51773   3.832   5.756   8.352 -0.6253 -1.0555 -1.0229
  393MOL0     O51774   3.902   5.667   8.273 -0.0447 -0.2269  0.4037
  393MOL0     C51775   4.000   5.584   8.312  0.0374  0.8662 -0.0654
  393MOL0     C51776   3.971   5.476   8.404 -0.3014 -0.3524  0.7373
  393MOL0     C51777   4.069   5.389   8.440 -0.6208 -0.1948 -0.4930
  393MOL0     C51778   4.201   5.392   8.383  0.0955 -0.4731 -0.0566
  393MOL0     O51779   4.287   5.289   8.396 -0.0868 -0.5567  0.9949
  393MOL0     C51780   4.407   5.291   8.315  0.5145 -0.1254 -0.7227
  393MOL0     C51781   4.473   5.143   8.340  0.2959  0.0781  0.0441
  393MOL0     C51782   4.382   5.040   8.274  0.0391  0.6223 -0.0619
  393MOL0     C51783   4.397   4.890   8.309 -1.0645  0.6988  0.5644
  393MOL0     C51784   4.527   4.839   8.253 -0.1536  0.2200 -0.6721
  393MOL0     C51785   4.574   4.712   8.319  0.8115  1.3987  0.5181
  393MOL0     C51786   4.700   4.663   8.243 -0.3978  0.2999  0.3777
  393MOL0     C51787   4.787   4.553   8.323 -0.6496  1.0365 -0.5570
  393MOL0    Cl51788   4.678   4.412   8.360 -0.3776  0.1951 -0.3218
  393MOL0     C51789   4.229   5.508   8.300 -0.0478  0.5398  1.1901
  393MOL0     C51790   4.131   5.596   8.263 -0.1616  0.3960 -0.4093
  393MOL0     O51791   3.811   5.743   8.472  0.2729  0.5671  0.0199
  393MOL0     C51792   3.823   5.907   8.149 -0.0229 -0.8452  0.1957
  393MOL0     C51793   3.751   6.011   8.075 -0.1185  0.6797 -0.1632
  393MOL0     N51794   3.128   6.540   8.339  0.0703 -0.7548 -0.1183
  393MOL0     N51795   3.091   6.639   8.408 -0.1751 -0.2198 -0.2631
  393MOL0     C51796   2.429   7.179   8.901 -0.1877  0.8920  0.2196
  393MOL0     C51797   2.340   7.227   8.995  0.7097  0.0252 -0.9867
  393MOL0     C51798   2.171   7.300   9.427 -0.0709 -0.6596  0.4242
  393MOL0     C51799   2.185   7.295   9.568 -0.2416  0.1331 -0.4205
  393MOL0     C51800   2.072   7.281   9.654 -0.2521  0.6226 -0.3596
  393MOL0     C51801   1.947   7.265   9.604 -0.1924 -0.0686  0.0509
  393MOL0     O51802   1.851   7.241   9.697 -0.4409 -0.2514 -0.2611
  393MOL0     C51803   1.717   7.243   9.672 -0.1923 -0.0194  0.4368
  393MOL0     C51804   1.640   7.209   9.802  0.5163  0.5399  0.4749
  393MOL0     C51805   1.524   7.303   9.817 -0.2936 -0.5291 -0.4055
  393MOL0     C51806   1.445   7.278   9.946 -0.6300 -0.8621  0.5593
  393MOL0     C51807   1.372   7.402   9.984  0.3172  0.3009 -0.7471
  393MOL0     C51808   1.322   7.502  10.007  0.4982 -0.7807 -0.1798
  393MOL0     C51809   1.926   7.273   9.459 -0.5391  0.6118 -0.3423
  393MOL0     C51810   2.042   7.291   9.374 -0.6826 -0.6412  0.2949
  393MOL0     H51811   2.518   7.169   9.276 -0.6381  3.2617  1.8009
  393MOL0     H51812   2.680   7.100   9.114  0.7809  0.0227  0.1089
  393MOL0     H51813   2.758   6.948   8.921  1.6157  0.1834 -0.6749
  393MOL0     H51814   2.793   7.124   8.946 -1.0081  1.3833 -1.2754
  393MOL0     H51815   2.782   6.994   8.673 -0.1306 -1.9319  2.0827
  393MOL0     H51816   2.934   6.993   8.756  1.4819  3.0500  0.6983
  393MOL0     H51817   2.935   7.232   8.775 -0.0200 -2.4607  0.7407
  393MOL0     H51818   2.789   7.254   8.681 -2.1536 -3.4624 -2.7248
  393MOL0     H51819   2.932   7.104   8.500  0.3174 -2.3918  1.7617
  393MOL0     H51820   2.972   7.283   8.522  0.8866  0.4581  0.5178
  393MOL0     H51821   3.141   7.082   8.668 -0.2280  0.9672  0.4369
  393MOL0     H51822   3.157   7.253   8.621 -0.1796  0.8004 -0.8223
  393MOL0     H51823   3.295   7.157   8.469  0.4666 -1.1413 -0.7360
  393MOL0     H51824   3.130   7.153   8.376 -1.1840  0.5953  0.5354
  393MOL0     H51825   3.293   6.956   8.391  0.2026  0.9251  0.0682
  393MOL0     H51826   3.234   6.910   8.551 -1.2782  0.3288  0.7973
  393MOL0     H51827   3.060   6.955   8.302  3.4826  0.5565 -1.4986
  393MOL0     H51828   3.003   6.890   8.457  0.6371  3.6808  0.5340
  393MOL0     H51829   3.223   6.791   8.150 -3.2371 -0.2301 -1.4367
  393MOL0     H51830   3.248   6.513   8.047 -0.8512 -0.5311  0.7911
  393MOL0     H51831   3.268   6.398   8.174  1.2754 -0.6550  1.0911
  393MOL0     H51832   3.474   6.531   8.242 -0.3451  1.1806  0.4767
  393MOL0     H51833   3.453   6.624   8.091  6.5310  0.1396  2.6672
  393MOL0     H51834   3.457   6.418   7.953  2.6478  5.4889 -1.8429
  393MOL0     H51835   3.600   6.456   8.017 -1.0165 -0.0110 -0.3769
  393MOL0     H51836   3.403   6.251   8.134  1.0546 -0.0243  6.0589
  393MOL0     H51837   3.537   6.289   8.228 -0.4070 -1.7064  0.4016
  393MOL0     H51838   3.506   6.095   8.279  0.7873  2.1472  0.3410
  393MOL0     H51839   3.629   5.917   8.425  1.5403  2.2231  0.1218
  393MOL0     H51840   3.870   5.473   8.444 -1.3611  3.9080 -0.9823
  393MOL0     H51841   4.044   5.297   8.493 -0.0137  0.8168  1.6451
  393MOL0     H51842   4.469   5.372   8.356 -0.9229 -0.3572  2.1810
  393MOL0     H51843   4.383   5.306   8.210 -0.2764 -1.2029 -0.7169
  393MOL0     H51844   4.455   5.127   8.447 -0.9386  1.7072  0.1118
  393MOL0     H51845   4.580   5.139   8.317  1.2077 -0.1202  3.6969
  393MOL0     H51846   4.400   5.052   8.167  1.9389  0.2951  0.1915
  393MOL0     H51847   4.280   5.073   8.296  1.0090  2.0105  3.0458
  393MOL0     H51848   4.390   4.872   8.417 -0.7879 -0.6742  0.3697
  393MOL0     H51849   4.320   4.834   8.257  0.7421 -0.8904 -0.5423
  393MOL0     H51850   4.609   4.907   8.279  0.9676 -1.4354  0.3089
  393MOL0     H51851   4.496   4.822   8.150 -3.0858 -1.0950  0.3076
  393MOL0     H51852   4.497   4.635   8.319  0.8041  1.4053  0.3308
  393MOL0     H51853   4.599   4.723   8.425  1.0671 -4.6444  1.4232
  393MOL0     H51854   4.672   4.619   8.147  1.3234  3.9564 -2.0383
  393MOL0     H51855   4.764   4.746   8.212 -0.3730  0.5641  1.1278
  393MOL0     H51856   4.811   4.585   8.425  0.5415 -0.5438 -0.3051
  393MOL0     H51857   4.871   4.514   8.265 -1.0633  2.0157 -1.8810
  393MOL0     H51858   4.325   5.525   8.252 -1.5910  2.1994 -1.5858
  393MOL0     H51859   4.162   5.671   8.191  0.9937 -0.1423 -0.4851
  393MOL0     H51860   3.915   5.861   8.114 -0.9478 -2.1549 -0.5982
  393MOL0     H51861   3.772   6.044   7.973  0.1849  2.1216  0.3382
  393MOL0     H51862   2.403   7.181   8.795 -0.4552 -0.7598  0.2255
  393MOL0     H51863   2.243   7.262   8.962 -0.4913  0.2019  2.3094
  393MOL0     H51864   2.284   7.305   9.612  0.0078  2.2018 -1.3408
  393MOL0     H51865   2.085   7.269   9.761 -1.9679  4.7999  0.5229
  393MOL0     H51866   1.682   7.166   9.603 -0.1072  0.0676  0.2973
  393MOL0     H51867   1.678   7.337   9.631 -1.2932 -0.4349  0.4873
  393MOL0     H51868   1.615   7.103   9.808 -2.1454  1.1184  0.5628
  393MOL0     H51869   1.706   7.222   9.889  0.1720  2.2343  0.5160
  393MOL0     H51870   1.463   7.297   9.727  1.1286 -1.9700 -1.3193
  393MOL0     H51871   1.572   7.401   9.813  1.1038 -1.2435 -2.4817
  393MOL0     H51872   1.369   7.202   9.926  0.2122 -2.3397  2.6415
  393MOL0     H51873   1.504   7.242  10.031 -0.2465  1.2738  1.2682
  393MOL0     H51874   1.274   7.597  10.022 -1.1748 -1.7996  1.2333
  393MOL0     H51875   1.832   7.262   9.407 -1.4517  2.6113  0.7613
  393MOL0     H51876   2.034   7.289   9.266 -2.0141 -1.6747  0.3874
  394MOL0     O51877   6.230   6.085   3.359 -0.5971  0.2253 -0.9901
  394MOL0     C51878   6.158   5.983   3.374 -0.5307  0.4845 -0.5833
  394MOL0     O51879   6.161   5.872   3.473  0.7638  0.2703  0.1945
  394MOL0     C51880   6.232   5.882   3.585 -0.4616 -0.0277 -0.4303
  394MOL0     C51881   6.370   5.896   3.584 -1.0117 -0.2395 -0.6072
  394MOL0     C51882   6.446   5.914   3.700  0.0650 -0.4160 -1.1781
  394MOL0     C51883   6.381   5.909   3.829  0.6727 -0.4143 -0.0981
  394MOL0     O51884   6.444   5.939   3.951 -0.1959  0.2524 -0.9697
  394MOL0     C51885   6.584   5.976   3.938  0.7122  0.0538  0.4551
  394MOL0     C51886   6.656   6.004   4.071 -0.2148 -0.4986 -0.5703
  394MOL0     C51887   6.625   6.122   4.167 -0.3566  0.4127 -0.9240
  394MOL0     C51888   6.677   6.242   4.100  0.0499 -0.1316 -0.6282
  394MOL0     C51889   6.688   6.368   4.189 -0.0067 -0.2945  0.0535
  394MOL0     C51890   6.784   6.360   4.305  0.3447  0.8268  0.0146
  394MOL0     C51891   6.791   6.495   4.384  0.3557  0.6816  0.8639
  394MOL0     C51892   6.836   6.628   4.323 -0.1657  0.9294  0.8916
  394MOL0     N51893   6.982   6.654   4.327 -0.1355 -0.5494  0.7357
  394MOL0     C51894   7.088   6.564   4.337  0.6364 -0.2782  0.7290
  394MOL0     C51895   7.194   6.643   4.368  0.7109 -0.2029 -0.3763
  394MOL0     C51896   7.346   6.595   4.372  0.1348 -0.3147  0.3740
  394MOL0     C51897   7.357   6.462   4.278  0.3724  1.3728  0.3755
  394MOL0     C51898   7.497   6.417   4.257 -0.8644  0.7567 -0.7454
  394MOL0     C51899   7.517   6.267   4.263 -0.0784  0.5471 -0.4129
  394MOL0     O51900   7.488   6.190   4.381  0.4327 -0.4280  0.4042
  394MOL0     C51901   7.541   6.061   4.384 -0.0730  0.2794 -0.7399
  394MOL0     C51902   7.578   5.984   4.274  0.8693 -0.2068  0.2148
  394MOL0     C51903   7.621   5.851   4.287  0.0591  0.2030 -0.9837
  394MOL0     C51904   7.630   5.788   4.419 -0.2110  0.2639  0.5786
  394MOL0     C51905   7.674   5.648   4.437  0.0418  0.0656  0.7152
  394MOL0     O51906   7.680   5.599   4.572  0.0109 -0.5918 -0.8835
  394MOL0     C51907   7.752   5.489   4.604  0.8723  0.6497 -0.6419
  394MOL0     C51908   7.764   5.477   4.749  0.7438  0.4090  0.6771
  394MOL0     C51909   7.849   5.381   4.802  0.5878 -0.0999 -0.0348
  394MOL0     C51910   7.915   5.291   4.714 -0.6876 -0.6089  0.2210
  394MOL0     O51911   8.005   5.195   4.766 -1.1197  0.5319  0.3255
  394MOL0     C51912   8.071   5.230   4.893 -0.3095  0.0300  0.2123
  394MOL0     C51913   8.199   5.150   4.920 -0.2404 -0.0089 -0.6286
  394MOL0     C51914   8.264   5.208   5.052  0.3428  0.8471 -0.4392
  394MOL0     C51915   8.400   5.131   5.092  0.2319 -0.3908  0.4111
  394MOL0     C51916   8.532   5.188   5.023  0.6721 -0.0860  0.0066
  394MOL0     C51917   8.561   5.331   5.076  0.6479  0.4059 -0.1396
  394MOL0     C51918   8.608   5.354   5.223  0.0793  0.1455 -0.0029
  394MOL0     C51919   8.671   5.492   5.240 -0.9119 -0.9239 -0.1810
  394MOL0    Cl51920   8.565   5.624   5.189  0.3144 -0.2137  0.0642
  394MOL0     C51921   7.908   5.314   4.572  0.0834  0.3150 -0.1009
  394MOL0     C51922   7.826   5.411   4.517  0.1209 -1.2745 -0.0346
  394MOL0     O51923   7.716   5.594   4.336  0.3587 -0.3866  0.0244
  394MOL0     C51924   7.594   5.862   4.532 -0.5894 -0.1334  0.6202
  394MOL0     C51925   7.544   6.001   4.508 -0.1916  0.4966 -0.4195
  394MOL0     N51926   7.147   6.775   4.389  0.0009  0.6391 -0.0638
  394MOL0     N51927   7.021   6.779   4.359  0.3108 -0.4878  0.9700
  394MOL0     C51928   6.242   5.882   3.833  0.1811  0.1160  0.3132
  394MOL0     C51929   6.165   5.876   3.713 -0.4886 -0.1484  0.4729
  394MOL0     C51930   6.060   5.975   3.270  0.6836  0.1099 -0.0275
  394MOL0     C51931   6.005   6.084   3.205  0.0728 -0.0973 -0.9902
  394MOL0     C51932   5.900   6.082   3.117  0.8040  0.7843 -0.6848
  394MOL0     C51933   5.837   5.958   3.094  0.0496 -1.2860  1.2540
  394MOL0     O51934   5.725   5.939   3.004 -0.3676  0.0362 -0.5287
  394MOL0     C51935   5.717   6.040   2.902  0.9499  0.0157  0.4160
  394MOL0     C51936   5.632   5.980   2.792 -0.0202  0.8706 -0.1141
  394MOL0     C51937   5.490   6.015   2.828 -0.7013 -0.2755  0.2482
  394MOL0     C51938   5.396   5.955   2.725 -0.5755  1.1799 -0.4884
  394MOL0     C51939   5.261   5.977   2.759  0.5255 -0.0285  0.0330
  394MOL0     C51940   5.147   6.006   2.798 -1.1009  0.3103 -0.7234
  394MOL0     C51941   5.879   5.847   3.158 -0.0556  0.4818  0.8766
  394MOL0     C51942   6.002   5.852   3.240 -0.4914 -0.7998  0.0549
  394MOL0     H51943   6.420   5.872   3.491 -0.3068  3.4066 -1.3012
  394MOL0     H51944   6.551   5.934   3.683  0.5250 -2.9820 -1.8473
  394MOL0     H51945   6.576   6.076   3.896  1.0190 -0.0469  0.1536
  394MOL0     H51946   6.652   5.912   3.881  2.0877  2.3317 -0.5525
  394MOL0     H51947   6.763   6.007   4.049 -0.0082 -1.0535  0.2984
  394MOL0     H51948   6.637   5.922   4.141 -1.7982 -1.4643 -2.0608
  394MOL0     H51949   6.680   6.097   4.258 -1.1231 -0.1372 -0.6022
  394MOL0     H51950   6.522   6.137   4.202 -0.5929 -1.9828 -0.4396
  394MOL0     H51951   6.775   6.233   4.053  0.0503  1.8797 -1.1053
  394MOL0     H51952   6.608   6.269   4.020 -0.0168 -2.2823 -1.3689
  394MOL0     H51953   6.592   6.389   4.237 -0.2638  0.0132 -0.5795
  394MOL0     H51954   6.713   6.455   4.128  0.8739 -0.0083  0.7945
  394MOL0     H51955   6.882   6.329   4.266  0.8689 -1.6344  2.9167
  394MOL0     H51956   6.747   6.283   4.373  1.5192 -0.6751 -0.9650
  394MOL0     H51957   6.689   6.507   4.423 -1.9116  0.9021 -4.2427
  394MOL0     H51958   6.849   6.481   4.475  1.2134 -2.2297 -0.0233
  394MOL0     H51959   6.783   6.703   4.382 -2.1289  0.7948 -0.5981
  394MOL0     H51960   6.802   6.652   4.222 -1.7503 -1.5465  0.7482
  394MOL0     H51961   7.071   6.461   4.310 -0.8482  0.7512 -2.8906
  394MOL0     H51962   7.370   6.591   4.479 -3.3711 -0.4023  1.2729
  394MOL0     H51963   7.403   6.677   4.328  0.1493 -0.8359 -0.6154
  394MOL0     H51964   7.314   6.479   4.179  1.0042 -0.9197 -0.3599
  394MOL0     H51965   7.295   6.377   4.310  2.3963 -0.2526  0.1806
  394MOL0     H51966   7.528   6.465   4.163 -1.9271  0.3312 -1.3285
  394MOL0     H51967   7.560   6.460   4.335 -1.1978  1.3814 -0.8176
  394MOL0     H51968   7.621   6.254   4.233 -1.3748  0.6413 -6.3777
  394MOL0     H51969   7.461   6.219   4.182  0.4813  1.1489 -1.1734
  394MOL0     H51970   7.554   6.015   4.173  0.0049 -2.5730 -0.3923
  394MOL0     H51971   7.627   5.793   4.196 -3.6026 -1.2663 -0.4534
  394MOL0     H51972   7.697   5.544   4.803  0.4856  0.8138 -0.1148
  394MOL0     H51973   7.852   5.376   4.910  1.3227 -0.4334 -0.0705
  394MOL0     H51974   7.999   5.194   4.967  1.4852 -3.2246  0.6139
  394MOL0     H51975   8.091   5.336   4.907  3.8118 -0.3779 -1.3150
  394MOL0     H51976   8.264   5.170   4.834  0.5961  1.4517  0.3020
  394MOL0     H51977   8.175   5.043   4.914 -2.0219  0.4272 -2.2859
  394MOL0     H51978   8.186   5.175   5.122  0.4077 -1.0719 -1.1998
  394MOL0     H51979   8.267   5.317   5.055 -0.7683  0.9520  4.5443
  394MOL0     H51980   8.426   5.118   5.197  1.3613  0.6586  0.2813
  394MOL0     H51981   8.376   5.030   5.058 -0.2034  0.7902 -3.2167
  394MOL0     H51982   8.512   5.208   4.917 -0.8953  1.1805  0.4910
  394MOL0     H51983   8.623   5.128   5.028  1.0890  0.0491 -3.5611
  394MOL0     H51984   8.468   5.387   5.064  0.3028 -0.5650 -2.8506
  394MOL0     H51985   8.639   5.373   5.010  0.6164 -1.3344 -1.3524
  394MOL0     H51986   8.528   5.335   5.296  0.3616 -1.4064 -0.0645
  394MOL0     H51987   8.678   5.278   5.259 -3.5132 -1.7229  3.9214
  394MOL0     H51988   8.763   5.482   5.181 -0.0205  0.3555  0.9276
  394MOL0     H51989   8.712   5.506   5.340 -0.2360 -2.1869 -0.2559
  394MOL0     H51990   7.970   5.257   4.504  1.2379  2.3293 -0.8150
  394MOL0     H51991   7.823   5.417   4.409  0.4773  4.7158 -0.0664
  394MOL0     H51992   7.583   5.811   4.627  0.3667  0.9111  1.3163
  394MOL0     H51993   7.491   6.051   4.588 -1.9576  0.1781 -1.3314
  394MOL0     H51994   6.187   5.876   3.927 -0.8805 -0.3274 -0.3202
  394MOL0     H51995   6.060   5.859   3.736 -0.9571  0.4847 -1.0840
  394MOL0     H51996   6.041   6.179   3.242  0.3445 -1.4763  2.6639
  394MOL0     H51997   5.868   6.176   3.075 -1.3228  0.8736  0.9395
  394MOL0     H51998   5.817   6.061   2.863 -0.0812  1.9267 -1.3618
  394MOL0     H51999   5.672   6.134   2.935  1.5204  1.2729 -2.1561
  394MOL0     H52000   5.668   6.015   2.695 -0.7126  1.5924 -0.1171
  394MOL0     H52001   5.649   5.872   2.787 -1.0008  0.6041  1.3851
  394MOL0     H52002   5.482   6.123   2.835 -1.6286 -0.4277  2.6965
  394MOL0     H52003   5.478   5.974   2.929  0.0608  2.2640  1.4283
  394MOL0     H52004   5.403   6.014   2.633  2.1423  1.2162 -0.3345
  394MOL0     H52005   5.419   5.849   2.711  2.1674  1.0948  3.2017
  394MOL0     H52006   5.051   6.031   2.839 -0.8360 -0.1487  0.2165
  394MOL0     H52007   5.826   5.755   3.140 -1.4956  1.0565  1.9833
  394MOL0     H52008   6.023   5.761   3.296 -0.1106 -0.7939 -0.0793
  395MOL0     O52009   4.739   5.051   6.989  0.2487  0.3103  0.1803
  395MOL0     C52010   4.834   4.982   6.941  0.5123 -0.0395 -0.8239
  395MOL0     O52011   4.828   4.899   6.829  0.0904 -0.2518  0.9843
  395MOL0     C52012   4.718   4.922   6.749  0.5257  0.5363 -0.5437
  395MOL0     C52013   4.641   4.808   6.734 -0.4152  0.1196 -0.7708
  395MOL0     C52014   4.536   4.806   6.645 -0.6057 -0.2930 -1.2373
  395MOL0     C52015   4.501   4.924   6.571 -0.4083 -0.5545  0.0372
  395MOL0     O52016   4.388   4.937   6.496  0.0857 -0.6820 -0.1408
  395MOL0     C52017   4.325   4.808   6.465  0.7883 -0.0027 -0.0520
  395MOL0     C52018   4.193   4.820   6.372  0.5879 -0.8535 -0.1779
  395MOL0     C52019   4.084   4.716   6.399  0.2042  0.0204 -0.4276
  395MOL0     C52020   4.135   4.581   6.352  0.0797 -0.4556 -0.1369
  395MOL0     C52021   4.026   4.472   6.356  0.3134 -0.2707  0.5123
  395MOL0     C52022   4.064   4.366   6.274 -0.0206 -0.3262  0.9022
  395MOL0     C52023   4.061   4.416   6.120 -0.8488 -0.1846 -0.3095
  395MOL0     C52024   4.010   4.311   6.024  1.0171  0.6682 -0.4191
  395MOL0     N52025   3.988   4.366   5.883  0.4283  0.8269 -0.4744
  395MOL0     C52026   4.080   4.333   5.784  0.1720 -0.8190 -0.6715
  395MOL0     C52027   4.038   4.406   5.680 -0.0910 -0.0147  0.5477
  395MOL0     C52028   4.094   4.407   5.549 -0.0109 -0.7440  0.4897
  395MOL0     C52029   4.238   4.437   5.537  0.0897 -0.2859 -0.7510
  395MOL0     C52030   4.291   4.433   5.391  0.9082  0.2700 -1.0793
  395MOL0     C52031   4.441   4.476   5.382  0.7356  0.6117  0.3128
  395MOL0     O52032   4.526   4.364   5.410 -0.2833 -0.2209  0.4231
  395MOL0     C52033   4.574   4.279   5.312 -0.3491 -0.2401  0.4672
  395MOL0     C52034   4.621   4.156   5.351  0.0497  0.4861  0.4548
  395MOL0     C52035   4.675   4.060   5.257  0.0545  0.7145 -0.5561
  395MOL0     C52036   4.678   4.088   5.119  0.4065  0.2163 -0.3056
  395MOL0     C52037   4.734   3.989   5.025 -0.4483 -0.5050 -0.5188
  395MOL0     O52038   4.779   3.881   5.090 -0.1287 -0.1202 -0.5454
  395MOL0     C52039   4.821   3.770   5.019 -0.9360 -0.2592 -0.0082
  395MOL0     C52040   4.960   3.738   5.021  0.1254  1.0570  0.3884
  395MOL0     C52041   5.009   3.636   4.939 -0.3514 -0.2451  0.0187
  395MOL0     C52042   4.923   3.548   4.863  1.4459 -0.5787  0.8016
  395MOL0     O52043   4.987   3.462   4.783  0.1129  0.0436  0.0579
  395MOL0     C52044   4.917   3.353   4.717  0.2573 -0.4848  0.6736
  395MOL0     C52045   4.958   3.351   4.565 -0.0592  0.1059 -0.0146
  395MOL0     C52046   4.861   3.444   4.483 -0.0429  0.2657 -0.2756
  395MOL0     C52047   4.888   3.412   4.338  0.6207  0.0358 -0.2435
  395MOL0     C52048   4.808   3.501   4.239  0.4345  0.5696 -0.0010
  395MOL0     C52049   4.813   3.437   4.102 -0.9623 -0.1537 -0.9124
  395MOL0     C52050   4.748   3.537   3.998 -0.7643 -0.1727  1.1016
  395MOL0     C52051   4.824   3.514   3.861  0.0387 -0.6966  0.6141
  395MOL0    Cl52052   4.791   3.349   3.786  0.0391  0.1204 -0.2228
  395MOL0     C52053   4.787   3.590   4.853 -0.9248  0.0418 -0.8868
  395MOL0     C52054   4.741   3.697   4.935 -0.7112  0.1887  0.3181
  395MOL0     O52055   4.746   4.012   4.909 -0.0365  0.2924  0.1141
  395MOL0     C52056   4.630   4.213   5.080 -0.1605 -1.1080  0.0172
  395MOL0     C52057   4.580   4.310   5.174  1.5756  0.2205 -0.5993
  395MOL0     N52058   3.936   4.494   5.718 -0.0510  0.3475  0.0601
  395MOL0     N52059   3.896   4.455   5.835 -0.7653 -0.3579 -0.0437
  395MOL0     C52060   4.594   5.035   6.583  0.5050  0.3835 -1.3096
  395MOL0     C52061   4.701   5.026   6.672  0.0833  0.4094 -0.3771
  395MOL0     C52062   4.947   4.961   7.028 -0.4683  0.2650 -0.3971
  395MOL0     C52063   4.991   5.040   7.134 -1.3284 -0.4871  0.2384
  395MOL0     C52064   5.088   5.006   7.225 -0.1219  0.1787 -0.2263
  395MOL0     C52065   5.155   4.889   7.215  0.6937  0.9627  0.0655
  395MOL0     O52066   5.261   4.866   7.311 -0.6070  0.3589  0.8430
  395MOL0     C52067   5.335   4.745   7.290  0.1515 -0.3999  0.1658
  395MOL0     C52068   5.451   4.727   7.398 -0.5568 -0.2614 -0.5321
  395MOL0     C52069   5.483   4.588   7.415  0.0476  0.7662 -0.5922
  395MOL0     C52070   5.594   4.570   7.524 -0.3022  0.7411 -0.5692
  395MOL0     C52071   5.711   4.649   7.500 -0.0907 -0.1982  0.8087
  395MOL0     C52072   5.817   4.703   7.474 -0.2275  0.1720 -0.7626
  395MOL0     C52073   5.104   4.795   7.122 -0.0648 -0.1881  0.4103
  395MOL0     C52074   5.010   4.833   7.021 -0.1438  0.0574 -0.2620
  395MOL0     H52075   4.642   4.722   6.800  1.6903  0.0827 -0.7882
  395MOL0     H52076   4.478   4.715   6.652  1.5814 -1.9763 -3.1537
  395MOL0     H52077   4.277   4.774   6.557  0.8142  1.2132  0.4293
  395MOL0     H52078   4.396   4.729   6.436  3.5128  2.4833 -0.7193
  395MOL0     H52079   4.217   4.814   6.265 -1.7964  0.5207 -0.8575
  395MOL0     H52080   4.146   4.918   6.377 -1.3477 -1.6933 -1.0332
  395MOL0     H52081   3.994   4.739   6.342  1.1679  0.8145 -1.6617
  395MOL0     H52082   4.050   4.714   6.503 -0.4386 -0.9441 -0.6397
  395MOL0     H52083   4.171   4.603   6.250 -0.8311 -0.8453 -0.5506
  395MOL0     H52084   4.219   4.555   6.416  0.4000  0.9894  0.0769
  395MOL0     H52085   3.934   4.509   6.309  1.3731 -1.2046 -2.5165
  395MOL0     H52086   4.008   4.437   6.458  0.1978 -1.8997 -0.0513
  395MOL0     H52087   3.996   4.282   6.290  1.1164 -1.4425  0.0932
  395MOL0     H52088   4.166   4.334   6.301  1.0728  0.8689 -1.5211
  395MOL0     H52089   3.997   4.503   6.106 -0.1081  0.3500 -0.4398
  395MOL0     H52090   4.159   4.463   6.106 -1.3907 -0.0082 -4.5636
  395MOL0     H52091   3.922   4.269   6.074  0.4763  0.3919 -1.5784
  395MOL0     H52092   4.088   4.234   6.023  0.0101 -0.3754 -0.8549
  395MOL0     H52093   4.170   4.273   5.783  1.7976  1.3734  1.9041
  395MOL0     H52094   4.037   4.480   5.490 -0.6163 -4.3302 -3.8831
  395MOL0     H52095   4.073   4.312   5.499  0.9358  0.1594 -1.7571
  395MOL0     H52096   4.308   4.376   5.594 -0.6525  2.0205  2.9040
  395MOL0     H52097   4.255   4.540   5.567 -0.7931 -0.6505  1.1151
  395MOL0     H52098   4.277   4.329   5.358  3.0361  0.3827 -2.5527
  395MOL0     H52099   4.236   4.497   5.322  0.8351  0.8838 -0.4558
  395MOL0     H52100   4.466   4.538   5.469 -0.3253  0.2270  0.9023
  395MOL0     H52101   4.457   4.521   5.284  1.7014 -0.1410  0.1087
  395MOL0     H52102   4.625   4.129   5.456  3.4273 -0.9721  0.0817
  395MOL0     H52103   4.701   3.965   5.303  3.2557  1.9158  0.4597
  395MOL0     H52104   5.029   3.807   5.070  2.0324 -0.9816  0.7286
  395MOL0     H52105   5.115   3.614   4.929  0.6006  4.0017 -1.7612
  395MOL0     H52106   4.809   3.371   4.719  0.2244  0.1599 -2.4445
  395MOL0     H52107   4.940   3.259   4.768  1.7612 -0.5183 -0.0023
  395MOL0     H52108   4.948   3.248   4.528  2.4620 -0.2535  0.1851
  395MOL0     H52109   5.062   3.382   4.559 -0.3482  0.8307 -2.6334
  395MOL0     H52110   4.888   3.545   4.516  2.2731  0.3460 -2.1486
  395MOL0     H52111   4.757   3.415   4.500 -0.4701  0.5700 -2.1921
  395MOL0     H52112   4.995   3.404   4.317  0.3382  1.0482 -2.3559
  395MOL0     H52113   4.867   3.306   4.321  0.2735  0.5316 -3.4363
  395MOL0     H52114   4.858   3.598   4.245 -0.0844  1.0636 -2.6815
  395MOL0     H52115   4.709   3.521   4.281  1.5645  3.6773  1.4563
  395MOL0     H52116   4.767   3.338   4.094  2.2716 -1.9267  0.5695
  395MOL0     H52117   4.919   3.427   4.079 -0.6773  0.0292  0.2586
  395MOL0     H52118   4.644   3.506   3.981 -0.4047 -1.4988  1.1746
  395MOL0     H52119   4.752   3.644   4.018 -1.9883  0.3795 -1.2261
  395MOL0     H52120   4.932   3.525   3.876  0.2219 -0.2874 -0.8835
  395MOL0     H52121   4.801   3.594   3.791  0.8303 -1.4998 -0.6063
  395MOL0     H52122   4.715   3.532   4.796 -0.3917 -0.6844 -0.8296
  395MOL0     H52123   4.637   3.728   4.931 -1.9253 -3.3454  0.6602
  395MOL0     H52124   4.626   4.249   4.978 -2.8091 -0.3702  0.2981
  395MOL0     H52125   4.549   4.408   5.141  1.1158 -0.0930 -1.1247
  395MOL0     H52126   4.560   5.129   6.542 -0.3231  0.6305 -0.1110
  395MOL0     H52127   4.763   5.115   6.679 -0.8994  1.2358 -1.5937
  395MOL0     H52128   4.936   5.130   7.162  3.3582  2.4534  0.9913
  395MOL0     H52129   5.111   5.064   7.314  3.9828 -2.1934  0.5375
  395MOL0     H52130   5.383   4.754   7.192  1.7802 -3.2210  0.5865
  395MOL0     H52131   5.272   4.656   7.277 -1.3389  0.9202 -2.5548
  395MOL0     H52132   5.536   4.791   7.375  0.9258 -0.0637  4.4885
  395MOL0     H52133   5.409   4.765   7.491  0.0791 -2.3524  0.6653
  395MOL0     H52134   5.510   4.540   7.321 -0.1927 -1.1937  0.2803
  395MOL0     H52135   5.402   4.529   7.457  1.3590 -2.0884 -1.8144
  395MOL0     H52136   5.556   4.590   7.624 -4.6077 -1.8107 -1.4175
  395MOL0     H52137   5.617   4.463   7.523 -2.7150  0.1045 -3.1565
  395MOL0     H52138   5.916   4.740   7.456  0.8812 -1.8601  0.6784
  395MOL0     H52139   5.147   4.697   7.103  2.7082  1.2754 -1.3606
  395MOL0     H52140   4.988   4.753   6.952  3.2242 -1.1956 -0.0585
  396MOL0     O52141   2.398   7.869  10.081  0.0362 -0.4464 -0.6082
  396MOL0     C52142   2.286   7.920  10.110 -1.0598 -0.2401 -0.5893
  396MOL0     O52143   2.228   8.013  10.037 -0.3441 -0.2498 -0.2719
  396MOL0     C52144   2.287   8.050   9.921 -0.3139  0.3122 -0.3261
  396MOL0     C52145   2.410   8.117   9.907 -0.7211 -0.6010  0.1131
  396MOL0     C52146   2.453   8.174   9.784 -0.6001  0.6476  0.4616
  396MOL0     C52147   2.384   8.151   9.676 -0.5677  0.8469  0.3191
  396MOL0     O52148   2.450   8.194   9.559  0.0179 -0.0748  0.2225
  396MOL0     C52149   2.415   8.129   9.440  1.3764  0.3684 -0.3396
  396MOL0     C52150   2.304   8.218   9.376 -0.0720  1.0254  0.4927
  396MOL0     C52151   2.238   8.159   9.251 -0.0018 -0.1062 -0.1632
  396MOL0     C52152   2.160   8.256   9.169  0.4199 -0.1012 -0.0283
  396MOL0     C52153   2.074   8.182   9.062 -0.6030 -1.2432  0.3080
  396MOL0     C52154   2.148   8.094   8.964 -0.1962 -0.3538  0.1852
  396MOL0     C52155   2.061   8.039   8.854  0.3086  0.6884 -0.6747
  396MOL0     C52156   2.001   7.901   8.879  0.5577 -0.2283 -0.6541
  396MOL0     N52157   2.080   7.796   8.824  0.5792 -0.9320  0.5540
  396MOL0     C52158   2.082   7.772   8.679 -0.7016 -0.0274 -0.7817
  396MOL0     C52159   2.145   7.654   8.677 -0.5746 -0.2051 -0.0907
  396MOL0     C52160   2.164   7.567   8.559  0.1096 -0.3416  1.5898
  396MOL0     C52161   2.298   7.564   8.481  0.2672  0.0272  0.1218
  396MOL0     C52162   2.280   7.451   8.375  0.7067 -1.0218 -0.0152
  396MOL0     C52163   2.329   7.323   8.427 -0.5595  0.1573  0.2982
  396MOL0     O52164   2.322   7.215   8.337 -0.4695 -0.0937 -0.0319
  396MOL0     C52165   2.394   7.102   8.361 -0.5160  0.2220 -0.4115
  396MOL0     C52166   2.458   7.076   8.485 -0.8134 -0.1093 -0.3513
  396MOL0     C52167   2.524   6.952   8.502 -0.6673 -0.1097 -0.3805
  396MOL0     C52168   2.514   6.844   8.403 -0.1802 -0.5685  0.1715
  396MOL0     C52169   2.577   6.703   8.423  0.7602 -0.5425  0.8106
  396MOL0     O52170   2.522   6.610   8.331 -0.1371  0.4982 -0.9490
  396MOL0     C52171   2.587   6.486   8.296  0.2039  0.3028 -0.4748
  396MOL0     C52172   2.724   6.452   8.322  0.0388  1.2013  0.0933
  396MOL0     C52173   2.789   6.341   8.267 -0.6864  1.0653 -0.2039
  396MOL0     C52174   2.711   6.254   8.191  0.3689 -0.4914 -0.0380
  396MOL0     O52175   2.762   6.134   8.131  1.0205 -0.1886  0.6343
  396MOL0     C52176   2.894   6.146   8.086 -0.0588  0.2081  0.2383
  396MOL0     C52177   2.945   6.007   8.045 -0.5539  0.0984 -0.8636
  396MOL0     C52178   3.097   5.997   8.026  0.3719 -0.1248  0.6743
  396MOL0     C52179   3.142   5.851   7.987 -0.2032 -0.2026 -1.1512
  396MOL0     C52180   3.297   5.827   7.990  1.1239 -0.7102  0.2951
  396MOL0     C52181   3.337   5.823   8.140 -0.3231 -0.3614 -0.1258
  396MOL0     C52182   3.276   5.717   8.234 -0.4422 -0.8798  0.1298
  396MOL0     C52183   3.301   5.564   8.197  0.0096  0.1132 -0.1065
  396MOL0    Cl52184   3.200   5.525   8.048  0.2280  0.0805 -0.1553
  396MOL0     C52185   2.573   6.291   8.168  0.4712 -0.2067  0.1485
  396MOL0     C52186   2.507   6.401   8.221  0.5763  0.1597 -0.7492
  396MOL0     O52187   2.659   6.690   8.511  0.2599 -0.0468  0.6462
  396MOL0     C52188   2.455   6.876   8.288 -0.4009 -0.1231  0.1078
  396MOL0     C52189   2.393   7.002   8.266  0.4550  0.6849 -1.2535
  396MOL0     N52190   2.178   7.616   8.803  0.3041  0.0706  0.0287
  396MOL0     N52191   2.161   7.712   8.881  0.3846  0.1020  0.5884
  396MOL0     C52192   2.264   8.070   9.684 -0.5681  0.6238  0.1243
  396MOL0     C52193   2.215   8.022   9.808 -1.2804 -0.4523 -0.2460
  396MOL0     C52194   2.229   7.887  10.240  0.1877  0.1274 -0.1214
  396MOL0     C52195   2.109   7.951  10.280 -0.1420  0.4141  0.2859
  396MOL0     C52196   2.041   7.909  10.390 -0.5739  0.0419  0.3471
  396MOL0     C52197   2.109   7.819  10.480  0.1789 -0.3384  0.0071
  396MOL0     O52198   2.051   7.799  10.606 -0.4526  0.9254  0.2203
  396MOL0     C52199   2.104   7.902  10.691 -0.3772 -0.4588 -0.1516
  396MOL0     C52200   2.076   7.867  10.839 -0.5136  0.8227 -0.0549
  396MOL0     C52201   2.107   7.713  10.882  0.7682 -0.5393  0.0052
  396MOL0     C52202   2.246   7.698  10.942 -0.3582 -0.4499  0.2891
  396MOL0     C52203   2.341   7.725  10.830 -0.3824 -0.7111 -0.6857
  396MOL0     C52204   2.419   7.750  10.737 -0.0324 -0.3339 -0.0638
  396MOL0     C52205   2.226   7.755  10.437 -0.6964 -0.0561 -0.5338
  396MOL0     C52206   2.283   7.778  10.320 -0.4887 -0.3736  1.0977
  396MOL0     H52207   2.466   8.144   9.996 -2.0655 -0.7730  1.0530
  396MOL0     H52208   2.537   8.242   9.779  0.6176 -0.6190  2.1978
  396MOL0     H52209   2.381   8.028   9.463  0.3209 -0.0566 -3.3466
  396MOL0     H52210   2.506   8.112   9.382  1.0625 -1.3312 -0.3834
  396MOL0     H52211   2.354   8.306   9.336  0.2708  0.0501 -1.3278
  396MOL0     H52212   2.220   8.246   9.440 -1.6691 -3.8860  1.0151
  396MOL0     H52213   2.179   8.077   9.294  1.2857 -1.0510 -0.1268
  396MOL0     H52214   2.315   8.112   9.188  3.3152  1.2197  2.5636
  396MOL0     H52215   2.089   8.307   9.235  2.2176  0.3045  1.6754
  396MOL0     H52216   2.217   8.336   9.123 -0.4843  0.8328  0.4260
  396MOL0     H52217   2.024   8.260   9.003  1.9814 -0.8943 -1.6226
  396MOL0     H52218   2.006   8.116   9.115 -0.3767 -0.5094  1.5478
  396MOL0     H52219   2.204   8.016   9.016  2.2347  1.3980  0.3451
  396MOL0     H52220   2.228   8.151   8.916  0.1990 -1.1497 -0.1044
  396MOL0     H52221   1.980   8.111   8.841  0.6476  1.8209  2.6111
  396MOL0     H52222   2.123   8.049   8.764  1.5616 -0.4602  0.0194
  396MOL0     H52223   1.901   7.896   8.835 -0.8329 -0.4010  2.3351
  396MOL0     H52224   1.993   7.880   8.986  1.9974  1.4397 -0.1695
  396MOL0     H52225   2.049   7.835   8.597  2.3135  0.6469 -1.6054
  396MOL0     H52226   2.079   7.591   8.494  2.3230  1.9211 -0.7433
  396MOL0     H52227   2.151   7.463   8.589 -1.3002  0.4776  4.1249
  396MOL0     H52228   2.370   7.542   8.560 -0.5621 -2.5878  0.2517
  396MOL0     H52229   2.312   7.657   8.426  1.5264 -0.1983  0.0343
  396MOL0     H52230   2.176   7.441   8.341  1.1869 -1.1030 -1.5324
  396MOL0     H52231   2.326   7.464   8.276 -2.3895  0.7916 -1.3784
  396MOL0     H52232   2.272   7.288   8.514 -0.2828  1.2672  0.9342
  396MOL0     H52233   2.433   7.336   8.459  0.7433 -1.9134 -2.6339
  396MOL0     H52234   2.449   7.134   8.577  0.8170 -0.0242 -0.2115
  396MOL0     H52235   2.572   6.927   8.596  2.8583 -1.2790 -2.2978
  396MOL0     H52236   2.780   6.525   8.379 -0.9653  2.3209 -0.3158
  396MOL0     H52237   2.893   6.330   8.295 -0.7810 -1.0085 -0.5471
  396MOL0     H52238   2.954   6.187   8.168 -0.4068 -0.0774  0.6410
  396MOL0     H52239   2.890   6.208   7.996 -1.1729 -0.4846 -0.2052
  396MOL0     H52240   2.885   5.974   7.959 -1.2276 -1.6498  0.2220
  396MOL0     H52241   2.912   5.934   8.120  0.7969 -1.2207 -1.4959
  396MOL0     H52242   3.134   6.020   8.127  0.0994  0.5041  0.6332
  396MOL0     H52243   3.128   6.071   7.951 -1.5793  2.4032  2.1781
  396MOL0     H52244   3.086   5.784   8.053 -2.1834  1.2761 -1.2376
  396MOL0     H52245   3.106   5.827   7.886 -0.7338 -1.3292 -0.7076
  396MOL0     H52246   3.345   5.901   7.926  2.7535  1.1255  3.3993
  396MOL0     H52247   3.312   5.727   7.948 -2.3408 -1.6281  0.8632
  396MOL0     H52248   3.320   5.923   8.182  0.7519 -0.8891  1.6778
  396MOL0     H52249   3.445   5.811   8.152 -0.4018 -1.6142 -0.5777
  396MOL0     H52250   3.321   5.737   8.332 -2.6619  1.0667  0.8274
  396MOL0     H52251   3.170   5.735   8.250 -0.5989 -1.2202 -0.5030
  396MOL0     H52252   3.260   5.492   8.268 -3.4967  2.6350  0.6469
  396MOL0     H52253   3.408   5.558   8.175  0.5031  3.2564  1.0345
  396MOL0     H52254   2.517   6.226   8.101 -0.0502 -1.9548  2.1490
  396MOL0     H52255   2.406   6.439   8.207  1.6808  3.6166 -0.2168
  396MOL0     H52256   2.457   6.792   8.219  1.5669 -0.7599  0.8790
  396MOL0     H52257   2.349   7.025   8.169 -1.9098 -3.5049 -1.3950
  396MOL0     H52258   2.214   8.040   9.593  0.8169  1.9363 -1.1363
  396MOL0     H52259   2.120   7.971   9.819  0.7609 -4.1204  2.7080
  396MOL0     H52260   2.059   8.020  10.212 -0.9511 -1.1583 -0.7727
  396MOL0     H52261   1.947   7.958  10.415 -0.0246  0.7464  1.0790
  396MOL0     H52262   2.076   8.005  10.668  1.7108  0.7815  2.2627
  396MOL0     H52263   2.213   7.897  10.684 -0.3930 -2.0897  0.2225
  396MOL0     H52264   2.118   7.941  10.907 -0.0003  0.3041  0.1958
  396MOL0     H52265   1.969   7.883  10.857 -0.5462  0.8971 -0.3001
  396MOL0     H52266   2.095   7.629  10.813  1.9470 -1.8529  1.3388
  396MOL0     H52267   2.038   7.698  10.966  0.6146  2.1371  0.4576
  396MOL0     H52268   2.259   7.753  11.035  2.5088 -1.9744  0.8949
  396MOL0     H52269   2.270   7.594  10.967  2.0764  0.1000  0.4751
  396MOL0     H52270   2.494   7.773  10.664  2.1698 -1.4534  1.7358
  396MOL0     H52271   2.278   7.677  10.493 -0.6325  1.3945  1.5336
  396MOL0     H52272   2.374   7.734  10.280 -0.5267  1.3012 -1.0435
  397MOL0     O52273   5.836   9.899   3.392  0.0333  0.2983 -0.4368
  397MOL0     C52274   5.746   9.829   3.432 -0.0177 -0.4013 -0.1451
  397MOL0     O52275   5.630   9.824   3.365  0.4364 -0.2580  0.4918
  397MOL0     C52276   5.624   9.901   3.253 -0.5542 -0.2133 -0.2018
  397MOL0     C52277   5.524   9.999   3.244 -0.5362 -0.4409 -0.3283
  397MOL0     C52278   5.495  10.066   3.119 -0.2256 -0.2013 -0.4921
  397MOL0     C52279   5.577  10.036   3.010 -0.5284 -0.8837 -0.1822
  397MOL0     O52280   5.548  10.090   2.893  0.3203  0.6878  0.0728
  397MOL0     C52281   5.648  10.165   2.829  0.1044  0.3975 -0.4545
  397MOL0     C52282   5.592  10.245   2.707  0.6105 -0.2031 -0.5636
  397MOL0     C52283   5.555  10.391   2.744  0.0280  0.1064 -0.2808
  397MOL0     C52284   5.478  10.472   2.633  0.0547  0.7899 -0.3836
  397MOL0     C52285   5.339  10.415   2.594 -0.7108 -0.5801  1.0877
  397MOL0     C52286   5.248  10.524   2.527 -0.3697  0.4090  0.0396
  397MOL0     C52287   5.122  10.460   2.456 -0.0286  0.4705 -0.2816
  397MOL0     C52288   5.037  10.573   2.409  0.5397  0.0715  0.5730
  397MOL0     N52289   5.098  10.664   2.319  0.1092  0.8159  0.2544
  397MOL0     C52290   5.171  10.764   2.352 -0.0836  0.7565  0.3887
  397MOL0     C52291   5.211  10.827   2.242 -0.6169 -0.4821  0.8265
  397MOL0     C52292   5.317  10.943   2.241 -0.0157  0.9306  1.1668
  397MOL0     C52293   5.461  10.880   2.233  0.9705 -0.1876 -1.5099
  397MOL0     C52294   5.522  10.832   2.384  1.1470  0.7531  0.4177
  397MOL0     C52295   5.657  10.767   2.368  1.0692 -0.5074  0.1037
  397MOL0     O52296   5.732  10.727   2.481  0.9141 -0.6451  0.8345
  397MOL0     C52297   5.796  10.612   2.490  0.0687 -0.3926  0.0174
  397MOL0     C52298   5.837  10.534   2.382  0.4862 -0.3226  0.7706
  397MOL0     C52299   5.900  10.409   2.393  0.3958  0.0063  0.1594
  397MOL0     C52300   5.945  10.360   2.519 -0.2634 -0.9559  0.6655
  397MOL0     C52301   6.002  10.229   2.536 -0.0742 -0.2096  0.1295
  397MOL0     O52302   5.982  10.172   2.659  0.9108 -0.5003  0.2398
  397MOL0     C52303   5.956  10.042   2.684  0.3561  0.7619  0.3186
  397MOL0     C52304   5.977  10.000   2.816  0.6859  0.4738 -0.5948
  397MOL0     C52305   5.988   9.863   2.857  0.4712  0.2403 -0.4361
  397MOL0     C52306   5.970   9.761   2.759  0.8181 -0.1474 -0.0327
  397MOL0     O52307   5.993   9.629   2.778 -0.1382 -0.4377 -0.0038
  397MOL0     C52308   6.074   9.584   2.891  0.0973  0.3218 -0.1769
  397MOL0     C52309   6.226   9.623   2.882 -0.6478  0.0195  0.4180
  397MOL0     C52310   6.300   9.571   2.995  0.3877  0.1840  0.2784
  397MOL0     C52311   6.450   9.577   2.954 -0.6854 -0.3014  0.0500
  397MOL0     C52312   6.533   9.505   3.066 -0.2251 -0.2961  0.4972
  397MOL0     C52313   6.688   9.515   3.032  0.3561  0.0748 -0.2497
  397MOL0     C52314   6.739   9.436   2.907 -0.5480  0.8149  0.3485
  397MOL0     C52315   6.892   9.455   2.875 -0.3321 -0.4067 -0.5890
  397MOL0    Cl52316   7.007   9.458   3.022  0.1573  0.5275 -0.1917
  397MOL0     C52317   5.924   9.805   2.638  0.1522  0.0969  0.6847
  397MOL0     C52318   5.929   9.941   2.595  0.5306 -0.3407 -0.0314
  397MOL0     O52319   6.068  10.189   2.446 -0.0759  0.5996  0.3124
  397MOL0     C52320   5.904  10.440   2.627  0.1576 -0.0205  0.5999
  397MOL0     C52321   5.827  10.558   2.615 -0.9746 -0.2459 -0.0467
  397MOL0     N52322   5.137  10.775   2.135 -0.3456 -0.1468  0.5357
  397MOL0     N52323   5.068  10.668   2.179  0.5451 -0.1116  0.0503
  397MOL0     C52324   5.686   9.950   3.018  1.2716  0.2365  0.4786
  397MOL0     C52325   5.705   9.872   3.144  0.1700 -0.1919  0.7489
  397MOL0     C52326   5.767   9.760   3.563  0.5200 -0.3827  0.7135
  397MOL0     C52327   5.887   9.768   3.641  0.1711 -0.2819  0.6281
  397MOL0     C52328   5.900   9.716   3.770 -0.6512  0.0424 -0.5976
  397MOL0     C52329   5.804   9.632   3.814  0.6608  0.0034  0.1677
  397MOL0     O52330   5.824   9.576   3.939  0.1279  0.9082  0.0432
  397MOL0     C52331   5.722   9.502   4.008  0.4688 -0.6647 -0.2680
  397MOL0     C52332   5.738   9.354   3.987 -0.3291 -0.2505 -0.1600
  397MOL0     C52333   5.873   9.297   4.041  0.3476  0.5449  0.2224
  397MOL0     C52334   5.913   9.150   3.983  0.5616 -0.1059  0.4090
  397MOL0     C52335   5.805   9.049   3.991  0.2989 -0.3739 -0.2411
  397MOL0     C52336   5.727   8.959   3.987 -0.3697  0.1675 -0.3335
  397MOL0     C52337   5.688   9.620   3.737 -0.6495 -0.3218 -0.7265
  397MOL0     C52338   5.664   9.687   3.616 -0.0277 -0.7045  0.2320
  397MOL0     H52339   5.459  10.015   3.330  1.8126  0.6956  1.3491
  397MOL0     H52340   5.408  10.130   3.124 -2.7527 -3.4777  3.0126
  397MOL0     H52341   5.719  10.097   2.779 -2.2667 -0.3260 -3.1159
  397MOL0     H52342   5.704  10.231   2.895 -0.5131  1.6669 -1.1572
  397MOL0     H52343   5.506  10.189   2.669  0.5520  0.7638 -1.9002
  397MOL0     H52344   5.652  10.249   2.615  2.3519 -1.8883  0.4167
  397MOL0     H52345   5.638  10.461   2.757 -1.5261  1.5432  3.1681
  397MOL0     H52346   5.498  10.406   2.836  1.1965 -0.5970  0.5820
  397MOL0     H52347   5.457  10.569   2.680 -0.9044  0.4950 -0.1933
  397MOL0     H52348   5.539  10.486   2.543 -1.6151  3.7176 -1.1926
  397MOL0     H52349   5.297  10.374   2.686  0.0948 -2.1104  0.7990
  397MOL0     H52350   5.360  10.333   2.525 -0.6008  1.6966 -1.7839
  397MOL0     H52351   5.307  10.577   2.451 -1.8491  1.8781 -0.1404
  397MOL0     H52352   5.215  10.598   2.600 -0.1762  0.5583 -0.0210
  397MOL0     H52353   5.150  10.417   2.360 -0.7635 -1.0951  0.1660
  397MOL0     H52354   5.071  10.393   2.526 -2.2555  1.8005 -0.5284
  397MOL0     H52355   5.002  10.625   2.499 -1.5834 -1.7930  0.8978
  397MOL0     H52356   4.950  10.530   2.359 -1.1559  3.3234  0.4892
  397MOL0     H52357   5.195  10.786   2.456 -0.9132  1.5593  0.4259
  397MOL0     H52358   5.305  11.003   2.331  1.2961 -0.3555  2.2512
  397MOL0     H52359   5.294  11.011   2.158 -2.5192 -0.0113  1.0081
  397MOL0     H52360   5.535  10.950   2.192  0.0570  4.5642  3.6511
  397MOL0     H52361   5.441  10.794   2.169 -0.9796 -3.4125  2.9260
  397MOL0     H52362   5.526  10.920   2.450  1.0441  3.3588 -2.7829
  397MOL0     H52363   5.448  10.762   2.422  0.2418 -0.4707 -3.2524
  397MOL0     H52364   5.718  10.852   2.336  4.1490 -1.5107  2.8054
  397MOL0     H52365   5.650  10.688   2.293 -0.3955 -1.0936  0.8057
  397MOL0     H52366   5.840  10.581   2.284  1.6854  0.4786  1.1626
  397MOL0     H52367   5.921  10.355   2.301 -2.6054  0.2998 -0.8250
  397MOL0     H52368   5.985  10.078   2.891  0.3382  0.0164 -0.0703
  397MOL0     H52369   6.013   9.840   2.960  1.1506  2.0354 -0.1615
  397MOL0     H52370   6.075   9.475   2.893 -0.0176  0.1472 -3.6410
  397MOL0     H52371   6.042   9.623   2.988  2.6320 -1.2231  1.3894
  397MOL0     H52372   6.240   9.729   2.905  0.2133  0.3560 -1.4543
  397MOL0     H52373   6.263   9.596   2.782  0.5316  3.0409 -0.0824
  397MOL0     H52374   6.278   9.465   3.007  0.8867 -0.3266 -2.5524
  397MOL0     H52375   6.276   9.620   3.090 -0.0356  0.9504 -0.2057
  397MOL0     H52376   6.466   9.524   2.860  2.6211 -1.3037  1.0439
  397MOL0     H52377   6.495   9.677   2.948  1.5124 -1.1092  1.6254
  397MOL0     H52378   6.502   9.400   3.068  1.7668 -0.9451  2.8366
  397MOL0     H52379   6.506   9.536   3.167 -0.9072  2.0442 -0.3528
  397MOL0     H52380   6.736   9.469   3.119 -0.0091  0.6007  0.2389
  397MOL0     H52381   6.735   9.612   3.017  1.3039 -0.6786 -2.7720
  397MOL0     H52382   6.718   9.329   2.921 -1.6974  1.2321  2.0905
  397MOL0     H52383   6.693   9.461   2.810  1.4671 -0.1090 -0.9130
  397MOL0     H52384   6.909   9.555   2.833 -2.0782  2.6973  4.9785
  397MOL0     H52385   6.935   9.386   2.802 -1.5322  0.8068 -2.5385
  397MOL0     H52386   5.902   9.728   2.565  1.9464  1.3814 -1.3228
  397MOL0     H52387   5.904   9.966   2.492  1.7317 -0.5864 -0.4038
  397MOL0     H52388   5.932  10.411   2.727 -1.9450  0.9206  1.5365
  397MOL0     H52389   5.797  10.606   2.708  3.1547  0.0387  1.3362
  397MOL0     H52390   5.752   9.928   2.934 -0.7594 -0.5462 -0.9909
  397MOL0     H52391   5.794   9.814   3.164  0.8663  1.6039  3.3901
  397MOL0     H52392   5.962   9.831   3.595  0.7155 -0.4534  1.2633
  397MOL0     H52393   5.986   9.748   3.827 -2.7265  1.8306  1.7566
  397MOL0     H52394   5.626   9.544   3.977  1.6187  1.8132 -0.7898
  397MOL0     H52395   5.717   9.511   4.117  0.8145 -2.2642 -0.1034
  397MOL0     H52396   5.652   9.314   4.041 -2.6305  5.4991  1.2581
  397MOL0     H52397   5.727   9.330   3.881  1.2357  2.6023 -1.0988
  397MOL0     H52398   5.858   9.293   4.149 -0.7633 -3.0446  0.0629
  397MOL0     H52399   5.954   9.366   4.014 -0.5031  1.5059  0.0151
  397MOL0     H52400   5.944   9.167   3.879  0.9901  0.6876  0.6661
  397MOL0     H52401   6.000   9.115   4.039  0.4722 -3.2383 -1.1437
  397MOL0     H52402   5.672   8.873   3.956  0.5147 -0.2555 -0.7695
  397MOL0     H52403   5.610   9.553   3.769 -2.7489  1.5060 -1.7550
  397MOL0     H52404   5.571   9.683   3.559 -1.3866 -0.6656  2.3378
  398MOL0     O52405   0.654   5.343   2.981 -0.3598 -0.1272 -0.1090
  398MOL0     C52406   0.664   5.381   2.867  0.4485  0.0472  0.0806
  398MOL0     O52407   0.647   5.506   2.817  0.0327  0.3263 -0.3356
  398MOL0     C52408   0.603   5.609   2.893 -0.1151 -0.4179  1.0306
  398MOL0     C52409   0.684   5.724   2.894 -0.0945  0.3177 -0.4280
  398MOL0     C52410   0.636   5.839   2.972 -0.2274  0.5596  0.2660
  398MOL0     C52411   0.524   5.836   3.034  0.3805 -0.5302 -0.2410
  398MOL0     O52412   0.489   5.908   3.139 -0.0522  0.1127  0.2703
  398MOL0     C52413   0.539   6.039   3.153  0.2248 -0.5982 -0.3001
  398MOL0     C52414   0.504   6.109   3.284  0.0306  0.4428 -1.0015
  398MOL0     C52415   0.351   6.150   3.311 -0.7470  0.1653  0.2497
  398MOL0     C52416   0.308   6.263   3.214 -0.4111  0.1023 -0.1604
  398MOL0     C52417   0.164   6.287   3.220 -0.1255  0.1790 -0.4647
  398MOL0     C52418   0.077   6.305   3.350  0.0169  0.0698 -0.6582
  398MOL0     C52419  -0.069   6.341   3.334  0.4690 -0.7615 -0.0384
  398MOL0     C52420  -0.104   6.483   3.305  0.1101 -0.2663  0.4836
  398MOL0     N52421  -0.250   6.499   3.289  0.5813 -0.2748  0.1822
  398MOL0     C52422  -0.315   6.568   3.186  0.9154 -0.5341  0.4924
  398MOL0     C52423  -0.447   6.572   3.220  0.0217  0.1300  0.2685
  398MOL0     C52424  -0.557   6.638   3.145  1.3781 -0.5885 -0.4864
  398MOL0     C52425  -0.616   6.764   3.211 -0.2236  0.4176  0.5772
  398MOL0     C52426  -0.713   6.822   3.111  0.3207  0.8415 -0.0340
  398MOL0     C52427  -0.767   6.950   3.158  0.3999  0.1616  0.0039
  398MOL0     O52428  -0.872   6.946   3.252 -0.4219  0.4277 -0.3443
  398MOL0     C52429  -0.835   6.959   3.386 -0.5499  0.9834  0.5646
  398MOL0     C52430  -0.757   7.060   3.436  0.4522 -0.4297 -0.3181
  398MOL0     C52431  -0.721   7.069   3.574 -0.1760  0.8110  0.3857
  398MOL0     C52432  -0.755   6.967   3.659 -0.2898  0.0059 -0.1478
  398MOL0     C52433  -0.703   6.966   3.804  0.5396  0.2038  0.2516
  398MOL0     O52434  -0.675   6.841   3.858 -0.2122  0.8802 -0.3455
  398MOL0     C52435  -0.612   6.829   3.986  0.8618  0.1591  0.7349
  398MOL0     C52436  -0.538   6.707   3.996 -0.0577  0.3835 -1.0636
  398MOL0     C52437  -0.474   6.682   4.112  0.2838  0.0354 -0.9010
  398MOL0     C52438  -0.508   6.753   4.233  0.2993  0.4980  0.4679
  398MOL0     O52439  -0.477   6.708   4.357  0.4223 -0.0036 -0.6112
  398MOL0     C52440  -0.514   6.572   4.382 -0.9227 -0.8092 -0.4431
  398MOL0     C52441  -0.632   6.576   4.467  0.2195  0.3830 -0.8992
  398MOL0     C52442  -0.675   6.433   4.507  0.4160  0.5654 -1.2594
  398MOL0     C52443  -0.792   6.418   4.597 -0.5614 -0.0864  0.2386
  398MOL0     C52444  -0.776   6.286   4.680  0.0721  1.1795 -0.0612
  398MOL0     C52445  -0.887   6.240   4.783 -0.3409  0.1579 -0.3133
  398MOL0     C52446  -0.883   6.090   4.811 -0.2486  0.6057 -0.8545
  398MOL0     C52447  -0.804   6.063   4.940  0.6448 -0.3476  1.0978
  398MOL0    Cl52448  -0.816   5.887   4.977 -0.0986 -0.0996  0.7891
  398MOL0     C52449  -0.586   6.866   4.228 -0.3245  0.0770  0.9495
  398MOL0     C52450  -0.643   6.898   4.105 -0.3450 -0.6748  0.1126
  398MOL0     O52451  -0.664   7.074   3.849 -0.6435  0.6762  0.3443
  398MOL0     C52452  -0.836   6.857   3.617  1.6324 -0.0890  0.4145
  398MOL0     C52453  -0.872   6.860   3.480  1.1565  0.2136  0.2979
  398MOL0     N52454  -0.459   6.512   3.346  0.1914 -0.7075 -0.3831
  398MOL0     N52455  -0.341   6.470   3.383 -0.7498  0.3928  0.4671
  398MOL0     C52456   0.451   5.723   3.035  0.7537  0.6545  0.0508
  398MOL0     C52457   0.486   5.607   2.974 -1.2500  0.1930 -0.7732
  398MOL0     C52458   0.724   5.297   2.765  0.3476 -0.0556 -0.7814
  398MOL0     C52459   0.663   5.283   2.642 -0.5169  0.3314  0.3233
  398MOL0     C52460   0.720   5.204   2.536 -0.1306 -0.3959 -0.2058
  398MOL0     C52461   0.835   5.130   2.567  0.8571  0.7996 -0.4875
  398MOL0     O52462   0.910   5.075   2.468 -0.3593  0.1409 -0.3701
  398MOL0     C52463   0.862   4.965   2.407  0.5430  0.3032 -0.0864
  398MOL0     C52464   0.868   4.831   2.484 -0.2972 -0.1896  0.0674
  398MOL0     C52465   1.012   4.823   2.534  0.1658 -0.1358  0.1377
  398MOL0     C52466   1.025   4.698   2.625 -0.4608 -0.1502 -0.4846
  398MOL0     C52467   1.020   4.577   2.546 -0.8160  0.6999  0.5365
  398MOL0     C52468   1.022   4.466   2.482 -0.5617 -0.9987  0.5755
  398MOL0     C52469   0.900   5.144   2.690 -1.0271 -0.1652 -0.4007
  398MOL0     C52470   0.842   5.227   2.788 -0.5819  1.5890  0.4426
  398MOL0     H52471   0.771   5.749   2.834 -0.6589  1.7589 -0.6912
  398MOL0     H52472   0.697   5.926   2.990 -3.0729  2.5578  0.8466
  398MOL0     H52473   0.511   6.105   3.070  1.0973  1.7227  1.1629
  398MOL0     H52474   0.648   6.033   3.148  0.2513 -0.3991  0.0143
  398MOL0     H52475   0.552   6.206   3.268  0.1141  1.4442  3.7376
  398MOL0     H52476   0.542   6.057   3.372 -4.6333 -0.7682  0.6271
  398MOL0     H52477   0.340   6.186   3.413 -1.4954 -4.2484  1.9828
  398MOL0     H52478   0.285   6.062   3.314  0.3440 -0.6691  2.9159
  398MOL0     H52479   0.347   6.359   3.250 -2.4542  1.7135 -1.9760
  398MOL0     H52480   0.336   6.241   3.111 -0.3960  1.2956 -0.4265
  398MOL0     H52481   0.136   6.192   3.173 -0.3851  0.9572 -1.9550
  398MOL0     H52482   0.127   6.370   3.159 -1.1763  1.2060  1.4965
  398MOL0     H52483   0.128   6.381   3.410 -0.9358 -0.2966  0.6548
  398MOL0     H52484   0.091   6.214   3.408  2.6861  0.3752 -0.7237
  398MOL0     H52485  -0.116   6.271   3.264 -0.3260  1.5596 -1.9597
  398MOL0     H52486  -0.112   6.323   3.433 -1.5624 -3.4380 -1.2751
  398MOL0     H52487  -0.054   6.520   3.215  1.2494  1.6562  1.8439
  398MOL0     H52488  -0.066   6.550   3.383  1.1624  3.5872 -2.9544
  398MOL0     H52489  -0.278   6.620   3.098  2.6000 -1.1332  0.8206
  398MOL0     H52490  -0.638   6.568   3.123  1.9560 -1.5021  0.1823
  398MOL0     H52491  -0.514   6.668   3.049 -0.4845  0.3189 -1.0843
  398MOL0     H52492  -0.531   6.827   3.235 -0.3690  1.8430 -2.2295
  398MOL0     H52493  -0.671   6.723   3.297 -0.6901  1.2730  0.6957
  398MOL0     H52494  -0.671   6.830   3.010 -1.9572  0.3935 -1.0718
  398MOL0     H52495  -0.798   6.753   3.111  0.1386  1.0644  0.1912
  398MOL0     H52496  -0.805   6.988   3.063 -0.2219 -1.9978 -0.6765
  398MOL0     H52497  -0.681   7.003   3.199  0.2472  1.4622 -1.2953
  398MOL0     H52498  -0.742   7.143   3.368 -0.5134 -0.8052 -1.0307
  398MOL0     H52499  -0.675   7.160   3.613  0.9172  0.7171 -0.6053
  398MOL0     H52500  -0.520   6.645   3.908 -2.1177 -1.4566 -0.2706
  398MOL0     H52501  -0.407   6.597   4.118 -1.2580 -1.1501  2.3213
  398MOL0     H52502  -0.438   6.521   4.442 -1.9800  1.2898  3.0326
  398MOL0     H52503  -0.534   6.507   4.297 -2.3153  0.8388 -1.4425
  398MOL0     H52504  -0.713   6.624   4.412  0.6806 -1.7855 -3.6822
  398MOL0     H52505  -0.612   6.633   4.559 -0.6673 -2.4515  1.1637
  398MOL0     H52506  -0.598   6.389   4.571 -0.0568  1.0884 -0.3020
  398MOL0     H52507  -0.670   6.374   4.415 -0.8052  0.2090 -1.1170
  398MOL0     H52508  -0.802   6.498   4.671 -3.3357 -0.0209 -0.1064
  398MOL0     H52509  -0.882   6.433   4.538  0.8246  4.5281 -1.1464
  398MOL0     H52510  -0.682   6.301   4.734  0.4730  2.8397 -1.1544
  398MOL0     H52511  -0.762   6.208   4.605 -1.3229  0.1090  0.7490
  398MOL0     H52512  -0.979   6.265   4.728  0.2882  0.8901 -1.0533
  398MOL0     H52513  -0.889   6.302   4.873 -1.4251 -0.2856 -0.0107
  398MOL0     H52514  -0.988   6.060   4.814 -0.9244  2.8555  1.2968
  398MOL0     H52515  -0.828   6.037   4.732 -0.3776  0.0552 -0.5771
  398MOL0     H52516  -0.852   6.108   5.027 -0.0784  1.1256 -0.0074
  398MOL0     H52517  -0.700   6.092   4.921  0.5073 -1.2604 -1.5910
  398MOL0     H52518  -0.621   6.909   4.321 -0.5943 -3.2184  2.5165
  398MOL0     H52519  -0.722   6.972   4.110  0.0597 -0.2584  0.5290
  398MOL0     H52520  -0.850   6.774   3.686  2.6015 -0.9274 -0.3555
  398MOL0     H52521  -0.937   6.779   3.447  1.0449  0.2411  0.4478
  398MOL0     H52522   0.364   5.723   3.100 -1.5030 -0.0725 -2.7604
  398MOL0     H52523   0.429   5.516   2.984  0.1810 -0.6886 -0.2369
  398MOL0     H52524   0.570   5.337   2.625 -0.4840  0.2429 -0.1709
  398MOL0     H52525   0.681   5.204   2.434  1.8894  0.4943 -1.0338
  398MOL0     H52526   0.918   4.950   2.314  1.2885 -0.8415  0.5202
  398MOL0     H52527   0.759   4.984   2.378  0.2494  2.5818  2.1478
  398MOL0     H52528   0.797   4.841   2.566 -0.7177  0.0023 -0.3164
  398MOL0     H52529   0.845   4.759   2.404  0.2256  1.5830 -1.7710
  398MOL0     H52530   1.035   4.906   2.601  0.7962 -0.7172  0.6530
  398MOL0     H52531   1.078   4.817   2.447 -1.3378  3.4548 -1.4151
  398MOL0     H52532   1.114   4.703   2.688 -1.1405  1.5709  0.3792
  398MOL0     H52533   0.942   4.689   2.696 -1.4668  1.9813 -1.3104
  398MOL0     H52534   1.024   4.365   2.449 -0.7936 -1.0493  0.7167
  398MOL0     H52535   0.995   5.093   2.691 -1.0793 -0.2667 -0.5830
  398MOL0     H52536   0.882   5.231   2.889  0.6431  0.1774  0.0683
  399MOL0     O52537   1.367   3.080  11.207  0.3356 -0.8138 -0.2752
  399MOL0     C52538   1.363   3.059  11.088 -0.9378 -0.2814 -0.3528
  399MOL0     O52539   1.456   3.007  11.010  0.3245  0.7498  0.2528
  399MOL0     C52540   1.584   2.997  11.043 -0.8563  1.0420 -0.3461
  399MOL0     C52541   1.655   2.923  10.944  0.1464 -0.7350  0.0808
  399MOL0     C52542   1.795   2.908  10.963 -0.3270  0.3275 -0.4300
  399MOL0     C52543   1.867   2.967  11.066  0.0478  0.2496  0.2014
  399MOL0     O52544   1.997   2.923  11.068 -0.0274  0.1069 -1.0446
  399MOL0     C52545   2.119   2.999  11.098  0.1464  0.5955  0.5191
  399MOL0     C52546   2.131   3.103  11.002  0.0889  0.6630 -0.2926
  399MOL0     C52547   2.269   3.170  11.025 -0.6114  1.2821 -0.5029
  399MOL0     C52548   2.266   3.306  10.959 -0.5620  0.0599 -0.1690
  399MOL0     C52549   2.406   3.365  10.972  0.1575  0.1419  0.2358
  399MOL0     C52550   2.435   3.503  10.917  0.5629  0.0352  0.9970
  399MOL0     C52551   2.395   3.522  10.766 -0.8623  0.6623 -0.5583
  399MOL0     C52552   2.462   3.643  10.698  0.3930 -0.2989 -0.0723
  399MOL0     N52553   2.399   3.772  10.725  0.0961 -0.2569 -0.2929
  399MOL0     C52554   2.273   3.804  10.682 -0.8133 -0.3000 -0.2946
  399MOL0     C52555   2.266   3.938  10.713 -0.1218  0.9538 -0.8323
  399MOL0     C52556   2.151   4.038  10.706  0.1864 -0.0081 -0.4884
  399MOL0     C52557   2.028   4.023  10.799  0.3780 -0.0496  0.1211
  399MOL0     C52558   2.078   4.026  10.948 -0.4317 -0.2324  0.9916
  399MOL0     C52559   1.954   4.047  11.046 -0.2205  0.1481 -0.4039
  399MOL0     O52560   1.931   4.188  11.071 -1.2863 -0.1325  0.6127
  399MOL0     C52561   1.802   4.229  11.105  0.0547 -0.4354  0.3312
  399MOL0     C52562   1.785   4.364  11.120 -0.0383 -0.1266  0.6511
  399MOL0     C52563   1.662   4.413  11.156 -0.0669 -0.0568  0.5492
  399MOL0     C52564   1.560   4.325  11.189  0.1795 -0.2132 -0.2169
  399MOL0     C52565   1.425   4.375  11.220  0.5740  0.2640  0.3555
  399MOL0     O52566   1.332   4.286  11.278 -1.1168 -0.2025 -0.0541
  399MOL0     C52567   1.207   4.337  11.313 -0.7885 -0.4781  0.4176
  399MOL0     C52568   1.194   4.441  11.408  0.3124 -0.0419  1.0362
  399MOL0     C52569   1.060   4.466  11.460  0.1082  0.2747 -0.4663
  399MOL0     C52570   0.953   4.394  11.423 -0.3029 -0.6344  0.0038
  399MOL0     O52571   0.842   4.442  11.483  0.3633 -0.2457  0.4387
  399MOL0     C52572   0.717   4.446  11.413  0.2553 -0.1423  0.5633
  399MOL0     C52573   0.608   4.529  11.480  0.2960 -0.2513 -0.4892
  399MOL0     C52574   0.512   4.618  11.387 -0.7481 -0.6597  0.3932
  399MOL0     C52575   0.402   4.663  11.478  0.5048  0.5517  0.5646
  399MOL0     C52576   0.271   4.573  11.487 -0.0041 -0.3236 -0.2765
  399MOL0     C52577   0.179   4.628  11.596 -0.0058 -0.0226 -0.6119
  399MOL0     C52578   0.038   4.545  11.590 -0.6042  0.9048  0.2254
  399MOL0     C52579   0.028   4.448  11.707 -0.0363 -0.1452  0.1678
  399MOL0    Cl52580   0.151   4.313  11.723  0.0187  0.0028  0.0452
  399MOL0     C52581   0.966   4.295  11.320  0.6264  0.1044 -0.0514
  399MOL0     C52582   1.096   4.269  11.262  0.8402  0.3876 -1.2446
  399MOL0     O52583   1.407   4.494  11.201  0.0334 -0.1895 -0.4706
  399MOL0     C52584   1.576   4.189  11.178  0.0105  0.5143 -0.5007
  399MOL0     C52585   1.693   4.132  11.128 -0.3935  0.4457 -0.4788
  399MOL0     N52586   2.389   3.987  10.752  0.3019 -0.8066  0.2976
  399MOL0     N52587   2.471   3.891  10.752 -0.0631  0.0626 -0.2702
  399MOL0     C52588   1.799   3.047  11.159  0.3701 -0.5014 -0.5274
  399MOL0     C52589   1.656   3.064  11.145  0.4571  0.2306  0.1385
  399MOL0     C52590   1.231   3.061  11.027  0.2759 -0.9362 -0.2611
  399MOL0     C52591   1.211   3.023  10.892  0.4874 -0.3710 -0.2388
  399MOL0     C52592   1.086   2.999  10.835 -0.3166 -0.7375  0.2112
  399MOL0     C52593   0.973   3.011  10.905 -0.0189  0.1165 -0.5260
  399MOL0     O52594   0.847   2.980  10.851  0.8449  0.2946 -0.4737
  399MOL0     C52595   0.829   2.904  10.734  0.3903 -0.1042 -0.0980
  399MOL0     C52596   0.826   2.757  10.766  0.2511 -0.3570  0.2424
  399MOL0     C52597   0.713   2.709  10.856 -1.0648 -0.0369 -0.2767
  399MOL0     C52598   0.575   2.767  10.820 -0.1983 -0.4488 -0.5466
  399MOL0     C52599   0.540   2.720  10.687  0.2857  0.2949  0.8643
  399MOL0     C52600   0.517   2.672  10.578  0.5752 -0.7089 -0.4797
  399MOL0     C52601   0.988   3.050  11.041  0.3578  0.2463  0.3155
  399MOL0     C52602   1.110   3.079  11.096 -0.6446 -0.6748 -0.2814
  399MOL0     H52603   1.614   2.881  10.853  1.2686 -0.3452 -0.6158
  399MOL0     H52604   1.856   2.856  10.889 -2.6790 -1.9757 -0.9175
  399MOL0     H52605   2.197   2.925  11.079 -0.5317  0.3557 -1.5352
  399MOL0     H52606   2.118   3.024  11.205 -0.1709  2.1298  0.1728
  399MOL0     H52607   2.055   3.176  11.030 -0.6493  0.4271 -1.5950
  399MOL0     H52608   2.126   3.072  10.897 -1.0273  1.7230 -0.5762
  399MOL0     H52609   2.351   3.102  10.999  0.6458  2.7349 -0.4543
  399MOL0     H52610   2.295   3.185  11.130 -1.2753  0.8196 -0.2666
  399MOL0     H52611   2.248   3.286  10.853 -1.5905 -2.1843  0.3731
  399MOL0     H52612   2.187   3.378  10.985  2.5536  4.8646 -2.4952
  399MOL0     H52613   2.479   3.297  10.926  1.3612  1.4424  0.1599
  399MOL0     H52614   2.418   3.369  11.081 -0.3443  0.1627  0.2891
  399MOL0     H52615   2.541   3.525  10.936  1.2707 -2.7898  0.7827
  399MOL0     H52616   2.374   3.568  10.981 -2.6312 -2.2797  0.5569
  399MOL0     H52617   2.415   3.436  10.701 -3.0607 -0.5518  0.2738
  399MOL0     H52618   2.286   3.516  10.753 -0.5518 -2.5503 -2.8226
  399MOL0     H52619   2.452   3.642  10.589 -1.3117  0.7823  0.0480
  399MOL0     H52620   2.567   3.662  10.724 -0.2594  3.5284  0.2830
  399MOL0     H52621   2.195   3.745  10.634  0.1031 -3.5698  1.8720
  399MOL0     H52622   2.110   4.022  10.606 -1.0530 -1.4202  0.2030
  399MOL0     H52623   2.198   4.136  10.702 -2.2892  1.2121 -1.8224
  399MOL0     H52624   1.995   3.923  10.771  0.4255 -0.1920  0.5785
  399MOL0     H52625   1.955   4.098  10.768  3.1945  1.2599 -4.3880
  399MOL0     H52626   2.136   3.936  10.966  0.2912 -0.5247 -2.2350
  399MOL0     H52627   2.142   4.115  10.956  0.4566 -0.7622 -0.1096
  399MOL0     H52628   1.980   4.013  11.146 -0.2799 -0.3794 -0.5653
  399MOL0     H52629   1.864   3.999  11.006  0.1621 -1.2168  0.3358
  399MOL0     H52630   1.871   4.424  11.092 -1.5827  1.6568 -0.4963
  399MOL0     H52631   1.635   4.518  11.163  0.1681 -0.0996  2.3614
  399MOL0     H52632   1.272   4.510  11.440 -0.5218  1.1426  0.6243
  399MOL0     H52633   1.053   4.546  11.534 -1.0341 -0.2526  0.0203
  399MOL0     H52634   0.670   4.348  11.408  0.1041 -0.1118  1.2565
  399MOL0     H52635   0.730   4.476  11.308 -1.3553  1.4914  0.7801
  399MOL0     H52636   0.638   4.610  11.547 -3.9943 -0.6899  2.3194
  399MOL0     H52637   0.551   4.467  11.550 -2.0242  2.1054 -0.1754
  399MOL0     H52638   0.466   4.549  11.316  0.6567 -0.7063 -0.5139
  399MOL0     H52639   0.578   4.698  11.353  2.1052 -3.0487 -0.1228
  399MOL0     H52640   0.432   4.671  11.583  0.3224 -2.8208  0.9924
  399MOL0     H52641   0.364   4.763  11.455  0.0988  0.7575  2.0077
  399MOL0     H52642   0.317   4.479  11.518  0.9698 -0.0741 -0.9381
  399MOL0     H52643   0.220   4.566  11.391  0.7848 -3.7252 -0.5932
  399MOL0     H52644   0.142   4.728  11.572 -2.4394 -1.0329 -1.3919
  399MOL0     H52645   0.232   4.634  11.691  1.3756  0.0829 -1.3622
  399MOL0     H52646  -0.043   4.616  11.608 -0.4490  2.0260 -2.9349
  399MOL0     H52647   0.031   4.512  11.486  1.8397 -0.6124  0.4531
  399MOL0     H52648  -0.074   4.407  11.713 -0.5953  0.9608 -1.1503
  399MOL0     H52649   0.044   4.503  11.799  2.7671 -2.1753  1.0280
  399MOL0     H52650   0.874   4.242  11.296 -0.1496  0.8645  1.1469
  399MOL0     H52651   1.116   4.182  11.201 -1.6994 -2.0862  1.1751
  399MOL0     H52652   1.496   4.117  11.192  1.1459 -0.8247 -0.6731
  399MOL0     H52653   1.695   4.023  11.128  0.3143  0.1607  5.3809
  399MOL0     H52654   1.852   3.090  11.244  1.3994 -1.7781 -0.4754
  399MOL0     H52655   1.600   3.124  11.216  1.1759  1.3433 -0.2144
  399MOL0     H52656   1.293   2.990  10.828 -0.8669  0.2588 -2.3882
  399MOL0     H52657   1.088   2.974  10.729  0.4484  3.5663 -0.9998
  399MOL0     H52658   0.909   2.909  10.659  0.4367 -2.4394 -0.2773
  399MOL0     H52659   0.729   2.933  10.700 -0.4414  0.8185  2.8670
  399MOL0     H52660   0.834   2.691  10.679 -2.4910 -0.3279 -0.0977
  399MOL0     H52661   0.924   2.742  10.813  2.4484 -1.0145 -4.0413
  399MOL0     H52662   0.746   2.723  10.959  0.4069 -1.5626 -0.4895
  399MOL0     H52663   0.715   2.599  10.850 -0.1173 -0.2126  2.2150
  399MOL0     H52664   0.500   2.723  10.887  1.8622 -3.4605 -0.0236
  399MOL0     H52665   0.553   2.873  10.830 -0.5574 -0.6584  1.2371
  399MOL0     H52666   0.514   2.625  10.481  2.5007  1.2128 -1.5608
  399MOL0     H52667   0.888   3.050  11.083  0.7253 -0.0942  1.2269
  399MOL0     H52668   1.131   3.103  11.200  3.6931 -2.3072 -0.5506
  400MOL0     O52669   2.789   0.769   7.065  0.5326  0.2507 -0.3338
  400MOL0     C52670   2.784   0.697   6.965 -0.2640 -0.1068 -0.3502
  400MOL0     O52671   2.834   0.734   6.847 -0.7780 -0.2397  0.2896
  400MOL0     C52672   2.847   0.864   6.814  0.8661 -0.6364  0.2790
  400MOL0     C52673   2.742   0.957   6.789 -0.7685  2.0216  0.0899
  400MOL0     C52674   2.759   1.088   6.742 -0.6605 -0.1123  0.7315
  400MOL0     C52675   2.887   1.131   6.721 -0.3712 -0.6255  0.2146
  400MOL0     O52676   2.893   1.254   6.659 -0.1526  0.7577 -0.4284
  400MOL0     C52677   2.997   1.336   6.721  0.3483 -0.1133  0.2150
  400MOL0     C52678   2.972   1.469   6.666  0.2117  0.4392  0.7498
  400MOL0     C52679   3.040   1.478   6.521 -0.5332  0.5963  0.2323
  400MOL0     C52680   3.193   1.504   6.523  0.3108  0.0598 -0.6077
  400MOL0     C52681   3.257   1.501   6.381 -0.2596  0.5948  0.6458
  400MOL0     C52682   3.375   1.406   6.379 -0.8253  0.6212  1.0666
  400MOL0     C52683   3.348   1.254   6.424  0.2102  0.5817 -0.1861
  400MOL0     C52684   3.482   1.179   6.431 -0.6562  0.1614  0.7245
  400MOL0     N52685   3.515   1.149   6.290  0.0999  0.0566  0.3498
  400MOL0     C52686   3.492   1.025   6.233 -0.8904  0.3118  0.0361
  400MOL0     C52687   3.583   1.019   6.134  0.3028 -0.7127  0.5757
  400MOL0     C52688   3.621   0.897   6.047 -0.4808  0.3985 -0.6388
  400MOL0     C52689   3.547   0.888   5.917  0.3356  0.1846 -0.9696
  400MOL0     C52690   3.390   0.887   5.946 -0.0940 -0.1327  0.0464
  400MOL0     C52691   3.301   0.851   5.829 -0.6028  0.4970  0.6848
  400MOL0     O52692   3.336   0.933   5.710  0.5105  0.7893 -0.2418
  400MOL0     C52693   3.289   0.909   5.587  0.3977 -0.3573  0.2155
  400MOL0     C52694   3.149   0.888   5.574  0.1045 -0.3310 -0.2203
  400MOL0     C52695   3.092   0.884   5.447 -0.5432 -0.3071  0.5844
  400MOL0     C52696   3.172   0.917   5.338 -0.7202 -0.0979 -0.1219
  400MOL0     C52697   3.112   0.946   5.204 -0.3142 -1.1043 -0.2107
  400MOL0     O52698   2.978   0.984   5.206 -0.2711  0.0679  0.0939
  400MOL0     C52699   2.903   0.969   5.098 -0.3102 -1.4251 -0.1650
  400MOL0     C52700   2.806   1.069   5.050  0.1195 -0.2646  0.1066
  400MOL0     C52701   2.720   1.036   4.942  0.0858 -0.6662 -0.0122
  400MOL0     C52702   2.733   0.917   4.876 -0.0612 -0.2574  0.6811
  400MOL0     O52703   2.651   0.908   4.772  0.0248 -0.0267  0.4791
  400MOL0     C52704   2.631   0.777   4.709 -0.1942 -0.5095 -1.0283
  400MOL0     C52705   2.482   0.782   4.656 -0.0564  0.4516 -1.4112
  400MOL0     C52706   2.458   0.694   4.537  0.1098  0.0679 -0.3010
  400MOL0     C52707   2.329   0.720   4.474  0.0606 -0.6586  0.0156
  400MOL0     C52708   2.291   0.609   4.362 -0.0794 -0.7604 -0.0256
  400MOL0     C52709   2.155   0.650   4.311 -0.3948  0.8750 -0.5394
  400MOL0     C52710   2.111   0.543   4.215 -0.8478 -0.2186  0.3624
  400MOL0     C52711   1.989   0.587   4.146  0.1597  0.4504  0.6273
  400MOL0    Cl52712   1.954   0.471   4.013  0.0375  0.0496  0.1880
  400MOL0     C52713   2.823   0.820   4.925  0.0994 -0.0280 -0.7954
  400MOL0     C52714   2.901   0.847   5.039  0.0320 -0.2964  0.3341
  400MOL0     O52715   3.184   0.952   5.105 -0.5069 -0.3909 -0.2361
  400MOL0     C52716   3.305   0.953   5.349 -0.0625 -0.3685 -0.5210
  400MOL0     C52717   3.369   0.945   5.475 -0.4397 -0.5098  0.0317
  400MOL0     N52718   3.639   1.144   6.113 -0.6826 -0.1516  0.7037
  400MOL0     N52719   3.600   1.223   6.211  0.0915  0.1510 -0.4730
  400MOL0     C52720   2.993   1.054   6.745 -0.8851 -0.4926  1.0405
  400MOL0     C52721   2.978   0.920   6.793  0.7839  0.4565 -0.3556
  400MOL0     C52722   2.733   0.566   6.969 -0.1136  1.5119  0.3512
  400MOL0     C52723   2.701   0.485   6.851 -0.6305  0.0016 -0.2062
  400MOL0     C52724   2.660   0.348   6.878 -0.3581 -0.3313  0.6545
  400MOL0     C52725   2.627   0.299   7.004 -0.7659 -0.2185  1.0450
  400MOL0     O52726   2.594   0.159   6.999 -0.6558 -0.4157  0.4513
  400MOL0     C52727   2.647   0.077   7.101 -0.3263 -0.8708  0.0876
  400MOL0     C52728   2.555   0.077   7.224 -1.2702 -0.1504 -0.0849
  400MOL0     C52729   2.435  -0.018   7.212  0.7950 -0.8062 -0.3846
  400MOL0     C52730   2.411  -0.085   7.350  0.2852  0.4234 -0.5522
  400MOL0     C52731   2.417   0.020   7.460  1.1647  0.2037 -0.1070
  400MOL0     C52732   2.411   0.107   7.545  0.6593 -0.9156  0.3558
  400MOL0     C52733   2.662   0.377   7.118  0.3842 -0.7403 -0.1589
  400MOL0     C52734   2.714   0.500   7.095 -0.8376  0.0740  0.3825
  400MOL0     H52735   2.643   0.920   6.813  0.0945 -1.0166 -0.4764
  400MOL0     H52736   2.680   1.160   6.727 -1.5345 -0.8277  1.7236
  400MOL0     H52737   3.098   1.314   6.685 -0.4029 -0.4668 -1.8018
  400MOL0     H52738   2.979   1.336   6.828 -3.2866  1.4261 -0.2518
  400MOL0     H52739   3.019   1.544   6.730 -0.2291 -0.3774  2.0674
  400MOL0     H52740   2.868   1.500   6.653 -0.3586 -1.6260 -0.1083
  400MOL0     H52741   2.991   1.547   6.452 -2.9432 -0.9044  0.3172
  400MOL0     H52742   3.037   1.379   6.474  0.3644  0.4916  0.3665
  400MOL0     H52743   3.202   1.603   6.570 -3.8458 -1.1837  3.5651
  400MOL0     H52744   3.243   1.434   6.589 -1.5108 -2.2752 -1.5771
  400MOL0     H52745   3.307   1.596   6.358  0.4731  0.1828  0.5246
  400MOL0     H52746   3.180   1.480   6.306  1.3977 -3.0968 -0.1860
  400MOL0     H52747   3.449   1.443   6.450  1.3738  0.1875 -0.8855
  400MOL0     H52748   3.432   1.409   6.286  0.6837  0.8039  1.9693
  400MOL0     H52749   3.297   1.255   6.521 -1.2895  1.8991 -0.9353
  400MOL0     H52750   3.286   1.205   6.348  0.4014 -0.7481  0.4959
  400MOL0     H52751   3.464   1.082   6.477 -0.1375 -1.8361 -2.9230
  400MOL0     H52752   3.566   1.233   6.477 -2.2371  3.4532  0.0275
  400MOL0     H52753   3.432   0.942   6.267  0.1513 -1.0941 -1.4200
  400MOL0     H52754   3.608   0.806   6.105  2.1954  1.2375  1.4604
  400MOL0     H52755   3.729   0.889   6.033 -0.1391  1.4438  1.0755
  400MOL0     H52756   3.583   0.798   5.867  1.0191 -0.7552  1.1236
  400MOL0     H52757   3.565   0.980   5.860 -1.6339  1.3769  0.2222
  400MOL0     H52758   3.373   0.828   6.036  0.2763 -1.3278 -0.6406
  400MOL0     H52759   3.370   0.987   5.985 -0.6865 -0.8527  1.7070
  400MOL0     H52760   3.196   0.861   5.859 -0.2945 -0.2401  2.0675
  400MOL0     H52761   3.320   0.750   5.791  0.2322  1.7845 -2.6929
  400MOL0     H52762   3.090   0.888   5.665  0.0314 -1.1412 -0.2604
  400MOL0     H52763   2.984   0.869   5.442 -0.7810  1.2887  0.3199
  400MOL0     H52764   2.803   1.172   5.086 -2.2599 -0.3007  0.1726
  400MOL0     H52765   2.657   1.112   4.897 -2.2688 -4.1825 -3.1860
  400MOL0     H52766   2.634   0.691   4.777  0.7347 -0.9324 -1.5919
  400MOL0     H52767   2.702   0.760   4.628  1.7498  0.1383  0.4904
  400MOL0     H52768   2.441   0.883   4.643 -0.9276 -0.0175 -2.4579
  400MOL0     H52769   2.417   0.745   4.736  1.7750 -0.0890 -0.1163
  400MOL0     H52770   2.484   0.589   4.554  0.5447  0.1119 -0.6479
  400MOL0     H52771   2.529   0.742   4.469 -0.6861  0.8240 -0.6000
  400MOL0     H52772   2.247   0.703   4.545 -3.1389 -2.1596 -3.6704
  400MOL0     H52773   2.340   0.822   4.438  0.0281 -0.9139 -0.7386
  400MOL0     H52774   2.303   0.511   4.410  3.0445 -0.6673 -0.4110
  400MOL0     H52775   2.363   0.610   4.280  3.2415 -1.5408  2.6260
  400MOL0     H52776   2.161   0.741   4.250 -1.3770 -0.6650 -3.0775
  400MOL0     H52777   2.076   0.647   4.387  0.5767  1.6046  0.5331
  400MOL0     H52778   2.196   0.528   4.148 -0.6766 -2.9235  1.0639
  400MOL0     H52779   2.095   0.452   4.274 -1.7091 -0.1109  0.3167
  400MOL0     H52780   1.989   0.683   4.093 -1.5507 -0.1976 -0.6483
  400MOL0     H52781   1.903   0.593   4.213 -1.4994  3.0364 -1.5148
  400MOL0     H52782   2.832   0.723   4.876  0.3449  0.1546 -1.1139
  400MOL0     H52783   2.963   0.768   5.082  0.9006  0.4477  0.4770
  400MOL0     H52784   3.367   0.981   5.265  1.6913 -3.0039 -0.2286
  400MOL0     H52785   3.474   0.973   5.468  0.4213 -3.5925 -1.4744
  400MOL0     H52786   3.091   1.098   6.733 -0.9658 -0.0212  1.9981
  400MOL0     H52787   3.062   0.853   6.809  0.3763 -0.2061 -0.9833
  400MOL0     H52788   2.715   0.526   6.752 -1.8410  5.4593  1.5259
  400MOL0     H52789   2.651   0.282   6.792 -1.0231  0.5069  0.0606
  400MOL0     H52790   2.748   0.113   7.125 -0.3080  0.2290 -1.5087
  400MOL0     H52791   2.657  -0.025   7.064  0.2461 -1.4451  1.7342
  400MOL0     H52792   2.619   0.041   7.306  0.1436  0.4091 -0.9087
  400MOL0     H52793   2.533   0.178   7.261 -2.8901 -0.4860 -0.0770
  400MOL0     H52794   2.455  -0.091   7.132 -0.1633 -1.5623  0.0536
  400MOL0     H52795   2.350   0.046   7.186 -0.7347 -2.3365  0.6689
  400MOL0     H52796   2.314  -0.135   7.354 -0.1089  1.2133  2.4674
  400MOL0     H52797   2.477  -0.168   7.376 -1.6225 -1.0777 -0.2316
  400MOL0     H52798   2.411   0.178   7.625 -1.2036 -1.4964  0.9234
  400MOL0     H52799   2.650   0.355   7.223  0.4051  0.7384  0.1614
  400MOL0     H52800   2.756   0.550   7.181  4.0924  0.6326 -1.9856
  401MOL0     O52801  10.982   3.910   4.423  0.4215  0.4145 -0.4597
  401MOL0     C52802  10.948   3.996   4.339  0.6048  0.2021 -0.0004
  401MOL0     O52803  10.849   4.078   4.338 -0.3261  0.9509  0.6688
  401MOL0     C52804  10.731   4.048   4.401 -0.7696  0.1274 -1.0730
  401MOL0     C52805  10.672   3.921   4.407 -0.8112 -0.3351  0.0236
  401MOL0     C52806  10.571   3.897   4.500  0.0843  0.3625  0.3567
  401MOL0     C52807  10.525   3.991   4.585  0.7237  0.3415  0.8902
  401MOL0     O52808  10.423   3.955   4.673  0.4969  0.0930  0.5006
  401MOL0     C52809  10.343   4.057   4.743 -0.0440 -0.0731 -0.0697
  401MOL0     C52810  10.219   3.995   4.815 -0.5821  0.0346 -0.2436
  401MOL0     C52811  10.140   4.103   4.894 -0.4349 -0.2545  0.8385
  401MOL0     C52812  10.221   4.203   4.980  0.0177  0.3546 -0.7965
  401MOL0     C52813  10.129   4.274   5.078  0.1549 -0.8982 -0.3897
  401MOL0     C52814  10.225   4.361   5.175 -0.3114  0.0679  0.0911
  401MOL0     C52815  10.146   4.396   5.302  0.1895  0.9435  0.8677
  401MOL0     C52816  10.181   4.299   5.413  0.1221 -0.1797  0.8169
  401MOL0     N52817  10.107   4.325   5.534 -0.0126  0.1189  0.3461
  401MOL0     C52818   9.991   4.255   5.563  0.5193  0.1497 -0.4587
  401MOL0     C52819   9.963   4.283   5.685  0.8460  0.1370 -1.2814
  401MOL0     C52820   9.844   4.247   5.769 -0.3273 -0.6377  0.0318
  401MOL0     C52821   9.720   4.330   5.738  0.4299  0.2113 -0.4182
  401MOL0     C52822   9.611   4.327   5.844  0.2077 -0.9818  0.2238
  401MOL0     C52823   9.491   4.405   5.787 -0.7693 -0.8779 -0.1140
  401MOL0     O52824   9.505   4.543   5.817  1.0258  0.9644 -0.4319
  401MOL0     C52825   9.413   4.639   5.801 -0.1391  0.1812  0.0048
  401MOL0     C52826   9.292   4.626   5.726  0.4347 -1.1934 -0.0150
  401MOL0     C52827   9.215   4.743   5.712 -0.1784  0.0632  0.6450
  401MOL0     C52828   9.236   4.858   5.784 -0.0558 -0.0035  0.0289
  401MOL0     C52829   9.144   4.974   5.792 -0.0844  0.3014 -0.3176
  401MOL0     O52830   9.042   4.976   5.708  0.1107 -0.2662  0.6704
  401MOL0     C52831   8.959   5.082   5.705  0.5186 -0.1875 -0.3266
  401MOL0     C52832   8.863   5.103   5.805 -0.7614  1.0762  0.6512
  401MOL0     C52833   8.775   5.211   5.796  0.4894  0.3285  0.1337
  401MOL0     C52834   8.768   5.289   5.685  0.0084  0.1518  0.3414
  401MOL0     O52835   8.670   5.382   5.657 -0.5054  0.5122 -0.4500
  401MOL0     C52836   8.546   5.384   5.739  0.5416  0.3507  0.5807
  401MOL0     C52837   8.461   5.493   5.674  0.7305  0.4247  0.3798
  401MOL0     C52838   8.514   5.637   5.671  0.2699  0.4878 -0.1514
  401MOL0     C52839   8.440   5.733   5.578  0.0390 -0.9766 -0.0145
  401MOL0     C52840   8.511   5.868   5.563 -0.0562  0.0603 -0.4335
  401MOL0     C52841   8.535   5.935   5.700 -0.5426  0.3383 -0.1045
  401MOL0     C52842   8.584   6.079   5.685 -0.4076  0.7312  0.9135
  401MOL0     C52843   8.493   6.188   5.743 -0.4780  0.1396  0.1336
  401MOL0    Cl52844   8.571   6.343   5.716  0.6206 -0.2868 -0.3025
  401MOL0     C52845   8.872   5.285   5.593 -0.0680  0.3430  0.2686
  401MOL0     C52846   8.971   5.184   5.610 -0.3023  0.7791  0.1282
  401MOL0     O52847   9.150   5.054   5.884  0.8617  0.2769 -1.0950
  401MOL0     C52848   9.355   4.862   5.862  1.0345 -0.4790  0.5700
  401MOL0     C52849   9.444   4.757   5.865 -0.1606  0.1520  0.0073
  401MOL0     N52850  10.057   4.374   5.735  1.2798 -0.7653 -0.1166
  401MOL0     N52851  10.152   4.385   5.643  0.8816 -0.0826 -0.2070
  401MOL0     C52852  10.584   4.117   4.582  0.3064  0.2960  0.3748
  401MOL0     C52853  10.686   4.145   4.491  1.3097  0.2862 -0.4438
  401MOL0     C52854  11.041   4.000   4.229  0.0859 -0.1681  0.6096
  401MOL0     C52855  11.174   4.012   4.250 -0.3604  0.2353  0.2999
  401MOL0     C52856  11.269   4.006   4.148 -0.5958 -0.1323  0.2604
  401MOL0     C52857  11.225   3.996   4.017 -0.1814 -0.4652 -0.8833
  401MOL0     O52858  11.317   3.985   3.915  0.1029 -0.0378 -0.4939
  401MOL0     C52859  11.283   3.917   3.797 -0.7958  0.1206 -0.1097
  401MOL0     C52860  11.390   3.936   3.696  0.0623  0.8194  0.7473
  401MOL0     C52861  11.339   3.883   3.557 -0.5604 -0.2287  0.0454
  401MOL0     C52862  11.328   3.740   3.556  0.3200 -0.2082  0.6877
  401MOL0     C52863  11.284   3.705   3.421 -0.5823  0.5090  0.4066
  401MOL0     C52864  11.260   3.674   3.306 -0.0754  0.2041 -0.2921
  401MOL0     C52865  11.086   3.991   3.996  1.0395 -1.3853  0.3523
  401MOL0     C52866  10.995   3.984   4.105 -0.0960  0.6205  0.1681
  401MOL0     H52867  10.710   3.843   4.341 -0.0572 -1.4168  1.6816
  401MOL0     H52868  10.530   3.797   4.511  0.8489 -0.3199 -2.3043
  401MOL0     H52869  10.311   4.137   4.677 -1.7370 -3.0936 -3.2341
  401MOL0     H52870  10.420   4.098   4.810  4.6652 -1.7973 -3.8308
  401MOL0     H52871  10.252   3.910   4.875  1.5811  0.0601 -1.3115
  401MOL0     H52872  10.137   3.963   4.750  0.2496 -0.5365 -1.0207
  401MOL0     H52873  10.078   4.048   4.966 -0.1472 -2.4209 -0.4618
  401MOL0     H52874  10.077   4.157   4.823 -1.0149 -1.6114  0.2900
  401MOL0     H52875  10.307   4.157   5.030  0.2823  1.5162 -0.1379
  401MOL0     H52876  10.261   4.278   4.911 -0.0701  0.0484 -1.1823
  401MOL0     H52877  10.073   4.201   5.138 -2.7705  2.0360  0.7107
  401MOL0     H52878  10.052   4.333   5.027  1.0445  0.3523 -0.3101
  401MOL0     H52879  10.271   4.447   5.125  3.1919 -0.8028  1.5052
  401MOL0     H52880  10.309   4.299   5.207 -1.6057 -1.9172 -0.2254
  401MOL0     H52881  10.170   4.500   5.326 -1.2873  1.7583 -0.8709
  401MOL0     H52882  10.038   4.394   5.281  0.2891 -5.7695 -1.5357
  401MOL0     H52883  10.288   4.318   5.430 -0.0885  1.9030  0.1317
  401MOL0     H52884  10.157   4.200   5.373 -0.4430 -0.6962  2.3992
  401MOL0     H52885   9.916   4.197   5.510 -2.7395  1.7308  2.0578
  401MOL0     H52886   9.875   4.272   5.871 -0.7760  2.7187 -0.5486
  401MOL0     H52887   9.828   4.139   5.761 -0.3813 -0.6835  0.7101
  401MOL0     H52888   9.677   4.295   5.644 -0.9151 -2.7012  1.1708
  401MOL0     H52889   9.750   4.435   5.725 -1.1109  0.5050 -1.9411
  401MOL0     H52890   9.581   4.224   5.863  0.8966 -1.4186 -0.9483
  401MOL0     H52891   9.639   4.376   5.938 -2.5115  4.0370 -1.1961
  401MOL0     H52892   9.399   4.361   5.828 -1.2143  1.1927  1.3015
  401MOL0     H52893   9.505   4.396   5.679  2.1831  1.6833 -0.0856
  401MOL0     H52894   9.261   4.538   5.669 -0.6529 -0.8430  0.0242
  401MOL0     H52895   9.118   4.746   5.662 -0.5935 -0.5208  1.4001
  401MOL0     H52896   8.869   5.024   5.879 -3.4999 -2.1330 -2.1867
  401MOL0     H52897   8.696   5.228   5.869  0.3074 -1.5431  0.4252
  401MOL0     H52898   8.558   5.410   5.845 -1.9453 -0.6054  1.1599
  401MOL0     H52899   8.498   5.287   5.725  0.0421  0.8811 -1.7985
  401MOL0     H52900   8.363   5.494   5.723  0.6285 -1.0117  0.2525
  401MOL0     H52901   8.447   5.471   5.568  2.0729 -0.2455  0.3293
  401MOL0     H52902   8.620   5.629   5.646  0.6972 -2.1654  1.9496
  401MOL0     H52903   8.516   5.683   5.771 -1.7073 -2.8694  1.6430
  401MOL0     H52904   8.433   5.680   5.483  0.5913 -0.6235 -0.2547
  401MOL0     H52905   8.340   5.746   5.622  0.0101  0.6636 -0.4828
  401MOL0     H52906   8.455   5.925   5.489  1.1428  0.8989 -0.7241
  401MOL0     H52907   8.607   5.842   5.515  0.2534 -2.0206  1.1802
  401MOL0     H52908   8.606   5.884   5.766 -0.6503  1.1737  0.6727
  401MOL0     H52909   8.438   5.936   5.751 -0.5386  1.8490 -0.0970
  401MOL0     H52910   8.688   6.072   5.721  0.2505  2.0622 -0.6268
  401MOL0     H52911   8.603   6.098   5.579 -1.0263  0.9685  0.8439
  401MOL0     H52912   8.476   6.160   5.847  2.3825  1.3600  1.0119
  401MOL0     H52913   8.398   6.186   5.688  1.7814  2.0045 -4.3916
  401MOL0     H52914   8.867   5.355   5.511 -1.4703  0.4769  0.4469
  401MOL0     H52915   9.052   5.183   5.537 -0.8639 -3.0184 -0.6579
  401MOL0     H52916   9.369   4.959   5.909 -1.8271  1.0079 -1.3221
  401MOL0     H52917   9.541   4.753   5.914  0.2032  0.9743 -0.6384
  401MOL0     H52918  10.546   4.186   4.657 -1.3978 -0.7040  0.4803
  401MOL0     H52919  10.716   4.249   4.481  0.3109  0.7625  1.1994
  401MOL0     H52920  11.210   4.029   4.351 -2.7085 -0.4235  1.3360
  401MOL0     H52921  11.376   4.019   4.154 -0.4727 -1.3750  0.8998
  401MOL0     H52922  11.183   3.937   3.758 -2.4122 -1.4248  2.8538
  401MOL0     H52923  11.284   3.809   3.813  1.7760  0.3394  1.7743
  401MOL0     H52924  11.406   4.044   3.688 -0.3552  0.7674 -1.4829
  401MOL0     H52925  11.483   3.898   3.738 -0.4073  0.8732  1.8966
  401MOL0     H52926  11.412   3.898   3.477  0.0369  1.1139  0.8003
  401MOL0     H52927  11.242   3.918   3.523 -1.0575 -1.9124 -0.3694
  401MOL0     H52928  11.419   3.684   3.580 -0.2990 -1.8428 -0.5342
  401MOL0     H52929  11.240   3.705   3.610  0.7706 -3.2517 -0.3246
  401MOL0     H52930  11.232   3.626   3.215 -0.7565  0.7705 -0.3866
  401MOL0     H52931  11.053   4.001   3.893 -2.3500 -0.9245  1.3691
  401MOL0     H52932  10.887   3.983   4.093 -0.3751 -0.2642  2.3232
  402MOL0     O52933   1.918   1.061   3.660 -0.0292 -0.6779 -0.3543
  402MOL0     C52934   1.923   0.943   3.621  0.4236 -1.1744 -0.0937
  402MOL0     O52935   1.826   0.855   3.645  0.3082  0.5316  0.0895
  402MOL0     C52936   1.732   0.894   3.734 -0.0376  0.3994 -0.0926
  402MOL0     C52937   1.626   0.983   3.708 -0.1035  0.7097 -0.8360
  402MOL0     C52938   1.531   1.006   3.804  0.5432  0.6485 -0.6621
  402MOL0     C52939   1.535   0.947   3.937 -0.1907 -0.7416  0.3320
  402MOL0     O52940   1.438   0.964   4.030 -0.0236 -0.7638 -0.1111
  402MOL0     C52941   1.348   1.077   4.021  0.8336  0.0842  0.5699
  402MOL0     C52942   1.292   1.126   4.163  0.7738 -1.0318 -0.1232
  402MOL0     C52943   1.400   1.141   4.261 -0.1794  0.0853  0.5354
  402MOL0     C52944   1.429   1.013   4.339 -0.3749 -0.3652 -0.1622
  402MOL0     C52945   1.535   1.042   4.449  0.4908  0.0105 -0.6928
  402MOL0     C52946   1.667   1.088   4.391 -0.3774 -0.3449 -0.0321
  402MOL0     C52947   1.779   1.069   4.487 -0.2772  0.1366  0.3630
  402MOL0     C52948   1.904   1.156   4.447 -0.0676  0.7812  0.2486
  402MOL0     N52949   2.008   1.110   4.538  0.2072 -0.5705  0.2718
  402MOL0     C52950   2.047   1.178   4.654  0.1531  0.6874 -0.4012
  402MOL0     C52951   2.141   1.095   4.708 -0.5374 -0.2838 -1.1132
  402MOL0     C52952   2.224   1.117   4.831 -0.3505 -0.1725  0.0491
  402MOL0     C52953   2.174   1.034   4.946  0.2000 -0.4330 -0.0405
  402MOL0     C52954   2.228   1.077   5.090 -0.1813 -0.8584 -0.1923
  402MOL0     C52955   2.182   1.218   5.126  0.4664 -0.2412  0.0460
  402MOL0     O52956   2.055   1.233   5.189  0.7467  0.6690 -0.0439
  402MOL0     C52957   1.999   1.356   5.203 -0.3077 -0.1170 -0.7163
  402MOL0     C52958   1.884   1.369   5.291  0.7709  0.1592  0.0974
  402MOL0     C52959   1.839   1.490   5.336  0.2161 -0.3638  0.1997
  402MOL0     C52960   1.897   1.606   5.287  0.1128 -0.5516  0.9776
  402MOL0     C52961   1.854   1.731   5.353 -0.1656 -0.0106  0.1416
  402MOL0     O52962   1.794   1.716   5.475 -0.0822 -0.6871 -0.1770
  402MOL0     C52963   1.732   1.836   5.533 -0.5489  0.3889 -0.4610
  402MOL0     C52964   1.802   1.919   5.623 -0.2312  0.1810  0.3998
  402MOL0     C52965   1.731   2.024   5.673  0.4974 -0.4826  0.8598
  402MOL0     C52966   1.596   2.059   5.630  0.3162  1.0321  0.5647
  402MOL0     O52967   1.525   2.165   5.682  0.3017 -0.8035  0.0197
  402MOL0     C52968   1.388   2.181   5.670  0.2083 -0.0154 -0.5005
  402MOL0     C52969   1.331   2.314   5.725 -0.8625 -0.1836  0.7899
  402MOL0     C52970   1.176   2.323   5.739 -0.4512  0.7832 -0.4093
  402MOL0     C52971   1.094   2.298   5.616 -0.6428 -1.0224 -0.3637
  402MOL0     C52972   0.947   2.267   5.653 -0.4565 -0.1102 -0.5948
  402MOL0     C52973   0.873   2.264   5.527 -0.2485  0.1270  0.9919
  402MOL0     C52974   0.718   2.253   5.543 -0.6051 -0.5382  0.8591
  402MOL0     C52975   0.657   2.186   5.422 -0.2216  0.7932  0.4722
  402MOL0    Cl52976   0.676   2.268   5.260  0.2678 -0.2781 -0.5536
  402MOL0     C52977   1.539   1.982   5.524 -1.1864  0.2360  0.3198
  402MOL0     C52978   1.608   1.869   5.483 -0.1677 -0.4458  0.2740
  402MOL0     O52979   1.884   1.837   5.303 -1.1453  0.0760 -0.8593
  402MOL0     C52980   1.996   1.597   5.190 -0.7810 -0.1134 -0.8401
  402MOL0     C52981   2.051   1.477   5.151 -0.5274  0.2171 -0.1173
  402MOL0     N52982   2.163   0.994   4.619 -0.2807  0.2343 -0.1969
  402MOL0     N52983   2.087   1.004   4.514  0.4171 -0.0445  0.0874
  402MOL0     C52984   1.630   0.847   3.960 -0.1393 -0.0450  0.2083
  402MOL0     C52985   1.729   0.822   3.858 -1.2937  0.4855 -0.2780
  402MOL0     C52986   2.029   0.913   3.516 -0.4824  0.3469 -0.1348
  402MOL0     C52987   2.042   0.786   3.456 -0.9280 -0.3636  0.1326
  402MOL0     C52988   2.144   0.752   3.368 -0.8701  0.0623  0.7231
  402MOL0     C52989   2.235   0.855   3.337 -0.1240 -0.1628 -0.7375
  402MOL0     O52990   2.339   0.831   3.255 -0.3586 -0.0654  1.2577
  402MOL0     C52991   2.440   0.927   3.232 -0.4090 -0.2123 -0.6951
  402MOL0     C52992   2.522   0.852   3.124 -0.3811  0.7072  0.2659
  402MOL0     C52993   2.606   0.945   3.035 -0.4693  0.5180  0.0328
  402MOL0     C52994   2.675   0.874   2.926  1.1122  0.4798 -0.4823
  402MOL0     C52995   2.787   0.791   2.982 -1.1170 -0.5890 -0.5620
  402MOL0     C52996   2.882   0.725   3.023  1.1065 -1.0771 -0.3665
  402MOL0     C52997   2.214   0.981   3.377 -0.1369  0.2433 -1.0816
  402MOL0     C52998   2.122   1.007   3.475  0.5872  0.5715  0.4118
  402MOL0     H52999   1.633   1.045   3.619  1.2257  1.6390 -0.1270
  402MOL0     H53000   1.453   1.078   3.778  0.6214  0.3650 -1.7224
  402MOL0     H53001   1.254   1.048   3.972 -0.9193 -0.7581  4.0880
  402MOL0     H53002   1.406   1.159   3.979 -1.2557  1.8886  1.0326
  402MOL0     H53003   1.220   1.057   4.208 -0.9488  2.1770  2.5116
  402MOL0     H53004   1.250   1.225   4.145  1.9329 -0.0512  2.0860
  402MOL0     H53005   1.381   1.229   4.323  1.0006  0.7975 -0.0701
  402MOL0     H53006   1.490   1.166   4.203 -1.1994 -2.6003 -2.4512
  402MOL0     H53007   1.335   0.974   4.379 -0.3024 -0.7501 -0.3615
  402MOL0     H53008   1.466   0.934   4.272 -1.6681 -1.1101 -0.0323
  402MOL0     H53009   1.552   0.949   4.504  1.8483 -0.6332 -2.1272
  402MOL0     H53010   1.507   1.111   4.530  2.0554  0.7559 -0.7407
  402MOL0     H53011   1.658   1.192   4.360  3.2051  0.8767  2.4595
  402MOL0     H53012   1.688   1.018   4.309 -0.9942  2.0741 -2.3959
  402MOL0     H53013   1.739   1.086   4.588 -0.9989 -0.5340  0.2005
  402MOL0     H53014   1.813   0.966   4.471  0.3746  0.3128  0.5796
  402MOL0     H53015   1.881   1.263   4.455  0.8081  0.8611  2.0543
  402MOL0     H53016   1.941   1.116   4.352  0.5439 -3.7621  2.1547
  402MOL0     H53017   2.011   1.267   4.704 -0.4109  0.1766  0.1261
  402MOL0     H53018   2.212   1.222   4.860 -0.7667 -0.8431  2.5636
  402MOL0     H53019   2.328   1.099   4.802 -0.4342  0.6953 -0.8214
  402MOL0     H53020   2.195   0.929   4.927  0.4667  0.1672 -3.8056
  402MOL0     H53021   2.067   1.044   4.969  0.3321 -0.9933  0.8876
  402MOL0     H53022   2.198   1.001   5.163  0.5280 -0.7804  0.1825
  402MOL0     H53023   2.336   1.062   5.088 -0.4622 -3.8559  1.2641
  402MOL0     H53024   2.199   1.281   5.038  3.3263 -0.5694  0.2885
  402MOL0     H53025   2.261   1.245   5.197  0.1549 -0.4339  0.4713
  402MOL0     H53026   1.845   1.280   5.338 -1.0719  0.2700 -1.1162
  402MOL0     H53027   1.764   1.493   5.413  0.7154  3.5613  0.7406
  402MOL0     H53028   1.903   1.889   5.648  0.0451 -0.7263 -1.5373
  402MOL0     H53029   1.766   2.074   5.763 -0.6545 -0.4218  1.2922
  402MOL0     H53030   1.344   2.102   5.732  2.7832 -1.9569 -0.9616
  402MOL0     H53031   1.346   2.186   5.569 -1.2754  0.3310  0.1053
  402MOL0     H53032   1.364   2.391   5.654  0.1411 -1.7100 -0.5006
  402MOL0     H53033   1.373   2.341   5.822 -3.4695  0.5490  1.7718
  402MOL0     H53034   1.156   2.422   5.780  1.7694  1.4440 -0.7580
  402MOL0     H53035   1.157   2.244   5.812  2.2740 -0.2408 -0.6718
  402MOL0     H53036   1.098   2.387   5.553 -1.6856 -0.8189 -0.1638
  402MOL0     H53037   1.137   2.221   5.552  0.4742  0.3358 -1.2971
  402MOL0     H53038   0.909   2.349   5.713  0.9929 -0.7705  1.3193
  402MOL0     H53039   0.938   2.178   5.716 -2.9089  1.2287  1.0899
  402MOL0     H53040   0.917   2.192   5.458 -0.7550 -1.8314  2.6274
  402MOL0     H53041   0.891   2.359   5.476  5.2136 -1.8060 -1.4429
  402MOL0     H53042   0.701   2.202   5.638 -0.6632  0.4800  1.4104
  402MOL0     H53043   0.683   2.357   5.543  1.1757  0.2577 -3.1058
  402MOL0     H53044   0.550   2.168   5.431  0.3937 -2.9089  2.3597
  402MOL0     H53045   0.693   2.083   5.418  0.5565  1.0617  0.3723
  402MOL0     H53046   1.440   2.008   5.489 -0.1520  3.0590 -0.8561
  402MOL0     H53047   1.568   1.812   5.399 -1.0551  0.5049  0.0254
  402MOL0     H53048   2.048   1.687   5.158  1.7752  0.5757  4.1570
  402MOL0     H53049   2.131   1.495   5.080 -1.6846 -1.1214 -1.8514
  402MOL0     H53050   1.620   0.786   4.050 -0.0366 -1.5752 -0.7849
  402MOL0     H53051   1.794   0.741   3.888 -3.9958 -0.1075  5.2937
  402MOL0     H53052   1.978   0.702   3.482  0.4853 -1.1186  1.3724
  402MOL0     H53053   2.153   0.656   3.319 -0.5445 -0.6172  2.0532
  402MOL0     H53054   2.496   0.947   3.324  0.0504 -0.6529 -0.8755
  402MOL0     H53055   2.400   1.021   3.193  2.6631  0.6673 -2.0521
  402MOL0     H53056   2.595   0.786   3.173 -0.1898  0.3883 -0.4374
  402MOL0     H53057   2.461   0.787   3.061 -0.5902  0.9578  0.2061
  402MOL0     H53058   2.674   0.999   3.102  0.8958  0.7343 -1.4454
  402MOL0     H53059   2.543   1.020   2.987  1.1741  2.1918  0.3905
  402MOL0     H53060   2.617   0.803   2.866 -1.5953  2.3003 -0.1980
  402MOL0     H53061   2.722   0.947   2.859  1.3120  0.1950 -0.6564
  402MOL0     H53062   2.957   0.666   3.071  1.6321  0.0743  0.2507
  402MOL0     H53063   2.286   1.062   3.367  1.3873 -0.7535  1.0551
  402MOL0     H53064   2.127   1.097   3.536  0.1009  1.0683 -0.2578
  403MOL0     O53065   9.566   5.032   9.846  0.2933 -0.3144 -0.0793
  403MOL0     C53066   9.663   5.072   9.775 -0.1878  0.4905 -0.8312
  403MOL0     O53067   9.779   5.001   9.751  0.3984  0.5931 -0.0014
  403MOL0     C53068   9.815   4.880   9.815 -0.4345 -0.5945  0.1087
  403MOL0     C53069   9.726   4.781   9.855 -0.6036  0.9756  0.1515
  403MOL0     C53070   9.794   4.669   9.927  0.5518  0.6179  0.7183
  403MOL0     C53071   9.928   4.659   9.953  1.3023 -1.1009  0.1552
  403MOL0     O53072   9.985   4.552  10.013 -0.6122 -0.5381 -0.3562
  403MOL0     C53073   9.928   4.422  10.023 -0.1408  0.3674  0.6517
  403MOL0     C53074  10.037   4.334  10.085  0.4972  0.6577 -0.3790
  403MOL0     C53075   9.987   4.188  10.070 -0.3906  0.8658  0.2891
  403MOL0     C53076  10.062   4.091  10.167 -1.2850  0.4931 -0.4832
  403MOL0     C53077  10.205   4.091  10.111  0.5963  0.3062  0.6380
  403MOL0     C53078  10.301   4.000  10.200  0.0990 -0.7414 -0.6521
  403MOL0     C53079  10.239   3.864  10.229  0.2489  0.2825  0.3883
  403MOL0     C53080  10.322   3.785  10.329 -0.0550  1.2670  0.5550
  403MOL0     N53081  10.414   3.698  10.245 -0.4786  0.1032  0.5403
  403MOL0     C53082  10.375   3.582  10.181 -0.7739  0.1844 -0.6681
  403MOL0     C53083  10.487   3.530  10.120 -0.5475  0.2970  0.6184
  403MOL0     C53084  10.484   3.391  10.046 -0.5368 -0.0341  0.2342
  403MOL0     C53085  10.534   3.382   9.899  0.4332  0.4420 -0.9034
  403MOL0     C53086  10.570   3.241   9.845  0.4028  0.2132  0.0875
  403MOL0     C53087  10.459   3.184   9.759  0.2729  0.4780  0.4996
  403MOL0     O53088  10.470   3.039   9.750  0.4134 -0.3181 -0.2261
  403MOL0     C53089  10.541   2.975   9.650 -0.2206 -0.5446  0.4465
  403MOL0     C53090  10.623   3.054   9.564  0.3423 -0.0408 -0.3560
  403MOL0     C53091  10.686   2.981   9.466  1.4473 -0.4074  0.1137
  403MOL0     C53092  10.668   2.850   9.443 -0.0819 -0.3478  0.7639
  403MOL0     C53093  10.735   2.787   9.328 -0.1382  0.2368 -0.5484
  403MOL0     O53094  10.685   2.666   9.277 -0.5290 -0.0040  0.2972
  403MOL0     C53095  10.746   2.597   9.178 -0.2112  0.0452 -0.4955
  403MOL0     C53096  10.808   2.660   9.063 -0.2864 -0.6617 -0.9165
  403MOL0     C53097  10.844   2.593   8.955 -0.5678  0.0349  0.4091
  403MOL0     C53098  10.847   2.452   8.956  0.1442  0.4772 -0.4218
  403MOL0     O53099  10.902   2.374   8.857 -0.1354 -0.6382  0.1550
  403MOL0     C53100  10.968   2.253   8.886 -0.0673  0.0436  0.2038
  403MOL0     C53101  11.083   2.223   8.801 -0.4722 -0.7205 -0.0228
  403MOL0     C53102  11.050   2.244   8.654 -0.9035 -0.9210 -0.4422
  403MOL0     C53103  11.140   2.181   8.547  0.3338 -0.8009 -0.3577
  403MOL0     C53104  11.105   2.230   8.405 -0.0510  0.6252 -0.0578
  403MOL0     C53105  11.212   2.171   8.312 -0.0655 -0.0341 -0.3853
  403MOL0     C53106  11.212   2.229   8.168  1.1037 -1.0256  0.4648
  403MOL0     C53107  11.309   2.148   8.070  0.7310  0.6448 -0.4934
  403MOL0    Cl53108  11.481   2.191   8.072 -0.1397  0.5500 -0.1998
  403MOL0     C53109  10.807   2.385   9.076 -0.2377  0.7143 -0.6288
  403MOL0     C53110  10.742   2.453   9.180 -0.8037  1.0158  0.0889
  403MOL0     O53111  10.841   2.839   9.296  0.5673 -0.3239 -0.0556
  403MOL0     C53112  10.586   2.773   9.519  0.9306 -0.7539  0.2162
  403MOL0     C53113  10.527   2.840   9.626  0.2500  0.7634 -0.1365
  403MOL0     N53114  10.588   3.617  10.140 -0.9409 -0.7259 -1.2073
  403MOL0     N53115  10.544   3.721  10.219  0.3354 -0.1428 -0.6904
  403MOL0     C53116  10.005   4.760   9.900 -0.3068  0.0923 -1.3370
  403MOL0     C53117   9.949   4.861   9.825 -0.2065  0.2814 -0.2940
  403MOL0     C53118   9.637   5.202   9.713 -0.0916 -0.5225 -0.1320
  403MOL0     C53119   9.710   5.242   9.595  0.4420  0.8621  0.6478
  403MOL0     C53120   9.678   5.362   9.526 -0.0025  0.1113  0.4029
  403MOL0     C53121   9.591   5.454   9.575  0.6015  0.2988 -0.7128
  403MOL0     O53122   9.565   5.578   9.515  0.0111  0.5991 -0.7214
  403MOL0     C53123   9.507   5.674   9.599  0.0403 -0.1148  0.8749
  403MOL0     C53124   9.507   5.801   9.515 -0.3887 -0.2752  0.4893
  403MOL0     C53125   9.426   5.923   9.577  0.0741 -0.0998  0.4965
  403MOL0     C53126   9.283   5.935   9.503 -0.2728  0.3423 -0.1637
  403MOL0     C53127   9.187   6.026   9.572 -0.1427  0.8013  0.0603
  403MOL0     C53128   9.117   6.109   9.629 -0.3928  0.2228  0.3524
  403MOL0     C53129   9.509   5.411   9.686 -0.4186 -1.0537  0.0690
  403MOL0     C53130   9.529   5.284   9.744 -0.2351  0.3185 -0.7713
  403MOL0     H53131   9.619   4.782   9.841 -0.2408  1.6791 -3.5755
  403MOL0     H53132   9.736   4.589   9.971  2.5998 -0.8334  0.9041
  403MOL0     H53133   9.911   4.387   9.921 -1.8624  0.4684  0.8831
  403MOL0     H53134   9.832   4.425  10.075 -0.7336  0.8051 -0.4478
  403MOL0     H53135  10.052   4.357  10.191 -1.0833 -1.2054  0.3083
  403MOL0     H53136  10.124   4.348  10.019  0.3751 -0.8160 -0.9001
  403MOL0     H53137   9.977   4.144   9.970  0.3249  0.6021  0.3268
  403MOL0     H53138   9.884   4.179  10.106 -1.1744  0.2694 -1.9321
  403MOL0     H53139  10.045   4.115  10.273  2.3427 -1.1793  0.6681
  403MOL0     H53140  10.025   3.992  10.139 -3.0122  0.5253  1.4510
  403MOL0     H53141  10.242   4.192  10.097  2.4131 -0.4693 -0.4127
  403MOL0     H53142  10.199   4.040  10.015 -3.4836  1.0399  0.3161
  403MOL0     H53143  10.319   4.060  10.289 -0.0395  2.0920 -2.4255
  403MOL0     H53144  10.396   3.991  10.147 -0.9262  1.2590 -3.0437
  403MOL0     H53145  10.141   3.880  10.276  0.6651  0.9185  1.0712
  403MOL0     H53146  10.217   3.798  10.145  1.6816 -1.2283  1.1397
  403MOL0     H53147  10.258   3.725  10.394  0.9936  0.7927  1.1731
  403MOL0     H53148  10.370   3.848  10.404 -1.0165  1.6155  0.8868
  403MOL0     H53149  10.276   3.538  10.181 -2.4245  3.4350  2.2188
  403MOL0     H53150  10.381   3.355  10.046 -0.4361 -0.3441 -0.3642
  403MOL0     H53151  10.536   3.317  10.107 -3.1341 -2.9114 -0.8074
  403MOL0     H53152  10.630   3.433   9.912  1.5110 -1.7016  0.1800
  403MOL0     H53153  10.461   3.435   9.836  1.4871  0.1955 -2.3791
  403MOL0     H53154  10.657   3.255   9.781 -0.7763 -0.2677 -1.6955
  403MOL0     H53155  10.591   3.165   9.921  0.9692 -1.4770 -1.6892
  403MOL0     H53156  10.462   3.222   9.656 -1.6172 -1.9709 -0.5851
  403MOL0     H53157  10.362   3.200   9.807 -1.9266  0.5354 -3.4955
  403MOL0     H53158  10.627   3.162   9.575 -0.7787  0.1142 -1.2443
  403MOL0     H53159  10.752   3.034   9.398  1.6647  1.0100  1.4011
  403MOL0     H53160  10.796   2.768   9.063  1.2669 -0.4056  1.5688
  403MOL0     H53161  10.882   2.639   8.864  0.7380  0.7478  1.2812
  403MOL0     H53162  10.893   2.176   8.867 -0.0598 -0.3495  1.6153
  403MOL0     H53163  10.995   2.258   8.992 -0.6352  1.6269  0.3049
  403MOL0     H53164  11.110   2.119   8.822  1.8521 -0.5167 -1.6623
  403MOL0     H53165  11.171   2.280   8.831 -1.2332  1.2873 -1.3995
  403MOL0     H53166  11.057   2.352   8.644 -0.3476 -0.9488 -0.3733
  403MOL0     H53167  10.946   2.210   8.651 -0.4755 -2.2032 -2.1076
  403MOL0     H53168  11.244   2.210   8.565  0.1751  2.0962 -3.0995
  403MOL0     H53169  11.132   2.072   8.556 -1.9097 -0.6376  0.2340
  403MOL0     H53170  11.100   2.339   8.401 -1.7756  0.5956  0.4577
  403MOL0     H53171  11.000   2.206   8.389  0.0474  0.7339 -0.8794
  403MOL0     H53172  11.196   2.063   8.304 -3.0110  0.2280  0.6211
  403MOL0     H53173  11.315   2.178   8.347  0.0631 -1.2954 -0.4468
  403MOL0     H53174  11.111   2.202   8.136  1.5965 -2.2319 -0.1434
  403MOL0     H53175  11.218   2.338   8.171 -1.5412 -0.8371  1.2223
  403MOL0     H53176  11.271   2.162   7.968  3.6735  3.3141 -1.3833
  403MOL0     H53177  11.300   2.042   8.096 -2.2167  0.4122 -2.0098
  403MOL0     H53178  10.801   2.278   9.094 -0.4332  0.6055 -1.3100
  403MOL0     H53179  10.692   2.398   9.258  2.3558 -1.2236  0.7432
  403MOL0     H53180  10.565   2.668   9.503  1.1166 -0.9588  1.2213
  403MOL0     H53181  10.450   2.788   9.682 -0.9275  0.0794 -2.2916
  403MOL0     H53182  10.111   4.758   9.922  0.0969  1.4419 -2.9542
  403MOL0     H53183  10.015   4.937   9.784  2.3392 -0.3843  2.2647
  403MOL0     H53184   9.784   5.171   9.561  1.5858  0.3328  3.9248
  403MOL0     H53185   9.725   5.393   9.433  0.3351 -0.3326  0.4251
  403MOL0     H53186   9.562   5.697   9.690  0.2963  0.7898  0.5067
  403MOL0     H53187   9.403   5.650   9.624  0.3089 -2.8256 -0.3205
  403MOL0     H53188   9.611   5.835   9.510 -1.2660  3.3895  2.9830
  403MOL0     H53189   9.478   5.775   9.412 -1.3464  0.9820  0.4190
  403MOL0     H53190   9.478   6.019   9.568 -0.5338  0.1162 -1.2112
  403MOL0     H53191   9.414   5.899   9.683  0.1571  1.9456  1.0081
  403MOL0     H53192   9.309   5.979   9.407 -0.2825  0.9293  0.1002
  403MOL0     H53193   9.235   5.836   9.499 -0.2701 -0.0481  4.3730
  403MOL0     H53194   9.063   6.177   9.691  0.6497  0.8029  0.6514
  403MOL0     H53195   9.416   5.463   9.707  1.0647  1.2171  1.4025
  403MOL0     H53196   9.463   5.260   9.828  1.9032 -0.0816  0.8867
  404MOL0     O53197   2.231   1.639   3.392 -1.0313 -0.2587  0.7050
  404MOL0     C53198   2.265   1.730   3.314  0.6163 -0.2017  0.1961
  404MOL0     O53199   2.374   1.808   3.331 -0.1236  0.9485 -0.6382
  404MOL0     C53200   2.462   1.783   3.429 -0.8228  0.1446 -0.1876
  404MOL0     C53201   2.446   1.855   3.548  0.5508 -0.1294 -0.2399
  404MOL0     C53202   2.518   1.826   3.665 -0.6135 -0.9495  0.0886
  404MOL0     C53203   2.612   1.727   3.670 -0.0833  0.9088 -0.4123
  404MOL0     O53204   2.655   1.678   3.794 -1.0743 -0.1097  1.1424
  404MOL0     C53205   2.772   1.746   3.841 -0.8476 -0.0105 -0.3345
  404MOL0     C53206   2.758   1.742   3.986 -0.7413 -0.2214  0.8817
  404MOL0     C53207   2.661   1.850   4.049 -0.3003 -0.4087 -1.0231
  404MOL0     C53208   2.636   1.827   4.194  0.0208  1.5000 -0.7540
  404MOL0     C53209   2.523   1.925   4.249 -0.3758  0.2962  0.4219
  404MOL0     C53210   2.478   1.887   4.394 -0.1385 -0.1925  0.0691
  404MOL0     C53211   2.378   1.983   4.464  0.3313  0.3831 -0.3537
  404MOL0     C53212   2.365   1.939   4.610 -1.0266  1.2661 -1.5773
  404MOL0     N53213   2.278   2.022   4.697 -0.3543 -0.9548  0.0931
  404MOL0     C53214   2.309   2.144   4.751  0.4574  0.1605 -0.2683
  404MOL0     C53215   2.205   2.178   4.834 -0.3238  0.3628  0.0706
  404MOL0     C53216   2.194   2.303   4.921  0.0727  0.1040  0.4954
  404MOL0     C53217   2.200   2.239   5.065 -0.2853  0.7852  1.4819
  404MOL0     C53218   2.336   2.210   5.124 -1.8283  0.1038  0.5526
  404MOL0     C53219   2.423   2.109   5.047 -0.3337  0.2292 -0.6521
  404MOL0     O53220   2.525   2.163   4.966 -0.2861  0.1621 -0.4236
  404MOL0     C53221   2.602   2.080   4.888 -0.8810  0.6258  0.5706
  404MOL0     C53222   2.625   1.942   4.911 -0.0412 -1.2960 -0.1706
  404MOL0     C53223   2.684   1.859   4.813  0.5987 -0.7618  0.2987
  404MOL0     C53224   2.734   1.915   4.694  0.0157  0.7433  0.2738
  404MOL0     C53225   2.794   1.819   4.601 -0.0946 -0.6581  0.4409
  404MOL0     O53226   2.751   1.695   4.608  0.8006 -0.4806 -0.1850
  404MOL0     C53227   2.786   1.598   4.519 -0.0987  0.4813  0.3549
  404MOL0     C53228   2.914   1.561   4.508 -0.8776  0.1093  0.3605
  404MOL0     C53229   2.955   1.452   4.438  0.2546 -0.9668  0.4908
  404MOL0     C53230   2.864   1.384   4.360  0.2697  1.4149  0.1688
  404MOL0     O53231   2.908   1.267   4.305  0.0506  0.2480 -0.8152
  404MOL0     C53232   2.850   1.208   4.187 -0.1904  0.1070 -0.1757
  404MOL0     C53233   2.908   1.281   4.057 -0.1981  0.5921 -0.6759
  404MOL0     C53234   2.873   1.216   3.927 -0.3398 -0.1152 -0.3757
  404MOL0     C53235   2.970   1.283   3.830  0.2425  0.5902  0.1241
  404MOL0     C53236   2.943   1.245   3.688  0.9896  0.1085 -0.3773
  404MOL0     C53237   3.032   1.325   3.602  0.7154  0.5918 -0.0693
  404MOL0     C53238   3.017   1.305   3.454  0.0391 -0.5013 -0.9101
  404MOL0     C53239   3.137   1.354   3.370  0.3341  0.5702 -0.4269
  404MOL0    Cl53240   3.288   1.273   3.411  0.0643 -0.2653  0.0245
  404MOL0     C53241   2.737   1.433   4.337  0.9983 -0.4663 -0.6398
  404MOL0     C53242   2.690   1.538   4.429  0.1229 -0.4054  0.1601
  404MOL0     O53243   2.867   1.865   4.518 -0.3496 -1.0594  0.3394
  404MOL0     C53244   2.728   2.055   4.668 -0.9311 -0.1556  0.0874
  404MOL0     C53245   2.657   2.130   4.769  0.6684  0.3859 -0.2156
  404MOL0     N53246   2.119   2.064   4.829  0.6248  0.1412 -0.0989
  404MOL0     N53247   2.161   1.978   4.737  0.3096  0.0290 -1.0977
  404MOL0     C53248   2.652   1.667   3.541  0.9130  1.1528 -0.4900
  404MOL0     C53249   2.567   1.695   3.429 -0.5006 -0.6695  0.6405
  404MOL0     C53250   2.174   1.751   3.197 -0.0790  0.2202 -0.6056
  404MOL0     C53251   2.142   1.654   3.109 -0.0870  1.4376 -0.1219
  404MOL0     C53252   2.065   1.677   2.990 -1.4447 -0.1522 -0.3536
  404MOL0     C53253   2.016   1.807   2.966  0.7023 -1.3465 -0.6985
  404MOL0     O53254   1.934   1.837   2.856 -0.2821  0.3975 -0.0738
  404MOL0     C53255   1.825   1.924   2.889  0.1452 -0.7697  0.7765
  404MOL0     C53256   1.736   1.917   2.754  0.1667 -0.3201 -0.4496
  404MOL0     C53257   1.811   1.999   2.635  0.4781  0.0813  0.0541
  404MOL0     C53258   1.857   2.134   2.667  0.3579 -0.3756  0.2354
  404MOL0     C53259   1.875   2.205   2.541  0.7708 -0.7462  0.2886
  404MOL0     C53260   1.894   2.270   2.445  0.7873 -0.0691  0.2321
  404MOL0     C53261   2.053   1.912   3.059 -0.1394  0.6868  0.2466
  404MOL0     C53262   2.118   1.881   3.177 -0.5020 -0.2577  0.4679
  404MOL0     H53263   2.360   1.921   3.551  2.1524  2.0821 -0.0958
  404MOL0     H53264   2.488   1.873   3.758  0.5433  0.2231 -0.0902
  404MOL0     H53265   2.780   1.850   3.808  1.1385 -0.6523 -2.1580
  404MOL0     H53266   2.856   1.684   3.805 -1.5883 -1.1551 -0.1408
  404MOL0     H53267   2.862   1.753   4.018 -0.3473 -1.4123  0.1143
  404MOL0     H53268   2.721   1.642   4.010 -1.2945  0.2355  1.9748
  404MOL0     H53269   2.567   1.832   3.997 -1.6060  2.8379  0.0103
  404MOL0     H53270   2.697   1.951   4.032  1.6700 -0.3679  2.2970
  404MOL0     H53271   2.598   1.725   4.206  3.7313 -0.4548 -3.5423
  404MOL0     H53272   2.726   1.828   4.256 -1.3400  3.3430  1.3302
  404MOL0     H53273   2.433   1.913   4.187 -0.1482 -3.4122  0.5540
  404MOL0     H53274   2.573   2.022   4.254  0.4374  0.0549 -1.7908
  404MOL0     H53275   2.558   1.859   4.462 -0.3280  0.1493  0.4369
  404MOL0     H53276   2.407   1.806   4.371  0.6198 -1.3561  1.5953
  404MOL0     H53277   2.412   2.087   4.474  0.4037  0.3306 -0.0278
  404MOL0     H53278   2.280   1.984   4.415  1.4596 -1.2221 -2.8527
  404MOL0     H53279   2.464   1.950   4.656 -1.3712  2.7032 -1.1040
  404MOL0     H53280   2.342   1.833   4.617  0.7594  0.8285 -1.7796
  404MOL0     H53281   2.395   2.207   4.732  1.4241 -0.4006  1.9159
  404MOL0     H53282   2.101   2.359   4.908  0.8469  1.2672 -0.1667
  404MOL0     H53283   2.280   2.363   4.892 -0.1553  1.0324  1.6467
  404MOL0     H53284   2.141   2.148   5.077 -0.6308  0.9484  1.0605
  404MOL0     H53285   2.151   2.312   5.131 -0.9885 -1.4327  3.5351
  404MOL0     H53286   2.394   2.302   5.133 -0.8863 -0.5001  0.7869
  404MOL0     H53287   2.308   2.173   5.223 -0.0213 -0.6415  0.8106
  404MOL0     H53288   2.352   2.052   4.987  0.9615 -1.8658 -0.3262
  404MOL0     H53289   2.457   2.038   5.123  4.0197  0.2747 -2.2684
  404MOL0     H53290   2.606   1.901   5.009  1.4065  2.4497  1.8953
  404MOL0     H53291   2.696   1.751   4.820 -1.4141 -1.1780 -1.5729
  404MOL0     H53292   2.984   1.617   4.570 -0.1562  0.5417 -0.8142
  404MOL0     H53293   3.057   1.416   4.450 -0.1153 -1.4123  2.6869
  404MOL0     H53294   2.741   1.212   4.198 -0.0534  1.8959  1.0844
  404MOL0     H53295   2.881   1.104   4.177  1.3456  0.6452 -1.5741
  404MOL0     H53296   3.017   1.281   4.071 -0.2554  2.2975  0.0027
  404MOL0     H53297   2.862   1.380   4.065  1.4432  1.4107 -0.7960
  404MOL0     H53298   2.768   1.238   3.905 -0.5533 -0.0738  0.6194
  404MOL0     H53299   2.874   1.107   3.926  0.7892 -0.1170 -1.8174
  404MOL0     H53300   2.952   1.390   3.846  0.2472  0.5254  0.5919
  404MOL0     H53301   3.073   1.262   3.859 -0.3776 -0.9625  1.4037
  404MOL0     H53302   2.836   1.261   3.677  1.1257  1.4432  0.0623
  404MOL0     H53303   2.948   1.138   3.669  0.1771  0.2202 -1.3029
  404MOL0     H53304   3.129   1.294   3.641  1.0352  2.4676  0.7748
  404MOL0     H53305   3.008   1.427   3.634  1.3800  0.5335  0.6525
  404MOL0     H53306   2.997   1.199   3.434 -2.2748 -0.2954  0.0045
  404MOL0     H53307   2.920   1.348   3.424 -0.2769  0.1564  0.9265
  404MOL0     H53308   3.152   1.463   3.371 -3.2043  1.1637 -0.0307
  404MOL0     H53309   3.113   1.332   3.266 -1.4992 -0.9162  0.2547
  404MOL0     H53310   2.666   1.399   4.262  0.5767 -2.2724  0.5038
  404MOL0     H53311   2.588   1.576   4.423 -0.1364 -0.4671  2.9103
  404MOL0     H53312   2.746   2.107   4.575 -2.1529 -4.2034 -2.6845
  404MOL0     H53313   2.644   2.236   4.748 -2.0025 -0.0530 -1.2466
  404MOL0     H53314   2.722   1.584   3.539  1.2961  1.4594  0.0279
  404MOL0     H53315   2.586   1.650   3.333 -2.3198  1.7629 -0.9893
  404MOL0     H53316   2.188   1.559   3.138 -0.9324  0.4190 -1.9597
  404MOL0     H53317   2.039   1.599   2.919  2.8260 -0.6069 -1.6743
  404MOL0     H53318   1.847   2.029   2.908  1.6521 -0.4219 -2.2798
  404MOL0     H53319   1.768   1.879   2.971  0.3243 -1.6108  0.4568
  404MOL0     H53320   1.731   1.813   2.721 -0.7508  0.1762 -1.9820
  404MOL0     H53321   1.633   1.953   2.761 -0.3743 -2.0515  1.3111
  404MOL0     H53322   1.749   1.998   2.546 -0.4783 -0.7130  0.7124
  404MOL0     H53323   1.903   1.943   2.613 -1.6503 -2.8509 -2.1071
  404MOL0     H53324   1.781   2.175   2.734 -1.0906 -0.1736 -1.4458
  404MOL0     H53325   1.955   2.122   2.714  2.1451  2.5716 -2.3108
  404MOL0     H53326   1.923   2.336   2.366 -0.7199  4.0419  2.7849
  404MOL0     H53327   2.016   2.013   3.042  0.7084  0.8984 -0.3644
  404MOL0     H53328   2.145   1.963   3.243  3.0499  0.5626 -1.7317
  405MOL0     O53329   3.504  10.511   5.597 -0.1298  0.6680 -0.4960
  405MOL0     C53330   3.478  10.602   5.518 -0.1260 -0.7300  1.0235
  405MOL0     O53331   3.551  10.636   5.397  0.2998 -0.1948  0.1771
  405MOL0     C53332   3.644  10.552   5.359  0.4296  0.2099  0.1842
  405MOL0     C53333   3.777  10.581   5.395  0.1516  1.0080 -0.0901
  405MOL0     C53334   3.874  10.512   5.325  0.0028 -0.3562 -0.2331
  405MOL0     C53335   3.844  10.417   5.234  0.9073  0.4865 -0.3933
  405MOL0     O53336   3.943  10.363   5.158  0.5619  0.3915  0.0401
  405MOL0     C53337   4.083  10.356   5.202  0.4493  0.2811 -0.2372
  405MOL0     C53338   4.090  10.286   5.331  0.7382  0.3219 -0.2802
  405MOL0     C53339   4.224  10.307   5.410  0.5588  0.2850 -0.2250
  405MOL0     C53340   4.205  10.250   5.555  0.4441 -0.7230 -0.5462
  405MOL0     C53341   4.328  10.270   5.643 -0.3788 -0.5563 -0.7326
  405MOL0     C53342   4.386  10.416   5.657  0.4828 -0.4125 -0.1398
  405MOL0     C53343   4.502  10.418   5.749 -0.6562  0.4536 -0.0861
  405MOL0     C53344   4.553  10.563   5.772  0.1653  1.0163 -0.6031
  405MOL0     N53345   4.687  10.563   5.819 -0.0352  0.9897  0.1662
  405MOL0     C53346   4.735  10.493   5.927 -0.1808 -0.3462  0.0661
  405MOL0     C53347   4.859  10.539   5.939  0.3048 -1.5017  0.6260
  405MOL0     C53348   4.951  10.500   6.049 -0.0847  0.1279  0.1451
  405MOL0     C53349   4.987  10.345   6.040 -0.9083 -1.2948  0.3596
  405MOL0     C53350   5.087  10.312   5.927  0.5106  0.0360  0.1681
  405MOL0     C53351   5.102  10.154   5.914 -0.6522  0.3196  0.3349
  405MOL0     O53352   4.981  10.083   5.875  0.1529  0.4094 -0.4303
  405MOL0     C53353   4.928  10.093   5.749  0.6658 -0.2231 -0.5064
  405MOL0     C53354   5.012  10.130   5.638 -0.2283  0.4040  1.0124
  405MOL0     C53355   4.960  10.145   5.514 -0.3458 -1.8204  0.0711
  405MOL0     C53356   4.819  10.146   5.492  0.0758 -0.5522 -0.0909
  405MOL0     C53357   4.740  10.143   5.361 -0.3660 -0.1797 -0.6124
  405MOL0     O53358   4.802  10.206   5.252 -0.7838 -0.1277  0.0066
  405MOL0     C53359   4.721  10.227   5.135  0.3319  0.0426 -0.1587
  405MOL0     C53360   4.645  10.337   5.121  1.3197  0.1819 -0.6994
  405MOL0     C53361   4.589  10.374   5.000  0.6197  0.3317  0.0073
  405MOL0     C53362   4.591  10.289   4.890  0.3179 -0.0559 -0.5399
  405MOL0     O53363   4.519  10.322   4.776  0.1633  0.6520 -0.3309
  405MOL0     C53364   4.439  10.224   4.707 -0.1860  0.3564 -0.0951
  405MOL0     C53365   4.308  10.309   4.676  0.1984 -0.8294  0.0791
  405MOL0     C53366   4.221  10.219   4.587 -0.7878 -0.0862 -0.1698
  405MOL0     C53367   4.072  10.264   4.560 -0.1456  1.0344  0.4524
  405MOL0     C53368   3.988  10.149   4.513  0.4928 -0.0165 -0.7869
  405MOL0     C53369   3.843  10.199   4.519  0.1706  0.9477 -0.3507
  405MOL0     C53370   3.799  10.209   4.672 -0.4150  0.1885  0.2447
  405MOL0     C53371   3.661  10.150   4.689  0.8397 -0.0755 -0.2802
  405MOL0    Cl53372   3.657   9.978   4.635  0.1996 -0.3447 -0.3430
  405MOL0     C53373   4.664  10.170   4.906 -0.2940  0.2012  0.8735
  405MOL0     C53374   4.733  10.139   5.022  0.3175  0.2122 -0.7026
  405MOL0     O53375   4.637  10.080   5.354 -0.6921  0.2698 -0.0716
  405MOL0     C53376   4.737  10.125   5.601 -0.1193  0.0686  0.3160
  405MOL0     C53377   4.790  10.094   5.726 -0.5395 -0.4022  0.4356
  405MOL0     N53378   4.885  10.632   5.847  1.1465  0.2043  1.2183
  405MOL0     N53379   4.780  10.644   5.772 -0.6263  0.3250 -0.3747
  405MOL0     C53380   3.709  10.379   5.208 -0.0216  0.4600 -0.2009
  405MOL0     C53381   3.601  10.451   5.271 -1.2197 -1.1061 -0.0289
  405MOL0     C53382   3.366  10.680   5.547  0.4570 -0.0632  0.1151
  405MOL0     C53383   3.328  10.786   5.458  0.6743 -0.6404  0.9376
  405MOL0     C53384   3.221  10.875   5.478 -0.9758 -0.5833 -0.3853
  405MOL0     C53385   3.145  10.859   5.595 -0.6800  0.0210 -0.2803
  405MOL0     O53386   3.031  10.926   5.626  0.3942 -0.1778 -0.3561
  405MOL0     C53387   2.973  11.036   5.563 -0.0670  0.5182 -0.0628
  405MOL0     C53388   2.819  11.012   5.548 -0.4596  1.5918 -0.2131
  405MOL0     C53389   2.739  11.123   5.476  0.3358  0.7306  0.4067
  405MOL0     C53390   2.588  11.089   5.470  0.2126 -0.2020 -0.3817
  405MOL0     C53391   2.524  11.135   5.597  0.3678 -0.2335  0.9308
  405MOL0     C53392   2.455  11.168   5.695 -0.0313 -0.5246  0.2023
  405MOL0     C53393   3.174  10.745   5.677 -0.6110 -0.8996  0.3996
  405MOL0     C53394   3.285  10.664   5.659 -0.6353 -0.2935  0.7440
  405MOL0     H53395   3.810  10.647   5.475  0.1240  1.0636 -0.1249
  405MOL0     H53396   3.976  10.543   5.341 -0.1894 -0.4333  1.2849
  405MOL0     H53397   4.128  10.456   5.202  0.9466  0.0568 -0.9252
  405MOL0     H53398   4.139  10.302   5.126  1.8362 -0.8620  1.5376
  405MOL0     H53399   4.088  10.179   5.308 -1.1827  0.7791 -2.6223
  405MOL0     H53400   4.003  10.309   5.394  1.3363  0.2209  0.5953
  405MOL0     H53401   4.246  10.414   5.402  0.2461  0.2326 -2.0741
  405MOL0     H53402   4.312  10.256   5.370  0.1154  1.8664 -3.5365
  405MOL0     H53403   4.126  10.304   5.608 -0.1886 -0.8946 -1.3024
  405MOL0     H53404   4.171  10.146   5.556 -5.2657  0.8205  0.1785
  405MOL0     H53405   4.405  10.214   5.589  0.6595 -0.0137  0.1534
  405MOL0     H53406   4.300  10.229   5.741 -0.9526  2.8882  0.6777
  405MOL0     H53407   4.310  10.479   5.705 -0.4052 -0.3822 -1.5391
  405MOL0     H53408   4.405  10.457   5.558 -2.4020  1.3437 -0.0709
  405MOL0     H53409   4.479  10.379   5.849  0.6303 -0.2573 -0.0550
  405MOL0     H53410   4.575  10.365   5.688 -1.7130  0.3571 -1.3134
  405MOL0     H53411   4.487  10.609   5.846 -1.4087 -0.0924 -1.2753
  405MOL0     H53412   4.554  10.610   5.672 -1.8911  1.3972 -0.4991
  405MOL0     H53413   4.684  10.428   5.997 -0.4916  0.3924  0.5351
  405MOL0     H53414   4.889  10.519   6.138  0.1026  3.7047 -0.3100
  405MOL0     H53415   5.041  10.562   6.058  2.1313 -2.5828 -1.8217
  405MOL0     H53416   4.899  10.284   6.021 -2.5909  0.6860  1.4834
  405MOL0     H53417   5.034  10.318   6.135  0.3095  1.0178  0.5078
  405MOL0     H53418   5.058  10.356   5.830  1.3055  1.3896  0.5191
  405MOL0     H53419   5.184  10.356   5.953 -0.1915  1.9265 -0.2203
  405MOL0     H53420   5.119  10.127   6.018 -1.0592 -1.2875  0.0116
  405MOL0     H53421   5.184  10.129   5.845  0.4066  2.8483  0.5883
  405MOL0     H53422   5.121  10.133   5.629 -0.3971 -0.2605 -3.6902
  405MOL0     H53423   5.020  10.168   5.426  1.0589  0.5670  1.5439
  405MOL0     H53424   4.637  10.396   5.211  1.1514  0.2159 -0.7367
  405MOL0     H53425   4.543  10.471   4.985 -1.6622 -0.7043 -0.1218
  405MOL0     H53426   4.397  10.144   4.769 -0.9892  0.7429 -0.1224
  405MOL0     H53427   4.493  10.183   4.621  1.4779 -3.3863  2.4780
  405MOL0     H53428   4.340  10.397   4.620  2.6569 -1.9685 -0.3973
  405MOL0     H53429   4.261  10.336   4.771  1.8334  0.2500  0.6289
  405MOL0     H53430   4.217  10.122   4.636 -3.2448  0.3252  0.5742
  405MOL0     H53431   4.268  10.202   4.490 -2.7457  3.4268 -1.9506
  405MOL0     H53432   4.038  10.296   4.659  0.0159 -0.1122  0.8971
  405MOL0     H53433   4.070  10.353   4.497  0.6445  0.6435 -0.1571
  405MOL0     H53434   4.013  10.068   4.581 -0.6679  2.0997  2.3992
  405MOL0     H53435   4.008  10.118   4.410 -1.8949  0.0271 -1.3160
  405MOL0     H53436   3.785  10.133   4.453  0.2476 -0.3529  0.8191
  405MOL0     H53437   3.834  10.300   4.478  3.6501  1.0319 -1.2335
  405MOL0     H53438   3.864  10.144   4.731  1.0352  0.0705 -1.3998
  405MOL0     H53439   3.818  10.311   4.708 -3.3269  0.4793  1.2123
  405MOL0     H53440   3.577  10.204   4.645  0.4551  0.0297  0.5661
  405MOL0     H53441   3.650  10.150   4.798 -3.5162  0.4860 -0.5601
  405MOL0     H53442   4.665  10.104   4.819  0.6249  0.5526  0.6137
  405MOL0     H53443   4.791  10.047   5.023 -0.2643 -0.1792  0.7863
  405MOL0     H53444   4.630  10.139   5.591  0.1026  2.7729  0.9902
  405MOL0     H53445   4.717  10.071   5.803  0.4428 -2.5431  0.7953
  405MOL0     H53446   3.689  10.295   5.143  0.6239 -1.5906  2.0839
  405MOL0     H53447   3.495  10.435   5.256 -1.6297  1.7103 -0.6645
  405MOL0     H53448   3.375  10.806   5.362 -0.0482  2.3419  1.0967
  405MOL0     H53449   3.196  10.952   5.405 -0.6394  1.5923  1.6847
  405MOL0     H53450   3.013  11.047   5.462  0.6211  1.8710  0.3342
  405MOL0     H53451   2.997  11.127   5.618  2.4192 -0.9830  1.5125
  405MOL0     H53452   2.811  10.913   5.503  2.3101  1.3584 -0.3769
  405MOL0     H53453   2.777  10.999   5.648 -1.6821 -2.4218 -1.0793
  405MOL0     H53454   2.786  11.125   5.377 -0.8137 -0.7357 -0.2002
  405MOL0     H53455   2.764  11.214   5.531  2.7644 -0.2360  1.0578
  405MOL0     H53456   2.525  11.133   5.392  0.1894  1.3345  0.4622
  405MOL0     H53457   2.569  10.981   5.464 -4.9393  0.1877  2.5546
  405MOL0     H53458   2.407  11.196   5.787 -2.5986 -4.1296  0.1456
  405MOL0     H53459   3.116  10.711   5.762 -2.3998 -4.0577 -1.8756
  405MOL0     H53460   3.305  10.578   5.722 -2.3875 -0.8371  0.5920
  406MOL0     O53461   1.052   4.896   9.841 -0.0423  0.1060  0.5709
  406MOL0     C53462   1.162   4.951   9.842  0.1245  0.2857  0.1858
  406MOL0     O53463   1.205   5.039   9.934  0.2848  0.9361 -0.1278
  406MOL0     C53464   1.156   5.072  10.058  0.1242  0.6329  0.5260
  406MOL0     C53465   1.244   5.128  10.148  0.4200 -0.7512  0.8393
  406MOL0     C53466   1.207   5.165  10.273  0.7090  0.6422 -0.6118
  406MOL0     C53467   1.070   5.156  10.317 -0.7958 -0.8561  0.5883
  406MOL0     O53468   1.042   5.189  10.445 -1.1625  0.2306 -0.0537
  406MOL0     C53469   0.910   5.155  10.507  0.0855  0.0817  0.0845
  406MOL0     C53470   0.942   5.122  10.656  0.3970 -0.8922  0.2534
  406MOL0     C53471   0.971   5.250  10.733  0.0592 -0.7908 -0.6957
  406MOL0     C53472   1.033   5.201  10.865 -0.6573  0.3967  0.0741
  406MOL0     C53473   1.051   5.320  10.968 -0.0814  0.3448  1.4683
  406MOL0     C53474   1.073   5.267  11.114  0.2793 -0.0100 -0.0938
  406MOL0     C53475   1.090   5.374  11.217  0.4857 -0.3411 -0.1159
  406MOL0     C53476   0.958   5.433  11.251 -0.3627 -0.0370  0.7870
  406MOL0     N53477   0.952   5.578  11.249  0.6985 -0.6560  0.6013
  406MOL0     C53478   0.930   5.661  11.144 -0.0351  0.8645 -0.2070
  406MOL0     C53479   0.908   5.783  11.206  0.1107 -0.0181  0.5049
  406MOL0     C53480   0.839   5.910  11.143  0.1000  1.0957  0.0347
  406MOL0     C53481   0.929   6.003  11.077 -0.5466  0.3195 -1.3202
  406MOL0     C53482   0.996   6.098  11.174  0.0422 -0.0042  0.6873
  406MOL0     C53483   1.114   6.174  11.110  0.8002  0.5069  0.4579
  406MOL0     O53484   1.090   6.223  10.973  0.2216  0.3066  0.2433
  406MOL0     C53485   1.199   6.275  10.904  0.1146  0.4075 -0.0011
  406MOL0     C53486   1.337   6.284  10.941  0.7474  0.2957 -0.3217
  406MOL0     C53487   1.428   6.345  10.864 -0.4510 -0.2098 -0.1559
  406MOL0     C53488   1.394   6.410  10.745 -0.1487 -0.1597  0.1582
  406MOL0     C53489   1.496   6.481  10.663  0.3776 -1.5959 -0.5086
  406MOL0     O53490   1.627   6.487  10.708  0.1586  0.3231  0.3721
  406MOL0     C53491   1.704   6.596  10.667  0.1737 -0.2699 -0.2304
  406MOL0     C53492   1.663   6.723  10.632 -0.7323 -0.8950  0.0801
  406MOL0     C53493   1.762   6.822  10.597 -0.6839  0.9050  0.1959
  406MOL0     C53494   1.892   6.780  10.571 -0.9137  0.2365  0.0972
  406MOL0     O53495   1.989   6.854  10.512 -0.1618  0.1642  0.0983
  406MOL0     C53496   2.016   6.817  10.375 -0.1599 -0.2796 -0.2562
  406MOL0     C53497   2.084   6.936  10.300 -0.4350  0.3690 -1.1921
  406MOL0     C53498   2.120   6.919  10.152  0.6503  0.5540  0.2348
  406MOL0     C53499   2.128   7.031  10.062 -0.5057 -0.0654  0.1315
  406MOL0     C53500   2.227   7.140  10.123  0.7353 -0.5985  0.2341
  406MOL0     C53501   2.239   7.257  10.022  0.1914  0.1654 -0.6802
  406MOL0     C53502   2.323   7.374  10.076  0.4806  0.1221 -0.3616
  406MOL0     C53503   2.305   7.508  10.006 -0.6204 -0.6801  0.5794
  406MOL0    Cl53504   2.294   7.484   9.825  0.3148 -0.0963  0.2333
  406MOL0     C53505   1.931   6.659  10.629  0.5741 -0.5763  0.3016
  406MOL0     C53506   1.836   6.568  10.668  0.2057  0.7684  0.2489
  406MOL0     O53507   1.458   6.533  10.559  0.2564  0.4635 -0.1338
  406MOL0     C53508   1.265   6.409  10.707  0.9710  1.0035 -0.7135
  406MOL0     C53509   1.176   6.329  10.781 -0.2472  0.2800 -0.2520
  406MOL0     N53510   0.906   5.777  11.345  0.6893  0.8099  0.4401
  406MOL0     N53511   0.938   5.654  11.363 -0.5565 -0.3742 -0.7032
  406MOL0     C53512   0.978   5.103  10.226  0.1733  0.7004 -0.2062
  406MOL0     C53513   1.016   5.068  10.098 -0.8458  0.2738 -0.4788
  406MOL0     C53514   1.237   4.933   9.720  1.9999 -0.2885 -0.1505
  406MOL0     C53515   1.367   4.981   9.718  0.5871  0.6586 -0.2785
  406MOL0     C53516   1.451   4.958   9.606  0.4364  0.5522 -0.3883
  406MOL0     C53517   1.410   4.879   9.497  0.6749 -0.5299  1.0703
  406MOL0     O53518   1.487   4.834   9.387  0.1745 -0.0643  0.3517
  406MOL0     C53519   1.622   4.888   9.356 -0.2065  0.1681 -0.2771
  406MOL0     C53520   1.668   4.862   9.210  0.3718 -0.6585 -0.5557
  406MOL0     C53521   1.765   4.983   9.178 -0.1874 -0.4014 -0.3483
  406MOL0     C53522   1.838   4.959   9.039 -0.4056 -0.0307  0.3513
  406MOL0     C53523   1.966   5.045   9.029  1.3501  0.6605 -0.0379
  406MOL0     C53524   2.063   5.108   9.016 -1.2108 -0.3402  0.0258
  406MOL0     C53525   1.272   4.840   9.498  0.4955  0.0901 -0.1865
  406MOL0     C53526   1.195   4.862   9.613 -0.7607  0.0376  0.2277
  406MOL0     H53527   1.348   5.141  10.120  0.4483  1.5401  1.7903
  406MOL0     H53528   1.282   5.208  10.339  0.9069 -0.8570  0.1985
  406MOL0     H53529   0.869   5.074  10.447 -0.7729 -0.8976  1.8815
  406MOL0     H53530   0.837   5.237  10.500  0.1450  0.0381 -1.0968
  406MOL0     H53531   1.024   5.050  10.668  4.0664  2.3958 -2.4492
  406MOL0     H53532   0.853   5.076  10.700  0.7298 -0.6936  1.1595
  406MOL0     H53533   0.882   5.309  10.757  0.5057 -0.5152  0.3451
  406MOL0     H53534   1.048   5.307  10.680 -0.5785 -0.4676 -1.2958
  406MOL0     H53535   0.968   5.118  10.896 -1.2347 -0.3225 -2.8192
  406MOL0     H53536   1.133   5.162  10.844 -0.4578 -0.3359  2.1466
  406MOL0     H53537   0.974   5.395  10.950  2.4428  3.2924  1.9805
  406MOL0     H53538   1.138   5.377  10.933  0.2942 -1.4045 -0.6955
  406MOL0     H53539   1.152   5.193  11.124  0.3717  0.3322  2.3858
  406MOL0     H53540   0.983   5.212  11.141 -0.0384  1.2596  1.6203
  406MOL0     H53541   1.128   5.338  11.313 -4.4634  2.9391  3.6333
  406MOL0     H53542   1.169   5.441  11.181  1.7188 -1.7753 -0.1745
  406MOL0     H53543   0.935   5.391  11.349  0.8107 -2.0549  0.2570
  406MOL0     H53544   0.879   5.399  11.183 -0.7341 -2.3478  2.2685
  406MOL0     H53545   0.923   5.644  11.037  0.2207  0.5284 -0.1741
  406MOL0     H53546   0.783   5.959  11.223 -2.0183 -0.8932 -0.1033
  406MOL0     H53547   0.765   5.878  11.069  0.4692 -1.1647  0.5786
  406MOL0     H53548   0.866   6.061  11.008 -1.7949  2.2699  1.2744
  406MOL0     H53549   0.993   5.959  11.000  0.4614  1.9098 -1.4148
  406MOL0     H53550   0.912   6.163  11.201 -2.9552 -2.9141 -1.0713
  406MOL0     H53551   1.032   6.052  11.267  1.9306  2.7848  1.4844
  406MOL0     H53552   1.200   6.107  11.118  1.4203  1.4910  2.7805
  406MOL0     H53553   1.134   6.261  11.174 -1.0843  1.4716 -0.2068
  406MOL0     H53554   1.375   6.249  11.037  3.3480  1.0112 -1.0200
  406MOL0     H53555   1.533   6.340  10.892 -1.1936 -3.0715  2.6969
  406MOL0     H53556   1.557   6.749  10.638 -0.1172  2.2673 -0.8460
  406MOL0     H53557   1.739   6.918  10.553 -3.6903  0.1805 -0.0180
  406MOL0     H53558   1.930   6.793  10.312 -0.3690  1.1712 -0.5671
  406MOL0     H53559   2.081   6.729  10.377 -4.1669 -3.4995  0.1675
  406MOL0     H53560   2.166   6.981  10.356 -1.0766  0.0399  0.0436
  406MOL0     H53561   2.000   7.006  10.308 -0.4890  0.0590  2.0863
  406MOL0     H53562   2.044   6.852  10.111  0.1534  0.3423  1.4393
  406MOL0     H53563   2.219   6.872  10.143  0.6655  0.7227 -0.5174
  406MOL0     H53564   2.166   7.004   9.963 -3.6589  1.4522 -1.6387
  406MOL0     H53565   2.032   7.081  10.047 -1.1912 -0.9677  1.4317
  406MOL0     H53566   2.320   7.095  10.159  0.0671 -1.8138  0.4936
  406MOL0     H53567   2.175   7.188  10.206  0.2228  1.9216 -1.4441
  406MOL0     H53568   2.142   7.306  10.008 -0.2128  0.7352  3.0316
  406MOL0     H53569   2.277   7.222   9.925 -1.1555  0.3489 -1.2928
  406MOL0     H53570   2.315   7.392  10.183  3.0292 -0.3669 -0.0199
  406MOL0     H53571   2.425   7.335  10.068  1.5181  2.9314 -2.4836
  406MOL0     H53572   2.391   7.570  10.034  0.4758 -1.3005 -1.2157
  406MOL0     H53573   2.211   7.550  10.043 -0.4530  0.3922 -0.1696
  406MOL0     H53574   2.034   6.625  10.621  1.3613  1.8311 -0.8108
  406MOL0     H53575   1.863   6.471  10.707  1.7499  0.6959 -0.8781
  406MOL0     H53576   1.219   6.448  10.616 -2.2728 -1.6592 -0.4381
  406MOL0     H53577   1.073   6.316  10.749 -0.9503  1.8547  1.1917
  406MOL0     H53578   0.874   5.093  10.257  0.4127 -4.1621 -0.2603
  406MOL0     H53579   0.933   5.042  10.032 -2.6507 -1.2976  2.2190
  406MOL0     H53580   1.403   5.024   9.810  0.7986  1.8400 -0.8942
  406MOL0     H53581   1.554   4.992   9.620  0.6389 -1.3235  4.0119
  406MOL0     H53582   1.695   4.845   9.425 -1.4772 -1.2530  0.2357
  406MOL0     H53583   1.606   4.996   9.366  1.5715  0.5038 -0.8370
  406MOL0     H53584   1.710   4.761   9.210 -0.8353 -1.1962  0.4528
  406MOL0     H53585   1.588   4.863   9.135  0.2041 -1.1760 -0.3865
  406MOL0     H53586   1.839   4.989   9.258 -0.3091 -0.6091 -0.2181
  406MOL0     H53587   1.716   5.081   9.173 -0.3448 -0.5241 -1.8690
  406MOL0     H53588   1.867   4.855   9.022 -0.8796  0.1247 -1.6681
  406MOL0     H53589   1.776   4.983   8.952 -0.9305 -1.1394  0.3969
  406MOL0     H53590   2.154   5.163   9.005 -1.3516  0.8821  3.6453
  406MOL0     H53591   1.259   4.771   9.416  1.1228 -0.2407 -0.0199
  406MOL0     H53592   1.098   4.812   9.612 -1.5133  1.4006  1.7396
  407MOL0     O53593   5.009  10.303   7.314  0.1025  0.7119 -1.0997
  407MOL0     C53594   4.907  10.371   7.299 -1.3244 -0.1027  0.2024
  407MOL0     O53595   4.807  10.347   7.218 -0.5125 -0.1762  0.1514
  407MOL0     C53596   4.801  10.217   7.170  0.2959 -0.7940 -0.7820
  407MOL0     C53597   4.770  10.104   7.244  0.2269  0.5111  0.1602
  407MOL0     C53598   4.763   9.973   7.186 -0.3558 -0.3957 -0.5275
  407MOL0     C53599   4.779   9.954   7.048  0.0513  0.1706  0.6715
  407MOL0     O53600   4.782   9.833   6.972  0.9883 -0.2155  0.0998
  407MOL0     C53601   4.689   9.735   7.016 -0.7346  0.9247  0.4648
  407MOL0     C53602   4.683   9.633   6.903  0.0224  0.4856 -0.3974
  407MOL0     C53603   4.560   9.539   6.899  0.1091  0.6927 -0.2468
  407MOL0     C53604   4.552   9.470   6.768 -0.0211  0.0592 -0.7691
  407MOL0     C53605   4.650   9.351   6.746  0.7088 -0.3645  0.4946
  407MOL0     C53606   4.697   9.351   6.599  0.2121  1.1958  0.7201
  407MOL0     C53607   4.786   9.229   6.561  0.0832 -0.7720 -0.8173
  407MOL0     C53608   4.926   9.236   6.611  0.1526 -0.4741 -0.3851
  407MOL0     N53609   5.000   9.111   6.614  0.0640 -0.2212  0.5875
  407MOL0     C53610   5.058   9.055   6.500  1.1692  0.1978  0.2934
  407MOL0     C53611   5.064   8.919   6.529 -0.1699 -0.2101  0.4204
  407MOL0     C53612   5.133   8.812   6.448  0.5370  0.6373  0.1912
  407MOL0     C53613   5.036   8.753   6.347 -0.7035  0.1951  0.3448
  407MOL0     C53614   4.963   8.632   6.401  0.1708  0.4958  0.9675
  407MOL0     C53615   4.871   8.558   6.293 -0.0182  0.3028 -1.1569
  407MOL0     O53616   4.809   8.450   6.370 -0.9095 -0.9047  0.2435
  407MOL0     C53617   4.721   8.378   6.301  0.3721 -0.3548  0.3426
  407MOL0     C53618   4.695   8.374   6.162 -0.3747 -0.5912  0.2645
  407MOL0     C53619   4.599   8.290   6.110  0.5325 -0.7106 -0.8254
  407MOL0     C53620   4.547   8.197   6.193  0.0164  0.8961 -0.7012
  407MOL0     C53621   4.456   8.086   6.140 -0.3010  0.6091 -1.3831
  407MOL0     O53622   4.415   8.000   6.241 -0.5393 -0.4462 -0.2862
  407MOL0     C53623   4.335   7.893   6.215 -0.0801 -0.9243  0.7704
  407MOL0     C53624   4.199   7.905   6.164  0.0364  1.4863  1.3027
  407MOL0     C53625   4.127   7.794   6.116 -0.6207  0.1842  0.1024
  407MOL0     C53626   4.174   7.668   6.141  0.1328 -0.2410  0.0597
  407MOL0     O53627   4.090   7.570   6.114 -0.4540 -0.1703  0.1398
  407MOL0     C53628   4.133   7.431   6.131  0.3942 -0.7506 -0.5614
  407MOL0     C53629   4.130   7.393   6.275  1.7093  0.4022 -1.5795
  407MOL0     C53630   4.006   7.428   6.354  0.7267 -0.3663 -0.0531
  407MOL0     C53631   4.027   7.383   6.498  0.2650  1.3692 -0.1167
  407MOL0     C53632   3.907   7.338   6.571  1.0673  0.0895  0.1346
  407MOL0     C53633   3.943   7.261   6.703 -0.0296  0.2838 -0.1712
  407MOL0     C53634   3.827   7.220   6.794  0.8087 -0.0256 -0.7420
  407MOL0     C53635   3.861   7.139   6.925 -0.1512  0.6022 -0.0267
  407MOL0    Cl53636   4.028   7.190   6.992 -0.6601 -0.0172 -0.2547
  407MOL0     C53637   4.305   7.655   6.191  0.0386 -0.6675 -0.7507
  407MOL0     C53638   4.389   7.758   6.226  0.6937  0.1514  0.0394
  407MOL0     O53639   4.421   8.083   6.019 -0.5008 -0.1007 -0.0911
  407MOL0     C53640   4.582   8.183   6.327  0.5032 -0.4501 -0.1873
  407MOL0     C53641   4.666   8.279   6.381  0.8386 -0.0576 -0.9283
  407MOL0     N53642   5.023   8.903   6.657  0.0663  0.1747  1.0234
  407MOL0     N53643   4.981   9.014   6.702  0.6131 -0.5524 -0.1309
  407MOL0     C53644   4.816  10.067   6.969  0.2680  0.1487 -0.7557
  407MOL0     C53645   4.820  10.202   7.030  0.1436  0.0530 -1.0644
  407MOL0     C53646   4.896  10.490   7.379  0.5162 -0.3436 -0.0668
  407MOL0     C53647   4.765  10.542   7.398  0.4894  0.2679  0.1686
  407MOL0     C53648   4.758  10.673   7.468  0.3916 -0.1768  0.7245
  407MOL0     C53649   4.871  10.751   7.509  0.3816 -0.5982  0.0605
  407MOL0     O53650   4.851  10.868   7.588 -0.5875  0.0337 -0.5764
  407MOL0     C53651   4.724  10.937   7.602  0.8399 -0.1086 -0.3507
  407MOL0     C53652   4.745  11.084   7.649 -0.2492 -0.8067  0.2057
  407MOL0     C53653   4.794  11.103   7.783  0.8384  0.1961  0.1979
  407MOL0     C53654   4.700  11.040   7.882 -0.9468  0.2678 -0.3441
  407MOL0     C53655   4.748  11.090   8.009  0.3636 -0.2840  1.1556
  407MOL0     C53656   4.792  11.128   8.110  0.1165  0.2438 -0.2865
  407MOL0     C53657   4.997  10.689   7.477 -1.0451 -0.1184 -0.9026
  407MOL0     C53658   5.008  10.557   7.431 -0.5902  0.2891  0.0880
  407MOL0     H53659   4.757  10.112   7.352 -4.0557 -2.4705  0.1121
  407MOL0     H53660   4.758   9.888   7.254  2.0162  1.2348  1.9160
  407MOL0     H53661   4.599   9.790   7.045  0.4289  2.3736  1.4391
  407MOL0     H53662   4.717   9.689   7.111 -1.6783  1.4700  1.0154
  407MOL0     H53663   4.773   9.573   6.889 -1.1626 -1.0026 -2.0912
  407MOL0     H53664   4.686   9.684   6.806  0.2108 -2.2801 -1.9380
  407MOL0     H53665   4.469   9.595   6.923 -0.2656  0.0038 -0.0447
  407MOL0     H53666   4.572   9.461   6.975 -0.5929  0.5497 -0.2724
  407MOL0     H53667   4.450   9.432   6.766  0.6763 -1.9452 -1.1261
  407MOL0     H53668   4.563   9.548   6.692 -3.4600  0.0215 -1.4378
  407MOL0     H53669   4.592   9.260   6.764 -3.2979  2.3244  2.6521
  407MOL0     H53670   4.735   9.354   6.815  1.3588  2.7650 -0.2879
  407MOL0     H53671   4.728   9.446   6.554  1.8056  0.4261  0.1046
  407MOL0     H53672   4.606   9.342   6.538  0.7460 -2.0505  0.2256
  407MOL0     H53673   4.738   9.136   6.592 -1.1008 -0.2416 -0.9918
  407MOL0     H53674   4.790   9.222   6.452  0.4965  1.9388 -1.0608
  407MOL0     H53675   4.936   9.279   6.711  0.9738  1.6609 -1.3117
  407MOL0     H53676   4.993   9.307   6.560  3.1141 -2.2012  0.8421
  407MOL0     H53677   5.100   9.103   6.412  1.1020 -0.6553 -0.2079
  407MOL0     H53678   5.199   8.743   6.502  1.1431 -0.0151 -1.3328
  407MOL0     H53679   5.201   8.872   6.388  0.0777  0.0984 -0.9012
  407MOL0     H53680   5.097   8.723   6.261  1.7904  2.1795  1.2912
  407MOL0     H53681   4.970   8.833   6.310 -0.0341 -0.1520 -1.7582
  407MOL0     H53682   5.033   8.561   6.444 -0.5865 -1.4586 -0.8489
  407MOL0     H53683   4.895   8.674   6.477  3.6359  2.0490  3.4554
  407MOL0     H53684   4.950   8.534   6.221 -2.1478 -5.4097 -2.0752
  407MOL0     H53685   4.795   8.618   6.241 -0.5609  0.7628  0.1373
  407MOL0     H53686   4.747   8.442   6.095  0.2841 -2.6984 -1.4936
  407MOL0     H53687   4.575   8.299   6.004 -0.2940  0.3344 -0.5690
  407MOL0     H53688   4.153   8.003   6.164  0.3273  1.6259  2.3487
  407MOL0     H53689   4.021   7.796   6.092 -0.6972 -4.5227 -0.8925
  407MOL0     H53690   4.231   7.418   6.084  1.1387  0.2388  0.6439
  407MOL0     H53691   4.061   7.371   6.076 -1.6393  2.3162 -1.4986
  407MOL0     H53692   4.221   7.432   6.323  2.6438 -1.5445 -1.6870
  407MOL0     H53693   4.146   7.285   6.271  0.7497  0.0291  1.7845
  407MOL0     H53694   3.922   7.377   6.307 -1.2770  0.4262  2.4444
  407MOL0     H53695   3.985   7.535   6.354  0.0149 -0.5002 -0.4341
  407MOL0     H53696   4.088   7.293   6.505  0.3525  1.5673  3.0750
  407MOL0     H53697   4.089   7.454   6.554 -0.2341  0.4803  1.6374
  407MOL0     H53698   3.850   7.275   6.503  1.6317 -1.3011  0.9261
  407MOL0     H53699   3.847   7.428   6.589  0.2230 -0.7085  1.4817
  407MOL0     H53700   4.024   7.319   6.748 -0.5729  2.9001 -2.3260
  407MOL0     H53701   3.976   7.162   6.671 -1.5299  0.2085 -1.6480
  407MOL0     H53702   3.765   7.302   6.830 -3.1629 -3.0365  0.0321
  407MOL0     H53703   3.755   7.161   6.736 -0.5060 -0.1846  0.9609
  407MOL0     H53704   3.870   7.038   6.883 -1.0108 -0.3602  2.0098
  407MOL0     H53705   3.786   7.133   7.004 -0.1855  1.5480  0.0228
  407MOL0     H53706   4.345   7.555   6.208 -0.3038 -0.7884 -0.6610
  407MOL0     H53707   4.493   7.747   6.255  0.6450 -2.2723 -0.5493
  407MOL0     H53708   4.560   8.086   6.370 -0.4878 -0.7573 -1.3623
  407MOL0     H53709   4.691   8.263   6.485  1.8175 -1.5495 -1.3572
  407MOL0     H53710   4.838  10.045   6.865  0.4406 -2.5935 -0.2168
  407MOL0     H53711   4.851  10.285   6.967  1.9770 -1.2584 -1.9631
  407MOL0     H53712   4.678  10.495   7.353  2.2795 -3.0817 -0.1415
  407MOL0     H53713   4.653  10.701   7.476 -0.2946 -2.3879  0.0368
  407MOL0     H53714   4.665  10.886   7.678  1.7985  0.2644  0.6700
  407MOL0     H53715   4.666  10.945   7.510  1.3278  0.9925 -0.5774
  407MOL0     H53716   4.806  11.146   7.584  0.5792 -0.7261  1.0486
  407MOL0     H53717   4.640  11.116   7.644 -1.4503 -4.2957 -0.0729
  407MOL0     H53718   4.804  11.211   7.799  1.5005  1.0304 -4.4663
  407MOL0     H53719   4.890  11.050   7.791  1.4196  1.3509  1.2428
  407MOL0     H53720   4.597  11.069   7.859 -0.7762  0.1378 -1.3478
  407MOL0     H53721   4.707  10.931   7.877  1.4212  0.3438 -5.4293
  407MOL0     H53722   4.815  11.162   8.209 -2.3203 -0.3932  0.5755
  407MOL0     H53723   5.091  10.741   7.493  0.5776 -2.3545 -2.6553
  407MOL0     H53724   5.111  10.525   7.422 -0.2421  1.3844 -0.0183
  408MOL0     O53725   9.528   9.809   5.014 -0.1927  0.5616 -0.1692
  408MOL0     C53726   9.652   9.829   5.003 -0.1731 -0.0730  0.4209
  408MOL0     O53727   9.710   9.947   4.954  0.0933  0.3138 -0.1646
  408MOL0     C53728   9.632  10.057   4.933  0.7973 -0.8167  0.1120
  408MOL0     C53729   9.550  10.117   5.030  0.4059 -0.5808  0.1282
  408MOL0     C53730   9.480  10.235   4.995  0.1924  0.1284 -0.1889
  408MOL0     C53731   9.487  10.291   4.867 -0.6361 -0.4855  0.7353
  408MOL0     O53732   9.407  10.407   4.839 -0.3367  0.7519  0.3140
  408MOL0     C53733   9.442  10.485   4.721  0.0772  0.6535 -0.7429
  408MOL0     C53734   9.343  10.604   4.713 -0.1472  0.7521  0.7501
  408MOL0     C53735   9.390  10.732   4.631  0.5095  0.2307 -0.2517
  408MOL0     C53736   9.276  10.834   4.655 -0.3351 -0.3088 -0.2749
  408MOL0     C53737   9.280  10.952   4.559  0.1675 -0.7461 -0.4696
  408MOL0     C53738   9.171  11.052   4.610 -0.3198  0.6851 -0.2636
  408MOL0     C53739   9.219  11.127   4.724  0.2734 -0.3302 -0.0612
  408MOL0     C53740   9.112  11.136   4.831  0.3488 -0.2528  0.2003
  408MOL0     N53741   9.005  11.226   4.807 -0.4113  0.6703 -0.4397
  408MOL0     C53742   8.888  11.212   4.725 -0.0627 -0.2441  0.1272
  408MOL0     C53743   8.813  11.321   4.749  0.4688 -0.7598 -0.8454
  408MOL0     C53744   8.686  11.350   4.688 -0.0294 -0.2841  0.3187
  408MOL0     C53745   8.566  11.266   4.730 -0.3112  1.3200 -0.2921
  408MOL0     C53746   8.591  11.110   4.725 -0.3101 -0.4378 -0.5628
  408MOL0     C53747   8.465  11.036   4.740 -0.0941  1.2818 -0.3189
  408MOL0     O53748   8.416  11.048   4.872  0.6028  0.0161  0.1450
  408MOL0     C53749   8.286  11.034   4.908  0.8326  0.6015 -0.6513
  408MOL0     C53750   8.237  11.084   5.028  1.4448  0.6377 -0.3227
  408MOL0     C53751   8.100  11.069   5.061 -0.3914  0.6170  0.0458
  408MOL0     C53752   8.026  10.972   4.981 -0.5076 -0.9941 -0.4608
  408MOL0     C53753   7.883  10.959   5.002 -0.6637  0.1602  0.0790
  408MOL0     O53754   7.812  10.905   4.901  0.4735  0.7770  0.0023
  408MOL0     C53755   7.674  10.888   4.900 -0.1864 -0.4961  0.1466
  408MOL0     C53756   7.625  10.776   4.826  0.7011 -0.5238 -0.0359
  408MOL0     C53757   7.489  10.742   4.833  0.2227 -0.0897  0.7440
  408MOL0     C53758   7.398  10.832   4.895 -0.8726  0.2515  0.3008
  408MOL0     O53759   7.264  10.801   4.889  0.5139 -0.4673  1.1154
  408MOL0     C53760   7.178  10.857   4.782 -0.6726 -0.0192  0.4211
  408MOL0     C53761   7.056  10.768   4.767 -0.2704  0.1153  0.4529
  408MOL0     C53762   7.067  10.663   4.647 -0.2575  0.1146 -1.0102
  408MOL0     C53763   6.939  10.576   4.641 -0.3625  0.0501  0.6925
  408MOL0     C53764   6.959  10.456   4.541  0.0154 -0.3836 -0.4784
  408MOL0     C53765   7.008  10.499   4.405 -0.7058  0.8351  0.0699
  408MOL0     C53766   6.889  10.553   4.323  0.5494 -0.0918  0.7724
  408MOL0     C53767   6.935  10.629   4.193  0.1706 -0.4485  1.4066
  408MOL0    Cl53768   7.022  10.773   4.239 -0.1170  0.3676  0.0959
  408MOL0     C53769   7.439  10.956   4.949  0.1747  0.2255 -0.8477
  408MOL0     C53770   7.582  10.982   4.958  0.3636  0.9133 -0.1661
  408MOL0     O53771   7.833  10.978   5.113  1.0559 -0.0240 -0.0649
  408MOL0     C53772   8.084  10.926   4.861  0.4147  0.0462  0.2615
  408MOL0     C53773   8.214  10.952   4.826  0.5859 -0.2419 -0.2277
  408MOL0     N53774   8.880  11.402   4.835  0.4349  0.1658 -0.2872
  408MOL0     N53775   8.988  11.341   4.879 -0.9115  0.2284  1.2020
  408MOL0     C53776   9.583  10.237   4.780  0.7872  0.3311  0.3386
  408MOL0     C53777   9.650  10.119   4.806  0.2080 -0.1915  0.3594
  408MOL0     C53778   9.744   9.719   5.056 -0.4170  0.0778  0.0005
  408MOL0     C53779   9.884   9.731   5.072 -0.5053  0.2761  1.2742
  408MOL0     C53780   9.966   9.625   5.112 -0.9331 -0.1657  0.0222
  408MOL0     C53781   9.910   9.506   5.148 -0.1853 -0.0324 -0.1626
  408MOL0     O53782   9.994   9.410   5.199 -0.0187 -0.1928 -1.0423
  408MOL0     C53783   9.938   9.286   5.249  0.0762 -0.3337 -0.3579
  408MOL0     C53784   9.847   9.299   5.381 -0.0550 -0.2440  0.4036
  408MOL0     C53785   9.863   9.167   5.461 -0.0231 -0.2267 -0.2050
  408MOL0     C53786   9.760   9.172   5.578 -0.3080  0.8687  0.3601
  408MOL0     C53787   9.801   9.270   5.671  0.6742  0.8493 -0.3585
  408MOL0     C53788   9.835   9.347   5.753  0.1707 -0.1863 -0.4513
  408MOL0     C53789   9.771   9.494   5.130 -0.0820  1.1932 -0.6908
  408MOL0     C53790   9.688   9.591   5.080  0.3070 -0.8124  0.4467
  408MOL0     H53791   9.537  10.079   5.130  0.5178 -2.3490 -0.5020
  408MOL0     H53792   9.406  10.287   5.056 -0.8613  0.9382 -2.0564
  408MOL0     H53793   9.427  10.414   4.639 -3.1967 -2.0047  1.9256
  408MOL0     H53794   9.545  10.518   4.740 -0.3354  1.9380 -0.6288
  408MOL0     H53795   9.312  10.641   4.811 -2.4497  1.9465 -0.3559
  408MOL0     H53796   9.250  10.564   4.672  1.7247  0.3894 -3.7300
  408MOL0     H53797   9.396  10.701   4.526  0.8118  2.0141 -0.8051
  408MOL0     H53798   9.487  10.770   4.665  0.9661 -1.5630  0.6014
  408MOL0     H53799   9.179  10.786   4.638 -0.6630  0.5738 -0.9331
  408MOL0     H53800   9.270  10.851   4.763  2.6319  0.0809 -0.1011
  408MOL0     H53801   9.260  10.921   4.456  2.9835 -0.0430 -1.3244
  408MOL0     H53802   9.375  11.007   4.553 -0.1885  0.1088  1.1248
  408MOL0     H53803   9.073  11.006   4.625 -0.4044  0.5019 -1.3303
  408MOL0     H53804   9.146  11.124   4.532  0.9443  1.9974  0.4959
  408MOL0     H53805   9.302  11.074   4.772  1.0641 -0.2712 -1.3197
  408MOL0     H53806   9.248  11.226   4.686 -1.4228 -0.2481 -1.2701
  408MOL0     H53807   9.170  11.163   4.920  0.5225 -0.4774  0.1551
  408MOL0     H53808   9.060  11.041   4.845 -4.3809  2.0640  0.3358
  408MOL0     H53809   8.844  11.133   4.666  1.3875 -0.6651 -0.4203
  408MOL0     H53810   8.692  11.334   4.580  1.5176  2.5971 -0.1298
  408MOL0     H53811   8.662  11.455   4.707  1.9191 -0.0018  1.5186
  408MOL0     H53812   8.484  11.288   4.662 -0.9737 -0.1728 -0.0178
  408MOL0     H53813   8.528  11.302   4.826 -1.4789 -1.3672  0.3580
  408MOL0     H53814   8.633  11.083   4.628  0.5834  0.0225 -0.3075
  408MOL0     H53815   8.661  11.080   4.804 -0.0243 -0.3019 -0.7657
  408MOL0     H53816   8.472  10.931   4.711  1.6342  1.6061 -1.2230
  408MOL0     H53817   8.396  11.090   4.675  0.9727  0.9260 -1.8011
  408MOL0     H53818   8.287  11.164   5.082 -1.5904  4.6000 -2.7902
  408MOL0     H53819   8.062  11.108   5.154 -0.5202 -2.4877  1.4219
  408MOL0     H53820   7.696  10.716   4.770  1.5799 -2.5000  2.9942
  408MOL0     H53821   7.439  10.670   4.769 -0.9419 -0.3178  1.8610
  408MOL0     H53822   7.231  10.868   4.687  0.7929 -0.2847  1.1830
  408MOL0     H53823   7.152  10.962   4.797 -1.2136  0.2320 -1.9240
  408MOL0     H53824   6.971  10.836   4.755  2.5635  4.5425  2.6889
  408MOL0     H53825   7.039  10.720   4.864 -2.3311  1.5486  0.8811
  408MOL0     H53826   7.152  10.597   4.665 -2.4938 -2.6553  0.1411
  408MOL0     H53827   7.079  10.720   4.554  4.1125 -3.2552 -2.8467
  408MOL0     H53828   6.900  10.536   4.735  1.5965 -0.4007  1.3641
  408MOL0     H53829   6.861  10.638   4.596  0.9762  0.8493 -0.6321
  408MOL0     H53830   6.867  10.400   4.520 -0.5977  0.6028 -0.4552
  408MOL0     H53831   7.032  10.393   4.594 -1.3538  0.5827  2.8039
  408MOL0     H53832   7.038  10.409   4.351 -0.3771  1.8314 -1.4718
  408MOL0     H53833   7.090  10.570   4.394 -1.6047  1.7859 -0.7201
  408MOL0     H53834   6.819  10.473   4.300 -0.4274  0.0366  2.9612
  408MOL0     H53835   6.839  10.622   4.393 -3.5473 -0.3316 -1.5686
  408MOL0     H53836   6.845  10.656   4.136  0.4228 -3.7121 -0.8686
  408MOL0     H53837   6.984  10.559   4.124 -1.1040  0.8429 -0.9620
  408MOL0     H53838   7.366  11.025   4.989  0.6146  0.8441 -1.1093
  408MOL0     H53839   7.621  11.071   5.006 -1.1745  1.1077  0.7666
  408MOL0     H53840   8.029  10.863   4.791  0.9193  1.4710 -1.5082
  408MOL0     H53841   8.230  10.906   4.729 -0.3279 -4.0300  1.2609
  408MOL0     H53842   9.613  10.264   4.679 -1.9532 -2.1163 -1.2683
  408MOL0     H53843   9.722  10.081   4.733  1.6036  1.5285  0.7777
  408MOL0     H53844   9.938   9.823   5.050 -1.5552  0.1234 -2.7172
  408MOL0     H53845  10.073   9.626   5.132 -1.2002 -0.6434  1.5917
  408MOL0     H53846  10.022   9.218   5.264 -0.3002 -0.7377 -0.0721
  408MOL0     H53847   9.888   9.239   5.164  2.7910 -2.7612 -0.7639
  408MOL0     H53848   9.903   9.368   5.445  3.3231 -1.2208 -1.2864
  408MOL0     H53849   9.743   9.332   5.369  0.2183  0.0098 -1.5025
  408MOL0     H53850   9.965   9.154   5.497 -0.7309 -1.9082  1.3756
  408MOL0     H53851   9.839   9.080   5.400  0.2479  0.7042 -1.6791
  408MOL0     H53852   9.659   9.200   5.547 -0.0350  0.5440 -0.8702
  408MOL0     H53853   9.762   9.080   5.636  0.5340  0.1524 -0.7555
  408MOL0     H53854   9.848   9.420   5.831  2.0762  0.5437 -1.3882
  408MOL0     H53855   9.729   9.397   5.157  0.2369  1.6825  1.8916
  408MOL0     H53856   9.582   9.572   5.080  0.0794  0.0394 -2.5336
  409MOL0     O53857   6.789   4.019   6.520 -0.1965  1.1177 -0.1962
  409MOL0     C53858   6.867   4.000   6.615  0.6608  0.1839 -0.0563
  409MOL0     O53859   6.914   4.101   6.691  0.8599  0.4523 -0.4751
  409MOL0     C53860   6.855   4.228   6.667  0.0141  0.2626 -0.2457
  409MOL0     C53861   6.760   4.280   6.762 -0.3910 -0.0597 -0.0977
  409MOL0     C53862   6.707   4.407   6.748  0.2987 -0.1960  0.0446
  409MOL0     C53863   6.751   4.492   6.641  0.0466 -0.0693 -0.0083
  409MOL0     O53864   6.711   4.620   6.633  0.1047 -0.6840  0.0992
  409MOL0     C53865   6.803   4.721   6.581  0.1231 -0.5725  0.1640
  409MOL0     C53866   6.752   4.853   6.641 -0.5720 -0.0622  0.0350
  409MOL0     C53867   6.851   4.971   6.611 -0.7188 -0.2152  0.2172
  409MOL0     C53868   6.764   5.100   6.613 -1.1219  1.1192  0.1034
  409MOL0     C53869   6.843   5.223   6.627 -0.0382 -0.5051  0.9288
  409MOL0     C53870   6.736   5.342   6.626 -0.5333 -0.0788  0.1283
  409MOL0     C53871   6.639   5.361   6.748 -0.2923 -0.9940 -0.7393
  409MOL0     C53872   6.713   5.407   6.880  0.4788  0.6281  0.1753
  409MOL0     N53873   6.822   5.502   6.839  0.6544  0.3417  0.4238
  409MOL0     C53874   6.956   5.479   6.846  0.8089 -0.1121 -0.2363
  409MOL0     C53875   7.012   5.598   6.840  1.2464  0.2071  0.7260
  409MOL0     C53876   7.157   5.626   6.863  1.3824 -0.1650  0.0712
  409MOL0     C53877   7.253   5.557   6.774  0.8057 -0.3397 -0.0355
  409MOL0     C53878   7.296   5.414   6.828  0.4002 -1.0048  0.6534
  409MOL0     C53879   7.366   5.325   6.724 -0.7406 -0.0177  0.1471
  409MOL0     O53880   7.406   5.209   6.786  0.4982 -0.4754  0.6316
  409MOL0     C53881   7.344   5.090   6.748 -0.4372 -0.5325  0.7128
  409MOL0     C53882   7.229   5.065   6.665  1.0340 -0.1848  0.4869
  409MOL0     C53883   7.204   4.934   6.612 -0.1549  0.3421  0.4153
  409MOL0     C53884   7.283   4.829   6.648 -0.3854  0.7075 -0.4364
  409MOL0     C53885   7.257   4.690   6.608  0.1795 -0.4860 -0.0230
  409MOL0     O53886   7.375   4.609   6.606  0.0176 -0.2691  0.4051
  409MOL0     C53887   7.351   4.472   6.602 -0.3421 -0.3470  1.3982
  409MOL0     C53888   7.238   4.412   6.660 -0.0820  1.3365 -0.5570
  409MOL0     C53889   7.240   4.270   6.665 -0.4065  0.2190 -1.1036
  409MOL0     C53890   7.351   4.190   6.614  0.2131 -0.2619  0.0075
  409MOL0     O53891   7.368   4.059   6.605  0.5634  0.7912 -0.4383
  409MOL0     C53892   7.241   3.986   6.603 -0.0240 -0.1375  0.7955
  409MOL0     C53893   7.272   3.854   6.526  0.1645 -0.5135  0.2055
  409MOL0     C53894   7.368   3.780   6.615 -1.3927 -0.0650  0.0402
  409MOL0     C53895   7.391   3.629   6.575  0.0659 -0.3556  0.6370
  409MOL0     C53896   7.491   3.568   6.662  0.5153 -0.9705 -0.5601
  409MOL0     C53897   7.490   3.413   6.651  0.2525 -0.8963 -0.3838
  409MOL0     C53898   7.611   3.358   6.726  0.3393  0.9549  0.5730
  409MOL0     C53899   7.726   3.343   6.620 -0.3798  0.5312  0.2450
  409MOL0    Cl53900   7.868   3.257   6.684  0.1782 -0.1125  0.0143
  409MOL0     C53901   7.449   4.256   6.544  0.0206 -0.9587 -0.1235
  409MOL0     C53902   7.448   4.393   6.539  0.2181  0.6341 -1.0677
  409MOL0     O53903   7.145   4.656   6.556  0.5696  0.4233 -0.5407
  409MOL0     C53904   7.390   4.855   6.740  1.1281  1.0879  0.9355
  409MOL0     C53905   7.424   4.982   6.783 -0.5958  0.7893  0.0088
  409MOL0     N53906   6.912   5.687   6.798 -0.3856 -0.3448 -0.7742
  409MOL0     N53907   6.799   5.630   6.798  0.1474  0.5639  0.8352
  409MOL0     C53908   6.846   4.438   6.557 -0.3378  0.6098  0.5505
  409MOL0     C53909   6.900   4.309   6.567  0.7199  0.8638 -0.3446
  409MOL0     C53910   6.913   3.864   6.654 -1.0219 -0.6518  0.1182
  409MOL0     C53911   6.895   3.751   6.566 -0.1078  0.8532 -0.0019
  409MOL0     C53912   6.934   3.624   6.610  0.1126  0.4448 -0.0380
  409MOL0     C53913   7.000   3.610   6.732  0.5318  0.1901 -0.0031
  409MOL0     O53914   7.049   3.491   6.778 -0.8847 -0.4715  0.5122
  409MOL0     C53915   7.064   3.387   6.684 -0.5568 -0.0275 -0.4708
  409MOL0     C53916   7.107   3.265   6.765 -0.3875  0.3600  0.1374
  409MOL0     C53917   7.092   3.144   6.671 -1.0432 -0.5268 -1.2421
  409MOL0     C53918   7.129   3.019   6.755  1.4708 -0.2854  0.2185
  409MOL0     C53919   7.058   2.901   6.697  0.0562 -0.5376 -0.3534
  409MOL0     C53920   7.003   2.804   6.652  0.4842  0.3551  0.0604
  409MOL0     C53921   7.019   3.717   6.815  0.3510 -0.3998  0.0231
  409MOL0     C53922   6.977   3.846   6.779  0.2294 -0.1916  0.1575
  409MOL0     H53923   6.722   4.216   6.841 -0.2429 -1.2436 -0.9570
  409MOL0     H53924   6.653   4.467   6.821  1.5363 -0.0659  0.8778
  409MOL0     H53925   6.809   4.717   6.472  2.1129  1.8806  0.0788
  409MOL0     H53926   6.908   4.704   6.607  0.8447 -3.3164 -3.6254
  409MOL0     H53927   6.731   4.823   6.744  0.7972 -1.1616  0.0156
  409MOL0     H53928   6.654   4.871   6.596 -1.1525 -0.0392  1.2495
  409MOL0     H53929   6.889   4.972   6.509 -0.9200 -1.8194  0.0962
  409MOL0     H53930   6.934   4.964   6.682 -0.6456 -1.4705  0.0392
  409MOL0     H53931   6.702   5.084   6.524 -3.2310 -2.7635  2.0105
  409MOL0     H53932   6.693   5.097   6.697  0.2476  4.0833  1.5143
  409MOL0     H53933   6.911   5.228   6.541 -1.3131 -1.8745 -0.2143
  409MOL0     H53934   6.896   5.226   6.723 -0.0880  0.9970  0.9333
  409MOL0     H53935   6.670   5.319   6.541  2.2299 -3.0517 -1.4491
  409MOL0     H53936   6.792   5.431   6.599 -0.7189 -0.1504 -0.5250
  409MOL0     H53937   6.568   5.442   6.727 -0.0278 -0.8862 -1.2357
  409MOL0     H53938   6.586   5.272   6.783  0.7999 -0.0809  3.9496
  409MOL0     H53939   6.764   5.320   6.923 -0.2876 -0.9690 -1.9379
  409MOL0     H53940   6.634   5.442   6.946  0.6690 -0.4143  0.9784
  409MOL0     H53941   6.991   5.379   6.870  0.4471 -0.8286 -2.4773
  409MOL0     H53942   7.181   5.604   6.967  0.9070 -1.6858 -0.1124
  409MOL0     H53943   7.164   5.731   6.836 -0.8862  0.2205  0.7825
  409MOL0     H53944   7.344   5.614   6.754 -0.0604  0.6169 -1.3631
  409MOL0     H53945   7.200   5.542   6.680  2.0757 -0.5776 -0.7431
  409MOL0     H53946   7.358   5.425   6.918 -0.8579  2.2261  1.2517
  409MOL0     H53947   7.207   5.353   6.847 -1.1057  0.2405 -1.9105
  409MOL0     H53948   7.450   5.383   6.683  0.6818 -0.4587  2.2791
  409MOL0     H53949   7.283   5.308   6.655 -2.4583 -2.8845  2.6695
  409MOL0     H53950   7.152   5.141   6.656  1.6209  0.7091  2.3610
  409MOL0     H53951   7.143   4.925   6.522 -0.4571 -0.5016  0.6963
  409MOL0     H53952   7.169   4.476   6.714  1.5268  3.5687 -0.9939
  409MOL0     H53953   7.159   4.220   6.718 -0.3828  0.0231 -1.2511
  409MOL0     H53954   7.164   4.038   6.544  2.1701  1.2049 -1.0643
  409MOL0     H53955   7.208   3.965   6.705  3.1334 -1.5195  1.6625
  409MOL0     H53956   7.311   3.876   6.426  0.3637 -3.1192 -0.3621
  409MOL0     H53957   7.175   3.807   6.510  0.2648 -1.0329  1.0224
  409MOL0     H53958   7.318   3.786   6.711 -0.3023 -0.1246  0.6292
  409MOL0     H53959   7.460   3.838   6.627 -1.3987  0.1899 -1.0435
  409MOL0     H53960   7.299   3.570   6.575 -0.3602  0.2097 -1.6268
  409MOL0     H53961   7.435   3.620   6.476  3.1319 -1.0867  1.9559
  409MOL0     H53962   7.466   3.600   6.764  1.4071  3.1681 -1.4412
  409MOL0     H53963   7.587   3.612   6.634 -0.5107  2.9651  1.4026
  409MOL0     H53964   7.494   3.387   6.545  0.5240 -0.3911 -0.5004
  409MOL0     H53965   7.401   3.364   6.692  0.9933  0.3397  3.0163
  409MOL0     H53966   7.661   3.423   6.799  2.9369 -0.0009 -0.2613
  409MOL0     H53967   7.592   3.261   6.773 -1.3606  0.4687 -1.0109
  409MOL0     H53968   7.759   3.441   6.586 -1.4936  0.4155 -1.2906
  409MOL0     H53969   7.688   3.298   6.528 -0.2177 -1.4357  1.0917
  409MOL0     H53970   7.528   4.194   6.502 -1.1050 -2.5002 -0.0707
  409MOL0     H53971   7.541   4.438   6.506  0.4591  0.1054 -1.1172
  409MOL0     H53972   7.448   4.770   6.773 -1.1358 -0.1640  1.8767
  409MOL0     H53973   7.512   4.987   6.846  0.2450 -0.8315 -1.0014
  409MOL0     H53974   6.885   4.492   6.471 -2.3139 -1.1397 -1.5455
  409MOL0     H53975   6.980   4.276   6.502  1.0713 -2.4182  1.5358
  409MOL0     H53976   6.857   3.764   6.466  0.3921 -2.2461 -0.7265
  409MOL0     H53977   6.914   3.538   6.547 -0.5076  0.1035  0.6220
  409MOL0     H53978   7.130   3.422   6.604 -1.1901  0.5788 -0.7440
  409MOL0     H53979   6.973   3.355   6.633 -0.5763  1.6380 -1.5589
  409MOL0     H53980   7.213   3.271   6.793 -0.8395  2.5574  1.7093
  409MOL0     H53981   7.041   3.251   6.852  1.8950  3.3912  2.5999
  409MOL0     H53982   7.150   3.151   6.579  2.3325  0.2543  0.7621
  409MOL0     H53983   6.987   3.138   6.642 -1.0725 -0.5942 -1.1189
  409MOL0     H53984   7.235   3.006   6.733  1.3718  1.3040 -1.3435
  409MOL0     H53985   7.122   3.036   6.863  0.5582  2.3074 -0.1826
  409MOL0     H53986   6.963   2.716   6.605  0.0482  1.7420 -2.2800
  409MOL0     H53987   7.066   3.697   6.911  0.9581 -0.3824 -0.2636
  409MOL0     H53988   6.994   3.931   6.845  2.9290  0.1823 -0.9245
  410MOL0     O53989   5.114   0.905   2.427  0.5901  0.0138 -0.3902
  410MOL0     C53990   5.152   0.794   2.472  0.0081 -0.1962 -0.3229
  410MOL0     O53991   5.218   0.697   2.400 -0.3658 -0.1609 -0.8578
  410MOL0     C53992   5.224   0.688   2.264  0.9180 -0.3203 -0.8647
  410MOL0     C53993   5.337   0.627   2.218 -0.0080  1.2563  0.7786
  410MOL0     C53994   5.357   0.600   2.081 -0.5640  0.4030 -0.3224
  410MOL0     C53995   5.254   0.654   1.993 -1.2040  0.8298  1.0976
  410MOL0     O53996   5.293   0.631   1.864  0.0700 -0.4216  0.2895
  410MOL0     C53997   5.211   0.686   1.759 -0.3488  0.6105 -0.1264
  410MOL0     C53998   5.078   0.610   1.744  0.3944  0.5901  0.9276
  410MOL0     C53999   5.022   0.652   1.611  0.3129  0.4773  0.3263
  410MOL0     C54000   4.881   0.595   1.583 -0.0021  0.5220  0.3934
  410MOL0     C54001   4.821   0.610   1.437 -0.1435 -0.2211  0.6319
  410MOL0     C54002   4.678   0.554   1.427  0.1772  0.8587 -0.3196
  410MOL0     C54003   4.638   0.542   1.282  0.0911 -0.4909 -1.6715
  410MOL0     C54004   4.491   0.511   1.287 -0.0196 -0.4724  0.1137
  410MOL0     N54005   4.440   0.488   1.156 -0.7044 -0.0686 -0.4104
  410MOL0     C54006   4.420   0.595   1.069  0.3125 -0.4951 -0.3499
  410MOL0     C54007   4.380   0.538   0.953 -1.6276  0.7802 -0.2356
  410MOL0     C54008   4.327   0.608   0.828 -0.3041 -0.0771 -0.2868
  410MOL0     C54009   4.347   0.530   0.702 -0.1026  0.2387  0.5446
  410MOL0     C54010   4.299   0.621   0.588 -0.1004 -0.4470 -0.0420
  410MOL0     C54011   4.325   0.559   0.453  0.6249 -0.4205 -1.2770
  410MOL0     O54012   4.290   0.652   0.349  0.5011 -0.7090 -0.0279
  410MOL0     C54013   4.157   0.681   0.324  0.3073 -0.3657  0.3981
  410MOL0     C54014   4.085   0.591   0.250  0.3414  0.6021 -0.3742
  410MOL0     C54015   3.956   0.625   0.208 -0.1427 -0.6593  0.1463
  410MOL0     C54016   3.904   0.752   0.244  0.2015  0.8562 -0.1704
  410MOL0     C54017   3.763   0.788   0.218  0.8350 -1.1194 -1.1137
  410MOL0     O54018   3.687   0.697   0.154  0.3780  0.5235  0.0552
  410MOL0     C54019   3.548   0.700   0.173 -0.0381 -0.5435 -0.2152
  410MOL0     C54020   3.469   0.672   0.064 -0.9656  0.1012  0.2125
  410MOL0     C54021   3.332   0.671   0.082  0.6773  0.8661 -0.1003
  410MOL0     C54022   3.270   0.706   0.201 -0.1162 -1.0788  0.5375
  410MOL0     O54023   3.132   0.689   0.199 -0.4449 -0.0913  0.0815
  410MOL0     C54024   3.070   0.671   0.329 -0.3835  0.1503 -0.5112
  410MOL0     C54025   2.929   0.638   0.298 -1.0603  0.6445  0.2109
  410MOL0     C54026   2.844   0.758   0.322  0.9165 -0.1976 -0.2342
  410MOL0     C54027   2.693   0.721   0.306  0.0474  0.0322 -0.2541
  410MOL0     C54028   2.611   0.822   0.244  0.1969 -0.4825  0.3148
  410MOL0     C54029   2.460   0.781   0.256 -0.0965  0.3301  0.0754
  410MOL0     C54030   2.415   0.672   0.157  0.4395 -0.7667 -0.1562
  410MOL0     C54031   2.266   0.620   0.179 -0.0580 -0.7167 -0.2030
  410MOL0    Cl54032   2.157   0.762   0.184 -0.1809 -0.0922  0.1389
  410MOL0     C54033   3.346   0.734   0.309  0.8126  0.1473 -1.5025
  410MOL0     C54034   3.484   0.735   0.297  0.7060  1.0480 -0.6659
  410MOL0     O54035   3.720   0.904   0.251  0.1938 -0.3914  0.3869
  410MOL0     C54036   3.974   0.837   0.330 -0.3423 -0.7008  0.1965
  410MOL0     C54037   4.108   0.807   0.362 -0.1665 -0.3194 -0.0468
  410MOL0     N54038   4.384   0.409   0.972  0.7449 -0.1267 -0.5932
  410MOL0     N54039   4.416   0.368   1.094  1.4697 -0.0082 -0.6568
  410MOL0     C54040   5.150   0.718   2.039  0.0403 -0.7955 -1.1162
  410MOL0     C54041   5.134   0.731   2.178  0.6442  0.2454  0.7213
  410MOL0     C54042   5.142   0.782   2.623  0.0893  0.3075  0.0685
  410MOL0     C54043   5.206   0.667   2.684 -0.5708 -0.7847  0.1878
  410MOL0     C54044   5.186   0.645   2.822  0.4402 -0.0242 -0.3077
  410MOL0     C54045   5.114   0.738   2.900 -0.0782  0.3189 -0.4106
  410MOL0     O54046   5.104   0.718   3.036  0.7457  0.2097 -0.3906
  410MOL0     C54047   5.036   0.809   3.123  0.8816 -0.1029 -0.7608
  410MOL0     C54048   4.883   0.775   3.099 -0.4360 -0.3480 -0.2771
  410MOL0     C54049   4.855   0.623   3.096 -0.5697 -0.4794  0.6473
  410MOL0     C54050   4.881   0.579   3.236  0.0689 -0.8263 -0.2033
  410MOL0     C54051   4.813   0.457   3.283 -0.4967  0.3498  0.4329
  410MOL0     C54052   4.760   0.348   3.310  0.6720 -0.1598 -0.2775
  410MOL0     C54053   5.057   0.848   2.830  0.3520 -0.1480  0.7656
  410MOL0     C54054   5.060   0.873   2.695 -0.8668  0.4164 -0.0171
  410MOL0     H54055   5.419   0.599   2.284 -1.3568  2.5319  3.1246
  410MOL0     H54056   5.448   0.551   2.048  0.0881  0.8100  0.8043
  410MOL0     H54057   5.272   0.684   1.669 -0.1208  0.5354  0.0292
  410MOL0     H54058   5.197   0.793   1.777 -1.0535  0.7821 -1.6053
  410MOL0     H54059   5.009   0.620   1.828 -1.0558  2.7915 -0.4186
  410MOL0     H54060   5.099   0.503   1.735  1.0798  0.7845  0.0766
  410MOL0     H54061   5.092   0.604   1.542 -1.4149 -3.1019  0.8062
  410MOL0     H54062   5.013   0.760   1.596 -0.7701  0.2054 -1.1933
  410MOL0     H54063   4.891   0.488   1.601  1.1668  0.1469 -2.0588
  410MOL0     H54064   4.813   0.652   1.647  1.6601 -0.6859  3.3875
  410MOL0     H54065   4.885   0.549   1.373 -0.2754 -3.3509  3.2187
  410MOL0     H54066   4.811   0.717   1.416  0.6031 -0.1504  0.6026
  410MOL0     H54067   4.605   0.621   1.473 -0.9922  2.2642 -3.8848
  410MOL0     H54068   4.670   0.457   1.476 -0.6714  1.1595  0.1479
  410MOL0     H54069   4.659   0.641   1.241  0.9507  0.5465  1.0367
  410MOL0     H54070   4.697   0.470   1.226  0.6259  0.4277 -2.3089
  410MOL0     H54071   4.424   0.582   1.337  0.1291  0.7752 -1.3958
  410MOL0     H54072   4.480   0.421   1.349 -1.2182 -1.6550 -1.7316
  410MOL0     H54073   4.419   0.697   1.106 -0.0346  0.1626 -2.0775
  410MOL0     H54074   4.374   0.707   0.827  0.3996 -0.3990 -1.9665
  410MOL0     H54075   4.220   0.625   0.839  0.0497  1.5720  1.2582
  410MOL0     H54076   4.300   0.431   0.698  1.0550 -0.3140 -2.5087
  410MOL0     H54077   4.455   0.517   0.688  0.3324  2.8844  0.8791
  410MOL0     H54078   4.194   0.651   0.589 -0.1863 -0.7524  0.3303
  410MOL0     H54079   4.351   0.715   0.608 -3.0838  1.2197  0.5518
  410MOL0     H54080   4.266   0.467   0.446 -0.6358  0.4337 -2.6386
  410MOL0     H54081   4.428   0.527   0.442  0.2849 -0.9246 -3.4525
  410MOL0     H54082   4.104   0.487   0.229 -1.0586 -0.1716  1.8476
  410MOL0     H54083   3.889   0.565   0.148 -0.2671 -1.4543  1.0596
  410MOL0     H54084   3.515   0.647  -0.030 -1.4423 -2.5330  0.5839
  410MOL0     H54085   3.259   0.648   0.005 -0.4843 -2.0999  1.7116
  410MOL0     H54086   3.080   0.757   0.397 -4.2857  0.8054 -0.5320
  410MOL0     H54087   3.122   0.585   0.371  1.8641  1.3356 -0.6775
  410MOL0     H54088   2.909   0.552   0.362  2.8688  0.8856  2.0814
  410MOL0     H54089   2.919   0.610   0.193 -1.6629  2.4781 -0.2462
  410MOL0     H54090   2.863   0.845   0.258  1.5826 -0.8498 -0.9415
  410MOL0     H54091   2.856   0.801   0.423 -0.9348  5.2480 -1.9441
  410MOL0     H54092   2.680   0.630   0.246 -0.2767 -0.4707  0.5478
  410MOL0     H54093   2.654   0.694   0.405 -4.7249 -0.5332 -1.9956
  410MOL0     H54094   2.625   0.837   0.136 -4.1792  1.7749 -0.1963
  410MOL0     H54095   2.610   0.922   0.288  0.7109  1.3189 -3.3346
  410MOL0     H54096   2.399   0.871   0.248 -2.8183 -1.5134 -1.1759
  410MOL0     H54097   2.450   0.729   0.352 -2.2752 -3.9428 -2.2220
  410MOL0     H54098   2.428   0.731   0.065 -0.9030  1.8210  1.1862
  410MOL0     H54099   2.482   0.587   0.171 -0.3190 -1.1575  1.3394
  410MOL0     H54100   2.255   0.571   0.276 -0.1101 -0.8060 -0.2538
  410MOL0     H54101   2.232   0.552   0.100 -2.9690 -1.0428  1.1724
  410MOL0     H54102   3.300   0.772   0.400  2.4590 -2.3604  0.5230
  410MOL0     H54103   3.540   0.767   0.384 -1.5559 -0.5489  1.5420
  410MOL0     H54104   3.928   0.926   0.370  2.7275  0.5787  1.2350
  410MOL0     H54105   4.172   0.870   0.423  1.4609 -2.0182  0.0939
  410MOL0     H54106   5.075   0.749   1.967 -2.9663 -2.2999  1.1292
  410MOL0     H54107   5.047   0.778   2.222 -0.7762 -1.4066 -0.1983
  410MOL0     H54108   5.261   0.589   2.632 -0.0686  0.4457 -1.1610
  410MOL0     H54109   5.225   0.553   2.864 -1.0013 -1.1710 -1.3615
  410MOL0     H54110   5.054   0.916   3.114  1.3244  0.3590  3.3663
  410MOL0     H54111   5.063   0.795   3.229  0.2540  0.4727 -0.5167
  410MOL0     H54112   4.829   0.831   3.176  0.8240  2.1628 -1.1235
  410MOL0     H54113   4.847   0.826   3.009  0.9016 -1.8820 -1.7426
  410MOL0     H54114   4.907   0.562   3.022 -3.8104  0.5934 -2.7884
  410MOL0     H54115   4.749   0.607   3.078 -0.6709 -2.6734  2.6398
  410MOL0     H54116   4.987   0.556   3.247  0.1339  0.2074  1.8911
  410MOL0     H54117   4.876   0.657   3.313  2.6229  0.0289 -0.8005
  410MOL0     H54118   4.701   0.259   3.306 -0.1203  0.2668  1.1297
  410MOL0     H54119   4.997   0.918   2.889 -0.8006 -0.6231  0.1939
  410MOL0     H54120   5.003   0.953   2.648  0.5876  1.2696 -0.4066
  411MOL0     O54121   5.807   5.804   1.355  0.0040 -0.5200 -0.2073
  411MOL0     C54122   5.708   5.875   1.320 -1.4347 -0.3777  0.8837
  411MOL0     O54123   5.569   5.838   1.319 -0.2077  0.3525  0.0572
  411MOL0     C54124   5.539   5.714   1.369 -0.6385  0.3129 -0.2370
  411MOL0     C54125   5.572   5.600   1.290 -0.8014 -0.2538  0.3429
  411MOL0     C54126   5.544   5.467   1.322 -0.0042 -0.5715  0.2303
  411MOL0     C54127   5.463   5.448   1.434  0.4619  0.6148  0.2223
  411MOL0     O54128   5.425   5.321   1.469 -0.2930  0.3208  0.0575
  411MOL0     C54129   5.354   5.297   1.592  0.0536 -0.1730 -0.2751
  411MOL0     C54130   5.354   5.143   1.614 -0.4346  0.5290  0.5011
  411MOL0     C54131   5.282   5.071   1.502 -0.3384  0.1132  0.0215
  411MOL0     C54132   5.268   4.921   1.510 -0.2553  0.4848 -0.0581
  411MOL0     C54133   5.211   4.857   1.392 -0.0756 -0.3909  0.0013
  411MOL0     C54134   5.277   4.889   1.258 -0.8928 -0.0192  0.8016
  411MOL0     C54135   5.243   4.779   1.158 -0.2901  0.6156  0.1860
  411MOL0     C54136   5.363   4.757   1.059 -0.6079  0.8316 -0.4024
  411MOL0     N54137   5.405   4.885   0.995  0.3746 -0.2811 -0.4828
  411MOL0     C54138   5.312   4.968   0.945 -0.0496 -0.4926 -0.4275
  411MOL0     C54139   5.384   5.077   0.894 -0.5552  0.2450 -0.1130
  411MOL0     C54140   5.331   5.208   0.854 -0.0657 -0.4740 -0.4366
  411MOL0     C54141   5.231   5.262   0.960 -0.8785 -0.5329  0.4782
  411MOL0     C54142   5.304   5.293   1.092 -0.7714 -0.6414 -0.1962
  411MOL0     C54143   5.211   5.378   1.181  0.4296  0.7360  0.3079
  411MOL0     O54144   5.164   5.501   1.119 -0.1359  0.2116 -0.4050
  411MOL0     C54145   5.177   5.611   1.198  0.6205 -0.6062 -0.5425
  411MOL0     C54146   5.262   5.720   1.167  1.0329 -0.5744  0.1459
  411MOL0     C54147   5.272   5.837   1.232 -0.6594  0.0600 -0.5803
  411MOL0     C54148   5.194   5.856   1.350 -0.4639  0.3224  0.6928
  411MOL0     C54149   5.205   5.985   1.428 -0.3861 -0.7447  0.6611
  411MOL0     O54150   5.309   6.063   1.410 -0.4062 -0.2884  0.1600
  411MOL0     C54151   5.333   6.177   1.485  1.1090  0.1230 -0.0764
  411MOL0     C54152   5.336   6.165   1.630  0.3140 -0.2783 -0.1664
  411MOL0     C54153   5.374   6.269   1.714  0.4754  0.0189 -0.0610
  411MOL0     C54154   5.444   6.376   1.657 -0.1268  0.7103 -0.4522
  411MOL0     O54155   5.490   6.477   1.733 -0.2459 -0.6826  0.4051
  411MOL0     C54156   5.420   6.519   1.852  0.0082 -0.6989 -0.1742
  411MOL0     C54157   5.475   6.652   1.905 -0.4533 -0.0672  0.0837
  411MOL0     C54158   5.505   6.772   1.803 -0.6637 -0.1546 -0.5651
  411MOL0     C54159   5.541   6.888   1.902 -0.6850  0.6375 -0.3329
  411MOL0     C54160   5.535   7.026   1.831 -0.6008  0.0894 -0.5172
  411MOL0     C54161   5.619   7.051   1.700 -0.0210 -0.4935  0.9183
  411MOL0     C54162   5.607   7.192   1.644 -0.4419  0.1718  0.4460
  411MOL0     C54163   5.706   7.242   1.543 -0.0343 -0.0074 -0.5932
  411MOL0    Cl54164   5.877   7.245   1.592  0.1927 -0.0501  0.8063
  411MOL0     C54165   5.468   6.374   1.517  0.3262  1.0211  0.2993
  411MOL0     C54166   5.394   6.286   1.434 -0.4517 -0.1916 -0.5849
  411MOL0     O54167   5.118   6.006   1.508  0.7772  0.0794  0.0371
  411MOL0     C54168   5.120   5.742   1.398 -0.6506 -0.7012  0.4693
  411MOL0     C54169   5.102   5.634   1.315  0.1602  0.3376 -0.0036
  411MOL0     N54170   5.524   5.035   0.910  0.3585  0.4090  0.2212
  411MOL0     N54171   5.531   4.923   0.974  0.0075  0.7586  0.3499
  411MOL0     C54172   5.419   5.560   1.506  0.7956 -0.4410 -0.0036
  411MOL0     C54173   5.460   5.690   1.475 -0.7570  0.0779 -0.2823
  411MOL0     C54174   5.739   6.018   1.281 -0.5197 -0.4253 -0.5561
  411MOL0     C54175   5.859   6.082   1.314 -1.1188 -0.3932 -0.7399
  411MOL0     C54176   5.887   6.211   1.282 -0.1071  0.1408 -0.3606
  411MOL0     C54177   5.790   6.295   1.219 -0.2533 -0.5210 -0.5563
  411MOL0     O54178   5.802   6.429   1.203  0.3329  0.1039  0.5439
  411MOL0     C54179   5.915   6.489   1.255 -0.5930  0.9056  0.2181
  411MOL0     C54180   5.892   6.635   1.289  0.4299 -0.2219  0.2007
  411MOL0     C54181   5.774   6.657   1.383 -0.3177  0.3732 -0.8084
  411MOL0     C54182   5.730   6.802   1.408  0.0165  0.1958 -0.4746
  411MOL0     C54183   5.836   6.868   1.492  0.6302 -0.0438  0.3986
  411MOL0     C54184   5.938   6.916   1.543  0.2229  0.1101  0.0745
  411MOL0     C54185   5.669   6.238   1.193 -0.6797 -0.0076  0.6269
  411MOL0     C54186   5.643   6.099   1.211 -0.3319 -1.0730 -0.0334
  411MOL0     H54187   5.615   5.615   1.192  0.2574 -2.5978  0.4016
  411MOL0     H54188   5.574   5.380   1.263  2.2433 -0.6547  1.3869
  411MOL0     H54189   5.253   5.339   1.594 -0.3676 -1.1111 -1.1149
  411MOL0     H54190   5.405   5.346   1.676  2.3615  0.1796 -1.7881
  411MOL0     H54191   5.316   5.116   1.713  3.0123 -1.1717  1.5276
  411MOL0     H54192   5.459   5.118   1.599 -0.7878  0.5712 -2.7697
  411MOL0     H54193   5.322   5.089   1.402  0.7481 -2.5268 -0.0944
  411MOL0     H54194   5.186   5.124   1.508  0.4663  1.4532  2.8835
  411MOL0     H54195   5.363   4.870   1.526 -0.6603  0.1926  1.5127
  411MOL0     H54196   5.207   4.891   1.595  1.1019 -0.7316  0.5180
  411MOL0     H54197   5.107   4.887   1.373  1.2632  3.5606 -2.3990
  411MOL0     H54198   5.211   4.751   1.419 -5.1042 -0.6740 -0.1959
  411MOL0     H54199   5.384   4.871   1.273 -0.7119 -1.5027 -1.6258
  411MOL0     H54200   5.259   4.990   1.222 -1.6383  0.2617  1.9183
  411MOL0     H54201   5.227   4.685   1.212 -0.8328  1.3019  1.2547
  411MOL0     H54202   5.150   4.809   1.109  0.6434  2.3312 -0.5871
  411MOL0     H54203   5.332   4.681   0.986  2.2940  2.5666 -3.7431
  411MOL0     H54204   5.445   4.705   1.108 -1.9917 -3.7649 -2.4174
  411MOL0     H54205   5.206   4.960   0.969  0.4589 -1.7927  1.6546
  411MOL0     H54206   5.278   5.209   0.758 -1.3502 -1.2737  0.2303
  411MOL0     H54207   5.412   5.280   0.844 -1.6977  1.3457 -1.3738
  411MOL0     H54208   5.147   5.194   0.975 -0.1156 -1.5879  0.0035
  411MOL0     H54209   5.192   5.356   0.918 -1.7115 -0.9715  0.2444
  411MOL0     H54210   5.342   5.203   1.140 -2.1715 -2.1955 -1.8091
  411MOL0     H54211   5.394   5.352   1.077 -1.3795  0.2640 -0.3815
  411MOL0     H54212   5.249   5.380   1.283  0.2640  0.6552  0.3711
  411MOL0     H54213   5.126   5.310   1.193 -1.8116  2.8896 -1.8932
  411MOL0     H54214   5.335   5.712   1.086  2.6657  2.8205  1.0820
  411MOL0     H54215   5.345   5.916   1.216 -1.5963  1.4491  1.4956
  411MOL0     H54216   5.302   6.069   1.668 -0.9663  1.3523  3.2361
  411MOL0     H54217   5.357   6.260   1.820 -0.5746 -1.5596 -0.3196
  411MOL0     H54218   5.425   6.435   1.922 -2.5971 -1.6679 -1.0643
  411MOL0     H54219   5.314   6.528   1.826  0.1370 -0.6748 -0.7115
  411MOL0     H54220   5.570   6.629   1.953 -0.0611 -0.9226 -1.0345
  411MOL0     H54221   5.402   6.685   1.979 -4.4669 -1.7611 -2.7379
  411MOL0     H54222   5.415   6.802   1.750 -0.5678  2.9752  0.8242
  411MOL0     H54223   5.585   6.745   1.732 -3.3836 -2.6146 -2.9696
  411MOL0     H54224   5.462   6.890   1.978  0.0883  1.5402  0.4700
  411MOL0     H54225   5.638   6.877   1.951  0.7162  5.8411 -1.3331
  411MOL0     H54226   5.564   7.095   1.911 -1.0717 -1.8866  1.4632
  411MOL0     H54227   5.430   7.036   1.801 -0.5569 -1.0151 -1.0924
  411MOL0     H54228   5.583   6.974   1.630  0.5606 -1.6622  1.8603
  411MOL0     H54229   5.723   7.019   1.711  0.3746 -0.2494 -1.4870
  411MOL0     H54230   5.514   7.208   1.589 -1.0962 -1.4915  1.0221
  411MOL0     H54231   5.609   7.270   1.721  3.6492  2.8483 -1.9628
  411MOL0     H54232   5.679   7.345   1.517  0.7621  0.0604 -1.1858
  411MOL0     H54233   5.701   7.183   1.452  2.4147  1.0773 -1.5127
  411MOL0     H54234   5.519   6.452   1.461  1.7746 -1.0074 -1.3681
  411MOL0     H54235   5.404   6.284   1.326 -0.6015  2.2259 -0.7113
  411MOL0     H54236   5.059   5.743   1.487 -1.9100 -1.0542 -0.3618
  411MOL0     H54237   5.034   5.556   1.347 -0.6264  0.5439 -1.0936
  411MOL0     H54238   5.345   5.559   1.586  0.9027  3.6917  0.3656
  411MOL0     H54239   5.433   5.778   1.532  0.7121  1.2812 -1.3607
  411MOL0     H54240   5.937   6.021   1.359  0.7540  1.0503 -1.9048
  411MOL0     H54241   5.988   6.241   1.311 -0.4107  1.1301 -0.2734
  411MOL0     H54242   5.999   6.470   1.188 -0.0675 -0.3276  1.1878
  411MOL0     H54243   5.928   6.442   1.353 -2.1896 -0.5429 -0.2185
  411MOL0     H54244   5.988   6.680   1.318 -0.8084  2.0580  1.0200
  411MOL0     H54245   5.860   6.675   1.192 -1.9553 -3.7537 -0.6488
  411MOL0     H54246   5.814   6.614   1.476  0.3088  0.0314 -1.2305
  411MOL0     H54247   5.689   6.603   1.341  0.1469  1.4031 -3.2581
  411MOL0     H54248   5.725   6.863   1.317  0.8010  0.5534 -0.2825
  411MOL0     H54249   5.634   6.794   1.461 -0.8745 -0.8383 -2.1503
  411MOL0     H54250   6.023   6.939   1.604  0.7476 -1.3077 -0.1026
  411MOL0     H54251   5.586   6.298   1.157 -0.3376 -0.2307 -0.5754
  411MOL0     H54252   5.546   6.061   1.179 -0.4587 -0.1728 -0.7675
  412MOL0     O54253   0.009  10.460   4.978 -0.4834 -0.4637 -0.1580
  412MOL0     C54254   0.117  10.436   4.933  0.5203  0.4771  0.5186
  412MOL0     O54255   0.236  10.419   5.008  0.1087 -1.0010 -0.5869
  412MOL0     C54256   0.228  10.385   5.140  1.0077 -0.3696 -0.1638
  412MOL0     C54257   0.166  10.273   5.184 -0.6104  0.1342 -0.5746
  412MOL0     C54258   0.175  10.250   5.326  0.2506 -0.0569  0.8500
  412MOL0     C54259   0.235  10.333   5.412  0.7190  0.6994 -0.3405
  412MOL0     O54260   0.238  10.319   5.546  0.1608 -0.8202 -0.2964
  412MOL0     C54261   0.200  10.197   5.610 -0.1608 -0.4015 -0.7562
  412MOL0     C54262   0.236  10.203   5.755  0.0861  0.1046  0.3726
  412MOL0     C54263   0.135  10.123   5.844 -0.0364  0.0302 -0.2356
  412MOL0     C54264  -0.002  10.176   5.865 -0.1630  0.2073 -0.0718
  412MOL0     C54265  -0.111  10.102   5.936 -0.1108 -0.7159 -0.6531
  412MOL0     C54266  -0.092  10.087   6.087  0.1287 -0.1180  0.4429
  412MOL0     C54267  -0.224  10.041   6.145  0.2598  0.6133  0.3235
  412MOL0     C54268  -0.214  10.039   6.303 -0.0380 -0.0125  0.5876
  412MOL0     N54269  -0.345   9.990   6.345  0.2170  0.3616  0.5982
  412MOL0     C54270  -0.383   9.856   6.354 -0.1514 -0.3964  0.0047
  412MOL0     C54271  -0.498   9.851   6.427 -1.1092  0.1909  0.6569
  412MOL0     C54272  -0.566   9.730   6.477  0.4405 -0.6626 -1.2412
  412MOL0     C54273  -0.461   9.637   6.537  0.2354 -0.1217  0.4607
  412MOL0     C54274  -0.520   9.494   6.575  0.1980 -0.0343 -0.0301
  412MOL0     C54275  -0.402   9.406   6.635 -0.2570 -0.0466 -0.0922
  412MOL0     O54276  -0.334   9.351   6.520 -0.1326 -0.1815  0.7171
  412MOL0     C54277  -0.199   9.334   6.540 -0.0197 -0.1135 -0.5680
  412MOL0     C54278  -0.129   9.215   6.537  0.3909  1.0429 -0.6801
  412MOL0     C54279   0.005   9.195   6.567  0.4073 -0.8859  0.1739
  412MOL0     C54280   0.092   9.307   6.570  0.7838 -0.0270 -0.4149
  412MOL0     C54281   0.230   9.296   6.604 -0.5583  0.7357  0.2621
  412MOL0     O54282   0.282   9.167   6.612  0.0312  0.4102  0.0758
  412MOL0     C54283   0.410   9.148   6.650  1.5409  0.8663 -0.2772
  412MOL0     C54284   0.447   9.132   6.785  0.1905  0.1575 -0.2329
  412MOL0     C54285   0.584   9.116   6.823  0.9266 -1.0035 -0.1383
  412MOL0     C54286   0.677   9.105   6.724  0.2392  0.4849  0.3634
  412MOL0     O54287   0.804   9.067   6.748 -0.1498  0.1190  0.1768
  412MOL0     C54288   0.810   8.921   6.754  2.0385 -0.2784 -0.7354
  412MOL0     C54289   0.938   8.887   6.841  0.1100  0.1050  0.1996
  412MOL0     C54290   0.924   8.937   6.993  0.2624 -0.5063  0.3383
  412MOL0     C54291   0.805   8.862   7.053 -0.4079  0.0689  0.2025
  412MOL0     C54292   0.817   8.873   7.209 -0.2752 -0.2969  0.9862
  412MOL0     C54293   0.721   8.778   7.278 -0.0319 -0.3361  0.5130
  412MOL0     C54294   0.714   8.805   7.429  0.0835 -0.1326 -0.0065
  412MOL0     C54295   0.636   8.935   7.476 -0.2322  0.8515  0.2590
  412MOL0    Cl54296   0.455   8.920   7.460 -0.1281 -0.4672 -0.1230
  412MOL0     C54297   0.649   9.124   6.587 -0.5742 -0.6167 -0.5896
  412MOL0     C54298   0.516   9.150   6.555 -0.2565  0.5031  0.1910
  412MOL0     O54299   0.297   9.401   6.602 -0.5492  0.2503 -0.4203
  412MOL0     C54300   0.021   9.436   6.569  0.3009  0.4193  0.4085
  412MOL0     C54301  -0.117   9.447   6.555 -0.0180  0.8018  0.1436
  412MOL0     N54302  -0.524   9.987   6.453 -0.1494  0.2450  0.3408
  412MOL0     N54303  -0.432  10.062   6.418  0.4111  0.1400 -0.0827
  412MOL0     C54304   0.315  10.434   5.359 -0.0430  0.3120  0.7032
  412MOL0     C54305   0.302  10.469   5.228 -0.4019 -0.4981  1.3425
  412MOL0     C54306   0.136  10.457   4.783  0.7206  0.7054 -0.5413
  412MOL0     C54307   0.259  10.482   4.718  0.4003  0.0664  0.4817
  412MOL0     C54308   0.274  10.506   4.583  0.6065 -1.4886 -0.5239
  412MOL0     C54309   0.160  10.487   4.506  0.1304 -0.0764 -0.1264
  412MOL0     O54310   0.169  10.522   4.375 -0.3656  0.2452  0.4174
  412MOL0     C54311   0.234  10.419   4.302  0.8032  0.3283 -0.1335
  412MOL0     C54312   0.227  10.463   4.155  0.1857 -0.9482 -0.2273
  412MOL0     C54313   0.260  10.363   4.047  0.0643 -0.4041 -1.0346
  412MOL0     C54314   0.253  10.443   3.915  0.6580 -0.9432 -0.6901
  412MOL0     C54315   0.287  10.355   3.809  0.6983  1.0446 -1.1120
  412MOL0     C54316   0.308  10.282   3.719  0.3227  0.0579 -0.1751
  412MOL0     C54317   0.044  10.440   4.560  0.0444  0.6426 -0.3050
  412MOL0     C54318   0.026  10.437   4.699 -0.0041 -0.1663  0.0516
  412MOL0     H54319   0.131  10.187   5.127  0.9965 -1.9154  1.3190
  412MOL0     H54320   0.136  10.155   5.362  4.7351 -3.1784 -1.5899
  412MOL0     H54321   0.253  10.113   5.565  3.0311  0.9636  0.1708
  412MOL0     H54322   0.094  10.181   5.589 -0.4905  1.3336 -0.5986
  412MOL0     H54323   0.243  10.305   5.793  0.0446  0.2942 -0.1283
  412MOL0     H54324   0.335  10.158   5.765  0.3499  0.5599 -0.1904
  412MOL0     H54325   0.190  10.096   5.935  1.3549 -1.6630 -1.4945
  412MOL0     H54326   0.134  10.023   5.798  1.7769  0.4765 -1.3650
  412MOL0     H54327   0.010  10.270   5.920  2.8439  1.6917 -2.8835
  412MOL0     H54328  -0.044  10.205   5.769 -1.5114 -0.9504  0.1269
  412MOL0     H54329  -0.127  10.002   5.894  0.3791 -1.0250 -0.1168
  412MOL0     H54330  -0.189  10.175   5.916  2.4483  1.6834 -2.6554
  412MOL0     H54331  -0.081  10.180   6.143  0.5314 -1.3654  2.5310
  412MOL0     H54332  -0.008  10.018   6.104  0.5576 -0.9142 -3.7309
  412MOL0     H54333  -0.307  10.107   6.118  0.2015  1.2330  1.9235
  412MOL0     H54334  -0.245   9.936   6.124 -0.5828 -0.0233  3.7915
  412MOL0     H54335  -0.207  10.140   6.346 -0.1314 -1.2761  3.8358
  412MOL0     H54336  -0.139   9.975   6.350 -1.5119 -0.8980  1.8177
  412MOL0     H54337  -0.336   9.773   6.303 -0.0978 -0.6077  0.4026
  412MOL0     H54338  -0.633   9.687   6.402 -2.4901  2.2245 -0.5337
  412MOL0     H54339  -0.630   9.757   6.562 -1.0192 -2.8312 -1.5647
  412MOL0     H54340  -0.399   9.690   6.609  2.4431 -2.3782  0.3558
  412MOL0     H54341  -0.396   9.600   6.458 -1.2579 -1.5713 -0.1571
  412MOL0     H54342  -0.603   9.496   6.646 -0.8304 -0.5172 -1.1638
  412MOL0     H54343  -0.539   9.435   6.485  5.8121 -0.3353 -1.3845
  412MOL0     H54344  -0.452   9.319   6.678  0.9642 -0.0874  1.3366
  412MOL0     H54345  -0.331   9.453   6.704  1.6462 -1.7914 -0.7842
  412MOL0     H54346  -0.178   9.118   6.535  0.2744  1.0905 -0.2813
  412MOL0     H54347   0.034   9.094   6.596  2.4868 -1.0517 -2.1251
  412MOL0     H54348   0.374   9.158   6.861 -1.4804 -1.5166 -1.1850
  412MOL0     H54349   0.619   9.113   6.925 -0.1050  0.3169  0.2790
  412MOL0     H54350   0.804   8.864   6.662  0.4046 -0.1458 -0.7473
  412MOL0     H54351   0.719   8.890   6.806  1.3225  0.0340 -1.7797
  412MOL0     H54352   1.019   8.947   6.800 -0.7124  1.6054  0.6976
  412MOL0     H54353   0.944   8.778   6.839 -2.1352 -0.0949  0.9200
  412MOL0     H54354   0.911   9.045   7.004  0.6880 -0.4844  0.6416
  412MOL0     H54355   1.018   8.913   7.042  0.3662 -0.7834  0.0113
  412MOL0     H54356   0.720   8.919   7.015 -0.0079  1.7320  1.6447
  412MOL0     H54357   0.795   8.755   7.035 -3.5928  0.2783  0.1717
  412MOL0     H54358   0.800   8.977   7.241 -0.7476  0.2087 -0.7930
  412MOL0     H54359   0.918   8.851   7.245 -0.8226 -1.9195  1.6098
  412MOL0     H54360   0.756   8.678   7.250 -2.2214  0.1227 -4.8796
  412MOL0     H54361   0.623   8.784   7.230  1.4970  2.5205 -2.6542
  412MOL0     H54362   0.658   8.715   7.457  0.6265 -0.9611 -1.4581
  412MOL0     H54363   0.811   8.817   7.478  0.7963 -0.7274 -1.2110
  412MOL0     H54364   0.675   9.021   7.422  0.7551  1.7427  2.2744
  412MOL0     H54365   0.653   8.948   7.583  1.8283  5.3199 -0.3631
  412MOL0     H54366   0.726   9.120   6.510 -0.0456 -0.8107 -0.0609
  412MOL0     H54367   0.496   9.164   6.449 -1.3137 -3.9996 -0.3944
  412MOL0     H54368   0.077   9.527   6.549 -2.5040  1.5378 -3.3648
  412MOL0     H54369  -0.145   9.550   6.533  1.2691  1.6331  2.1069
  412MOL0     H54370   0.384  10.501   5.409 -1.8455  2.2369  0.7033
  412MOL0     H54371   0.352  10.555   5.186  0.3994  0.1463  3.5201
  412MOL0     H54372   0.346  10.489   4.782 -0.8506  4.4698  2.0677
  412MOL0     H54373   0.354  10.569   4.545 -0.2949 -1.3969 -2.3813
  412MOL0     H54374   0.175  10.327   4.305 -1.2331  1.5696 -0.3209
  412MOL0     H54375   0.335  10.393   4.337  0.5680  2.7353  2.6951
  412MOL0     H54376   0.141  10.525   4.130  0.3716 -1.3191 -1.9176
  412MOL0     H54377   0.301  10.543   4.152 -1.4121  0.5548 -2.1439
  412MOL0     H54378   0.175  10.294   4.039 -1.7546  1.5735  0.2267
  412MOL0     H54379   0.346  10.306   4.082  1.3196  1.0198 -1.7159
  412MOL0     H54380   0.153  10.478   3.888  0.7873  0.1132  0.1344
  412MOL0     H54381   0.323  10.527   3.921 -0.0936 -0.3123 -0.5495
  412MOL0     H54382   0.332  10.209   3.644  1.3315 -1.0531  1.1822
  412MOL0     H54383  -0.040  10.412   4.497  1.9546  1.1229 -3.2632
  412MOL0     H54384  -0.070  10.442   4.750  0.7664  2.0214  1.4178
  413MOL0     O54385   8.556   3.961   4.573  0.4992 -0.0216 -0.6946
  413MOL0     C54386   8.654   3.998   4.638 -0.4910 -0.0766 -0.6995
  413MOL0     O54387   8.659   4.019   4.777 -0.5172  0.4936 -0.1848
  413MOL0     C54388   8.538   3.977   4.840 -0.9116 -0.0920  0.2817
  413MOL0     C54389   8.436   4.062   4.883 -0.2014  0.5424 -0.4486
  413MOL0     C54390   8.328   4.006   4.954  0.9459 -0.6970 -0.0734
  413MOL0     C54391   8.305   3.870   4.981 -0.2485  0.6171 -0.6891
  413MOL0     O54392   8.185   3.827   5.032  0.0463 -0.5734 -0.3158
  413MOL0     C54393   8.127   3.892   5.154 -1.0967 -0.7495  0.5377
  413MOL0     C54394   8.027   3.795   5.213 -0.5023  0.5066  0.2682
  413MOL0     C54395   7.899   3.782   5.148 -0.1693 -0.0611  1.0260
  413MOL0     C54396   7.795   3.687   5.222  0.2687 -0.6868  0.6457
  413MOL0     C54397   7.658   3.738   5.206  0.3067  0.5150 -0.6788
  413MOL0     C54398   7.552   3.642   5.268  0.2975  1.4326  0.4874
  413MOL0     C54399   7.486   3.566   5.143  0.8762  0.0843 -0.2967
  413MOL0     C54400   7.386   3.466   5.183 -0.3066 -0.3674  0.0848
  413MOL0     N54401   7.255   3.524   5.211  0.1843 -0.7201 -0.0059
  413MOL0     C54402   7.148   3.513   5.119 -0.5145  0.0082 -0.1942
  413MOL0     C54403   7.042   3.571   5.182 -0.5043 -0.1382 -0.9369
  413MOL0     C54404   6.898   3.597   5.124 -0.2116  0.3349  0.7843
  413MOL0     C54405   6.837   3.482   5.038 -0.9935  0.0516  0.0760
  413MOL0     C54406   6.807   3.358   5.112 -0.2901  1.2238 -0.4228
  413MOL0     C54407   6.750   3.249   5.011  0.6647 -0.0643 -1.0571
  413MOL0     O54408   6.825   3.255   4.890 -0.1912  1.1604 -0.1144
  413MOL0     C54409   6.954   3.210   4.882  0.2322 -0.0488 -0.1894
  413MOL0     C54410   7.034   3.234   4.773  0.5482 -0.8754 -0.1834
  413MOL0     C54411   7.162   3.186   4.758 -0.3423 -0.3418  0.6165
  413MOL0     C54412   7.221   3.097   4.854  0.2401  0.5380 -0.0808
  413MOL0     C54413   7.359   3.043   4.843 -0.3765  0.1869 -0.3564
  413MOL0     O54414   7.406   2.985   4.950 -1.1909  0.7656  0.2664
  413MOL0     C54415   7.548   2.959   4.954 -0.8080 -0.7999  0.6142
  413MOL0     C54416   7.583   2.819   4.966 -0.5408  0.2608 -0.0383
  413MOL0     C54417   7.719   2.778   4.968 -0.5480 -0.9425  0.7401
  413MOL0     C54418   7.817   2.877   4.941 -0.3997  0.4520 -0.1865
  413MOL0     O54419   7.952   2.855   4.921  0.1933  0.3041 -0.3796
  413MOL0     C54420   8.012   2.733   4.955  0.8477 -0.5923  0.2935
  413MOL0     C54421   8.169   2.738   4.934  0.6257  0.2882  0.7684
  413MOL0     C54422   8.224   2.788   4.795 -0.4614  0.4732  0.2231
  413MOL0     C54423   8.373   2.758   4.786 -0.1112 -0.7627 -0.0077
  413MOL0     C54424   8.432   2.826   4.660  0.1717 -0.3087  0.5115
  413MOL0     C54425   8.468   2.975   4.699 -0.2118  0.0580 -0.2376
  413MOL0     C54426   8.493   3.057   4.580 -0.2655  0.3447  0.3226
  413MOL0     C54427   8.614   3.029   4.493 -0.8861  0.4209  0.3790
  413MOL0    Cl54428   8.767   3.082   4.566 -0.2817  0.5104 -0.2549
  413MOL0     C54429   7.777   3.013   4.931 -0.3410 -0.0129  0.3118
  413MOL0     C54430   7.648   3.059   4.934  0.9624  0.1904 -0.7262
  413MOL0     O54431   7.428   3.093   4.757  0.5200 -0.5451  0.8348
  413MOL0     C54432   7.135   3.058   4.955 -0.2353 -0.1598  0.6009
  413MOL0     C54433   7.006   3.117   4.968  1.1350 -1.2482 -0.7519
  413MOL0     N54434   7.098   3.611   5.303  0.4173  0.0856  0.3038
  413MOL0     N54435   7.217   3.588   5.315  0.1418  0.0724 -0.1148
  413MOL0     C54436   8.415   3.789   4.946  0.8004 -0.4859  0.6219
  413MOL0     C54437   8.520   3.844   4.885 -0.1897  0.0868  0.2978
  413MOL0     C54438   8.782   4.011   4.555 -0.1006  1.1180  0.7228
  413MOL0     C54439   8.898   4.030   4.619  0.1620  0.2209 -0.0340
  413MOL0     C54440   9.016   4.019   4.546 -0.3829 -1.1070 -0.0592
  413MOL0     C54441   9.026   3.995   4.410 -0.4065 -0.8245  0.8766
  413MOL0     O54442   9.143   3.993   4.325  0.3301  0.0300 -0.6191
  413MOL0     C54443   9.262   4.043   4.379 -1.0745  0.3248 -0.1454
  413MOL0     C54444   9.373   4.029   4.285 -1.2077  0.2027 -0.3501
  413MOL0     C54445   9.506   4.090   4.341  0.7772 -0.0956 -0.2046
  413MOL0     C54446   9.573   4.030   4.459 -0.9663  1.2252  0.0177
  413MOL0     C54447   9.712   4.081   4.484  0.2643  0.2374  0.8953
  413MOL0     C54448   9.813   4.143   4.506  0.5351  0.0392  0.1907
  413MOL0     C54449   8.907   3.963   4.353  0.1890  0.1344 -1.0311
  413MOL0     C54450   8.784   3.965   4.421 -0.3874  0.2349 -0.0720
  413MOL0     H54451   8.449   4.169   4.866 -1.2738  0.9254  0.8899
  413MOL0     H54452   8.249   4.072   4.990  0.6817 -1.7742  1.3836
  413MOL0     H54453   8.088   3.991   5.128  2.8960  0.3899 -2.0688
  413MOL0     H54454   8.211   3.910   5.223  2.4587  0.0540 -3.5852
  413MOL0     H54455   8.000   3.849   5.304 -0.9024  3.9207 -1.7239
  413MOL0     H54456   8.075   3.697   5.222  0.5468  1.0092  0.3005
  413MOL0     H54457   7.915   3.745   5.046  0.5292  0.1026  1.0747
  413MOL0     H54458   7.861   3.880   5.120 -4.2596 -0.6870  3.5337
  413MOL0     H54459   7.807   3.592   5.168  1.6290 -0.1754 -0.0217
  413MOL0     H54460   7.816   3.684   5.329  1.1462  2.2700  0.6544
  413MOL0     H54461   7.649   3.771   5.102  1.9730  2.1891 -0.3587
  413MOL0     H54462   7.653   3.829   5.268 -1.1955 -1.0685  1.6902
  413MOL0     H54463   7.480   3.706   5.321 -3.2597 -0.2327 -1.9239
  413MOL0     H54464   7.586   3.562   5.335 -1.0424 -0.6917 -1.2199
  413MOL0     H54465   7.438   3.629   5.067 -1.8760 -4.1271 -2.4272
  413MOL0     H54466   7.559   3.511   5.084 -2.0367 -3.5230 -0.9230
  413MOL0     H54467   7.423   3.423   5.277 -0.3555 -0.4601  0.0619
  413MOL0     H54468   7.380   3.391   5.103 -3.4628 -0.9998  0.7885
  413MOL0     H54469   7.143   3.454   5.029  0.7238  1.2047 -1.0927
  413MOL0     H54470   6.914   3.683   5.058  1.2162 -1.1437 -0.9079
  413MOL0     H54471   6.831   3.617   5.208 -0.3819  0.2286  0.6747
  413MOL0     H54472   6.923   3.482   4.970 -0.4603 -1.1243  0.7182
  413MOL0     H54473   6.747   3.508   4.981 -1.1806 -4.7632 -2.4223
  413MOL0     H54474   6.898   3.315   5.156 -0.9833  0.2076  0.0668
  413MOL0     H54475   6.731   3.379   5.188  0.3631  1.2490  0.2364
  413MOL0     H54476   6.649   3.285   4.988 -0.0467 -0.7700  0.7720
  413MOL0     H54477   6.741   3.155   5.067 -3.0858  0.7653 -0.0147
  413MOL0     H54478   6.989   3.290   4.692 -1.2825 -4.4544 -1.8638
  413MOL0     H54479   7.220   3.218   4.672 -0.3351 -0.9786  0.3752
  413MOL0     H54480   7.510   2.747   4.999  2.0473 -2.7203 -0.3460
  413MOL0     H54481   7.734   2.674   4.996  2.7768 -0.6960  0.2024
  413MOL0     H54482   7.971   2.650   4.897  0.1537  0.1819 -0.3616
  413MOL0     H54483   7.992   2.709   5.059  3.8373 -1.8020  0.6943
  413MOL0     H54484   8.195   2.635   4.957 -0.9832  0.1033  1.9042
  413MOL0     H54485   8.211   2.803   5.012  1.1569  4.0379 -2.3518
  413MOL0     H54486   8.193   2.889   4.763  1.0997  0.8872 -0.0502
  413MOL0     H54487   8.191   2.720   4.717  0.8066 -2.6250  2.1918
  413MOL0     H54488   8.428   2.785   4.876 -1.9859 -0.2049  1.0205
  413MOL0     H54489   8.372   2.649   4.777  0.4234 -0.6153 -3.9258
  413MOL0     H54490   8.374   2.797   4.572  1.9022 -1.8500 -0.1923
  413MOL0     H54491   8.529   2.776   4.650  0.1233 -0.3058 -0.0161
  413MOL0     H54492   8.561   2.976   4.757  1.1517  1.2139 -2.3035
  413MOL0     H54493   8.389   3.018   4.761  0.2417  0.5558  0.0027
  413MOL0     H54494   8.408   3.074   4.514  0.2629 -0.0132 -0.4667
  413MOL0     H54495   8.524   3.152   4.624 -1.2341  2.4594 -3.1815
  413MOL0     H54496   8.609   3.094   4.405 -0.2138  2.1396  1.5406
  413MOL0     H54497   8.620   2.923   4.468 -2.5414  0.5291 -0.5913
  413MOL0     H54498   7.844   3.095   4.907 -1.1428  0.1069 -1.7698
  413MOL0     H54499   7.619   3.164   4.929  0.3408  0.2473  2.2872
  413MOL0     H54500   7.171   2.980   5.021 -0.3094  0.9366  1.9874
  413MOL0     H54501   6.947   3.069   5.046  0.8628 -1.7873 -1.2789
  413MOL0     H54502   8.409   3.684   4.974 -3.0757 -0.3657  0.8081
  413MOL0     H54503   8.602   3.774   4.875  0.0421  0.1794  1.4538
  413MOL0     H54504   8.886   4.036   4.727  4.0016 -2.2386  0.7026
  413MOL0     H54505   9.100   4.036   4.612 -0.8881  0.3126  0.2681
  413MOL0     H54506   9.282   3.985   4.469 -1.2638 -0.7459 -0.7785
  413MOL0     H54507   9.254   4.150   4.400  1.7001  0.2685  1.7295
  413MOL0     H54508   9.394   3.922   4.274  0.9333  0.5794 -0.3820
  413MOL0     H54509   9.353   4.073   4.187  1.5811 -1.6947 -1.9091
  413MOL0     H54510   9.478   4.190   4.373 -1.9629 -0.5499 -0.9654
  413MOL0     H54511   9.586   4.094   4.267 -0.0179  1.5011 -1.0130
  413MOL0     H54512   9.509   4.055   4.544  0.1968  2.0793  0.6722
  413MOL0     H54513   9.573   3.921   4.455  0.3826  1.1432  1.3879
  413MOL0     H54514   9.905   4.197   4.517 -0.4753  1.6134  1.4432
  413MOL0     H54515   8.912   3.915   4.256  0.0554 -2.0039 -0.0370
  413MOL0     H54516   8.694   3.932   4.369 -2.8660  1.0221  3.3461
  414MOL0     O54517   3.556  10.925   5.038  0.0855 -0.3336 -0.9874
  414MOL0     C54518   3.507  11.016   5.110  0.1729 -0.0103 -0.7955
  414MOL0     O54519   3.571  11.125   5.166  0.5314  0.1481  0.1263
  414MOL0     C54520   3.694  11.155   5.127 -0.2754  0.0989  0.1468
  414MOL0     C54521   3.746  11.148   4.995  0.3759  1.1562  1.1592
  414MOL0     C54522   3.878  11.178   4.965  0.9411  0.1337 -1.0914
  414MOL0     C54523   3.971  11.197   5.073  0.0842 -0.0122  0.6418
  414MOL0     O54524   4.108  11.217   5.041 -0.3176 -0.1876  0.2107
  414MOL0     C54525   4.203  11.236   5.148  0.0707  0.3684  0.6560
  414MOL0     C54526   4.341  11.258   5.094 -0.2211 -1.3125 -0.2396
  414MOL0     C54527   4.460  11.244   5.196 -0.5299  0.0550  0.9769
  414MOL0     C54528   4.494  11.106   5.229  0.9387  0.0013 -0.0862
  414MOL0     C54529   4.645  11.096   5.275  0.1575 -0.2247  0.4360
  414MOL0     C54530   4.664  11.117   5.427  0.4456  0.1274 -0.1840
  414MOL0     C54531   4.812  11.144   5.471  0.6420 -0.0707  0.9030
  414MOL0     C54532   4.913  11.052   5.413  0.1740  0.1496 -0.5449
  414MOL0     N54533   5.029  11.043   5.505  0.2592  0.5990 -0.0893
  414MOL0     C54534   5.039  10.943   5.611  0.1281 -0.7212  1.9419
  414MOL0     C54535   5.168  10.953   5.653 -0.8373 -0.5043  0.6648
  414MOL0     C54536   5.246  10.887   5.770 -0.9029 -0.4920 -0.0042
  414MOL0     C54537   5.168  10.832   5.893 -0.3798  0.4447 -0.5072
  414MOL0     C54538   5.167  10.917   6.029 -0.3192  0.1617 -0.1206
  414MOL0     C54539   5.110  11.056   6.003  0.6531  0.3630  1.2258
  414MOL0     O54540   4.968  11.036   5.986  0.2195  0.2496  0.3346
  414MOL0     C54541   4.888  11.116   5.915  0.6247  0.4437 -0.3858
  414MOL0     C54542   4.908  11.245   5.882 -0.1316 -0.3110  0.6194
  414MOL0     C54543   4.807  11.320   5.824 -0.8083  0.8928 -0.7895
  414MOL0     C54544   4.678  11.270   5.811  0.3750 -0.2485  0.8946
  414MOL0     C54545   4.574  11.353   5.743  0.0889  0.6132  0.2695
  414MOL0     O54546   4.454  11.295   5.712 -0.1522 -0.2889 -0.2988
  414MOL0     C54547   4.354  11.352   5.642  0.4345  0.0565  0.5362
  414MOL0     C54548   4.235  11.291   5.681  0.3159 -0.4350 -0.0872
  414MOL0     C54549   4.123  11.336   5.611  0.1434 -0.4829  0.5510
  414MOL0     C54550   4.137  11.413   5.496  0.4784 -1.4971 -0.0458
  414MOL0     O54551   4.030  11.450   5.438  0.3146  0.6320  0.3390
  414MOL0     C54552   3.966  11.564   5.486 -0.4021  0.4471  0.1441
  414MOL0     C54553   3.840  11.584   5.397  0.6556 -0.2783  0.0649
  414MOL0     C54554   3.853  11.570   5.243 -0.3908  0.7721 -0.2579
  414MOL0     C54555   3.738  11.639   5.165 -0.5963 -0.3865 -0.1580
  414MOL0     C54556   3.784  11.664   5.019  0.6818  0.6735 -0.2812
  414MOL0     C54557   3.882  11.773   4.987  0.0849  0.0799 -0.5342
  414MOL0     C54558   3.895  11.805   4.834 -0.7786  0.3567  0.8527
  414MOL0     C54559   4.010  11.900   4.806 -1.0928 -0.9474 -0.5842
  414MOL0    Cl54560   3.995  11.957   4.635 -0.3840 -0.4428  0.0312
  414MOL0     C54561   4.256  11.459   5.447  0.4546 -0.6063 -1.0354
  414MOL0     C54562   4.369  11.430   5.528  0.2923  0.1115  0.7055
  414MOL0     O54563   4.598  11.473   5.715  0.2991  0.2830  0.1876
  414MOL0     C54564   4.654  11.135   5.849 -0.6763 -0.2813  0.3974
  414MOL0     C54565   4.760  11.055   5.898 -0.4510  0.3728 -0.4868
  414MOL0     N54566   5.231  11.052   5.576  0.6268  0.4179 -0.2001
  414MOL0     N54567   5.154  11.096   5.487 -0.1027  0.3748  0.1047
  414MOL0     C54568   3.918  11.201   5.200  0.2855 -0.8872 -0.6776
  414MOL0     C54569   3.782  11.184   5.221 -0.8272  0.5280 -0.6276
  414MOL0     C54570   3.364  11.010   5.114 -0.0829  0.6428 -0.0329
  414MOL0     C54571   3.284  11.113   5.159 -0.1320  0.0245 -0.3230
  414MOL0     C54572   3.142  11.104   5.151  0.0966 -0.5725 -0.2029
  414MOL0     C54573   3.078  10.981   5.119  0.2159  0.4201  1.0483
  414MOL0     O54574   2.944  10.963   5.135 -0.5492 -0.5551 -0.2366
  414MOL0     C54575   2.866  10.970   5.022 -0.3121  0.0524  0.6493
  414MOL0     C54576   2.718  10.939   5.069  0.6047  0.6897  0.5358
  414MOL0     C54577   2.641  10.892   4.941  0.0793  0.4038  0.5146
  414MOL0     C54578   2.522  10.816   4.998  0.8982 -0.2954 -0.9200
  414MOL0     C54579   2.421  10.799   4.897  0.2968 -0.0506 -0.3426
  414MOL0     C54580   2.349  10.778   4.803  0.0765  1.0453  0.0692
  414MOL0     C54581   3.169  10.873   5.079 -0.1910  0.2283  0.0996
  414MOL0     C54582   3.301  10.883   5.074  0.1535 -0.3688 -0.3528
  414MOL0     H54583   3.668  11.133   4.921  1.4040 -1.3056  0.5013
  414MOL0     H54584   3.898  11.179   4.859  0.2522  2.4126 -1.2512
  414MOL0     H54585   4.196  11.143   5.206 -3.3339 -0.5522 -0.9714
  414MOL0     H54586   4.164  11.312   5.215  2.0621  0.5180  1.7011
  414MOL0     H54587   4.359  11.360   5.058  2.4493 -2.4281 -2.4279
  414MOL0     H54588   4.336  11.188   5.010 -2.4872 -2.8451  1.0694
  414MOL0     H54589   4.429  11.283   5.294 -3.0397 -0.7510  0.5706
  414MOL0     H54590   4.546  11.290   5.148 -0.8759 -1.5810 -1.3771
  414MOL0     H54591   4.427  11.062   5.303 -1.0311  0.6568 -1.4098
  414MOL0     H54592   4.488  11.041   5.141  0.0981 -3.1564  2.1404
  414MOL0     H54593   4.706  11.168   5.221 -0.8751 -1.4430 -2.5974
  414MOL0     H54594   4.689  10.999   5.252 -3.0968 -1.8515  0.4403
  414MOL0     H54595   4.641  11.028   5.486 -1.4411 -1.4635 -3.0870
  414MOL0     H54596   4.603  11.201   5.462 -1.4977 -1.1932 -0.2248
  414MOL0     H54597   4.848  11.243   5.440 -0.9005 -0.0701 -1.1611
  414MOL0     H54598   4.812  11.141   5.580  1.8240 -4.1454  0.9319
  414MOL0     H54599   4.949  11.096   5.319 -0.9730  3.0644  0.2475
  414MOL0     H54600   4.879  10.950   5.395 -0.7642  0.4796 -0.7130
  414MOL0     H54601   4.957  10.887   5.654 -0.1402 -3.3011 -1.4732
  414MOL0     H54602   5.342  10.931   5.797 -0.1366 -1.1848 -1.4870
  414MOL0     H54603   5.299  10.800   5.731 -2.0752 -0.5028 -1.6778
  414MOL0     H54604   5.190  10.727   5.913  0.6051  0.0890 -3.0557
  414MOL0     H54605   5.067  10.823   5.853 -0.2530 -0.7435 -0.6020
  414MOL0     H54606   5.101  10.865   6.099  0.9114  2.0979  2.6952
  414MOL0     H54607   5.262  10.922   6.084  0.4122 -0.6085 -1.2758
  414MOL0     H54608   5.154  11.117   5.924  1.5022 -0.8657  0.7310
  414MOL0     H54609   5.133  11.119   6.090  0.7966 -0.2872  1.6686
  414MOL0     H54610   5.000  11.297   5.908 -0.9107  1.4113  0.0991
  414MOL0     H54611   4.833  11.419   5.789  3.0552  0.6173  0.7289
  414MOL0     H54612   4.218  11.218   5.760  1.2024  0.3769  0.8872
  414MOL0     H54613   4.028  11.306   5.655  0.4008 -0.2153  1.3044
  414MOL0     H54614   4.023  11.657   5.491 -1.8672  1.3099  1.7829
  414MOL0     H54615   3.934  11.545   5.589  0.1016  2.5826  0.7352
  414MOL0     H54616   3.804  11.683   5.426 -1.3743 -1.4369  1.6818
  414MOL0     H54617   3.765  11.512   5.430 -1.1942  0.8982 -1.3422
  414MOL0     H54618   3.863  11.463   5.225 -2.4234  0.3259  0.9185
  414MOL0     H54619   3.952  11.612   5.225 -1.0634  2.6678  0.2069
  414MOL0     H54620   3.653  11.571   5.165 -0.6209 -0.5134 -3.4048
  414MOL0     H54621   3.697  11.728   5.214 -1.2995  0.9868 -2.9815
  414MOL0     H54622   3.694  11.685   4.961 -0.5315 -0.6850  1.0262
  414MOL0     H54623   3.820  11.569   4.980 -0.9965  0.3484 -1.1191
  414MOL0     H54624   3.984  11.755   5.022  0.3599  2.3153 -0.0025
  414MOL0     H54625   3.857  11.867   5.037  1.6223  1.2559 -1.8282
  414MOL0     H54626   3.910  11.712   4.779  0.0209  0.4706  0.8749
  414MOL0     H54627   3.810  11.863   4.797  1.8972  3.5339 -0.8930
  414MOL0     H54628   4.099  11.839   4.824 -0.2099  0.9857  2.1977
  414MOL0     H54629   4.000  11.981   4.878  0.6085 -0.1437 -1.1998
  414MOL0     H54630   4.255  11.519   5.356  0.9015 -1.7511 -1.8112
  414MOL0     H54631   4.465  11.469   5.495  0.7308 -1.3326  0.1726
  414MOL0     H54632   4.554  11.095   5.833 -1.9617  3.6995 -4.2861
  414MOL0     H54633   4.744  10.950   5.924  0.3876  0.7331  1.6818
  414MOL0     H54634   3.989  11.216   5.281 -1.9016 -1.6067  1.4892
  414MOL0     H54635   3.730  11.155   5.311 -2.1322 -0.8335 -1.7739
  414MOL0     H54636   3.330  11.206   5.191 -1.7170 -0.1624  2.8934
  414MOL0     H54637   3.077  11.183   5.188  0.9283  0.3769 -0.7241
  414MOL0     H54638   2.893  10.893   4.949 -2.3274  0.0167 -0.1290
  414MOL0     H54639   2.863  11.063   4.965  0.8932 -0.1258  0.2780
  414MOL0     H54640   2.716  10.863   5.148  1.7004 -2.0488 -1.8685
  414MOL0     H54641   2.661  11.025   5.105 -1.2239 -0.3029  0.1408
  414MOL0     H54642   2.699  10.822   4.880  1.9379  2.0169  0.3173
  414MOL0     H54643   2.619  10.974   4.873  2.0302  1.0530  0.6052
  414MOL0     H54644   2.558  10.719   5.033 -0.0947  0.0567  1.1745
  414MOL0     H54645   2.478  10.875   5.078  0.8356  1.6360 -2.2950
  414MOL0     H54646   2.276  10.759   4.727  0.3810 -2.4202  0.4914
  414MOL0     H54647   3.119  10.781   5.053  0.0240 -0.1369  0.9496
  414MOL0     H54648   3.361  10.799   5.041  0.5283 -0.2248 -0.0423
  415MOL0     O54649   3.863  10.047   1.135 -0.5659  0.2042  1.1609
  415MOL0     C54650   3.861   9.936   1.082  0.6394  0.0879  0.1365
  415MOL0     O54651   3.963   9.873   1.017  0.7025 -0.8452  0.0390
  415MOL0     C54652   4.093   9.915   1.043  0.9949 -1.0392  0.9911
  415MOL0     C54653   4.133  10.056   1.035 -0.3533  0.1345 -0.2024
  415MOL0     C54654   4.271  10.095   1.068  0.6270 -0.4687 -0.1444
  415MOL0     C54655   4.351  10.004   1.115 -0.8258  0.9091  0.3659
  415MOL0     O54656   4.478  10.048   1.163 -0.2669  0.1133  0.3604
  415MOL0     C54657   4.556   9.972   1.262 -0.3453 -0.4022  0.3678
  415MOL0     C54658   4.702  10.022   1.277 -0.7267  0.1051  1.0040
  415MOL0     C54659   4.773   9.971   1.399 -0.1204 -0.2700  0.1451
  415MOL0     C54660   4.719  10.056   1.517 -0.5138  0.0344 -0.9165
  415MOL0     C54661   4.797  10.040   1.645 -0.6139  0.5393 -0.8506
  415MOL0     C54662   4.736  10.122   1.756  0.1126 -0.0375 -0.4374
  415MOL0     C54663   4.832  10.116   1.880 -0.3401 -0.3729  0.0812
  415MOL0     C54664   4.789  10.207   1.985  0.6280 -0.2554  0.0000
  415MOL0     N54665   4.851  10.178   2.113 -0.7777 -0.1979 -0.5697
  415MOL0     C54666   4.840  10.047   2.166  0.2640 -0.3055 -0.2642
  415MOL0     C54667   4.916  10.054   2.287  0.6084  0.9375  0.2515
  415MOL0     C54668   4.928   9.945   2.392 -0.3561 -1.1528  0.1429
  415MOL0     C54669   4.981   9.813   2.324  0.1653  0.2350 -0.7045
  415MOL0     C54670   4.976   9.699   2.434 -0.6934 -0.4618  0.3320
  415MOL0     C54671   4.836   9.658   2.466  0.3206 -0.1757  0.2546
  415MOL0     O54672   4.758   9.639   2.351  0.5982  0.3729  0.7924
  415MOL0     C54673   4.774   9.542   2.260  0.2641 -0.4473  0.9814
  415MOL0     C54674   4.837   9.423   2.284  1.6012 -0.3615  0.2464
  415MOL0     C54675   4.831   9.312   2.195  0.1352  0.0420  0.6728
  415MOL0     C54676   4.778   9.328   2.071  0.3602  1.1112 -0.1570
  415MOL0     C54677   4.774   9.216   1.977 -0.2191  0.3905 -0.4371
  415MOL0     O54678   4.771   9.241   1.843 -0.1199 -0.2258 -0.3949
  415MOL0     C54679   4.759   9.139   1.749  0.7056 -0.1383 -0.5524
  415MOL0     C54680   4.655   9.041   1.762  0.1578  0.2973 -0.0192
  415MOL0     C54681   4.668   8.930   1.672  1.1754  0.8048  0.1055
  415MOL0     C54682   4.757   8.922   1.570 -0.2148 -0.2120 -0.4786
  415MOL0     O54683   4.743   8.815   1.488 -0.2772 -0.8020 -0.1778
  415MOL0     C54684   4.763   8.840   1.347 -1.6034  0.1936  0.0272
  415MOL0     C54685   4.640   8.915   1.274 -0.5905  0.6768  0.0655
  415MOL0     C54686   4.507   8.838   1.289  0.3166 -0.1195  0.7092
  415MOL0     C54687   4.387   8.937   1.272  0.6623 -0.9282 -0.1396
  415MOL0     C54688   4.251   8.849   1.269  0.1530 -0.4683  1.4504
  415MOL0     C54689   4.120   8.936   1.260 -1.3054  0.3700 -0.2307
  415MOL0     C54690   4.129   8.998   1.111  0.6591  0.2641 -0.9492
  415MOL0     C54691   3.987   9.030   1.075 -0.0376  1.1539  0.3775
  415MOL0    Cl54692   3.997   9.104   0.898  0.6164 -0.4175  0.1438
  415MOL0     C54693   4.851   9.025   1.559 -0.8130 -0.8008 -0.7689
  415MOL0     C54694   4.858   9.124   1.655  0.1231 -0.3018 -0.6273
  415MOL0     O54695   4.778   9.104   2.024 -0.2511 -0.3375  0.1114
  415MOL0     C54696   4.726   9.453   2.035 -0.3476  0.2794 -0.6668
  415MOL0     C54697   4.729   9.565   2.125 -1.0916  0.8320  0.8925
  415MOL0     N54698   4.965  10.186   2.292  0.3142  1.1125 -0.1080
  415MOL0     N54699   4.930  10.260   2.188 -0.0106  0.7344  0.1848
  415MOL0     C54700   4.320   9.866   1.088 -0.0628  0.7284 -0.0853
  415MOL0     C54701   4.196   9.826   1.062 -1.0395 -0.9837 -0.4513
  415MOL0     C54702   3.731   9.856   1.093  0.2202  0.2571  0.1016
  415MOL0     C54703   3.692   9.773   0.981  0.3218  0.0804 -0.8433
  415MOL0     C54704   3.585   9.697   0.999 -0.2874  0.8393  0.1141
  415MOL0     C54705   3.496   9.700   1.111 -0.3449  0.2594 -0.2020
  415MOL0     O54706   3.400   9.603   1.141  0.0422  0.5234  0.4417
  415MOL0     C54707   3.404   9.482   1.061 -0.6950 -0.8077 -0.9783
  415MOL0     C54708   3.349   9.481   0.913  0.3344 -0.0312  0.0921
  415MOL0     C54709   3.367   9.353   0.839  0.4830  0.4411  1.5234
  415MOL0     C54710   3.512   9.324   0.799  0.7439  0.2752  0.1893
  415MOL0     C54711   3.616   9.315   0.897  0.0777  1.0827 -0.5801
  415MOL0     C54712   3.707   9.316   0.977  0.3549  0.3013 -0.2831
  415MOL0     C54713   3.538   9.786   1.222 -0.6698  0.5783 -0.2670
  415MOL0     C54714   3.644   9.872   1.210  1.4839  0.2853  0.4252
  415MOL0     H54715   4.064  10.130   0.996  0.2341  1.1419  0.6390
  415MOL0     H54716   4.307  10.197   1.072 -2.5263  0.7415  0.9631
  415MOL0     H54717   4.564   9.865   1.238  2.4270 -0.0732 -0.5223
  415MOL0     H54718   4.508   9.985   1.359  1.3644  3.6279  0.8649
  415MOL0     H54719   4.702  10.131   1.281 -1.8766  0.1491  0.2816
  415MOL0     H54720   4.757   9.987   1.188 -0.7450 -0.7776  1.3291
  415MOL0     H54721   4.881   9.974   1.383  0.1587 -3.4095  0.7740
  415MOL0     H54722   4.750   9.867   1.425  2.6750 -0.6399  1.5229
  415MOL0     H54723   4.721  10.162   1.490 -3.0400  0.3212 -0.3033
  415MOL0     H54724   4.613  10.033   1.535 -0.6682  0.4309 -1.3180
  415MOL0     H54725   4.899  10.059   1.609  0.3756 -3.4247 -0.6201
  415MOL0     H54726   4.805   9.935   1.676  0.6633  0.4328 -1.4655
  415MOL0     H54727   4.633  10.086   1.767 -0.7325  1.3730 -2.9765
  415MOL0     H54728   4.734  10.226   1.723 -1.8053 -0.3113 -1.3198
  415MOL0     H54729   4.843  10.012   1.909  0.5452 -0.8527 -1.8391
  415MOL0     H54730   4.931  10.155   1.856 -1.0538  3.0705  2.0332
  415MOL0     H54731   4.680  10.194   1.984  0.5906 -0.1614  1.1541
  415MOL0     H54732   4.807  10.312   1.960  2.0686  0.1581  2.4058
  415MOL0     H54733   4.785   9.967   2.116  0.8370 -2.3964  2.2235
  415MOL0     H54734   4.832   9.929   2.442 -0.1892  0.7136  1.1351
  415MOL0     H54735   5.012   9.969   2.458  1.5876 -1.6722 -1.9930
  415MOL0     H54736   5.084   9.822   2.286  0.3644 -0.7819 -0.4231
  415MOL0     H54737   4.917   9.784   2.240 -0.4590 -1.3049  0.2659
  415MOL0     H54738   5.043   9.618   2.405  0.2829 -2.5152  6.6485
  415MOL0     H54739   5.020   9.720   2.532  0.7765 -1.7064 -0.0365
  415MOL0     H54740   4.790   9.736   2.527 -0.2066 -2.5005  3.0468
  415MOL0     H54741   4.823   9.568   2.527 -0.2853  1.2159  2.2451
  415MOL0     H54742   4.878   9.410   2.383 -2.0110 -1.9661  1.7053
  415MOL0     H54743   4.871   9.221   2.238  2.5261  0.1077 -1.2060
  415MOL0     H54744   4.587   9.039   1.847 -2.7050  0.6479 -2.1281
  415MOL0     H54745   4.606   8.842   1.685  1.3117  0.9622  2.0220
  415MOL0     H54746   4.782   8.740   1.308 -1.4911  0.1343  0.2295
  415MOL0     H54747   4.865   8.871   1.324 -1.3000 -1.0408 -0.3809
  415MOL0     H54748   4.656   8.915   1.166  1.2951 -1.4742  0.2715
  415MOL0     H54749   4.646   9.019   1.309  1.1004  1.2206 -1.7075
  415MOL0     H54750   4.504   8.790   1.387  1.0209 -0.8739  0.3745
  415MOL0     H54751   4.500   8.763   1.209  2.0952  2.1426 -1.7418
  415MOL0     H54752   4.386   8.997   1.363 -1.7788  0.2839 -0.9015
  415MOL0     H54753   4.399   9.008   1.190  3.8855  0.5698  1.4711
  415MOL0     H54754   4.241   8.792   1.362  0.0863  1.8470  2.9532
  415MOL0     H54755   4.266   8.777   1.188  0.9443 -0.1229  1.2785
  415MOL0     H54756   4.123   9.018   1.332 -0.1469  1.6599 -1.6665
  415MOL0     H54757   4.031   8.873   1.259 -2.2720  1.6834 -0.1869
  415MOL0     H54758   4.187   9.090   1.117  1.1805 -0.0562 -0.9227
  415MOL0     H54759   4.179   8.929   1.043 -1.5040 -1.1954 -1.1545
  415MOL0     H54760   3.935   9.097   1.144 -0.6675  0.3193  0.7386
  415MOL0     H54761   3.923   8.941   1.075 -1.3383  1.9706  3.3078
  415MOL0     H54762   4.932   9.014   1.488 -0.5008  0.1494 -0.5891
  415MOL0     H54763   4.933   9.203   1.651 -0.8217  0.5937 -1.3465
  415MOL0     H54764   4.682   9.470   1.938  1.4211  0.7066 -1.4263
  415MOL0     H54765   4.669   9.653   2.105 -1.5471  0.6538  1.4561
  415MOL0     H54766   4.392   9.785   1.096  0.5656  1.0303 -2.2025
  415MOL0     H54767   4.188   9.719   1.049  2.4241 -1.4191  0.0309
  415MOL0     H54768   3.769   9.745   0.909 -1.7550 -1.9933 -2.4327
  415MOL0     H54769   3.578   9.622   0.921  1.8627 -0.6870  1.2679
  415MOL0     H54770   3.352   9.396   1.103 -2.9315  1.3937  1.0592
  415MOL0     H54771   3.512   9.465   1.064 -0.5166  0.3456 -0.4347
  415MOL0     H54772   3.242   9.501   0.924 -0.0634 -1.5657 -0.6314
  415MOL0     H54773   3.366   9.575   0.860 -0.1189 -0.5335 -0.9712
  415MOL0     H54774   3.305   9.370   0.751 -1.3411 -1.5417  2.3290
  415MOL0     H54775   3.326   9.267   0.893  2.3006 -2.7407 -1.7090
  415MOL0     H54776   3.502   9.228   0.747 -1.9356 -0.5409  1.9486
  415MOL0     H54777   3.541   9.404   0.730  1.3419  0.4590  0.6452
  415MOL0     H54778   3.786   9.309   1.049 -2.2256 -2.3627  2.6076
  415MOL0     H54779   3.482   9.783   1.315  1.1862 -0.4949  0.8640
  415MOL0     H54780   3.668   9.942   1.289 -1.3529 -0.0640  1.7204
  416MOL0     O54781   8.333   1.248  10.984  0.5151 -0.1630  0.3376
  416MOL0     C54782   8.256   1.184  10.907  0.1148  0.2033 -0.8075
  416MOL0     O54783   8.292   1.096  10.812  0.4572 -0.0462  0.5262
  416MOL0     C54784   8.393   1.011  10.839  0.3234  1.3299 -0.6351
  416MOL0     C54785   8.419   0.959  10.969 -0.6816 -0.2772 -0.5156
  416MOL0     C54786   8.526   0.867  10.999 -0.3870 -0.5034  0.1931
  416MOL0     C54787   8.610   0.828  10.888 -0.5980  0.4876  0.1720
  416MOL0     O54788   8.702   0.727  10.914 -0.0735 -0.4555  0.2973
  416MOL0     C54789   8.842   0.752  10.917  0.4364  0.5891  0.3799
  416MOL0     C54790   8.869   0.854  11.032 -0.4964 -0.0156  0.2190
  416MOL0     C54791   9.012   0.885  11.025 -0.2958  0.4340 -0.5202
  416MOL0     C54792   9.063   1.027  11.070  0.1979  1.2716 -0.4727
  416MOL0     C54793   8.960   1.138  11.031 -0.2159  0.4652 -1.2985
  416MOL0     C54794   8.917   1.137  10.886  0.4747 -0.4691  1.1640
  416MOL0     C54795   8.813   1.251  10.870  0.1788  0.1290 -0.0638
  416MOL0     C54796   8.681   1.192  10.809 -0.8285 -0.1903  0.5316
  416MOL0     N54797   8.684   1.193  10.665  0.1989 -0.0565  1.1478
  416MOL0     C54798   8.775   1.138  10.574  0.9846  0.5312 -0.8218
  416MOL0     C54799   8.755   1.199  10.455 -0.4148 -0.2951  1.1213
  416MOL0     C54800   8.813   1.172  10.317  0.4844  0.0803  0.1198
  416MOL0     C54801   8.756   1.039  10.247 -1.1704  0.4955 -0.3765
  416MOL0     C54802   8.827   0.915  10.312  0.3062 -1.0262 -0.6120
  416MOL0     C54803   8.774   0.787  10.257 -0.4266 -0.1603  0.7112
  416MOL0     O54804   8.781   0.682  10.350  0.0527 -0.2484 -1.2097
  416MOL0     C54805   8.908   0.632  10.380  0.1292  0.1433  0.1227
  416MOL0     C54806   8.915   0.548  10.490  0.1286 -0.8654 -0.3998
  416MOL0     C54807   9.020   0.473  10.512 -0.3960 -0.1489 -0.5335
  416MOL0     C54808   9.141   0.483  10.440 -0.9032 -0.5816  0.3426
  416MOL0     C54809   9.259   0.415  10.476  0.0661  0.8167 -0.6784
  416MOL0     O54810   9.251   0.294  10.533  1.0515 -0.7645 -0.4196
  416MOL0     C54811   9.357   0.214  10.547  0.2552 -0.1476 -0.0813
  416MOL0     C54812   9.467   0.249  10.621 -0.6865  0.1040  0.1749
  416MOL0     C54813   9.560   0.148  10.654  0.0788  0.6885 -0.3862
  416MOL0     C54814   9.539   0.015  10.613 -0.0747 -0.6651  0.4173
  416MOL0     O54815   9.633  -0.085  10.613  0.6317  0.1016  0.4320
  416MOL0     C54816   9.775  -0.053  10.628 -0.0025  0.8361  0.0225
  416MOL0     C54817   9.854  -0.172  10.596 -0.0784  0.0315 -0.9470
  416MOL0     C54818   9.826  -0.286  10.697  0.6945  0.4433 -0.3479
  416MOL0     C54819   9.925  -0.280  10.819  0.9243 -0.2538  0.6722
  416MOL0     C54820   9.932  -0.406  10.894  0.3395  0.3440  0.9570
  416MOL0     C54821   9.801  -0.466  10.926  0.2418  0.3463  0.0791
  416MOL0     C54822   9.824  -0.574  11.039  0.8978 -0.6542 -0.3918
  416MOL0     C54823   9.689  -0.594  11.112 -0.3309 -0.6144  0.3920
  416MOL0    Cl54824   9.694  -0.709  11.256  0.1593 -0.0687 -0.4021
  416MOL0     C54825   9.425  -0.009  10.546  0.2658  0.1657 -0.8128
  416MOL0     C54826   9.335   0.091  10.513  0.4372  0.2632  1.1730
  416MOL0     O54827   9.360   0.464  10.423 -0.4674  0.8393 -0.3843
  416MOL0     C54828   9.144   0.585  10.343 -0.1703  0.0782  1.1204
  416MOL0     C54829   9.026   0.656  10.313  0.5503 -0.1587  0.0264
  416MOL0     N54830   8.654   1.287  10.471  0.0139  0.2654  0.0388
  416MOL0     N54831   8.610   1.291  10.592 -0.6394  0.0466  0.0238
  416MOL0     C54832   8.564   0.859  10.758  0.2208 -0.5415 -0.3915
  416MOL0     C54833   8.467   0.948  10.736  0.6965  0.3433  0.2163
  416MOL0     C54834   8.117   1.240  10.918  0.2254 -0.4413  0.0238
  416MOL0     C54835   8.084   1.363  10.988  0.6064  0.2083 -0.8888
  416MOL0     C54836   7.952   1.398  11.013  0.1002 -0.5205 -0.4680
  416MOL0     C54837   7.848   1.314  10.972  0.0038  0.3306  0.7939
  416MOL0     O54838   7.728   1.359  11.012  0.3375 -0.0165 -0.0858
  416MOL0     C54839   7.705   1.349  11.154  0.5881  0.1934  0.4287
  416MOL0     C54840   7.598   1.453  11.195 -0.1715  0.9071 -0.6155
  416MOL0     C54841   7.459   1.397  11.159  0.1559  0.2927  0.3863
  416MOL0     C54842   7.352   1.508  11.175  0.3446 -0.5916  0.5869
  416MOL0     C54843   7.368   1.614  11.072  0.1406 -1.3923 -0.3027
  416MOL0     C54844   7.374   1.691  10.976 -0.1647 -0.5028 -0.7601
  416MOL0     C54845   7.876   1.197  10.893  0.5369  0.4262 -0.1744
  416MOL0     C54846   8.010   1.164  10.870  0.0543  0.3140  0.2015
  416MOL0     H54847   8.351   0.983  11.050  0.7085 -1.7505  1.1758
  416MOL0     H54848   8.545   0.836  11.101 -1.3660 -0.0515  0.5313
  416MOL0     H54849   8.888   0.789  10.824  3.3746 -1.1164  1.0200
  416MOL0     H54850   8.900   0.662  10.939  2.0733  0.7098 -2.8297
  416MOL0     H54851   8.841   0.809  11.127 -1.8802  1.2953  0.4605
  416MOL0     H54852   8.804   0.942  11.024 -0.1508  0.2488  0.2670
  416MOL0     H54853   9.051   0.889  10.923 -1.8359 -1.9792 -1.2839
  416MOL0     H54854   9.065   0.810  11.084 -0.8286  1.2345  1.0319
  416MOL0     H54855   9.093   1.020  11.174  3.0246  0.3414 -1.2695
  416MOL0     H54856   9.162   1.035  11.024  2.3457 -0.7617  3.2914
  416MOL0     H54857   9.000   1.238  11.053 -2.1165  1.2350 -1.0991
  416MOL0     H54858   8.874   1.128  11.097 -0.0496 -3.0702 -1.4365
  416MOL0     H54859   8.879   1.040  10.850  1.9757 -1.2849  1.6788
  416MOL0     H54860   9.003   1.148  10.819  0.5036  0.4724  1.3416
  416MOL0     H54861   8.792   1.308  10.961  0.7289 -0.3276  0.3560
  416MOL0     H54862   8.855   1.327  10.804  1.3393 -0.9788 -0.6479
  416MOL0     H54863   8.601   1.259  10.844 -0.0310  1.6243 -0.9306
  416MOL0     H54864   8.664   1.093  10.852 -0.8312 -2.0057 -3.2996
  416MOL0     H54865   8.850   1.067  10.608  0.2331 -0.6507 -1.5339
  416MOL0     H54866   8.921   1.178  10.335  1.2812  1.6113 -4.0999
  416MOL0     H54867   8.776   1.262  10.268 -0.1483  0.0212  0.4771
  416MOL0     H54868   8.773   1.044  10.139 -0.7636  3.0428 -0.2653
  416MOL0     H54869   8.652   1.025  10.276 -0.6056  0.4373  1.7811
  416MOL0     H54870   8.934   0.922  10.294  0.2042  3.0018 -0.6394
  416MOL0     H54871   8.801   0.913  10.419 -1.1504 -1.7177 -0.9562
  416MOL0     H54872   8.811   0.769  10.155  1.5351  1.0278  1.1607
  416MOL0     H54873   8.666   0.790  10.241 -0.2411 -0.2270 -0.7025
  416MOL0     H54874   8.826   0.536  10.551 -0.2380 -0.1140 -0.7694
  416MOL0     H54875   9.017   0.396  10.588  1.6022  1.0281  0.8393
  416MOL0     H54876   9.485   0.351  10.653  0.7870 -0.1681  0.2697
  416MOL0     H54877   9.649   0.172  10.711  0.4672 -3.7142  1.2530
  416MOL0     H54878   9.790  -0.022  10.732 -2.0391 -0.5881  0.7997
  416MOL0     H54879   9.803   0.035  10.570 -0.3174  0.5620 -0.5654
  416MOL0     H54880   9.961  -0.152  10.592  0.3813 -1.5426  1.1987
  416MOL0     H54881   9.819  -0.196  10.495  1.0859  0.3701 -1.4372
  416MOL0     H54882   9.845  -0.381  10.645 -1.5432  0.8067 -1.9516
  416MOL0     H54883   9.728  -0.294  10.744  1.9205  1.6381  2.6482
  416MOL0     H54884  10.026  -0.244  10.799  0.9266 -0.5952  0.0196
  416MOL0     H54885   9.881  -0.211  10.891 -0.7059  0.6131 -1.0598
  416MOL0     H54886   9.983  -0.381  10.988  3.3201  2.6648 -1.0692
  416MOL0     H54887   9.981  -0.479  10.829  0.7202  1.7384 -0.3978
  416MOL0     H54888   9.759  -0.511  10.836 -1.0106  0.7727  0.4268
  416MOL0     H54889   9.727  -0.389  10.952 -0.0053 -0.6167  2.5576
  416MOL0     H54890   9.852  -0.671  10.998 -0.1669 -1.5607  0.9632
  416MOL0     H54891   9.902  -0.565  11.115  0.5503 -1.7598  0.1095
  416MOL0     H54892   9.627  -0.630  11.029  3.9964 -4.6813 -1.5251
  416MOL0     H54893   9.656  -0.500  11.159  0.3291 -0.7284  1.1010
  416MOL0     H54894   9.410  -0.104  10.498 -0.2122 -0.5111  0.6267
  416MOL0     H54895   9.244   0.075  10.456  2.0194  1.0172 -1.7945
  416MOL0     H54896   9.223   0.589  10.269 -1.4764 -2.5146 -0.5878
  416MOL0     H54897   9.025   0.725  10.229  1.0164  0.4734  0.5228
  416MOL0     H54898   8.617   0.832  10.667 -2.7995 -2.0854 -1.8691
  416MOL0     H54899   8.452   0.980  10.634  0.5115 -1.6904 -0.4410
  416MOL0     H54900   8.160   1.414  11.047  0.1656 -0.8567  0.6886
  416MOL0     H54901   7.927   1.490  11.065 -1.9764  0.2729 -2.6784
  416MOL0     H54902   7.792   1.363  11.218  0.0344  0.9021  1.0497
  416MOL0     H54903   7.669   1.250  11.181 -1.4634  1.1107  1.3381
  416MOL0     H54904   7.608   1.466  11.303 -2.4057  0.8374 -0.3593
  416MOL0     H54905   7.618   1.548  11.145  0.0542  0.8902 -0.5571
  416MOL0     H54906   7.426   1.323  11.232  0.6717  0.4195  0.7601
  416MOL0     H54907   7.468   1.359  11.057 -0.0892  1.8671 -0.2567
  416MOL0     H54908   7.255   1.467  11.146 -0.0571  1.7927 -1.8801
  416MOL0     H54909   7.356   1.546  11.277  0.2657  2.1717 -0.3550
  416MOL0     H54910   7.380   1.755  10.890 -1.6743  0.5346 -0.1297
  416MOL0     H54911   7.792   1.146  10.847 -0.7629  0.6600  1.8059
  416MOL0     H54912   8.019   1.065  10.826  1.6964  0.0939  0.9889
  417MOL0     O54913   2.954   5.769   4.765  0.8611  0.2448 -0.7998
  417MOL0     C54914   2.832   5.795   4.758 -0.4541  0.6139 -0.2905
  417MOL0     O54915   2.778   5.915   4.761 -0.9382 -0.5267  0.2063
  417MOL0     C54916   2.864   6.019   4.748 -0.2884 -0.8782  0.2639
  417MOL0     C54917   2.858   6.131   4.657 -0.2961  0.1836  0.1026
  417MOL0     C54918   2.934   6.256   4.663 -0.2257 -0.7875 -0.5349
  417MOL0     C54919   3.023   6.266   4.781 -0.1195 -0.4775  0.5863
  417MOL0     O54920   3.098   6.378   4.807  0.7014  0.0788  0.4762
  417MOL0     C54921   3.218   6.374   4.891  0.3677  0.8237 -0.0267
  417MOL0     C54922   3.335   6.308   4.820  0.1460  0.3437  0.1286
  417MOL0     C54923   3.463   6.362   4.880 -0.5088 -0.0161 -0.0952
  417MOL0     C54924   3.518   6.475   4.808  0.4169 -0.6490  0.7581
  417MOL0     C54925   3.669   6.482   4.828 -0.3731  0.6341  0.0069
  417MOL0     C54926   3.722   6.587   4.726  0.3141  0.8028  0.0606
  417MOL0     C54927   3.695   6.729   4.776 -0.4555 -0.4438  0.0068
  417MOL0     C54928   3.756   6.766   4.914 -0.9310 -0.1621  0.6783
  417MOL0     N54929   3.662   6.870   4.963  1.4265  0.4610  0.2272
  417MOL0     C54930   3.661   7.008   4.934  0.1155  0.6075  0.1486
  417MOL0     C54931   3.552   7.067   4.973 -0.6481 -0.3526  0.4408
  417MOL0     C54932   3.518   7.210   4.984 -0.6167  0.3749  0.1612
  417MOL0     C54933   3.414   7.252   4.870  0.4150 -0.3835 -0.3764
  417MOL0     C54934   3.412   7.406   4.850  0.8084 -0.2459  0.2921
  417MOL0     C54935   3.334   7.452   4.722 -0.1669 -0.3197 -0.3684
  417MOL0     O54936   3.370   7.585   4.689  0.5131  0.9165  0.7697
  417MOL0     C54937   3.331   7.689   4.763 -0.5209 -0.9654 -0.0317
  417MOL0     C54938   3.401   7.811   4.740 -0.1880  0.3345  0.1366
  417MOL0     C54939   3.370   7.925   4.813  0.0330 -0.3345 -0.7620
  417MOL0     C54940   3.268   7.922   4.913  0.2521  0.2822  0.5619
  417MOL0     C54941   3.238   8.035   5.000  0.1821 -0.2402 -0.5557
  417MOL0     O54942   3.318   8.151   4.993 -0.1332 -0.8266 -0.0092
  417MOL0     C54943   3.325   8.231   5.099 -0.8250  0.6858  0.0112
  417MOL0     C54944   3.220   8.281   5.176  0.4519 -0.5080  0.1169
  417MOL0     C54945   3.248   8.362   5.283 -0.0479  0.0277 -0.1295
  417MOL0     C54946   3.379   8.403   5.316 -0.4408  0.6538  0.1889
  417MOL0     O54947   3.393   8.504   5.410 -0.3286 -0.1942 -0.7096
  417MOL0     C54948   3.528   8.544   5.443  0.8358  1.3045  0.4528
  417MOL0     C54949   3.530   8.680   5.519  0.1688  0.3149 -0.1360
  417MOL0     C54950   3.521   8.810   5.434  0.2559  0.0230 -0.2004
  417MOL0     C54951   3.527   8.925   5.520 -0.5895  0.5141  0.1763
  417MOL0     C54952   3.520   9.067   5.439  0.5884  0.3143 -0.0152
  417MOL0     C54953   3.483   9.177   5.533  0.7872 -0.1576  0.4276
  417MOL0     C54954   3.438   9.309   5.466  0.2587 -0.4400  0.2355
  417MOL0     C54955   3.547   9.408   5.425 -0.3191  0.7867  0.3360
  417MOL0    Cl54956   3.595   9.489   5.568 -0.4326  0.2055 -0.3696
  417MOL0     C54957   3.483   8.341   5.243 -0.4648  0.0230 -0.3608
  417MOL0     C54958   3.455   8.268   5.135 -0.3495  0.5628 -0.6665
  417MOL0     O54959   3.152   8.011   5.082  0.4790 -0.2530 -0.1609
  417MOL0     C54960   3.199   7.804   4.931  0.2888  0.2194 -0.1830
  417MOL0     C54961   3.231   7.686   4.857  0.1435 -0.3823 -0.9648
  417MOL0     N54962   3.492   6.970   5.053  0.3365 -0.5848 -0.1548
  417MOL0     N54963   3.554   6.860   5.038  0.1269  0.9058  0.0082
  417MOL0     C54964   3.023   6.158   4.872 -0.0895  0.0111 -0.8941
  417MOL0     C54965   2.946   6.042   4.860  0.5544  0.3515  0.5140
  417MOL0     C54966   2.732   5.688   4.758  0.0346 -0.1767 -0.0649
  417MOL0     C54967   2.598   5.720   4.735 -0.1437 -0.1902 -0.0886
  417MOL0     C54968   2.492   5.626   4.738  0.2147 -0.0168 -0.6414
  417MOL0     C54969   2.525   5.493   4.754  0.0826 -0.2170  0.0687
  417MOL0     O54970   2.418   5.408   4.756 -0.2404  0.5033 -0.5264
  417MOL0     C54971   2.411   5.282   4.832 -0.2889 -0.0727 -0.5080
  417MOL0     C54972   2.259   5.253   4.867  0.3993  0.1472  0.0220
  417MOL0     C54973   2.250   5.206   5.014 -0.2501  0.3945 -0.1555
  417MOL0     C54974   2.276   5.063   5.030 -0.4014  0.0621 -0.1978
  417MOL0     C54975   2.402   5.028   5.099  0.0660 -0.4165  0.1832
  417MOL0     C54976   2.498   4.994   5.168  0.1491  0.5034  1.2342
  417MOL0     C54977   2.660   5.449   4.762 -0.0624  0.0706  0.0499
  417MOL0     C54978   2.761   5.553   4.770 -0.1782  0.5189  0.7937
  417MOL0     H54979   2.793   6.121   4.571 -0.7475  1.1949  0.3072
  417MOL0     H54980   2.938   6.324   4.578  0.1105  0.3093  0.3502
  417MOL0     H54981   3.192   6.316   4.979  2.2054  0.7803  0.5328
  417MOL0     H54982   3.245   6.475   4.924 -0.3547  1.3622 -1.0382
  417MOL0     H54983   3.337   6.343   4.716  2.9268  1.0594  0.3357
  417MOL0     H54984   3.322   6.199   4.829  1.5286  0.1591  0.2265
  417MOL0     H54985   3.524   6.272   4.881  0.4330  0.5601 -1.7067
  417MOL0     H54986   3.449   6.380   4.987 -0.8043  1.1671 -0.3123
  417MOL0     H54987   3.497   6.467   4.701  1.0028  0.9921  0.4952
  417MOL0     H54988   3.455   6.562   4.828  2.3608  1.6304 -2.2373
  417MOL0     H54989   3.720   6.392   4.796  1.6502  1.6219  0.3121
  417MOL0     H54990   3.702   6.498   4.931  2.1961  1.1219 -0.8293
  417MOL0     H54991   3.683   6.566   4.626  2.1575  2.0928 -0.9782
  417MOL0     H54992   3.830   6.572   4.718  0.1964  0.0738 -0.2525
  417MOL0     H54993   3.740   6.797   4.704 -2.2776 -1.8081 -2.5800
  417MOL0     H54994   3.593   6.766   4.773  0.2748  1.6338 -0.5956
  417MOL0     H54995   3.853   6.815   4.900 -1.5114  0.5576 -1.1661
  417MOL0     H54996   3.757   6.681   4.982 -1.5096  0.6512  1.7254
  417MOL0     H54997   3.739   7.065   4.884  1.2817 -1.1011 -0.0933
  417MOL0     H54998   3.614   7.262   4.976  0.0754 -0.9716 -0.6651
  417MOL0     H54999   3.487   7.214   5.089 -2.7937  0.3177 -0.4263
  417MOL0     H55000   3.317   7.212   4.900  1.2265 -0.9957  1.5664
  417MOL0     H55001   3.441   7.205   4.775  1.9756  0.3111 -0.3104
  417MOL0     H55002   3.357   7.462   4.926 -4.2847 -0.2318 -2.8934
  417MOL0     H55003   3.515   7.437   4.830 -0.5846  3.8649 -1.9069
  417MOL0     H55004   3.227   7.439   4.737  0.0465 -0.7493  0.9097
  417MOL0     H55005   3.356   7.380   4.642  0.5307 -0.8000  0.2438
  417MOL0     H55006   3.489   7.810   4.678  0.7963  2.4614  1.3948
  417MOL0     H55007   3.416   8.023   4.810 -0.4586 -0.0545  0.3021
  417MOL0     H55008   3.116   8.264   5.152  0.8549 -2.0390 -0.6301
  417MOL0     H55009   3.166   8.402   5.343 -1.4047 -0.4823 -1.5694
  417MOL0     H55010   3.580   8.552   5.347 -0.4782 -0.6350 -0.4967
  417MOL0     H55011   3.567   8.476   5.519 -3.0255  1.8106  3.1975
  417MOL0     H55012   3.622   8.687   5.578  0.3473 -3.3294  0.1951
  417MOL0     H55013   3.448   8.676   5.592  0.4694 -0.5674  0.1674
  417MOL0     H55014   3.434   8.809   5.367  1.2441 -2.8489 -1.5968
  417MOL0     H55015   3.615   8.805   5.377 -0.8589 -1.7006 -2.0246
  417MOL0     H55016   3.454   8.916   5.602 -0.0948 -0.1218  0.5607
  417MOL0     H55017   3.621   8.934   5.576 -0.8247 -0.6274  0.7991
  417MOL0     H55018   3.444   9.057   5.361  1.5533  0.7451 -1.0471
  417MOL0     H55019   3.619   9.082   5.396  1.1361 -2.4172  0.0705
  417MOL0     H55020   3.568   9.196   5.600  1.5333  1.1754 -0.8304
  417MOL0     H55021   3.398   9.152   5.596  1.7371 -1.5799  1.2149
  417MOL0     H55022   3.383   9.272   5.378 -0.0985 -2.7297  1.3338
  417MOL0     H55023   3.375   9.359   5.540  1.7130 -0.6920  1.6881
  417MOL0     H55024   3.492   9.475   5.358 -1.7875  2.2425  2.8323
  417MOL0     H55025   3.629   9.355   5.375 -1.0319 -0.3293  0.3264
  417MOL0     H55026   3.589   8.354   5.263 -0.5708  0.7168 -0.1998
  417MOL0     H55027   3.543   8.235   5.080 -0.3381 -1.6660  0.5856
  417MOL0     H55028   3.110   7.811   4.993  1.1551  0.4243  1.0619
  417MOL0     H55029   3.153   7.615   4.880 -1.0056  1.2671  0.4800
  417MOL0     H55030   3.073   6.163   4.968 -1.7521  0.7201 -0.0293
  417MOL0     H55031   2.955   5.982   4.950 -2.5469  3.2420  3.0567
  417MOL0     H55032   2.565   5.824   4.735 -1.2886 -0.5097 -1.7796
  417MOL0     H55033   2.389   5.659   4.736 -0.7381 -2.7758 -1.7825
  417MOL0     H55034   2.473   5.302   4.920 -0.3168 -0.1651 -0.4668
  417MOL0     H55035   2.454   5.192   4.785 -1.3778 -2.4286  2.6655
  417MOL0     H55036   2.202   5.346   4.869  2.5942  1.5722  0.0705
  417MOL0     H55037   2.214   5.176   4.805  0.5391 -0.2762  0.4410
  417MOL0     H55038   2.160   5.239   5.066 -0.1049  2.3048 -1.0565
  417MOL0     H55039   2.328   5.256   5.072 -0.2725 -0.9492  1.1154
  417MOL0     H55040   2.194   5.018   5.087  0.8049 -3.2617 -0.8796
  417MOL0     H55041   2.270   5.006   4.937 -0.1292 -1.4935  0.7057
  417MOL0     H55042   2.573   4.942   5.225  1.4481 -1.8859 -2.3324
  417MOL0     H55043   2.680   5.342   4.764  0.8180  0.2085 -0.5744
  417MOL0     H55044   2.866   5.525   4.779  0.2469  0.1512 -3.2818
  418MOL0     O55045   9.842   6.575   6.083 -1.5285 -0.0890  0.2740
  418MOL0     C55046   9.857   6.663   6.169  0.1316  1.1115 -0.2672
  418MOL0     O55047   9.980   6.727   6.184  0.7322  1.2413 -0.4883
  418MOL0     C55048  10.078   6.700   6.095  0.3070  0.8862 -0.9366
  418MOL0     C55049  10.105   6.801   6.006  0.4359  0.3579  0.5680
  418MOL0     C55050  10.189   6.787   5.899  0.7363  0.8548  1.1630
  418MOL0     C55051  10.234   6.656   5.875  0.3109  0.5757 -0.0545
  418MOL0     O55052  10.308   6.643   5.757 -0.3728 -0.1893  0.1913
  418MOL0     C55053  10.295   6.525   5.672 -0.2014  0.1864 -0.5237
  418MOL0     C55054  10.406   6.541   5.562  0.0724 -0.3369 -0.5293
  418MOL0     C55055  10.553   6.526   5.602  0.0452 -0.9155 -0.4070
  418MOL0     C55056  10.623   6.658   5.566 -0.4495 -0.2833 -0.2919
  418MOL0     C55057  10.780   6.655   5.590  0.2229  0.3855  0.2800
  418MOL0     C55058  10.854   6.783   5.560 -0.4231 -0.2253 -0.3004
  418MOL0     C55059  10.795   6.900   5.642  0.1343  0.0311  0.4944
  418MOL0     C55060  10.892   7.017   5.646 -0.1402 -0.3505 -0.4811
  418MOL0     N55061  10.857   7.121   5.740 -0.3935  0.4491 -0.8273
  418MOL0     C55062  10.923   7.145   5.857  0.6389 -0.5381  0.6179
  418MOL0     C55063  10.868   7.253   5.910  0.4016  0.2113 -0.7182
  418MOL0     C55064  10.903   7.313   6.034  0.7032  0.5006  0.1086
  418MOL0     C55065  10.868   7.214   6.150  0.1705 -0.6039  0.1387
  418MOL0     C55066  10.949   7.221   6.284  0.8335 -1.1671  0.2141
  418MOL0     C55067  10.918   7.112   6.381  0.2955  0.3125 -0.1270
  418MOL0     O55068  11.005   7.003   6.345 -0.0797  0.8887 -0.1742
  418MOL0     C55069  10.993   6.876   6.415 -0.3852 -0.1859  0.1876
  418MOL0     C55070  10.920   6.854   6.534 -0.1542 -0.5689 -0.1571
  418MOL0     C55071  10.921   6.731   6.600  0.1550  0.3559  0.2472
  418MOL0     C55072  10.991   6.626   6.546  0.3211 -0.0275  0.8348
  418MOL0     C55073  10.989   6.500   6.612  0.9857 -0.0397 -0.3141
  418MOL0     O55074  10.932   6.496   6.732  0.2169 -0.3730  0.8368
  418MOL0     C55075  10.896   6.377   6.789  0.4094  1.2350  0.5909
  418MOL0     C55076  10.930   6.374   6.923 -0.0817  0.6021 -0.1842
  418MOL0     C55077  10.902   6.261   6.999  0.5457 -0.3572 -0.3644
  418MOL0     C55078  10.839   6.142   6.944  0.2945 -0.0422 -0.1331
  418MOL0     O55079  10.823   6.013   6.998 -0.0753 -0.4281  0.0180
  418MOL0     C55080  10.864   5.985   7.144  0.0953 -0.3925  0.4801
  418MOL0     C55081  10.845   5.835   7.171 -0.0852  0.9985 -0.2672
  418MOL0     C55082  10.697   5.791   7.154 -0.6907 -0.4088 -0.4860
  418MOL0     C55083  10.688   5.633   7.143 -0.4364  0.5292  0.7714
  418MOL0     C55084  10.548   5.594   7.107 -0.8581 -0.5437  0.6713
  418MOL0     C55085  10.464   5.568   7.228 -0.4392  0.5674 -0.0478
  418MOL0     C55086  10.519   5.441   7.303  0.0560  0.1425  0.7793
  418MOL0     C55087  10.404   5.336   7.305 -0.6732  0.2252  0.2178
  418MOL0    Cl55088  10.266   5.405   7.384  0.0492  0.1039  0.5846
  418MOL0     C55089  10.809   6.151   6.811 -0.1708  0.2880  0.8156
  418MOL0     C55090  10.831   6.265   6.732  0.1732 -0.6014 -0.0871
  418MOL0     O55091  11.026   6.404   6.546 -0.2099  0.2970 -0.6662
  418MOL0     C55092  11.054   6.642   6.423  0.0765  0.5234  0.2344
  418MOL0     C55093  11.050   6.758   6.361  0.7833 -0.4300  0.4371
  418MOL0     N55094  10.769   7.295   5.824  0.3303 -0.2163 -0.3995
  418MOL0     N55095  10.767   7.214   5.726 -0.0555  0.2720  0.7811
  418MOL0     C55096  10.214   6.545   5.955  0.6525  0.5361  0.8330
  418MOL0     C55097  10.132   6.571   6.063  0.5301 -0.2983  0.5602
  418MOL0     C55098   9.744   6.682   6.264 -0.1426 -0.4113  0.6025
  418MOL0     C55099   9.628   6.603   6.268  0.0832 -0.5975 -0.1234
  418MOL0     C55100   9.530   6.624   6.364  0.1382  0.9081 -0.6096
  418MOL0     C55101   9.540   6.726   6.451  0.2444  0.3687  0.3352
  418MOL0     O55102   9.430   6.762   6.531  0.5759  0.5635  0.6674
  418MOL0     C55103   9.306   6.698   6.511  0.1082 -0.9623  0.2514
  418MOL0     C55104   9.213   6.732   6.635 -0.4647  0.3145  0.5730
  418MOL0     C55105   9.160   6.870   6.624  1.1056  0.4189 -0.9169
  418MOL0     C55106   9.069   6.901   6.749  0.0853 -0.8165  0.9131
  418MOL0     C55107   8.937   6.826   6.747 -0.2481  0.9008  0.5296
  418MOL0     C55108   8.831   6.767   6.757 -0.2871 -0.2531  0.5022
  418MOL0     C55109   9.654   6.813   6.444 -0.9611  0.4859 -0.6815
  418MOL0     C55110   9.760   6.785   6.360 -0.6626  0.3285 -0.1190
  418MOL0     H55111  10.058   6.899   6.009 -0.0353  0.1284  0.7468
  418MOL0     H55112  10.180   6.866   5.825 -1.6182 -0.5697 -0.2277
  418MOL0     H55113  10.193   6.517   5.634 -0.4491 -2.3440  0.4954
  418MOL0     H55114  10.322   6.437   5.731  2.8695  2.8550  2.5001
  418MOL0     H55115  10.395   6.635   5.508 -0.2786 -1.5693 -2.7028
  418MOL0     H55116  10.388   6.458   5.494  3.1128  0.0808 -1.9871
  418MOL0     H55117  10.598   6.447   5.542  1.9070 -1.0061  0.9964
  418MOL0     H55118  10.567   6.513   5.710 -2.5054 -1.0109 -0.0350
  418MOL0     H55119  10.598   6.683   5.463 -2.3732  0.1658  0.2401
  418MOL0     H55120  10.577   6.741   5.621  2.2174 -0.2754  2.1031
  418MOL0     H55121  10.818   6.589   5.512  0.7976 -1.5127  2.0744
  418MOL0     H55122  10.820   6.620   5.686  1.5133  2.9334  0.7799
  418MOL0     H55123  10.840   6.812   5.455 -2.9473  1.1510  0.3405
  418MOL0     H55124  10.960   6.760   5.570 -0.7080 -1.4884 -0.0317
  418MOL0     H55125  10.703   6.922   5.587  0.0755 -0.0247  0.5687
  418MOL0     H55126  10.767   6.869   5.743 -0.7763  0.8995  0.5314
  418MOL0     H55127  10.913   7.060   5.548  1.0720  0.0739 -0.0546
  418MOL0     H55128  10.985   6.967   5.675  1.5408  1.7128 -1.9679
  418MOL0     H55129  11.009   7.085   5.883  1.0611 -1.1287 -1.8895
  418MOL0     H55130  10.853   7.407   6.057 -1.9804 -0.5319 -1.1809
  418MOL0     H55131  11.011   7.330   6.039  0.5369  1.2883  3.3431
  418MOL0     H55132  10.889   7.112   6.117 -0.7398 -1.4944  2.0800
  418MOL0     H55133  10.759   7.228   6.158  0.1004  0.6934 -2.1974
  418MOL0     H55134  11.055   7.222   6.256  1.8386  2.4436  3.3380
  418MOL0     H55135  10.915   7.320   6.315 -3.7263 -1.3368 -3.2138
  418MOL0     H55136  10.814   7.078   6.389  0.5446  0.0380  2.7147
  418MOL0     H55137  10.941   7.130   6.486 -0.4064 -1.3091  0.3258
  418MOL0     H55138  10.858   6.936   6.569  0.0644  0.1961 -1.4924
  418MOL0     H55139  10.852   6.717   6.682  0.1616  2.2864  0.6462
  418MOL0     H55140  10.992   6.454   6.961  0.9752 -0.0022 -0.5944
  418MOL0     H55141  10.926   6.256   7.104  0.4190 -2.8722 -0.3746
  418MOL0     H55142  10.812   6.052   7.212 -1.7563 -1.5050  0.2366
  418MOL0     H55143  10.967   6.005   7.174 -0.2742  0.7387  1.0384
  418MOL0     H55144  10.878   5.804   7.271  1.1035  1.4956 -0.4859
  418MOL0     H55145  10.908   5.778   7.103  1.1576  0.2645  1.4155
  418MOL0     H55146  10.651   5.840   7.068  1.2601  0.4937 -1.0752
  418MOL0     H55147  10.643   5.825   7.243  0.2360 -2.8721  1.1282
  418MOL0     H55148  10.759   5.620   7.060  0.5624  2.8174  1.1716
  418MOL0     H55149  10.728   5.586   7.233  3.3220 -1.4715 -1.6725
  418MOL0     H55150  10.547   5.506   7.042  1.5645  0.8681 -1.4683
  418MOL0     H55151  10.504   5.676   7.049  1.3442  1.9817  2.3373
  418MOL0     H55152  10.360   5.554   7.196 -1.3339  3.9266  1.0215
  418MOL0     H55153  10.463   5.645   7.305 -0.1539 -1.0264  1.6262
  418MOL0     H55154  10.609   5.392   7.264 -0.2516 -0.5526  0.9194
  418MOL0     H55155  10.538   5.483   7.402  0.5431  2.5005 -0.2340
  418MOL0     H55156  10.448   5.246   7.349  3.1036  1.6728 -0.1832
  418MOL0     H55157  10.387   5.322   7.198  0.4301 -1.9878  0.2878
  418MOL0     H55158  10.756   6.071   6.762  1.6146 -0.7938  0.5466
  418MOL0     H55159  10.825   6.267   6.623  1.7296 -0.5704 -0.1936
  418MOL0     H55160  11.119   6.564   6.383 -1.2149 -0.3690 -0.2012
  418MOL0     H55161  11.090   6.771   6.261  1.3018 -2.0354  0.4048
  418MOL0     H55162  10.250   6.444   5.939  1.4740  1.0448 -0.6355
  418MOL0     H55163  10.109   6.482   6.122  0.8835 -1.3759 -0.8632
  418MOL0     H55164   9.616   6.518   6.201 -1.7629 -0.9164  0.5610
  418MOL0     H55165   9.443   6.558   6.364  1.8008 -1.4370 -1.7858
  418MOL0     H55166   9.316   6.589   6.521  1.1625 -0.7748  1.5235
  418MOL0     H55167   9.266   6.721   6.412  0.9482  1.4779  0.4080
  418MOL0     H55168   9.128   6.663   6.625 -1.1428  0.9379  1.8131
  418MOL0     H55169   9.266   6.708   6.728  1.4882  0.7199 -0.3950
  418MOL0     H55170   9.105   6.887   6.531 -1.7821  3.6454  1.1344
  418MOL0     H55171   9.247   6.936   6.626  0.6438  1.0194 -0.1821
  418MOL0     H55172   9.109   6.879   6.849  3.2839 -3.1185 -0.6902
  418MOL0     H55173   9.045   7.007   6.746  0.5625 -0.7359 -0.9560
  418MOL0     H55174   8.743   6.706   6.755 -1.0255  0.8100 -0.7654
  418MOL0     H55175   9.656   6.899   6.510  2.8680  0.0228  0.0384
  418MOL0     H55176   9.838   6.860   6.351 -1.7459  1.2210 -3.3838
  419MOL0     O55177   8.887   4.707   1.228 -0.7294  0.2257 -0.7876
  419MOL0     C55178   8.861   4.819   1.196 -0.2076 -1.6490 -0.0438
  419MOL0     O55179   8.755   4.894   1.244 -0.7709 -0.9406 -0.5975
  419MOL0     C55180   8.694   4.849   1.362  0.2010 -0.8691  0.2404
  419MOL0     C55181   8.723   4.909   1.481 -0.5719  0.2046  0.0317
  419MOL0     C55182   8.667   4.868   1.601 -0.5498 -0.8811 -0.5806
  419MOL0     C55183   8.570   4.764   1.595 -0.5801 -0.6492 -0.7577
  419MOL0     O55184   8.521   4.738   1.725 -0.6334 -0.0515  0.6176
  419MOL0     C55185   8.454   4.616   1.761  0.1406  0.6386 -0.3548
  419MOL0     C55186   8.474   4.606   1.920 -0.2586 -0.8658  0.3555
  419MOL0     C55187   8.401   4.718   2.002 -0.3137  0.2319 -0.1931
  419MOL0     C55188   8.257   4.711   2.028  0.3249 -0.6939 -0.8303
  419MOL0     C55189   8.212   4.829   2.109 -0.6991 -0.1772  0.3316
  419MOL0     C55190   8.067   4.820   2.157 -0.1101 -0.6057  1.1152
  419MOL0     C55191   8.036   4.932   2.253  0.8222  0.5399  0.3032
  419MOL0     C55192   7.927   4.879   2.358 -0.3882 -0.3379  0.1776
  419MOL0     N55193   7.872   4.976   2.453  0.1458 -0.5950  0.8669
  419MOL0     C55194   7.779   5.074   2.418 -0.1486 -1.1333 -0.5715
  419MOL0     C55195   7.741   5.122   2.542 -0.2415 -0.9424 -0.0708
  419MOL0     C55196   7.641   5.237   2.570  0.2134  0.1626  0.1698
  419MOL0     C55197   7.503   5.179   2.551  0.3930 -0.6454 -0.0517
  419MOL0     C55198   7.465   5.090   2.667 -0.0246  0.0403  0.6312
  419MOL0     C55199   7.395   5.170   2.781 -0.3961 -0.5602 -0.1556
  419MOL0     O55200   7.484   5.267   2.846  0.5157 -0.2589  1.1661
  419MOL0     C55201   7.424   5.365   2.918  0.7196  0.4221  0.0433
  419MOL0     C55202   7.491   5.482   2.925 -0.3142 -0.1000 -0.1205
  419MOL0     C55203   7.447   5.583   3.012 -0.4196  0.8933 -0.2212
  419MOL0     C55204   7.334   5.575   3.091  0.3288  0.5267  0.0241
  419MOL0     C55205   7.308   5.681   3.191 -0.0959  0.0845  0.3076
  419MOL0     O55206   7.390   5.790   3.204 -0.0888  0.3617  0.3779
  419MOL0     C55207   7.349   5.881   3.295  0.2371 -0.0090 -0.8235
  419MOL0     C55208   7.243   5.967   3.275  0.7811  0.9568 -0.2052
  419MOL0     C55209   7.207   6.070   3.367 -0.5657  0.9966  0.3589
  419MOL0     C55210   7.280   6.078   3.488  0.4827 -0.3549 -0.6346
  419MOL0     O55211   7.284   6.186   3.577  0.0242  0.6532  0.1842
  419MOL0     C55212   7.209   6.298   3.550  0.4105 -0.8415 -0.5070
  419MOL0     C55213   7.267   6.390   3.440 -0.2958 -0.1991  0.3559
  419MOL0     C55214   7.280   6.538   3.491 -0.2385  0.4928  0.5821
  419MOL0     C55215   7.143   6.598   3.483 -0.1888  0.2121 -0.4761
  419MOL0     C55216   7.140   6.743   3.518 -0.4585 -0.1728  0.1478
  419MOL0     C55217   7.252   6.825   3.455  0.1472 -0.3740  0.7740
  419MOL0     C55218   7.219   6.974   3.486 -0.1042  0.4084 -0.5911
  419MOL0     C55219   7.329   7.063   3.433 -0.8618  0.4446 -0.3019
  419MOL0    Cl55220   7.302   7.098   3.259  0.0693  0.2156 -0.1888
  419MOL0     C55221   7.379   5.991   3.512 -0.0553  0.1273  0.2873
  419MOL0     C55222   7.422   5.908   3.415 -0.6674 -0.0269  0.0108
  419MOL0     O55223   7.212   5.665   3.263  0.8354  0.5276  0.4586
  419MOL0     C55224   7.261   5.454   3.080  0.3861  0.3847 -1.1304
  419MOL0     C55225   7.305   5.350   2.999 -1.0727  0.1786  0.1619
  419MOL0     N55226   7.809   5.070   2.640 -0.9089  1.1029  0.6967
  419MOL0     N55227   7.900   4.989   2.586 -0.5732  0.4393  0.2829
  419MOL0     C55228   8.534   4.702   1.469 -0.2314  0.5516 -0.2693
  419MOL0     C55229   8.598   4.749   1.353  1.2087 -0.7519 -0.3339
  419MOL0     C55230   8.951   4.874   1.104  0.5545 -0.7154 -0.0992
  419MOL0     C55231   9.077   4.824   1.080  0.2220 -0.8902  0.1361
  419MOL0     C55232   9.161   4.872   0.987  0.4670 -0.9078 -0.2832
  419MOL0     C55233   9.124   4.988   0.918 -0.8067  0.7547  0.2887
  419MOL0     O55234   9.208   5.050   0.833  0.5826 -0.4946 -0.2744
  419MOL0     C55235   9.342   5.015   0.826 -0.0655 -0.0310 -1.7222
  419MOL0     C55236   9.417   5.121   0.759 -0.4174 -0.7822  0.4076
  419MOL0     C55237   9.549   5.080   0.695  0.0405 -0.2265  1.0232
  419MOL0     C55238   9.514   4.992   0.566 -0.5380 -0.1562  0.2885
  419MOL0     C55239   9.577   5.048   0.448 -1.1556  0.1706  0.1700
  419MOL0     C55240   9.641   5.112   0.363 -0.1340 -1.1591 -0.0635
  419MOL0     C55241   9.003   5.042   0.945 -0.4356  0.9086  0.1769
  419MOL0     C55242   8.914   4.995   1.041  0.0263  0.1674 -0.0960
  419MOL0     H55243   8.798   4.988   1.483 -0.8929  0.8854 -4.3797
  419MOL0     H55244   8.715   4.913   1.688 -1.5516  1.2147 -1.0433
  419MOL0     H55245   8.494   4.526   1.715 -2.8012 -0.7906 -0.3281
  419MOL0     H55246   8.347   4.620   1.737 -0.4602  1.0616  2.0450
  419MOL0     H55247   8.582   4.623   1.931 -0.2903 -0.7525  0.4949
  419MOL0     H55248   8.450   4.507   1.958 -2.2337 -0.6286 -0.1787
  419MOL0     H55249   8.421   4.807   1.942 -3.1746  0.6534 -0.6612
  419MOL0     H55250   8.449   4.723   2.101  1.3498 -1.5915 -0.8634
  419MOL0     H55251   8.210   4.710   1.929 -1.2716  2.7348 -0.2429
  419MOL0     H55252   8.240   4.626   2.094 -2.1514 -1.4026 -2.2612
  419MOL0     H55253   8.229   4.925   2.058 -0.6582 -0.3576  0.0068
  419MOL0     H55254   8.262   4.825   2.207  1.5512  0.8647 -0.7039
  419MOL0     H55255   8.053   4.722   2.205 -2.8868 -1.1051 -0.4677
  419MOL0     H55256   8.010   4.819   2.063  2.7955  1.8101 -0.8632
  419MOL0     H55257   8.126   4.956   2.310  1.8341 -2.3546  0.0986
  419MOL0     H55258   7.999   5.020   2.200  1.7375  0.3972 -0.6082
  419MOL0     H55259   7.970   4.800   2.421  2.3003  1.7442  1.1534
  419MOL0     H55260   7.843   4.831   2.307  0.1534 -0.7755 -0.3215
  419MOL0     H55261   7.753   5.100   2.315  2.4277  2.3078 -0.5316
  419MOL0     H55262   7.671   5.318   2.503 -1.5596 -1.9734 -3.5230
  419MOL0     H55263   7.656   5.277   2.671 -0.2566  0.3831  0.1567
  419MOL0     H55264   7.506   5.128   2.454 -0.4957  3.6541 -2.6433
  419MOL0     H55265   7.427   5.254   2.528  1.0531 -0.6915 -2.7161
  419MOL0     H55266   7.400   5.010   2.631  1.0519 -1.5752  2.1045
  419MOL0     H55267   7.549   5.033   2.708  0.7408 -1.2220 -2.4449
  419MOL0     H55268   7.361   5.099   2.857 -1.6379  0.3681  0.1872
  419MOL0     H55269   7.304   5.222   2.750  0.7358  3.4879  2.4872
  419MOL0     H55270   7.575   5.501   2.859 -0.6377  2.3060  0.0926
  419MOL0     H55271   7.507   5.671   3.031  1.9429 -1.0214  1.9209
  419MOL0     H55272   7.187   5.952   3.183 -0.3197 -2.6103  0.8635
  419MOL0     H55273   7.134   6.146   3.339  0.4338  1.1584 -1.9879
  419MOL0     H55274   7.212   6.348   3.648  1.6066  0.1570 -1.0360
  419MOL0     H55275   7.103   6.274   3.533  1.3992 -5.2190 -1.6805
  419MOL0     H55276   7.203   6.379   3.352  1.2884  0.6262 -0.9479
  419MOL0     H55277   7.369   6.351   3.428 -0.8302 -1.1504 -1.4763
  419MOL0     H55278   7.364   6.576   3.431 -0.9892 -1.0894 -1.6106
  419MOL0     H55279   7.323   6.546   3.591  3.9672  0.4165 -1.0001
  419MOL0     H55280   7.117   6.578   3.379 -0.8735 -1.8537  0.0448
  419MOL0     H55281   7.066   6.555   3.548 -0.8087  0.0885 -1.2831
  419MOL0     H55282   7.147   6.754   3.627  1.8568  0.2042  0.0280
  419MOL0     H55283   7.045   6.789   3.490  0.6016  4.1857  2.7706
  419MOL0     H55284   7.259   6.811   3.347 -2.9364 -0.3987  0.4692
  419MOL0     H55285   7.348   6.798   3.500 -0.1842 -2.9484  0.0903
  419MOL0     H55286   7.122   7.009   3.447 -2.2827 -1.0683  2.9785
  419MOL0     H55287   7.227   6.982   3.595  4.2815 -1.6396 -0.5516
  419MOL0     H55288   7.425   7.013   3.450 -1.7684 -1.0995  0.5209
  419MOL0     H55289   7.338   7.156   3.489 -1.0674  1.2019 -1.4836
  419MOL0     H55290   7.437   6.023   3.598  2.7005  2.1869 -2.1034
  419MOL0     H55291   7.524   5.880   3.439  0.6631  3.5426 -0.9135
  419MOL0     H55292   7.171   5.449   3.140  0.9863 -0.1539 -0.2464
  419MOL0     H55293   7.271   5.247   3.001  4.1019 -1.9407 -2.0589
  419MOL0     H55294   8.454   4.628   1.469  1.5772 -1.5703  1.6185
  419MOL0     H55295   8.580   4.713   1.252  2.3350  3.5337 -2.3099
  419MOL0     H55296   9.096   4.739   1.144 -0.3502  0.0972  1.6626
  419MOL0     H55297   9.259   4.831   0.968  2.0408  2.0994  0.7962
  419MOL0     H55298   9.319   4.922   0.772 -5.0630 -0.3214  0.3884
  419MOL0     H55299   9.384   4.987   0.923 -1.6869  2.4887 -0.1793
  419MOL0     H55300   9.352   5.160   0.680 -0.4558  0.8556  1.1981
  419MOL0     H55301   9.441   5.203   0.828  3.4115 -0.9008 -0.5140
  419MOL0     H55302   9.618   5.027   0.761  2.3019  4.6365  3.0593
  419MOL0     H55303   9.608   5.170   0.673  2.3283 -2.1145 -1.2585
  419MOL0     H55304   9.559   4.893   0.573 -0.6039 -0.6259 -3.5956
  419MOL0     H55305   9.407   4.971   0.551 -0.6914  1.7416 -1.9386
  419MOL0     H55306   9.692   5.169   0.288 -1.8787  0.9131  0.2198
  419MOL0     H55307   8.973   5.133   0.894 -2.7062  0.0660 -0.1274
  419MOL0     H55308   8.817   5.037   1.068 -0.3102 -1.2577  1.0967
  420MOL0     O55309   0.592   2.747   8.828 -0.1646  0.5161  0.3632
  420MOL0     C55310   0.558   2.798   8.721 -0.2903  0.8187  0.1874
  420MOL0     O55311   0.435   2.789   8.672 -0.8741 -0.3839 -0.0621
  420MOL0     C55312   0.418   2.792   8.540  0.3285 -0.3110 -0.2467
  420MOL0     C55313   0.501   2.716   8.468 -0.8649 -0.0606 -0.3398
  420MOL0     C55314   0.470   2.693   8.331 -0.0370 -0.4773  0.3151
  420MOL0     C55315   0.352   2.748   8.275  0.5907  0.1832 -0.2400
  420MOL0     O55316   0.322   2.735   8.142  0.6970  0.0556 -0.0377
  420MOL0     C55317   0.361   2.609   8.072 -0.5284  0.3058  0.3066
  420MOL0     C55318   0.295   2.481   8.117  0.5654  0.6161  0.2324
  420MOL0     C55319   0.379   2.358   8.067  0.7210  0.3463 -0.1634
  420MOL0     C55320   0.382   2.359   7.919  0.4882 -0.0704  0.1066
  420MOL0     C55321   0.446   2.239   7.867 -0.9027  0.8697  0.5689
  420MOL0     C55322   0.362   2.108   7.884 -0.5993 -0.2495  1.1001
  420MOL0     C55323   0.434   1.994   7.820  0.1998  0.3764 -0.2074
  420MOL0     C55324   0.346   1.884   7.759 -0.8587 -0.9591  0.5426
  420MOL0     N55325   0.245   1.942   7.662 -0.1271 -0.2479 -0.7582
  420MOL0     C55326   0.113   1.955   7.700 -0.1321  0.0816 -0.6944
  420MOL0     C55327   0.063   2.023   7.594 -0.5876  1.0505 -0.4762
  420MOL0     C55328  -0.077   2.084   7.567  0.4373 -0.3270 -0.4567
  420MOL0     C55329  -0.094   2.205   7.650 -0.4388 -0.4688  0.6320
  420MOL0     C55330  -0.122   2.328   7.563  0.0550 -0.7280  0.2806
  420MOL0     C55331  -0.173   2.454   7.639 -0.5209 -0.0637  0.5491
  420MOL0     O55332  -0.077   2.491   7.736 -0.2001  0.1215 -1.2238
  420MOL0     C55333  -0.113   2.544   7.858 -0.8702  0.0471  0.8185
  420MOL0     C55334  -0.231   2.515   7.925  0.1613 -0.1881  0.6414
  420MOL0     C55335  -0.277   2.597   8.035  0.3148  0.4674  0.1193
  420MOL0     C55336  -0.184   2.682   8.092  0.7887 -0.1793  0.5627
  420MOL0     C55337  -0.223   2.747   8.215 -0.3878  0.8111  0.1376
  420MOL0     O55338  -0.347   2.745   8.267 -0.6916 -0.5454 -0.1311
  420MOL0     C55339  -0.372   2.852   8.355 -0.2370 -0.1049 -0.5261
  420MOL0     C55340  -0.432   2.965   8.309 -0.2536  0.0382 -0.0317
  420MOL0     C55341  -0.462   3.075   8.386 -0.2999  0.3630 -0.5842
  420MOL0     C55342  -0.420   3.077   8.519 -1.4833  0.2804 -0.9410
  420MOL0     O55343  -0.446   3.171   8.610 -0.1750  0.0618 -0.3490
  420MOL0     C55344  -0.460   3.296   8.555  0.4890 -0.5757  0.2059
  420MOL0     C55345  -0.471   3.416   8.653  0.7464  1.1381  0.5920
  420MOL0     C55346  -0.469   3.549   8.581  0.0796  0.0747  0.4110
  420MOL0     C55347  -0.596   3.635   8.597  0.0613  0.4789  0.6427
  420MOL0     C55348  -0.729   3.567   8.584 -0.3179  0.3918  0.0246
  420MOL0     C55349  -0.838   3.671   8.577 -0.4910  1.1782  0.0613
  420MOL0     C55350  -0.970   3.645   8.641  0.1937  0.4750 -0.1848
  420MOL0     C55351  -1.055   3.545   8.560  0.0286  0.3276  0.8792
  420MOL0    Cl55352  -0.967   3.393   8.517  0.5985  0.1439  0.1418
  420MOL0     C55353  -0.347   2.966   8.578  0.5528 -0.4312 -0.3033
  420MOL0     C55354  -0.323   2.858   8.490 -0.0242  0.0727  0.4684
  420MOL0     O55355  -0.126   2.811   8.267 -0.2693 -0.2127  0.5091
  420MOL0     C55356  -0.055   2.693   8.037  0.5270 -0.6906 -0.2659
  420MOL0     C55357  -0.019   2.628   7.919  0.7105 -0.7204 -0.4515
  420MOL0     N55358   0.164   2.044   7.501  0.4413 -0.3624 -0.3696
  420MOL0     N55359   0.273   1.992   7.538  0.3485 -0.7428 -0.3353
  420MOL0     C55360   0.276   2.832   8.354  0.1772  0.1955  0.6137
  420MOL0     C55361   0.302   2.853   8.486 -1.1023 -0.8351  0.0788
  420MOL0     C55362   0.672   2.869   8.653 -1.0245 -0.5355  0.4805
  420MOL0     C55363   0.804   2.829   8.678  0.2818  0.7601 -0.2332
  420MOL0     C55364   0.913   2.880   8.608  0.0965 -0.4992  0.5479
  420MOL0     C55365   0.895   2.984   8.518  0.3983  0.3844  0.1224
  420MOL0     O55366   1.010   3.045   8.469 -0.4755 -0.1758  0.2576
  420MOL0     C55367   1.009   3.168   8.412 -0.6852 -0.3355  0.5683
  420MOL0     C55368   1.148   3.199   8.375 -0.4907  0.4967  0.8457
  420MOL0     C55369   1.234   3.233   8.498 -0.9496 -0.2664 -0.5647
  420MOL0     C55370   1.375   3.219   8.442 -0.1080 -0.1349 -0.2655
  420MOL0     C55371   1.394   3.334   8.340  0.0793 -0.5128  0.7865
  420MOL0     C55372   1.404   3.415   8.251 -0.3223  0.3196 -0.0727
  420MOL0     C55373   0.760   3.039   8.498 -0.7375  0.7304  0.3952
  420MOL0     C55374   0.656   2.986   8.567  0.8197  0.4664  0.2043
  420MOL0     H55375   0.584   2.656   8.503  1.4851  1.8588 -2.2434
  420MOL0     H55376   0.538   2.634   8.270  0.6944 -0.6222  1.2438
  420MOL0     H55377   0.470   2.598   8.072 -0.2028  2.4152 -2.5855
  420MOL0     H55378   0.333   2.622   7.967  0.0032 -0.7925  0.0154
  420MOL0     H55379   0.188   2.471   8.097 -0.0833  2.3778  2.4151
  420MOL0     H55380   0.301   2.476   8.226 -2.5512  0.1574  0.4914
  420MOL0     H55381   0.325   2.269   8.103 -0.8876  1.2047 -0.3493
  420MOL0     H55382   0.479   2.345   8.108 -0.1470 -0.7050  1.7926
  420MOL0     H55383   0.282   2.381   7.879  0.6071  1.8430  0.7984
  420MOL0     H55384   0.442   2.442   7.882  1.6541 -0.3910  1.2363
  420MOL0     H55385   0.541   2.217   7.917  0.8070 -4.0005 -3.8689
  420MOL0     H55386   0.474   2.246   7.761 -2.3389 -0.0964  0.0981
  420MOL0     H55387   0.263   2.129   7.842 -1.3156 -3.4059  0.9476
  420MOL0     H55388   0.345   2.094   7.991 -0.2798  2.0023  1.4900
  420MOL0     H55389   0.504   2.018   7.740 -1.0938  2.5642 -0.7715
  420MOL0     H55390   0.498   1.948   7.895  0.8147  0.2384 -0.8023
  420MOL0     H55391   0.302   1.824   7.840 -2.1564 -0.4791  0.2256
  420MOL0     H55392   0.408   1.816   7.700 -0.6518  2.0541 -3.0789
  420MOL0     H55393   0.056   1.927   7.788 -1.6369  2.4169 -0.8503
  420MOL0     H55394  -0.154   2.012   7.595  1.2958 -0.6538  1.2493
  420MOL0     H55395  -0.085   2.108   7.461 -0.7873  1.4658 -0.0135
  420MOL0     H55396   0.000   2.235   7.696  1.2825  2.2135 -3.9851
  420MOL0     H55397  -0.168   2.207   7.731 -1.0984  3.5565  0.1355
  420MOL0     H55398  -0.023   2.361   7.531 -1.5603  3.0350 -1.4994
  420MOL0     H55399  -0.185   2.315   7.474 -0.5388  3.2964 -0.1022
  420MOL0     H55400  -0.277   2.440   7.670 -1.3541  0.3368 -1.8082
  420MOL0     H55401  -0.198   2.543   7.580 -1.3681 -1.8974 -2.0823
  420MOL0     H55402  -0.297   2.434   7.894  1.9823 -1.5886  0.2034
  420MOL0     H55403  -0.376   2.578   8.075 -0.9779 -0.0430 -3.0047
  420MOL0     H55404  -0.451   2.966   8.202 -1.8794 -3.4689  0.1125
  420MOL0     H55405  -0.509   3.166   8.353 -0.4522 -0.2516 -2.1223
  420MOL0     H55406  -0.546   3.301   8.487  1.0895  1.4313 -0.4742
  420MOL0     H55407  -0.371   3.321   8.496  0.2867 -2.5515 -1.0551
  420MOL0     H55408  -0.383   3.414   8.719  1.5387 -2.7994 -0.2790
  420MOL0     H55409  -0.558   3.412   8.719 -0.8863  1.3839 -1.4558
  420MOL0     H55410  -0.457   3.527   8.474 -2.3004 -2.5216  0.5590
  420MOL0     H55411  -0.380   3.604   8.613  0.1834  0.4659 -0.5008
  420MOL0     H55412  -0.591   3.664   8.702  1.0557  0.3586  0.6418
  420MOL0     H55413  -0.592   3.718   8.526  1.4544 -0.5156 -0.5039
  420MOL0     H55414  -0.753   3.508   8.673  1.6990 -0.2686  0.1876
  420MOL0     H55415  -0.729   3.502   8.496  2.4681 -1.7188  1.4092
  420MOL0     H55416  -0.852   3.689   8.470  0.5892 -1.8237 -0.6621
  420MOL0     H55417  -0.799   3.756   8.634  1.0095  1.6264 -1.5531
  420MOL0     H55418  -0.954   3.637   8.749 -1.8737  2.8304  0.3926
  420MOL0     H55419  -1.031   3.736   8.644  0.6454  0.7525  1.1369
  420MOL0     H55420  -1.094   3.577   8.463 -1.2064 -3.9993 -0.2947
  420MOL0     H55421  -1.143   3.517   8.618 -1.4816  2.5931 -0.1751
  420MOL0     H55422  -0.316   2.970   8.682 -1.6973  0.7370  0.3937
  420MOL0     H55423  -0.283   2.765   8.529 -1.0947 -0.3303  0.6386
  420MOL0     H55424   0.019   2.757   8.085  1.1532 -2.0400  0.6098
  420MOL0     H55425   0.079   2.645   7.877 -0.5875  0.6025 -3.1717
  420MOL0     H55426   0.183   2.880   8.322  1.4905  0.5481 -3.1996
  420MOL0     H55427   0.229   2.910   8.542 -1.4151 -0.9222 -0.2345
  420MOL0     H55428   0.821   2.745   8.744  2.3934 -0.1204 -1.7694
  420MOL0     H55429   1.008   2.849   8.649 -0.8789 -4.6565  0.1716
  420MOL0     H55430   0.967   3.241   8.482 -1.9465  0.5266 -1.0453
  420MOL0     H55431   0.943   3.175   8.325  0.6753 -1.8665 -0.6460
  420MOL0     H55432   1.192   3.121   8.312 -3.1449  1.5443 -2.6653
  420MOL0     H55433   1.137   3.283   8.305 -2.5745 -1.1839 -1.0266
  420MOL0     H55434   1.222   3.174   8.589  2.4976  0.4881  0.5651
  420MOL0     H55435   1.213   3.335   8.533 -0.4591 -1.6509  4.5403
  420MOL0     H55436   1.434   3.231   8.533 -4.3998  3.0817  2.5041
  420MOL0     H55437   1.395   3.122   8.395  1.3030  1.1861 -2.5764
  420MOL0     H55438   1.415   3.498   8.184 -1.4288  0.1000 -0.5506
  420MOL0     H55439   0.764   3.133   8.445  1.1520  0.0881 -0.7086
  420MOL0     H55440   0.559   3.032   8.553  0.0642 -1.3561 -1.0099
  421MOL0     O55441   8.174   8.334   9.692  0.6556 -0.6043 -0.7642
  421MOL0     C55442   8.211   8.435   9.640  0.4097 -0.1340  0.1761
  421MOL0     O55443   8.244   8.451   9.507 -0.2044 -0.8615  0.3468
  421MOL0     C55444   8.257   8.338   9.431 -0.3846 -1.1614  1.3160
  421MOL0     C55445   8.213   8.346   9.298  0.5481  0.9665 -0.3535
  421MOL0     C55446   8.227   8.248   9.201  0.6263 -0.1849  1.0294
  421MOL0     C55447   8.300   8.133   9.243  0.6860  0.4666  0.2711
  421MOL0     O55448   8.318   8.043   9.146 -0.3973 -0.4941  0.5345
  421MOL0     C55449   8.215   7.997   9.071 -0.3213  0.1494  0.0890
  421MOL0     C55450   8.217   8.032   8.921  0.3697 -0.4426  0.7073
  421MOL0     C55451   8.087   8.001   8.847 -0.3809  0.2711 -0.2745
  421MOL0     C55452   8.095   8.032   8.694 -0.0595 -0.5235 -0.2702
  421MOL0     C55453   7.969   7.972   8.637 -1.0546  0.1200  0.0925
  421MOL0     C55454   7.927   8.037   8.510  1.1627 -0.7399  0.2443
  421MOL0     C55455   8.023   7.997   8.392  0.6081 -0.3955  0.4691
  421MOL0     C55456   8.012   8.102   8.281  0.1102 -0.2088  0.6619
  421MOL0     N55457   7.881   8.153   8.235 -0.2278 -0.7182  0.5086
  421MOL0     C55458   7.843   8.154   8.104  0.1376 -0.6243 -0.2476
  421MOL0     C55459   7.728   8.228   8.095 -0.6428  0.8896  0.3104
  421MOL0     C55460   7.650   8.259   7.968  0.2712  0.9007  0.0151
  421MOL0     C55461   7.606   8.141   7.875 -0.0717 -0.4341 -0.6836
  421MOL0     C55462   7.480   8.075   7.931  0.8218  0.4214  0.7976
  421MOL0     C55463   7.495   7.990   8.050 -0.3435  0.1232 -0.3139
  421MOL0     O55464   7.499   7.854   8.013  0.2692 -0.3649  0.6531
  421MOL0     C55465   7.615   7.802   8.058 -0.1121  0.7990  0.5877
  421MOL0     C55466   7.634   7.766   8.190  0.9065 -0.0206  0.2690
  421MOL0     C55467   7.760   7.732   8.245 -0.4768 -0.0565 -0.0979
  421MOL0     C55468   7.864   7.732   8.154 -0.7125 -0.0316 -1.1109
  421MOL0     C55469   8.002   7.694   8.207 -0.7775  0.6290 -0.1602
  421MOL0     O55470   8.004   7.643   8.335  0.8414  0.3781  0.0925
  421MOL0     C55471   8.106   7.561   8.384 -0.7994 -0.4064 -0.7189
  421MOL0     C55472   8.095   7.524   8.520 -0.4581 -0.2509 -0.3886
  421MOL0     C55473   8.177   7.425   8.580 -0.9418 -0.5919 -0.1288
  421MOL0     C55474   8.290   7.382   8.515 -0.1471  0.1697 -0.4737
  421MOL0     O55475   8.374   7.307   8.589 -1.2778 -0.0953  0.7641
  421MOL0     C55476   8.511   7.364   8.596  0.3112 -0.4347 -0.4524
  421MOL0     C55477   8.592   7.273   8.688 -0.4873  0.2361 -0.1936
  421MOL0     C55478   8.543   7.278   8.833  0.0901  0.6001 -0.2614
  421MOL0     C55479   8.645   7.192   8.912  1.2084 -0.3335  0.5460
  421MOL0     C55480   8.600   7.165   9.059  0.3712 -0.3805  0.7482
  421MOL0     C55481   8.613   7.288   9.148 -1.3824  0.7142 -0.1535
  421MOL0     C55482   8.558   7.263   9.290  0.5709  0.0530  0.6182
  421MOL0     C55483   8.597   7.138   9.359  0.4389 -0.3465 -0.2860
  421MOL0    Cl55484   8.763   7.169   9.411  0.0085 -0.3646  0.0553
  421MOL0     C55485   8.313   7.427   8.385 -0.9267 -0.1737  0.2829
  421MOL0     C55486   8.219   7.509   8.319 -0.4533 -0.1333 -0.0615
  421MOL0     O55487   8.107   7.727   8.143  0.1876 -0.2555 -0.4464
  421MOL0     C55488   7.850   7.778   8.026  0.5842 -0.2543  0.1359
  421MOL0     C55489   7.723   7.806   7.972  0.5232  0.2743  0.1289
  421MOL0     N55490   7.684   8.243   8.228 -0.2645 -0.5750  0.8137
  421MOL0     N55491   7.775   8.201   8.301  0.1855 -0.0623 -0.5193
  421MOL0     C55492   8.363   8.124   9.367 -0.2375  0.2172 -0.0351
  421MOL0     C55493   8.347   8.233   9.461 -0.2986  0.4716 -0.1804
  421MOL0     C55494   8.211   8.550   9.732  0.4515  0.4821  0.3727
  421MOL0     C55495   8.163   8.540   9.867  0.0892  0.5153  0.5137
  421MOL0     C55496   8.147   8.660   9.934 -0.1039 -0.1668  0.4132
  421MOL0     C55497   8.166   8.785   9.884 -0.4329 -0.4174 -0.6443
  421MOL0     O55498   8.178   8.897   9.956 -0.2037 -0.8025  0.4256
  421MOL0     C55499   8.122   8.911  10.090 -0.6109  0.2299  0.0225
  421MOL0     C55500   7.966   8.896  10.117  0.7753  0.3763  0.4341
  421MOL0     C55501   7.874   8.935  10.003 -0.9150  1.2747  0.1013
  421MOL0     C55502   7.729   8.900  10.038  0.1076 -0.2767 -0.0160
  421MOL0     C55503   7.644   8.914   9.922 -0.5168  0.4584 -0.1760
  421MOL0     C55504   7.568   8.891   9.832  0.8930  0.1667 -0.6456
  421MOL0     C55505   8.214   8.793   9.748 -0.1619 -0.0382 -0.0345
  421MOL0     C55506   8.238   8.677   9.672 -0.8583 -0.2819  0.5035
  421MOL0     H55507   8.154   8.435   9.280  1.8888  1.9234 -0.0993
  421MOL0     H55508   8.190   8.268   9.101  3.2930 -0.3525 -0.0547
  421MOL0     H55509   8.121   8.028   9.118  0.9025  2.0864  1.4659
  421MOL0     H55510   8.223   7.889   9.084  1.1965  0.1372 -0.6746
  421MOL0     H55511   8.293   7.976   8.866  2.8099  3.0149  0.2457
  421MOL0     H55512   8.237   8.139   8.911 -0.3034 -0.4586 -1.1145
  421MOL0     H55513   8.013   8.060   8.902  0.1558  2.3681 -1.6869
  421MOL0     H55514   8.060   7.896   8.862  2.8864 -0.6333 -0.0329
  421MOL0     H55515   8.083   8.140   8.684 -2.5515 -0.5371  1.5907
  421MOL0     H55516   8.184   7.997   8.642  0.9642  2.6665 -0.8512
  421MOL0     H55517   7.892   7.971   8.715  1.0089 -0.0040  2.2242
  421MOL0     H55518   7.980   7.866   8.610 -0.6998 -0.0584  0.9324
  421MOL0     H55519   7.909   8.141   8.539  3.2155 -1.1062  3.3095
  421MOL0     H55520   7.834   7.991   8.477  1.1007 -2.6692  2.8262
  421MOL0     H55521   8.130   7.987   8.413  0.9664  1.3362 -0.3097
  421MOL0     H55522   7.987   7.905   8.346 -2.5154  0.0367  1.7801
  421MOL0     H55523   8.063   8.059   8.194  0.8479  1.0638  0.4384
  421MOL0     H55524   8.076   8.188   8.303 -1.3732  0.6362  1.9117
  421MOL0     H55525   7.890   8.106   8.018 -1.8569 -2.1460 -0.5434
  421MOL0     H55526   7.704   8.338   7.916  2.1184 -0.1399  0.2532
  421MOL0     H55527   7.559   8.312   7.997  0.3401 -0.1982  2.4634
  421MOL0     H55528   7.694   8.075   7.867  1.3739  1.2979  0.2909
  421MOL0     H55529   7.581   8.176   7.775 -2.6140  0.7773  0.2937
  421MOL0     H55530   7.413   8.156   7.961 -1.0263 -0.6165 -0.3156
  421MOL0     H55531   7.425   8.023   7.852  0.5900  0.3226  1.0229
  421MOL0     H55532   7.400   8.012   8.100 -2.1828 -0.7911 -3.1585
  421MOL0     H55533   7.582   8.020   8.109  0.5338 -0.6134 -1.1784
  421MOL0     H55534   7.540   7.771   8.244 -1.8245 -1.1484 -3.8778
  421MOL0     H55535   7.771   7.707   8.350 -1.1525  0.8206  0.1838
  421MOL0     H55536   8.009   7.557   8.578 -0.7153 -1.6334  0.0612
  421MOL0     H55537   8.167   7.396   8.684 -0.4497  0.3314  0.1802
  421MOL0     H55538   8.509   7.471   8.620 -1.2672  0.2493 -3.1874
  421MOL0     H55539   8.559   7.364   8.498  1.2611 -1.8520 -0.0335
  421MOL0     H55540   8.695   7.309   8.690 -1.1593  2.4442 -1.3422
  421MOL0     H55541   8.584   7.172   8.647 -1.4785 -0.1485  0.8742
  421MOL0     H55542   8.444   7.232   8.843  1.3728 -1.9601  1.7102
  421MOL0     H55543   8.536   7.379   8.874 -4.2005 -0.6382  2.8569
  421MOL0     H55544   8.665   7.092   8.872  1.6755  0.0685 -0.2531
  421MOL0     H55545   8.729   7.262   8.909 -2.1089  4.0916  0.1068
  421MOL0     H55546   8.665   7.082   9.088  2.2190 -0.5212 -3.0914
  421MOL0     H55547   8.496   7.132   9.063 -0.8212  2.8444  0.0447
  421MOL0     H55548   8.579   7.378   9.096 -1.6507 -0.9145 -3.0129
  421MOL0     H55549   8.720   7.308   9.151 -0.9251 -0.7192 -2.9275
  421MOL0     H55550   8.583   7.349   9.353  1.3097  2.1913 -2.3579
  421MOL0     H55551   8.450   7.251   9.281  0.7062  0.5202 -3.1183
  421MOL0     H55552   8.592   7.054   9.290  0.3093  0.1038 -0.8279
  421MOL0     H55553   8.528   7.125   9.444  0.0986 -1.9650 -0.7804
  421MOL0     H55554   8.396   7.378   8.335  0.1327 -0.3177  2.0801
  421MOL0     H55555   8.243   7.529   8.214 -0.5419 -3.7282 -0.8912
  421MOL0     H55556   7.945   7.777   7.973  1.6414 -0.6450  1.9303
  421MOL0     H55557   7.711   7.824   7.866 -1.2746  2.6483  0.6450
  421MOL0     H55558   8.428   8.038   9.365 -2.1155 -1.2710  0.5239
  421MOL0     H55559   8.403   8.232   9.554 -0.0330 -0.1967 -0.3359
  421MOL0     H55560   8.145   8.443   9.911  2.0746  0.4750  1.3395
  421MOL0     H55561   8.134   8.643  10.041 -0.6945  1.8564  0.6968
  421MOL0     H55562   8.169   9.003  10.125  3.0188 -0.1703 -3.1420
  421MOL0     H55563   8.172   8.829  10.143  3.3158  0.2443 -3.2282
  421MOL0     H55564   7.957   8.787  10.124  2.5233 -0.1115 -2.7486
  421MOL0     H55565   7.940   8.932  10.217  2.5331  0.9076  0.7447
  421MOL0     H55566   7.912   8.880   9.916  0.2059 -0.2960  1.5153
  421MOL0     H55567   7.874   9.041   9.976  2.1683  1.5330  0.6956
  421MOL0     H55568   7.724   8.800  10.082  0.1919 -1.0991 -1.7974
  421MOL0     H55569   7.698   8.965  10.121  0.0432 -2.5280  1.8267
  421MOL0     H55570   7.502   8.880   9.748  0.6185 -2.9822 -0.1561
  421MOL0     H55571   8.244   8.883   9.694  3.7098 -1.7625 -1.1347
  421MOL0     H55572   8.270   8.670   9.569 -0.5138 -4.5298  0.7109
  422MOL0     O55573   5.295   5.095   8.260  0.1849  0.2158  0.5206
  422MOL0     C55574   5.368   4.996   8.264 -0.0803 -0.3674 -0.4407
  422MOL0     O55575   5.496   4.993   8.299  0.1788  0.6262 -0.3972
  422MOL0     C55576   5.575   5.107   8.317 -0.3172 -0.1543 -0.2155
  422MOL0     C55577   5.708   5.079   8.355  1.4771  0.2229  0.6434
  422MOL0     C55578   5.794   5.181   8.371  0.0059 -0.3318 -0.2158
  422MOL0     C55579   5.759   5.313   8.352 -0.1961 -1.0556 -0.6276
  422MOL0     O55580   5.866   5.398   8.354 -0.9818  0.2032 -0.9661
  422MOL0     C55581   5.850   5.546   8.363  0.3155  0.9853  0.3313
  422MOL0     C55582   5.981   5.600   8.333  0.5493 -0.3688 -0.1037
  422MOL0     C55583   6.085   5.548   8.428 -0.2902 -0.4484 -0.5001
  422MOL0     C55584   6.221   5.614   8.397 -0.0901  0.6192  0.0284
  422MOL0     C55585   6.214   5.768   8.375  0.0469 -0.0756  0.1046
  422MOL0     C55586   6.364   5.826   8.362  0.1979 -0.3462  0.6864
  422MOL0     C55587   6.367   5.979   8.379 -1.1483  0.0043  0.5924
  422MOL0     C55588   6.507   6.047   8.394  0.3986  0.1354 -0.1947
  422MOL0     N55589   6.528   6.133   8.273 -0.2541 -0.0515  0.4449
  422MOL0     C55590   6.449   6.248   8.259 -0.4403 -0.5119 -0.5438
  422MOL0     C55591   6.491   6.292   8.138  0.5356  0.7607  0.9624
  422MOL0     C55592   6.415   6.405   8.072  0.1309  0.1068 -0.5593
  422MOL0     C55593   6.308   6.350   7.978 -0.1722  0.1234  0.3182
  422MOL0     C55594   6.228   6.458   7.900  0.4376  0.7742 -0.6400
  422MOL0     C55595   6.094   6.407   7.828  0.3772 -0.5470  0.0998
  422MOL0     O55596   5.995   6.500   7.769  0.2066  0.4758  0.2140
  422MOL0     C55597   5.922   6.587   7.846 -1.3752  0.1805  0.4790
  422MOL0     C55598   5.862   6.701   7.786 -0.7781  0.5911 -0.5091
  422MOL0     C55599   5.779   6.781   7.859 -0.6581 -0.4394  1.3844
  422MOL0     C55600   5.771   6.772   7.994  0.6881 -0.1573 -1.9667
  422MOL0     C55601   5.683   6.862   8.078  0.2258 -0.3548 -0.3405
  422MOL0     O55602   5.638   6.978   8.032 -0.0924 -0.5975  0.1506
  422MOL0     C55603   5.594   7.056   8.127  0.1274  0.3018 -0.3898
  422MOL0     C55604   5.671   7.155   8.188  0.0976 -0.2139  1.1435
  422MOL0     C55605   5.613   7.240   8.290  0.8349 -0.2932  0.1108
  422MOL0     C55606   5.480   7.234   8.325  0.7069 -1.2589  0.8614
  422MOL0     O55607   5.433   7.323   8.422  0.2072 -0.1295  0.7773
  422MOL0     C55608   5.418   7.269   8.552  0.2168  1.1490  0.8227
  422MOL0     C55609   5.279   7.231   8.587  0.9020  0.0504 -0.3578
  422MOL0     C55610   5.264   7.162   8.723 -0.3226 -0.1187 -0.4139
  422MOL0     C55611   5.121   7.181   8.768 -0.1705 -0.0852 -0.4192
  422MOL0     C55612   5.095   7.122   8.916 -0.3833  1.2446  1.0494
  422MOL0     C55613   4.943   7.116   8.937  0.1435  0.8595  0.3857
  422MOL0     C55614   4.929   7.086   9.090  0.5725  0.2397  0.4743
  422MOL0     C55615   4.781   7.102   9.137  0.4848 -0.4778  0.1025
  422MOL0    Cl55616   4.698   6.959   9.082  0.0953 -0.1753 -0.3255
  422MOL0     C55617   5.405   7.140   8.257  0.1525 -0.1587 -0.0334
  422MOL0     C55618   5.461   7.052   8.161  1.7429 -0.8991 -0.2388
  422MOL0     O55619   5.668   6.826   8.193 -0.2783  1.4065  0.1007
  422MOL0     C55620   5.842   6.674   8.063 -0.0035  0.3724 -0.7599
  422MOL0     C55621   5.909   6.575   7.984  0.6444  0.1937  0.1197
  422MOL0     N55622   6.584   6.211   8.084 -0.6218 -0.0708 -0.1434
  422MOL0     N55623   6.610   6.119   8.170 -0.3744  0.5518 -0.1875
  422MOL0     C55624   5.620   5.348   8.311  0.1077 -0.4701  0.7862
  422MOL0     C55625   5.530   5.242   8.301 -0.1455 -0.7302 -0.2530
  422MOL0     C55626   5.289   4.870   8.245  0.5731 -0.5785 -0.0479
  422MOL0     C55627   5.345   4.751   8.269 -0.6354 -0.8459  0.4662
  422MOL0     C55628   5.283   4.630   8.231 -0.0903  0.8540  0.2444
  422MOL0     C55629   5.147   4.626   8.188 -0.0163  0.1537 -0.5299
  422MOL0     O55630   5.085   4.520   8.140  0.5912 -0.3416 -0.1410
  422MOL0     C55631   5.121   4.391   8.180  1.0502 -0.2626  0.0439
  422MOL0     C55632   5.014   4.282   8.151  1.3245 -0.0706 -0.0407
  422MOL0     C55633   4.963   4.297   8.010 -0.3962  0.1559 -0.0257
  422MOL0     C55634   4.895   4.179   7.938  0.2121  0.0027 -0.4774
  422MOL0     C55635   4.950   4.044   7.954 -0.3105  0.0182 -0.3890
  422MOL0     C55636   5.002   3.934   7.947 -0.8673 -0.5564  0.3876
  422MOL0     C55637   5.083   4.744   8.176  0.0200  0.3442 -0.1214
  422MOL0     C55638   5.150   4.869   8.198  0.1068 -0.0780  0.2637
  422MOL0     H55639   5.736   4.975   8.373 -0.6723 -0.4179  0.5508
  422MOL0     H55640   5.899   5.158   8.388 -0.2108 -1.0420  0.2207
  422MOL0     H55641   5.818   5.577   8.463  3.6407 -2.4429  2.7815
  422MOL0     H55642   5.776   5.567   8.285 -0.4718 -0.0193  0.7809
  422MOL0     H55643   5.974   5.708   8.351 -0.3237  0.0640 -2.6595
  422MOL0     H55644   6.000   5.594   8.226 -1.4192  0.9041 -0.5851
  422MOL0     H55645   6.093   5.440   8.412  3.5900 -0.7858  2.2107
  422MOL0     H55646   6.053   5.562   8.531  1.9825 -1.7293  0.4479
  422MOL0     H55647   6.283   5.578   8.479 -1.4933  1.2521  1.4052
  422MOL0     H55648   6.254   5.562   8.306  2.1189 -1.8596  2.0694
  422MOL0     H55649   6.167   5.821   8.458  1.3258  0.5533  0.4525
  422MOL0     H55650   6.150   5.803   8.294  0.3647  1.9223  0.6545
  422MOL0     H55651   6.409   5.799   8.266 -1.3438  1.6145 -0.6663
  422MOL0     H55652   6.422   5.776   8.440  1.2644 -1.2793 -0.6572
  422MOL0     H55653   6.309   6.027   8.300 -0.1805  0.6729  0.2647
  422MOL0     H55654   6.315   5.996   8.474  1.3843  1.5582  1.8247
  422MOL0     H55655   6.587   5.972   8.401 -0.6389 -0.8280  3.6224
  422MOL0     H55656   6.509   6.113   8.480  0.4737  1.7094 -1.3534
  422MOL0     H55657   6.363   6.283   8.316 -1.4007  0.0810 -2.2745
  422MOL0     H55658   6.496   6.463   8.027  2.6310 -3.2282 -0.7129
  422MOL0     H55659   6.352   6.462   8.141 -1.1591 -2.9364  0.9311
  422MOL0     H55660   6.245   6.280   8.034  0.1687 -2.1009 -1.9225
  422MOL0     H55661   6.359   6.296   7.898 -1.5563 -0.8391  0.0497
  422MOL0     H55662   6.210   6.547   7.962 -1.5031  0.5085 -0.7533
  422MOL0     H55663   6.289   6.494   7.817  0.0357  0.9785 -0.8508
  422MOL0     H55664   6.038   6.334   7.887  0.0593 -3.2801 -3.2361
  422MOL0     H55665   6.130   6.340   7.749 -1.3182 -1.6834  0.2391
  422MOL0     H55666   5.890   6.713   7.682  1.1340  1.4304  0.0519
  422MOL0     H55667   5.720   6.855   7.806 -0.0863 -2.7518 -2.9241
  422MOL0     H55668   5.778   7.160   8.171 -0.1368  1.7013 -0.1131
  422MOL0     H55669   5.676   7.322   8.324  0.1834  0.2150  0.0967
  422MOL0     H55670   5.467   7.336   8.624  1.2448 -0.5670  1.7882
  422MOL0     H55671   5.481   7.180   8.554  2.4547  2.3426 -3.3597
  422MOL0     H55672   5.227   7.161   8.521  1.8611 -2.2418  1.2019
  422MOL0     H55673   5.231   7.329   8.589  3.2061  1.3220 -1.7686
  422MOL0     H55674   5.320   7.202   8.809 -0.9849  0.2199 -0.1270
  422MOL0     H55675   5.292   7.058   8.710  1.0928  0.2932 -0.7961
  422MOL0     H55676   5.093   7.285   8.752 -1.1861 -0.2548  0.1556
  422MOL0     H55677   5.060   7.126   8.697  0.9245 -4.3210  1.5878
  422MOL0     H55678   5.144   7.187   8.989  0.0552  1.3431  0.6778
  422MOL0     H55679   5.140   7.022   8.926 -1.4047  0.7000  0.4045
  422MOL0     H55680   4.892   7.037   8.882 -1.6093  1.3767  1.2136
  422MOL0     H55681   4.906   7.216   8.913 -1.7593  1.2594  4.2226
  422MOL0     H55682   4.960   6.986   9.121 -2.0619  0.1584  3.3761
  422MOL0     H55683   5.000   7.145   9.148  2.8910 -0.2445 -1.6898
  422MOL0     H55684   4.727   7.191   9.102 -1.4352 -2.2460 -1.7363
  422MOL0     H55685   4.774   7.107   9.246  0.9334  2.6167  0.0688
  422MOL0     H55686   5.298   7.122   8.269  0.3219 -0.8972  0.5009
  422MOL0     H55687   5.390   6.986   8.111  1.7009  1.1197 -3.1069
  422MOL0     H55688   5.836   6.648   8.168  0.9234 -1.8378 -1.2087
  422MOL0     H55689   5.954   6.488   8.032  0.5670 -0.5982 -1.1818
  422MOL0     H55690   5.598   5.449   8.279  0.9044 -0.7746 -0.8682
  422MOL0     H55691   5.431   5.273   8.270  0.4472  0.7339 -0.7372
  422MOL0     H55692   5.448   4.747   8.302 -1.0549  0.9480  2.1909
  422MOL0     H55693   5.343   4.540   8.238 -1.3225  0.0857  1.7236
  422MOL0     H55694   5.135   4.401   8.288  4.7115  3.4870 -0.5078
  422MOL0     H55695   5.219   4.376   8.133  0.2531 -1.0170 -1.4537
  422MOL0     H55696   5.051   4.181   8.169  0.5687 -0.0358  1.9615
  422MOL0     H55697   4.929   4.300   8.217  0.7620  0.3259 -0.8627
  422MOL0     H55698   5.045   4.323   7.942  1.1209 -0.1937  1.5810
  422MOL0     H55699   4.893   4.379   7.998 -1.5656 -0.6409  1.1036
  422MOL0     H55700   4.790   4.166   7.964  0.5457  1.9073  2.2363
  422MOL0     H55701   4.895   4.201   7.831 -1.4063 -1.8682 -0.9076
  422MOL0     H55702   5.067   3.849   7.941 -0.3500 -0.3510  2.4279
  422MOL0     H55703   4.988   4.739   8.124 -0.5982 -1.4692  1.0881
  422MOL0     H55704   5.095   4.958   8.170  0.9861  0.1260 -0.8955
  423MOL0     O55705   2.828   1.643   0.292  1.3326 -0.9360  0.0368
  423MOL0     C55706   2.882   1.704   0.205  0.0959  0.1579  0.4085
  423MOL0     O55707   2.978   1.651   0.133  0.9572  1.0822  0.1795
  423MOL0     C55708   2.985   1.520   0.101  0.5343 -0.4972 -0.9433
  423MOL0     C55709   3.114   1.477   0.082 -0.3350  0.3701  1.0048
  423MOL0     C55710   3.132   1.347   0.040 -0.8845  0.4812 -0.4506
  423MOL0     C55711   3.035   1.257   0.027 -0.7140  0.9498 -0.5685
  423MOL0     O55712   3.042   1.121   0.006 -0.1876 -0.5442  0.2637
  423MOL0     C55713   3.173   1.057   0.003  0.2157 -0.1679  0.5856
  423MOL0     C55714   3.244   1.067  -0.127 -0.1476 -0.2519 -0.7013
  423MOL0     C55715   3.378   0.980  -0.136 -0.2781  0.5419  0.3652
  423MOL0     C55716   3.497   1.011  -0.047  0.0116  0.3397  0.1185
  423MOL0     C55717   3.519   1.171  -0.047 -0.4385  0.3513 -0.2284
  423MOL0     C55718   3.659   1.205  -0.006  0.6060 -0.2624  0.3598
  423MOL0     C55719   3.678   1.357   0.007 -0.0468 -0.6297  0.0413
  423MOL0     C55720   3.568   1.434   0.090  0.2029 -0.6508 -0.2255
  423MOL0     N55721   3.594   1.574   0.128  0.3893  0.1034  0.4731
  423MOL0     C55722   3.599   1.633   0.251  0.1019 -0.6958  0.4570
  423MOL0     C55723   3.636   1.759   0.230 -0.6540  1.2708  0.4653
  423MOL0     C55724   3.627   1.850   0.352  0.1234 -0.0844  0.2477
  423MOL0     C55725   3.767   1.864   0.420  0.1025  0.3712  0.0716
  423MOL0     C55726   3.837   1.719   0.466 -0.4771 -0.1377  0.0957
  423MOL0     C55727   3.979   1.725   0.527 -0.0541 -0.4356  0.8643
  423MOL0     O55728   3.966   1.815   0.639  0.1448  0.0981 -0.8810
  423MOL0     C55729   4.079   1.895   0.668 -0.7301 -0.2620  0.1407
  423MOL0     C55730   4.069   2.016   0.730  0.0026  0.6765 -0.1841
  423MOL0     C55731   4.172   2.101   0.749  0.5682  0.4767  0.2135
  423MOL0     C55732   4.310   2.067   0.725 -0.2573  0.5197 -0.1194
  423MOL0     C55733   4.422   2.153   0.735  0.4418 -0.2167  0.2797
  423MOL0     O55734   4.392   2.283   0.771  0.2344  0.0079 -0.1770
  423MOL0     C55735   4.480   2.378   0.759 -0.5855  0.6892 -1.0871
  423MOL0     C55736   4.454   2.491   0.682 -0.0290 -0.2209  0.1977
  423MOL0     C55737   4.551   2.596   0.670 -1.3830 -0.1504 -1.0467
  423MOL0     C55738   4.682   2.583   0.729 -0.0150 -0.0578 -0.5127
  423MOL0     O55739   4.758   2.690   0.708 -0.7177 -0.5945 -0.2618
  423MOL0     C55740   4.894   2.680   0.749 -0.3005 -0.4707  0.6542
  423MOL0     C55741   4.961   2.812   0.715 -1.3049  0.1315  0.4602
  423MOL0     C55742   5.115   2.819   0.772 -0.4846 -1.0466 -0.1682
  423MOL0     C55743   5.150   2.768   0.916  0.1988 -0.2295 -0.8953
  423MOL0     C55744   5.251   2.858   0.981  0.0651  0.1985  0.6318
  423MOL0     C55745   5.280   2.814   1.127  0.1550  0.2526  0.2465
  423MOL0     C55746   5.397   2.913   1.168  0.0433 -0.5179  1.1165
  423MOL0     C55747   5.483   2.867   1.284  0.6972 -0.5288 -0.1316
  423MOL0    Cl55748   5.361   2.804   1.403  0.1874 -0.0107  0.0632
  423MOL0     C55749   4.706   2.471   0.818 -0.2707 -0.1916 -0.1586
  423MOL0     C55750   4.603   2.375   0.825 -0.2249 -0.1862 -0.4698
  423MOL0     O55751   4.529   2.119   0.700 -0.7631 -0.0797 -0.7509
  423MOL0     C55752   4.323   1.943   0.655 -0.3927 -1.5588  0.3331
  423MOL0     C55753   4.208   1.866   0.632 -1.1753  0.3479 -0.5203
  423MOL0     N55754   3.653   1.775   0.098  0.8187  0.3790 -0.0860
  423MOL0     N55755   3.626   1.669   0.034 -0.7897 -0.1243 -0.1127
  423MOL0     C55756   2.909   1.295   0.061 -0.4931  0.2958 -0.5354
  423MOL0     C55757   2.878   1.428   0.090  0.3579  0.0910 -0.5990
  423MOL0     C55758   2.872   1.850   0.194 -0.6094  0.2330 -0.2722
  423MOL0     C55759   2.970   1.940   0.137 -0.5334 -0.9195  0.6509
  423MOL0     C55760   2.939   2.077   0.107 -0.1740  0.2269 -0.9395
  423MOL0     C55761   2.815   2.129   0.121 -0.9499 -0.3670 -0.2390
  423MOL0     O55762   2.772   2.250   0.075 -0.2168  0.1174 -0.4606
  423MOL0     C55763   2.847   2.366   0.087  0.5522 -0.9636 -0.3547
  423MOL0     C55764   2.752   2.487   0.103 -0.6370  0.1846  0.4090
  423MOL0     C55765   2.808   2.612   0.016 -0.4432 -0.2059 -0.9771
  423MOL0     C55766   2.739   2.733   0.069 -0.3567  0.7240  0.8061
  423MOL0     C55767   2.786   2.767   0.205 -0.0254  0.0451  0.0391
  423MOL0     C55768   2.846   2.799   0.311 -0.0075  0.1950 -0.3939
  423MOL0     C55769   2.720   2.050   0.177 -0.2743  0.6753 -0.6774
  423MOL0     C55770   2.750   1.912   0.209 -0.5911 -0.3978 -0.2847
  423MOL0     H55771   3.201   1.541   0.095  1.8545 -1.7847 -1.5368
  423MOL0     H55772   3.236   1.323   0.021 -0.8107 -0.8177  1.3419
  423MOL0     H55773   3.168   0.951   0.028  0.9529 -0.0937  1.0895
  423MOL0     H55774   3.247   1.102   0.071  0.8634 -1.0756  0.5005
  423MOL0     H55775   3.260   1.168  -0.166 -1.0198  0.3958  0.5596
  423MOL0     H55776   3.175   1.030  -0.204  0.0785  0.2861 -1.1648
  423MOL0     H55777   3.409   0.971  -0.240  0.0995 -2.3695  0.6253
  423MOL0     H55778   3.352   0.877  -0.110 -1.1392  0.3359 -1.1883
  423MOL0     H55779   3.462   0.971   0.049 -1.0328 -4.4705 -1.9888
  423MOL0     H55780   3.586   0.955  -0.076 -2.0702 -2.2805 -1.7275
  423MOL0     H55781   3.455   1.215   0.029 -0.4020  2.5565 -1.3897
  423MOL0     H55782   3.507   1.229  -0.139 -0.5932  0.8965  0.1379
  423MOL0     H55783   3.732   1.159  -0.073  0.2224 -0.5645  0.1419
  423MOL0     H55784   3.681   1.154   0.088  1.2950 -2.5791 -0.9661
  423MOL0     H55785   3.774   1.376   0.056 -1.0005  2.3585  0.9564
  423MOL0     H55786   3.677   1.396  -0.095 -0.7058  0.0244  0.2921
  423MOL0     H55787   3.548   1.372   0.178 -0.5059 -3.3082 -2.1486
  423MOL0     H55788   3.481   1.441   0.024  0.7315  2.5435 -0.7344
  423MOL0     H55789   3.590   1.592   0.351  2.5589  0.2535  1.1358
  423MOL0     H55790   3.563   1.808   0.430 -0.0009 -0.6594 -0.1515
  423MOL0     H55791   3.580   1.946   0.329 -0.3845  0.0805  1.8967
  423MOL0     H55792   3.753   1.930   0.506 -0.8678  0.8583 -0.4514
  423MOL0     H55793   3.844   1.912   0.358  3.1514  0.5046  3.6089
  423MOL0     H55794   3.772   1.668   0.538 -0.8431 -0.1517 -0.2385
  423MOL0     H55795   3.850   1.670   0.369  1.3513  0.1449  0.1634
  423MOL0     H55796   4.044   1.773   0.453 -1.2915  0.3983  0.2974
  423MOL0     H55797   4.013   1.625   0.556 -3.3833 -1.6478  0.9819
  423MOL0     H55798   3.965   2.032   0.756 -1.1293 -2.5030 -2.1196
  423MOL0     H55799   4.156   2.195   0.801  3.6429 -0.4850  3.2553
  423MOL0     H55800   4.358   2.497   0.633  0.4763  0.3039 -0.7425
  423MOL0     H55801   4.529   2.682   0.608 -0.4498 -0.9359 -2.5209
  423MOL0     H55802   4.945   2.608   0.684  2.5932 -0.6415  2.9110
  423MOL0     H55803   4.904   2.650   0.854 -1.3477  2.6665  1.7459
  423MOL0     H55804   4.902   2.894   0.759 -2.3795  0.1649 -0.9618
  423MOL0     H55805   4.960   2.840   0.609 -1.5995  3.3573  1.2145
  423MOL0     H55806   5.157   2.920   0.765  2.9141 -2.1438  1.8578
  423MOL0     H55807   5.181   2.768   0.701  1.4272  3.5154 -2.0809
  423MOL0     H55808   5.052   2.769   0.965 -1.6270 -0.6992 -4.2086
  423MOL0     H55809   5.173   2.661   0.914 -2.7024 -1.0175  1.4491
  423MOL0     H55810   5.232   2.966   0.984 -1.2606  0.1920 -2.7181
  423MOL0     H55811   5.343   2.858   0.922 -0.6020  2.2316 -0.5019
  423MOL0     H55812   5.303   2.707   1.128 -0.6346  0.0789  0.8856
  423MOL0     H55813   5.198   2.834   1.197  2.0709 -0.1601  2.7497
  423MOL0     H55814   5.463   2.934   1.083  0.7877 -2.8798  1.0480
  423MOL0     H55815   5.345   3.004   1.200 -2.4988 -1.7646  0.7377
  423MOL0     H55816   5.544   2.947   1.329  0.7916 -0.0467 -1.0961
  423MOL0     H55817   5.541   2.778   1.257 -1.3053 -1.2951 -2.1951
  423MOL0     H55818   4.800   2.465   0.871 -0.5532 -0.8452  0.2787
  423MOL0     H55819   4.629   2.283   0.877  0.9507  1.1090  1.3687
  423MOL0     H55820   4.421   1.918   0.617  2.0497  1.6047  3.8620
  423MOL0     H55821   4.239   1.778   0.577  1.6745  2.3307 -2.3479
  423MOL0     H55822   2.815   1.240   0.065  0.0126 -0.4883  2.2945
  423MOL0     H55823   2.778   1.452   0.126 -0.0417 -1.1914 -0.7904
  423MOL0     H55824   3.069   1.901   0.117  1.3117  1.8250  3.4748
  423MOL0     H55825   3.019   2.134   0.061  0.3416 -0.8229 -1.3508
  423MOL0     H55826   2.902   2.384  -0.005 -0.5042  1.2535 -0.6209
  423MOL0     H55827   2.915   2.366   0.173  0.7904 -3.7668 -0.4516
  423MOL0     H55828   2.657   2.460   0.057  0.4163 -3.1344 -0.0718
  423MOL0     H55829   2.736   2.514   0.207 -1.1549 -0.2307  0.4382
  423MOL0     H55830   2.790   2.606  -0.092  3.0873 -0.2013 -1.6968
  423MOL0     H55831   2.917   2.616   0.022 -0.3281  7.0562  1.0831
  423MOL0     H55832   2.766   2.816   0.002 -0.8570 -2.0274 -3.1716
  423MOL0     H55833   2.634   2.703   0.064  0.1552 -1.4502  2.1745
  423MOL0     H55834   2.899   2.829   0.399  1.5800 -0.2017 -1.1700
  423MOL0     H55835   2.618   2.080   0.196 -0.1167  1.0274 -0.3625
  423MOL0     H55836   2.672   1.853   0.254  0.7592 -2.4006 -0.4400
  424MOL0     O55837   6.013   6.011   4.039 -0.3728  0.5484  0.7348
  424MOL0     C55838   6.000   6.114   3.973 -0.5860 -0.1450 -0.4671
  424MOL0     O55839   5.910   6.133   3.872 -0.0694  0.0528  0.7954
  424MOL0     C55840   5.837   6.030   3.813  0.6326  0.1958  0.2217
  424MOL0     C55841   5.856   5.999   3.675 -0.6191 -0.5071 -0.1796
  424MOL0     C55842   5.775   5.906   3.613 -0.1160 -0.4720 -0.0762
  424MOL0     C55843   5.673   5.835   3.678 -0.2989 -0.4930 -0.6167
  424MOL0     O55844   5.597   5.750   3.611  0.0354 -0.8542 -0.6007
  424MOL0     C55845   5.592   5.616   3.661 -0.4217 -0.3852 -0.3561
  424MOL0     C55846   5.448   5.572   3.625 -0.2239 -0.5773 -0.1001
  424MOL0     C55847   5.349   5.661   3.698  0.4542  0.2394  0.6701
  424MOL0     C55848   5.202   5.619   3.671 -0.0167 -0.0246  0.3789
  424MOL0     C55849   5.094   5.676   3.774  0.6059 -0.2925  0.2413
  424MOL0     C55850   5.120   5.646   3.917  0.3760  0.9292 -0.4375
  424MOL0     C55851   5.003   5.696   4.006 -0.6366 -0.8572  0.2189
  424MOL0     C55852   5.005   5.642   4.144 -0.0541  0.5449  0.3434
  424MOL0     N55853   4.982   5.503   4.157  0.2847  0.2453 -0.0402
  424MOL0     C55854   4.867   5.444   4.165  0.7454 -0.0130  0.4334
  424MOL0     C55855   4.890   5.314   4.202  0.6340  0.1752 -0.9001
  424MOL0     C55856   4.793   5.201   4.221 -0.2622 -0.2666 -0.3795
  424MOL0     C55857   4.674   5.241   4.314  0.1396 -0.1121  1.0693
  424MOL0     C55858   4.611   5.110   4.354  0.1658 -0.8459 -0.1043
  424MOL0     C55859   4.490   5.149   4.434 -0.1677 -0.7726  1.3469
  424MOL0     O55860   4.389   5.196   4.342  0.1867  0.0167  0.0765
  424MOL0     C55861   4.266   5.224   4.393 -0.7655 -0.7064 -0.1664
  424MOL0     C55862   4.162   5.235   4.302  1.5719  0.3403  0.4156
  424MOL0     C55863   4.035   5.278   4.342  0.3686 -0.4585  0.9038
  424MOL0     C55864   4.000   5.319   4.477 -0.1495 -0.7701 -0.3316
  424MOL0     C55865   3.867   5.366   4.518 -0.5531  0.9198 -0.5381
  424MOL0     O55866   3.775   5.341   4.428  0.4800  0.2318 -0.0936
  424MOL0     C55867   3.646   5.316   4.475  0.6752 -1.2663  0.2575
  424MOL0     C55868   3.619   5.247   4.592  0.6849  0.2644 -0.0754
  424MOL0     C55869   3.490   5.221   4.641  0.9383 -0.3160  0.5136
  424MOL0     C55870   3.385   5.275   4.575  0.1511 -0.6575 -0.3806
  424MOL0     O55871   3.267   5.261   4.632 -0.4656  0.1940  0.2421
  424MOL0     C55872   3.151   5.234   4.551  0.0100 -0.0992  0.0165
  424MOL0     C55873   3.021   5.304   4.602  0.5416  0.4452 -0.8730
  424MOL0     C55874   2.890   5.222   4.590  0.7240 -0.2758  1.1986
  424MOL0     C55875   2.871   5.120   4.703 -0.4545 -0.2618 -0.8435
  424MOL0     C55876   2.952   4.983   4.684 -0.0302  0.5364 -0.1144
  424MOL0     C55877   2.910   4.873   4.784  1.1491 -0.0128 -1.0423
  424MOL0     C55878   3.013   4.762   4.793  1.2731  0.4608  0.5781
  424MOL0     C55879   3.141   4.813   4.881  0.1565  0.5937 -0.3973
  424MOL0    Cl55880   3.251   4.673   4.895 -0.0201  0.2520 -0.2122
  424MOL0     C55881   3.403   5.340   4.450 -0.4379  0.4008 -0.2805
  424MOL0     C55882   3.530   5.361   4.401 -0.3339  0.0995 -0.1535
  424MOL0     O55883   3.856   5.404   4.638 -0.1601 -0.7633  0.7774
  424MOL0     C55884   4.102   5.298   4.569 -0.7527 -0.4757 -0.3354
  424MOL0     C55885   4.233   5.263   4.523  0.9719 -0.5648  0.1945
  424MOL0     N55886   5.027   5.306   4.199 -0.5739 -0.3840  0.4543
  424MOL0     N55887   5.080   5.412   4.164 -0.3339  0.6077 -0.2329
  424MOL0     C55888   5.665   5.865   3.811  0.0620  0.8905  0.4271
  424MOL0     C55889   5.739   5.960   3.880  0.1594  0.1553  0.2041
  424MOL0     C55890   6.095   6.220   4.000 -0.4793  0.0357 -0.6372
  424MOL0     C55891   6.203   6.197   4.083 -0.7107  0.4966 -0.0511
  424MOL0     C55892   6.294   6.299   4.111  0.1732 -0.1317  0.9474
  424MOL0     C55893   6.279   6.427   4.054 -0.3653 -0.3367 -0.0344
  424MOL0     O55894   6.377   6.515   4.091 -0.0313 -0.4944  0.1877
  424MOL0     C55895   6.341   6.653   4.088 -1.0953 -0.3758 -0.3494
  424MOL0     C55896   6.473   6.730   4.096 -0.1724 -0.9929 -0.4300
  424MOL0     C55897   6.521   6.754   4.238 -0.6191 -0.5990  0.8181
  424MOL0     C55898   6.455   6.860   4.313  0.2207  0.1600 -0.5029
  424MOL0     C55899   6.329   6.820   4.395  0.9616  0.5627 -0.5286
  424MOL0     C55900   6.222   6.809   4.454 -0.9362  0.6968 -0.3613
  424MOL0     C55901   6.178   6.454   3.970  0.0477  0.6735  0.0204
  424MOL0     C55902   6.078   6.355   3.948  0.1457  0.3532 -0.3736
  424MOL0     H55903   5.927   6.052   3.612  0.7766  0.9611  2.4712
  424MOL0     H55904   5.793   5.892   3.507  1.7107 -0.2006  0.1712
  424MOL0     H55905   5.628   5.612   3.764  0.5827 -0.6169 -0.7005
  424MOL0     H55906   5.669   5.559   3.609  2.7286  1.0116  2.3809
  424MOL0     H55907   5.445   5.465   3.651 -1.8974  0.2093  3.5398
  424MOL0     H55908   5.439   5.584   3.517 -1.2916  0.5648  0.1016
  424MOL0     H55909   5.356   5.766   3.669  0.3635  0.5555  1.7448
  424MOL0     H55910   5.375   5.649   3.804 -0.7031  1.0685  1.0536
  424MOL0     H55911   5.172   5.660   3.575 -0.4388 -0.1123  0.4706
  424MOL0     H55912   5.196   5.510   3.670 -1.1537  0.0275 -0.5249
  424MOL0     H55913   4.994   5.640   3.748  0.7153  1.0177 -2.2287
  424MOL0     H55914   5.095   5.785   3.770  3.3221 -0.1992  0.9945
  424MOL0     H55915   5.212   5.690   3.955  1.8773 -2.8398  0.8192
  424MOL0     H55916   5.136   5.538   3.920  0.5694  0.9821  1.3076
  424MOL0     H55917   5.018   5.803   4.022 -2.3240 -0.5613 -0.0078
  424MOL0     H55918   4.905   5.684   3.959 -0.1825 -1.7011 -0.5309
  424MOL0     H55919   4.941   5.694   4.216  2.8186 -0.2947  3.8440
  424MOL0     H55920   5.107   5.662   4.179  0.7368 -0.5580 -1.2380
  424MOL0     H55921   4.779   5.507   4.156  1.2446  0.8624  1.4077
  424MOL0     H55922   4.855   5.126   4.272 -0.1840  0.2795  0.3506
  424MOL0     H55923   4.762   5.164   4.123 -3.3160 -5.6988  2.1811
  424MOL0     H55924   4.607   5.295   4.247  1.5586 -1.1242 -1.2823
  424MOL0     H55925   4.709   5.304   4.396  1.1337  0.4057  0.2678
  424MOL0     H55926   4.585   5.046   4.270 -2.1117  0.1605 -0.2274
  424MOL0     H55927   4.680   5.053   4.418  2.4909  1.9040  0.0653
  424MOL0     H55928   4.505   5.220   4.516 -1.4255  0.8702  0.2076
  424MOL0     H55929   4.458   5.060   4.488 -1.6080 -2.5340 -2.0969
  424MOL0     H55930   4.176   5.209   4.198  0.2314 -1.3144  0.5982
  424MOL0     H55931   3.960   5.306   4.268  2.4356  4.3383  0.2514
  424MOL0     H55932   3.704   5.206   4.646  1.6902  0.6063 -1.3651
  424MOL0     H55933   3.479   5.160   4.730  2.7467 -1.9194 -0.2818
  424MOL0     H55934   3.132   5.127   4.539 -0.0459  0.0247 -1.1992
  424MOL0     H55935   3.164   5.274   4.450  5.0986 -4.3936 -1.5361
  424MOL0     H55936   3.011   5.397   4.546  5.2938  1.0038 -1.2179
  424MOL0     H55937   3.037   5.331   4.707 -0.8302  0.0996 -0.5560
  424MOL0     H55938   2.879   5.176   4.491 -1.0834  1.4882  0.5159
  424MOL0     H55939   2.804   5.289   4.598  1.7571  1.0953  1.1954
  424MOL0     H55940   2.892   5.164   4.801 -0.7465 -1.6430 -0.1360
  424MOL0     H55941   2.765   5.097   4.709 -0.5218  0.4161  3.1170
  424MOL0     H55942   3.052   5.013   4.716 -1.2179  2.1307  2.4386
  424MOL0     H55943   2.945   4.957   4.578 -2.1874 -1.7795  0.4816
  424MOL0     H55944   2.822   4.823   4.743  0.7335  2.1475 -3.0127
  424MOL0     H55945   2.878   4.910   4.881 -0.7280 -0.3274 -1.4909
  424MOL0     H55946   2.971   4.677   4.846  1.8069 -0.5448 -0.5746
  424MOL0     H55947   3.035   4.722   4.694  1.7176  0.1438  0.8013
  424MOL0     H55948   3.097   4.856   4.972  3.5942 -0.1803  1.8471
  424MOL0     H55949   3.195   4.888   4.823 -2.1785  2.1974 -0.6251
  424MOL0     H55950   3.316   5.392   4.411  0.2869  1.6219 -0.3134
  424MOL0     H55951   3.553   5.407   4.306 -1.5912  0.9014 -0.1019
  424MOL0     H55952   4.090   5.337   4.670  0.0399  0.4397 -0.5862
  424MOL0     H55953   4.318   5.251   4.590  0.1501  1.9849  1.8268
  424MOL0     H55954   5.589   5.814   3.869 -0.7130  2.1518  0.5555
  424MOL0     H55955   5.723   5.966   3.987 -1.7939 -0.3427 -0.0329
  424MOL0     H55956   6.212   6.099   4.129  0.4468 -0.0661 -1.4019
  424MOL0     H55957   6.383   6.283   4.171  0.6918 -1.9405 -0.2135
  424MOL0     H55958   6.280   6.680   4.175 -2.5708 -3.4963 -0.2761
  424MOL0     H55959   6.302   6.701   3.999  2.3966  2.3353 -0.6298
  424MOL0     H55960   6.542   6.668   4.037  0.7078 -0.9365  0.5131
  424MOL0     H55961   6.466   6.827   4.046 -0.6330 -1.8697 -2.1326
  424MOL0     H55962   6.627   6.777   4.224 -0.7631 -0.2779  0.1996
  424MOL0     H55963   6.511   6.658   4.289  0.1882 -1.3282 -0.3641
  424MOL0     H55964   6.526   6.899   4.386  1.0316  0.5368 -1.4719
  424MOL0     H55965   6.429   6.941   4.244  1.8798  0.9852 -0.2044
  424MOL0     H55966   6.126   6.781   4.493 -0.4753  1.3319  1.3039
  424MOL0     H55967   6.167   6.553   3.927  3.2005  1.2896  0.3742
  424MOL0     H55968   5.982   6.389   3.911 -0.4539 -1.0843 -0.1756
  425MOL0     O55969   2.856   2.911   8.805 -0.7852 -0.1077  0.1892
  425MOL0     C55970   2.733   2.929   8.835 -0.0381 -0.9029 -0.4289
  425MOL0     O55971   2.635   2.977   8.749 -0.2796 -0.3070 -0.8046
  425MOL0     C55972   2.662   2.979   8.615 -0.8772  0.6166  0.4533
  425MOL0     C55973   2.579   2.909   8.530  0.2114 -1.0705 -0.1521
  425MOL0     C55974   2.583   2.926   8.389 -0.3627 -0.5897  0.1463
  425MOL0     C55975   2.671   3.024   8.333  0.4757  0.1170  0.2107
  425MOL0     O55976   2.657   3.036   8.193 -0.3652  1.4969 -0.2908
  425MOL0     C55977   2.767   3.102   8.131  0.0258 -1.6426  0.0284
  425MOL0     C55978   2.730   3.100   7.986  0.4834 -0.8065  0.1290
  425MOL0     C55979   2.617   3.195   7.963 -0.1038 -0.8131 -0.4330
  425MOL0     C55980   2.581   3.206   7.815 -0.8154 -1.3802  0.1229
  425MOL0     C55981   2.444   3.300   7.801 -0.6573  1.1847 -0.5788
  425MOL0     C55982   2.438   3.366   7.661 -1.1155  0.0489 -0.5659
  425MOL0     C55983   2.329   3.462   7.649 -0.2592  0.3730  0.2555
  425MOL0     C55984   2.325   3.525   7.506 -0.1889  0.0982  1.5392
  425MOL0     N55985   2.230   3.629   7.511  0.6228 -0.5456  0.5821
  425MOL0     C55986   2.109   3.626   7.572  0.9658 -0.2463 -0.2544
  425MOL0     C55987   2.047   3.737   7.520  0.6440 -0.9372  0.2671
  425MOL0     C55988   1.911   3.783   7.564 -2.0244  0.3242  0.0552
  425MOL0     C55989   1.793   3.713   7.493 -0.2214 -0.1527 -0.3454
  425MOL0     C55990   1.779   3.734   7.343 -0.1960 -0.2779 -0.8199
  425MOL0     C55991   1.634   3.705   7.297  0.2656  0.3463  0.2301
  425MOL0     O55992   1.614   3.559   7.296  0.3508  0.5708 -0.1590
  425MOL0     C55993   1.480   3.527   7.317 -0.5304  0.5498 -0.9453
  425MOL0     C55994   1.436   3.514   7.460 -0.0039 -0.1933 -0.7041
  425MOL0     C55995   1.305   3.475   7.483  0.6792 -0.3387  1.0496
  425MOL0     C55996   1.214   3.441   7.381  0.3899  0.6829 -1.2646
  425MOL0     C55997   1.074   3.404   7.421  0.0825  0.0239  0.0675
  425MOL0     O55998   0.994   3.369   7.315 -0.8778 -0.0663  0.4027
  425MOL0     C55999   0.862   3.357   7.334 -1.4478  0.2119  0.5405
  425MOL0     C56000   0.803   3.236   7.383 -0.3243 -1.0552 -0.6096
  425MOL0     C56001   0.660   3.239   7.400  0.4745 -0.9231 -0.1282
  425MOL0     C56002   0.585   3.349   7.364  0.2959  0.5084  0.4623
  425MOL0     O56003   0.453   3.332   7.389  0.0717 -0.9210  0.3026
  425MOL0     C56004   0.380   3.445   7.417 -0.8489 -0.6080  0.3953
  425MOL0     C56005   0.242   3.406   7.477  0.4026 -0.5175 -0.4375
  425MOL0     C56006   0.164   3.532   7.512  0.3659 -0.2461  0.5048
  425MOL0     C56007   0.046   3.492   7.600 -0.1438 -0.4990  0.4816
  425MOL0     C56008   0.004   3.606   7.697  0.5070 -0.6150 -0.1509
  425MOL0     C56009  -0.061   3.559   7.833  0.0874 -0.4498 -0.0870
  425MOL0     C56010  -0.116   3.668   7.927  1.6176 -0.7174 -1.4451
  425MOL0     C56011  -0.004   3.756   7.991  0.4506 -0.1755 -0.2205
  425MOL0    Cl56012   0.075   3.664   8.128  0.0096  0.6824 -0.2120
  425MOL0     C56013   0.648   3.464   7.318 -0.6153  0.1182  0.4308
  425MOL0     C56014   0.788   3.467   7.301 -0.5640  0.2643 -0.0461
  425MOL0     O56015   1.031   3.404   7.538  0.2035  0.5185 -0.3186
  425MOL0     C56016   1.260   3.442   7.246  0.2834 -0.3159 -0.0070
  425MOL0     C56017   1.387   3.488   7.214  0.2659 -0.0408 -0.8111
  425MOL0     N56018   2.130   3.817   7.452 -0.2378  1.1107 -0.0073
  425MOL0     N56019   2.243   3.746   7.430  0.1112 -0.1534 -0.0442
  425MOL0     C56020   2.755   3.095   8.423  0.3596  0.1722  0.5497
  425MOL0     C56021   2.758   3.070   8.560 -0.2869 -0.6720 -0.8483
  425MOL0     C56022   2.682   2.887   8.975 -0.5751  0.1386 -0.4131
  425MOL0     C56023   2.551   2.839   8.987 -0.3909 -1.1059 -0.2207
  425MOL0     C56024   2.505   2.802   9.111  0.5470 -0.0679  0.2356
  425MOL0     C56025   2.574   2.807   9.226  0.3447  0.4624 -0.6439
  425MOL0     O56026   2.536   2.764   9.353  0.2630  0.1421 -0.3591
  425MOL0     C56027   2.592   2.840   9.467 -0.5139  0.2474 -0.1887
  425MOL0     C56028   2.501   2.841   9.590  0.5835  0.1693  0.7565
  425MOL0     C56029   2.365   2.887   9.551  1.0046  0.0886  0.9765
  425MOL0     C56030   2.361   3.034   9.509 -0.2785  0.2481  0.1781
  425MOL0     C56031   2.420   3.120   9.604 -0.4439 -0.1962 -0.2615
  425MOL0     C56032   2.467   3.195   9.683 -0.0824  0.2108  0.3655
  425MOL0     C56033   2.705   2.850   9.222 -1.0335 -0.5032  0.2194
  425MOL0     C56034   2.758   2.885   9.100 -0.5429  0.0923  0.0624
  425MOL0     H56035   2.510   2.837   8.573  0.1163 -1.4762 -0.9718
  425MOL0     H56036   2.511   2.876   8.325  0.8971 -2.1604 -0.1086
  425MOL0     H56037   2.859   3.054   8.166  1.2139  1.3105  1.2923
  425MOL0     H56038   2.778   3.207   8.161 -3.9124 -0.0712 -3.0979
  425MOL0     H56039   2.695   2.999   7.964 -0.8856  0.2447 -3.2272
  425MOL0     H56040   2.817   3.127   7.925  0.1643 -0.5249 -0.2081
  425MOL0     H56041   2.655   3.294   7.989  3.2270 -2.2426  0.6433
  425MOL0     H56042   2.525   3.174   8.018 -1.1023 -2.3234 -2.5370
  425MOL0     H56043   2.663   3.260   7.767 -1.1273 -0.1854  0.8856
  425MOL0     H56044   2.566   3.103   7.782  1.1074 -1.5740 -0.2645
  425MOL0     H56045   2.445   3.373   7.882 -0.5943  3.1767 -2.2918
  425MOL0     H56046   2.353   3.244   7.823 -0.3907  1.3540  1.0328
  425MOL0     H56047   2.431   3.282   7.592  0.2244 -0.4364 -0.1439
  425MOL0     H56048   2.531   3.421   7.644  0.7559 -2.5873  0.4800
  425MOL0     H56049   2.239   3.401   7.660  0.2682 -0.9353 -2.0526
  425MOL0     H56050   2.326   3.544   7.722 -3.8116  1.1710 -0.6254
  425MOL0     H56051   2.292   3.450   7.433  2.5213 -0.5112  0.7913
  425MOL0     H56052   2.425   3.554   7.471 -1.4452  1.2003 -1.4533
  425MOL0     H56053   2.060   3.543   7.621 -0.8873  0.0798 -1.4594
  425MOL0     H56054   1.903   3.887   7.531 -2.6135  0.1668 -0.3081
  425MOL0     H56055   1.893   3.770   7.671  0.0438  1.2437  0.5694
  425MOL0     H56056   1.706   3.746   7.551  1.5228 -1.1444  3.1349
  425MOL0     H56057   1.800   3.604   7.501 -2.0952 -0.2009  1.9399
  425MOL0     H56058   1.800   3.839   7.321 -1.5055  0.1036 -0.3491
  425MOL0     H56059   1.848   3.659   7.306 -1.3725 -2.7694  1.6201
  425MOL0     H56060   1.615   3.716   7.189  0.3135 -2.1364 -0.0930
  425MOL0     H56061   1.555   3.764   7.346  2.0377  2.5168  0.6175
  425MOL0     H56062   1.506   3.527   7.542 -2.1529  1.0560  1.0431
  425MOL0     H56063   1.274   3.448   7.583 -0.3034 -1.9156  0.3515
  425MOL0     H56064   0.863   3.147   7.398 -0.8774 -1.3573 -0.1586
  425MOL0     H56065   0.609   3.150   7.435 -4.4119  0.0613 -3.6086
  425MOL0     H56066   0.365   3.500   7.324  0.1754 -1.6137 -0.4087
  425MOL0     H56067   0.436   3.508   7.487 -2.2578  0.5539  0.5101
  425MOL0     H56068   0.259   3.342   7.564  0.3967 -0.7504 -0.6091
  425MOL0     H56069   0.185   3.351   7.402  0.0706  0.5312 -0.9858
  425MOL0     H56070   0.117   3.568   7.420  1.5041  0.1244  0.0636
  425MOL0     H56071   0.221   3.610   7.564  1.1143 -1.0088  0.8332
  425MOL0     H56072  -0.037   3.453   7.540  0.8083 -1.7241 -0.0736
  425MOL0     H56073   0.075   3.407   7.662 -1.2458 -1.3731 -0.1524
  425MOL0     H56074  -0.074   3.659   7.642 -0.1575 -0.7106  0.6697
  425MOL0     H56075   0.084   3.679   7.713  1.3876  0.2278 -6.0950
  425MOL0     H56076   0.018   3.504   7.885  4.2948  3.9806 -1.1675
  425MOL0     H56077  -0.142   3.492   7.801 -0.9179  0.6860  0.0151
  425MOL0     H56078  -0.183   3.739   7.877  1.0210  3.1423  4.0035
  425MOL0     H56079  -0.165   3.625   8.015 -0.3600  3.3436 -0.3038
  425MOL0     H56080  -0.048   3.848   8.029  1.5989  0.4401 -0.3326
  425MOL0     H56081   0.067   3.787   7.914 -1.9429 -0.0403 -2.5081
  425MOL0     H56082   0.597   3.554   7.284 -0.6962  0.5460  1.6444
  425MOL0     H56083   0.842   3.549   7.254  0.8091 -0.3309  0.4427
  425MOL0     H56084   1.192   3.408   7.168 -0.2184  0.1468  0.2207
  425MOL0     H56085   1.414   3.510   7.111  1.7414  1.1729 -0.1928
  425MOL0     H56086   2.827   3.162   8.376 -0.1731  0.1095 -0.3848
  425MOL0     H56087   2.819   3.119   8.635 -0.3456  0.3772 -1.4590
  425MOL0     H56088   2.473   2.842   8.911 -2.6577 -1.1541  1.9765
  425MOL0     H56089   2.399   2.781   9.112 -0.1262  2.1474 -3.6711
  425MOL0     H56090   2.608   2.943   9.435 -2.8116  0.4736 -0.7581
  425MOL0     H56091   2.684   2.796   9.507 -2.3027 -3.3064  0.4252
  425MOL0     H56092   2.474   2.743   9.631 -2.2702  0.1524 -0.8686
  425MOL0     H56093   2.548   2.901   9.668 -0.8672  2.2271  0.1570
  425MOL0     H56094   2.292   2.871   9.630 -0.0462  0.8143  0.1892
  425MOL0     H56095   2.324   2.830   9.466 -0.9971  1.4691  0.9421
  425MOL0     H56096   2.423   3.043   9.420  1.5255 -0.9340  1.2428
  425MOL0     H56097   2.259   3.070   9.493  0.0755  1.4521  0.5140
  425MOL0     H56098   2.532   3.252   9.746  2.8676  0.1590 -2.3441
  425MOL0     H56099   2.780   2.859   9.300 -1.2126 -0.4006  0.3803
  425MOL0     H56100   2.864   2.909   9.109 -0.1042 -1.8958  0.7702
  426MOL0     O56101   8.451   5.376  10.068  0.2557  0.2940  0.5583
  426MOL0     C56102   8.565   5.333  10.051  0.1604 -0.3553 -0.8498
  426MOL0     O56103   8.631   5.326   9.940  0.1478  1.0463  0.4344
  426MOL0     C56104   8.588   5.396   9.830 -0.1991 -1.0319  0.3153
  426MOL0     C56105   8.612   5.534   9.812 -0.3829 -0.1873 -0.4003
  426MOL0     C56106   8.564   5.605   9.701  0.6034  0.2900  0.1557
  426MOL0     C56107   8.484   5.535   9.603  0.0272 -0.3157 -0.2342
  426MOL0     O56108   8.430   5.617   9.503  0.7565 -0.8296 -0.2238
  426MOL0     C56109   8.300   5.573   9.456 -0.3094  0.0552 -0.2605
  426MOL0     C56110   8.250   5.654   9.345  0.1577 -0.1145 -0.1120
  426MOL0     C56111   8.344   5.692   9.230 -0.0064 -0.0692  1.0625
  426MOL0     C56112   8.397   5.586   9.136  0.0707  1.0031  0.5608
  426MOL0     C56113   8.360   5.592   8.990 -0.8604 -0.0215 -0.7298
  426MOL0     C56114   8.400   5.728   8.929  0.1127  0.6554  0.7443
  426MOL0     C56115   8.383   5.720   8.775 -0.2852  0.4196 -0.1742
  426MOL0     C56116   8.401   5.869   8.707 -0.5471  0.1979  0.0895
  426MOL0     N56117   8.402   5.877   8.560  0.1322  0.6466  0.0004
  426MOL0     C56118   8.467   5.963   8.479  0.1826 -0.0505 -1.0280
  426MOL0     C56119   8.489   5.894   8.362 -1.3619  0.7778 -0.0774
  426MOL0     C56120   8.577   5.933   8.243 -0.1591  0.0554 -0.4175
  426MOL0     C56121   8.722   5.864   8.227 -0.1877 -0.1754 -1.2556
  426MOL0     C56122   8.801   5.970   8.154 -0.4224 -0.3647  0.0621
  426MOL0     C56123   8.945   5.922   8.120 -0.4443 -0.4859  0.5584
  426MOL0     O56124   9.021   5.903   8.236  0.0992 -0.2681 -0.8172
  426MOL0     C56125   9.125   5.977   8.282 -0.8810  0.7229  0.2158
  426MOL0     C56126   9.171   5.931   8.408  0.0506 -0.2296  1.0233
  426MOL0     C56127   9.280   6.004   8.465  0.9774  0.0912 -0.4122
  426MOL0     C56128   9.331   6.120   8.396  0.9233 -0.2667  0.4773
  426MOL0     C56129   9.442   6.204   8.460 -1.0311  0.0248 -0.5575
  426MOL0     O56130   9.514   6.153   8.569 -0.0870  0.6056  1.1053
  426MOL0     C56131   9.556   6.239   8.660 -0.0728 -0.3095  0.3850
  426MOL0     C56132   9.614   6.368   8.638  0.2592  0.2561 -0.0822
  426MOL0     C56133   9.664   6.445   8.749  0.3832  1.2885  1.3718
  426MOL0     C56134   9.673   6.393   8.875  0.6791  0.3569 -0.8644
  426MOL0     O56135   9.699   6.457   8.986  0.0496 -0.0334 -0.4339
  426MOL0     C56136   9.798   6.551   8.999  0.1247 -0.6784 -0.5203
  426MOL0     C56137   9.782   6.651   9.119 -0.2383 -0.1491 -0.0013
  426MOL0     C56138   9.889   6.758   9.122  0.1730  0.8301 -0.2122
  426MOL0     C56139   9.843   6.882   9.185  0.3456  0.1773  0.6490
  426MOL0     C56140   9.956   6.975   9.213 -0.4154 -0.3940  0.6222
  426MOL0     C56141   9.887   7.083   9.291  0.1803 -0.6469  0.9123
  426MOL0     C56142   9.989   7.174   9.357  0.1995 -0.5738 -0.0128
  426MOL0     C56143   9.929   7.308   9.384 -1.3251  0.2431 -0.3464
  426MOL0    Cl56144  10.042   7.450   9.434 -0.1598 -0.2838  0.4534
  426MOL0     C56145   9.610   6.266   8.902 -0.1879 -0.4241 -0.1728
  426MOL0     C56146   9.559   6.192   8.788  0.4285 -0.1066  0.0536
  426MOL0     O56147   9.473   6.307   8.401 -0.3276  0.0885 -0.5931
  426MOL0     C56148   9.280   6.165   8.272  0.0838  0.8815 -0.5381
  426MOL0     C56149   9.184   6.080   8.213 -0.0122 -1.2155  0.1413
  426MOL0     N56150   8.415   5.779   8.365  0.0456  0.6680  1.3176
  426MOL0     N56151   8.369   5.763   8.482 -0.9783 -0.7345 -0.4192
  426MOL0     C56152   8.470   5.400   9.612 -0.4847 -0.3584 -0.0811
  426MOL0     C56153   8.525   5.332   9.725  0.6683  0.1846 -0.3695
  426MOL0     C56154   8.636   5.285  10.171 -0.0699 -0.4864 -0.1540
  426MOL0     C56155   8.777   5.291  10.167 -0.4751 -0.4461 -0.1510
  426MOL0     C56156   8.839   5.238  10.279 -0.2153 -0.2849  0.2276
  426MOL0     C56157   8.776   5.209  10.400  0.2013  0.2542 -0.3672
  426MOL0     O56158   8.832   5.150  10.510 -0.6118  0.2281  0.0058
  426MOL0     C56159   8.969   5.174  10.554  0.3407  0.2225  0.3624
  426MOL0     C56160   8.968   5.218  10.695  0.1210 -0.3977 -0.0915
  426MOL0     C56161   8.933   5.099  10.795  1.4243  0.2493 -0.2469
  426MOL0     C56162   8.786   5.085  10.839 -0.1705  0.1075  0.4136
  426MOL0     C56163   8.771   5.010  10.967 -0.6081 -0.5281 -0.1160
  426MOL0     C56164   8.735   4.937  11.058  0.7009  0.6501  0.4146
  426MOL0     C56165   8.634   5.201  10.399  0.4765  0.7424 -0.0965
  426MOL0     C56166   8.562   5.238  10.282  1.0031 -0.4729 -0.4093
  426MOL0     H56167   8.685   5.583   9.876 -1.9305  1.2980  0.2981
  426MOL0     H56168   8.601   5.704   9.678  1.7508  0.3263  1.9383
  426MOL0     H56169   8.229   5.567   9.539  2.8944 -0.5805  2.6541
  426MOL0     H56170   8.315   5.473   9.415  3.7290 -2.0221  5.0864
  426MOL0     H56171   8.226   5.739   9.410  0.2675 -1.6582  2.0601
  426MOL0     H56172   8.154   5.612   9.312  0.7617  0.5204 -2.9151
  426MOL0     H56173   8.429   5.755   9.257  1.5779 -0.0409 -3.2505
  426MOL0     H56174   8.273   5.747   9.168  1.3580 -2.5791 -3.1286
  426MOL0     H56175   8.503   5.567   9.156  0.1133 -0.1181 -0.5926
  426MOL0     H56176   8.349   5.493   9.169  2.2301  0.1348  1.4675
  426MOL0     H56177   8.251   5.579   8.988 -0.9297  0.1943  0.7326
  426MOL0     H56178   8.405   5.510   8.932  0.1410 -2.0130  2.6114
  426MOL0     H56179   8.507   5.743   8.945  0.1005 -1.0980  2.9398
  426MOL0     H56180   8.344   5.813   8.969  2.2697  2.6449 -0.2577
  426MOL0     H56181   8.462   5.653   8.740  0.9656  1.7708 -0.0377
  426MOL0     H56182   8.287   5.676   8.747  0.9190 -1.5273 -1.4903
  426MOL0     H56183   8.491   5.919   8.741  2.3331 -2.8616 -2.2933
  426MOL0     H56184   8.319   5.937   8.732 -1.6043 -1.6903  2.1725
  426MOL0     H56185   8.505   6.062   8.501 -2.5451  0.9926 -0.6408
  426MOL0     H56186   8.578   6.043   8.247  0.5657  0.2865 -3.6672
  426MOL0     H56187   8.522   5.916   8.150  1.0443 -0.0446 -1.1272
  426MOL0     H56188   8.719   5.760   8.192  1.0863 -1.8002  2.8437
  426MOL0     H56189   8.751   5.859   8.332 -3.0811  3.0244 -0.1294
  426MOL0     H56190   8.745   5.986   8.061  0.5327  4.2083  0.0184
  426MOL0     H56191   8.803   6.065   8.208 -1.4115  0.2946 -1.0295
  426MOL0     H56192   8.988   5.987   8.044  0.7586 -1.5508  0.3192
  426MOL0     H56193   8.941   5.827   8.067  2.6225 -0.2645 -0.2486
  426MOL0     H56194   9.135   5.840   8.456  0.7925 -2.5225 -2.4225
  426MOL0     H56195   9.333   5.984   8.557 -1.4028  1.6987  1.4347
  426MOL0     H56196   9.629   6.425   8.547  1.8708  0.9144  0.5596
  426MOL0     H56197   9.715   6.538   8.724  1.4281 -0.0981 -2.2268
  426MOL0     H56198   9.807   6.614   8.910 -0.1937 -2.1531 -1.6242
  426MOL0     H56199   9.894   6.503   9.020  0.3728  0.9201  2.5541
  426MOL0     H56200   9.777   6.598   9.215  1.0005 -0.6803 -0.2090
  426MOL0     H56201   9.687   6.703   9.105  0.5773  1.4454  0.2179
  426MOL0     H56202   9.920   6.779   9.019  0.7439 -0.3728 -0.3010
  426MOL0     H56203   9.982   6.723   9.169  0.0157 -0.9587 -1.1303
  426MOL0     H56204   9.773   6.924   9.112  0.5395  0.2283  0.4934
  426MOL0     H56205   9.801   6.849   9.281  0.5569 -2.5318 -0.1131
  426MOL0     H56206  10.005   7.009   9.121  0.1712 -0.5618  0.8660
  426MOL0     H56207  10.029   6.920   9.273  0.2527 -0.9512 -0.6502
  426MOL0     H56208   9.830   7.036   9.372  2.9112 -0.5388  3.0380
  426MOL0     H56209   9.817   7.143   9.232  2.3551  2.3454  1.1364
  426MOL0     H56210  10.006   7.135   9.458  1.7579  0.4113  0.1322
  426MOL0     H56211  10.087   7.167   9.310  0.9022  2.0430  0.9088
  426MOL0     H56212   9.854   7.284   9.459 -0.7446 -3.5807 -0.8019
  426MOL0     H56213   9.873   7.350   9.299  1.0438  6.0010  0.4663
  426MOL0     H56214   9.586   6.231   9.001  0.3192 -1.2212 -0.3255
  426MOL0     H56215   9.523   6.093   8.813  4.7840 -2.0621 -0.4561
  426MOL0     H56216   9.314   6.252   8.216  0.7440 -0.8154 -2.9459
  426MOL0     H56217   9.137   6.118   8.122 -2.4183 -0.4011  1.6269
  426MOL0     H56218   8.417   5.346   9.534 -0.0971 -1.1478  0.1886
  426MOL0     H56219   8.499   5.227   9.729 -1.4775  0.6097 -1.3422
  426MOL0     H56220   8.845   5.321  10.087 -0.1442 -1.8112 -0.3970
  426MOL0     H56221   8.943   5.215  10.258 -0.7658 -2.9940  0.0793
  426MOL0     H56222   9.020   5.251  10.495  1.4812 -0.1590  0.8292
  426MOL0     H56223   9.022   5.080  10.537  2.9100  1.7522 -0.7260
  426MOL0     H56224   9.071   5.253  10.710 -0.1339  0.9394 -1.2747
  426MOL0     H56225   8.909   5.309  10.709  1.2125  0.5386 -1.3309
  426MOL0     H56226   8.987   5.121  10.887 -3.3813  0.3349  2.9142
  426MOL0     H56227   8.966   5.001  10.759 -1.5677 -0.5520 -1.1854
  426MOL0     H56228   8.738   5.182  10.851 -2.8452 -1.2575  1.5973
  426MOL0     H56229   8.744   5.027  10.756 -1.1570  0.2482  0.8060
  426MOL0     H56230   8.715   4.869  11.138  0.3763  1.4768  1.0555
  426MOL0     H56231   8.576   5.156  10.480 -0.3290  1.9499  0.0251
  426MOL0     H56232   8.455   5.247  10.294  0.8367 -1.2577 -1.1758
  427MOL0     O56233   9.476   9.101   7.040 -0.1050  0.3779  1.1986
  427MOL0     C56234   9.582   9.044   7.015 -0.5222  0.5339 -0.4159
  427MOL0     O56235   9.710   9.106   7.016  0.3414  0.1374  0.7099
  427MOL0     C56236   9.724   9.242   7.015 -0.8546 -0.1530 -0.2845
  427MOL0     C56237   9.801   9.290   7.118 -0.0606 -0.1319 -0.3471
  427MOL0     C56238   9.838   9.424   7.122 -0.3155  0.4435 -0.7501
  427MOL0     C56239   9.802   9.515   7.019  0.2756 -0.8269 -0.5023
  427MOL0     O56240   9.848   9.644   7.028  0.0493 -0.6252 -0.4495
  427MOL0     C56241   9.768   9.747   6.967  0.0040  0.4848 -0.0015
  427MOL0     C56242   9.828   9.882   6.978 -0.6815  0.0574 -0.5278
  427MOL0     C56243   9.867   9.920   7.129  0.2465 -0.5313  0.2272
  427MOL0     C56244   9.914  10.063   7.131  0.0049  1.4699  0.1270
  427MOL0     C56245   9.997  10.096   7.245 -0.7446 -0.8543 -0.1350
  427MOL0     C56246   9.944  10.063   7.391  0.6189  0.2091 -0.5237
  427MOL0     C56247   9.833  10.156   7.446 -0.4651  0.2407  0.1896
  427MOL0     C56248   9.848  10.308   7.415  0.5373  0.4138 -0.8395
  427MOL0     N56249   9.739  10.393   7.469 -0.1726 -0.0692  0.4673
  427MOL0     C56250   9.605  10.363   7.468 -1.0310 -0.1970  0.2847
  427MOL0     C56251   9.548  10.477   7.518  0.0953 -0.3739 -0.0385
  427MOL0     C56252   9.400  10.484   7.530  0.0738  0.1269  0.5270
  427MOL0     C56253   9.337  10.462   7.674  0.2853  0.2717  0.0569
  427MOL0     C56254   9.191  10.425   7.669 -0.2406  0.6489 -0.0844
  427MOL0     C56255   9.108  10.538   7.722 -0.5496 -0.3120 -0.0327
  427MOL0     O56256   8.983  10.466   7.722 -0.6242  0.2925  0.3537
  427MOL0     C56257   8.874  10.536   7.768  0.4156 -0.1041 -0.3868
  427MOL0     C56258   8.753  10.468   7.774  0.6198 -0.9982 -0.4876
  427MOL0     C56259   8.642  10.517   7.836  0.0776  0.6021 -0.3758
  427MOL0     C56260   8.640  10.634   7.898 -0.5472 -0.6459  0.2882
  427MOL0     C56261   8.526  10.693   7.980 -0.1223  0.0179  0.0193
  427MOL0     O56262   8.538  10.823   8.020  0.8634 -0.5964  0.3673
  427MOL0     C56263   8.464  10.885   8.117 -0.6666  0.4706  0.5697
  427MOL0     C56264   8.323  10.890   8.113 -0.0413 -0.2091  0.5329
  427MOL0     C56265   8.257  10.956   8.212  0.2734 -0.5914  0.0405
  427MOL0     C56266   8.324  11.018   8.313 -0.0877  0.7610 -0.0704
  427MOL0     O56267   8.264  11.087   8.410  0.5695  0.9575 -0.6417
  427MOL0     C56268   8.121  11.101   8.415 -0.4237  0.0993 -0.0921
  427MOL0     C56269   8.068  11.189   8.309  1.0820 -1.4563  0.4636
  427MOL0     C56270   8.089  11.343   8.325 -0.9422  0.7903  0.1511
  427MOL0     C56271   8.006  11.440   8.236 -0.1400 -0.3337  1.4065
  427MOL0     C56272   8.045  11.594   8.274 -0.3079  0.0822 -0.4131
  427MOL0     C56273   7.960  11.694   8.191 -1.2659  0.4772  0.4366
  427MOL0     C56274   7.817  11.716   8.231  0.0704 -0.3321  1.3216
  427MOL0     C56275   7.747  11.799   8.110 -0.3695 -0.0470  0.3150
  427MOL0    Cl56276   7.562  11.783   8.125 -0.1884  0.3105 -0.1555
  427MOL0     C56277   8.466  11.008   8.319  0.2797  0.4513 -0.4217
  427MOL0     C56278   8.537  10.942   8.216  0.2614 -0.5730 -1.0048
  427MOL0     O56279   8.427  10.630   7.993 -0.4930 -0.3727  0.6745
  427MOL0     C56280   8.756  10.709   7.885 -0.6094  0.5730  1.1635
  427MOL0     C56281   8.876  10.659   7.826 -0.8685 -0.5946 -0.1050
  427MOL0     N56282   9.643  10.571   7.545  0.1831  0.0705 -0.0068
  427MOL0     N56283   9.758  10.517   7.515  0.1276  0.1752  0.9478
  427MOL0     C56284   9.711   9.470   6.919  0.1287  0.7757 -0.3544
  427MOL0     C56285   9.682   9.330   6.915  0.0797  0.1374  0.0931
  427MOL0     C56286   9.599   8.901   6.997  0.5052 -0.0487 -0.1107
  427MOL0     C56287   9.725   8.842   6.992  0.4783  0.5669  0.8001
  427MOL0     C56288   9.733   8.703   6.970  0.5524  0.4404 -0.2244
  427MOL0     C56289   9.619   8.628   6.957  0.3608 -0.6106  0.1255
  427MOL0     O56290   9.638   8.491   6.930  0.4683  0.3308 -0.2687
  427MOL0     C56291   9.525   8.405   6.911  0.8401 -0.1543  0.1970
  427MOL0     C56292   9.495   8.398   6.765  0.5121  0.4915  1.2657
  427MOL0     C56293   9.398   8.289   6.716  0.3897  0.6118  0.6061
  427MOL0     C56294   9.246   8.321   6.718  0.0781 -0.5588  0.9023
  427MOL0     C56295   9.196   8.341   6.852 -0.2695  0.7915  0.6743
  427MOL0     C56296   9.161   8.376   6.962 -0.4702  0.1140  0.5710
  427MOL0     C56297   9.488   8.686   6.968  0.0914 -0.7936  0.6162
  427MOL0     C56298   9.487   8.825   6.982 -0.8686  0.0477  0.8837
  427MOL0     H56299   9.835   9.224   7.197 -1.4719 -2.7456 -1.8075
  427MOL0     H56300   9.890   9.457   7.212 -0.8333 -1.4695  0.3130
  427MOL0     H56301   9.667   9.745   7.010  0.3848 -0.9504  0.8943
  427MOL0     H56302   9.753   9.725   6.861 -1.8189 -1.0575  0.5162
  427MOL0     H56303   9.764   9.963   6.944  1.6864  1.5948 -1.5382
  427MOL0     H56304   9.918   9.877   6.916 -1.6983 -0.7166 -1.9980
  427MOL0     H56305   9.944   9.855   7.171  0.3565  0.4665  1.6536
  427MOL0     H56306   9.781   9.889   7.190  1.1542 -0.7611  1.4322
  427MOL0     H56307   9.954  10.091   7.034 -2.8819  1.5685 -1.1307
  427MOL0     H56308   9.824  10.120   7.156 -0.1862  0.0573  3.1423
  427MOL0     H56309  10.023  10.202   7.246  2.6895 -1.5649  0.9159
  427MOL0     H56310  10.096  10.050   7.232  0.6483  0.9843  2.7997
  427MOL0     H56311  10.024  10.083   7.463 -0.2680  2.3267 -0.0551
  427MOL0     H56312   9.914   9.958   7.399 -0.1583  0.4767  0.1810
  427MOL0     H56313   9.744  10.118   7.394  0.3413 -0.4843 -0.7081
  427MOL0     H56314   9.819  10.128   7.551  0.0527 -3.4794 -0.5826
  427MOL0     H56315   9.841  10.326   7.307  1.9740  0.2065 -0.9836
  427MOL0     H56316   9.948  10.349   7.435  0.6921 -0.0653 -0.6140
  427MOL0     H56317   9.555  10.273   7.433 -0.4613 -0.2847 -0.3177
  427MOL0     H56318   9.362  10.413   7.456 -0.8005  0.2948  0.8065
  427MOL0     H56319   9.383  10.588   7.502  2.9713  1.1015  1.9540
  427MOL0     H56320   9.343  10.553   7.735  0.8280  1.9497 -2.3469
  427MOL0     H56321   9.392  10.383   7.726  3.4353  2.3897  0.2264
  427MOL0     H56322   9.155  10.382   7.575 -0.4278  0.6293 -0.0035
  427MOL0     H56323   9.199  10.338   7.734  2.4228  0.4671 -0.5382
  427MOL0     H56324   9.104  10.630   7.663 -6.3383  0.1937  0.5788
  427MOL0     H56325   9.136  10.575   7.820  3.4268 -2.7666 -0.0110
  427MOL0     H56326   8.772  10.367   7.740 -0.3718 -0.7707 -1.8024
  427MOL0     H56327   8.544  10.469   7.831  0.0541  0.5843  0.2449
  427MOL0     H56328   8.263  10.840   8.037  0.9333  0.0458 -0.4332
  427MOL0     H56329   8.151  10.961   8.189  0.5765 -0.1626 -1.3683
  427MOL0     H56330   8.096  11.149   8.509 -2.7219  0.4743 -0.8225
  427MOL0     H56331   8.077  11.001   8.423 -2.7407  0.9356 -1.4039
  427MOL0     H56332   7.960  11.171   8.304  0.9089 -0.4410  0.2587
  427MOL0     H56333   8.094  11.176   8.203 -1.2597 -1.7051 -0.1458
  427MOL0     H56334   8.194  11.367   8.311 -0.0474 -2.5064  0.3175
  427MOL0     H56335   8.070  11.362   8.431 -0.0252 -0.7359  0.6275
  427MOL0     H56336   8.043  11.439   8.133 -0.8806  1.4538  1.0910
  427MOL0     H56337   7.901  11.410   8.238 -0.3297  0.2825  1.1206
  427MOL0     H56338   8.151  11.613   8.256  0.5048 -1.8741  1.8330
  427MOL0     H56339   8.041  11.611   8.382 -0.0784 -1.9258 -0.0629
  427MOL0     H56340   7.975  11.661   8.088  4.5694  2.0266  0.4537
  427MOL0     H56341   8.000  11.795   8.203 -3.0611  0.9861  2.8308
  427MOL0     H56342   7.774  11.619   8.256  0.4794 -1.2280 -1.1793
  427MOL0     H56343   7.783  11.770   8.320 -1.7525 -1.5150  1.4043
  427MOL0     H56344   7.784  11.753   8.018  1.6525 -1.0884  1.6000
  427MOL0     H56345   7.773  11.905   8.110  0.9640 -0.3320 -1.4783
  427MOL0     H56346   8.519  11.062   8.396  0.5679  1.5846 -1.3883
  427MOL0     H56347   8.645  10.937   8.227  0.3408 -2.1784 -2.1661
  427MOL0     H56348   8.744  10.811   7.920  0.5957  2.4947 -3.2620
  427MOL0     H56349   8.959  10.729   7.831 -1.1350 -0.0339 -2.3732
  427MOL0     H56350   9.674   9.547   6.852  1.4770  0.6800 -1.2560
  427MOL0     H56351   9.627   9.289   6.831 -2.4639  2.1588  0.6339
  427MOL0     H56352   9.821   8.891   6.992  0.7955 -0.0383  0.3978
  427MOL0     H56353   9.827   8.652   6.952  0.0716  0.3398 -2.9178
  427MOL0     H56354   9.449   8.425   6.987  0.2323 -0.7061 -0.2582
  427MOL0     H56355   9.551   8.305   6.949  2.0989  0.5217  1.1948
  427MOL0     H56356   9.458   8.495   6.733 -1.0746 -0.9396 -1.6229
  427MOL0     H56357   9.588   8.373   6.711  0.1541 -0.0060  0.8692
  427MOL0     H56358   9.414   8.209   6.790  0.8090 -1.4537 -1.6007
  427MOL0     H56359   9.428   8.259   6.615 -1.0708  0.2836  0.2444
  427MOL0     H56360   9.231   8.412   6.659  0.8671 -0.3168  1.0715
  427MOL0     H56361   9.198   8.234   6.673 -2.9177  0.6934  1.3862
  427MOL0     H56362   9.133   8.408   7.060 -0.1719 -1.3831  1.1713
  427MOL0     H56363   9.394   8.633   6.972  0.0641 -0.7116  1.0684
  427MOL0     H56364   9.394   8.877   6.998  0.3100  2.1008  1.4432
  428MOL0     O56365   4.441   4.971   3.142  0.7209  0.3900  0.2597
  428MOL0     C56366   4.532   4.913   3.075 -0.1234  0.8245  0.7482
  428MOL0     O56367   4.663   4.923   3.107  0.1465  0.5752  0.5182
  428MOL0     C56368   4.716   4.868   3.226 -0.6342 -0.1838  0.5513
  428MOL0     C56369   4.643   4.878   3.348  0.1674 -0.4378 -0.1010
  428MOL0     C56370   4.708   4.830   3.461  0.0755 -0.0687 -0.8705
  428MOL0     C56371   4.831   4.758   3.463 -0.0601  0.3915  0.1507
  428MOL0     O56372   4.898   4.701   3.571  0.4993 -0.8261  0.8662
  428MOL0     C56373   4.849   4.745   3.705 -0.2083 -0.2520  0.2147
  428MOL0     C56374   4.934   4.674   3.810  0.0412 -0.0200  0.4623
  428MOL0     C56375   5.063   4.750   3.848 -0.1981 -0.5077 -0.4522
  428MOL0     C56376   5.169   4.749   3.733  1.9210 -0.1688  1.0079
  428MOL0     C56377   5.299   4.810   3.772 -0.3793  0.0522 -0.5444
  428MOL0     C56378   5.417   4.718   3.753  0.0754 -1.0990  0.3045
  428MOL0     C56379   5.408   4.602   3.849 -0.7903 -0.4359 -0.7966
  428MOL0     C56380   5.544   4.573   3.920 -0.3544  0.3923  0.4972
  428MOL0     N56381   5.542   4.454   4.003 -0.3150  0.8955  0.0153
  428MOL0     C56382   5.575   4.329   3.952 -0.4489 -1.0838 -0.0557
  428MOL0     C56383   5.560   4.257   4.073 -0.2497  0.0362  1.1625
  428MOL0     C56384   5.579   4.111   4.099  0.2590  0.1161  0.3777
  428MOL0     C56385   5.731   4.076   4.111 -0.3163 -0.3028  0.1652
  428MOL0     C56386   5.768   3.954   4.027 -0.9195 -0.1945  0.2394
  428MOL0     C56387   5.899   3.883   4.064  0.8056  0.0025  0.5121
  428MOL0     O56388   5.907   3.859   4.211 -0.8438  0.1359  0.5679
  428MOL0     C56389   6.036   3.829   4.259  0.2437  0.5520  0.9886
  428MOL0     C56390   6.089   3.909   4.356 -0.3208 -0.2137 -0.6584
  428MOL0     C56391   6.213   3.893   4.399 -1.3171 -0.1193 -0.0567
  428MOL0     C56392   6.311   3.804   4.342  0.3249 -0.5797 -0.4944
  428MOL0     C56393   6.442   3.795   4.390 -0.3516 -0.2225 -0.4979
  428MOL0     O56394   6.467   3.873   4.488 -0.3154  0.1111 -0.8383
  428MOL0     C56395   6.581   3.845   4.568 -0.0347 -0.8052 -0.6281
  428MOL0     C56396   6.622   3.713   4.611 -0.3763  0.8861 -0.7494
  428MOL0     C56397   6.738   3.693   4.690 -0.4981 -0.3998 -0.7459
  428MOL0     C56398   6.803   3.805   4.733  0.1538  0.3595 -0.4195
  428MOL0     O56399   6.909   3.780   4.809 -0.5971  0.6793  0.3057
  428MOL0     C56400   7.020   3.871   4.831 -0.1130  0.1179 -0.5151
  428MOL0     C56401   7.145   3.803   4.892  0.9296 -0.5869  0.1922
  428MOL0     C56402   7.199   3.679   4.818 -0.6725 -0.4658  0.0841
  428MOL0     C56403   7.214   3.702   4.666 -0.7645  0.4512 -0.5402
  428MOL0     C56404   7.259   3.567   4.600 -0.4655  0.3122  0.8600
  428MOL0     C56405   7.332   3.587   4.469  0.0473  0.0654  1.0942
  428MOL0     C56406   7.231   3.635   4.360  1.2263 -0.2876 -0.4918
  428MOL0     C56407   7.278   3.587   4.222 -0.4306 -0.2815 -0.5771
  428MOL0    Cl56408   7.427   3.672   4.181 -0.5058  0.3825 -0.1755
  428MOL0     C56409   6.778   3.933   4.679 -0.2638  0.2427  0.2150
  428MOL0     C56410   6.661   3.958   4.608 -0.7096 -0.0065  0.9192
  428MOL0     O56411   6.523   3.731   4.331 -0.5783  1.2436  0.0168
  428MOL0     C56412   6.263   3.717   4.237  0.7014 -0.2343  0.3376
  428MOL0     C56413   6.126   3.730   4.203  0.3009  0.1599 -0.8480
  428MOL0     N56414   5.542   4.328   4.181 -0.0731 -0.0853  0.3070
  428MOL0     N56415   5.530   4.448   4.135  0.5748 -0.0898 -0.9896
  428MOL0     C56416   4.891   4.737   3.335 -0.2121  0.5927  0.0332
  428MOL0     C56417   4.841   4.787   3.220  0.5432  0.7226 -0.4338
  428MOL0     C56418   4.506   4.866   2.941 -0.8503  0.4541 -0.3837
  428MOL0     C56419   4.385   4.871   2.872  0.6758  0.3023 -0.5506
  428MOL0     C56420   4.356   4.823   2.746  0.0990  0.4263 -0.1817
  428MOL0     C56421   4.461   4.779   2.671  0.5691  0.3325 -0.1232
  428MOL0     O56422   4.419   4.741   2.545 -0.2992 -0.7653  0.4520
  428MOL0     C56423   4.528   4.741   2.451  0.5652  0.5995  0.1934
  428MOL0     C56424   4.461   4.811   2.320 -0.8250 -0.5412  0.5412
  428MOL0     C56425   4.481   4.724   2.197  0.1452 -0.8409 -0.3036
  428MOL0     C56426   4.611   4.742   2.132 -0.3862  0.4893  0.1865
  428MOL0     C56427   4.724   4.705   2.215  0.4820 -0.2058  0.6185
  428MOL0     C56428   4.808   4.668   2.286  0.3257  0.4018 -0.0357
  428MOL0     C56429   4.585   4.764   2.733  0.2209 -0.0423 -0.5604
  428MOL0     C56430   4.608   4.807   2.858  0.0713  0.5725 -1.1797
  428MOL0     H56431   4.549   4.929   3.365  0.4553  0.3871 -0.9243
  428MOL0     H56432   4.660   4.833   3.558 -0.0620  0.0274 -0.9397
  428MOL0     H56433   4.748   4.708   3.724 -0.7741  0.7591 -0.7703
  428MOL0     H56434   4.856   4.853   3.722  1.5384 -0.3835  0.6276
  428MOL0     H56435   4.962   4.576   3.769  0.6737  0.6108 -0.6702
  428MOL0     H56436   4.881   4.667   3.905  0.5524 -1.2593  0.6847
  428MOL0     H56437   5.103   4.707   3.940 -0.0806  1.8425  0.6546
  428MOL0     H56438   5.040   4.851   3.881  0.4817 -0.4480 -0.1370
  428MOL0     H56439   5.185   4.650   3.689 -0.0125 -1.3663  2.7872
  428MOL0     H56440   5.133   4.813   3.651 -3.7991 -1.8177  1.7455
  428MOL0     H56441   5.286   4.828   3.879 -6.2531  0.5691 -1.0319
  428MOL0     H56442   5.320   4.905   3.722  2.4336 -0.6800 -0.9776
  428MOL0     H56443   5.511   4.772   3.765  1.0999 -1.8087 -3.4307
  428MOL0     H56444   5.409   4.684   3.649 -0.4227 -2.7186  0.8371
  428MOL0     H56445   5.323   4.612   3.917 -3.1330 -0.5984 -3.5078
  428MOL0     H56446   5.383   4.516   3.787  0.7959  0.0668 -2.2287
  428MOL0     H56447   5.579   4.658   3.979  1.6880  1.2105 -1.7285
  428MOL0     H56448   5.618   4.558   3.840 -1.3119 -2.1229 -0.0068
  428MOL0     H56449   5.605   4.281   3.859 -0.4852 -2.6865  0.7220
  428MOL0     H56450   5.534   4.057   4.016 -0.8346  1.6321 -0.0563
  428MOL0     H56451   5.526   4.082   4.191  0.9245 -1.3683  0.3258
  428MOL0     H56452   5.761   4.059   4.215  0.3218 -1.2734 -0.1601
  428MOL0     H56453   5.782   4.165   4.073 -0.1956 -0.0904  0.8185
  428MOL0     H56454   5.683   3.885   4.029 -2.0836  1.1108 -1.0603
  428MOL0     H56455   5.767   3.997   3.927  2.6976  3.7280  1.5742
  428MOL0     H56456   5.978   3.952   4.034  0.2060  1.4579  2.1074
  428MOL0     H56457   5.901   3.792   4.003 -1.4784  0.3457 -0.1611
  428MOL0     H56458   6.032   3.988   4.402  0.6528  0.4085 -0.4869
  428MOL0     H56459   6.237   3.957   4.483 -3.2656  0.1891  0.3036
  428MOL0     H56460   6.560   3.627   4.589  0.5857  0.1359 -0.6002
  428MOL0     H56461   6.763   3.593   4.723 -1.0478 -0.1949  0.3550
  428MOL0     H56462   6.984   3.948   4.899  0.6420  1.1331 -1.2377
  428MOL0     H56463   7.067   3.918   4.744  2.5002 -1.0385  0.1509
  428MOL0     H56464   7.124   3.779   4.997  1.6422  1.0748  0.7491
  428MOL0     H56465   7.224   3.879   4.892 -0.1343  0.5675 -0.6552
  428MOL0     H56466   7.120   3.603   4.825 -1.0012 -0.2332 -0.9688
  428MOL0     H56467   7.293   3.644   4.861  0.2712  1.5969 -0.2054
  428MOL0     H56468   7.124   3.731   4.611  0.8781  1.2415 -2.9737
  428MOL0     H56469   7.291   3.779   4.661 -0.0570  0.1565  3.0176
  428MOL0     H56470   7.167   3.510   4.581 -1.6661  1.4926  2.7698
  428MOL0     H56471   7.336   3.521   4.662 -1.1655  0.8348  2.1343
  428MOL0     H56472   7.373   3.493   4.432 -2.0703 -0.2494 -0.6185
  428MOL0     H56473   7.412   3.662   4.473 -0.3999  0.5444  1.2440
  428MOL0     H56474   7.135   3.584   4.371  1.0373 -0.4063 -2.2811
  428MOL0     H56475   7.210   3.742   4.370 -1.9250 -0.8378 -0.4471
  428MOL0     H56476   7.201   3.625   4.154 -0.4054  2.5912  0.8586
  428MOL0     H56477   7.290   3.478   4.214  1.8392 -0.5140  3.3421
  428MOL0     H56478   6.837   4.017   4.713 -2.0799  1.1139  1.3712
  428MOL0     H56479   6.637   4.062   4.588 -0.2201  0.1387  1.0972
  428MOL0     H56480   6.328   3.645   4.189  0.1386  0.7848 -2.1286
  428MOL0     H56481   6.081   3.662   4.130 -2.2410 -0.7875  1.4249
  428MOL0     H56482   4.988   4.690   3.323 -0.1619  0.8600 -0.6739
  428MOL0     H56483   4.886   4.785   3.121  1.1244  1.4204 -0.1955
  428MOL0     H56484   4.305   4.915   2.931  2.1016  1.1333  0.8273
  428MOL0     H56485   4.252   4.836   2.717 -0.0211  1.7260  0.7384
  428MOL0     H56486   4.573   4.647   2.418  1.0103  1.3250 -1.3628
  428MOL0     H56487   4.613   4.802   2.486  1.5435 -1.6595  2.0068
  428MOL0     H56488   4.353   4.812   2.337 -0.7349 -0.1788  1.1301
  428MOL0     H56489   4.514   4.907   2.312  2.9912 -2.1535  3.3627
  428MOL0     H56490   4.406   4.751   2.122 -1.1774  2.6031  1.9798
  428MOL0     H56491   4.458   4.620   2.218 -2.6676 -0.5915 -1.7510
  428MOL0     H56492   4.617   4.676   2.044 -0.1047  2.2681 -1.1946
  428MOL0     H56493   4.622   4.841   2.088  1.3309  0.7274  1.0552
  428MOL0     H56494   4.887   4.640   2.352  0.1956  3.1409  1.4379
  428MOL0     H56495   4.662   4.712   2.677 -1.5189  0.7239 -3.9654
  428MOL0     H56496   4.708   4.788   2.895 -0.6199 -0.6895  0.1629
  429MOL0     O56497   2.694   2.665   2.267  0.0496 -0.4792  0.6320
  429MOL0     C56498   2.759   2.773   2.281 -0.5464  0.5867  0.5065
  429MOL0     O56499   2.825   2.809   2.397 -1.2588  0.4636 -0.1939
  429MOL0     C56500   2.821   2.717   2.495 -0.4638 -0.5344  1.2773
  429MOL0     C56501   2.895   2.599   2.487 -0.0621  1.2508 -0.5057
  429MOL0     C56502   2.880   2.494   2.589  1.0049 -0.6130  0.1319
  429MOL0     C56503   2.786   2.511   2.693  0.2113 -1.1705 -0.4115
  429MOL0     O56504   2.756   2.429   2.797  0.1429 -0.5516  0.3188
  429MOL0     C56505   2.873   2.348   2.833  0.5286  0.7118  0.2057
  429MOL0     C56506   2.987   2.442   2.889  0.7309  1.0529 -1.1516
  429MOL0     C56507   3.097   2.359   2.966  0.9897  0.5149 -0.0382
  429MOL0     C56508   3.201   2.442   3.053  1.3449 -1.1630  0.4230
  429MOL0     C56509   3.336   2.371   3.049  1.4513 -0.3680  0.3917
  429MOL0     C56510   3.444   2.447   3.124 -0.0401  0.1931 -0.3299
  429MOL0     C56511   3.567   2.374   3.088 -0.5362 -0.1501  0.0210
  429MOL0     C56512   3.691   2.392   3.172 -0.6107 -0.6833 -0.2641
  429MOL0     N56513   3.757   2.522   3.139 -0.9889  0.6399  0.0643
  429MOL0     C56514   3.837   2.537   3.026 -0.4753  0.2799 -0.5551
  429MOL0     C56515   3.862   2.673   3.004 -0.5599  0.5675 -0.1454
  429MOL0     C56516   3.935   2.749   2.902  0.1347 -0.7518  0.1434
  429MOL0     C56517   4.085   2.718   2.889  0.1001  1.2206 -0.0136
  429MOL0     C56518   4.152   2.734   3.020 -0.0590  0.2948  0.6692
  429MOL0     C56519   4.127   2.853   3.106  0.0572  0.5951 -0.1416
  429MOL0     O56520   4.137   2.971   3.043  0.4125  0.3176  1.3023
  429MOL0     C56521   4.124   3.082   3.116 -1.4141 -0.3056  0.7389
  429MOL0     C56522   4.092   3.193   3.031 -0.7513  1.1026  0.0095
  429MOL0     C56523   4.055   3.317   3.080  0.1806  0.3250  1.0351
  429MOL0     C56524   4.038   3.336   3.220 -0.1984 -0.1722 -0.2545
  429MOL0     C56525   3.982   3.465   3.266 -0.1252  0.2238  0.6979
  429MOL0     O56526   3.935   3.548   3.170 -0.3479  0.0865  0.6912
  429MOL0     C56527   3.887   3.672   3.207  0.0960 -0.6418 -0.0034
  429MOL0     C56528   3.946   3.756   3.304 -0.3195 -0.0878 -0.0011
  429MOL0     C56529   3.910   3.895   3.313  1.3446  0.2561  0.4110
  429MOL0     C56530   3.814   3.956   3.232  0.0214 -0.0170  0.2201
  429MOL0     O56531   3.785   4.082   3.253 -0.3462 -0.7700 -0.6779
  429MOL0     C56532   3.751   4.166   3.145 -0.0861  0.5573 -0.0662
  429MOL0     C56533   3.873   4.212   3.066 -0.4976 -0.4138  0.2160
  429MOL0     C56534   3.995   4.276   3.139  0.3064 -0.1725  1.0226
  429MOL0     C56535   3.970   4.406   3.221 -0.2807 -0.5386 -0.5862
  429MOL0     C56536   3.970   4.391   3.374  0.5220 -0.3474 -0.4378
  429MOL0     C56537   4.107   4.354   3.436 -0.1403 -0.0432  1.0913
  429MOL0     C56538   4.111   4.217   3.501  0.4375  0.5466  0.1363
  429MOL0     C56539   4.248   4.173   3.533  0.1085  0.2619 -0.0041
  429MOL0    Cl56540   4.244   4.003   3.602 -0.3573  0.2927  0.0113
  429MOL0     C56541   3.756   3.872   3.132 -0.1952  0.3673 -0.3708
  429MOL0     C56542   3.799   3.737   3.117  0.7140  0.7011 -0.4953
  429MOL0     O56543   3.990   3.484   3.387  0.3564 -0.0348  0.3815
  429MOL0     C56544   4.067   3.221   3.305 -0.9875  0.3236  0.2094
  429MOL0     C56545   4.106   3.096   3.253  0.3057  0.7300  0.0641
  429MOL0     N56546   3.799   2.737   3.114  0.0545 -0.7579  0.6354
  429MOL0     N56547   3.733   2.652   3.190  0.0523  0.2832  0.2033
  429MOL0     C56548   2.713   2.629   2.691 -0.3404  0.6026  0.4246
  429MOL0     C56549   2.728   2.730   2.594 -0.4307 -0.7454 -0.7175
  429MOL0     C56550   2.760   2.876   2.172  0.5140  0.6218 -0.3032
  429MOL0     C56551   2.692   2.854   2.052  0.1792  0.2984  0.7058
  429MOL0     C56552   2.668   2.957   1.963 -0.1821  0.7324  1.1213
  429MOL0     C56553   2.725   3.082   1.983 -0.1509 -0.0889  0.3467
  429MOL0     O56554   2.712   3.176   1.887 -0.0492  0.1801  0.4034
  429MOL0     C56555   2.759   3.310   1.901  0.4971  0.0835 -0.3927
  429MOL0     C56556   2.703   3.405   1.797  0.6475 -0.3903  0.9571
  429MOL0     C56557   2.714   3.366   1.642 -0.4127  0.0296 -0.5370
  429MOL0     C56558   2.695   3.487   1.554 -0.1048 -0.2502 -0.3187
  429MOL0     C56559   2.552   3.497   1.511  0.4730 -0.2807 -0.2579
  429MOL0     C56560   2.444   3.507   1.463  0.2780  0.7358  0.2820
  429MOL0     C56561   2.807   3.104   2.093 -0.5389  0.9290  0.5106
  429MOL0     C56562   2.816   3.000   2.194  0.4633 -0.0606  0.5139
  429MOL0     H56563   2.982   2.596   2.423  0.8953 -0.2750  0.7935
  429MOL0     H56564   2.943   2.405   2.584  3.2158  0.8015  1.1615
  429MOL0     H56565   2.908   2.280   2.755  0.1287  0.1182  0.5322
  429MOL0     H56566   2.834   2.285   2.914  1.2744 -1.5772 -1.1145
  429MOL0     H56567   2.947   2.526   2.946 -2.0310  0.0425 -1.4599
  429MOL0     H56568   3.044   2.483   2.806  0.9985  1.0185 -0.9877
  429MOL0     H56569   3.150   2.308   2.885  1.1012  2.6173 -1.3744
  429MOL0     H56570   3.043   2.285   3.025 -1.4813  0.1758 -2.4846
  429MOL0     H56571   3.215   2.539   3.005 -3.5127 -1.3494 -1.9098
  429MOL0     H56572   3.169   2.449   3.158  0.2960  1.4059  0.0131
  429MOL0     H56573   3.373   2.364   2.946  2.4168 -2.6267  0.8274
  429MOL0     H56574   3.323   2.269   3.086  2.0567  0.4076  2.8822
  429MOL0     H56575   3.431   2.454   3.232  0.8461  0.9485 -0.2660
  429MOL0     H56576   3.442   2.553   3.099  0.2665  1.0347  2.7802
  429MOL0     H56577   3.541   2.268   3.094 -2.7649  0.4093  1.4099
  429MOL0     H56578   3.587   2.404   2.984  1.6480  2.6538  1.1136
  429MOL0     H56579   3.759   2.310   3.148 -1.4906 -1.2793 -0.8133
  429MOL0     H56580   3.673   2.389   3.280 -0.6235  1.8007 -0.1410
  429MOL0     H56581   3.882   2.461   2.962  1.7799  3.4272 -3.0449
  429MOL0     H56582   3.924   2.856   2.925 -1.3188 -1.1171  1.3255
  429MOL0     H56583   3.891   2.742   2.802 -1.4668  4.4861  0.1772
  429MOL0     H56584   4.130   2.781   2.811  1.1844  0.0205 -0.4017
  429MOL0     H56585   4.106   2.613   2.869 -0.9513  1.1009 -0.5622
  429MOL0     H56586   4.126   2.654   3.089 -1.5647  0.8641  0.7863
  429MOL0     H56587   4.259   2.724   3.000 -0.1202 -0.2636  0.6153
  429MOL0     H56588   4.209   2.854   3.178 -1.0274  2.7004  1.1770
  429MOL0     H56589   4.023   2.842   3.138  0.0138 -2.9733 -1.1748
  429MOL0     H56590   4.093   3.190   2.923  1.4593 -0.6076 -0.0049
  429MOL0     H56591   4.034   3.389   3.002  3.4828 -0.3949 -0.6948
  429MOL0     H56592   4.016   3.722   3.380 -4.7551 -0.8970  4.2110
  429MOL0     H56593   3.956   3.945   3.398  0.3049 -1.2367  1.9384
  429MOL0     H56594   3.694   4.252   3.180 -0.3964  1.7246 -3.1633
  429MOL0     H56595   3.693   4.112   3.070  1.1821 -2.9141  1.2548
  429MOL0     H56596   3.851   4.286   2.989 -1.8135 -1.4502 -0.4458
  429MOL0     H56597   3.912   4.125   3.012 -0.4376  0.2963 -0.8904
  429MOL0     H56598   4.073   4.290   3.065  0.0964  1.1414  1.0295
  429MOL0     H56599   4.034   4.196   3.203 -2.5422 -1.3478  1.4339
  429MOL0     H56600   4.043   4.484   3.200  0.6158 -1.9068 -2.7625
  429MOL0     H56601   3.874   4.448   3.188 -0.2040  1.3490  1.3437
  429MOL0     H56602   3.898   4.311   3.392 -0.3815  0.5332 -0.0689
  429MOL0     H56603   3.930   4.482   3.418 -1.7363 -1.1990 -0.6074
  429MOL0     H56604   4.135   4.427   3.513  2.4772  0.0517  0.1394
  429MOL0     H56605   4.174   4.356   3.350  0.5176  0.9323  1.6018
  429MOL0     H56606   4.054   4.209   3.593 -0.3657  1.4328 -0.2724
  429MOL0     H56607   4.083   4.136   3.433  1.8820  0.5135 -0.4688
  429MOL0     H56608   4.286   4.242   3.610 -1.8985 -0.3318  1.6033
  429MOL0     H56609   4.308   4.178   3.441 -1.9065 -0.4913 -1.4179
  429MOL0     H56610   3.685   3.903   3.055  0.1816  0.0178 -0.8618
  429MOL0     H56611   3.752   3.675   3.042 -1.1290 -1.9982  2.6060
  429MOL0     H56612   4.049   3.242   3.410  2.0324  1.5224  0.5868
  429MOL0     H56613   4.122   3.016   3.324 -1.0402 -1.9040 -2.4177
  429MOL0     H56614   2.646   2.655   2.772 -3.1013 -0.9346 -1.1921
  429MOL0     H56615   2.668   2.821   2.595 -0.1071 -0.5131 -1.4258
  429MOL0     H56616   2.653   2.754   2.039  4.3018 -1.3765 -0.4480
  429MOL0     H56617   2.619   2.930   1.870  1.0436  0.9920  0.3883
  429MOL0     H56618   2.868   3.312   1.898  0.5110  1.3637 -3.9587
  429MOL0     H56619   2.707   3.348   1.989 -0.8542  1.0332 -1.5658
  429MOL0     H56620   2.600   3.420   1.828  0.7219 -2.0656  2.2357
  429MOL0     H56621   2.756   3.500   1.806 -0.0315  0.7132 -4.0163
  429MOL0     H56622   2.651   3.282   1.612  1.9974 -3.0266  2.2353
  429MOL0     H56623   2.810   3.316   1.631 -0.7123 -1.9294  3.6058
  429MOL0     H56624   2.726   3.579   1.604  2.7016 -0.7903 -0.9050
  429MOL0     H56625   2.763   3.487   1.468  0.8482 -1.1400  0.4101
  429MOL0     H56626   2.362   3.522   1.396  1.8795  2.6572 -1.3619
  429MOL0     H56627   2.855   3.198   2.119 -0.5914  0.5980  1.9004
  429MOL0     H56628   2.874   3.035   2.278  0.3091  4.0571 -0.8746
  430MOL0     O56629   6.475   9.714   5.072  0.4790  0.4195 -0.1731
  430MOL0     C56630   6.531   9.637   5.004 -0.0147 -0.2346  0.5884
  430MOL0     O56631   6.661   9.601   5.016  0.4558  0.4316 -0.6389
  430MOL0     C56632   6.752   9.669   5.112  0.9012  0.0035  0.1700
  430MOL0     C56633   6.748   9.673   5.248 -0.6403  0.5653 -0.4725
  430MOL0     C56634   6.857   9.733   5.311  0.8205 -0.7251  0.2567
  430MOL0     C56635   6.960   9.800   5.247  0.6100  0.4118 -0.1809
  430MOL0     O56636   7.065   9.854   5.312 -0.3813 -0.6480  0.1342
  430MOL0     C56637   7.059   9.895   5.452 -0.1820 -0.2162 -0.3039
  430MOL0     C56638   6.968  10.024   5.460 -0.8499 -0.2434  0.5856
  430MOL0     C56639   6.984  10.115   5.577  0.1313 -0.1346  0.2169
  430MOL0     C56640   6.981  10.047   5.720  0.5313  0.8495 -0.6852
  430MOL0     C56641   6.849   9.983   5.758 -0.6781  0.1714 -0.4162
  430MOL0     C56642   6.718  10.053   5.722  1.3198  0.7148 -0.3129
  430MOL0     C56643   6.716  10.187   5.794 -0.2640  0.4657  0.2768
  430MOL0     C56644   6.752  10.205   5.944  0.2183 -0.4367 -0.4242
  430MOL0     N56645   6.676  10.123   6.032 -0.6601  0.4383 -0.2896
  430MOL0     C56646   6.547  10.160   6.074 -1.1466  0.0966 -0.3801
  430MOL0     C56647   6.509  10.059   6.145  0.0027  0.5217 -0.3604
  430MOL0     C56648   6.372  10.041   6.206 -0.6204 -0.0005  0.3757
  430MOL0     C56649   6.259  10.032   6.110 -0.2616 -0.3461  0.6465
  430MOL0     C56650   6.189  10.164   6.104  0.1965  0.1807  0.1700
  430MOL0     C56651   6.097  10.181   5.973  0.7903  0.4804 -0.2515
  430MOL0     O56652   6.173  10.210   5.858  0.0228 -0.1231 -0.0265
  430MOL0     C56653   6.119  10.291   5.764 -0.9158  0.1314  0.1374
  430MOL0     C56654   5.985  10.286   5.738 -0.4669  0.1715  0.3175
  430MOL0     C56655   5.929  10.378   5.648  0.5978 -0.4743 -0.1482
  430MOL0     C56656   6.009  10.460   5.566 -0.3575 -0.5314 -0.6711
  430MOL0     C56657   5.948  10.545   5.461 -0.1959  0.2840 -0.1731
  430MOL0     O56658   6.039  10.598   5.373  0.2691  1.0654 -0.1076
  430MOL0     C56659   6.005  10.697   5.279  0.0439 -0.8383 -1.1229
  430MOL0     C56660   6.075  10.689   5.161  0.2653 -0.0703  0.7420
  430MOL0     C56661   6.052  10.781   5.059  0.3573  0.6079 -0.2969
  430MOL0     C56662   5.963  10.885   5.067 -0.6828  0.3933  0.0461
  430MOL0     O56663   5.960  10.965   4.955 -0.1410 -0.1689 -0.3110
  430MOL0     C56664   5.884  11.096   4.968 -1.0421  0.1682 -0.0197
  430MOL0     C56665   5.861  11.167   4.835 -0.1344  0.0113 -0.7737
  430MOL0     C56666   5.995  11.207   4.775 -0.6051 -0.0335  0.1599
  430MOL0     C56667   5.977  11.303   4.659 -0.4296  0.5763 -0.2856
  430MOL0     C56668   6.101  11.334   4.592 -0.0127  0.3369 -0.3669
  430MOL0     C56669   6.202  11.420   4.672  0.4468 -0.3349 -0.1519
  430MOL0     C56670   6.329  11.451   4.589  0.2015 -0.3705 -1.4488
  430MOL0     C56671   6.313  11.561   4.484 -1.2405  0.3026  0.5432
  430MOL0    Cl56672   6.475  11.577   4.402  0.5968  0.2106 -0.2381
  430MOL0     C56673   5.899  10.904   5.192 -0.5390  0.1229 -0.1126
  430MOL0     C56674   5.923  10.809   5.294 -0.0234  1.2083 -0.7807
  430MOL0     O56675   5.826  10.573   5.460 -0.3173 -0.3346  0.4242
  430MOL0     C56676   6.147  10.467   5.593  0.5515 -0.7521  0.0396
  430MOL0     C56677   6.199  10.379   5.688 -0.3643 -0.6308 -0.9878
  430MOL0     N56678   6.604   9.963   6.143 -0.0844  0.3827  0.0623
  430MOL0     N56679   6.702   9.998   6.066  0.3147  0.6706 -0.5666
  430MOL0     C56680   6.957   9.801   5.105  0.1500 -0.1704  0.7509
  430MOL0     C56681   6.854   9.733   5.036  0.2730 -1.0766 -0.6321
  430MOL0     C56682   6.472   9.599   4.875  0.0062  0.8853 -0.2225
  430MOL0     C56683   6.345   9.636   4.834  0.2945  0.3529 -0.2391
  430MOL0     C56684   6.305   9.592   4.712  0.8017  0.2661 -0.5119
  430MOL0     C56685   6.386   9.534   4.615  0.6174  0.1711  0.3315
  430MOL0     O56686   6.341   9.516   4.489 -0.2324 -0.3760 -0.6407
  430MOL0     C56687   6.199   9.504   4.458 -0.8687  0.2032 -0.4349
  430MOL0     C56688   6.183   9.402   4.344 -0.3692  0.8819 -0.0209
  430MOL0     C56689   6.177   9.252   4.373 -0.3124 -0.7935 -0.5969
  430MOL0     C56690   6.049   9.200   4.441  0.9041  0.4240 -0.4105
  430MOL0     C56691   6.047   9.055   4.474 -0.9997 -0.7242  0.3284
  430MOL0     C56692   6.075   8.939   4.487  0.0508 -0.5790 -0.1389
  430MOL0     C56693   6.517   9.511   4.645  0.4572  0.1109  0.0444
  430MOL0     C56694   6.556   9.537   4.780 -0.2353 -1.1696 -0.5604
  430MOL0     H56695   6.676   9.607   5.296 -0.3526  0.9889  0.5765
  430MOL0     H56696   6.867   9.727   5.419  0.9450 -0.4762  0.2587
  430MOL0     H56697   7.163   9.923   5.475 -0.3567  3.2293 -2.7895
  430MOL0     H56698   7.030   9.807   5.510 -2.6691  0.6029 -0.1944
  430MOL0     H56699   6.867   9.983   5.466 -1.6124  1.3657 -0.5696
  430MOL0     H56700   6.987  10.091   5.376 -3.5389  3.8067  2.8915
  430MOL0     H56701   6.900  10.184   5.573  0.3414  0.0518 -2.2222
  430MOL0     H56702   7.079  10.169   5.574 -1.0104  1.9327 -1.3501
  430MOL0     H56703   7.053   9.966   5.731 -1.8464 -1.5630 -1.8824
  430MOL0     H56704   7.013  10.122   5.793  0.6592 -0.5424  0.7191
  430MOL0     H56705   6.851   9.957   5.864 -2.0535  0.8603 -0.1956
  430MOL0     H56706   6.840   9.893   5.697  1.2598 -0.3123 -0.0371
  430MOL0     H56707   6.635   9.995   5.763  0.7322  0.6249 -1.5806
  430MOL0     H56708   6.697  10.075   5.617 -1.2187  0.5437  0.0911
  430MOL0     H56709   6.794  10.244   5.743  0.1184  0.5385  0.9460
  430MOL0     H56710   6.621  10.238   5.774  0.0329  1.7299  1.9236
  430MOL0     H56711   6.752  10.310   5.973 -1.2615  1.2132 -5.3836
  430MOL0     H56712   6.858  10.183   5.963  0.0961 -1.1173 -0.5238
  430MOL0     H56713   6.486  10.247   6.053 -1.2167  0.1612  0.0913
  430MOL0     H56714   6.362  10.113   6.288  0.6867  2.8636 -1.8033
  430MOL0     H56715   6.366   9.940   6.247 -1.0588  0.1015  0.5667
  430MOL0     H56716   6.183   9.960   6.143  0.7207 -1.2694  0.9287
  430MOL0     H56717   6.300  10.026   6.009 -0.9030 -0.4318  0.3864
  430MOL0     H56718   6.138  10.175   6.200 -1.1099 -1.0869 -0.3463
  430MOL0     H56719   6.264  10.244   6.105 -0.1283  0.4869  0.1677
  430MOL0     H56720   6.044  10.272   6.004  1.3156  0.8974 -0.5561
  430MOL0     H56721   6.029  10.096   5.966 -1.9360  2.4988 -0.0199
  430MOL0     H56722   5.914  10.234   5.801  1.3019 -1.0758  1.3743
  430MOL0     H56723   5.821  10.370   5.637  0.8753 -4.2446 -1.8452
  430MOL0     H56724   6.148  10.609   5.151  2.7036  1.9361  1.4871
  430MOL0     H56725   6.106  10.751   4.970  0.0162  0.0121 -0.3109
  430MOL0     H56726   5.937  11.160   5.039 -0.5346  0.2621 -0.4780
  430MOL0     H56727   5.785  11.072   5.008 -1.6973 -0.7285 -2.0621
  430MOL0     H56728   5.798  11.255   4.852  0.5088  0.5748 -1.3034
  430MOL0     H56729   5.813  11.106   4.758  2.2818  0.8796 -3.0815
  430MOL0     H56730   6.061  11.121   4.760 -0.8677 -1.1739  4.3491
  430MOL0     H56731   6.045  11.257   4.859  0.1503 -0.0844 -0.2531
  430MOL0     H56732   5.906  11.258   4.589 -0.3866 -0.4450  0.3134
  430MOL0     H56733   5.933  11.402   4.675 -0.3722  0.5531  0.0123
  430MOL0     H56734   6.090  11.394   4.501  2.6211  1.8453  0.2004
  430MOL0     H56735   6.155  11.242   4.567  3.2214  1.2495  2.4830
  430MOL0     H56736   6.222  11.359   4.761 -0.0808 -1.9533 -1.0954
  430MOL0     H56737   6.146  11.510   4.700 -0.0798 -0.3477 -1.1219
  430MOL0     H56738   6.411  11.488   4.653 -1.0605  0.6157 -0.3448
  430MOL0     H56739   6.359  11.359   4.538 -2.1145 -1.2431 -1.3199
  430MOL0     H56740   6.281  11.656   4.527 -1.1984  0.4576  0.2360
  430MOL0     H56741   6.241  11.526   4.410  0.4103  0.6055 -1.2918
  430MOL0     H56742   5.844  10.997   5.196  2.3621  1.9033  1.3308
  430MOL0     H56743   5.886  10.816   5.396 -0.2603  2.6854 -0.9487
  430MOL0     H56744   6.203  10.544   5.541 -2.4155 -0.2815 -2.7997
  430MOL0     H56745   6.303  10.383   5.717 -0.6104 -1.8452  0.1700
  430MOL0     H56746   7.038   9.862   5.067 -2.5734  3.8307  0.7853
  430MOL0     H56747   6.861   9.732   4.928 -0.7532  0.5178 -0.7646
  430MOL0     H56748   6.285   9.712   4.881 -2.6211 -1.7611 -0.2510
  430MOL0     H56749   6.202   9.609   4.683  1.0545 -0.4733 -1.9650
  430MOL0     H56750   6.165   9.600   4.419 -2.9996 -1.1567 -2.1290
  430MOL0     H56751   6.136   9.477   4.542  1.7943 -0.7715  1.3826
  430MOL0     H56752   6.094   9.431   4.287 -1.3323 -0.6168  0.6605
  430MOL0     H56753   6.260   9.417   4.269 -0.8365  0.0662 -0.6797
  430MOL0     H56754   6.261   9.231   4.441  0.0675  0.8592 -0.5052
  430MOL0     H56755   6.194   9.186   4.288 -1.9908  0.4884 -1.9911
  430MOL0     H56756   6.018   9.254   4.531 -2.3050 -1.3487 -0.2899
  430MOL0     H56757   5.962   9.215   4.377  0.3806 -3.0383 -0.7009
  430MOL0     H56758   6.096   8.835   4.476  0.9252 -0.2111 -2.6853
  430MOL0     H56759   6.592   9.485   4.571  1.9698 -5.1226  2.9743
  430MOL0     H56760   6.658   9.518   4.811  0.2209 -0.4140 -1.5421
  431MOL0     O56761   4.763   1.738   1.453  0.5023  0.3860  0.0829
  431MOL0     C56762   4.764   1.619   1.448 -0.4823 -0.3202  0.0578
  431MOL0     O56763   4.814   1.539   1.538 -1.4260  0.2790 -0.6944
  431MOL0     C56764   4.825   1.565   1.675  1.2181  0.6543 -0.4235
  431MOL0     C56765   4.753   1.668   1.740 -0.1328 -0.1762 -0.2544
  431MOL0     C56766   4.773   1.682   1.879  1.3894 -0.4558  0.8395
  431MOL0     C56767   4.851   1.594   1.951  0.7265 -0.2825  0.6473
  431MOL0     O56768   4.880   1.625   2.077  0.2211  0.2398 -0.0447
  431MOL0     C56769   5.021   1.659   2.094  0.7604 -0.8937 -0.7504
  431MOL0     C56770   5.044   1.746   2.219 -0.3644  0.0173 -0.1989
  431MOL0     C56771   4.947   1.857   2.247  0.1424 -0.1981 -0.0568
  431MOL0     C56772   4.927   1.947   2.127  1.2047 -0.6907 -0.8091
  431MOL0     C56773   4.780   2.008   2.137 -0.1536 -1.0388  0.7768
  431MOL0     C56774   4.759   2.133   2.042 -0.3719 -0.7189 -0.6398
  431MOL0     C56775   4.880   2.236   2.037  0.2354  0.6391 -0.2795
  431MOL0     C56776   4.894   2.291   2.181  0.5101 -0.4148 -0.1941
  431MOL0     N56777   4.971   2.417   2.180  0.3248 -1.0573  0.2632
  431MOL0     C56778   4.908   2.539   2.161 -1.2011 -0.6786 -0.3784
  431MOL0     C56779   5.016   2.626   2.149 -0.8127 -0.3090 -0.1317
  431MOL0     C56780   5.024   2.773   2.106 -0.0348  0.2283 -0.2818
  431MOL0     C56781   5.128   2.855   2.181 -1.4450  0.2746  1.0097
  431MOL0     C56782   5.108   2.869   2.328 -0.6417 -1.0514  0.0118
  431MOL0     C56783   5.175   2.983   2.403  0.1181 -0.0897 -0.0570
  431MOL0     O56784   5.315   2.982   2.364 -0.3720 -0.7804 -1.1934
  431MOL0     C56785   5.394   3.075   2.439  0.8642  0.9938  0.2629
  431MOL0     C56786   5.502   3.129   2.369  0.7078 -0.7746 -0.1918
  431MOL0     C56787   5.587   3.219   2.428  0.7808 -1.1358  0.3038
  431MOL0     C56788   5.578   3.258   2.563  1.0688  0.7876 -0.3532
  431MOL0     C56789   5.666   3.351   2.629 -1.3222  0.4014 -0.3474
  431MOL0     O56790   5.781   3.395   2.568 -0.0336  0.1432 -0.1191
  431MOL0     C56791   5.855   3.487   2.635 -0.7727 -0.7661 -0.8901
  431MOL0     C56792   5.889   3.492   2.775 -0.6723 -0.6048  0.3745
  431MOL0     C56793   5.951   3.607   2.834  0.1532 -0.6358 -0.0343
  431MOL0     C56794   5.988   3.709   2.752 -0.5575 -0.4788 -0.7599
  431MOL0     O56795   6.044   3.819   2.809 -0.1566 -0.0846 -0.0690
  431MOL0     C56796   6.109   3.913   2.727 -0.3254 -1.7761  0.2593
  431MOL0     C56797   6.211   3.995   2.805  0.3586  0.9728 -0.2239
  431MOL0     C56798   6.263   4.111   2.712 -0.2011  0.1671 -0.5488
  431MOL0     C56799   6.305   4.225   2.801 -0.8797  0.2003 -0.2234
  431MOL0     C56800   6.179   4.307   2.831  0.0514 -0.1146  0.0588
  431MOL0     C56801   6.202   4.427   2.925  0.0581  0.5360  0.6062
  431MOL0     C56802   6.323   4.510   2.900 -0.2088 -0.4226  0.7344
  431MOL0     C56803   6.295   4.651   2.944 -0.0413  0.3699 -0.2781
  431MOL0    Cl56804   6.239   4.655   3.111  0.0936 -0.1100 -0.1050
  431MOL0     C56805   5.970   3.696   2.616  0.4588 -0.6817  0.4324
  431MOL0     C56806   5.901   3.594   2.560  0.5498  1.0175  1.0828
  431MOL0     O56807   5.633   3.381   2.744 -0.2235 -0.5724 -0.2100
  431MOL0     C56808   5.471   3.199   2.638 -0.1364  0.4713  0.7368
  431MOL0     C56809   5.375   3.113   2.575 -0.5957  0.4114 -0.3121
  431MOL0     N56810   5.129   2.559   2.185 -0.0306 -1.0379 -0.0830
  431MOL0     N56811   5.108   2.432   2.204  0.0210  0.1124  0.3619
  431MOL0     C56812   4.890   1.478   1.892  0.7074 -0.5290 -0.0127
  431MOL0     C56813   4.875   1.461   1.755 -0.0171  0.1398  0.3670
  431MOL0     C56814   4.709   1.552   1.325 -0.5874  0.7121 -0.4624
  431MOL0     C56815   4.768   1.436   1.269  0.0789 -0.0401  0.1895
  431MOL0     C56816   4.734   1.384   1.146 -0.2447  0.8976 -0.4014
  431MOL0     C56817   4.638   1.435   1.063 -0.0761  1.1242 -0.0660
  431MOL0     O56818   4.612   1.394   0.934 -0.3547  0.0233  0.2061
  431MOL0     C56819   4.687   1.292   0.871 -0.5124 -0.1193 -0.7145
  431MOL0     C56820   4.830   1.353   0.827  0.4190 -0.1658 -1.0326
  431MOL0     C56821   4.833   1.482   0.744 -0.4242  0.3839 -0.1987
  431MOL0     C56822   4.785   1.460   0.592  0.5919 -0.4197  0.3836
  431MOL0     C56823   4.840   1.339   0.524 -0.1503  0.0824  0.6601
  431MOL0     C56824   4.887   1.233   0.489  0.0482  0.4015 -0.4820
  431MOL0     C56825   4.584   1.553   1.109 -0.7421  0.5056 -0.5069
  431MOL0     C56826   4.617   1.613   1.241 -0.1007 -0.5981  0.4664
  431MOL0     H56827   4.686   1.723   1.674 -1.3735 -0.8772  0.3920
  431MOL0     H56828   4.725   1.765   1.930  0.3315 -0.5118 -0.0132
  431MOL0     H56829   5.063   1.704   2.004 -0.2111  1.1569 -0.2583
  431MOL0     H56830   5.075   1.567   2.117  0.9071 -0.7875 -0.6662
  431MOL0     H56831   5.139   1.800   2.215 -0.5372  0.3290 -0.1378
  431MOL0     H56832   5.044   1.690   2.314 -0.2859 -0.9038 -0.7282
  431MOL0     H56833   4.982   1.909   2.337  1.4473 -2.3991  0.8079
  431MOL0     H56834   4.856   1.800   2.269  0.3684 -1.3250 -1.8693
  431MOL0     H56835   4.995   2.033   2.138  2.5126 -1.6553 -1.2131
  431MOL0     H56836   4.938   1.901   2.029  1.4141 -0.7032 -0.7801
  431MOL0     H56837   4.760   2.048   2.237 -1.5095 -0.2024  0.2025
  431MOL0     H56838   4.710   1.931   2.102 -0.2643 -1.1012  1.1261
  431MOL0     H56839   4.674   2.194   2.074  0.4294 -0.8123  1.8888
  431MOL0     H56840   4.738   2.087   1.945  0.9963  0.1020 -1.3526
  431MOL0     H56841   4.970   2.195   1.992 -0.7933 -1.3015 -0.6745
  431MOL0     H56842   4.853   2.325   1.978  0.9582  1.3960  0.4991
  431MOL0     H56843   4.948   2.221   2.246 -1.5746  0.2399  2.4559
  431MOL0     H56844   4.801   2.317   2.233  0.0476  2.8314 -2.3734
  431MOL0     H56845   4.805   2.571   2.154 -0.4208  2.9370  1.9099
  431MOL0     H56846   4.928   2.824   2.125  1.1048  2.9129 -1.3010
  431MOL0     H56847   5.042   2.784   1.999  2.2689 -2.5036 -0.2800
  431MOL0     H56848   5.131   2.959   2.148  0.8251 -0.7248 -2.4811
  431MOL0     H56849   5.228   2.812   2.171 -1.2872 -0.3186  4.1392
  431MOL0     H56850   5.000   2.880   2.343 -0.4095 -0.0529  1.0891
  431MOL0     H56851   5.142   2.778   2.379  1.5410 -0.8746 -1.0296
  431MOL0     H56852   5.157   2.981   2.511  2.4933  2.0491  0.4744
  431MOL0     H56853   5.132   3.078   2.373 -1.0299 -0.1985  1.1187
  431MOL0     H56854   5.523   3.101   2.266  1.6760  2.9162 -1.1758
  431MOL0     H56855   5.666   3.247   2.360 -2.0197 -1.5860 -3.4178
  431MOL0     H56856   5.860   3.408   2.837 -0.4891 -2.7347 -2.2321
  431MOL0     H56857   5.969   3.606   2.941  3.2855 -1.4993 -0.4758
  431MOL0     H56858   6.037   3.981   2.680  0.1131 -2.8852 -2.1568
  431MOL0     H56859   6.173   3.868   2.650 -0.0524 -2.6915  1.0114
  431MOL0     H56860   6.297   3.935   2.837  0.4897  0.3059 -1.7145
  431MOL0     H56861   6.159   4.031   2.894  0.4549 -2.0137  1.1778
  431MOL0     H56862   6.184   4.150   2.646  1.2756  0.5037 -2.1808
  431MOL0     H56863   6.354   4.071   2.668  1.5152  1.6799  1.4273
  431MOL0     H56864   6.357   4.185   2.888  2.1710 -1.0145 -2.4683
  431MOL0     H56865   6.377   4.293   2.755 -0.6564  2.1377  2.6881
  431MOL0     H56866   6.110   4.237   2.880  0.2737  1.0381  2.1179
  431MOL0     H56867   6.141   4.336   2.732  0.5052  1.2859  0.2838
  431MOL0     H56868   6.208   4.392   3.029  1.6772 -0.4058  0.2208
  431MOL0     H56869   6.112   4.490   2.923  0.4580  1.0876 -0.8353
  431MOL0     H56870   6.394   4.468   2.971 -0.9898 -1.5743  0.8641
  431MOL0     H56871   6.353   4.511   2.795 -1.9293  0.6744  0.1962
  431MOL0     H56872   6.207   4.687   2.889 -1.2529  1.7917  2.3769
  431MOL0     H56873   6.381   4.719   2.945 -0.5340  1.1274  2.7850
  431MOL0     H56874   5.989   3.780   2.549 -0.0310 -1.2187 -0.3933
  431MOL0     H56875   5.886   3.611   2.454 -0.8617  2.1799  1.4374
  431MOL0     H56876   5.445   3.234   2.737 -2.2842  1.9561 -0.2724
  431MOL0     H56877   5.290   3.084   2.637 -0.6249 -2.2857 -1.4781
  431MOL0     H56878   4.934   1.393   1.942 -0.1457 -0.5007  0.8088
  431MOL0     H56879   4.906   1.373   1.700  1.0258  1.2820 -0.9969
  431MOL0     H56880   4.855   1.395   1.319  2.4423  3.5811 -0.5396
  431MOL0     H56881   4.787   1.290   1.133 -1.8155 -0.6192  2.9523
  431MOL0     H56882   4.637   1.255   0.781 -0.2829  1.5924 -1.5983
  431MOL0     H56883   4.689   1.219   0.952 -1.2033  3.5878  2.9484
  431MOL0     H56884   4.883   1.383   0.918 -1.6717 -0.6917  0.4347
  431MOL0     H56885   4.899   1.280   0.783  0.7728  0.5660 -1.6991
  431MOL0     H56886   4.940   1.504   0.751 -0.2937 -0.6735  2.0005
  431MOL0     H56887   4.771   1.557   0.793 -0.1856  0.3627  0.1337
  431MOL0     H56888   4.676   1.457   0.600  0.2070  1.5756 -2.5016
  431MOL0     H56889   4.808   1.557   0.547  3.1086 -1.2161 -0.1666
  431MOL0     H56890   4.934   1.150   0.440  0.0727  1.2978 -2.0268
  431MOL0     H56891   4.515   1.604   1.043 -1.0516  1.3272  0.4366
  431MOL0     H56892   4.557   1.700   1.266  0.7955  0.0523  0.4258
  432MOL0     O56893   2.582   4.740  10.216  0.1414  0.0850 -0.1714
  432MOL0     C56894   2.606   4.724  10.337 -0.2219  1.0221  0.7796
  432MOL0     O56895   2.711   4.646  10.387 -0.5641 -0.6795 -0.1093
  432MOL0     C56896   2.813   4.598  10.311 -0.4654  0.0344  0.6511
  432MOL0     C56897   2.859   4.468  10.353  0.6720 -0.2756  0.5043
  432MOL0     C56898   2.965   4.408  10.283 -0.0884  0.5059 -0.1714
  432MOL0     C56899   3.038   4.471  10.175  0.3112  0.0859 -0.1201
  432MOL0     O56900   3.138   4.426  10.104  0.0394  0.0048  0.4069
  432MOL0     C56901   3.164   4.287  10.112  0.4973  0.6562 -0.5414
  432MOL0     C56902   3.292   4.252  10.035 -0.3455  0.3018 -0.3484
  432MOL0     C56903   3.324   4.102  10.020  1.2402  1.7394 -0.6156
  432MOL0     C56904   3.450   4.077   9.936 -0.0732 -0.0868  0.1982
  432MOL0     C56905   3.477   3.936   9.891 -0.9405 -0.6506 -0.1346
  432MOL0     C56906   3.615   3.930   9.828  0.3827  0.5298  0.4353
  432MOL0     C56907   3.624   3.808   9.725 -0.2042  0.4680  0.1762
  432MOL0     C56908   3.733   3.803   9.632  0.4173  0.5133 -1.0225
  432MOL0     N56909   3.716   3.687   9.545 -0.2128 -0.6543 -0.0088
  432MOL0     C56910   3.749   3.563   9.588  0.9946 -0.3941  0.1490
  432MOL0     C56911   3.701   3.483   9.487  0.2924 -0.0736 -0.4609
  432MOL0     C56912   3.711   3.335   9.468 -0.6915 -0.3366  0.8860
  432MOL0     C56913   3.835   3.278   9.391 -0.9460  0.3069  0.3274
  432MOL0     C56914   3.967   3.336   9.447 -0.9606 -0.3234  0.3611
  432MOL0     C56915   4.083   3.248   9.409  0.1461 -0.8460  0.1855
  432MOL0     O56916   4.215   3.313   9.425 -0.7324 -0.1329  0.1670
  432MOL0     C56917   4.314   3.274   9.334  0.8851 -0.3657  0.1275
  432MOL0     C56918   4.319   3.156   9.249  0.2991 -0.0202 -0.6522
  432MOL0     C56919   4.421   3.132   9.156 -0.0580  0.6200  0.2907
  432MOL0     C56920   4.537   3.208   9.141 -0.5054  0.1312  0.2057
  432MOL0     C56921   4.643   3.179   9.042  0.5234  0.8757 -0.6904
  432MOL0     O56922   4.611   3.075   8.960  0.0436  0.2188  0.7632
  432MOL0     C56923   4.698   3.013   8.877 -0.1065  0.3789  0.2669
  432MOL0     C56924   4.668   2.876   8.857 -0.1734  0.2630  0.6088
  432MOL0     C56925   4.745   2.788   8.771  0.2589 -0.4815  1.2702
  432MOL0     C56926   4.868   2.844   8.733 -0.2382 -0.6412 -0.0575
  432MOL0     O56927   4.956   2.792   8.649 -0.2312 -0.3279  0.2628
  432MOL0     C56928   4.919   2.671   8.565 -0.2465 -0.8444  0.2781
  432MOL0     C56929   5.042   2.634   8.485 -0.9422  0.3333  0.8071
  432MOL0     C56930   5.096   2.746   8.403  0.9280 -0.6321  1.1824
  432MOL0     C56931   5.229   2.706   8.333  0.5065  0.8647  0.0983
  432MOL0     C56932   5.329   2.825   8.283  0.0857  0.8179 -0.6424
  432MOL0     C56933   5.255   2.890   8.156 -0.9021  0.4055 -0.2288
  432MOL0     C56934   5.304   3.035   8.142  0.4793 -0.1412 -0.3579
  432MOL0     C56935   5.214   3.109   8.042 -0.2269  0.6199 -0.5736
  432MOL0    Cl56936   5.233   3.282   8.006 -0.5152  0.2182  0.2450
  432MOL0     C56937   4.898   2.984   8.755  0.6364 -0.7658  0.2176
  432MOL0     C56938   4.807   3.070   8.822  0.3206  0.0541 -0.9403
  432MOL0     O56939   4.751   3.229   9.051  0.6679 -0.7337  0.3791
  432MOL0     C56940   4.548   3.315   9.235  0.8612 -0.0033  0.2177
  432MOL0     C56941   4.435   3.350   9.320 -0.0464 -0.1110  0.7333
  432MOL0     N56942   3.639   3.560   9.389 -0.4461 -0.6900 -0.1213
  432MOL0     N56943   3.657   3.688   9.423 -0.2063  0.5165  0.2968
  432MOL0     C56944   2.974   4.588  10.128 -0.2235  0.2992 -0.9336
  432MOL0     C56945   2.878   4.660  10.204 -1.3072  0.2764 -0.1163
  432MOL0     C56946   2.509   4.795  10.425  0.0082  0.0684  0.0755
  432MOL0     C56947   2.376   4.818  10.394  0.4590 -1.2845 -0.0284
  432MOL0     C56948   2.292   4.872  10.493  0.3889  0.0742  1.1421
  432MOL0     C56949   2.337   4.884  10.624 -0.6487 -0.0430 -0.0466
  432MOL0     O56950   2.248   4.936  10.716 -0.4747 -0.3686  0.1940
  432MOL0     C56951   2.121   4.993  10.688  0.2322 -0.4080 -0.4017
  432MOL0     C56952   2.034   4.966  10.809 -0.1699  0.8172 -0.8739
  432MOL0     C56953   2.098   4.984  10.948  0.6169 -0.3537  0.6867
  432MOL0     C56954   1.999   4.975  11.063  0.9128 -0.8123 -0.1042
  432MOL0     C56955   1.910   4.858  11.049  0.2990  0.6564 -0.4218
  432MOL0     C56956   1.828   4.767  11.024 -0.8188  0.0078 -0.2512
  432MOL0     C56957   2.468   4.853  10.655  0.4339  0.0262  0.5658
  432MOL0     C56958   2.561   4.812  10.558  0.7828  0.8609 -0.0218
  432MOL0     H56959   2.805   4.429  10.438  2.2354  0.7648  2.0443
  432MOL0     H56960   2.996   4.313  10.326  1.8653  1.8925  1.6488
  432MOL0     H56961   3.088   4.228  10.060 -0.7104  1.8078 -0.1387
  432MOL0     H56962   3.165   4.252  10.215 -2.2874  1.1395 -0.2594
  432MOL0     H56963   3.372   4.302  10.090  1.1287  1.1238 -3.0902
  432MOL0     H56964   3.290   4.296   9.935 -1.4529  2.8177  0.6742
  432MOL0     H56965   3.240   4.058   9.965 -0.0498  2.3661  0.7696
  432MOL0     H56966   3.324   4.070  10.124 -0.0401  0.6677 -0.9216
  432MOL0     H56967   3.450   4.156   9.859 -0.0280 -0.3997 -0.1249
  432MOL0     H56968   3.536   4.101   9.999  3.4083 -1.9860 -3.3358
  432MOL0     H56969   3.410   3.911   9.808  1.2455  2.2416 -3.0409
  432MOL0     H56970   3.465   3.858   9.967  2.3870 -1.2486 -0.0374
  432MOL0     H56971   3.685   3.898   9.906  0.7677  0.8745  0.2386
  432MOL0     H56972   3.632   4.019   9.766  0.7952  0.4937  0.4882
  432MOL0     H56973   3.622   3.719   9.788 -0.9547  1.0558  0.9879
  432MOL0     H56974   3.535   3.804   9.662  0.4390 -0.9776 -0.7216
  432MOL0     H56975   3.823   3.797   9.694  1.2233  1.3916 -2.0657
  432MOL0     H56976   3.742   3.900   9.583 -1.4762  1.4974  0.4855
  432MOL0     H56977   3.790   3.536   9.685  2.4687  0.3059 -0.2596
  432MOL0     H56978   3.620   3.295   9.423 -2.3382  1.9687  1.9547
  432MOL0     H56979   3.718   3.292   9.569  1.9614 -0.8637  0.5425
  432MOL0     H56980   3.819   3.287   9.283  0.9879 -1.5976 -0.1720
  432MOL0     H56981   3.824   3.172   9.412 -1.8223  0.4659  0.7386
  432MOL0     H56982   3.986   3.434   9.401 -3.1232 -0.1796 -0.3256
  432MOL0     H56983   3.961   3.349   9.555  1.1408 -0.4217  0.5319
  432MOL0     H56984   4.079   3.235   9.300  2.7048  1.2869 -0.2786
  432MOL0     H56985   4.085   3.152   9.461  0.5041 -1.0563 -0.2071
  432MOL0     H56986   4.237   3.086   9.263 -0.2151  0.8968  1.2567
  432MOL0     H56987   4.425   3.043   9.095  2.6031  2.0501 -1.8545
  432MOL0     H56988   4.571   2.841   8.890 -1.7202  3.3884 -0.1899
  432MOL0     H56989   4.706   2.689   8.747  0.9979 -1.3653  3.4561
  432MOL0     H56990   4.847   2.697   8.486 -1.0425  0.6409  1.4431
  432MOL0     H56991   4.884   2.591   8.630 -0.4234 -0.8809  0.1406
  432MOL0     H56992   5.038   2.537   8.435  2.9300  0.1207  0.6614
  432MOL0     H56993   5.120   2.613   8.558  0.8764  0.2988 -1.0786
  432MOL0     H56994   5.128   2.826   8.470 -0.9989  0.7697  0.5305
  432MOL0     H56995   5.018   2.772   8.331  2.5094 -0.5545 -0.5676
  432MOL0     H56996   5.295   2.654   8.402  0.1632  1.8208  1.1889
  432MOL0     H56997   5.195   2.644   8.250 -0.2212  2.3034 -0.7188
  432MOL0     H56998   5.425   2.785   8.249  0.0212  1.0748 -1.1453
  432MOL0     H56999   5.345   2.906   8.355  2.9439 -0.2518  0.0545
  432MOL0     H57000   5.149   2.888   8.181 -0.8882 -1.3993 -0.2213
  432MOL0     H57001   5.276   2.833   8.065 -1.2901 -0.3567  0.1590
  432MOL0     H57002   5.287   3.093   8.233 -1.2785 -0.5475 -0.3814
  432MOL0     H57003   5.411   3.033   8.118  0.0605 -1.5608 -2.4535
  432MOL0     H57004   5.113   3.097   8.082  0.4050 -2.4134  0.4098
  432MOL0     H57005   5.204   3.060   7.945 -3.7397 -1.4525  0.6472
  432MOL0     H57006   4.986   3.025   8.707  1.1172 -0.8259  1.0197
  432MOL0     H57007   4.841   3.173   8.822 -0.5380  0.3657 -2.5725
  432MOL0     H57008   4.638   3.372   9.253  0.3847  0.1313  2.4070
  432MOL0     H57009   4.462   3.426   9.392 -0.1501  0.2886  0.3587
  432MOL0     H57010   3.010   4.618  10.030 -1.6873 -0.9496 -1.8905
  432MOL0     H57011   2.859   4.763  10.177  1.7378  1.1398  0.6703
  432MOL0     H57012   2.317   4.804  10.304 -0.2333  0.9710  0.0105
  432MOL0     H57013   2.191   4.887  10.455 -0.6747 -1.2344  3.2913
  432MOL0     H57014   2.070   4.937  10.610 -0.7555 -0.1599  0.0534
  432MOL0     H57015   2.127   5.100  10.662  3.0781 -0.9234 -2.3845
  432MOL0     H57016   1.932   5.005  10.801 -0.7309  0.0685  1.8506
  432MOL0     H57017   2.025   4.857  10.801  0.0133  0.4002  2.9708
  432MOL0     H57018   2.139   5.085  10.960 -1.1705  0.8371 -2.1631
  432MOL0     H57019   2.182   4.916  10.965 -0.0851 -0.9373  1.9937
  432MOL0     H57020   2.039   4.985  11.164 -0.8735  0.8494  0.5089
  432MOL0     H57021   1.947   5.071  11.052 -2.9452 -2.9108 -2.5934
  432MOL0     H57022   1.760   4.687  11.002  0.6507 -1.0688 -1.0759
  432MOL0     H57023   2.496   4.846  10.760  1.4195 -1.0090  0.2543
  432MOL0     H57024   2.659   4.771  10.577 -0.5443 -2.5366  0.2094
  433MOL0     O57025   2.770   5.033   3.643 -1.1852 -0.5025  0.3925
  433MOL0     C57026   2.724   4.948   3.713  0.4111 -0.5792 -0.4776
  433MOL0     O57027   2.685   4.962   3.840 -0.1273  0.4557 -0.0423
  433MOL0     C57028   2.675   5.081   3.899 -0.3176 -0.6917 -0.1861
  433MOL0     C57029   2.551   5.146   3.908  0.4264  0.9132  0.4365
  433MOL0     C57030   2.528   5.267   3.967 -0.3380 -0.4306 -0.4547
  433MOL0     C57031   2.641   5.334   4.030  0.2055 -0.3120  0.4409
  433MOL0     O57032   2.614   5.452   4.093 -1.5592 -0.3691  0.1663
  433MOL0     C57033   2.544   5.437   4.223  0.3676 -0.1510 -0.2938
  433MOL0     C57034   2.558   5.571   4.304 -0.1990 -0.5025 -0.1491
  433MOL0     C57035   2.690   5.579   4.375  0.6905 -0.0388  0.6735
  433MOL0     C57036   2.714   5.722   4.419  0.1035  0.3919 -0.8034
  433MOL0     C57037   2.755   5.804   4.300 -0.0822  0.5268  0.0406
  433MOL0     C57038   2.806   5.939   4.341  0.3172  0.0475 -0.1582
  433MOL0     C57039   2.841   6.015   4.217 -0.3314  0.0496  1.4208
  433MOL0     C57040   2.991   5.997   4.172  0.3080 -0.2208  0.4563
  433MOL0     N57041   3.096   6.064   4.254 -0.1811  0.2605  0.5362
  433MOL0     C57042   3.143   6.022   4.378 -0.1428  0.5648  0.3010
  433MOL0     C57043   3.252   6.102   4.409  0.4057  0.2427  1.4728
  433MOL0     C57044   3.337   6.094   4.527  0.8354 -0.8576 -0.1327
  433MOL0     C57045   3.482   6.050   4.496  0.0142 -0.6375  1.1280
  433MOL0     C57046   3.563   6.066   4.629  0.1964  1.2267  0.1987
  433MOL0     C57047   3.685   6.158   4.627  0.8666 -0.5945  0.1805
  433MOL0     O57048   3.772   6.107   4.731  0.3223  0.1641 -0.3808
  433MOL0     C57049   3.903   6.142   4.722  0.5126  0.5667  0.9192
  433MOL0     C57050   3.952   6.256   4.660 -0.9259  0.4586 -0.2302
  433MOL0     C57051   4.088   6.301   4.675 -0.8898 -0.5029 -0.7385
  433MOL0     C57052   4.171   6.223   4.755 -0.7520 -0.0838  0.1695
  433MOL0     C57053   4.304   6.270   4.798 -0.4028  0.8907 -0.2271
  433MOL0     O57054   4.397   6.174   4.816 -0.1966 -0.6303 -0.0743
  433MOL0     C57055   4.520   6.212   4.859  0.1461 -0.0213 -0.2958
  433MOL0     C57056   4.565   6.174   4.987  0.1843 -0.5493 -0.3002
  433MOL0     C57057   4.695   6.201   5.028  0.0237  0.4185  1.0780
  433MOL0     C57058   4.782   6.262   4.940  0.9151 -0.0944 -0.2262
  433MOL0     O57059   4.900   6.291   4.997  0.1262 -0.4621 -0.5299
  433MOL0     C57060   5.009   6.348   4.932  1.0759  1.0133 -0.3058
  433MOL0     C57061   5.090   6.244   4.846  0.2590  0.3507  1.0631
  433MOL0     C57062   5.106   6.114   4.930 -0.2608  0.1887 -1.2060
  433MOL0     C57063   5.208   6.025   4.866  0.7001 -0.1696 -0.4937
  433MOL0     C57064   5.262   5.924   4.969 -0.5745  0.0689  0.8755
  433MOL0     C57065   5.342   5.816   4.889 -0.4699  0.1039  0.8687
  433MOL0     C57066   5.451   5.853   4.785  0.3882 -0.2206 -0.6450
  433MOL0     C57067   5.415   5.846   4.637 -1.1376 -0.6229 -0.0813
  433MOL0    Cl57068   5.578   5.895   4.557  0.4054 -0.2079 -0.5119
  433MOL0     C57069   4.746   6.301   4.811 -0.4431  0.0818 -0.3946
  433MOL0     C57070   4.614   6.267   4.771 -0.4523  0.2169  0.2088
  433MOL0     O57071   4.337   6.388   4.790 -0.4545 -1.1136 -0.2570
  433MOL0     C57072   4.115   6.105   4.809  0.4947  0.6114 -0.0027
  433MOL0     C57073   3.989   6.065   4.788 -0.2416 -0.8685 -0.1444
  433MOL0     N57074   3.260   6.189   4.296 -0.3903  0.5951 -0.5482
  433MOL0     N57075   3.164   6.174   4.209  0.0977  0.0592 -0.2884
  433MOL0     C57076   2.764   5.280   4.009 -0.1754 -0.6784  0.7480
  433MOL0     C57077   2.787   5.155   3.941 -0.4735 -0.9443 -0.2094
  433MOL0     C57078   2.708   4.815   3.658  0.5193 -0.3387  0.6892
  433MOL0     C57079   2.656   4.703   3.727 -0.1294 -0.0734  0.2092
  433MOL0     C57080   2.635   4.578   3.658  0.3127 -0.8182 -0.1137
  433MOL0     C57081   2.685   4.554   3.532  0.0855 -0.4607  0.8525
  433MOL0     O57082   2.644   4.448   3.459 -0.2594  0.6630 -0.3699
  433MOL0     C57083   2.757   4.382   3.400 -0.0454 -0.3476 -0.2812
  433MOL0     C57084   2.714   4.331   3.261 -0.6392 -0.0391 -1.5509
  433MOL0     C57085   2.797   4.214   3.218 -0.8452  0.8552  0.2266
  433MOL0     C57086   2.777   4.184   3.070 -0.3980 -0.0208  0.3561
  433MOL0     C57087   2.878   4.085   3.037 -0.0698  0.1410 -0.3657
  433MOL0     C57088   2.958   4.004   3.001 -0.4503  0.4792 -0.3189
  433MOL0     C57089   2.715   4.662   3.463 -0.0002 -0.1050 -0.4073
  433MOL0     C57090   2.725   4.790   3.516 -0.1382  0.3378  0.3984
  433MOL0     H57091   2.472   5.096   3.853 -1.1966  1.2002  2.3967
  433MOL0     H57092   2.428   5.307   3.961  0.4832  1.6082 -1.7675
  433MOL0     H57093   2.580   5.356   4.287  1.3851  2.0058  2.0213
  433MOL0     H57094   2.438   5.423   4.196 -0.3993  2.9180  0.7267
  433MOL0     H57095   2.486   5.576   4.387 -1.0944  1.0898 -0.9830
  433MOL0     H57096   2.540   5.658   4.240  1.5024  0.9701  1.2731
  433MOL0     H57097   2.768   5.545   4.306 -1.5630 -2.3313 -0.9021
  433MOL0     H57098   2.703   5.517   4.464  1.2971 -0.9645 -0.0408
  433MOL0     H57099   2.618   5.763   4.453 -0.5779 -0.0097 -2.1847
  433MOL0     H57100   2.788   5.733   4.499 -1.2802  0.9310  0.4658
  433MOL0     H57101   2.676   5.806   4.225 -1.6797  0.7872  1.6853
  433MOL0     H57102   2.836   5.752   4.248  1.1082  0.7183  1.6382
  433MOL0     H57103   2.892   5.924   4.408  1.1709  0.9127 -1.0319
  433MOL0     H57104   2.720   5.982   4.393  0.7099  0.8495 -0.1655
  433MOL0     H57105   2.784   5.994   4.126  3.2229  0.4206 -1.1042
  433MOL0     H57106   2.841   6.123   4.234  4.1533  0.4172  0.3776
  433MOL0     H57107   3.002   6.050   4.077  1.3705 -1.9027 -0.4152
  433MOL0     H57108   3.012   5.891   4.153 -0.9023 -0.3950  0.0128
  433MOL0     H57109   3.092   5.948   4.438  0.2723 -1.5106 -1.7864
  433MOL0     H57110   3.287   6.030   4.601  1.7291 -0.3811  0.9069
  433MOL0     H57111   3.337   6.201   4.550  0.4579 -0.9341  0.2345
  433MOL0     H57112   3.519   6.125   4.426 -1.9974  0.7135  1.3902
  433MOL0     H57113   3.492   5.948   4.459 -0.9757  0.3378 -2.2222
  433MOL0     H57114   3.495   6.105   4.706  1.3817 -0.0223  1.9643
  433MOL0     H57115   3.599   5.970   4.668 -1.0054  1.0399  0.9033
  433MOL0     H57116   3.654   6.258   4.658  2.0018 -0.3162  0.4472
  433MOL0     H57117   3.733   6.155   4.529  0.8322 -0.6615  0.1653
  433MOL0     H57118   3.876   6.313   4.608 -3.0228 -0.8648  1.2736
  433MOL0     H57119   4.122   6.398   4.639 -1.7784 -0.6308 -1.9845
  433MOL0     H57120   4.506   6.121   5.061 -2.7142  1.8353 -0.7087
  433MOL0     H57121   4.737   6.175   5.125  2.3115  1.0330  0.3172
  433MOL0     H57122   5.084   6.374   5.007  2.7254 -1.9299 -0.7642
  433MOL0     H57123   4.975   6.437   4.878 -2.2065 -0.2182 -0.5259
  433MOL0     H57124   5.186   6.282   4.811  0.1017 -1.8649 -2.1700
  433MOL0     H57125   5.036   6.224   4.753  2.2104  1.3623 -0.3663
  433MOL0     H57126   5.010   6.061   4.931  0.5239 -1.3964  1.5856
  433MOL0     H57127   5.142   6.133   5.032 -0.9842  0.1559 -0.9380
  433MOL0     H57128   5.167   5.970   4.780 -2.4995  0.5377  0.4260
  433MOL0     H57129   5.288   6.094   4.840  2.1062  0.1361  3.8518
  433MOL0     H57130   5.172   5.871   5.002  1.1512 -0.6258  5.0534
  433MOL0     H57131   5.316   5.964   5.055 -0.5663 -2.5781  2.1960
  433MOL0     H57132   5.278   5.748   4.832 -0.7930 -0.6112  2.0386
  433MOL0     H57133   5.377   5.753   4.972 -2.7410  0.3312  2.0792
  433MOL0     H57134   5.498   5.948   4.812  0.1461 -0.3378  0.2220
  433MOL0     H57135   5.517   5.767   4.802 -0.4709 -1.1748 -1.9743
  433MOL0     H57136   5.334   5.908   4.598  1.1931  1.1805 -2.4143
  433MOL0     H57137   5.404   5.743   4.602  0.0114 -0.1328 -2.0845
  433MOL0     H57138   4.819   6.338   4.740 -0.9116  0.0878 -0.8800
  433MOL0     H57139   4.579   6.272   4.668  3.4016 -1.6011 -1.4140
  433MOL0     H57140   4.164   6.046   4.886 -0.6752 -1.3553 -0.6869
  433MOL0     H57141   3.967   5.976   4.846  2.1857 -0.9918  0.7087
  433MOL0     H57142   2.849   5.339   4.042  0.4355  0.1412 -2.0353
  433MOL0     H57143   2.884   5.108   3.930 -0.7969 -1.2507 -2.2587
  433MOL0     H57144   2.622   4.708   3.830  0.0719  0.3440  0.2560
  433MOL0     H57145   2.593   4.501   3.722 -2.2753  1.4311  1.1383
  433MOL0     H57146   2.797   4.300   3.460 -1.1147 -0.3824  0.4155
  433MOL0     H57147   2.852   4.434   3.386 -0.1852  0.0393  0.1805
  433MOL0     H57148   2.611   4.294   3.268 -1.0270  1.0358 -1.4100
  433MOL0     H57149   2.729   4.412   3.190  1.0815  2.5290  1.5050
  433MOL0     H57150   2.777   4.131   3.287  1.3209 -0.8048 -1.0148
  433MOL0     H57151   2.903   4.233   3.237 -0.3387 -0.8460 -0.6707
  433MOL0     H57152   2.672   4.168   3.044 -0.5521  2.5665 -0.9644
  433MOL0     H57153   2.811   4.275   3.020  1.6479 -0.8029  0.2200
  433MOL0     H57154   3.024   3.921   2.984 -0.3232  0.8317 -1.6433
  433MOL0     H57155   2.730   4.658   3.355 -3.2509 -0.0935 -0.9608
  433MOL0     H57156   2.728   4.871   3.445  1.7723 -1.6866 -2.0281
  434MOL0     O57157   4.001   1.318   7.235  0.0979  0.7400 -0.0713
  434MOL0     C57158   3.891   1.289   7.191 -0.9522  0.1870  0.9462
  434MOL0     O57159   3.788   1.368   7.170  0.1750  0.0708  0.1848
  434MOL0     C57160   3.780   1.485   7.242  0.4557  0.2748  0.1025
  434MOL0     C57161   3.717   1.589   7.175 -0.0086 -0.3589 -0.4672
  434MOL0     C57162   3.714   1.716   7.244 -0.8455  0.2775  0.5134
  434MOL0     C57163   3.752   1.731   7.384  0.5609 -0.3225  0.1354
  434MOL0     O57164   3.738   1.855   7.440 -0.0384  0.1983  0.1051
  434MOL0     C57165   3.852   1.905   7.496  0.4266  0.1401  0.4591
  434MOL0     C57166   3.849   2.057   7.454 -0.8964  0.8285 -0.9418
  434MOL0     C57167   3.983   2.116   7.478 -0.9475 -0.7702  0.0010
  434MOL0     C57168   3.988   2.263   7.442 -0.0693 -0.0862 -0.0081
  434MOL0     C57169   3.940   2.342   7.565  0.4827 -0.1151 -0.4134
  434MOL0     C57170   3.951   2.496   7.550 -0.4701 -0.3343  0.6275
  434MOL0     C57171   3.879   2.565   7.669 -0.1106 -0.1568 -0.2140
  434MOL0     C57172   3.913   2.717   7.676 -0.1218 -0.3754 -0.4631
  434MOL0     N57173   4.040   2.747   7.749 -0.7161  0.1207  0.2446
  434MOL0     C57174   4.066   2.767   7.881  0.5716 -0.1169  0.8173
  434MOL0     C57175   4.196   2.787   7.894 -0.1045 -0.3066 -0.5530
  434MOL0     C57176   4.258   2.838   8.024 -0.5855 -0.2934 -0.2120
  434MOL0     C57177   4.206   2.764   8.147  0.0994  0.3601 -0.1713
  434MOL0     C57178   4.276   2.803   8.277  0.3784 -0.0258  0.6368
  434MOL0     C57179   4.249   2.940   8.317 -0.2255 -0.0290  0.1801
  434MOL0     O57180   4.331   3.045   8.257  0.3866 -0.1751 -0.7069
  434MOL0     C57181   4.323   3.172   8.317 -0.4813 -0.0584  0.6839
  434MOL0     C57182   4.204   3.209   8.384  0.2653  0.2400  0.6634
  434MOL0     C57183   4.193   3.332   8.442 -0.6492 -0.0171 -0.1880
  434MOL0     C57184   4.300   3.426   8.436  0.3366  0.1468 -0.3164
  434MOL0     C57185   4.296   3.560   8.500 -0.2122 -0.2681 -0.3625
  434MOL0     O57186   4.405   3.638   8.482 -0.7306 -0.1077 -0.3451
  434MOL0     C57187   4.425   3.760   8.545 -0.0575 -0.9174  1.0995
  434MOL0     C57188   4.329   3.855   8.577  0.5622  0.0650 -0.1854
  434MOL0     C57189   4.359   3.983   8.630  0.2179 -0.2438  0.6255
  434MOL0     C57190   4.486   3.998   8.678 -0.8176  0.1853  0.9899
  434MOL0     O57191   4.511   4.115   8.753 -0.2363  0.9919 -0.6467
  434MOL0     C57192   4.645   4.141   8.798 -0.1428  0.1663 -0.6241
  434MOL0     C57193   4.721   4.241   8.717 -1.0117 -0.3603 -0.3127
  434MOL0     C57194   4.726   4.384   8.772  0.1451 -0.2551  0.0403
  434MOL0     C57195   4.797   4.397   8.910 -0.4868  0.6149 -0.2065
  434MOL0     C57196   4.862   4.532   8.923 -0.8985 -0.1371  0.6162
  434MOL0     C57197   4.768   4.650   8.932 -0.0827  0.3927 -0.2846
  434MOL0     C57198   4.826   4.794   8.942 -0.3084 -0.1784 -0.4362
  434MOL0     C57199   4.717   4.900   8.945 -0.0792 -0.5121 -1.0100
  434MOL0    Cl57200   4.796   5.061   8.943 -1.0847 -0.3360 -0.4635
  434MOL0     C57201   4.592   3.911   8.632  0.2477 -1.0387  0.6219
  434MOL0     C57202   4.563   3.792   8.569 -0.2854 -0.5246  0.0615
  434MOL0     O57203   4.219   3.565   8.587  0.7978 -0.2597 -0.4576
  434MOL0     C57204   4.414   3.394   8.363  0.7181  0.7705 -0.4987
  434MOL0     C57205   4.424   3.263   8.314 -0.9390  0.1149 -0.9855
  434MOL0     N57206   4.243   2.787   7.769 -1.2659  0.2592 -0.0813
  434MOL0     N57207   4.159   2.760   7.682 -0.6402 -1.0746 -0.4701
  434MOL0     C57208   3.813   1.624   7.451  0.8173 -0.2261 -0.5553
  434MOL0     C57209   3.829   1.502   7.374 -0.5437  0.1302 -0.5601
  434MOL0     C57210   3.859   1.149   7.153  0.1100  0.0354  0.3983
  434MOL0     C57211   3.728   1.092   7.181  0.7080 -0.9690 -0.4191
  434MOL0     C57212   3.686   0.971   7.148 -0.3424 -0.2796  0.1510
  434MOL0     C57213   3.764   0.896   7.063  0.4040  1.0763  0.6796
  434MOL0     O57214   3.707   0.776   7.029  0.1298  0.7022  0.3747
  434MOL0     C57215   3.723   0.708   6.905  0.2656  0.2326  0.5994
  434MOL0     C57216   3.753   0.555   6.930 -1.0504 -0.7478 -0.5953
  434MOL0     C57217   3.897   0.539   6.999 -0.3454 -0.8328  0.3342
  434MOL0     C57218   3.947   0.388   6.991  0.2519  0.3174 -0.5966
  434MOL0     C57219   3.998   0.348   6.856  0.8812 -0.4174 -0.3641
  434MOL0     C57220   4.032   0.294   6.754  0.6459 -0.1548 -0.4183
  434MOL0     C57221   3.896   0.934   7.034 -0.4899  0.0716  0.0869
  434MOL0     C57222   3.941   1.067   7.073 -0.1989  0.6173 -0.3182
  434MOL0     H57223   3.682   1.568   7.075 -0.0200  1.8105 -0.9839
  434MOL0     H57224   3.684   1.807   7.194  0.8817 -0.3484 -1.8114
  434MOL0     H57225   3.931   1.851   7.442 -0.0775  0.4473 -0.6105
  434MOL0     H57226   3.858   1.891   7.604 -0.5684 -3.2537  0.1766
  434MOL0     H57227   3.768   2.104   7.511 -0.2538  0.1194  0.5865
  434MOL0     H57228   3.826   2.049   7.347 -1.3769 -0.9021 -0.7346
  434MOL0     H57229   4.049   2.069   7.405 -3.2259 -3.2848 -0.5742
  434MOL0     H57230   4.023   2.105   7.580  1.4494  3.0026 -0.3159
  434MOL0     H57231   4.091   2.290   7.416 -0.7014  4.5864  1.3855
  434MOL0     H57232   3.925   2.290   7.357 -1.1851  2.3264  1.4577
  434MOL0     H57233   3.990   2.317   7.659 -2.9744 -0.9822  1.3609
  434MOL0     H57234   3.838   2.307   7.581  0.7868 -0.9210 -0.2094
  434MOL0     H57235   3.900   2.537   7.463 -0.6862 -1.6309  0.1165
  434MOL0     H57236   4.055   2.528   7.543 -0.1660 -1.1562  1.1925
  434MOL0     H57237   3.772   2.546   7.656 -0.4544  1.9416 -0.8273
  434MOL0     H57238   3.914   2.516   7.760 -1.9489  1.2023  1.3081
  434MOL0     H57239   3.848   2.777   7.741  2.3656  0.6535  1.2332
  434MOL0     H57240   3.916   2.759   7.575  0.5343  2.7081  0.7132
  434MOL0     H57241   3.986   2.775   7.954 -0.3856 -0.8072 -0.1317
  434MOL0     H57242   4.221   2.941   8.029 -0.0866  0.0249 -2.2168
  434MOL0     H57243   4.367   2.842   8.012 -0.3656 -0.8284  1.3675
  434MOL0     H57244   4.216   2.657   8.126 -0.3175 -0.1745  2.0996
  434MOL0     H57245   4.101   2.786   8.168 -0.5644 -1.4055 -1.4164
  434MOL0     H57246   4.241   2.737   8.357  0.4339 -0.1203  0.5817
  434MOL0     H57247   4.381   2.802   8.247 -0.1947 -2.2114 -1.6065
  434MOL0     H57248   4.258   2.944   8.426  1.3423 -1.2325  0.1162
  434MOL0     H57249   4.146   2.961   8.286 -0.4603 -1.7205 -0.2685
  434MOL0     H57250   4.120   3.141   8.390 -0.2572  0.9039  0.9648
  434MOL0     H57251   4.102   3.357   8.496 -0.8485  1.8884 -1.2871
  434MOL0     H57252   4.225   3.834   8.555 -0.4847  1.8691  2.4688
  434MOL0     H57253   4.284   4.060   8.647  0.9323  0.6479 -0.1626
  434MOL0     H57254   4.703   4.053   8.827 -0.7322  0.2710  0.9825
  434MOL0     H57255   4.637   4.192   8.894 -0.2228 -1.2114  0.1262
  434MOL0     H57256   4.677   4.245   8.617  0.9756  1.0668 -1.1896
  434MOL0     H57257   4.826   4.215   8.703 -1.1494 -0.9443 -0.2715
  434MOL0     H57258   4.624   4.424   8.775  0.4129  0.8062 -2.7648
  434MOL0     H57259   4.786   4.446   8.706 -2.6072  0.6154 -1.7783
  434MOL0     H57260   4.717   4.379   8.983 -2.2012  2.4909 -1.4962
  434MOL0     H57261   4.885   4.334   8.924 -0.5215  0.8883  1.3681
  434MOL0     H57262   4.926   4.554   8.837  0.1387  0.3603  1.4872
  434MOL0     H57263   4.930   4.537   9.009  0.1852  1.8470 -0.2861
  434MOL0     H57264   4.717   4.637   9.027  0.8608  0.6831  0.2719
  434MOL0     H57265   4.697   4.641   8.849 -0.3349 -0.4564  0.0205
  434MOL0     H57266   4.876   4.776   9.038 -2.6488 -2.4989  0.4854
  434MOL0     H57267   4.900   4.821   8.867 -0.1898  0.9072  0.0584
  434MOL0     H57268   4.655   4.898   9.035 -0.4840 -0.7080 -1.2898
  434MOL0     H57269   4.649   4.891   8.859  1.0343 -3.2591 -1.7021
  434MOL0     H57270   4.694   3.944   8.651 -0.8112  0.4625  4.5756
  434MOL0     H57271   4.637   3.717   8.542 -2.1412 -2.8464  1.1342
  434MOL0     H57272   4.498   3.462   8.357  0.4571  1.1476  0.0127
  434MOL0     H57273   4.518   3.236   8.267 -1.1016 -0.2144 -1.1214
  434MOL0     H57274   3.846   1.635   7.554  1.0172 -0.2899 -0.6119
  434MOL0     H57275   3.868   1.423   7.437 -2.8825 -0.2861  0.4680
  434MOL0     H57276   3.659   1.146   7.246  3.3358  4.3103 -1.4698
  434MOL0     H57277   3.587   0.934   7.175 -0.1185 -1.2437 -0.3140
  434MOL0     H57278   3.796   0.761   6.843 -3.9666  3.4463 -2.2357
  434MOL0     H57279   3.632   0.699   6.844  0.2487 -3.3443  0.9857
  434MOL0     H57280   3.671   0.513   6.990 -0.7422 -1.8243 -0.8974
  434MOL0     H57281   3.744   0.506   6.833 -2.4160 -0.9194 -0.4030
  434MOL0     H57282   3.901   0.572   7.103 -1.3584 -2.0232  0.7768
  434MOL0     H57283   3.970   0.593   6.938 -0.2132 -1.2652  0.1054
  434MOL0     H57284   4.028   0.371   7.062 -1.5306 -0.9064  1.2426
  434MOL0     H57285   3.856   0.329   7.006  0.5885 -0.4341 -1.3987
  434MOL0     H57286   4.057   0.253   6.658 -2.0235  1.9346 -2.1506
  434MOL0     H57287   3.959   0.875   6.968  0.3108 -0.6962  1.4875
  434MOL0     H57288   4.040   1.089   7.032 -0.2112 -1.0626 -1.3389
  435MOL0     O57289   5.772   4.112  10.896  0.3165  0.5153  0.4150
  435MOL0     C57290   5.721   4.067  11.005  0.2325 -0.5608 -0.4542
  435MOL0     O57291   5.705   4.143  11.115  0.1021 -0.1136 -0.2937
  435MOL0     C57292   5.590   4.125  11.196 -0.2125 -0.7744 -0.5589
  435MOL0     C57293   5.620   4.142  11.329  0.4018  0.7038 -0.0809
  435MOL0     C57294   5.522   4.137  11.424  0.7974 -0.1342  0.2050
  435MOL0     C57295   5.393   4.096  11.379 -0.1154  0.4821 -0.4161
  435MOL0     O57296   5.282   4.064  11.459  0.6512 -0.0115 -0.2500
  435MOL0     C57297   5.296   4.063  11.598  0.3068 -0.2272  0.0931
  435MOL0     C57298   5.168   4.034  11.672  0.0535  0.1085  0.0157
  435MOL0     C57299   5.058   4.126  11.619  0.0104  0.1241  0.3384
  435MOL0     C57300   4.920   4.091  11.680 -0.0228  0.1164  0.0752
  435MOL0     C57301   4.810   4.182  11.626 -0.3340 -0.4588  0.4933
  435MOL0     C57302   4.670   4.129  11.680 -0.5043 -0.2749 -0.5285
  435MOL0     C57303   4.648   3.991  11.619  1.7346  0.4466 -0.5867
  435MOL0     C57304   4.491   3.962  11.638  0.3223 -0.5642 -0.0641
  435MOL0     N57305   4.467   3.823  11.586  0.5031 -0.6199 -0.3410
  435MOL0     C57306   4.396   3.795  11.474  0.6545 -1.1101  0.3202
  435MOL0     C57307   4.372   3.663  11.476  0.2165  0.6377  0.3411
  435MOL0     C57308   4.320   3.582  11.356 -0.1389  0.7117  0.0395
  435MOL0     C57309   4.437   3.550  11.262 -0.4496  0.7851 -1.3064
  435MOL0     C57310   4.393   3.475  11.139  0.5158  0.5703  0.0325
  435MOL0     C57311   4.297   3.561  11.049 -0.1252 -0.0074  0.3201
  435MOL0     O57312   4.350   3.695  11.018 -0.1566 -0.5134 -0.8486
  435MOL0     C57313   4.410   3.720  10.898  0.1881  0.3063  0.4616
  435MOL0     C57314   4.480   3.616  10.829 -0.5998 -0.3905  0.6732
  435MOL0     C57315   4.545   3.652  10.716 -0.1117 -0.7515 -0.5474
  435MOL0     C57316   4.551   3.793  10.666  0.5962 -0.0471  0.3286
  435MOL0     C57317   4.645   3.835  10.557  0.2589  0.3439 -0.3045
  435MOL0     O57318   4.634   3.964  10.523  0.2747  0.1602 -0.6050
  435MOL0     C57319   4.711   4.012  10.423  0.3283  0.0370  0.0633
  435MOL0     C57320   4.810   4.105  10.454  0.1505 -0.1057 -0.2401
  435MOL0     C57321   4.923   4.127  10.373 -0.1358 -0.2141  0.4604
  435MOL0     C57322   4.916   4.089  10.231 -0.2915 -0.3345  0.2528
  435MOL0     O57323   5.008   4.112  10.121  1.3480  0.3032  0.2492
  435MOL0     C57324   5.138   4.168  10.156 -0.0805  0.4711  0.5270
  435MOL0     C57325   5.234   4.201  10.037  1.0439 -0.1882 -0.4317
  435MOL0     C57326   5.172   4.306   9.939  0.0708  0.6465 -0.3581
  435MOL0     C57327   5.262   4.345   9.827  0.4527 -0.3351 -0.6932
  435MOL0     C57328   5.199   4.460   9.751  0.8974 -0.2518 -0.4872
  435MOL0     C57329   5.270   4.483   9.627  0.0869 -0.1933  0.1316
  435MOL0     C57330   5.231   4.609   9.555 -0.5167 -0.5073  1.0746
  435MOL0     C57331   5.302   4.732   9.599 -0.0985 -0.5299  0.7288
  435MOL0    Cl57332   5.475   4.729   9.549 -0.1493 -0.4754 -0.5776
  435MOL0     C57333   4.810   4.002  10.194  0.1255 -0.4116 -0.3711
  435MOL0     C57334   4.720   3.961  10.296  0.1308 -1.0192  0.5862
  435MOL0     O57335   4.722   3.750  10.507  0.3282  0.8327 -0.2818
  435MOL0     C57336   4.463   3.884  10.722 -0.2749 -0.7339 -0.9993
  435MOL0     C57337   4.394   3.843  10.839  0.0065 -0.5420 -0.2504
  435MOL0     N57338   4.419   3.618  11.596 -0.7834  0.4022 -0.4302
  435MOL0     N57339   4.474   3.713  11.662 -0.2237 -0.5740  0.0433
  435MOL0     C57340   5.363   4.085  11.244 -0.0980 -0.4796  0.0008
  435MOL0     C57341   5.464   4.105  11.148 -0.0078  0.3398  1.3752
  435MOL0     C57342   5.683   3.926  11.011  0.1085  0.2068 -0.0043
  435MOL0     C57343   5.638   3.870  10.895 -0.3002  0.1211 -0.0428
  435MOL0     C57344   5.613   3.730  10.897  0.3086 -0.3920 -0.3001
  435MOL0     C57345   5.631   3.660  11.020 -0.3399 -0.3519 -0.3035
  435MOL0     O57346   5.596   3.527  11.050  0.3756 -0.0613  0.5648
  435MOL0     C57347   5.541   3.460  10.940  0.3366 -0.7791  0.8472
  435MOL0     C57348   5.494   3.324  10.984  0.6431  0.7246  0.1904
  435MOL0     C57349   5.424   3.264  10.861 -0.1045  0.4375  0.3634
  435MOL0     C57350   5.332   3.158  10.891 -0.3067  0.2943  0.1400
  435MOL0     C57351   5.212   3.201  10.961 -0.1075 -0.1538  1.1015
  435MOL0     C57352   5.109   3.224  11.024 -0.0692 -0.3469 -0.1237
  435MOL0     C57353   5.683   3.715  11.129  0.0343 -0.0490  0.0766
  435MOL0     C57354   5.703   3.853  11.127 -0.5471  0.2697  0.0130
  435MOL0     H57355   5.718   4.177  11.358  1.2112 -1.3676 -0.1676
  435MOL0     H57356   5.568   4.147  11.521  2.1321  1.6283 -0.5554
  435MOL0     H57357   5.335   4.160  11.631 -2.2137  0.9319 -0.0294
  435MOL0     H57358   5.372   3.995  11.636 -0.8229 -1.4410  0.2340
  435MOL0     H57359   5.186   4.034  11.780 -1.9745 -2.4127  0.4637
  435MOL0     H57360   5.146   3.927  11.658  2.2931 -0.6020  1.3878
  435MOL0     H57361   5.049   4.116  11.511  0.5805  4.3320 -0.2368
  435MOL0     H57362   5.084   4.230  11.639 -0.6905  0.2485  0.6299
  435MOL0     H57363   4.899   3.984  11.670  1.6229 -0.2247 -0.0955
  435MOL0     H57364   4.923   4.108  11.788  1.2767 -3.6251  0.7981
  435MOL0     H57365   4.807   4.182  11.517 -4.4853 -1.4892  0.4559
  435MOL0     H57366   4.826   4.281  11.671  0.1561 -1.5996  3.0406
  435MOL0     H57367   4.599   4.206  11.649  1.7696  1.8352 -0.7289
  435MOL0     H57368   4.671   4.142  11.789  1.0088 -0.4483 -0.5042
  435MOL0     H57369   4.665   3.997  11.511 -3.7242  2.5517 -1.6401
  435MOL0     H57370   4.708   3.912  11.666  1.2791  0.5047  0.1172
  435MOL0     H57371   4.433   4.034  11.579  0.7519 -1.4758 -1.6620
  435MOL0     H57372   4.463   3.967  11.744  0.5279  2.0299 -0.0488
  435MOL0     H57373   4.369   3.866  11.396 -1.2757 -0.1686  1.7589
  435MOL0     H57374   4.247   3.646  11.304  1.8087  4.0629  1.1542
  435MOL0     H57375   4.282   3.492  11.404 -0.8717  0.8050 -0.3348
  435MOL0     H57376   4.502   3.485  11.321  0.1006  4.1893  2.2805
  435MOL0     H57377   4.494   3.636  11.228  2.1213 -0.8671 -1.4854
  435MOL0     H57378   4.483   3.441  11.086  1.1009  2.6413 -0.3933
  435MOL0     H57379   4.333   3.388  11.167  0.7601  1.2859  3.1518
  435MOL0     H57380   4.205   3.555  11.108  0.9413  2.5220  2.4877
  435MOL0     H57381   4.272   3.511  10.955 -0.0313  1.1635 -0.3561
  435MOL0     H57382   4.489   3.513  10.863 -1.9086 -1.4326 -1.9084
  435MOL0     H57383   4.599   3.572  10.665  1.6488 -0.0513  0.1559
  435MOL0     H57384   4.818   4.151  10.552  0.8990  1.7664 -1.1305
  435MOL0     H57385   4.998   4.194  10.415 -1.7420  2.3062 -0.4936
  435MOL0     H57386   5.193   4.095  10.215 -0.8950 -2.0730 -1.6816
  435MOL0     H57387   5.124   4.257  10.218  2.3578  1.5266 -0.2976
  435MOL0     H57388   5.254   4.106   9.987 -2.6182 -1.6593  0.5473
  435MOL0     H57389   5.327   4.244  10.076  0.5476 -0.5346  1.2368
  435MOL0     H57390   5.145   4.395   9.997  0.2922  1.2182 -1.1233
  435MOL0     H57391   5.079   4.263   9.900 -0.0364  3.2385 -3.3682
  435MOL0     H57392   5.353   4.386   9.873 -1.6288 -1.2882  5.0166
  435MOL0     H57393   5.285   4.258   9.765  0.2816 -0.4490 -0.5962
  435MOL0     H57394   5.209   4.551   9.812  0.1045 -2.5292  3.3604
  435MOL0     H57395   5.092   4.446   9.733  1.1867 -0.4067 -2.2253
  435MOL0     H57396   5.257   4.396   9.563  0.6519 -0.5520  0.4955
  435MOL0     H57397   5.376   4.481   9.654 -0.4200 -0.5111  2.2833
  435MOL0     H57398   5.247   4.600   9.447 -2.0533  3.1742  0.3739
  435MOL0     H57399   5.124   4.632   9.564  0.1603  4.3799 -0.3296
  435MOL0     H57400   5.293   4.751   9.706 -2.1642  1.6481  0.2424
  435MOL0     H57401   5.257   4.818   9.551  2.9149  1.0131  0.4032
  435MOL0     H57402   4.812   3.966  10.091 -1.5684  0.7172 -0.8337
  435MOL0     H57403   4.647   3.884  10.271  1.0294 -1.3651 -1.0731
  435MOL0     H57404   4.449   3.987  10.691 -3.1095 -0.5530  0.4639
  435MOL0     H57405   4.333   3.908  10.902 -1.4763 -3.5076  1.5979
  435MOL0     H57406   5.260   4.076  11.211 -0.8447  1.7559  1.4783
  435MOL0     H57407   5.442   4.090  11.043 -2.5870 -0.0869  1.9109
  435MOL0     H57408   5.623   3.936  10.810  0.3038  3.3590  2.1696
  435MOL0     H57409   5.573   3.690  10.804 -0.8081  0.3306 -0.1486
  435MOL0     H57410   5.622   3.452  10.867  0.0982  1.3537  0.2729
  435MOL0     H57411   5.450   3.511  10.906  0.0942 -0.5560  1.7952
  435MOL0     H57412   5.578   3.261  11.014 -1.9253 -1.2119  4.1845
  435MOL0     H57413   5.434   3.341  11.074  0.2254  2.7248 -0.4089
  435MOL0     H57414   5.501   3.228  10.792 -1.2567 -2.6965  0.5693
  435MOL0     H57415   5.372   3.340  10.801  2.0692 -0.5834 -3.1473
  435MOL0     H57416   5.291   3.114  10.800 -0.5165 -1.1026  0.8725
  435MOL0     H57417   5.384   3.084  10.953  0.4851  2.3778  2.1181
  435MOL0     H57418   5.018   3.241  11.079 -0.6420  3.0446 -1.8473
  435MOL0     H57419   5.707   3.645  11.208 -1.7794  0.1582  0.8651
  435MOL0     H57420   5.751   3.891  11.217  3.1493 -3.3727 -0.0886
  436MOL0     O57421   3.242   8.433   8.771  0.1942  0.1350  0.2238
  436MOL0     C57422   3.213   8.371   8.673  1.3933  0.3475 -0.0848
  436MOL0     O57423   3.229   8.414   8.545  0.4663  0.2940  0.6126
  436MOL0     C57424   3.218   8.551   8.527 -0.1377  1.2355 -0.0692
  436MOL0     C57425   3.324   8.651   8.537  0.2892  1.3700  0.7650
  436MOL0     C57426   3.298   8.790   8.543  0.1159  0.4241 -0.5024
  436MOL0     C57427   3.171   8.831   8.502  0.1319 -0.2389 -0.5221
  436MOL0     O57428   3.154   8.967   8.485  0.6346 -0.2400 -0.3063
  436MOL0     C57429   3.027   9.034   8.482 -0.1594 -0.5460 -0.4146
  436MOL0     C57430   3.034   9.185   8.499  0.5529  0.5837  0.7408
  436MOL0     C57431   3.102   9.247   8.626 -0.4555 -0.0686  1.0152
  436MOL0     C57432   3.050   9.202   8.756  0.2963 -0.0456 -0.0473
  436MOL0     C57433   2.902   9.228   8.777 -0.0037 -0.8374 -0.3437
  436MOL0     C57434   2.865   9.140   8.898 -0.9699  0.4990  0.3538
  436MOL0     C57435   2.938   9.144   9.037 -0.5995 -0.7078 -0.2408
  436MOL0     C57436   2.865   9.069   9.145 -0.1588  0.9094 -0.5786
  436MOL0     N57437   2.923   9.080   9.283 -0.1098 -0.0741 -0.1905
  436MOL0     C57438   3.037   9.020   9.321  0.0292  0.1668 -1.0024
  436MOL0     C57439   3.039   9.047   9.451  0.0338 -0.8765  0.1461
  436MOL0     C57440   3.148   9.000   9.538  0.4065  0.1085  1.0914
  436MOL0     C57441   3.128   9.023   9.686  0.1164  0.2442  0.8214
  436MOL0     C57442   3.013   8.938   9.731 -0.0955  0.3431 -0.1162
  436MOL0     C57443   3.021   8.944   9.882  0.5117 -1.1211 -0.4964
  436MOL0     O57444   2.920   8.867   9.939 -0.3783  0.5771 -0.7128
  436MOL0     C57445   2.924   8.733   9.913 -0.9749  0.0336  0.6525
  436MOL0     C57446   2.812   8.663   9.868 -0.3598 -0.1330  0.5786
  436MOL0     C57447   2.811   8.526   9.855 -0.0406 -0.0394  0.3301
  436MOL0     C57448   2.913   8.448   9.890 -0.8588  0.2910  0.4988
  436MOL0     C57449   2.922   8.304   9.856 -0.6046 -0.0679 -0.4779
  436MOL0     O57450   3.008   8.230   9.932  0.6796  0.4178 -0.5875
  436MOL0     C57451   3.049   8.101   9.902 -1.2118  0.5816 -0.8050
  436MOL0     C57452   3.183   8.084   9.932 -0.0930  0.6570  0.2036
  436MOL0     C57453   3.246   7.971   9.888 -0.4739  0.7132  0.3581
  436MOL0     C57454   3.177   7.875   9.815  0.2725 -0.1030 -0.3765
  436MOL0     O57455   3.233   7.755   9.779  0.0384  0.4807 -0.3848
  436MOL0     C57456   3.306   7.677   9.886 -0.0947 -0.1920 -0.1213
  436MOL0     C57457   3.398   7.564   9.832 -0.2851 -0.4747  0.6805
  436MOL0     C57458   3.332   7.469   9.729 -0.7351  0.0622 -1.0878
  436MOL0     C57459   3.419   7.349   9.691  0.2799 -0.6687  0.8544
  436MOL0     C57460   3.351   7.256   9.587  0.2663  0.0878 -0.5959
  436MOL0     C57461   3.237   7.157   9.618 -0.0610 -0.2866  0.0709
  436MOL0     C57462   3.275   7.071   9.737 -1.0472 -0.2497  0.3141
  436MOL0     C57463   3.145   7.005   9.789  0.9012  0.2432 -0.1547
  436MOL0    Cl57464   3.078   6.893   9.677  0.3389  0.3524 -0.0270
  436MOL0     C57465   3.044   7.886   9.791 -0.8181  0.1131  0.8539
  436MOL0     C57466   2.985   7.999   9.836 -0.0567  0.6483  0.4143
  436MOL0     O57467   2.882   8.274   9.750  0.6661  0.7799 -0.4410
  436MOL0     C57468   3.019   8.515   9.944 -0.1146 -0.2467  0.6478
  436MOL0     C57469   3.026   8.650   9.952  0.0700  0.3547 -0.2392
  436MOL0     N57470   2.927   9.130   9.491 -0.4304  0.0236  0.5309
  436MOL0     N57471   2.870   9.157   9.380  0.9235 -0.3822  0.3758
  436MOL0     C57472   3.067   8.743   8.467 -0.8427 -0.3424  0.4388
  436MOL0     C57473   3.090   8.604   8.487  0.3506  0.5395 -0.4257
  436MOL0     C57474   3.162   8.231   8.701  0.2615  0.1173  1.0177
  436MOL0     C57475   3.138   8.184   8.834 -0.8385 -0.2035  0.0217
  436MOL0     C57476   3.086   8.058   8.858 -0.2023  0.0762  0.7254
  436MOL0     C57477   3.061   7.975   8.747 -0.0752  1.0185  0.3509
  436MOL0     O57478   3.019   7.841   8.761 -0.8097 -0.2264 -0.4328
  436MOL0     C57479   3.015   7.772   8.891 -0.9442  0.2819  0.3395
  436MOL0     C57480   2.941   7.636   8.869 -0.5534 -0.1855 -0.0738
  436MOL0     C57481   2.922   7.559   8.997  0.3006  0.2804  0.0861
  436MOL0     C57482   2.855   7.428   8.981  1.0567 -0.5304 -0.1055
  436MOL0     C57483   2.731   7.447   8.909  0.7041  0.3976  0.4363
  436MOL0     C57484   2.663   7.469   8.811  0.3324 -0.1961  0.5357
  436MOL0     C57485   3.074   8.019   8.620 -0.4048 -0.7896 -0.4075
  436MOL0     C57486   3.130   8.144   8.592 -1.1641 -0.2417  0.2282
  436MOL0     H57487   3.429   8.624   8.541  1.0452  3.4574 -2.0880
  436MOL0     H57488   3.369   8.869   8.564 -2.0530  1.6479  3.1713
  436MOL0     H57489   2.947   8.992   8.544 -1.6791  2.3380 -0.2788
  436MOL0     H57490   2.987   9.013   8.382 -2.9337  3.0251 -0.2453
  436MOL0     H57491   2.937   9.235   8.489  1.2207  1.9456  0.7750
  436MOL0     H57492   3.089   9.236   8.420 -0.1797  0.5798  0.2216
  436MOL0     H57493   3.091   9.352   8.600 -0.3013 -0.6304 -1.5511
  436MOL0     H57494   3.208   9.223   8.623 -0.1978  1.0885 -0.5881
  436MOL0     H57495   3.092   9.106   8.790  2.5762  1.0951  0.5519
  436MOL0     H57496   3.098   9.271   8.826  0.6790 -1.8025  1.5223
  436MOL0     H57497   2.857   9.180   8.689  1.7715 -0.9173 -1.2539
  436MOL0     H57498   2.862   9.330   8.782 -0.8082 -0.7085 -4.8440
  436MOL0     H57499   2.880   9.038   8.861 -1.9105  1.0204 -1.6052
  436MOL0     H57500   2.760   9.150   8.924 -1.4863 -1.8386 -0.5884
  436MOL0     H57501   3.046   9.130   9.028 -0.4608  0.7835 -1.1399
  436MOL0     H57502   2.923   9.250   9.063  0.0135 -0.2641 -1.5919
  436MOL0     H57503   2.845   8.965   9.117 -0.0829  0.6842  0.1934
  436MOL0     H57504   2.773   9.127   9.151 -0.1643  1.0442 -1.7344
  436MOL0     H57505   3.111   8.961   9.269  1.3797 -1.3029  2.3070
  436MOL0     H57506   3.234   9.061   9.510  0.2333  0.5424  1.4913
  436MOL0     H57507   3.178   8.895   9.524  0.6663  0.2858  0.2946
  436MOL0     H57508   3.118   9.130   9.706 -1.2091  0.1512  0.7455
  436MOL0     H57509   3.221   8.992   9.735  2.2690  1.6956 -2.0877
  436MOL0     H57510   2.919   8.981   9.695  0.6912  1.0375 -1.4203
  436MOL0     H57511   3.031   8.834   9.705 -0.5375 -0.6629  3.1976
  436MOL0     H57512   3.015   9.046   9.922 -0.3692 -2.2810  2.6092
  436MOL0     H57513   3.120   8.915   9.916 -0.3186 -0.6332  2.6813
  436MOL0     H57514   2.720   8.710   9.835 -0.3742  0.5815  1.5907
  436MOL0     H57515   2.731   8.481   9.797 -1.5182 -0.0810  2.2842
  436MOL0     H57516   3.240   8.157   9.988  2.4997  0.0181 -1.4489
  436MOL0     H57517   3.352   7.965   9.911 -0.1253  2.9750 -0.3495
  436MOL0     H57518   3.230   7.631   9.949 -1.9191  0.0732 -2.0268
  436MOL0     H57519   3.381   7.745   9.927 -1.0209  0.9252 -0.2515
  436MOL0     H57520   3.442   7.507   9.914  0.4383 -2.6683 -1.1403
  436MOL0     H57521   3.486   7.603   9.780 -0.2623  2.5344  2.7515
  436MOL0     H57522   3.315   7.536   9.644  4.4507  2.9714 -0.3369
  436MOL0     H57523   3.242   7.435   9.781 -0.0889 -1.0781 -0.6763
  436MOL0     H57524   3.505   7.392   9.638 -1.2130  2.7621  0.9035
  436MOL0     H57525   3.466   7.299   9.775 -0.0021  0.5842  1.7793
  436MOL0     H57526   3.433   7.203   9.537  0.8432  1.2324 -0.9294
  436MOL0     H57527   3.309   7.326   9.513 -0.8206  0.6291  0.5072
  436MOL0     H57528   3.216   7.105   9.524 -0.0121 -0.0767 -0.0557
  436MOL0     H57529   3.152   7.219   9.644  0.1813  0.0820 -0.0091
  436MOL0     H57530   3.333   6.989   9.694 -1.9379  0.2071 -1.8711
  436MOL0     H57531   3.328   7.130   9.812 -1.8523  1.6971 -0.5494
  436MOL0     H57532   3.068   7.083   9.791 -1.0676 -1.6164  1.7645
  436MOL0     H57533   3.152   6.960   9.889 -1.5374 -4.0001 -1.6576
  436MOL0     H57534   2.985   7.807   9.747 -2.6023  0.8652  1.7892
  436MOL0     H57535   2.880   8.002   9.808  0.0178 -0.6124 -0.0650
  436MOL0     H57536   3.114   8.464   9.944  0.8063  1.3743  1.5225
  436MOL0     H57537   3.115   8.696   9.995 -0.0758  2.2315 -1.8019
  436MOL0     H57538   2.969   8.778   8.437  0.3530  0.8002 -2.4696
  436MOL0     H57539   3.013   8.530   8.468  0.4977 -0.2340  1.7296
  436MOL0     H57540   3.151   8.249   8.920 -1.7924 -0.5134  0.4144
  436MOL0     H57541   3.067   8.019   8.957 -0.3012  1.8152  1.4243
  436MOL0     H57542   2.958   7.822   8.970 -1.1515  0.5084  0.0508
  436MOL0     H57543   3.116   7.768   8.934 -0.9641 -0.6901  0.3101
  436MOL0     H57544   2.846   7.646   8.815  0.4799 -0.4260 -2.0333
  436MOL0     H57545   3.012   7.587   8.802 -0.8694  0.1892 -0.6928
  436MOL0     H57546   2.872   7.606   9.082  1.3097  0.5845  0.5278
  436MOL0     H57547   3.024   7.535   9.031  0.0725 -1.2300 -0.2055
  436MOL0     H57548   2.927   7.362   8.933 -0.1445 -2.0182  0.0462
  436MOL0     H57549   2.824   7.391   9.080 -2.2699  1.2221 -0.3396
  436MOL0     H57550   2.608   7.499   8.724  1.1504  2.0625  0.7314
  436MOL0     H57551   3.050   7.957   8.535 -0.9104 -0.8467 -0.2288
  436MOL0     H57552   3.147   8.174   8.489 -0.8992 -0.9471  0.0623
  437MOL0     O57553   0.584   1.701   8.044  0.1574  0.1218 -0.5488
  437MOL0     C57554   0.581   1.606   8.125 -0.1151 -1.5474 -0.9731
  437MOL0     O57555   0.471   1.555   8.181  0.0622 -0.5510 -0.1472
  437MOL0     C57556   0.352   1.591   8.127 -0.1467 -0.8662 -0.6644
  437MOL0     C57557   0.318   1.536   8.008 -0.2946  0.4940  0.3196
  437MOL0     C57558   0.199   1.583   7.933 -0.6349 -0.1944 -0.0768
  437MOL0     C57559   0.117   1.686   7.988  0.5585 -1.0245  0.9928
  437MOL0     O57560   0.006   1.725   7.920 -0.0216  0.0813  0.5103
  437MOL0     C57561  -0.108   1.744   8.007 -0.4084 -0.3127  0.1680
  437MOL0     C57562  -0.217   1.825   7.924 -0.1407  0.1721 -0.0990
  437MOL0     C57563  -0.356   1.807   7.983  0.4357  0.9549 -0.1664
  437MOL0     C57564  -0.381   1.819   8.137 -0.5247 -0.3893  0.8044
  437MOL0     C57565  -0.492   1.928   8.166 -0.4849 -0.3268 -0.8262
  437MOL0     C57566  -0.637   1.881   8.136 -0.0888  0.5637  0.0210
  437MOL0     C57567  -0.731   1.985   8.184 -0.4188 -0.2675  0.1600
  437MOL0     C57568  -0.874   1.950   8.161  0.9754 -0.5933  0.2433
  437MOL0     N57569  -0.903   1.944   8.013  0.8009  0.6868 -0.4638
  437MOL0     C57570  -0.946   1.833   7.949  0.7683  0.3365 -0.3935
  437MOL0     C57571  -1.005   1.868   7.830  0.0072  0.2119  0.3205
  437MOL0     C57572  -1.064   1.767   7.743  0.2133  0.1957  0.0706
  437MOL0     C57573  -1.185   1.829   7.661  0.1429  1.2620  0.8238
  437MOL0     C57574  -1.251   1.716   7.581  0.6097 -0.7138 -0.1419
  437MOL0     C57575  -1.339   1.768   7.465 -0.6161  0.1241  0.6109
  437MOL0     O57576  -1.361   1.661   7.382 -0.3983 -0.3553  0.2319
  437MOL0     C57577  -1.436   1.694   7.269 -0.8881 -0.1074  0.2892
  437MOL0     C57578  -1.432   1.609   7.160 -0.5633  0.6358 -0.3814
  437MOL0     C57579  -1.493   1.644   7.032 -0.5434 -0.3310 -0.1392
  437MOL0     C57580  -1.566   1.757   7.015  0.3972 -0.2490 -0.3853
  437MOL0     C57581  -1.635   1.790   6.898  0.1051  1.6255  1.2539
  437MOL0     O57582  -1.634   1.913   6.845 -0.1421  0.0525 -0.8894
  437MOL0     C57583  -1.664   1.912   6.708  0.7694 -0.2576  0.4010
  437MOL0     C57584  -1.589   1.836   6.618 -0.0543 -0.7760 -0.1267
  437MOL0     C57585  -1.632   1.828   6.476 -0.0895  0.2091 -0.7185
  437MOL0     C57586  -1.749   1.878   6.440 -0.0108 -0.3032  0.9520
  437MOL0     O57587  -1.820   1.853   6.322  0.9022  0.2108 -0.1055
  437MOL0     C57588  -1.735   1.837   6.206  0.0098  0.1468  0.1434
  437MOL0     C57589  -1.825   1.810   6.080 -0.6940 -0.1815  0.0950
  437MOL0     C57590  -1.885   1.669   6.086 -0.9718 -1.0000 -0.5547
  437MOL0     C57591  -1.962   1.632   5.952 -0.6159 -0.3517 -1.0284
  437MOL0     C57592  -2.033   1.500   5.968  0.0001  0.1030 -0.0568
  437MOL0     C57593  -2.155   1.508   6.067  0.5266 -0.6410 -0.8938
  437MOL0     C57594  -2.266   1.404   6.045 -0.1189 -0.4023 -0.4060
  437MOL0     C57595  -2.206   1.258   6.064 -0.5603  0.4338  0.0498
  437MOL0    Cl57596  -2.347   1.143   6.087 -0.4443 -0.2588 -0.3564
  437MOL0     C57597  -1.818   1.958   6.525 -0.6869  0.2588  1.1826
  437MOL0     C57598  -1.773   1.983   6.658 -0.6480  0.2649  0.8084
  437MOL0     O57599  -1.688   1.695   6.845 -0.0399 -0.3828  0.3943
  437MOL0     C57600  -1.577   1.843   7.130  0.5798  0.1057  0.1889
  437MOL0     C57601  -1.523   1.812   7.254 -0.2315  0.8000 -0.1119
  437MOL0     N57602  -0.976   1.998   7.819 -0.0238  0.0206 -0.0322
  437MOL0     N57603  -0.912   2.039   7.925  0.5206  0.3375  0.5988
  437MOL0     C57604   0.162   1.751   8.104  0.1113 -0.5887  0.1398
  437MOL0     C57605   0.273   1.701   8.174 -0.6602 -0.0532  0.6425
  437MOL0     C57606   0.714   1.559   8.169  0.2261 -0.2710 -0.3195
  437MOL0     C57607   0.832   1.624   8.130  0.3196 -0.3814  0.5097
  437MOL0     C57608   0.943   1.571   8.179 -0.6253  0.1882  1.5083
  437MOL0     C57609   0.959   1.458   8.257  0.8199 -0.0019  0.4145
  437MOL0     O57610   1.088   1.416   8.303  0.1042 -0.3091  0.9267
  437MOL0     C57611   1.201   1.493   8.279  0.8432  0.6001  1.3585
  437MOL0     C57612   1.310   1.441   8.372  0.3581 -0.9834  0.0126
  437MOL0     C57613   1.365   1.305   8.339  0.6612  0.2325 -1.0047
  437MOL0     C57614   1.492   1.320   8.267 -0.0102  0.5240 -0.8337
  437MOL0     C57615   1.522   1.199   8.195 -0.0638 -0.2507  0.3629
  437MOL0     C57616   1.530   1.083   8.150 -0.0425  1.0617 -0.3428
  437MOL0     C57617   0.835   1.386   8.287  0.2613  0.9792 -0.6590
  437MOL0     C57618   0.712   1.444   8.245  0.2924  0.0769 -0.6038
  437MOL0     H57619   0.365   1.442   7.980 -1.4568 -0.2782  0.8995
  437MOL0     H57620   0.172   1.538   7.838  2.7885 -0.6446 -0.9969
  437MOL0     H57621  -0.082   1.810   8.090 -2.6062 -1.0348  1.5135
  437MOL0     H57622  -0.149   1.647   8.037  1.0002 -2.1698 -3.3730
  437MOL0     H57623  -0.230   1.795   7.819 -1.2832  0.2879  0.0021
  437MOL0     H57624  -0.194   1.932   7.931  2.9997 -0.3721 -0.4745
  437MOL0     H57625  -0.386   1.705   7.958 -2.9275  1.7975 -0.1502
  437MOL0     H57626  -0.443   1.855   7.937 -0.3831 -0.1053  0.2182
  437MOL0     H57627  -0.412   1.724   8.180 -1.9447 -0.5989 -0.5842
  437MOL0     H57628  -0.284   1.846   8.179  0.1046 -1.8976  0.4049
  437MOL0     H57629  -0.469   2.028   8.129  1.4393  0.0320  1.1322
  437MOL0     H57630  -0.494   1.945   8.274 -4.1832 -2.3672 -0.3960
  437MOL0     H57631  -0.680   1.798   8.192 -2.4301  2.8869  1.9713
  437MOL0     H57632  -0.653   1.862   8.030 -1.3125 -3.0875  0.7339
  437MOL0     H57633  -0.704   2.007   8.288  2.0405 -0.9191 -0.2942
  437MOL0     H57634  -0.723   2.080   8.132 -1.2838  0.2233  0.8894
  437MOL0     H57635  -0.947   2.024   8.195 -0.4375 -1.0755 -1.5876
  437MOL0     H57636  -0.892   1.860   8.219  1.1904 -3.2236 -3.4542
  437MOL0     H57637  -0.953   1.735   7.995 -2.4537  0.4332 -0.4377
  437MOL0     H57638  -1.100   1.681   7.800 -0.4182 -1.3057 -2.4058
  437MOL0     H57639  -0.995   1.722   7.670 -1.6570  1.2760 -2.5337
  437MOL0     H57640  -1.144   1.897   7.585  0.8023  1.3708  1.2684
  437MOL0     H57641  -1.267   1.874   7.717 -2.3616 -1.2058 -0.6109
  437MOL0     H57642  -1.179   1.643   7.542  0.6700 -0.1542 -1.1195
  437MOL0     H57643  -1.317   1.661   7.649 -0.5540  1.7011  0.8065
  437MOL0     H57644  -1.296   1.854   7.413  0.9223 -0.7531  0.3899
  437MOL0     H57645  -1.435   1.812   7.497 -0.7912 -0.0296  0.2991
  437MOL0     H57646  -1.355   1.532   7.155 -0.7350  0.3557  0.9836
  437MOL0     H57647  -1.472   1.585   6.943 -2.2959 -1.6350  0.2707
  437MOL0     H57648  -1.499   1.793   6.661  1.5623  1.8152 -0.6454
  437MOL0     H57649  -1.570   1.782   6.399  0.6406  3.9737 -2.5757
  437MOL0     H57650  -1.675   1.747   6.222 -1.1653 -0.8175 -0.6940
  437MOL0     H57651  -1.680   1.930   6.190 -1.7114  1.3144  0.7371
  437MOL0     H57652  -1.767   1.819   5.988 -1.3225  0.8498 -0.2063
  437MOL0     H57653  -1.911   1.877   6.070 -2.5445 -2.4788 -0.2535
  437MOL0     H57654  -1.955   1.676   6.169 -2.0603 -2.9730 -1.2246
  437MOL0     H57655  -1.820   1.585   6.112  0.4062  0.1707 -0.0925
  437MOL0     H57656  -2.032   1.709   5.919  0.8827  0.9922 -1.1934
  437MOL0     H57657  -1.889   1.627   5.870 -2.2031 -0.2953 -2.5010
  437MOL0     H57658  -1.964   1.428   6.013 -2.0566 -1.7821  0.2086
  437MOL0     H57659  -2.060   1.452   5.874 -3.1566 -1.4247  1.4741
  437MOL0     H57660  -2.211   1.602   6.056  1.7809  0.0972 -1.1412
  437MOL0     H57661  -2.112   1.512   6.167 -1.4692 -0.6366  0.0156
  437MOL0     H57662  -2.330   1.426   6.131  1.4499 -3.9399  1.8907
  437MOL0     H57663  -2.314   1.424   5.949 -1.3784  2.8993  0.7532
  437MOL0     H57664  -2.153   1.253   6.159 -0.0071 -1.5320 -0.3297
  437MOL0     H57665  -2.141   1.234   5.980  0.5686 -2.2538  1.6030
  437MOL0     H57666  -1.919   1.993   6.507 -2.6495 -4.6174  1.3532
  437MOL0     H57667  -1.833   2.029   6.736 -1.6320 -3.7430  2.6872
  437MOL0     H57668  -1.645   1.926   7.120 -1.7113 -1.2487  3.0157
  437MOL0     H57669  -1.565   1.872   7.334  1.1402  2.5231 -0.6174
  437MOL0     H57670   0.121   1.828   8.169  1.1911  1.0619 -1.0742
  437MOL0     H57671   0.301   1.751   8.267  1.4411 -0.5275  0.3134
  437MOL0     H57672   0.831   1.718   8.076 -0.7465 -1.2595 -1.1047
  437MOL0     H57673   1.032   1.631   8.161  1.6282 -3.1491  0.6776
  437MOL0     H57674   1.169   1.594   8.307  0.0354  1.6679 -2.8171
  437MOL0     H57675   1.237   1.503   8.177  0.3093 -1.8502  0.8659
  437MOL0     H57676   1.382   1.523   8.367  0.2567 -0.9174 -0.5218
  437MOL0     H57677   1.283   1.438   8.478 -2.6441 -3.1972 -0.6616
  437MOL0     H57678   1.285   1.255   8.283 -0.3958 -0.5415  1.0944
  437MOL0     H57679   1.378   1.246   8.430 -0.9435 -0.2975 -1.0687
  437MOL0     H57680   1.493   1.404   8.197 -1.9299  3.9764  2.8635
  437MOL0     H57681   1.566   1.330   8.347 -0.2818 -2.6461 -0.0352
  437MOL0     H57682   1.556   0.981   8.131  0.6796  0.6493  2.5155
  437MOL0     H57683   0.829   1.298   8.351 -1.4431 -0.7421 -2.9856
  437MOL0     H57684   0.621   1.401   8.283  0.6160  0.2610  0.4128
  438MOL0     O57685   0.526   8.235   0.144 -0.0819 -0.9846  0.1902
  438MOL0     C57686   0.537   8.190   0.031 -0.4364  0.3842 -0.3838
  438MOL0     O57687   0.588   8.067  -0.004  0.2384  0.4220 -0.1703
  438MOL0     C57688   0.595   7.969   0.095 -0.2049 -0.0492  0.3151
  438MOL0     C57689   0.672   7.992   0.206 -0.1545 -0.0012 -0.4182
  438MOL0     C57690   0.697   7.892   0.300 -0.5339 -1.0517 -0.5959
  438MOL0     C57691   0.636   7.762   0.284  0.2622  0.4312  0.8212
  438MOL0     O57692   0.664   7.679   0.384  0.3453 -0.3703 -0.5236
  438MOL0     C57693   0.646   7.539   0.388  0.0577 -0.9191  0.7668
  438MOL0     C57694   0.502   7.507   0.409  0.7437 -0.1275  0.3914
  438MOL0     C57695   0.452   7.370   0.448  0.2566 -0.8513  0.4943
  438MOL0     C57696   0.513   7.312   0.580  0.3425 -0.2076 -0.5421
  438MOL0     C57697   0.446   7.178   0.617  0.4421  0.4505 -0.3406
  438MOL0     C57698   0.487   7.151   0.758  0.7439 -0.9536  0.0649
  438MOL0     C57699   0.437   7.006   0.792 -0.6940  0.0448  0.6937
  438MOL0     C57700   0.282   7.011   0.823 -0.5422  0.1335  0.5591
  438MOL0     N57701   0.221   6.873   0.857 -0.1942 -0.4122  0.3475
  438MOL0     C57702   0.107   6.849   0.932  1.0294 -0.6138 -0.1540
  438MOL0     C57703   0.113   6.720   0.976 -0.2143  0.5880  0.2426
  438MOL0     C57704   0.007   6.664   1.072  0.4422 -0.4054  0.5948
  438MOL0     C57705  -0.135   6.643   0.995  0.4010 -0.5377 -0.4092
  438MOL0     C57706  -0.133   6.556   0.871  0.0860 -0.2309 -0.4076
  438MOL0     C57707  -0.058   6.426   0.911 -0.4943 -1.0667 -1.0416
  438MOL0     O57708  -0.096   6.342   0.802  0.3015 -0.4273  0.2642
  438MOL0     C57709  -0.012   6.338   0.698 -0.2937 -0.6310  0.1510
  438MOL0     C57710   0.099   6.423   0.667 -0.1036 -0.9155 -0.0462
  438MOL0     C57711   0.176   6.411   0.550 -0.8031  0.4831 -0.0023
  438MOL0     C57712   0.154   6.299   0.460 -0.7247 -0.3734  0.1962
  438MOL0     C57713   0.240   6.271   0.338  1.1704 -0.2771 -0.2525
  438MOL0     O57714   0.311   6.377   0.295 -0.4459 -0.3178 -0.5439
  438MOL0     C57715   0.384   6.383   0.177 -0.8507 -0.0765  0.6847
  438MOL0     C57716   0.466   6.499   0.167 -0.9816  0.3830  1.0370
  438MOL0     C57717   0.543   6.528   0.048  0.7943  0.1642 -0.4323
  438MOL0     C57718   0.534   6.435  -0.059 -0.5243  0.1443 -0.0711
  438MOL0     O57719   0.610   6.461  -0.163 -0.5666  0.1338 -0.3802
  438MOL0     C57720   0.650   6.362  -0.266 -0.9054 -0.0981  0.2183
  438MOL0     C57721   0.759   6.439  -0.352 -0.1596 -0.2124  1.2359
  438MOL0     C57722   0.703   6.558  -0.428 -0.0244  0.3280 -0.2620
  438MOL0     C57723   0.798   6.612  -0.541  0.2871  0.0336 -0.2563
  438MOL0     C57724   0.938   6.660  -0.490 -0.9705 -0.0379  0.0245
  438MOL0     C57725   1.031   6.671  -0.610  0.7519  0.0391 -0.1551
  438MOL0     C57726   1.158   6.750  -0.594  0.0251 -0.0436 -0.3353
  438MOL0     C57727   1.205   6.825  -0.712  0.0300 -0.6181 -0.6666
  438MOL0    Cl57728   1.161   6.786  -0.877  0.3086  0.0303 -0.1692
  438MOL0     C57729   0.454   6.322  -0.048 -0.3916  0.3223 -0.2850
  438MOL0     C57730   0.373   6.302   0.066  0.3198 -0.1430 -0.2185
  438MOL0     O57731   0.242   6.158   0.294 -0.1502 -0.1521  0.4156
  438MOL0     C57732   0.047   6.211   0.488 -0.4763  0.0570  0.5513
  438MOL0     C57733  -0.030   6.231   0.606 -0.1984  0.2318  0.7452
  438MOL0     N57734   0.231   6.673   0.926 -0.0073 -0.2913 -0.4921
  438MOL0     N57735   0.302   6.759   0.861  0.2905 -0.1781  0.4295
  438MOL0     C57736   0.552   7.738   0.166 -0.0359  0.2218 -0.0041
  438MOL0     C57737   0.547   7.838   0.074 -0.3330 -0.4285  0.3990
  438MOL0     C57738   0.506   8.281  -0.078 -1.0046 -0.6084  0.8869
  438MOL0     C57739   0.453   8.413  -0.049  0.8471 -0.2451 -0.5187
  438MOL0     C57740   0.424   8.490  -0.161 -0.3416  0.3766 -0.6907
  438MOL0     C57741   0.452   8.456  -0.292 -0.1911  0.1861  0.0930
  438MOL0     O57742   0.429   8.550  -0.387 -0.6919  0.2512  0.4519
  438MOL0     C57743   0.389   8.518  -0.519 -0.3607  0.7003 -0.4898
  438MOL0     C57744   0.279   8.597  -0.582 -0.4455 -0.1256 -0.0678
  438MOL0     C57745   0.263   8.552  -0.726  0.7402  0.0406 -0.6250
  438MOL0     C57746   0.112   8.534  -0.751  0.5323 -0.3328 -0.3883
  438MOL0     C57747   0.039   8.666  -0.731 -0.9585  0.1854  0.7399
  438MOL0     C57748  -0.016   8.764  -0.709  0.3991 -0.1979 -0.2185
  438MOL0     C57749   0.509   8.335  -0.314  0.5558  0.6745  0.1961
  438MOL0     C57750   0.521   8.239  -0.211  0.3951  0.6582 -1.0388
  438MOL0     H57751   0.723   8.087   0.220  0.7137 -0.1583 -2.1660
  438MOL0     H57752   0.754   7.923   0.387 -4.4619 -2.1747  2.7087
  438MOL0     H57753   0.705   7.496   0.469  1.9740 -1.9964 -1.0903
  438MOL0     H57754   0.680   7.499   0.292 -1.5956  0.5566 -0.5071
  438MOL0     H57755   0.446   7.550   0.325 -0.9677  0.4316  1.7749
  438MOL0     H57756   0.477   7.581   0.485 -1.5400  0.5247 -0.8955
  438MOL0     H57757   0.461   7.305   0.360 -0.2117  1.6891 -1.5603
  438MOL0     H57758   0.343   7.381   0.451  0.2125 -1.4378  1.3144
  438MOL0     H57759   0.620   7.301   0.563  0.9326  2.8685  0.6459
  438MOL0     H57760   0.495   7.383   0.661  1.3278 -1.6931  1.0425
  438MOL0     H57761   0.484   7.100   0.550 -1.3084  2.6856 -4.2650
  438MOL0     H57762   0.338   7.180   0.606  0.1887 -1.2904  1.3436
  438MOL0     H57763   0.464   7.222   0.838  0.0040  0.4005 -1.2874
  438MOL0     H57764   0.593   7.153   0.732  0.0611  0.4697 -2.9938
  438MOL0     H57765   0.466   6.933   0.716  1.8797  3.1787 -1.6504
  438MOL0     H57766   0.471   6.975   0.891 -2.7440 -0.7569  1.1831
  438MOL0     H57767   0.237   7.044   0.729 -2.0216  0.0361  1.2039
  438MOL0     H57768   0.251   7.086   0.896 -2.5590 -1.5474  1.5478
  438MOL0     H57769   0.027   6.918   0.959  2.6837  1.6710 -0.8505
  438MOL0     H57770  -0.016   6.740   1.147  4.8403  0.8527  0.9473
  438MOL0     H57771   0.044   6.578   1.129  0.5034 -0.1935  0.8784
  438MOL0     H57772  -0.169   6.746   0.977  0.1114 -0.4983  0.3228
  438MOL0     H57773  -0.212   6.592   1.053 -0.6059  1.4370  0.1068
  438MOL0     H57774  -0.236   6.536   0.840  0.4548 -2.6280 -0.2244
  438MOL0     H57775  -0.072   6.591   0.787  3.4814 -6.5041 -1.1677
  438MOL0     H57776  -0.089   6.391   1.010 -0.0713  0.0303 -0.5126
  438MOL0     H57777   0.050   6.442   0.919 -0.5665 -1.4747  1.7761
  438MOL0     H57778   0.129   6.497   0.741 -2.5032  0.9705 -0.8018
  438MOL0     H57779   0.262   6.475   0.533  0.8364 -1.6979 -0.4790
  438MOL0     H57780   0.472   6.572   0.247  1.3016  3.3656 -1.6247
  438MOL0     H57781   0.603   6.619   0.050 -1.1594  1.5215 -0.8411
  438MOL0     H57782   0.569   6.325  -0.329 -2.1999  2.4827  0.2350
  438MOL0     H57783   0.696   6.273  -0.220  3.5389  0.2252 -2.9823
  438MOL0     H57784   0.800   6.370  -0.427  0.0749  0.9611  0.2516
  438MOL0     H57785   0.838   6.480  -0.287  0.7698  0.3828 -0.2174
  438MOL0     H57786   0.661   6.636  -0.364 -2.7953 -2.1235  1.1274
  438MOL0     H57787   0.611   6.526  -0.477 -1.0208 -1.5959  2.5902
  438MOL0     H57788   0.820   6.528  -0.608 -2.1877 -1.4481  0.6426
  438MOL0     H57789   0.754   6.700  -0.588  2.7105  1.9517  0.8997
  438MOL0     H57790   0.981   6.585  -0.424  1.1259  0.0145 -1.1730
  438MOL0     H57791   0.928   6.750  -0.429 -0.8291 -0.9214  1.3988
  438MOL0     H57792   0.980   6.699  -0.703 -0.0900  1.3545  0.6805
  438MOL0     H57793   1.062   6.571  -0.643  2.5244  0.9451 -1.3602
  438MOL0     H57794   1.157   6.816  -0.506 -1.4724  0.6337 -0.8300
  438MOL0     H57795   1.235   6.673  -0.580  1.5817  1.3297 -0.8865
  438MOL0     H57796   1.314   6.830  -0.719 -0.1053 -0.1927 -3.6807
  438MOL0     H57797   1.179   6.927  -0.685  0.7479 -0.3454 -0.9853
  438MOL0     H57798   0.462   6.248  -0.127  1.1067  1.6817 -1.4640
  438MOL0     H57799   0.305   6.218   0.057 -0.2505  0.2686  0.1992
  438MOL0     H57800   0.006   6.141   0.416  1.2666  1.2908 -1.7765
  438MOL0     H57801  -0.117   6.169   0.626 -0.7838  0.2082 -1.5985
  438MOL0     H57802   0.516   7.636   0.163  2.1552 -0.7855  3.1340
  438MOL0     H57803   0.491   7.818  -0.017  2.9613 -3.3333 -1.2389
  438MOL0     H57804   0.433   8.450   0.051  0.6268  1.3047 -1.1023
  438MOL0     H57805   0.371   8.583  -0.146  1.4110  1.0726  1.9288
  438MOL0     H57806   0.367   8.411  -0.519  0.7124  0.4608  0.0095
  438MOL0     H57807   0.476   8.527  -0.585  0.9020 -4.5295  0.0323
  438MOL0     H57808   0.186   8.579  -0.526  0.0234  0.1916  0.8300
  438MOL0     H57809   0.305   8.702  -0.570 -0.4474  0.0556 -1.4773
  438MOL0     H57810   0.322   8.462  -0.740 -1.8893 -3.2745  5.5549
  438MOL0     H57811   0.305   8.628  -0.792  1.9626 -0.9720 -1.0335
  438MOL0     H57812   0.100   8.517  -0.858  0.1896  0.0320 -0.4110
  438MOL0     H57813   0.064   8.451  -0.697  2.0217 -0.2680  1.1161
  438MOL0     H57814  -0.079   8.846  -0.682  1.2879  0.1484  0.8505
  438MOL0     H57815   0.526   8.309  -0.418  0.2298  0.5003  0.1842
  438MOL0     H57816   0.578   8.148  -0.224  1.7917  1.5806 -1.7107
  439MOL0     O57817   3.801   2.155   6.124 -0.6505  0.1299  0.3695
  439MOL0     C57818   3.850   2.111   6.227 -0.0836 -0.9975  1.1887
  439MOL0     O57819   3.813   2.143   6.353  0.2290  0.0097 -0.0209
  439MOL0     C57820   3.706   2.220   6.370  0.0680 -0.3108 -0.6504
  439MOL0     C57821   3.583   2.179   6.336 -0.3841  0.3820 -0.3430
  439MOL0     C57822   3.481   2.281   6.338 -0.4879  0.2397  0.1163
  439MOL0     C57823   3.498   2.402   6.403  0.2206  0.1770  0.0768
  439MOL0     O57824   3.399   2.495   6.410 -0.8341  0.7281 -0.2001
  439MOL0     C57825   3.308   2.466   6.524  0.5917  0.6138  0.4126
  439MOL0     C57826   3.203   2.575   6.532 -0.1886 -0.8805  0.1232
  439MOL0     C57827   3.100   2.560   6.637  0.1061  0.4917  0.4148
  439MOL0     C57828   2.985   2.666   6.621 -0.4783  0.5205 -0.5676
  439MOL0     C57829   3.029   2.814   6.622  0.2396  0.9567  0.2711
  439MOL0     C57830   3.091   2.848   6.759  0.3848 -0.2263  0.3183
  439MOL0     C57831   3.155   2.993   6.746 -0.7645  0.3257  0.1372
  439MOL0     C57832   3.055   3.117   6.722 -0.2348  0.0050  0.0033
  439MOL0     N57833   3.122   3.242   6.736 -0.4210 -0.0063 -0.5577
  439MOL0     C57834   3.066   3.358   6.796  0.3097 -0.3969  0.4210
  439MOL0     C57835   3.164   3.448   6.800 -0.1126 -0.2828  0.2374
  439MOL0     C57836   3.130   3.581   6.846 -0.3217 -1.0046 -0.5295
  439MOL0     C57837   3.254   3.672   6.866  1.2084 -0.6271 -0.5202
  439MOL0     C57838   3.329   3.621   6.986 -0.5693 -0.5567  0.5314
  439MOL0     C57839   3.454   3.711   7.009 -0.1242 -0.1526  0.2710
  439MOL0     O57840   3.521   3.681   7.134 -0.3370  0.1768  0.0889
  439MOL0     C57841   3.475   3.741   7.260 -0.0075 -0.5716 -0.5709
  439MOL0     C57842   3.364   3.826   7.260  0.5875  0.0900  0.0345
  439MOL0     C57843   3.325   3.886   7.378  0.6465  0.8363  0.1356
  439MOL0     C57844   3.384   3.866   7.502 -0.1698  0.7617 -0.4830
  439MOL0     C57845   3.324   3.923   7.626 -0.4661  0.0815  0.6459
  439MOL0     O57846   3.239   4.024   7.607 -0.0630 -0.1584 -0.0502
  439MOL0     C57847   3.191   4.093   7.723 -1.0474  0.0842 -0.8716
  439MOL0     C57848   3.286   4.144   7.823 -0.4255 -0.6037  0.1543
  439MOL0     C57849   3.231   4.228   7.924  0.5519 -0.7215  0.2249
  439MOL0     C57850   3.089   4.251   7.925  0.1127  0.1600 -0.4469
  439MOL0     O57851   3.026   4.311   8.026 -0.0786 -0.6888 -0.3081
  439MOL0     C57852   3.094   4.414   8.100  0.5898 -0.7370  0.4083
  439MOL0     C57853   2.987   4.502   8.171  0.4956  0.1030 -0.9347
  439MOL0     C57854   3.046   4.588   8.282  0.3770  0.8637 -0.0930
  439MOL0     C57855   2.937   4.649   8.375  0.5155 -0.3130  0.2492
  439MOL0     C57856   2.998   4.760   8.465 -0.4817 -0.0615  0.5440
  439MOL0     C57857   3.058   4.698   8.592  0.1971  1.0692 -0.2219
  439MOL0     C57858   3.171   4.788   8.644 -0.5440  0.2177 -1.0707
  439MOL0     C57859   3.232   4.738   8.775  0.2478  0.1308 -0.8439
  439MOL0    Cl57860   3.365   4.633   8.734 -0.7909 -0.0526 -0.3260
  439MOL0     C57861   3.014   4.218   7.819  0.1587  0.6365 -0.0891
  439MOL0     C57862   3.061   4.145   7.711 -0.0372  0.8165 -0.3130
  439MOL0     O57863   3.370   3.885   7.734  0.0662 -0.2016  0.1611
  439MOL0     C57864   3.504   3.787   7.504  0.0612  0.1200  0.6866
  439MOL0     C57865   3.544   3.725   7.384  0.0140  0.2770 -0.8283
  439MOL0     N57866   3.284   3.396   6.745 -0.7145  0.5911  0.2889
  439MOL0     N57867   3.253   3.275   6.708 -0.1605  0.3807  0.3526
  439MOL0     C57868   3.629   2.430   6.453 -0.8781 -0.0017 -0.6710
  439MOL0     C57869   3.731   2.341   6.421  0.3281  0.1499  0.1750
  439MOL0     C57870   3.960   2.011   6.193 -0.4047 -0.2865  0.6075
  439MOL0     C57871   3.974   1.957   6.067  0.9068 -0.2561  0.7557
  439MOL0     C57872   4.077   1.864   6.031 -0.5228 -0.1813  0.1926
  439MOL0     C57873   4.164   1.818   6.131 -0.1229 -0.2975 -0.4780
  439MOL0     O57874   4.268   1.732   6.092  0.4425 -0.2761  0.2403
  439MOL0     C57875   4.327   1.653   6.193 -0.1419  0.0554 -0.3218
  439MOL0     C57876   4.392   1.522   6.136 -0.0638 -0.1862  0.3533
  439MOL0     C57877   4.475   1.466   6.252  0.2282 -0.6249  0.3435
  439MOL0     C57878   4.626   1.471   6.247  0.3412  0.9077  0.4018
  439MOL0     C57879   4.673   1.602   6.215  0.0954 -0.6421  0.3755
  439MOL0     C57880   4.721   1.704   6.176 -0.2598  0.6980 -0.0953
  439MOL0     C57881   4.149   1.868   6.260 -0.4564 -0.0729 -0.5796
  439MOL0     C57882   4.051   1.974   6.297 -0.3543 -0.0965 -0.1290
  439MOL0     H57883   3.572   2.080   6.293  0.3180 -1.9122  4.2033
  439MOL0     H57884   3.386   2.251   6.295 -0.5697  2.2634 -1.2616
  439MOL0     H57885   3.359   2.460   6.620 -1.4014  0.8832  1.5284
  439MOL0     H57886   3.252   2.373   6.509  1.2285  0.2673  0.1667
  439MOL0     H57887   3.155   2.596   6.437 -1.7240 -0.8854  0.8677
  439MOL0     H57888   3.267   2.662   6.548  2.4249 -2.9179  1.6789
  439MOL0     H57889   3.160   2.573   6.728 -0.9358 -0.8380  1.3305
  439MOL0     H57890   3.044   2.467   6.637  0.4975  0.2437  1.4071
  439MOL0     H57891   2.916   2.660   6.536 -0.0859 -0.4202 -0.8327
  439MOL0     H57892   2.915   2.631   6.697 -1.2352  0.5306 -1.2471
  439MOL0     H57893   2.936   2.872   6.629 -1.1467 -1.1999  0.6750
  439MOL0     H57894   3.097   2.856   6.549 -1.2474  1.0514 -1.1258
  439MOL0     H57895   3.178   2.785   6.780  2.9282  2.0644 -2.3009
  439MOL0     H57896   3.025   2.851   6.847  3.2723  2.0513  2.6394
  439MOL0     H57897   3.204   3.010   6.843  0.6448  5.1308 -1.1794
  439MOL0     H57898   3.238   2.987   6.676  2.2989 -2.6509  3.5817
  439MOL0     H57899   2.964   3.115   6.782 -1.7218  0.8442 -2.0901
  439MOL0     H57900   3.030   3.130   6.616  4.0257  0.8495 -1.0774
  439MOL0     H57901   2.966   3.377   6.833 -0.1398  0.1175 -0.9955
  439MOL0     H57902   3.081   3.571   6.943  1.0788  0.4049  0.3897
  439MOL0     H57903   3.064   3.623   6.769 -2.4071 -2.3802  0.4278
  439MOL0     H57904   3.209   3.771   6.880 -1.3562 -1.7785  0.0231
  439MOL0     H57905   3.320   3.666   6.779  1.8024 -0.3250 -0.0999
  439MOL0     H57906   3.267   3.639   7.073  0.1908  2.0030  0.6220
  439MOL0     H57907   3.345   3.514   6.966 -1.5748 -0.7209  0.5865
  439MOL0     H57908   3.422   3.815   6.998 -0.4818  0.0033  2.3606
  439MOL0     H57909   3.520   3.694   6.923 -2.4233 -1.8921 -1.2712
  439MOL0     H57910   3.308   3.851   7.170  1.2731 -1.7496 -0.9627
  439MOL0     H57911   3.229   3.933   7.358  1.1341  0.5704 -3.4250
  439MOL0     H57912   3.389   4.113   7.814 -1.1283 -3.1580  0.1165
  439MOL0     H57913   3.303   4.261   7.999  0.0016  0.9685  0.0509
  439MOL0     H57914   3.174   4.453   8.037  1.3584  1.9505  2.8072
  439MOL0     H57915   3.140   4.365   8.186  1.0854  0.0990  0.6317
  439MOL0     H57916   2.917   4.437   8.223 -1.2035  3.0274  0.6823
  439MOL0     H57917   2.922   4.565   8.110 -1.9615 -1.2429  0.1476
  439MOL0     H57918   3.119   4.662   8.248 -0.9390  1.0157 -2.9018
  439MOL0     H57919   3.103   4.510   8.334  0.5454 -0.3959 -2.0632
  439MOL0     H57920   2.865   4.692   8.304  1.0245  0.8137  0.3965
  439MOL0     H57921   2.893   4.565   8.429 -0.7843  0.3801  0.3096
  439MOL0     H57922   2.923   4.836   8.489 -1.0117 -0.1711 -0.6991
  439MOL0     H57923   3.070   4.809   8.399  0.6937 -0.2474  1.6354
  439MOL0     H57924   3.095   4.597   8.572 -0.0446  0.4578  2.1213
  439MOL0     H57925   2.980   4.699   8.669  0.6985  0.2013  0.3018
  439MOL0     H57926   3.246   4.783   8.564  1.2597 -1.3877  0.6075
  439MOL0     H57927   3.140   4.893   8.647 -0.0134  0.3511  0.2559
  439MOL0     H57928   3.164   4.682   8.840  3.6388 -1.2452  1.7821
  439MOL0     H57929   3.275   4.820   8.833 -1.9855  1.0059 -0.2920
  439MOL0     H57930   2.907   4.224   7.832  0.1757  1.6440 -0.3338
  439MOL0     H57931   2.998   4.139   7.623  0.8260  0.3563 -0.9086
  439MOL0     H57932   3.546   3.768   7.602 -0.8380  1.9783  1.4898
  439MOL0     H57933   3.629   3.660   7.399 -1.8022 -2.6335 -2.2033
  439MOL0     H57934   3.649   2.526   6.500 -2.0225  0.1275 -0.4352
  439MOL0     H57935   3.835   2.364   6.444  0.8748 -0.0855 -1.8522
  439MOL0     H57936   3.911   1.982   5.982  0.0270  1.5983  1.8816
  439MOL0     H57937   4.087   1.833   5.928  0.5506  1.2261 -0.1588
  439MOL0     H57938   4.245   1.630   6.262  0.1232  3.7711  1.4600
  439MOL0     H57939   4.397   1.726   6.235  0.1325 -0.8999  0.9248
  439MOL0     H57940   4.332   1.443   6.089 -0.3159 -1.5080  2.7458
  439MOL0     H57941   4.468   1.545   6.061  4.3769 -2.7377  3.5479
  439MOL0     H57942   4.439   1.363   6.259  0.5757 -0.9623 -1.9167
  439MOL0     H57943   4.448   1.517   6.344  0.3342 -1.0815  0.6305
  439MOL0     H57944   4.673   1.431   6.337  1.9058  1.5057 -0.1199
  439MOL0     H57945   4.664   1.404   6.170 -1.8128  1.9586 -1.7265
  439MOL0     H57946   4.763   1.789   6.126  0.5079 -0.1364 -0.9044
  439MOL0     H57947   4.222   1.828   6.329 -0.4477  0.0609 -0.5094
  439MOL0     H57948   4.034   2.007   6.399  0.5744 -0.4561  0.1542
  440MOL0     O57949   6.648   0.850   8.953 -0.2740 -0.0374 -0.5115
  440MOL0     C57950   6.687   0.755   9.013  0.0472  1.3097 -0.0789
  440MOL0     O57951   6.740   0.759   9.139 -0.3506 -0.1544  0.7372
  440MOL0     C57952   6.733   0.884   9.189 -0.4221 -0.7359  0.2318
  440MOL0     C57953   6.846   0.974   9.177 -0.4414  0.1656  0.2199
  440MOL0     C57954   6.833   1.109   9.207  0.7033  0.4434  0.3941
  440MOL0     C57955   6.709   1.159   9.263  0.1864  0.3826 -0.3229
  440MOL0     O57956   6.708   1.295   9.296  0.3271  0.6829  0.7604
  440MOL0     C57957   6.582   1.343   9.345  0.4958 -0.4077 -1.0603
  440MOL0     C57958   6.580   1.487   9.392  0.5090  0.1864  0.1252
  440MOL0     C57959   6.563   1.581   9.272  0.1301  0.6442 -0.3056
  440MOL0     C57960   6.559   1.724   9.326 -0.2646 -0.5576 -0.1422
  440MOL0     C57961   6.548   1.829   9.214  0.3723  0.5766 -0.2455
  440MOL0     C57962   6.414   1.820   9.142  0.2103  0.3464 -0.0843
  440MOL0     C57963   6.392   1.921   9.041  0.1540 -0.8345  0.1805
  440MOL0     C57964   6.254   1.885   8.974 -0.4962 -0.4621  0.7683
  440MOL0     N57965   6.269   1.802   8.849 -0.1286 -0.4489 -0.2653
  440MOL0     C57966   6.176   1.707   8.812  0.6573 -0.7641  0.6014
  440MOL0     C57967   6.199   1.677   8.686  0.4975 -0.4314 -0.7071
  440MOL0     C57968   6.116   1.577   8.606  0.7407  0.7765  0.3608
  440MOL0     C57969   6.171   1.566   8.467 -0.4568  0.0561 -0.1027
  440MOL0     C57970   6.079   1.480   8.380 -0.3181 -0.7998 -0.1203
  440MOL0     C57971   5.949   1.557   8.333 -0.3902 -0.3315 -0.7562
  440MOL0     O57972   5.839   1.470   8.312 -0.4239 -0.0394 -0.3692
  440MOL0     C57973   5.827   1.400   8.197  0.5354 -0.0942  0.2805
  440MOL0     C57974   5.883   1.423   8.072 -0.3741 -0.3068  0.3779
  440MOL0     C57975   5.858   1.341   7.962 -1.3716  0.4662 -0.0060
  440MOL0     C57976   5.768   1.229   7.982  0.0288 -0.3075  0.1567
  440MOL0     C57977   5.730   1.129   7.874  0.2038 -0.3742  0.1117
  440MOL0     O57978   5.815   1.139   7.768 -0.8453 -0.5201 -0.6567
  440MOL0     C57979   5.805   1.068   7.653 -0.2550 -0.4205 -0.8416
  440MOL0     C57980   5.719   0.954   7.638 -0.1677  0.2476  0.3770
  440MOL0     C57981   5.737   0.869   7.528  0.4157 -0.1754  0.0129
  440MOL0     C57982   5.819   0.899   7.421  0.1987 -0.8670  0.0982
  440MOL0     O57983   5.837   0.824   7.307 -0.3078  0.1328 -0.0151
  440MOL0     C57984   5.727   0.825   7.216 -1.2095  0.3446 -0.8536
  440MOL0     C57985   5.769   0.719   7.104  0.1481 -0.6468  0.5796
  440MOL0     C57986   5.674   0.737   6.977  0.6290  0.2724  0.2954
  440MOL0     C57987   5.647   0.604   6.907 -0.3480 -0.3764  0.2063
  440MOL0     C57988   5.558   0.625   6.783 -0.0289  0.2045 -1.3540
  440MOL0     C57989   5.416   0.662   6.821  0.3200  1.2675  0.0669
  440MOL0     C57990   5.323   0.648   6.695  0.5744 -0.3789  0.8593
  440MOL0     C57991   5.319   0.518   6.612 -0.2861  0.0404  0.2796
  440MOL0    Cl57992   5.266   0.380   6.717 -0.1624  0.5454 -0.1028
  440MOL0     C57993   5.899   1.010   7.437  0.0289 -0.3241 -0.6235
  440MOL0     C57994   5.895   1.096   7.551 -0.1187  0.1672 -0.7209
  440MOL0     O57995   5.653   1.036   7.901  0.5841 -0.1368 -0.4412
  440MOL0     C57996   5.720   1.202   8.111  0.1339  0.2364 -2.0490
  440MOL0     C57997   5.749   1.286   8.214 -0.2904  0.0156 -0.5998
  440MOL0     N57998   6.320   1.744   8.651  0.2940 -0.4121 -0.0135
  440MOL0     N57999   6.366   1.814   8.752  0.3495 -0.1364  0.0772
  440MOL0     C58000   6.607   1.066   9.288 -0.3013  0.4492 -0.2995
  440MOL0     C58001   6.620   0.930   9.254  0.4258 -1.4065  0.2829
  440MOL0     C58002   6.668   0.630   8.951 -0.1267 -0.2799 -0.1415
  440MOL0     C58003   6.590   0.619   8.836  0.6063  0.0842  0.3270
  440MOL0     C58004   6.547   0.489   8.783 -0.4568  0.1882  0.1018
  440MOL0     C58005   6.594   0.364   8.842  0.1381 -0.2904  0.5572
  440MOL0     O58006   6.568   0.235   8.797 -0.3274  0.8375  0.3384
  440MOL0     C58007   6.464   0.229   8.707 -0.3639 -0.1112 -0.5972
  440MOL0     C58008   6.412   0.077   8.713  0.2999  0.3746  0.1008
  440MOL0     C58009   6.278   0.077   8.633  1.5742 -0.7505 -0.1517
  440MOL0     C58010   6.259  -0.049   8.543 -1.0069 -0.8782 -0.1532
  440MOL0     C58011   6.331  -0.035   8.419  0.2444  0.2778 -0.1570
  440MOL0     C58012   6.394  -0.017   8.320  0.3926 -0.1204 -0.4489
  440MOL0     C58013   6.683   0.387   8.950 -0.1647  0.0922  0.1082
  440MOL0     C58014   6.728   0.508   9.003  0.4463  0.4386 -0.4797
  440MOL0     H58015   6.936   0.924   9.143 -1.1555 -3.4827  3.0273
  440MOL0     H58016   6.913   1.178   9.182 -1.1879  2.2600 -0.9042
  440MOL0     H58017   6.554   1.291   9.437 -0.4210  0.0458 -1.0660
  440MOL0     H58018   6.495   1.333   9.280  0.8094 -3.0797 -1.2029
  440MOL0     H58019   6.675   1.502   9.446  1.0269  2.9195 -1.3402
  440MOL0     H58020   6.493   1.508   9.455 -0.0862  0.5508 -0.7938
  440MOL0     H58021   6.462   1.560   9.234 -0.2913 -2.0657  1.9491
  440MOL0     H58022   6.635   1.567   9.191 -1.8112  1.8790 -2.3753
  440MOL0     H58023   6.474   1.724   9.395 -0.6496  0.9573 -0.5763
  440MOL0     H58024   6.638   1.747   9.398 -1.9269  1.1449  1.2479
  440MOL0     H58025   6.629   1.818   9.141  1.7770  0.0993  1.3135
  440MOL0     H58026   6.549   1.926   9.265  0.2251 -0.7476  2.4552
  440MOL0     H58027   6.338   1.808   9.220  2.7573  0.0084  2.5403
  440MOL0     H58028   6.411   1.730   9.080  2.6661  0.6424 -0.7247
  440MOL0     H58029   6.382   2.024   9.078 -2.0261 -1.4287  1.4413
  440MOL0     H58030   6.474   1.922   8.969 -1.8426  2.4300 -2.3688
  440MOL0     H58031   6.197   1.976   8.954 -2.7625 -1.5458  2.0062
  440MOL0     H58032   6.181   1.837   9.039 -0.6623 -1.7812 -0.3424
  440MOL0     H58033   6.087   1.679   8.867 -2.9549  1.3579 -3.4963
  440MOL0     H58034   6.013   1.614   8.598  0.1391 -0.4642  1.9027
  440MOL0     H58035   6.115   1.483   8.661 -0.8440  0.7899  0.4109
  440MOL0     H58036   6.269   1.520   8.477  0.3484  2.0074  1.3633
  440MOL0     H58037   6.185   1.660   8.413  1.3028 -0.3516 -0.4128
  440MOL0     H58038   6.139   1.447   8.295  0.2166 -2.8916  0.9927
  440MOL0     H58039   6.057   1.384   8.427  2.0786 -2.1779 -1.6063
  440MOL0     H58040   5.974   1.623   8.250  0.6667  0.9202  0.4989
  440MOL0     H58041   5.920   1.634   8.405  2.4968 -1.1102  1.4656
  440MOL0     H58042   5.954   1.502   8.049  1.0129 -0.3029  3.9947
  440MOL0     H58043   5.914   1.349   7.869  1.9404 -3.4568  1.3680
  440MOL0     H58044   5.650   0.902   7.704 -0.5522  0.1803 -0.0704
  440MOL0     H58045   5.675   0.781   7.519 -0.8953  0.7284 -0.1491
  440MOL0     H58046   5.698   0.926   7.186 -0.9112  0.7559  0.1889
  440MOL0     H58047   5.632   0.794   7.259 -0.6608 -2.1059 -1.2490
  440MOL0     H58048   5.768   0.616   7.140  2.8353  0.2762  3.7706
  440MOL0     H58049   5.873   0.728   7.072  0.4920 -6.7881 -1.3820
  440MOL0     H58050   5.712   0.815   6.910  0.7116  0.7412  0.8761
  440MOL0     H58051   5.579   0.770   7.020  0.0351 -1.9693  0.8460
  440MOL0     H58052   5.735   0.562   6.858 -0.2994  1.9532 -1.9050
  440MOL0     H58053   5.603   0.531   6.975  1.1269  1.6787  3.6400
  440MOL0     H58054   5.558   0.529   6.731 -3.1655 -1.3902  1.2488
  440MOL0     H58055   5.589   0.706   6.716 -1.5304  0.6335 -1.5835
  440MOL0     H58056   5.412   0.765   6.858 -1.9511  0.9997  0.7225
  440MOL0     H58057   5.377   0.614   6.910  1.0084  3.7601  1.8187
  440MOL0     H58058   5.218   0.666   6.719  0.8074  1.7207  0.4906
  440MOL0     H58059   5.347   0.732   6.631  0.5387 -0.2362  1.0321
  440MOL0     H58060   5.418   0.501   6.567  0.4510  3.4494  0.3228
  440MOL0     H58061   5.246   0.530   6.531 -0.7008  0.5212  0.7214
  440MOL0     H58062   5.983   1.028   7.371  2.1112  0.2494  1.9966
  440MOL0     H58063   5.967   1.175   7.570 -0.8498  0.5596  0.4701
  440MOL0     H58064   5.649   1.122   8.126  1.7162 -0.8054  0.5759
  440MOL0     H58065   5.710   1.266   8.313  2.2547  0.0211  0.4861
  440MOL0     H58066   6.516   1.106   9.332  0.0596  1.5106 -0.4715
  440MOL0     H58067   6.528   0.873   9.262  0.3598 -1.6059 -1.3943
  440MOL0     H58068   6.540   0.702   8.787 -1.0924 -1.6970 -1.1456
  440MOL0     H58069   6.488   0.495   8.692  0.5883  2.5164 -0.4864
  440MOL0     H58070   6.492   0.246   8.603  1.5231  1.0577  0.0341
  440MOL0     H58071   6.381   0.294   8.732 -0.9959 -1.9102  2.5738
  440MOL0     H58072   6.482   0.001   8.676 -0.5638 -0.8898  0.9599
  440MOL0     H58073   6.400   0.040   8.815  1.2664 -0.2545 -0.0028
  440MOL0     H58074   6.269   0.166   8.571  1.9050 -1.1495 -0.7840
  440MOL0     H58075   6.200   0.091   8.708  2.8751  1.1579  0.9379
  440MOL0     H58076   6.279  -0.145   8.591 -1.6747 -0.2790  1.3991
  440MOL0     H58077   6.153  -0.068   8.522 -0.5758 -0.9588 -2.5148
  440MOL0     H58078   6.463   0.003   8.240 -1.2799 -0.0334 -1.9262
  440MOL0     H58079   6.730   0.305   9.004 -1.3022 -0.2010  0.6838
  440MOL0     H58080   6.785   0.512   9.095 -1.0207 -1.4689  0.5835
  441MOL0     O58081   7.925   5.772  10.014  0.1624 -1.1637 -0.4897
  441MOL0     C58082   7.881   5.811  10.126 -1.3604  0.1844 -0.0458
  441MOL0     O58083   7.753   5.864  10.153 -0.4213 -0.1279  1.0383
  441MOL0     C58084   7.676   5.877  10.052  0.7645 -0.1945 -0.1594
  441MOL0     C58085   7.624   5.772   9.972 -0.4748  0.4017  0.5271
  441MOL0     C58086   7.523   5.802   9.875  0.2221  0.2228  0.0766
  441MOL0     C58087   7.484   5.930   9.848  0.2274 -0.1619 -0.3876
  441MOL0     O58088   7.386   5.938   9.754 -0.4049 -0.1392 -0.2034
  441MOL0     C58089   7.345   6.072   9.711 -0.1014  0.8256 -0.0617
  441MOL0     C58090   7.258   6.121   9.826  0.6080 -0.4639  0.4652
  441MOL0     C58091   7.105   6.132   9.791  0.5864 -0.0453 -0.2978
  441MOL0     C58092   7.087   6.223   9.670 -0.7746 -0.6652 -0.0846
  441MOL0     C58093   6.934   6.263   9.662  0.5075 -0.0303  0.8230
  441MOL0     C58094   6.923   6.366   9.553 -0.1002 -0.8753 -1.2493
  441MOL0     C58095   6.785   6.419   9.522  0.6355 -0.1374 -0.4046
  441MOL0     C58096   6.729   6.497   9.643  0.1132 -0.9751 -0.1684
  441MOL0     N58097   6.826   6.595   9.700  0.7592  0.0999 -0.0871
  441MOL0     C58098   6.885   6.700   9.636 -0.4033 -0.9564 -0.0752
  441MOL0     C58099   6.960   6.760   9.742 -0.6101  0.4692  0.5104
  441MOL0     C58100   7.050   6.882   9.727 -0.4974  0.1411  0.5112
  441MOL0     C58101   7.009   6.986   9.834 -0.6401  0.9393 -0.2350
  441MOL0     C58102   7.122   7.094   9.841 -0.3670 -0.1177 -0.2985
  441MOL0     C58103   7.079   7.200   9.937  0.0771  0.6100 -0.2723
  441MOL0     O58104   6.957   7.257   9.894  1.0172 -0.2786 -0.2847
  441MOL0     C58105   6.946   7.391   9.881 -0.4053 -0.5711  0.7376
  441MOL0     C58106   6.876   7.437   9.768  0.8136  0.0422 -0.3760
  441MOL0     C58107   6.849   7.568   9.745 -0.4178  0.0828  0.4572
  441MOL0     C58108   6.894   7.669   9.832  0.1458 -0.3779 -0.9570
  441MOL0     C58109   6.880   7.808   9.800  0.5965 -0.5993 -0.0005
  441MOL0     O58110   6.793   7.829   9.702 -0.5041  0.1817  0.2185
  441MOL0     C58111   6.773   7.955   9.655 -1.0203 -0.1039  0.2495
  441MOL0     C58112   6.794   7.974   9.518  0.1320  0.5217 -1.2398
  441MOL0     C58113   6.774   8.089   9.460  0.4700 -0.1847  0.6588
  441MOL0     C58114   6.725   8.197   9.532 -0.8719  0.4469 -0.8165
  441MOL0     O58115   6.701   8.319   9.469 -0.2805 -0.4739  0.7825
  441MOL0     C58116   6.649   8.345   9.338 -0.1246  0.6783  0.5027
  441MOL0     C58117   6.755   8.397   9.243 -0.5162  0.4499 -0.7041
  441MOL0     C58118   6.709   8.403   9.093  0.4013  0.4969 -0.1720
  441MOL0     C58119   6.780   8.520   9.012  1.2087  0.2774 -0.5966
  441MOL0     C58120   6.935   8.519   9.002 -0.4874 -0.2096 -0.3615
  441MOL0     C58121   6.984   8.405   8.912 -0.4805 -0.0402  0.6516
  441MOL0     C58122   7.140   8.401   8.910  0.6965  0.3700  0.4670
  441MOL0     C58123   7.180   8.257   8.941  0.4233 -0.5026 -0.7766
  441MOL0    Cl58124   7.131   8.212   9.112 -0.4431 -0.2952 -0.3259
  441MOL0     C58125   6.712   8.187   9.673  0.0416 -0.4226 -0.1379
  441MOL0     C58126   6.741   8.066   9.736  0.4095  0.6451  0.5137
  441MOL0     O58127   6.939   7.895   9.856  0.0886 -0.9165  0.1481
  441MOL0     C58128   6.964   7.625   9.951 -0.9862  0.3870  0.0895
  441MOL0     C58129   6.995   7.485   9.977 -0.0284 -0.2936 -0.8855
  441MOL0     N58130   6.933   6.700   9.859 -0.0634  0.1189 -0.4976
  441MOL0     N58131   6.850   6.598   9.835 -0.2288 -0.1649  0.2987
  441MOL0     C58132   7.551   6.038   9.918 -0.4705  0.1290  0.7008
  441MOL0     C58133   7.644   6.009  10.020 -0.0701 -0.8200 -0.7632
  441MOL0     C58134   7.961   5.799  10.253 -0.2035 -0.8934 -0.2474
  441MOL0     C58135   8.090   5.757  10.247 -0.4095  0.2080  1.0704
  441MOL0     C58136   8.172   5.749  10.357  0.0216  0.4868 -0.2626
  441MOL0     C58137   8.128   5.773  10.486  1.1630 -0.5183  0.5017
  441MOL0     O58138   8.209   5.774  10.597  0.1714 -0.0987 -0.4458
  441MOL0     C58139   8.346   5.758  10.579 -0.6162 -0.8269 -0.6768
  441MOL0     C58140   8.381   5.621  10.625 -0.8984  0.4370 -0.5978
  441MOL0     C58141   8.531   5.601  10.660  0.1156 -0.0310  0.2476
  441MOL0     C58142   8.584   5.465  10.642  0.3126  0.6824  0.5948
  441MOL0     C58143   8.513   5.369  10.734 -0.5204  0.8265  0.3160
  441MOL0     C58144   8.467   5.282  10.812 -0.6679  0.2348  0.2726
  441MOL0     C58145   7.996   5.808  10.499  0.4776  0.0873  1.0123
  441MOL0     C58146   7.921   5.838  10.383 -0.5891  0.0117 -0.7774
  441MOL0     H58147   7.655   5.668   9.978  0.7757  0.7029 -0.3435
  441MOL0     H58148   7.482   5.724   9.813 -0.8565 -0.7465  1.9077
  441MOL0     H58149   7.294   6.061   9.615 -0.6587 -2.1394  0.4674
  441MOL0     H58150   7.428   6.141   9.697  1.3043 -0.5467  1.1802
  441MOL0     H58151   7.301   6.213   9.866 -4.7806  1.8554  1.8975
  441MOL0     H58152   7.257   6.049   9.909  7.0630 -0.3259  1.1422
  441MOL0     H58153   7.042   6.165   9.873 -0.1301  1.6542 -1.4654
  441MOL0     H58154   7.063   6.034   9.766 -0.6026  0.7899 -1.7116
  441MOL0     H58155   7.148   6.313   9.680 -0.4344 -0.9797  0.6940
  441MOL0     H58156   7.103   6.176   9.572  0.9511 -4.1727  1.7347
  441MOL0     H58157   6.900   6.300   9.759 -2.0012 -1.3298  0.5318
  441MOL0     H58158   6.869   6.177   9.642  1.1220 -0.0932 -1.0307
  441MOL0     H58159   6.969   6.334   9.459  1.0362  0.8949 -1.3333
  441MOL0     H58160   6.992   6.448   9.575 -0.6473 -0.2102 -1.9862
  441MOL0     H58161   6.783   6.479   9.431 -2.7184 -2.1185 -1.8406
  441MOL0     H58162   6.711   6.340   9.505  0.9383 -0.5331  0.0866
  441MOL0     H58163   6.710   6.425   9.722 -0.6456 -0.3169  0.2589
  441MOL0     H58164   6.635   6.551   9.637 -0.2214 -0.9387  3.3235
  441MOL0     H58165   6.876   6.728   9.532 -4.9926 -0.3961  0.2551
  441MOL0     H58166   7.037   6.932   9.631 -1.4847  0.1496  0.6393
  441MOL0     H58167   7.155   6.861   9.748  0.9486  4.6408 -0.9808
  441MOL0     H58168   6.980   6.931   9.924  0.6394 -0.0115 -0.3705
  441MOL0     H58169   6.911   7.025   9.807 -2.2602 -1.1155  2.2605
  441MOL0     H58170   7.218   7.060   9.882 -1.5906 -1.3157  1.7687
  441MOL0     H58171   7.127   7.133   9.739  3.5004 -2.2894 -1.1526
  441MOL0     H58172   7.157   7.273   9.960 -1.4536  3.6216 -3.6636
  441MOL0     H58173   7.041   7.149  10.025  0.0421  0.8740 -0.1353
  441MOL0     H58174   6.836   7.364   9.698  0.3507  0.8017 -0.9272
  441MOL0     H58175   6.794   7.596   9.656 -2.8323  1.4829  2.2686
  441MOL0     H58176   6.832   7.889   9.461  1.6452  0.2915  0.0704
  441MOL0     H58177   6.793   8.093   9.353  2.9371  0.7361  1.0549
  441MOL0     H58178   6.568   8.417   9.350  0.8903  2.1894 -1.1393
  441MOL0     H58179   6.607   8.256   9.290 -1.6676  1.6714 -0.0816
  441MOL0     H58180   6.852   8.346   9.244 -1.1922 -0.8834 -0.3962
  441MOL0     H58181   6.775   8.495   9.288 -2.0501  0.7721 -0.6944
  441MOL0     H58182   6.600   8.415   9.096  0.4357  0.9747 -0.7656
  441MOL0     H58183   6.729   8.313   9.033 -1.7045 -0.1267 -0.0162
  441MOL0     H58184   6.745   8.526   8.908 -2.7491  0.7196  0.5928
  441MOL0     H58185   6.752   8.614   9.062  1.0367 -0.3565  0.5236
  441MOL0     H58186   6.980   8.520   9.102 -1.9853 -0.6754  0.3451
  441MOL0     H58187   6.963   8.616   8.960  3.8536 -0.2333  1.8539
  441MOL0     H58188   6.962   8.423   8.806 -0.2465 -0.9704  0.4354
  441MOL0     H58189   6.944   8.310   8.951 -1.0706 -0.4521 -0.8698
  441MOL0     H58190   7.185   8.429   8.815  0.5791  0.2525  0.3761
  441MOL0     H58191   7.186   8.458   8.991 -1.2497 -1.2001  2.8106
  441MOL0     H58192   7.288   8.239   8.930  0.7373  1.5387 -1.4232
  441MOL0     H58193   7.136   8.189   8.869  2.5658 -0.5666 -2.1264
  441MOL0     H58194   6.676   8.277   9.722  2.6742  0.7607 -0.2258
  441MOL0     H58195   6.734   8.068   9.844 -0.7490  1.5756  0.4427
  441MOL0     H58196   6.996   7.702  10.019  0.1462  0.5966 -0.6516
  441MOL0     H58197   7.047   7.461  10.070  1.2410  3.1608 -0.5774
  441MOL0     H58198   7.536   6.143   9.899 -1.1052 -0.3246 -1.6851
  441MOL0     H58199   7.690   6.086  10.081  0.7716 -0.8642 -1.3316
  441MOL0     H58200   8.134   5.731  10.151 -0.2435 -0.7825  1.4047
  441MOL0     H58201   8.273   5.730  10.324  0.3412  1.7170 -0.0366
  441MOL0     H58202   8.381   5.833  10.651 -0.1723 -2.1663  0.5777
  441MOL0     H58203   8.393   5.778  10.483  0.3043 -4.4746 -1.1517
  441MOL0     H58204   8.337   5.594  10.721  1.6677 -0.3154  0.4658
  441MOL0     H58205   8.355   5.541  10.555  0.0405 -2.1615  1.8508
  441MOL0     H58206   8.542   5.651  10.757 -0.6691  2.1847 -0.7406
  441MOL0     H58207   8.581   5.663  10.585 -0.3814 -0.3315 -0.3398
  441MOL0     H58208   8.561   5.442  10.538  3.5968 -0.8106  0.0631
  441MOL0     H58209   8.692   5.457  10.658  0.1805  0.2520  1.3792
  441MOL0     H58210   8.409   5.227  10.883  2.4259 -2.7219  0.7444
  441MOL0     H58211   7.956   5.840  10.595 -1.1326 -1.4994  0.9256
  441MOL0     H58212   7.821   5.879  10.390 -0.8881 -0.7687 -0.3649
  442MOL0     O58213   0.164   7.877   0.696  0.2609  0.4776 -0.3110
  442MOL0     C58214   0.176   7.760   0.652 -0.2761 -0.1396  0.1124
  442MOL0     O58215   0.169   7.722   0.526  0.6123  0.4997 -0.3827
  442MOL0     C58216   0.160   7.825   0.434 -0.2561  0.2071  0.2396
  442MOL0     C58217   0.035   7.860   0.391 -0.0145 -0.4436  0.1025
  442MOL0     C58218   0.017   7.977   0.309  0.2663  0.7098  0.2696
  442MOL0     C58219   0.122   8.041   0.263 -0.5559  0.7987  1.0673
  442MOL0     O58220   0.082   8.143   0.172 -0.4471  0.4638  0.1756
  442MOL0     C58221   0.185   8.172   0.083 -0.5378 -0.1914 -0.1284
  442MOL0     C58222   0.137   8.227  -0.044 -0.4450 -0.3880  0.2667
  442MOL0     C58223   0.070   8.364  -0.019 -1.2947 -0.3003  0.6104
  442MOL0     C58224   0.052   8.440  -0.152 -0.2153  0.0998 -0.4710
  442MOL0     C58225   0.042   8.589  -0.118 -0.0396  0.3278  0.1386
  442MOL0     C58226   0.059   8.654  -0.252 -1.0898 -0.7820  0.0406
  442MOL0     C58227   0.033   8.806  -0.236  0.0310  0.4564  0.4441
  442MOL0     C58228   0.015   8.863  -0.376 -0.3677  0.2751  0.6121
  442MOL0     N58229   0.117   8.963  -0.404  0.4318  0.0653 -0.4350
  442MOL0     C58230   0.132   9.077  -0.340 -0.2838  0.1882 -0.2812
  442MOL0     C58231   0.247   9.124  -0.373 -0.3711  0.1539  0.7974
  442MOL0     C58232   0.317   9.244  -0.311  0.5514  0.5819  0.3137
  442MOL0     C58233   0.399   9.206  -0.193 -0.9016  0.3702  0.3301
  442MOL0     C58234   0.465   9.331  -0.131  0.3630  0.0858 -0.5107
  442MOL0     C58235   0.564   9.316  -0.011  0.9124 -0.4448  0.5210
  442MOL0     O58236   0.463   9.321   0.092 -0.6694  0.0686 -1.1322
  442MOL0     C58237   0.507   9.366   0.210  0.5060  0.3307  0.0769
  442MOL0     C58238   0.618   9.305   0.274 -0.1194 -0.2793  1.1354
  442MOL0     C58239   0.642   9.350   0.405 -0.3718 -0.2845  0.2186
  442MOL0     C58240   0.566   9.453   0.471 -0.5794  0.0628 -0.6877
  442MOL0     C58241   0.586   9.482   0.614  0.3346 -0.2071 -0.2798
  442MOL0     O58242   0.478   9.538   0.684 -0.0691 -1.1788  0.3657
  442MOL0     C58243   0.494   9.605   0.805 -0.2098  0.1257 -0.5044
  442MOL0     C58244   0.419   9.724   0.831  1.2278  0.2322 -0.6073
  442MOL0     C58245   0.415   9.780   0.950  0.0912 -0.3032  0.2605
  442MOL0     C58246   0.482   9.728   1.059  0.0461 -0.0073 -0.4197
  442MOL0     O58247   0.477   9.792   1.182 -0.2662 -0.1310 -0.0369
  442MOL0     C58248   0.598   9.843   1.235  0.2946 -1.3597 -0.3410
  442MOL0     C58249   0.578   9.991   1.285 -0.4638 -0.8876 -0.1064
  442MOL0     C58250   0.510  10.085   1.195 -0.1869  0.1741  0.2420
  442MOL0     C58251   0.521  10.223   1.245  0.1961 -0.5634 -0.7021
  442MOL0     C58252   0.426  10.323   1.179  0.4038  0.0745  0.9147
  442MOL0     C58253   0.450  10.467   1.221 -0.0773 -0.6015  1.1414
  442MOL0     C58254   0.362  10.566   1.143 -0.0829  0.7782 -0.5114
  442MOL0     C58255   0.343  10.695   1.217 -0.5955  0.2213  0.5620
  442MOL0    Cl58256   0.284  10.687   1.391  0.1789 -0.0857  0.2065
  442MOL0     C58257   0.560   9.613   1.048 -1.3185  0.4279  0.3058
  442MOL0     C58258   0.561   9.551   0.916  0.8328 -0.6210 -0.5841
  442MOL0     O58259   0.704   9.484   0.649  0.4109  0.2939  0.4326
  442MOL0     C58260   0.460   9.502   0.398 -0.8051  0.4523 -0.2713
  442MOL0     C58261   0.429   9.462   0.271 -0.3093  0.8934  0.4139
  442MOL0     N58262   0.298   9.044  -0.480 -0.0972  0.8372 -0.1803
  442MOL0     N58263   0.216   8.942  -0.490 -0.3832 -0.9710 -0.7632
  442MOL0     C58264   0.256   8.001   0.292  0.6154  0.4080 -0.4683
  442MOL0     C58265   0.274   7.892   0.381 -0.4984  0.1131  0.1408
  442MOL0     C58266   0.198   7.650   0.746  0.0755 -0.1562  0.2025
  442MOL0     C58267   0.236   7.671   0.877 -0.9587 -0.3299 -0.4323
  442MOL0     C58268   0.269   7.566   0.968  0.8426  0.2368  0.3754
  442MOL0     C58269   0.276   7.430   0.915 -0.3202 -1.0653  0.9688
  442MOL0     O58270   0.292   7.318   0.987  0.0797  0.0829 -0.4931
  442MOL0     C58271   0.239   7.327   1.114  0.3666  0.3690 -1.4614
  442MOL0     C58272   0.205   7.195   1.185 -0.4821  0.0641 -0.9452
  442MOL0     C58273   0.114   7.222   1.303 -1.2103  0.5518  0.7388
  442MOL0     C58274   0.039   7.099   1.349  0.4944 -0.0402 -0.7438
  442MOL0     C58275  -0.064   7.059   1.255  0.5113 -0.4068 -0.6673
  442MOL0     C58276  -0.142   7.037   1.163  0.3019 -0.6810  1.5744
  442MOL0     C58277   0.235   7.420   0.782 -0.8709  0.2258  1.8897
  442MOL0     C58278   0.185   7.519   0.699  0.5100 -0.2014  0.2184
  442MOL0     H58279  -0.040   7.814   0.455  0.6582  0.6445  1.7361
  442MOL0     H58280  -0.081   8.006   0.274 -0.2940 -0.5983  0.6841
  442MOL0     H58281   0.237   8.078   0.060 -2.3440 -1.4992  0.9183
  442MOL0     H58282   0.261   8.234   0.132  0.8998 -4.4516  3.7791
  442MOL0     H58283   0.069   8.155  -0.090  0.7555 -1.5801  0.2765
  442MOL0     H58284   0.222   8.247  -0.111 -0.2295 -0.5756  0.4807
  442MOL0     H58285   0.130   8.425   0.050 -1.0787 -0.9672  1.0250
  442MOL0     H58286  -0.028   8.339   0.022 -2.8560  3.1112 -0.6514
  442MOL0     H58287   0.129   8.415  -0.226 -0.5302  0.5463 -0.9559
  442MOL0     H58288  -0.044   8.410  -0.195 -1.6385 -1.3359  3.2744
  442MOL0     H58289   0.116   8.618  -0.043  1.6769  1.2590 -1.8102
  442MOL0     H58290  -0.045   8.624  -0.062  0.4893  1.8445  0.0739
  442MOL0     H58291  -0.009   8.613  -0.327 -1.1971  3.0537 -2.2340
  442MOL0     H58292   0.163   8.631  -0.278 -0.3280 -2.0663  3.6710
  442MOL0     H58293  -0.062   8.832  -0.188 -1.3382 -1.6906 -0.9364
  442MOL0     H58294   0.111   8.856  -0.178 -3.5875  4.1749  2.7247
  442MOL0     H58295  -0.084   8.904  -0.399  0.0291  0.6024 -0.5637
  442MOL0     H58296   0.027   8.790  -0.457 -1.4025  0.3323  0.3888
  442MOL0     H58297   0.069   9.120  -0.264 -0.7541  1.1773 -1.2094
  442MOL0     H58298   0.243   9.316  -0.274 -0.2132  0.7563 -1.4493
  442MOL0     H58299   0.383   9.288  -0.385  1.4733 -0.8275  0.2667
  442MOL0     H58300   0.485   9.148  -0.228 -1.6173  0.8414 -2.3601
  442MOL0     H58301   0.346   9.154  -0.113 -0.2985 -0.3261  0.2857
  442MOL0     H58302   0.527   9.365  -0.215 -0.2832 -0.2866 -1.1376
  442MOL0     H58303   0.395   9.413  -0.110 -0.5259 -0.3009 -1.8875
  442MOL0     H58304   0.638   9.395   0.002  1.0738 -0.4086 -0.5707
  442MOL0     H58305   0.622   9.224  -0.001  3.4060  0.9409 -0.5735
  442MOL0     H58306   0.685   9.228   0.236 -0.3407 -0.2093  0.6116
  442MOL0     H58307   0.721   9.299   0.460 -0.4110 -0.0428  0.4973
  442MOL0     H58308   0.369   9.767   0.746 -0.3969 -0.9915 -0.3297
  442MOL0     H58309   0.368   9.878   0.948 -2.6577 -1.4948  0.9738
  442MOL0     H58310   0.675   9.848   1.157  3.2677  1.7842  2.4384
  442MOL0     H58311   0.639   9.779   1.314  2.5220 -0.6352 -0.8315
  442MOL0     H58312   0.682  10.017   1.303  1.1523 -3.1133 -4.6821
  442MOL0     H58313   0.526   9.975   1.380 -1.9583  0.4827 -0.6439
  442MOL0     H58314   0.407  10.049   1.191  0.2702 -1.2121  0.3519
  442MOL0     H58315   0.546  10.082   1.092 -1.4518 -0.4408 -0.2054
  442MOL0     H58316   0.506  10.230   1.353  1.9192  3.1570 -0.5458
  442MOL0     H58317   0.617  10.262   1.208  0.2364 -1.0770 -1.1626
  442MOL0     H58318   0.325  10.298   1.212  0.8973  1.6663  3.9808
  442MOL0     H58319   0.438  10.316   1.070 -2.4155  1.6485  0.3947
  442MOL0     H58320   0.553  10.503   1.212  0.4521 -1.1929  3.9330
  442MOL0     H58321   0.433  10.469   1.329  0.5367 -4.1751  1.4185
  442MOL0     H58322   0.410  10.577   1.045  1.2133  1.8375  0.2101
  442MOL0     H58323   0.262  10.523   1.129  0.4872 -0.6005 -0.4783
  442MOL0     H58324   0.270  10.746   1.154  0.0814 -0.5343 -0.8627
  442MOL0     H58325   0.438  10.747   1.203 -0.4151  0.5073  2.4938
  442MOL0     H58326   0.624   9.578   1.129 -1.4044 -0.3136  0.0652
  442MOL0     H58327   0.595   9.449   0.905 -0.1160 -1.5874  3.6807
  442MOL0     H58328   0.390   9.568   0.449 -1.2740 -0.1890 -0.0784
  442MOL0     H58329   0.335   9.507   0.240 -0.5746  0.1702  0.1518
  442MOL0     H58330   0.344   8.052   0.254 -0.7665  2.4451 -1.0678
  442MOL0     H58331   0.375   7.867   0.413 -0.0788 -0.2014 -1.3485
  442MOL0     H58332   0.239   7.774   0.912  1.5121 -0.0672 -1.2036
  442MOL0     H58333   0.286   7.584   1.073  0.4443  2.2876  0.1381
  442MOL0     H58334   0.143   7.377   1.100  0.1932 -0.2581 -2.5702
  442MOL0     H58335   0.304   7.384   1.182 -1.6535  1.7557 -0.5826
  442MOL0     H58336   0.152   7.138   1.108  1.4123  0.0827 -2.3093
  442MOL0     H58337   0.294   7.133   1.195 -1.1827 -1.2364 -2.3759
  442MOL0     H58338   0.036   7.299   1.294 -1.2091  0.8078  2.4886
  442MOL0     H58339   0.187   7.254   1.378 -0.7690 -0.0964  0.5873
  442MOL0     H58340   0.104   7.015   1.376  0.5206  0.7298  1.8722
  442MOL0     H58341  -0.007   7.132   1.443  1.9071  2.6317 -0.8728
  442MOL0     H58342  -0.220   7.006   1.096  1.4622  0.3666 -0.3514
  442MOL0     H58343   0.249   7.319   0.745 -0.1128  0.4168  1.6354
  442MOL0     H58344   0.162   7.495   0.596  0.8157  1.9023 -0.3957
  443MOL0     O58345   1.136   8.331   5.274 -0.0056  0.0490 -0.2046
  443MOL0     C58346   1.217   8.363   5.185  0.0449  0.0583  0.3255
  443MOL0     O58347   1.240   8.491   5.132  0.0040  0.3266  0.0861
  443MOL0     C58348   1.156   8.592   5.187  0.2776  0.4326  0.5878
  443MOL0     C58349   1.019   8.595   5.154  0.1286  0.3295  0.2721
  443MOL0     C58350   0.938   8.680   5.218  0.6470  0.0220  0.4637
  443MOL0     C58351   0.977   8.756   5.319 -0.5736  0.1357 -0.9885
  443MOL0     O58352   0.887   8.816   5.406  0.1361  0.7358  0.2655
  443MOL0     C58353   0.801   8.910   5.327  1.1686 -0.0607 -0.1123
  443MOL0     C58354   0.659   8.876   5.372  0.4230  0.2687 -0.2110
  443MOL0     C58355   0.596   8.760   5.300  0.8580  0.6363  0.3602
  443MOL0     C58356   0.557   8.803   5.162  0.6095 -0.5106  0.7303
  443MOL0     C58357   0.478   8.679   5.100 -0.3591 -0.1017  0.2692
  443MOL0     C58358   0.452   8.708   4.951 -0.9050  0.1141 -0.3878
  443MOL0     C58359   0.344   8.613   4.908  0.5951 -0.3066  0.3265
  443MOL0     C58360   0.328   8.592   4.764  0.6840 -0.7254  0.2453
  443MOL0     N58361   0.308   8.723   4.696 -0.5009  0.1401 -1.0114
  443MOL0     C58362   0.221   8.822   4.718  0.9900 -0.1082  0.0603
  443MOL0     C58363   0.231   8.908   4.615 -0.4222 -1.2919  0.0533
  443MOL0     C58364   0.140   9.033   4.617  0.8689 -0.1937 -0.4392
  443MOL0     C58365   0.193   9.156   4.545  0.1510  0.3200  0.1949
  443MOL0     C58366   0.200   9.121   4.391  0.2427  0.1663  0.8707
  443MOL0     C58367   0.326   9.177   4.325 -0.0679 -0.1452 -0.1589
  443MOL0     O58368   0.309   9.319   4.357  0.1467  0.0691 -0.0932
  443MOL0     C58369   0.423   9.391   4.386  0.1299  0.7787  1.0992
  443MOL0     C58370   0.547   9.354   4.336 -0.6908 -0.5175  0.5584
  443MOL0     C58371   0.656   9.430   4.383  0.1390 -0.6372 -0.2213
  443MOL0     C58372   0.637   9.528   4.484 -0.6163  0.3695  0.7424
  443MOL0     C58373   0.761   9.599   4.537 -0.7958 -0.3194 -0.5799
  443MOL0     O58374   0.861   9.524   4.599 -0.0157 -0.2030  0.5809
  443MOL0     C58375   0.979   9.579   4.644  0.0453  0.1290 -0.2941
  443MOL0     C58376   1.069   9.482   4.686  0.4495  0.2205  0.1503
  443MOL0     C58377   1.191   9.519   4.742 -1.1127  0.6055 -0.0539
  443MOL0     C58378   1.227   9.647   4.770  1.0084 -0.6737 -0.0928
  443MOL0     O58379   1.340   9.685   4.838  0.7303  0.0367  0.9561
  443MOL0     C58380   1.346   9.632   4.970  0.9444  0.3451  0.8533
  443MOL0     C58381   1.425   9.715   5.058  0.6670 -0.2236  0.7664
  443MOL0     C58382   1.350   9.856   5.062  0.1564  0.9722  0.3244
  443MOL0     C58383   1.407   9.931   5.174  0.3780  0.2949 -0.1260
  443MOL0     C58384   1.357  10.074   5.165  0.2595  0.1181 -0.6986
  443MOL0     C58385   1.437  10.159   5.261 -0.1694 -0.2743  0.7371
  443MOL0     C58386   1.348  10.246   5.339 -0.2113  0.5841 -0.4900
  443MOL0     C58387   1.431  10.355   5.416 -0.3029 -0.2794  0.2533
  443MOL0    Cl58388   1.504  10.469   5.289 -0.0052  0.4192  0.2200
  443MOL0     C58389   1.138   9.746   4.735 -0.6187  0.7554  0.0046
  443MOL0     C58390   1.014   9.710   4.673 -0.6044  1.2403 -0.2615
  443MOL0     O58391   0.760   9.715   4.532 -0.0344  0.1160  0.0990
  443MOL0     C58392   0.509   9.566   4.525 -0.4723  0.2517 -0.1756
  443MOL0     C58393   0.400   9.504   4.456  0.5557 -0.6427  0.2462
  443MOL0     N58394   0.324   8.867   4.532 -0.8906  0.4885  1.0675
  443MOL0     N58395   0.358   8.754   4.583 -0.9922 -0.7785  0.2898
  443MOL0     C58396   1.116   8.752   5.362  1.9734 -0.1890  1.1763
  443MOL0     C58397   1.201   8.667   5.294  0.4008 -0.2009 -0.2471
  443MOL0     C58398   1.300   8.254   5.131 -0.3120  0.0371 -1.0332
  443MOL0     C58399   1.426   8.270   5.074  0.3569  0.1391 -0.2859
  443MOL0     C58400   1.516   8.164   5.043 -0.1777 -0.7539 -1.1900
  443MOL0     C58401   1.468   8.036   5.062 -0.6369  0.0305 -0.5575
  443MOL0     O58402   1.550   7.934   5.025  0.0695 -0.2827 -0.3513
  443MOL0     C58403   1.636   7.945   4.912  0.7759 -0.4283 -0.3453
  443MOL0     C58404   1.634   7.798   4.862  0.4579  0.4273 -0.2236
  443MOL0     C58405   1.721   7.716   4.944 -0.2373 -0.1378 -0.3317
  443MOL0     C58406   1.871   7.711   4.903 -0.3281  0.4118  0.5630
  443MOL0     C58407   1.930   7.588   4.954 -0.3945  0.6140  0.4664
  443MOL0     C58408   1.994   7.495   5.007 -0.0251  0.3642 -0.6900
  443MOL0     C58409   1.353   8.019   5.139  0.0200 -1.3314  0.4964
  443MOL0     C58410   1.262   8.120   5.158 -0.2570  1.0034  0.0861
  443MOL0     H58411   0.966   8.529   5.086  0.4850 -0.6450  0.9270
  443MOL0     H58412   0.833   8.693   5.196  1.0684  0.6882 -1.2625
  443MOL0     H58413   0.796   8.901   5.218 -1.8456 -1.6600  0.0429
  443MOL0     H58414   0.830   9.012   5.353 -1.2880  0.6798 -0.0134
  443MOL0     H58415   0.599   8.966   5.358  1.6005  0.8191 -2.0914
  443MOL0     H58416   0.660   8.861   5.481  1.4918  3.0055  0.2225
  443MOL0     H58417   0.506   8.728   5.353  1.6350 -1.7223  0.3833
  443MOL0     H58418   0.670   8.680   5.289  0.6206  0.4044  0.4478
  443MOL0     H58419   0.503   8.897   5.153  3.2720  0.9216 -2.1645
  443MOL0     H58420   0.646   8.821   5.101  0.4824 -0.4543  0.5617
  443MOL0     H58421   0.389   8.672   5.162 -0.1008  1.1966  0.8156
  443MOL0     H58422   0.540   8.588   5.105  0.2069  0.2893  0.4534
  443MOL0     H58423   0.548   8.698   4.901 -1.6858 -0.0162 -1.9053
  443MOL0     H58424   0.423   8.813   4.951  0.4535  0.5311  0.9681
  443MOL0     H58425   0.366   8.518   4.957  3.7146  0.9596  1.6165
  443MOL0     H58426   0.249   8.649   4.951  0.0192 -0.0316 -1.1399
  443MOL0     H58427   0.244   8.526   4.744  2.4162 -2.8447 -0.5029
  443MOL0     H58428   0.419   8.543   4.727  1.2608  0.4971 -0.0273
  443MOL0     H58429   0.141   8.836   4.789  1.2527  3.6625 -0.1950
  443MOL0     H58430   0.113   9.064   4.719  2.0632  2.1172 -0.7591
  443MOL0     H58431   0.048   9.005   4.564  0.1622  0.4103  0.4357
  443MOL0     H58432   0.291   9.176   4.590  0.5071  1.5633 -1.0829
  443MOL0     H58433   0.132   9.245   4.554  1.7319  1.5869 -1.0231
  443MOL0     H58434   0.205   9.013   4.376  3.9881  0.2330  0.5638
  443MOL0     H58435   0.105   9.152   4.347  0.9802 -1.2606 -1.9660
  443MOL0     H58436   0.337   9.161   4.217  1.0132  1.0932 -0.2592
  443MOL0     H58437   0.413   9.124   4.365  0.7333  0.8157 -0.5776
  443MOL0     H58438   0.555   9.280   4.257  0.6376 -0.4212  0.5738
  443MOL0     H58439   0.754   9.410   4.342 -0.4840 -0.6149 -1.8257
  443MOL0     H58440   1.041   9.384   4.648 -0.2772  0.3570  0.3132
  443MOL0     H58441   1.261   9.441   4.769 -2.4844 -0.9400 -0.7690
  443MOL0     H58442   1.374   9.526   4.977  0.3569  0.1212  0.0023
  443MOL0     H58443   1.245   9.629   5.011 -0.9078 -0.5535 -3.1988
  443MOL0     H58444   1.524   9.722   5.012  1.8936  2.1198  3.4041
  443MOL0     H58445   1.430   9.659   5.152 -2.0054 -2.7309 -0.4395
  443MOL0     H58446   1.242   9.861   5.077  0.1273  1.6299 -0.0573
  443MOL0     H58447   1.377   9.913   4.972 -0.8131  1.1019  0.1067
  443MOL0     H58448   1.385   9.890   5.273 -2.0371  0.0952 -0.6847
  443MOL0     H58449   1.516   9.918   5.173  0.1193 -2.7747  0.6544
  443MOL0     H58450   1.252  10.077   5.196  1.3853 -1.4160  4.2233
  443MOL0     H58451   1.374  10.116   5.066  0.0524 -0.7450 -1.1083
  443MOL0     H58452   1.503  10.221   5.199  1.1984 -0.9094  1.5022
  443MOL0     H58453   1.498  10.100   5.329  1.6348  1.7482  0.9753
  443MOL0     H58454   1.264  10.285   5.282 -2.1737  0.2744  1.9743
  443MOL0     H58455   1.307  10.180   5.417  3.6447 -2.1487 -0.4866
  443MOL0     H58456   1.503  10.299   5.477  0.9994  1.8096  0.7345
  443MOL0     H58457   1.372  10.409   5.490  1.5822  0.0950  1.5328
  443MOL0     H58458   1.182   9.845   4.730  1.8570 -0.2018  1.1672
  443MOL0     H58459   0.956   9.798   4.647 -3.7440 -1.1294 -2.1559
  443MOL0     H58460   0.486   9.637   4.603 -1.2672 -3.1153  2.9128
  443MOL0     H58461   0.297   9.528   4.481  1.0144  0.7461  0.8915
  443MOL0     H58462   1.140   8.825   5.439  0.5635  2.7635 -0.9465
  443MOL0     H58463   1.303   8.649   5.324  0.4959 -0.1339 -0.5299
  443MOL0     H58464   1.454   8.373   5.054  0.2639  0.6922  2.1414
  443MOL0     H58465   1.616   8.182   5.005  1.7626  1.9115  4.1709
  443MOL0     H58466   1.730   7.983   4.953 -0.4581  2.6307 -0.0885
  443MOL0     H58467   1.593   8.009   4.835 -2.3349 -0.9689  0.8062
  443MOL0     H58468   1.531   7.760   4.864  1.2826 -2.0749  2.5415
  443MOL0     H58469   1.654   7.807   4.755 -1.7178 -3.5103 -1.1409
  443MOL0     H58470   1.690   7.612   4.930  0.6938 -0.2941 -1.4127
  443MOL0     H58471   1.695   7.730   5.049  1.4716  0.1729  0.0837
  443MOL0     H58472   1.864   7.712   4.793 -0.2172  1.8377  0.5571
  443MOL0     H58473   1.930   7.794   4.941  0.6323 -1.0298  2.3796
  443MOL0     H58474   2.041   7.405   5.040  2.7972  0.9530 -2.7004
  443MOL0     H58475   1.316   7.919   5.161  0.6194 -1.8095 -0.5652
  443MOL0     H58476   1.158   8.107   5.187  0.4151 -0.2097  2.1243
  444MOL0     O58477  10.638   5.420   9.509 -0.4364  0.6550  0.0132
  444MOL0     C58478  10.517   5.413   9.524 -0.0441  0.4787 -0.1188
  444MOL0     O58479  10.441   5.522   9.544 -0.2759 -0.1110  0.2096
  444MOL0     C58480  10.499   5.647   9.527  0.8902 -0.1258  0.8775
  444MOL0     C58481  10.453   5.718   9.414  0.3811 -0.6378 -0.0533
  444MOL0     C58482  10.504   5.836   9.383 -0.1377  0.6996  0.2589
  444MOL0     C58483  10.607   5.889   9.457 -0.1839  1.5776  0.5014
  444MOL0     O58484  10.663   6.013   9.428  1.0555  0.2962  0.4553
  444MOL0     C58485  10.685   6.050   9.294 -0.4354  0.5182  0.4183
  444MOL0     C58486  10.762   6.183   9.291  0.0023  0.6230  0.5356
  444MOL0     C58487  10.908   6.170   9.311 -0.4847  0.0963  0.1243
  444MOL0     C58488  10.968   6.307   9.281  0.1690  0.1849  0.1049
  444MOL0     C58489  11.094   6.311   9.365 -0.7224  0.3092  0.1756
  444MOL0     C58490  11.171   6.435   9.317 -0.1098  0.0140 -0.8758
  444MOL0     C58491  11.321   6.428   9.361  0.9650  0.9909  0.0952
  444MOL0     C58492  11.374   6.581   9.360 -0.2979 -1.1577  1.0940
  444MOL0     N58493  11.514   6.612   9.360  0.5886  0.0580 -0.6973
  444MOL0     C58494  11.604   6.541   9.431  0.4040  0.2346  0.1060
  444MOL0     C58495  11.726   6.598   9.386  0.3431  0.7748 -1.1780
  444MOL0     C58496  11.869   6.568   9.418  0.2212 -0.0072 -0.5863
  444MOL0     C58497  11.884   6.432   9.489 -0.4369  0.6059  0.8079
  444MOL0     C58498  11.906   6.311   9.405 -0.5987  0.1545 -0.2341
  444MOL0     C58499  11.777   6.255   9.332 -0.3921  0.0028 -0.1182
  444MOL0     O58500  11.683   6.226   9.431 -0.6301 -0.2724 -0.4346
  444MOL0     C58501  11.566   6.158   9.394  0.7338 -0.2136 -0.1294
  444MOL0     C58502  11.484   6.124   9.497 -0.8520 -0.4760 -0.4473
  444MOL0     C58503  11.368   6.039   9.490 -0.9272  0.2701 -0.1121
  444MOL0     C58504  11.345   5.983   9.361  0.1608  1.2685  0.0027
  444MOL0     C58505  11.232   5.902   9.339  0.1096  0.2221  0.4623
  444MOL0     O58506  11.221   5.840   9.214  0.4354 -0.3537 -0.1029
  444MOL0     C58507  11.123   5.746   9.202  0.3933 -0.7777  0.1535
  444MOL0     C58508  11.166   5.631   9.136  1.4415  0.5451  0.6655
  444MOL0     C58509  11.082   5.522   9.109 -0.2387 -0.2215  0.7587
  444MOL0     C58510  10.951   5.527   9.149  0.7873 -0.1720 -1.2044
  444MOL0     O58511  10.867   5.423   9.108 -0.0555 -0.2006  0.2647
  444MOL0     C58512  10.727   5.431   9.158  0.9078  0.0670 -0.8445
  444MOL0     C58513  10.641   5.308   9.127 -0.2100 -0.0780  0.3500
  444MOL0     C58514  10.709   5.184   9.174 -0.5700  0.4392  0.6216
  444MOL0     C58515  10.622   5.069   9.132 -0.2970 -0.1332 -0.0213
  444MOL0     C58516  10.693   4.946   9.175  0.0182  0.9656 -0.3109
  444MOL0     C58517  10.592   4.836   9.188  0.2260  0.0908  0.5117
  444MOL0     C58518  10.655   4.699   9.186 -0.3879 -0.0339 -0.9178
  444MOL0     C58519  10.737   4.676   9.309 -0.3157 -0.1222 -0.8078
  444MOL0    Cl58520  10.766   4.506   9.305  0.1671 -0.1541 -0.4724
  444MOL0     C58521  10.908   5.645   9.223  0.8918  0.2470 -0.5775
  444MOL0     C58522  10.993   5.754   9.247 -0.2330  0.6190 -0.2074
  444MOL0     O58523  11.146   5.901   9.429  0.3867 -0.5860  0.4744
  444MOL0     C58524  11.431   6.010   9.259 -0.1125 -0.6941  0.5842
  444MOL0     C58525  11.537   6.102   9.271 -0.3392  1.0223  0.1893
  444MOL0     N58526  11.700   6.702   9.302  0.1422  0.6099 -0.7047
  444MOL0     N58527  11.570   6.714   9.286 -0.4483  0.1564 -0.3935
  444MOL0     C58528  10.646   5.826   9.578 -0.1894  0.4929  0.7605
  444MOL0     C58529  10.587   5.705   9.611 -0.7239  0.6700  0.3693
  444MOL0     C58530  10.448   5.277   9.543  0.4495 -0.1839  0.0048
  444MOL0     C58531  10.320   5.256   9.517 -0.2164  0.9880  0.8257
  444MOL0     C58532  10.267   5.118   9.543  0.9458  0.3407  0.4544
  444MOL0     C58533  10.340   5.010   9.597 -0.2903 -0.0844  0.4012
  444MOL0     O58534  10.269   4.891   9.627  0.1563  0.1235 -0.3039
  444MOL0     C58535  10.350   4.771   9.651 -0.3989 -0.0001 -0.0822
  444MOL0     C58536  10.246   4.651   9.652 -0.6746  0.0394 -1.2595
  444MOL0     C58537  10.299   4.515   9.614 -0.6243 -0.4639  0.0614
  444MOL0     C58538  10.215   4.403   9.684  0.2380  0.0607  0.5519
  444MOL0     C58539  10.217   4.278   9.609  0.0824  0.2970  0.2907
  444MOL0     C58540  10.220   4.178   9.547 -0.0556 -0.3931 -0.4189
  444MOL0     C58541  10.468   5.040   9.626 -0.6500 -0.6430  0.5315
  444MOL0     C58542  10.519   5.174   9.601 -0.2603  0.5852  0.2951
  444MOL0     H58543  10.382   5.680   9.342  1.0993  0.3025 -1.2855
  444MOL0     H58544  10.457   5.888   9.300  3.3059 -0.3970 -2.6417
  444MOL0     H58545  10.591   6.065   9.240  0.5902  3.2183 -0.8068
  444MOL0     H58546  10.744   5.979   9.236 -1.1543  2.0837 -2.3921
  444MOL0     H58547  10.707   6.245   9.363 -2.8777 -0.8576 -0.2495
  444MOL0     H58548  10.744   6.217   9.189  0.3428  3.1761  1.2546
  444MOL0     H58549  10.970   6.104   9.248 -1.0991  1.6645 -2.2547
  444MOL0     H58550  10.927   6.150   9.417  1.5915 -0.5088 -0.3078
  444MOL0     H58551  10.986   6.323   9.174 -1.9996  0.1827 -0.2993
  444MOL0     H58552  10.916   6.396   9.317 -0.2570  0.8190 -1.9267
  444MOL0     H58553  11.152   6.219   9.358 -0.9242  0.0434  1.7276
  444MOL0     H58554  11.063   6.330   9.468 -2.3334  2.1052 -0.5757
  444MOL0     H58555  11.119   6.519   9.362 -5.2472 -1.4186 -3.4042
  444MOL0     H58556  11.166   6.453   9.209  1.8472  0.8909 -0.8649
  444MOL0     H58557  11.319   6.386   9.462  1.1900 -2.4101 -1.1865
  444MOL0     H58558  11.382   6.362   9.299  0.4271  2.4261 -2.0901
  444MOL0     H58559  11.315   6.632   9.437  0.3895  0.1242  0.7854
  444MOL0     H58560  11.341   6.624   9.266  0.5604 -1.4324  0.6570
  444MOL0     H58561  11.602   6.453   9.495  1.0606  0.9075  1.0744
  444MOL0     H58562  11.908   6.651   9.476 -0.0047 -0.3886  0.1252
  444MOL0     H58563  11.939   6.571   9.334  3.2449  3.6378  1.7866
  444MOL0     H58564  11.806   6.416   9.565 -1.5631  1.3754 -0.1505
  444MOL0     H58565  11.969   6.447   9.556 -2.2613  3.6740  2.7174
  444MOL0     H58566  11.980   6.329   9.326 -1.7312  1.3878 -1.0503
  444MOL0     H58567  11.940   6.226   9.464 -1.1381 -0.8247 -1.3150
  444MOL0     H58568  11.821   6.175   9.272  0.0066 -2.4471  3.1863
  444MOL0     H58569  11.723   6.332   9.277 -2.1396  0.4085  1.9963
  444MOL0     H58570  11.517   6.165   9.591  0.1437 -0.7644 -0.6578
  444MOL0     H58571  11.301   6.018   9.572 -1.7733 -1.1409 -1.1089
  444MOL0     H58572  11.274   5.630   9.120  1.2420  4.2050 -2.1792
  444MOL0     H58573  11.124   5.439   9.052 -0.1381  0.1351  0.3103
  444MOL0     H58574  10.678   5.523   9.124 -0.8854  0.9599  3.4805
  444MOL0     H58575  10.723   5.442   9.267  0.1588  3.6520 -1.1109
  444MOL0     H58576  10.624   5.303   9.019 -1.7045 -0.2505  0.5728
  444MOL0     H58577  10.549   5.322   9.186  0.0769  1.1022  0.5347
  444MOL0     H58578  10.720   5.194   9.282 -0.1382 -0.4873  0.6810
  444MOL0     H58579  10.811   5.163   9.142 -0.5561 -1.4869  1.7681
  444MOL0     H58580  10.523   5.085   9.177 -1.1430  0.7814 -2.0929
  444MOL0     H58581  10.601   5.064   9.025  0.3280  0.6878 -0.1971
  444MOL0     H58582  10.741   4.967   9.271 -0.9804  0.6393  0.2820
  444MOL0     H58583  10.770   4.909   9.107 -0.4340 -1.9043  0.5918
  444MOL0     H58584  10.522   4.837   9.104  2.0593  2.4821 -1.1423
  444MOL0     H58585  10.531   4.861   9.275 -1.7658 -0.7813 -0.5507
  444MOL0     H58586  10.580   4.621   9.173 -0.5066 -0.0481 -0.1967
  444MOL0     H58587  10.717   4.698   9.096 -2.0622  0.2986 -2.1192
  444MOL0     H58588  10.666   4.692   9.391 -0.6297 -3.0469 -0.3949
  444MOL0     H58589  10.830   4.733   9.320  0.2455 -1.4952  2.6510
  444MOL0     H58590  10.806   5.657   9.259  0.5768 -0.4582 -1.1951
  444MOL0     H58591  10.940   5.831   9.302 -2.0509  0.4025 -1.5674
  444MOL0     H58592  11.398   5.969   9.164 -1.9485  3.1626 -0.6785
  444MOL0     H58593  11.603   6.106   9.185 -0.9695 -0.2703 -0.3905
  444MOL0     H58594  10.720   5.877   9.639 -1.0786  2.7627  0.0393
  444MOL0     H58595  10.631   5.643   9.689 -2.2112 -2.4468 -1.0997
  444MOL0     H58596  10.260   5.334   9.471  0.4103  1.2239  0.3840
  444MOL0     H58597  10.167   5.092   9.509  1.7521  0.6787 -2.4003
  444MOL0     H58598  10.398   4.775   9.748  0.6953  1.3557 -0.6478
  444MOL0     H58599  10.425   4.760   9.572 -0.0951 -2.9362  0.4898
  444MOL0     H58600  10.200   4.639   9.750 -0.1086 -0.6121 -1.0688
  444MOL0     H58601  10.171   4.673   9.575 -0.7062  2.0683 -0.7094
  444MOL0     H58602  10.397   4.510   9.664 -0.5616 -0.6204 -0.0784
  444MOL0     H58603  10.320   4.509   9.507  1.8340  3.1842  0.1178
  444MOL0     H58604  10.254   4.385   9.784  0.8054  0.7311  0.4641
  444MOL0     H58605  10.111   4.434   9.699 -0.1394 -1.3124  0.9073
  444MOL0     H58606  10.207   4.080   9.506  2.1365 -1.7980  1.9644
  444MOL0     H58607  10.534   4.973   9.679  0.6727 -0.2862 -0.6105
  444MOL0     H58608  10.623   5.191   9.627 -0.1217  1.1011 -0.5647
  445MOL0     O58609   3.396  10.778  10.668 -0.2904 -0.1531  0.3053
  445MOL0     C58610   3.362  10.735  10.779  0.4221  0.5932  0.3674
  445MOL0     O58611   3.295  10.798  10.871  0.6309 -0.6830 -0.1159
  445MOL0     C58612   3.236  10.915  10.828 -0.8312 -0.8214 -0.2199
  445MOL0     C58613   3.101  10.917  10.787  0.8556  0.4624 -0.4448
  445MOL0     C58614   3.027  11.028  10.740 -0.6262  0.4773 -0.4578
  445MOL0     C58615   3.101  11.157  10.743 -0.8034 -0.6194 -0.1678
  445MOL0     O58616   3.043  11.272  10.693  0.6690  0.7696 -0.4884
  445MOL0     C58617   3.113  11.397  10.694  0.4438 -0.8778 -1.0363
  445MOL0     C58618   3.035  11.512  10.640 -0.2374 -0.8002 -0.0166
  445MOL0     C58619   3.009  11.485  10.493 -0.2199 -0.7725  1.3187
  445MOL0     C58620   2.917  11.592  10.430 -0.0105  0.5298 -0.0761
  445MOL0     C58621   2.962  11.608  10.282 -0.5248 -1.2049  0.7550
  445MOL0     C58622   2.867  11.718  10.223 -0.4516  0.0507 -0.4310
  445MOL0     C58623   2.812  11.713  10.078  0.2389 -0.2452 -0.6744
  445MOL0     C58624   2.766  11.849  10.030 -0.0755 -0.9117  0.6445
  445MOL0     N58625   2.653  11.906  10.108 -0.1886  0.0694  0.7208
  445MOL0     C58626   2.517  11.891  10.073 -0.3807 -0.6868  0.6818
  445MOL0     C58627   2.446  11.943  10.180 -0.4054 -0.7292 -0.2689
  445MOL0     C58628   2.297  11.963  10.196 -0.0058 -0.7373  0.4438
  445MOL0     C58629   2.236  11.831  10.229  0.3957 -0.6671  0.3169
  445MOL0     C58630   2.079  11.847  10.243 -0.1478  0.4183 -0.2230
  445MOL0     C58631   2.012  11.710  10.256  0.3987 -0.5747 -0.4577
  445MOL0     O58632   1.879  11.722  10.199 -0.7438  0.5961 -0.4974
  445MOL0     C58633   1.828  11.624  10.120 -0.0494  0.5351 -0.0613
  445MOL0     C58634   1.905  11.513  10.073 -0.3868 -0.0546  0.1195
  445MOL0     C58635   1.843  11.413   9.992 -0.3411  0.2510 -0.6252
  445MOL0     C58636   1.703  11.427   9.968 -0.2055 -0.4349  0.2057
  445MOL0     C58637   1.645  11.330   9.881 -0.8177  0.5311  0.9092
  445MOL0     O58638   1.723  11.218   9.843  0.1446 -1.7015 -0.3249
  445MOL0     C58639   1.709  11.161   9.724  0.0238  0.8989  1.1011
  445MOL0     C58640   1.586  11.132   9.660  0.3385 -1.0274 -0.4334
  445MOL0     C58641   1.583  11.066   9.537 -0.4439  0.2254  0.3113
  445MOL0     C58642   1.697  11.018   9.489 -1.3989  0.2593  0.0204
  445MOL0     O58643   1.686  10.955   9.367 -0.3874 -0.0758  0.1299
  445MOL0     C58644   1.788  10.879   9.307  0.1693  0.2529 -0.1172
  445MOL0     C58645   1.776  10.741   9.355 -0.6911 -0.5416  0.4975
  445MOL0     C58646   1.884  10.643   9.306  0.2630 -0.4031 -0.7446
  445MOL0     C58647   1.902  10.523   9.401  0.8396  0.1175 -1.1820
  445MOL0     C58648   1.799  10.413   9.353  0.3019 -0.7687  0.6469
  445MOL0     C58649   1.775  10.305   9.460 -0.1204  0.3265 -0.6620
  445MOL0     C58650   1.648  10.208   9.450 -0.5557 -0.2986  0.5023
  445MOL0     C58651   1.514  10.272   9.483  0.7866 -0.8950  0.1933
  445MOL0    Cl58652   1.386  10.155   9.442  0.4466 -0.4168  0.4019
  445MOL0     C58653   1.818  11.037   9.551  0.3552 -0.0189  0.3077
  445MOL0     C58654   1.824  11.112   9.668  0.4193  0.1304 -0.3103
  445MOL0     O58655   1.533  11.357   9.841 -0.1662  0.0420 -0.4162
  445MOL0     C58656   1.632  11.533  10.011  1.2210 -0.0134  0.0059
  445MOL0     C58657   1.686  11.626  10.096 -0.1042 -0.4432 -0.4737
  445MOL0     N58658   2.541  11.975  10.276  0.2997  0.2725  0.3379
  445MOL0     N58659   2.662  11.959  10.230  0.3334  0.0395  0.1432
  445MOL0     C58660   3.231  11.163  10.787 -0.2403  0.0722  0.7256
  445MOL0     C58661   3.288  11.038  10.827 -0.3008 -1.1930  0.1824
  445MOL0     C58662   3.398  10.589  10.804  0.4490 -0.9939  0.2010
  445MOL0     C58663   3.312  10.525  10.893  0.6014 -0.3705  0.5823
  445MOL0     C58664   3.342  10.397  10.926  0.0973 -0.4413 -0.1522
  445MOL0     C58665   3.463  10.344  10.877 -1.0655  0.0816  0.3878
  445MOL0     O58666   3.499  10.219  10.907 -0.5069 -0.3433  0.4408
  445MOL0     C58667   3.397  10.115  10.924 -0.3338  0.3335  0.6389
  445MOL0     C58668   3.374  10.088  11.073  0.3114 -1.0247 -0.1411
  445MOL0     C58669   3.464   9.984  11.125  0.2436  0.1183 -0.2553
  445MOL0     C58670   3.441   9.974  11.267 -0.4691  0.4058 -0.4564
  445MOL0     C58671   3.533   9.886  11.353  0.0869  0.2210  0.3426
  445MOL0     C58672   3.647   9.768  11.451 -0.0378  0.0083 -0.6297
  445MOL0     C58673   3.557  10.417  10.793  0.5819  0.4157  1.0370
  445MOL0     C58674   3.514  10.539  10.750  0.3201  0.6272 -1.3169
  445MOL0     H58675   3.050  10.821  10.796 -0.3342  1.2252  1.8559
  445MOL0     H58676   2.922  11.023  10.711 -0.7153  1.3187 -0.3120
  445MOL0     H58677   3.213  11.402  10.649  1.6047  0.2667  1.5124
  445MOL0     H58678   3.131  11.420  10.799  2.0352  0.6409 -1.5931
  445MOL0     H58679   3.089  11.607  10.632 -1.6629  0.0548  0.0161
  445MOL0     H58680   2.942  11.520  10.697 -0.3133 -1.6374 -0.0147
  445MOL0     H58681   2.962  11.387  10.478  0.7258 -1.1976  1.1110
  445MOL0     H58682   3.100  11.476  10.434 -1.4487 -0.5104 -0.7209
  445MOL0     H58683   2.816  11.551  10.430  1.0468 -2.2587  0.1889
  445MOL0     H58684   2.925  11.685  10.487  1.5867  1.7128 -2.0776
  445MOL0     H58685   2.942  11.521  10.220 -2.3083  2.3857 -4.3741
  445MOL0     H58686   3.064  11.639  10.261 -1.1176  0.7493  0.5414
  445MOL0     H58687   2.929  11.808  10.221 -1.3143  0.6442 -2.3798
  445MOL0     H58688   2.777  11.736  10.282  0.3461 -0.3552  0.9587
  445MOL0     H58689   2.892  11.665  10.021  1.8493 -0.4893  1.6426
  445MOL0     H58690   2.726  11.646  10.078  0.2569 -0.2683 -0.6860
  445MOL0     H58691   2.736  11.838   9.925 -2.3488  0.9824  0.9848
  445MOL0     H58692   2.854  11.913  10.033 -1.2143  0.7495  0.1667
  445MOL0     H58693   2.484  11.841   9.983  1.1741  0.1302 -0.4065
  445MOL0     H58694   2.256  12.019  10.112 -1.8607  0.1750  1.8711
  445MOL0     H58695   2.279  12.023  10.286  2.0384 -3.5095  2.8882
  445MOL0     H58696   2.287  11.785  10.315  1.9368 -1.0175 -0.7501
  445MOL0     H58697   2.263  11.772  10.141 -0.1229  0.3822 -0.5688
  445MOL0     H58698   2.055  11.906  10.333 -1.1476  1.0645 -0.8794
  445MOL0     H58699   2.021  11.902  10.168 -2.7911 -2.3442 -0.3802
  445MOL0     H58700   1.995  11.685  10.361 -0.5692  0.4734 -0.3434
  445MOL0     H58701   2.081  11.633  10.221 -0.5532 -2.8554  2.3110
  445MOL0     H58702   2.012  11.501  10.081  0.1641  4.0563  0.7365
  445MOL0     H58703   1.899  11.324   9.963 -2.5982 -0.9137 -1.6189
  445MOL0     H58704   1.489  11.164   9.698  0.5215 -1.4169  0.3702
  445MOL0     H58705   1.494  11.043   9.481 -0.4059  2.4344 -0.7789
  445MOL0     H58706   1.891  10.913   9.321  0.0657  0.6046 -0.1956
  445MOL0     H58707   1.766  10.871   9.200  1.3548  0.5462 -0.3914
  445MOL0     H58708   1.674  10.715   9.323 -1.3117  1.3845  0.7641
  445MOL0     H58709   1.787  10.747   9.464  3.2523  2.5787  0.1583
  445MOL0     H58710   1.982  10.692   9.313 -0.5798  1.4340 -1.1875
  445MOL0     H58711   1.869  10.617   9.201 -1.9495 -0.9175 -0.3383
  445MOL0     H58712   2.005  10.486   9.407  1.7753  2.7393  0.6191
  445MOL0     H58713   1.870  10.547   9.502  1.4687  0.2886 -1.0185
  445MOL0     H58714   1.819  10.379   9.250  0.0598  1.5440 -0.2086
  445MOL0     H58715   1.707  10.471   9.343  1.1129  0.6268  1.0389
  445MOL0     H58716   1.776  10.337   9.565  0.8960 -0.1392 -0.5203
  445MOL0     H58717   1.857  10.233   9.463 -1.7342 -1.5507  0.8555
  445MOL0     H58718   1.636  10.160   9.352  2.0336 -0.8269  0.3681
  445MOL0     H58719   1.657  10.120   9.515 -1.5131 -2.9059 -2.6312
  445MOL0     H58720   1.505  10.366   9.428  1.6942 -1.4568 -0.9593
  445MOL0     H58721   1.492  10.292   9.589  1.2588 -0.9262  0.2971
  445MOL0     H58722   1.917  11.005   9.521  0.5907 -1.0863  2.0851
  445MOL0     H58723   1.925  11.118   9.707  0.6669  1.5967 -1.0913
  445MOL0     H58724   1.525  11.543   9.991  1.5398 -0.8957 -2.5030
  445MOL0     H58725   1.628  11.715  10.116  0.4541  0.6709 -3.3246
  445MOL0     H58726   3.296  11.250  10.786  0.8939 -0.6868  2.7148
  445MOL0     H58727   3.381  11.033  10.883 -0.6926 -2.1042  0.7841
  445MOL0     H58728   3.228  10.577  10.937 -0.1459 -0.6281 -0.5086
  445MOL0     H58729   3.272  10.339  10.984 -1.7309  1.5613 -0.2001
  445MOL0     H58730   3.428  10.027  10.867  1.4515  1.7187 -0.6344
  445MOL0     H58731   3.302  10.139  10.877  0.9855 -1.9703 -3.7369
  445MOL0     H58732   3.388  10.183  11.126  1.3867 -2.0190  1.4256
  445MOL0     H58733   3.268  10.060  11.076  0.1844 -0.8510 -1.9268
  445MOL0     H58734   3.570   9.991  11.098  0.2576  0.4319 -0.1238
  445MOL0     H58735   3.427   9.901  11.063  0.6330  0.4340 -0.9295
  445MOL0     H58736   3.454  10.078  11.299 -2.4819  1.5283 -2.9962
  445MOL0     H58737   3.343   9.937  11.297  0.4206 -2.6310 -0.9634
  445MOL0     H58738   3.721   9.706  11.499  0.4125  0.0931 -1.2018
  445MOL0     H58739   3.654  10.385  10.756  0.0547  0.1483 -0.1715
  445MOL0     H58740   3.586  10.588  10.686  4.7676 -4.2979 -0.8140
  446MOL0     O58741   1.948   8.701   6.200  0.3448 -1.2554  0.3743
  446MOL0     C58742   1.906   8.624   6.282  0.2934  0.5618 -1.4382
  446MOL0     O58743   1.911   8.486   6.269  0.2661  0.0035 -0.6979
  446MOL0     C58744   1.956   8.430   6.152  0.6236 -0.2219 -0.2951
  446MOL0     C58745   2.073   8.474   6.090 -0.6078  0.7721  0.0482
  446MOL0     C58746   2.120   8.419   5.971 -0.2018 -0.6696  1.0014
  446MOL0     C58747   2.050   8.311   5.909  0.7220  0.8054  1.0209
  446MOL0     O58748   2.082   8.230   5.802 -0.0443 -0.2687  0.1542
  446MOL0     C58749   2.114   8.302   5.681 -0.8804 -1.2274 -0.0749
  446MOL0     C58750   2.134   8.206   5.569  0.0010  0.5342  0.1871
  446MOL0     C58751   2.257   8.103   5.576 -0.4268 -0.2838 -0.8933
  446MOL0     C58752   2.398   8.175   5.608 -0.6776  0.1650  0.7565
  446MOL0     C58753   2.436   8.273   5.487 -0.4208  0.1214  0.0632
  446MOL0     C58754   2.589   8.317   5.512  1.1374  0.2231  0.0331
  446MOL0     C58755   2.639   8.411   5.389 -0.8292  1.6163 -0.1655
  446MOL0     C58756   2.794   8.429   5.399 -0.0816 -0.0183 -0.2351
  446MOL0     N58757   2.837   8.514   5.297 -0.4804 -0.4782 -0.3255
  446MOL0     C58758   2.887   8.481   5.171 -0.4112 -0.2646  0.2417
  446MOL0     C58759   2.925   8.605   5.119  1.6963  0.3157 -0.4456
  446MOL0     C58760   2.978   8.634   4.983 -0.4702  0.6337  0.2771
  446MOL0     C58761   3.135   8.609   4.973 -1.0797 -0.6468  0.1238
  446MOL0     C58762   3.218   8.700   5.076  0.6117 -0.0466  0.6664
  446MOL0     C58763   3.368   8.674   5.073  0.6089  0.4748 -0.3193
  446MOL0     O58764   3.426   8.734   4.954  0.1010 -0.2869 -0.2775
  446MOL0     C58765   3.498   8.856   4.965  1.1090 -0.9589  0.3841
  446MOL0     C58766   3.455   8.963   5.045 -0.5906 -0.4307 -0.2231
  446MOL0     C58767   3.533   9.084   5.045 -0.4198  0.0012  0.1704
  446MOL0     C58768   3.631   9.096   4.945 -0.6672  0.4733  1.0120
  446MOL0     C58769   3.693   9.228   4.912  0.4925  0.4355  0.0998
  446MOL0     O58770   3.739   9.241   4.785  0.8882 -0.2036 -0.2486
  446MOL0     C58771   3.839   9.331   4.755 -0.4400 -0.3908  0.5559
  446MOL0     C58772   3.898   9.431   4.831  0.6555 -0.8054 -1.7573
  446MOL0     C58773   3.985   9.521   4.783 -0.1840  0.0953 -0.5862
  446MOL0     C58774   4.028   9.523   4.649  0.5982  0.4140  0.8519
  446MOL0     O58775   4.109   9.610   4.589 -0.3587 -0.0702  0.1435
  446MOL0     C58776   4.142   9.732   4.661  0.0310 -0.2075 -0.5587
  446MOL0     C58777   4.255   9.703   4.765  0.2331 -0.4606  0.4231
  446MOL0     C58778   4.345   9.830   4.775  0.4151  0.5086 -0.8289
  446MOL0     C58779   4.480   9.799   4.851 -0.2139 -1.0024 -0.0831
  446MOL0     C58780   4.459   9.771   5.006 -0.5023 -0.0984  0.4049
  446MOL0     C58781   4.393   9.894   5.076  0.2018  0.9461  0.1782
  446MOL0     C58782   4.415   9.881   5.229  0.1456  0.9208  0.2741
  446MOL0     C58783   4.329   9.967   5.315 -0.1917  0.6396  0.5544
  446MOL0    Cl58784   4.356   9.923   5.493  0.2149  0.6166 -0.5201
  446MOL0     C58785   3.983   9.426   4.573  0.2891  0.7261  0.3756
  446MOL0     C58786   3.887   9.333   4.621 -0.6518  0.0570  0.5945
  446MOL0     O58787   3.705   9.303   5.002  0.0671 -0.2924 -0.5018
  446MOL0     C58788   3.661   8.993   4.847  1.2513  0.1024 -0.6360
  446MOL0     C58789   3.595   8.868   4.870 -0.1181 -0.5065  0.1607
  446MOL0     N58790   2.905   8.694   5.222  0.3969  0.3281 -0.8137
  446MOL0     N58791   2.859   8.641   5.335  0.2209 -0.5645 -0.3218
  446MOL0     C58792   1.933   8.276   5.969 -0.6226 -0.4633  0.1718
  446MOL0     C58793   1.890   8.329   6.081  1.0045 -0.2062 -0.2841
  446MOL0     C58794   1.857   8.681   6.412  1.6133  0.1733  0.5547
  446MOL0     C58795   1.811   8.814   6.424 -0.9977 -0.2258 -0.6502
  446MOL0     C58796   1.742   8.866   6.532  0.1906  0.1498  0.1958
  446MOL0     C58797   1.704   8.782   6.638 -2.0955  0.4088  0.2814
  446MOL0     O58798   1.626   8.819   6.741  0.0672 -0.3350 -0.3596
  446MOL0     C58799   1.583   8.951   6.771  0.2437  0.0333  0.0158
  446MOL0     C58800   1.512   8.940   6.907 -0.0518  0.0611  0.6025
  446MOL0     C58801   1.386   8.847   6.925  0.2964  0.3044 -0.1063
  446MOL0     C58802   1.331   8.840   7.069  0.0224 -1.1049 -0.8301
  446MOL0     C58803   1.411   8.744   7.138  0.3571  0.2715 -0.5121
  446MOL0     C58804   1.484   8.674   7.196 -0.1100 -0.7712  0.3367
  446MOL0     C58805   1.758   8.653   6.642 -0.5167  0.8424 -0.4528
  446MOL0     C58806   1.826   8.598   6.521 -0.6985  0.5587 -0.1824
  446MOL0     H58807   2.127   8.558   6.134  1.3469 -1.0685  1.3575
  446MOL0     H58808   2.212   8.466   5.938 -1.5227  2.1354  1.0831
  446MOL0     H58809   2.201   8.365   5.698 -0.5008 -0.6108 -3.6019
  446MOL0     H58810   2.032   8.368   5.650 -1.3067 -0.4087  2.5439
  446MOL0     H58811   2.127   8.253   5.471 -2.2141  0.4401  0.2422
  446MOL0     H58812   2.045   8.143   5.565  2.1760 -2.8233  0.2796
  446MOL0     H58813   2.260   8.039   5.488  2.5687 -1.3241 -0.1616
  446MOL0     H58814   2.228   8.053   5.669 -3.4063  2.3721 -0.2377
  446MOL0     H58815   2.397   8.229   5.703 -0.9172  1.0539  0.2651
  446MOL0     H58816   2.475   8.098   5.618  2.5205  3.3511  3.6849
  446MOL0     H58817   2.369   8.359   5.496 -0.6668  0.3542 -2.9399
  446MOL0     H58818   2.418   8.238   5.385 -0.0631 -0.2460  0.1232
  446MOL0     H58819   2.656   8.238   5.547 -1.1707 -1.2876  1.2300
  446MOL0     H58820   2.577   8.385   5.596 -0.1374 -0.5529  0.5106
  446MOL0     H58821   2.615   8.379   5.287  0.9284  0.9243 -0.3955
  446MOL0     H58822   2.594   8.510   5.404 -0.7475  1.3903  1.8740
  446MOL0     H58823   2.837   8.331   5.373  3.0078  0.4549  2.3611
  446MOL0     H58824   2.815   8.455   5.504  1.9310  1.3761 -0.9092
  446MOL0     H58825   2.891   8.387   5.117 -1.1108  1.6871 -3.5898
  446MOL0     H58826   2.944   8.726   4.935 -0.8029  0.1234 -0.4884
  446MOL0     H58827   2.925   8.554   4.931 -0.9005 -0.9607  3.0092
  446MOL0     H58828   3.172   8.639   4.875 -0.0892  0.9270  0.9235
  446MOL0     H58829   3.163   8.505   4.991  1.7718  0.3025  1.9486
  446MOL0     H58830   3.192   8.805   5.060 -0.6991 -0.7427 -2.5453
  446MOL0     H58831   3.172   8.670   5.171 -0.9096 -2.6893 -0.7722
  446MOL0     H58832   3.397   8.569   5.064  1.4717  0.7724 -1.1294
  446MOL0     H58833   3.414   8.696   5.170 -1.5136 -3.1140  1.7568
  446MOL0     H58834   3.377   8.962   5.121  1.1731  3.4677  1.9100
  446MOL0     H58835   3.505   9.162   5.115  3.5610  2.9399 -1.1694
  446MOL0     H58836   3.870   9.459   4.932 -0.5497  1.4480 -2.6336
  446MOL0     H58837   4.032   9.589   4.853  0.4830 -0.9174 -0.0260
  446MOL0     H58838   4.059   9.770   4.722  0.9511  0.6948  0.1733
  446MOL0     H58839   4.165   9.806   4.585 -0.7148  2.3962  1.5799
  446MOL0     H58840   4.316   9.618   4.732 -0.5395 -1.7773  2.2350
  446MOL0     H58841   4.212   9.669   4.860  0.6635 -1.8105  0.1517
  446MOL0     H58842   4.290   9.910   4.824  1.4301  0.3861  0.5545
  446MOL0     H58843   4.372   9.889   4.687 -1.7766  2.8370 -0.0811
  446MOL0     H58844   4.511   9.703   4.808  0.7075 -0.1197 -1.4818
  446MOL0     H58845   4.560   9.874   4.844 -1.0105 -0.2628 -1.6374
  446MOL0     H58846   4.563   9.760   5.037 -0.0817 -1.0195 -1.2090
  446MOL0     H58847   4.404   9.680   5.031 -0.9090  0.7976  3.1409
  446MOL0     H58848   4.288   9.880   5.050  0.2856 -0.3890  0.4822
  446MOL0     H58849   4.428   9.992   5.043 -3.0458  2.4419  0.7787
  446MOL0     H58850   4.401   9.778   5.261  1.7309  1.4561  2.9492
  446MOL0     H58851   4.520   9.896   5.256  0.3626 -1.6512  1.0451
  446MOL0     H58852   4.226   9.947   5.287  0.4791  1.1005 -2.5760
  446MOL0     H58853   4.352  10.072   5.296  6.7852 -0.0705  2.1691
  446MOL0     H58854   4.004   9.430   4.467 -0.4726  0.8953  0.2204
  446MOL0     H58855   3.848   9.264   4.547 -1.3387  1.0792 -0.0223
  446MOL0     H58856   3.723   8.998   4.758  0.0989 -3.3388 -1.8207
  446MOL0     H58857   3.597   8.791   4.793  2.9504 -2.4543  1.9965
  446MOL0     H58858   1.877   8.192   5.928 -0.7996  0.8909 -2.6029
  446MOL0     H58859   1.801   8.289   6.127  3.2080 -1.8426  2.9508
  446MOL0     H58860   1.827   8.888   6.346  0.3603  0.0021 -0.1924
  446MOL0     H58861   1.716   8.971   6.519  1.0020  0.2283 -1.0696
  446MOL0     H58862   1.510   8.983   6.696 -0.1003 -1.5434 -0.3611
  446MOL0     H58863   1.662   9.025   6.786 -0.1291  0.0595  2.1160
  446MOL0     H58864   1.594   8.903   6.969  1.3640  2.0683  0.0000
  446MOL0     H58865   1.482   9.038   6.944 -0.6473  1.0314 -2.1842
  446MOL0     H58866   1.411   8.743   6.904 -1.0686  0.3966 -2.6914
  446MOL0     H58867   1.309   8.866   6.849  0.3166  1.2783  0.1015
  446MOL0     H58868   1.341   8.938   7.118  2.0921 -1.3127 -0.7303
  446MOL0     H58869   1.228   8.806   7.082  0.1271 -0.6271  2.0357
  446MOL0     H58870   1.537   8.592   7.240  1.4527 -1.6820 -2.9002
  446MOL0     H58871   1.733   8.597   6.732 -3.3904 -0.3767 -1.8857
  446MOL0     H58872   1.843   8.491   6.524  2.3830  0.9635  1.6878
  447MOL0     O58873   8.973   6.205   4.320  0.3749 -0.0786 -0.4036
  447MOL0     C58874   8.873   6.276   4.327 -1.1626  0.7322 -0.3194
  447MOL0     O58875   8.855   6.414   4.328  0.6900  1.1325  1.1014
  447MOL0     C58876   8.960   6.494   4.323 -0.0296 -0.4648  0.4675
  447MOL0     C58877   9.003   6.534   4.198  1.2268 -0.2149  0.2476
  447MOL0     C58878   9.114   6.623   4.187  0.0819  0.3742  0.4474
  447MOL0     C58879   9.180   6.675   4.295  0.6304  0.2144 -1.7241
  447MOL0     O58880   9.280   6.767   4.295 -0.0052  0.3204  0.5098
  447MOL0     C58881   9.357   6.787   4.179  0.8560  0.4996 -0.5783
  447MOL0     C58882   9.304   6.907   4.094 -0.1266  0.0391 -1.2383
  447MOL0     C58883   9.384   6.916   3.958  0.0339 -0.4827 -0.2191
  447MOL0     C58884   9.510   7.005   3.975 -0.1427  1.2822 -0.7908
  447MOL0     C58885   9.493   7.151   3.936 -0.6504 -0.4002  0.1596
  447MOL0     C58886   9.448   7.177   3.784  0.5934  0.0780 -0.3015
  447MOL0     C58887   9.453   7.325   3.755  0.1220 -0.3146  0.6659
  447MOL0     C58888   9.422   7.355   3.602 -0.6743 -0.2862 -0.1493
  447MOL0     N58889   9.400   7.497   3.587  1.1179 -0.4034  0.3917
  447MOL0     C58890   9.486   7.592   3.634  0.2542  0.2997 -0.5547
  447MOL0     C58891   9.411   7.697   3.659  0.2271  0.8280 -0.5441
  447MOL0     C58892   9.480   7.813   3.730  0.2891  0.3269  0.2547
  447MOL0     C58893   9.409   7.934   3.696  1.2336  0.6467  0.4989
  447MOL0     C58894   9.466   8.063   3.751 -0.0994 -0.1210  0.0410
  447MOL0     C58895   9.370   8.186   3.726  0.4944  0.7635  0.2308
  447MOL0     O58896   9.229   8.157   3.757  0.2447 -0.1208 -0.1682
  447MOL0     C58897   9.143   8.260   3.746 -0.1841  0.6893 -0.0217
  447MOL0     C58898   9.113   8.325   3.861  0.0002 -0.2950 -0.6712
  447MOL0     C58899   9.015   8.428   3.870 -0.1205  0.7098  0.2646
  447MOL0     C58900   8.948   8.468   3.759  0.0509 -0.0326 -0.4002
  447MOL0     C58901   8.846   8.573   3.759 -0.0346 -0.3808 -0.7696
  447MOL0     O58902   8.740   8.564   3.675  0.3832 -0.0188 -0.0710
  447MOL0     C58903   8.630   8.649   3.700 -0.2676 -0.1476 -0.3122
  447MOL0     C58904   8.613   8.756   3.608  0.7183 -0.1428 -0.5502
  447MOL0     C58905   8.502   8.845   3.620  0.3869 -0.3455 -0.0385
  447MOL0     C58906   8.411   8.830   3.728 -0.4187  0.0308 -0.0296
  447MOL0     O58907   8.292   8.906   3.725 -0.2440 -0.1932  0.2543
  447MOL0     C58908   8.177   8.835   3.781  0.7544 -0.4724 -0.4969
  447MOL0     C58909   8.048   8.928   3.759 -1.1694 -0.2311  0.3709
  447MOL0     C58910   7.913   8.858   3.786  0.0983 -0.3857 -0.5133
  447MOL0     C58911   7.883   8.837   3.936  0.1717  0.6491  0.1750
  447MOL0     C58912   7.869   8.983   4.006 -0.6482  0.2720 -0.7463
  447MOL0     C58913   7.826   8.963   4.147  0.1972 -0.7460 -0.3147
  447MOL0     C58914   7.839   9.086   4.251  0.3976  1.1203  0.1421
  447MOL0     C58915   7.989   9.099   4.294  0.0523 -0.8297 -0.5199
  447MOL0    Cl58916   8.000   9.234   4.406 -0.4314 -0.0799 -0.2444
  447MOL0     C58917   8.439   8.730   3.822  0.0755  0.8014  0.0959
  447MOL0     C58918   8.550   8.637   3.815  0.5235 -0.2834 -0.3553
  447MOL0     O58919   8.856   8.658   3.846 -0.2961  0.2244 -0.3623
  447MOL0     C58920   8.990   8.416   3.640 -0.1597 -0.3325 -0.0147
  447MOL0     C58921   9.082   8.316   3.626 -0.8443  0.7233 -0.2617
  447MOL0     N58922   9.277   7.668   3.634 -0.5153 -0.3229 -0.3539
  447MOL0     N58923   9.275   7.558   3.584  0.1006  0.2457 -0.2854
  447MOL0     C58924   9.134   6.630   4.424 -0.1457  0.6839 -0.0724
  447MOL0     C58925   9.029   6.540   4.435 -0.0223 -0.4848 -0.1367
  447MOL0     C58926   8.747   6.207   4.319  0.5596  0.1120  0.5710
  447MOL0     C58927   8.741   6.077   4.376 -1.5046  0.4427 -0.3523
  447MOL0     C58928   8.625   5.999   4.366 -0.7568 -0.2320 -1.6368
  447MOL0     C58929   8.512   6.060   4.331 -0.6287 -0.1447 -0.4568
  447MOL0     O58930   8.393   5.989   4.339 -0.2835 -1.0575 -0.3480
  447MOL0     C58931   8.364   5.895   4.239 -0.0371 -0.9146 -0.2077
  447MOL0     C58932   8.268   5.792   4.302 -0.0522  0.6260 -0.6561
  447MOL0     C58933   8.119   5.834   4.303  0.3251 -0.4383 -0.7139
  447MOL0     C58934   8.021   5.728   4.354  1.4280 -0.2339  0.4070
  447MOL0     C58935   8.027   5.723   4.500  1.4996 -0.7731 -0.3057
  447MOL0     C58936   8.023   5.690   4.617 -0.1711 -0.5328 -0.2882
  447MOL0     C58937   8.508   6.184   4.275 -0.7549 -0.0588  0.0647
  447MOL0     C58938   8.629   6.256   4.262  0.4916  0.2573 -0.2812
  447MOL0     H58939   8.944   6.515   4.108  2.9048 -1.1272 -0.7013
  447MOL0     H58940   9.136   6.642   4.082 -0.6113 -2.1106 -0.2262
  447MOL0     H58941   9.361   6.698   4.115  0.6082 -2.1467  2.7800
  447MOL0     H58942   9.456   6.819   4.212  1.1627  0.7176 -1.7017
  447MOL0     H58943   9.321   7.004   4.141  1.2554 -0.7691  0.0045
  447MOL0     H58944   9.195   6.902   4.095 -0.1194 -0.9118  1.0438
  447MOL0     H58945   9.322   6.973   3.889  2.0349  1.4151 -0.5521
  447MOL0     H58946   9.420   6.821   3.919 -0.9010 -0.7638 -0.4258
  447MOL0     H58947   9.537   7.000   4.081 -3.8376 -3.5665  0.2830
  447MOL0     H58948   9.590   6.967   3.911  2.4924  3.0407  1.2312
  447MOL0     H58949   9.588   7.201   3.958 -2.1707  1.6267  2.7681
  447MOL0     H58950   9.415   7.201   3.994 -1.8621  3.1968 -4.0916
  447MOL0     H58951   9.344   7.146   3.773  0.3080  0.7857  0.4015
  447MOL0     H58952   9.500   7.115   3.709  0.7282  0.7149 -0.7390
  447MOL0     H58953   9.399   7.384   3.829 -2.2011 -0.8727 -0.4865
  447MOL0     H58954   9.554   7.365   3.765  1.4075 -2.8569 -0.8579
  447MOL0     H58955   9.332   7.298   3.577  0.3992 -2.0392 -0.2074
  447MOL0     H58956   9.513   7.315   3.555  1.4670 -0.0493  3.4116
  447MOL0     H58957   9.591   7.583   3.659  0.2836  1.1073 -0.3706
  447MOL0     H58958   9.586   7.803   3.702  0.2653 -4.9133  0.9597
  447MOL0     H58959   9.483   7.793   3.837  2.2641 -3.6509 -0.3738
  447MOL0     H58960   9.307   7.924   3.734  0.1150  0.3285 -2.2976
  447MOL0     H58961   9.401   7.942   3.587  2.0509  0.4385  0.4187
  447MOL0     H58962   9.503   8.052   3.853 -0.9179  3.2683  0.8085
  447MOL0     H58963   9.558   8.073   3.692 -0.6952  1.3288 -0.6815
  447MOL0     H58964   9.390   8.219   3.623  0.1972 -0.2672 -0.1702
  447MOL0     H58965   9.399   8.271   3.788 -2.3735 -0.1644  3.0851
  447MOL0     H58966   9.151   8.293   3.957 -2.1153 -1.1540 -0.0431
  447MOL0     H58967   9.009   8.482   3.964 -0.8815  0.5915  0.2917
  447MOL0     H58968   8.679   8.776   3.524 -0.8442  0.3803 -1.7045
  447MOL0     H58969   8.477   8.925   3.551 -0.3988  0.1708  0.8091
  447MOL0     H58970   8.195   8.833   3.889 -1.9220 -0.1575  0.0078
  447MOL0     H58971   8.146   8.734   3.752 -5.5575 -0.8570  5.1584
  447MOL0     H58972   8.041   8.963   3.656 -2.2224 -0.4964  0.3468
  447MOL0     H58973   8.060   9.015   3.824 -0.5644 -0.1004  0.0909
  447MOL0     H58974   7.902   8.764   3.732  0.7044  0.2778 -1.8356
  447MOL0     H58975   7.836   8.930   3.756  0.6515  1.0031  1.2186
  447MOL0     H58976   7.794   8.773   3.935  0.6187 -0.0120 -1.7740
  447MOL0     H58977   7.959   8.779   3.987 -0.2334 -1.1312 -1.1418
  447MOL0     H58978   7.794   9.040   3.951 -0.4502  1.2286 -0.0420
  447MOL0     H58979   7.971   9.023   4.003 -1.7594  3.4209 -0.4780
  447MOL0     H58980   7.867   8.870   4.189  0.2467 -0.4365  0.3344
  447MOL0     H58981   7.721   8.933   4.152 -0.7981  2.1773 -1.8250
  447MOL0     H58982   7.803   9.179   4.208 -4.0447 -0.3395  0.2052
  447MOL0     H58983   7.776   9.066   4.339  0.5324 -1.1707 -0.2143
  447MOL0     H58984   8.053   9.129   4.210 -1.1752  0.7364 -0.9322
  447MOL0     H58985   8.031   9.009   4.341  2.1768  1.1531  1.6986
  447MOL0     H58986   8.379   8.726   3.912  2.1946 -0.8039  1.5362
  447MOL0     H58987   8.574   8.557   3.884  2.9972  2.2737  2.0470
  447MOL0     H58988   8.948   8.462   3.551  1.0637  1.7219  0.4214
  447MOL0     H58989   9.104   8.284   3.525 -0.4008  0.1443  0.0126
  447MOL0     H58990   9.185   6.675   4.509  1.5578  0.6529 -1.0266
  447MOL0     H58991   8.990   6.509   4.531  0.7441 -3.0327 -0.5482
  447MOL0     H58992   8.835   6.039   4.415 -0.9722  1.5736 -0.4934
  447MOL0     H58993   8.621   5.898   4.406 -0.5808  0.3696  0.0005
  447MOL0     H58994   8.448   5.850   4.184  0.0820 -2.0718  0.8603
  447MOL0     H58995   8.309   5.958   4.169 -0.4668  1.6752  2.2987
  447MOL0     H58996   8.281   5.695   4.254 -0.9841  0.3980 -0.4605
  447MOL0     H58997   8.312   5.760   4.397  0.5843 -1.2034 -1.5268
  447MOL0     H58998   8.108   5.841   4.194  0.4346 -2.2589 -0.8667
  447MOL0     H58999   8.110   5.928   4.357 -0.6351  0.3628 -2.1946
  447MOL0     H59000   7.919   5.759   4.328  2.4559  1.7484 -1.5886
  447MOL0     H59001   8.040   5.630   4.309 -0.9214 -1.1780  1.3030
  447MOL0     H59002   8.008   5.652   4.716 -1.5784  0.5515 -0.0536
  447MOL0     H59003   8.414   6.228   4.243 -1.5989 -1.1338  0.9893
  447MOL0     H59004   8.639   6.356   4.221  2.3487  0.2453  0.0429
  448MOL0     O59005   6.644  11.185   3.640  0.4291  0.0189 -0.5741
  448MOL0     C59006   6.763  11.160   3.615 -0.6986 -0.4560 -0.7432
  448MOL0     O59007   6.855  11.259   3.572 -0.0235 -0.4592 -0.6302
  448MOL0     C59008   6.813  11.371   3.516 -0.0771  0.6210  0.3265
  448MOL0     C59009   6.879  11.399   3.399 -0.3147 -0.1758 -0.4704
  448MOL0     C59010   6.874  11.524   3.341 -0.9308  0.5612  0.0131
  448MOL0     C59011   6.792  11.620   3.403 -0.1934  0.2847 -0.6511
  448MOL0     O59012   6.762  11.743   3.350  0.7510 -0.7747 -0.9373
  448MOL0     C59013   6.747  11.753   3.214  0.7746  0.7710 -0.0603
  448MOL0     C59014   6.876  11.791   3.150 -0.8330  0.1283  1.0766
  448MOL0     C59015   6.884  11.727   3.002  0.7184 -0.4662  0.0589
  448MOL0     C59016   6.990  11.787   2.908  1.2869 -0.5959 -0.5172
  448MOL0     C59017   6.988  11.713   2.767  0.3794  0.5737 -0.4757
  448MOL0     C59018   7.108  11.746   2.671 -0.3698  0.5322  0.7281
  448MOL0     C59019   7.084  11.712   2.522 -0.7488  0.8855 -0.0655
  448MOL0     C59020   7.220  11.684   2.451  0.2244  0.2943  0.1104
  448MOL0     N59021   7.259  11.534   2.452  0.2010  0.3961  0.4317
  448MOL0     C59022   7.304  11.446   2.551 -0.4738  0.9772  0.1471
  448MOL0     C59023   7.328  11.330   2.488  0.5323 -0.4136  0.4603
  448MOL0     C59024   7.371  11.201   2.554  0.5467 -0.2789 -0.1273
  448MOL0     C59025   7.259  11.119   2.621 -0.1365 -0.4232  0.6844
  448MOL0     C59026   7.315  11.017   2.716  0.1418 -0.7842 -1.3916
  448MOL0     C59027   7.416  10.926   2.646 -0.6725 -0.4681  0.2792
  448MOL0     O59028   7.429  10.791   2.713 -0.1078 -0.2886 -0.4330
  448MOL0     C59029   7.520  10.712   2.651  0.2548  0.4215 -0.7440
  448MOL0     C59030   7.655  10.730   2.671 -0.2950 -0.1467  0.2382
  448MOL0     C59031   7.751  10.640   2.614  0.0737 -1.3720  1.3377
  448MOL0     C59032   7.702  10.528   2.543 -0.9391 -0.1700  1.4410
  448MOL0     C59033   7.789  10.419   2.481  0.2298 -0.7267  1.0340
  448MOL0     O59034   7.727  10.319   2.417  0.5648  0.2863 -0.0515
  448MOL0     C59035   7.789  10.201   2.432 -0.6485 -0.8075  0.2301
  448MOL0     C59036   7.857  10.144   2.332 -0.6267 -0.5443  0.1964
  448MOL0     C59037   7.912  10.017   2.326 -0.9893  0.0883 -0.5149
  448MOL0     C59038   7.907   9.942   2.454 -1.0721  0.4693  0.9290
  448MOL0     O59039   7.999   9.839   2.480 -0.1227  0.3966  0.2486
  448MOL0     C59040   8.118   9.832   2.399 -0.2207  0.0607 -0.3978
  448MOL0     C59041   8.215   9.944   2.445 -0.6840  0.3026  0.8960
  448MOL0     C59042   8.245   9.948   2.592  0.0837  0.3483 -0.3952
  448MOL0     C59043   8.347  10.053   2.623  0.3867 -0.4497  0.2048
  448MOL0     C59044   8.285  10.183   2.682 -0.4232  0.5472  0.6852
  448MOL0     C59045   8.389  10.283   2.729  0.9800 -0.1832 -0.1788
  448MOL0     C59046   8.351  10.434   2.744 -1.0896 -0.0332  0.0559
  448MOL0     C59047   8.232  10.441   2.846  0.2222  0.7943  0.6859
  448MOL0    Cl59048   8.245  10.358   2.997  0.5796 -0.1208  0.2504
  448MOL0     C59049   7.838   9.998   2.564 -1.0760 -0.1341 -0.1893
  448MOL0     C59050   7.775  10.127   2.548 -0.2183 -0.7596  1.2557
  448MOL0     O59051   7.908  10.422   2.508 -0.2430 -0.6623 -0.3946
  448MOL0     C59052   7.567  10.514   2.532  0.5972  0.1902  1.0197
  448MOL0     C59053   7.477  10.602   2.589  0.7817  1.1369  0.3991
  448MOL0     N59054   7.299  11.352   2.354  0.5909  0.2439 -0.1580
  448MOL0     N59055   7.274  11.474   2.331 -0.0995 -0.2802  0.1746
  448MOL0     C59056   6.713  11.592   3.514 -0.2489 -0.4277  0.3936
  448MOL0     C59057   6.728  11.463   3.572 -0.4999 -0.6439  0.3364
  448MOL0     C59058   6.801  11.023   3.631  0.0970  0.2907 -0.5812
  448MOL0     C59059   6.932  10.975   3.626 -1.2917 -1.1019  0.3291
  448MOL0     C59060   6.965  10.846   3.654  0.0151 -0.1150  0.7799
  448MOL0     C59061   6.863  10.755   3.686  0.8814  0.5460  0.4131
  448MOL0     O59062   6.885  10.620   3.721 -0.6952 -0.7177  0.3821
  448MOL0     C59063   7.016  10.568   3.734  0.4322  0.9977  0.4639
  448MOL0     C59064   7.008  10.412   3.715  0.0586 -0.5609 -0.3087
  448MOL0     C59065   7.143  10.349   3.681  1.1419  0.5394 -0.0778
  448MOL0     C59066   7.221  10.411   3.571  0.2273  0.0158 -0.6114
  448MOL0     C59067   7.177  10.387   3.433 -0.1865  0.5865  0.0145
  448MOL0     C59068   7.153  10.355   3.314  0.1324  0.6129 -0.3612
  448MOL0     C59069   6.733  10.804   3.709  0.1585  1.1291 -0.1121
  448MOL0     C59070   6.702  10.933   3.681  0.1659 -0.0190 -0.7178
  448MOL0     H59071   6.942  11.327   3.349  1.2785  1.2225 -0.5652
  448MOL0     H59072   6.929  11.544   3.250 -3.4248  1.6062 -1.3914
  448MOL0     H59073   6.679  11.835   3.186  2.3528  1.4208 -2.2992
  448MOL0     H59074   6.702  11.667   3.165  1.5845 -1.4689  2.8702
  448MOL0     H59075   6.951  11.752   3.219 -0.4883  1.2119  1.3333
  448MOL0     H59076   6.895  11.899   3.144  4.0594 -0.5766 -0.3138
  448MOL0     H59077   6.782  11.736   2.962  0.1941 -2.7683  0.7672
  448MOL0     H59078   6.899  11.620   3.013  0.6889 -0.5520 -0.6548
  448MOL0     H59079   6.967  11.892   2.887 -0.2746 -1.3377 -2.9578
  448MOL0     H59080   7.084  11.798   2.963 -0.7052  3.5754  2.6660
  448MOL0     H59081   6.899  11.722   2.704  0.5940  0.3258 -0.8147
  448MOL0     H59082   7.002  11.608   2.794 -0.0306  0.7578  0.4851
  448MOL0     H59083   7.194  11.692   2.712 -0.2148  2.2230  2.7923
  448MOL0     H59084   7.132  11.853   2.671  0.0677  0.4439 -0.2081
  448MOL0     H59085   7.024  11.620   2.516  0.3121 -0.0682  2.4096
  448MOL0     H59086   7.030  11.792   2.471 -1.3941  0.9489  0.6926
  448MOL0     H59087   7.298  11.744   2.500 -1.0448  3.1663 -1.1663
  448MOL0     H59088   7.219  11.729   2.351 -0.7104  0.6308  0.2615
  448MOL0     H59089   7.317  11.475   2.654  0.2831 -2.3341  1.1135
  448MOL0     H59090   7.439  11.221   2.637  2.4068  2.1412 -2.0630
  448MOL0     H59091   7.410  11.139   2.473  2.1805 -0.7210  0.9719
  448MOL0     H59092   7.214  11.068   2.535 -0.1927  1.6139 -0.5676
  448MOL0     H59093   7.187  11.188   2.667  2.1215  2.6666 -0.0895
  448MOL0     H59094   7.375  11.067   2.792  1.4831 -1.8879 -1.6867
  448MOL0     H59095   7.233  10.964   2.765 -0.1543 -0.3557 -1.4152
  448MOL0     H59096   7.517  10.968   2.649 -1.6529  2.1774 -0.2345
  448MOL0     H59097   7.400  10.908   2.539 -0.3584  1.9148 -0.2411
  448MOL0     H59098   7.680  10.815   2.733 -2.5268 -0.5235  1.7342
  448MOL0     H59099   7.854  10.671   2.621 -0.1669 -0.5617  1.4100
  448MOL0     H59100   7.855  10.193   2.235 -0.5255  0.5093  0.7102
  448MOL0     H59101   7.955   9.980   2.234  0.5799  0.9013 -0.1363
  448MOL0     H59102   8.106   9.829   2.290  0.7827  0.8643 -0.5497
  448MOL0     H59103   8.158   9.735   2.429  0.0411  0.5829  1.0346
  448MOL0     H59104   8.175  10.037   2.404  2.8997  0.3153 -3.3953
  448MOL0     H59105   8.309   9.932   2.391 -0.0589  1.7800  1.6049
  448MOL0     H59106   8.286   9.850   2.617  1.4434  1.0287  0.1949
  448MOL0     H59107   8.152   9.966   2.645 -1.3913 -2.2788 -1.9155
  448MOL0     H59108   8.421  10.017   2.695  0.4527 -2.2249 -0.7126
  448MOL0     H59109   8.405  10.078   2.533  0.3021 -0.0524  0.2568
  448MOL0     H59110   8.232  10.161   2.776 -1.2493 -0.0359  0.0978
  448MOL0     H59111   8.205  10.225   2.620  0.4653  4.0168  1.6811
  448MOL0     H59112   8.460  10.279   2.647  0.0537 -1.4946 -0.9459
  448MOL0     H59113   8.432  10.251   2.825  0.2342 -0.2364  0.1478
  448MOL0     H59114   8.442  10.470   2.792  0.0171 -4.4718  1.8242
  448MOL0     H59115   8.327  10.469   2.644 -0.2395  0.2544 -0.0537
  448MOL0     H59116   8.144  10.399   2.797  0.5034 -1.4598  1.9759
  448MOL0     H59117   8.202  10.544   2.867  1.4227  1.8450 -2.2774
  448MOL0     H59118   7.835   9.930   2.648  2.9147  0.0351  0.3010
  448MOL0     H59119   7.734  10.180   2.634 -0.0152  2.1972 -0.3146
  448MOL0     H59120   7.524  10.428   2.482  1.7406 -0.8959  1.8274
  448MOL0     H59121   7.369  10.588   2.582  0.7326  1.3702  0.6768
  448MOL0     H59122   6.642  11.665   3.552 -1.3147 -0.1731 -1.9625
  448MOL0     H59123   6.667  11.442   3.660 -1.1229  2.3565  0.7588
  448MOL0     H59124   7.023  11.033   3.617 -1.9311  1.1978  5.3726
  448MOL0     H59125   7.070  10.820   3.654 -0.4721 -2.3033  1.2483
  448MOL0     H59126   7.054  10.594   3.833  0.0099  2.3594  0.3037
  448MOL0     H59127   7.074  10.626   3.662 -0.0104  1.0579  0.1454
  448MOL0     H59128   6.972  10.369   3.809 -0.3655 -0.5355 -0.4551
  448MOL0     H59129   6.938  10.390   3.633 -0.5318  0.7480 -0.1934
  448MOL0     H59130   7.128  10.242   3.668 -0.2466  0.7503 -0.4026
  448MOL0     H59131   7.205  10.362   3.770 -0.8896  0.3828  1.4458
  448MOL0     H59132   7.229  10.520   3.568 -0.9719  0.1166 -0.7118
  448MOL0     H59133   7.328  10.393   3.581 -0.1708 -1.4277  1.6378
  448MOL0     H59134   7.148  10.334   3.209 -1.7438  1.1796 -0.4078
  448MOL0     H59135   6.663  10.736   3.757 -1.9077  3.5258  0.5258
  448MOL0     H59136   6.597  10.957   3.699  0.4865  1.0020 -0.1080
  449MOL0     O59137   6.068   4.231   2.072  0.2779  0.4672  0.0594
  449MOL0     C59138   6.137   4.196   2.169  0.2024 -0.7667 -0.3350
  449MOL0     O59139   6.150   4.068   2.211 -0.5768  0.4532 -1.1601
  449MOL0     C59140   6.050   3.977   2.191 -0.1585  0.7039 -0.3280
  449MOL0     C59141   6.087   3.844   2.213  0.9548 -0.5773 -0.5313
  449MOL0     C59142   5.985   3.748   2.211 -0.4126  0.1497  0.1615
  449MOL0     C59143   5.852   3.772   2.197  0.6876  0.5235 -0.0692
  449MOL0     O59144   5.766   3.658   2.193 -0.3351 -0.2283 -0.2343
  449MOL0     C59145   5.632   3.679   2.159 -0.7866  0.0414  0.4450
  449MOL0     C59146   5.584   3.545   2.108  0.2056 -0.4070  0.3300
  449MOL0     C59147   5.439   3.558   2.081  0.0796  0.3599 -0.3482
  449MOL0     C59148   5.369   3.422   2.088  0.7342  0.6580 -0.0490
  449MOL0     C59149   5.219   3.448   2.046 -0.6307 -0.4760 -0.6419
  449MOL0     C59150   5.153   3.317   2.099 -0.4462 -0.0367 -0.4047
  449MOL0     C59151   5.015   3.298   2.059  0.7172 -0.0088  0.0431
  449MOL0     C59152   4.963   3.160   2.077  0.3926 -0.2465 -0.7347
  449MOL0     N59153   4.825   3.122   2.043 -0.2255  0.0902 -0.4419
  449MOL0     C59154   4.711   3.185   2.081  0.8110  0.4780  0.3333
  449MOL0     C59155   4.617   3.113   2.023 -0.1402 -0.0778  0.2238
  449MOL0     C59156   4.467   3.160   2.021 -1.0944  0.1358  0.0115
  449MOL0     C59157   4.417   3.171   1.872  0.1213 -0.0266  0.0561
  449MOL0     C59158   4.271   3.203   1.866 -0.5255 -0.8252 -1.2327
  449MOL0     C59159   4.203   3.193   1.730 -0.4910  0.1454 -0.7182
  449MOL0     O59160   4.155   3.054   1.730  0.0806 -0.7808  0.0455
  449MOL0     C59161   4.072   3.019   1.621  1.1249 -0.2368 -0.4424
  449MOL0     C59162   4.019   3.109   1.520 -0.2494  0.6120  0.2223
  449MOL0     C59163   3.958   3.050   1.405 -0.0810  0.0268  0.1624
  449MOL0     C59164   3.953   2.910   1.381 -0.2956 -0.2060 -0.5108
  449MOL0     C59165   3.892   2.854   1.259 -0.0639 -1.3715  0.3499
  449MOL0     O59166   3.830   2.941   1.167  0.2267 -1.1949 -0.9187
  449MOL0     C59167   3.796   2.893   1.043 -0.6294 -0.5133 -0.4831
  449MOL0     C59168   3.663   2.908   0.994 -0.2521 -0.4509  0.5398
  449MOL0     C59169   3.636   2.865   0.865 -0.3966  0.2352 -0.9793
  449MOL0     C59170   3.724   2.785   0.790  0.1882 -1.0100 -1.1685
  449MOL0     O59171   3.675   2.737   0.676 -0.4364  0.1453  0.1041
  449MOL0     C59172   3.726   2.809   0.561 -0.4217  0.1598 -0.1571
  449MOL0     C59173   3.630   2.780   0.444 -0.8454 -0.5951 -0.2753
  449MOL0     C59174   3.695   2.754   0.306 -0.7701 -0.1645 -0.4998
  449MOL0     C59175   3.588   2.723   0.204  0.5059  1.0683  0.4613
  449MOL0     C59176   3.623   2.669   0.065  0.0637  0.2709  0.4050
  449MOL0     C59177   3.506   2.643  -0.039 -0.4126  0.0578  0.3005
  449MOL0     C59178   3.570   2.607  -0.168 -0.2245  0.0976  1.0554
  449MOL0     C59179   3.468   2.563  -0.274 -0.2935 -0.3405 -0.8515
  449MOL0    Cl59180   3.310   2.656  -0.276  0.3433 -0.6395  0.2499
  449MOL0     C59181   3.848   2.759   0.847  0.6262 -0.2979 -0.2184
  449MOL0     C59182   3.884   2.820   0.967 -0.5728  0.0277 -1.0183
  449MOL0     O59183   3.916   2.736   1.242  0.9133 -0.3731 -0.3489
  449MOL0     C59184   4.006   2.822   1.482  0.0521  1.3206  0.3125
  449MOL0     C59185   4.055   2.882   1.603 -0.0699 -0.1541 -0.8077
  449MOL0     N59186   4.664   3.004   1.954 -0.2769 -0.0377 -0.2422
  449MOL0     N59187   4.791   3.012   1.963  0.1936  1.0186 -0.1341
  449MOL0     C59188   5.820   3.907   2.179  0.3909 -0.6447 -0.2943
  449MOL0     C59189   5.911   4.009   2.185 -0.9605  0.0922  0.2056
  449MOL0     C59190   6.212   4.299   2.247 -0.3168 -0.1349  0.4837
  449MOL0     C59191   6.249   4.294   2.375 -0.6222 -0.5328 -0.4297
  449MOL0     C59192   6.281   4.418   2.433  0.1989  0.7547  0.0311
  449MOL0     C59193   6.294   4.532   2.358 -0.2646  0.1377  0.6294
  449MOL0     O59194   6.332   4.656   2.411  1.1835  0.2932  0.3531
  449MOL0     C59195   6.407   4.669   2.534  0.1669 -0.0737 -0.4722
  449MOL0     C59196   6.479   4.811   2.550 -0.7640  0.0495  0.3845
  449MOL0     C59197   6.556   4.821   2.684 -0.2855 -0.1769 -0.2456
  449MOL0     C59198   6.688   4.731   2.682  1.0935  0.4680  0.3133
  449MOL0     C59199   6.740   4.741   2.821 -0.4853 -1.0039  0.1600
  449MOL0     C59200   6.770   4.745   2.938 -0.7194 -0.5582  0.8861
  449MOL0     C59201   6.272   4.529   2.224  0.5593  0.3442 -0.0130
  449MOL0     C59202   6.217   4.422   2.167  0.2705  0.6184 -0.6858
  449MOL0     H59203   6.186   3.830   2.254  1.2330  1.1382 -0.5271
  449MOL0     H59204   6.004   3.641   2.216 -0.0462  0.2354  0.8224
  449MOL0     H59205   5.635   3.744   2.072 -2.7015 -1.7733 -1.0878
  449MOL0     H59206   5.573   3.717   2.243 -0.7499 -3.0958  2.0365
  449MOL0     H59207   5.606   3.469   2.183 -1.1530 -1.1706 -0.0090
  449MOL0     H59208   5.635   3.513   2.016  1.6492  1.0555  0.5715
  449MOL0     H59209   5.433   3.602   1.981  0.6365 -1.0163 -1.0150
  449MOL0     H59210   5.387   3.630   2.144 -1.3783 -1.5120  0.7007
  449MOL0     H59211   5.421   3.357   2.018  1.0734  0.2326  0.5870
  449MOL0     H59212   5.393   3.397   2.192  0.4549  4.3795  1.0783
  449MOL0     H59213   5.195   3.469   1.941 -2.4617 -0.1549 -0.2021
  449MOL0     H59214   5.182   3.528   2.111 -2.3075 -0.7790 -1.1669
  449MOL0     H59215   5.151   3.321   2.208  1.9333  0.3701 -0.3272
  449MOL0     H59216   5.202   3.225   2.064 -2.2231 -0.6536 -1.4281
  449MOL0     H59217   4.960   3.378   2.109 -1.3251  0.3905 -2.5955
  449MOL0     H59218   5.006   3.308   1.950  0.0226  1.7945  0.2234
  449MOL0     H59219   4.974   3.133   2.183 -0.6630 -3.5259 -1.3531
  449MOL0     H59220   5.025   3.089   2.021 -1.2722 -1.6138 -0.9171
  449MOL0     H59221   4.701   3.282   2.130 -2.4267  0.2986  0.2827
  449MOL0     H59222   4.454   3.261   2.060 -1.9972 -0.4082  1.1674
  449MOL0     H59223   4.397   3.104   2.083 -0.2547  0.0739  0.9157
  449MOL0     H59224   4.428   3.073   1.824 -1.1973  0.3469 -1.0806
  449MOL0     H59225   4.475   3.249   1.822 -0.8758 -1.3847 -3.5696
  449MOL0     H59226   4.237   3.122   1.933 -1.6732  0.4942 -0.1575
  449MOL0     H59227   4.255   3.303   1.906  0.4903 -0.5709 -1.4384
  449MOL0     H59228   4.265   3.220   1.644 -1.0017  1.8673 -0.5794
  449MOL0     H59229   4.123   3.267   1.738  0.8257  1.4340  2.5492
  449MOL0     H59230   4.017   3.217   1.529  1.0837  0.9258 -2.3824
  449MOL0     H59231   3.908   3.105   1.327 -0.9135  0.0679  0.7141
  449MOL0     H59232   3.585   2.964   1.044  0.8837  1.2977  0.4550
  449MOL0     H59233   3.538   2.891   0.824 -0.4048  3.1950  0.6251
  449MOL0     H59234   3.824   2.769   0.531  0.1424 -1.2973  3.1648
  449MOL0     H59235   3.719   2.918   0.567 -0.1513  0.1642  0.0960
  449MOL0     H59236   3.560   2.864   0.443 -0.0629  0.1038  0.6893
  449MOL0     H59237   3.571   2.690   0.461  0.8418 -1.3268  2.4382
  449MOL0     H59238   3.780   2.685   0.313  1.1999  2.2574  2.7918
  449MOL0     H59239   3.743   2.848   0.276  2.6616 -1.3811  0.5792
  449MOL0     H59240   3.519   2.656   0.257  1.6525  0.3304  1.0743
  449MOL0     H59241   3.536   2.818   0.186  0.2684  0.9293  0.4011
  449MOL0     H59242   3.662   2.568   0.075  0.0184  0.4040  2.3663
  449MOL0     H59243   3.695   2.736   0.017  2.5758 -1.3975  1.6480
  449MOL0     H59244   3.449   2.735  -0.056  1.1428  1.0004 -0.0819
  449MOL0     H59245   3.440   2.565  -0.002  0.6637  0.1857  2.6870
  449MOL0     H59246   3.621   2.693  -0.214 -0.5000  0.2093  0.9613
  449MOL0     H59247   3.650   2.533  -0.162  0.7880  1.1429  0.9530
  449MOL0     H59248   3.438   2.457  -0.270  0.9148 -0.7435 -1.8256
  449MOL0     H59249   3.521   2.584  -0.368 -0.4366  1.1756 -0.6106
  449MOL0     H59250   3.924   2.695   0.803  3.9531  3.8113 -1.0312
  449MOL0     H59251   3.982   2.800   1.009 -1.8606 -1.9181  1.2834
  449MOL0     H59252   3.988   2.716   1.474 -0.3126  1.4222 -0.2624
  449MOL0     H59253   4.093   2.814   1.679 -2.1294 -1.7487 -1.1147
  449MOL0     H59254   5.715   3.928   2.166  0.0131 -1.9245  0.5225
  449MOL0     H59255   5.885   4.115   2.179  0.5548  0.4235 -1.1803
  449MOL0     H59256   6.226   4.208   2.437 -0.9193  1.1815  1.9821
  449MOL0     H59257   6.296   4.416   2.541  2.2123 -3.5367 -0.1154
  449MOL0     H59258   6.484   4.593   2.545  1.4419  0.8604 -2.3324
  449MOL0     H59259   6.337   4.654   2.617  1.5134  0.1088  0.7311
  449MOL0     H59260   6.557   4.814   2.472  1.9201 -3.0903  2.6204
  449MOL0     H59261   6.399   4.882   2.531 -0.0568  0.6054 -0.6588
  449MOL0     H59262   6.493   4.822   2.773  1.0463  3.7715  0.8761
  449MOL0     H59263   6.584   4.926   2.670 -0.2617 -0.2923 -1.0927
  449MOL0     H59264   6.649   4.631   2.662  0.3537  0.4117  1.8896
  449MOL0     H59265   6.755   4.760   2.601 -1.1682 -0.6602 -2.0934
  449MOL0     H59266   6.765   4.743   3.045 -3.7348 -1.4968  0.8096
  449MOL0     H59267   6.284   4.621   2.168 -0.5652 -1.2080 -3.0187
  449MOL0     H59268   6.180   4.448   2.068 -3.0371  1.6284  0.7072
  450MOL0     O59269   3.043   2.310   6.921 -0.2810 -0.9248  0.4462
  450MOL0     C59270   3.148   2.373   6.955 -0.6324 -0.2941  0.3571
  450MOL0     O59271   3.271   2.337   6.919 -0.0350 -0.0885 -0.2638
  450MOL0     C59272   3.310   2.241   6.830  0.2233 -0.4830  0.5458
  450MOL0     C59273   3.441   2.185   6.838  0.4106 -0.5078  1.2197
  450MOL0     C59274   3.485   2.094   6.740 -0.3180  0.7812  1.3100
  450MOL0     C59275   3.403   2.059   6.624 -0.8808 -0.0596  0.0702
  450MOL0     O59276   3.446   1.955   6.543 -0.5006  0.3183  0.2549
  450MOL0     C59277   3.459   1.816   6.604  0.8651 -0.5008  0.0214
  450MOL0     C59278   3.528   1.712   6.515 -0.2479  0.0732 -0.2877
  450MOL0     C59279   3.670   1.747   6.503  0.6966  0.0320  0.7561
  450MOL0     C59280   3.749   1.666   6.390 -0.8672 -0.4159 -0.5145
  450MOL0     C59281   3.697   1.662   6.244  0.2184  0.1677  0.6177
  450MOL0     C59282   3.792   1.624   6.135 -0.1931  0.1679 -0.3843
  450MOL0     C59283   3.841   1.483   6.123 -0.1838  0.7861  0.3766
  450MOL0     C59284   3.965   1.480   6.044 -0.8040  0.1730  0.1998
  450MOL0     N59285   4.004   1.340   6.024 -0.6468 -0.4667  0.2406
  450MOL0     C59286   3.932   1.260   5.937 -0.1643  0.3651 -0.3622
  450MOL0     C59287   4.020   1.165   5.897 -0.8809  0.1498 -0.8205
  450MOL0     C59288   3.995   1.065   5.789  0.0448 -0.7857  0.3502
  450MOL0     C59289   3.896   0.966   5.823  0.4543 -0.1657  0.0748
  450MOL0     C59290   3.871   0.867   5.703  0.1466 -0.2772  0.2872
  450MOL0     C59291   3.976   0.758   5.687 -0.6901  0.1808  0.8302
  450MOL0     O59292   3.961   0.644   5.778 -0.6107  0.5796  0.6283
  450MOL0     C59293   3.999   0.656   5.913  0.4703  0.5739  0.2872
  450MOL0     C59294   4.126   0.694   5.965 -0.3730  1.2410  0.1290
  450MOL0     C59295   4.139   0.692   6.107  0.0418 -0.2370 -0.3539
  450MOL0     C59296   4.028   0.660   6.192 -0.1270 -0.2358 -0.4389
  450MOL0     C59297   4.037   0.668   6.342  0.5448 -0.6179  0.6340
  450MOL0     O59298   4.131   0.746   6.395 -0.6177 -0.5308  0.1135
  450MOL0     C59299   4.127   0.754   6.538  0.2109 -0.1885 -0.1404
  450MOL0     C59300   4.149   0.875   6.604 -0.2898  1.1789  0.3075
  450MOL0     C59301   4.169   0.891   6.745 -0.3699  1.2552  0.3981
  450MOL0     C59302   4.175   0.775   6.817 -0.1500  0.8205 -1.0970
  450MOL0     O59303   4.207   0.803   6.948 -0.0617  0.2082  0.7287
  450MOL0     C59304   4.265   0.693   7.029 -0.5113 -0.8318 -0.3697
  450MOL0     C59305   4.334   0.722   7.161 -0.0095  0.1778 -0.1048
  450MOL0     C59306   4.279   0.844   7.257 -0.1589  0.9376  0.1744
  450MOL0     C59307   4.383   0.875   7.369 -0.4510  0.9772 -0.8297
  450MOL0     C59308   4.312   0.940   7.487 -0.3298  0.1312 -0.3013
  450MOL0     C59309   4.232   1.069   7.451  0.4087  0.1175 -0.6375
  450MOL0     C59310   4.194   1.157   7.580 -1.7419 -0.5369  0.3668
  450MOL0     C59311   4.126   1.283   7.562  0.5163  0.0224  0.3804
  450MOL0    Cl59312   4.088   1.348   7.717  0.0231 -0.3752 -0.0926
  450MOL0     C59313   4.157   0.638   6.752 -0.2230 -1.1280 -0.1329
  450MOL0     C59314   4.132   0.641   6.614  0.1168 -0.0546  0.3690
  450MOL0     O59315   3.949   0.610   6.407  1.0994 -0.1554  0.6805
  450MOL0     C59316   3.908   0.634   6.137  0.4073  0.1023  0.1969
  450MOL0     C59317   3.897   0.623   6.002 -0.1343 -0.1798  0.2529
  450MOL0     N59318   4.144   1.190   5.960  0.2732 -0.0334 -0.0457
  450MOL0     N59319   4.131   1.298   6.035 -0.0216  0.4056 -0.0833
  450MOL0     C59320   3.283   2.126   6.614 -0.1363 -0.2765  0.2496
  450MOL0     C59321   3.242   2.217   6.710  0.1636 -0.7649 -0.8282
  450MOL0     C59322   3.130   2.495   7.031 -1.0210 -0.8829  0.1171
  450MOL0     C59323   3.232   2.589   7.043 -0.1243  0.9686  0.3187
  450MOL0     C59324   3.206   2.718   7.092  0.5348  0.6613  0.7869
  450MOL0     C59325   3.073   2.747   7.130 -0.5382 -0.9914 -0.2476
  450MOL0     O59326   3.040   2.875   7.170 -0.1938 -0.2989  0.4955
  450MOL0     C59327   3.133   2.984   7.174  0.1494  0.1683  0.2525
  450MOL0     C59328   3.046   3.111   7.185 -0.9748 -0.2884  0.7528
  450MOL0     C59329   3.128   3.232   7.162  0.4387  0.4368 -0.7195
  450MOL0     C59330   3.041   3.356   7.179 -0.0410 -0.2352 -0.7097
  450MOL0     C59331   2.918   3.381   7.094  0.0437 -0.1606 -0.3422
  450MOL0     C59332   2.805   3.409   7.047 -0.6334  1.1653 -0.6078
  450MOL0     C59333   2.977   2.651   7.137 -0.1529  0.9944  0.9248
  450MOL0     C59334   3.000   2.523   7.079 -0.1408  0.3323 -0.7345
  450MOL0     H59335   3.505   2.201   6.924  0.3870  3.5889  0.6490
  450MOL0     H59336   3.571   2.032   6.760 -3.4112 -3.4175  3.2156
  450MOL0     H59337   3.355   1.788   6.624 -1.5452  3.5116 -4.7623
  450MOL0     H59338   3.501   1.815   6.706  1.5001  1.5714 -0.1815
  450MOL0     H59339   3.491   1.712   6.412  0.9512 -1.6462 -0.7621
  450MOL0     H59340   3.514   1.615   6.564  1.7371  1.0674  2.5091
  450MOL0     H59341   3.721   1.735   6.599  3.7095 -0.2845 -0.7456
  450MOL0     H59342   3.676   1.854   6.480  2.0746  0.4536  2.7935
  450MOL0     H59343   3.848   1.711   6.383 -0.4319 -1.0475  1.1229
  450MOL0     H59344   3.762   1.570   6.440  0.7739 -0.2381 -0.5352
  450MOL0     H59345   3.650   1.760   6.233 -0.0706 -0.0989 -0.7126
  450MOL0     H59346   3.615   1.590   6.235 -0.5964  1.0335  0.9325
  450MOL0     H59347   3.863   1.706   6.123 -0.3272  0.4319  0.5313
  450MOL0     H59348   3.718   1.634   6.056 -1.2352  2.4507  0.7857
  450MOL0     H59349   3.853   1.464   6.230  0.6077 -0.3656  0.1066
  450MOL0     H59350   3.763   1.421   6.077  1.4748  1.0118 -3.1168
  450MOL0     H59351   4.047   1.538   6.088 -1.4820  0.1394  1.5354
  450MOL0     H59352   3.951   1.524   5.945  4.1495 -2.3384 -1.9912
  450MOL0     H59353   3.831   1.290   5.907 -0.1744  1.1912  0.4665
  450MOL0     H59354   4.088   1.020   5.755 -0.4105 -1.9585  0.6094
  450MOL0     H59355   3.952   1.109   5.698  0.8839 -1.7409 -0.5369
  450MOL0     H59356   3.803   1.016   5.853 -0.1558 -0.4459 -1.2943
  450MOL0     H59357   3.924   0.910   5.913  1.9715  0.4802  0.0234
  450MOL0     H59358   3.773   0.820   5.718 -2.7038  4.7685 -0.2118
  450MOL0     H59359   3.864   0.922   5.609  1.9080 -0.1837  0.1867
  450MOL0     H59360   4.075   0.803   5.701 -1.0575  1.9049 -1.4495
  450MOL0     H59361   3.974   0.730   5.581  2.4412  1.6598  0.2441
  450MOL0     H59362   4.208   0.715   5.897  0.8145 -1.5559  0.5610
  450MOL0     H59363   4.235   0.710   6.154  0.5694 -0.6629 -1.2527
  450MOL0     H59364   4.139   0.970   6.552  2.7667  1.7037  0.4780
  450MOL0     H59365   4.195   0.984   6.794  1.0953 -0.4090  3.0222
  450MOL0     H59366   4.336   0.633   6.971 -1.0706 -1.1836 -0.7018
  450MOL0     H59367   4.180   0.630   7.055 -1.7207 -0.6425 -3.4329
  450MOL0     H59368   4.441   0.733   7.141  0.2997  1.8766  2.0952
  450MOL0     H59369   4.316   0.627   7.214 -1.3741  0.4458 -0.0655
  450MOL0     H59370   4.184   0.814   7.302 -0.3148 -0.6962 -1.1088
  450MOL0     H59371   4.254   0.923   7.186  1.1765 -1.7750 -3.6397
  450MOL0     H59372   4.417   0.781   7.412 -1.3360  1.3826  0.8219
  450MOL0     H59373   4.463   0.941   7.334  0.1756 -0.6506 -2.5846
  450MOL0     H59374   4.372   0.972   7.573 -1.7664 -0.5237  1.0037
  450MOL0     H59375   4.245   0.868   7.536 -2.7589  2.4381  0.0091
  450MOL0     H59376   4.148   1.037   7.389 -0.4205 -0.4999  0.7630
  450MOL0     H59377   4.298   1.122   7.382 -0.2512  0.7994 -0.7623
  450MOL0     H59378   4.142   1.094   7.652 -1.2115 -1.2023  0.1713
  450MOL0     H59379   4.293   1.182   7.618 -0.3320  0.8861 -3.6286
  450MOL0     H59380   4.034   1.279   7.502 -0.1517 -0.2017  1.3891
  450MOL0     H59381   4.195   1.347   7.506  0.3970 -0.0796  0.1156
  450MOL0     H59382   4.147   0.552   6.818  3.6015 -1.0928  0.6729
  450MOL0     H59383   4.119   0.543   6.569 -2.0040  0.0866  0.5942
  450MOL0     H59384   3.827   0.628   6.209 -1.2884  1.4681 -1.4692
  450MOL0     H59385   3.799   0.598   5.963  0.1217  1.7899 -1.8496
  450MOL0     H59386   3.218   2.107   6.529  0.3949 -3.8821  0.4781
  450MOL0     H59387   3.149   2.270   6.690 -0.1636 -0.5000  1.2281
  450MOL0     H59388   3.331   2.569   7.003 -0.7473 -1.5282 -0.1641
  450MOL0     H59389   3.288   2.788   7.089  1.9760 -0.9451 -2.0927
  450MOL0     H59390   3.169   2.975   7.071 -1.9511 -0.3616 -0.4941
  450MOL0     H59391   3.214   2.967   7.245  0.3713 -1.1244 -0.2739
  450MOL0     H59392   2.973   3.124   7.104  1.6692  4.4227 -1.2354
  450MOL0     H59393   2.998   3.106   7.283 -3.3530 -2.5843 -0.3825
  450MOL0     H59394   3.182   3.235   7.067 -0.9324 -0.1844 -1.5498
  450MOL0     H59395   3.204   3.232   7.241  1.1454  2.5457 -1.3196
  450MOL0     H59396   3.015   3.365   7.285  1.7981  4.8814 -0.4078
  450MOL0     H59397   3.099   3.447   7.163 -0.0151 -0.2121 -0.4871
  450MOL0     H59398   2.703   3.423   7.017 -0.8105  2.2211  0.4216
  450MOL0     H59399   2.880   2.688   7.168 -2.2049 -1.1320 -2.3799
  450MOL0     H59400   2.932   2.439   7.075  0.6359 -0.6299  2.8464
  451MOL0     O59401   0.577   1.968   1.451  0.1411 -0.1653 -0.2165
  451MOL0     C59402   0.653   1.878   1.425 -0.0282 -0.1546 -0.0406
  451MOL0     O59403   0.758   1.844   1.498 -0.0929  0.1521 -0.3144
  451MOL0     C59404   0.816   1.942   1.572 -0.3214 -0.0592 -0.1251
  451MOL0     C59405   0.883   1.902   1.686  0.2542 -0.3121  0.9687
  451MOL0     C59406   0.938   1.990   1.763 -0.1613  0.5412 -0.2020
  451MOL0     C59407   0.955   2.117   1.726  0.7689  0.0920 -0.0440
  451MOL0     O59408   1.027   2.214   1.783 -0.2905 -0.0965  0.6520
  451MOL0     C59409   1.041   2.223   1.927  0.0301 -0.1001  1.2783
  451MOL0     C59410   0.930   2.297   2.001 -0.0697 -0.2648 -1.3186
  451MOL0     C59411   0.938   2.457   1.993  0.5667 -0.3638  0.2433
  451MOL0     C59412   0.794   2.509   2.002  0.4616 -0.7867 -0.2053
  451MOL0     C59413   0.799   2.665   1.990 -0.3743 -1.3262 -1.0389
  451MOL0     C59414   0.658   2.734   1.976  0.6327 -0.0585 -0.4720
  451MOL0     C59415   0.537   2.663   2.035 -0.4364 -1.2199  0.1436
  451MOL0     C59416   0.415   2.741   1.976  0.4327 -0.5421 -0.3884
  451MOL0     N59417   0.279   2.697   2.026 -1.1553  0.6844  0.0333
  451MOL0     C59418   0.225   2.569   2.031  0.5329  0.0358  0.4450
  451MOL0     C59419   0.114   2.575   2.113 -0.0092  0.4325 -0.1083
  451MOL0     C59420   0.028   2.461   2.161  0.1966 -0.5692  0.1762
  451MOL0     C59421  -0.110   2.458   2.100 -0.0085  0.7413 -0.2135
  451MOL0     C59422  -0.133   2.388   1.964  0.0800  0.9044  0.4431
  451MOL0     C59423  -0.271   2.431   1.915  1.3872 -0.5876 -0.5579
  451MOL0     O59424  -0.279   2.568   1.876  0.1837 -0.2889  0.3188
  451MOL0     C59425  -0.217   2.594   1.759 -0.7035 -0.3378  0.6607
  451MOL0     C59426  -0.136   2.706   1.755 -0.4197  0.7470  0.1529
  451MOL0     C59427  -0.063   2.735   1.642  0.4165  0.7077  0.4504
  451MOL0     C59428  -0.070   2.660   1.527 -0.5605  0.4518 -0.2867
  451MOL0     C59429   0.013   2.692   1.411 -0.5946  0.1687  0.0896
  451MOL0     O59430   0.074   2.809   1.403 -0.2704  0.6911  0.1700
  451MOL0     C59431   0.185   2.822   1.315 -0.8414  0.0229 -0.8155
  451MOL0     C59432   0.178   2.894   1.196  0.3207 -0.0415 -0.4951
  451MOL0     C59433   0.295   2.932   1.129 -0.2916 -0.0170  1.4562
  451MOL0     C59434   0.417   2.912   1.182 -0.9965  0.3561 -0.4065
  451MOL0     O59435   0.531   2.938   1.103 -0.0207  0.2615 -0.5468
  451MOL0     C59436   0.626   3.027   1.168  0.2707 -0.2860 -0.4441
  451MOL0     C59437   0.744   3.068   1.075 -0.8847  0.1513 -0.4624
  451MOL0     C59438   0.702   3.145   0.950  1.1346  0.0106 -0.2066
  451MOL0     C59439   0.684   3.288   0.986 -0.5611  0.1304  0.2314
  451MOL0     C59440   0.826   3.354   0.997  0.8507 -0.6748  0.7252
  451MOL0     C59441   0.828   3.509   0.960  0.6051  0.2564 -0.0804
  451MOL0     C59442   0.959   3.568   1.016  1.5354 -0.0390  0.1009
  451MOL0     C59443   0.984   3.718   0.983  0.8912 -0.7328  1.2832
  451MOL0    Cl59444   0.858   3.816   1.060 -0.0625 -0.1552 -0.0627
  451MOL0     C59445   0.435   2.852   1.309  0.4316 -0.0501 -0.1695
  451MOL0     C59446   0.316   2.810   1.369 -0.3225  0.0039  0.2583
  451MOL0     O59447   0.014   2.599   1.333 -0.2197  0.3757  1.2974
  451MOL0     C59448  -0.172   2.555   1.519 -0.4202  0.3629  0.5265
  451MOL0     C59449  -0.243   2.521   1.640 -0.5636 -0.7652  0.4796
  451MOL0     N59450   0.101   2.697   2.148  0.1009 -0.0644 -0.6071
  451MOL0     N59451   0.200   2.772   2.104  0.5098  0.6960 -0.5743
  451MOL0     C59452   0.913   2.154   1.600 -0.3170  0.8103  0.5647
  451MOL0     C59453   0.834   2.066   1.523  0.7664  0.3329 -0.1086
  451MOL0     C59454   0.630   1.814   1.297  0.0126 -0.0224 -0.5760
  451MOL0     C59455   0.669   1.675   1.286 -0.9056 -0.2146  0.2987
  451MOL0     C59456   0.640   1.607   1.168 -0.3878  0.0877 -0.3001
  451MOL0     C59457   0.557   1.655   1.068  0.5312 -0.4432  0.8453
  451MOL0     O59458   0.533   1.560   0.974  0.4380 -0.4897  0.5196
  451MOL0     C59459   0.415   1.571   0.879 -0.1256 -0.0327 -0.4497
  451MOL0     C59460   0.465   1.537   0.743 -0.8271  0.1138 -0.6062
  451MOL0     C59461   0.493   1.386   0.743  0.1679 -0.1767 -0.2900
  451MOL0     C59462   0.523   1.323   0.609 -0.3377 -0.2990  0.4998
  451MOL0     C59463   0.637   1.393   0.541 -0.0085  0.1251  0.2208
  451MOL0     C59464   0.744   1.429   0.491  0.2483 -0.2782  0.5871
  451MOL0     C59465   0.507   1.784   1.079 -0.5350 -0.2252 -0.6604
  451MOL0     C59466   0.542   1.869   1.198  0.1745  0.0513 -1.0329
  451MOL0     H59467   0.884   1.795   1.702  0.1039 -0.8460 -1.9451
  451MOL0     H59468   0.998   1.957   1.847  0.2579 -1.3346 -1.1837
  451MOL0     H59469   1.130   2.284   1.939 -0.4242  1.3166 -1.7048
  451MOL0     H59470   1.056   2.121   1.963  1.6955 -0.0005  0.9522
  451MOL0     H59471   0.952   2.276   2.106 -1.5801 -1.3061 -1.1896
  451MOL0     H59472   0.833   2.260   1.967  0.4077 -1.4890 -1.4025
  451MOL0     H59473   0.987   2.499   1.906  3.5583 -2.3173  0.8339
  451MOL0     H59474   0.993   2.488   2.082  0.5000 -5.4066  2.4276
  451MOL0     H59475   0.719   2.471   1.933 -2.5506  2.8143  0.7609
  451MOL0     H59476   0.754   2.485   2.101  0.0780  0.6170  0.0142
  451MOL0     H59477   0.860   2.684   1.901  2.2118 -0.4601  0.8064
  451MOL0     H59478   0.853   2.711   2.073 -0.9534  0.6983 -1.7244
  451MOL0     H59479   0.633   2.733   1.869 -4.4060 -0.6622  0.4252
  451MOL0     H59480   0.660   2.840   2.000  0.8283 -0.2549  0.4023
  451MOL0     H59481   0.536   2.569   1.979 -2.9568 -0.6967 -0.8445
  451MOL0     H59482   0.538   2.652   2.144  0.7648 -0.9160  0.1792
  451MOL0     H59483   0.410   2.719   1.869  0.2334  0.6603 -0.6385
  451MOL0     H59484   0.428   2.847   2.000 -0.3639 -0.4488 -0.3583
  451MOL0     H59485   0.265   2.471   2.011 -0.2229 -0.4889  1.3988
  451MOL0     H59486  -0.001   2.468   2.266 -0.0397 -1.6299  0.1938
  451MOL0     H59487   0.072   2.364   2.135 -0.4619 -0.3718 -1.8569
  451MOL0     H59488  -0.145   2.561   2.088  0.8219  1.0486 -0.1095
  451MOL0     H59489  -0.174   2.399   2.166  2.1891 -4.3824 -2.1590
  451MOL0     H59490  -0.058   2.420   1.892  0.1711 -0.3170 -0.0227
  451MOL0     H59491  -0.121   2.279   1.964  0.2680  0.8957 -1.5389
  451MOL0     H59492  -0.343   2.413   1.995  0.6213 -2.0197 -1.5402
  451MOL0     H59493  -0.303   2.364   1.835  2.0135  1.2916 -2.4599
  451MOL0     H59494  -0.135   2.771   1.842  3.5535  1.6424 -0.3967
  451MOL0     H59495  -0.004   2.826   1.644 -0.8256  1.5279  1.0772
  451MOL0     H59496   0.078   2.918   1.160  0.5164  3.1956  0.8028
  451MOL0     H59497   0.287   2.979   1.032 -1.1605 -2.5096  0.2132
  451MOL0     H59498   0.672   2.972   1.251 -1.4709  0.6656  1.2387
  451MOL0     H59499   0.581   3.115   1.214 -0.4309 -0.7658 -0.2022
  451MOL0     H59500   0.785   2.972   1.044 -0.7320 -0.9284  2.7907
  451MOL0     H59501   0.810   3.119   1.146 -3.4223  1.8736  0.8340
  451MOL0     H59502   0.612   3.107   0.902  1.9730 -1.4832 -0.6402
  451MOL0     H59503   0.771   3.127   0.867 -1.5229 -0.8875 -2.3461
  451MOL0     H59504   0.625   3.340   0.911 -2.0129  0.7291  1.7248
  451MOL0     H59505   0.628   3.300   1.079 -1.4491  1.2732 -0.4342
  451MOL0     H59506   0.894   3.301   0.931 -3.2294 -4.5876 -0.8654
  451MOL0     H59507   0.852   3.352   1.103  0.5735  1.9302  0.9000
  451MOL0     H59508   0.733   3.544   1.001 -1.8640 -5.4095 -0.0212
  451MOL0     H59509   0.817   3.521   0.852 -4.4454  0.5494  0.2275
  451MOL0     H59510   0.959   3.567   1.125 -1.4963  2.1712  0.2572
  451MOL0     H59511   1.046   3.521   0.970  1.7121 -0.1070  0.5004
  451MOL0     H59512   0.982   3.741   0.876 -0.4649 -6.3621 -0.2491
  451MOL0     H59513   1.083   3.747   1.018  1.3683  0.6372 -1.0286
  451MOL0     H59514   0.536   2.827   1.340  0.8377  0.6066 -0.9418
  451MOL0     H59515   0.327   2.764   1.467 -3.7367 -2.1999 -0.2263
  451MOL0     H59516  -0.194   2.502   1.427 -2.3245  0.4581  0.8795
  451MOL0     H59517  -0.324   2.449   1.640 -0.7532 -0.5709  1.5780
  451MOL0     H59518   0.938   2.240   1.539  0.7949 -1.6255 -2.6952
  451MOL0     H59519   0.805   2.114   1.430  1.1599  2.9594  1.0434
  451MOL0     H59520   0.731   1.624   1.358 -0.3175  0.0774  0.0033
  451MOL0     H59521   0.686   1.510   1.176  1.4421  0.9083 -0.5055
  451MOL0     H59522   0.369   1.670   0.872 -1.4348 -0.1556  3.6654
  451MOL0     H59523   0.335   1.504   0.911  0.6037 -2.1272 -2.7127
  451MOL0     H59524   0.390   1.553   0.665 -0.8097 -0.6037 -0.7779
  451MOL0     H59525   0.554   1.596   0.719 -0.1004  0.1443  1.9125
  451MOL0     H59526   0.401   1.333   0.770 -0.6404  0.9268 -0.7957
  451MOL0     H59527   0.572   1.362   0.815 -0.3994  1.7789  1.0532
  451MOL0     H59528   0.546   1.217   0.625  0.3449 -0.4798 -1.3287
  451MOL0     H59529   0.440   1.326   0.537 -0.9536 -0.9782  1.1677
  451MOL0     H59530   0.839   1.461   0.453 -0.4177  0.1544 -0.7874
  451MOL0     H59531   0.442   1.808   0.996 -1.6753 -2.0835 -0.3577
  451MOL0     H59532   0.491   1.965   1.199  0.7784  0.3802  0.1496
  452MOL0     O59533   5.789  10.983   1.402 -0.3035  0.2245  0.2341
  452MOL0     C59534   5.697  11.063   1.379  0.1805 -0.0473 -0.5922
  452MOL0     O59535   5.657  11.166   1.473  0.2669  0.0450  0.5651
  452MOL0     C59536   5.739  11.189   1.584  0.7682 -0.2393  0.9460
  452MOL0     C59537   5.776  11.315   1.629 -0.0080 -0.4942 -1.0144
  452MOL0     C59538   5.868  11.321   1.735 -1.6762 -0.0327 -0.6656
  452MOL0     C59539   5.906  11.213   1.818 -0.0337  0.2384 -0.1752
  452MOL0     O59540   6.001  11.227   1.920 -0.5152 -0.5719  0.4966
  452MOL0     C59541   5.987  11.156   2.042  0.8252 -1.0389 -0.5365
  452MOL0     C59542   5.884  11.222   2.127  0.3221  1.1246  0.1532
  452MOL0     C59543   5.869  11.120   2.242  0.3778  0.3246  0.3888
  452MOL0     C59544   5.745  11.174   2.316  0.1251  0.0919 -0.0190
  452MOL0     C59545   5.746  11.141   2.469  0.0306 -0.2856 -0.7582
  452MOL0     C59546   5.855  11.219   2.542 -0.4113  0.4168  0.2154
  452MOL0     C59547   5.821  11.253   2.691  0.1187  0.1634  0.6545
  452MOL0     C59548   5.890  11.381   2.729  0.0754 -0.8360 -0.1139
  452MOL0     N59549   5.873  11.407   2.873  0.5099 -0.7901 -0.1448
  452MOL0     C59550   5.936  11.343   2.980  0.2516  0.2990  0.7207
  452MOL0     C59551   5.874  11.408   3.089  0.4581 -0.4751  0.4326
  452MOL0     C59552   5.879  11.359   3.231 -0.2542  0.3765  0.2187
  452MOL0     C59553   5.764  11.275   3.268  0.3159  0.5340  0.4307
  452MOL0     C59554   5.656  11.354   3.342  0.8103  0.1242 -1.0657
  452MOL0     C59555   5.556  11.244   3.391 -0.9601 -0.3446 -0.6669
  452MOL0     O59556   5.506  11.175   3.282 -0.3782 -0.8469  0.3980
  452MOL0     C59557   5.414  11.080   3.308 -0.1133 -0.3119 -0.0742
  452MOL0     C59558   5.384  10.995   3.200 -0.0171  1.0796 -0.7227
  452MOL0     C59559   5.292  10.882   3.212 -0.0505  0.0749 -0.0002
  452MOL0     C59560   5.216  10.867   3.327 -0.3213 -0.0790  0.3540
  452MOL0     C59561   5.113  10.763   3.333 -0.0495 -0.5673  1.0907
  452MOL0     O59562   5.072  10.718   3.453 -0.5065 -0.2483  0.5097
  452MOL0     C59563   4.942  10.674   3.457 -0.1212  0.3184 -0.5358
  452MOL0     C59564   4.930  10.537   3.433 -0.1439  0.1513  0.6245
  452MOL0     C59565   4.810  10.467   3.417  0.3821  0.4599 -0.9637
  452MOL0     C59566   4.695  10.544   3.415  0.2958  0.3739  0.5716
  452MOL0     O59567   4.571  10.486   3.383 -0.4390  0.6452 -0.3671
  452MOL0     C59568   4.492  10.463   3.504 -0.9116 -0.5235 -0.6901
  452MOL0     C59569   4.506  10.314   3.534  0.4638 -0.2717 -0.0390
  452MOL0     C59570   4.412  10.273   3.643 -0.1536  0.2273 -0.2919
  452MOL0     C59571   4.429  10.125   3.691 -0.2705  0.1026  0.8663
  452MOL0     C59572   4.342  10.095   3.822  1.1799 -0.3200  1.0878
  452MOL0     C59573   4.188  10.100   3.785 -0.6404  0.7356  0.6556
  452MOL0     C59574   4.143   9.976   3.715  0.5992 -0.9718  0.9805
  452MOL0     C59575   3.988   9.951   3.724  1.0605 -1.6161 -0.4258
  452MOL0    Cl59576   3.930   9.830   3.611  0.0378 -0.3547  0.1727
  452MOL0     C59577   4.702  10.674   3.450  0.5950 -0.4632 -0.0532
  452MOL0     C59578   4.825  10.748   3.465 -0.7773  0.0498 -0.0391
  452MOL0     O59579   5.053  10.741   3.231  0.4209  0.1777  0.4077
  452MOL0     C59580   5.239  10.956   3.429  0.2189 -0.8342 -0.5940
  452MOL0     C59581   5.337  11.060   3.425 -1.0420  0.0270 -0.0152
  452MOL0     N59582   5.802  11.520   3.049 -0.7541 -0.3458 -1.0725
  452MOL0     N59583   5.810  11.512   2.926  0.0895 -0.3749 -0.2209
  452MOL0     C59584   5.845  11.091   1.785  0.5906  1.1024 -0.4428
  452MOL0     C59585   5.770  11.078   1.663 -0.2040 -0.4761 -0.4223
  452MOL0     C59586   5.610  11.051   1.260  0.1301 -0.9607  0.4162
  452MOL0     C59587   5.590  10.937   1.191 -1.0229  0.0395  0.2377
  452MOL0     C59588   5.502  10.920   1.086 -0.1196  0.5343  0.3400
  452MOL0     C59589   5.457  11.031   1.020  0.6493 -0.2113  0.8585
  452MOL0     O59590   5.369  11.021   0.920  0.0094 -0.1557  0.5293
  452MOL0     C59591   5.356  10.892   0.857  0.1121  0.2449  0.1446
  452MOL0     C59592   5.277  10.919   0.728 -0.9041 -0.0314  0.6461
  452MOL0     C59593   5.280  10.793   0.638  0.0091 -0.3056 -0.2519
  452MOL0     C59594   5.153  10.781   0.558  0.2729 -0.7695 -0.5961
  452MOL0     C59595   5.037  10.759   0.643 -0.9683 -0.2292 -0.9221
  452MOL0     C59596   4.951  10.752   0.723  0.9561 -0.4014  0.7666
  452MOL0     C59597   5.477  11.161   1.078  1.1895 -0.6543 -0.0238
  452MOL0     C59598   5.550  11.170   1.197  0.6560 -0.1147 -0.3347
  452MOL0     H59599   5.745  11.399   1.567  1.2667  0.2505 -0.6897
  452MOL0     H59600   5.911  11.418   1.759  0.4693 -1.3808  1.5051
  452MOL0     H59601   6.084  11.151   2.091 -0.4729 -2.8938  2.1101
  452MOL0     H59602   5.974  11.050   2.022 -1.6160 -0.6933 -1.1684
  452MOL0     H59603   5.787  11.234   2.077 -0.4407  1.6533  1.7097
  452MOL0     H59604   5.913  11.318   2.170 -2.4082  0.5011  3.7977
  452MOL0     H59605   5.957  11.123   2.307  0.3482  3.6640  0.4459
  452MOL0     H59606   5.830  11.021   2.217 -2.2574  1.0030  1.4841
  452MOL0     H59607   5.741  11.282   2.300 -0.1860 -0.2578 -2.8474
  452MOL0     H59608   5.655  11.131   2.272  1.2220 -0.8139 -1.4820
  452MOL0     H59609   5.754  11.034   2.487 -1.8161 -0.3246  0.0697
  452MOL0     H59610   5.652  11.175   2.514 -0.0473  0.8198 -1.6895
  452MOL0     H59611   5.879  11.314   2.493  1.1930  0.6308  1.3466
  452MOL0     H59612   5.943  11.155   2.536 -1.1427 -0.6616  0.6923
  452MOL0     H59613   5.713  11.253   2.709 -0.3708  3.1493 -1.5925
  452MOL0     H59614   5.864  11.170   2.748  3.0190  1.8534  1.0971
  452MOL0     H59615   5.845  11.464   2.674 -0.3226  0.2617  1.7614
  452MOL0     H59616   5.996  11.385   2.707 -0.4450 -0.7671 -2.8945
  452MOL0     H59617   6.001  11.256   2.981 -1.0559 -0.7074  1.2502
  452MOL0     H59618   5.890  11.432   3.311 -0.2484 -1.9219  2.4159
  452MOL0     H59619   5.964  11.289   3.233 -0.5888 -0.3657 -3.4526
  452MOL0     H59620   5.794  11.198   3.340 -2.3381 -1.8370 -0.7879
  452MOL0     H59621   5.731  11.228   3.175  2.0404 -0.5374  0.3169
  452MOL0     H59622   5.701  11.420   3.417  0.3505  1.0425 -1.5819
  452MOL0     H59623   5.603  11.419   3.271  0.0596  0.8754  0.1412
  452MOL0     H59624   5.481  11.303   3.444 -0.0592  0.2445 -0.0005
  452MOL0     H59625   5.609  11.172   3.455  3.3486  0.3503 -3.0430
  452MOL0     H59626   5.438  11.023   3.110 -2.7431 -0.6933 -3.0859
  452MOL0     H59627   5.257  10.840   3.118 -1.8400  2.8394 -0.6905
  452MOL0     H59628   5.021  10.481   3.417  1.1335  2.0835  0.6979
  452MOL0     H59629   4.814  10.361   3.393  1.8157  0.2624  0.0549
  452MOL0     H59630   4.386  10.483   3.485 -1.3518 -3.2589 -1.5496
  452MOL0     H59631   4.522  10.517   3.594 -1.2600  0.8467 -1.3708
  452MOL0     H59632   4.608  10.296   3.570  0.1497 -2.1155  0.0375
  452MOL0     H59633   4.480  10.258   3.444 -0.0817  2.0925 -1.4340
  452MOL0     H59634   4.309  10.286   3.609 -0.3646  1.9862  0.9189
  452MOL0     H59635   4.440  10.328   3.733  2.5437 -2.9833  1.0711
  452MOL0     H59636   4.414  10.053   3.610 -0.9901  3.1561 -1.9638
  452MOL0     H59637   4.537  10.114   3.703 -0.0162 -0.7633 -1.5958
  452MOL0     H59638   4.364  10.177   3.891 -2.5563 -0.0223  2.1745
  452MOL0     H59639   4.377   9.997   3.854  0.5298 -0.6478  0.8201
  452MOL0     H59640   4.156  10.194   3.739 -1.6151 -0.4999 -1.2934
  452MOL0     H59641   4.148  10.097   3.887 -1.8598 -2.7473  0.2282
  452MOL0     H59642   4.179   9.971   3.612  0.1144 -0.4283  0.7769
  452MOL0     H59643   4.194   9.889   3.758  2.2743 -1.4340 -1.6954
  452MOL0     H59644   3.927  10.039   3.701  1.2302 -1.2168  0.5841
  452MOL0     H59645   3.948   9.920   3.821  0.4526  0.1201 -0.0772
  452MOL0     H59646   4.606  10.724   3.448  1.6561  1.7523  1.0608
  452MOL0     H59647   4.824  10.854   3.491 -1.4491  0.2166 -0.7095
  452MOL0     H59648   5.177  10.961   3.518 -2.8883  0.8511 -2.6811
  452MOL0     H59649   5.352  11.125   3.511  2.1409 -0.5465 -0.0136
  452MOL0     H59650   5.867  10.994   1.829 -2.2964  0.2187 -0.7696
  452MOL0     H59651   5.740  10.978   1.634  0.3655 -1.3080  1.6878
  452MOL0     H59652   5.631  10.842   1.224  0.4822  0.2278 -0.9883
  452MOL0     H59653   5.486  10.819   1.050 -2.7643  1.7720 -2.4356
  452MOL0     H59654   5.294  10.825   0.917 -0.5763  0.6279 -0.1298
  452MOL0     H59655   5.456  10.858   0.828  1.1500  1.7456  1.7952
  452MOL0     H59656   5.174  10.948   0.751 -1.5117 -0.5544 -1.2174
  452MOL0     H59657   5.320  11.007   0.681  2.1069 -2.1984 -0.9870
  452MOL0     H59658   5.292  10.706   0.703 -0.0100  1.3966  2.1798
  452MOL0     H59659   5.368  10.796   0.572 -0.4031  0.0095 -0.7981
  452MOL0     H59660   5.125  10.862   0.489 -1.2367 -1.2981 -0.6383
  452MOL0     H59661   5.174  10.693   0.497  1.1485 -0.3525 -0.9120
  452MOL0     H59662   4.881  10.742   0.803 -3.5160 -0.3046 -2.7595
  452MOL0     H59663   5.425  11.248   1.039  3.1316  1.6658  2.2180
  452MOL0     H59664   5.548  11.264   1.250 -1.9085 -0.0820 -0.3305
  453MOL0     O59665   6.490   9.851   1.584  0.5612 -0.4027  0.0846
  453MOL0     C59666   6.401   9.803   1.662 -0.4817 -0.2045  0.4570
  453MOL0     O59667   6.261   9.819   1.642 -0.6725 -0.4799 -0.4830
  453MOL0     C59668   6.201   9.885   1.541 -0.6939 -0.0466 -0.1762
  453MOL0     C59669   6.259   9.992   1.466  0.2276  0.4543  0.1093
  453MOL0     C59670   6.187  10.055   1.367  0.8115 -0.3697  0.4579
  453MOL0     C59671   6.061  10.019   1.329 -0.1155 -0.3790  0.6292
  453MOL0     O59672   5.996  10.098   1.244 -0.1231  0.1953  0.2474
  453MOL0     C59673   5.989  10.058   1.107 -0.0733 -0.6298  0.0573
  453MOL0     C59674   6.103  10.135   1.041  0.0831 -0.0476  0.0955
  453MOL0     C59675   6.081  10.291   1.040 -0.5097 -0.1698  0.0906
  453MOL0     C59676   6.199  10.368   0.975 -0.7122 -0.3000  0.2857
  453MOL0     C59677   6.177  10.517   0.973  0.6666 -0.8130 -1.2267
  453MOL0     C59678   6.275  10.591   0.885 -1.6810  0.7608 -0.0218
  453MOL0     C59679   6.278  10.743   0.895  0.0735 -0.0150  0.7356
  453MOL0     C59680   6.311  10.798   1.033  0.6975  0.1205 -0.6994
  453MOL0     N59681   6.384  10.930   1.012  0.6298 -0.1716  0.5794
  453MOL0     C59682   6.323  11.051   1.031  0.0656 -0.3396  0.2943
  453MOL0     C59683   6.431  11.136   1.053 -0.4357  0.7287  0.3117
  453MOL0     C59684   6.434  11.286   1.088 -0.7479  0.1413  0.0241
  453MOL0     C59685   6.475  11.315   1.233 -0.1236  0.3334 -0.8203
  453MOL0     C59686   6.613  11.261   1.264  0.2614 -0.4096  0.0225
  453MOL0     C59687   6.673  11.315   1.395 -0.6254  0.0977  0.6470
  453MOL0     O59688   6.814  11.348   1.360 -0.0887  0.5280 -0.0337
  453MOL0     C59689   6.839  11.466   1.298  0.8271 -0.5497  0.7268
  453MOL0     C59690   6.751  11.576   1.267 -0.3441  0.2659  0.7187
  453MOL0     C59691   6.803  11.698   1.213 -0.4981 -0.3377 -0.1814
  453MOL0     C59692   6.938  11.714   1.182 -0.0894  0.1393 -0.4277
  453MOL0     C59693   6.991  11.843   1.133  0.5402  0.6301 -0.9554
  453MOL0     O59694   6.901  11.950   1.143  0.3781  0.5533  0.2878
  453MOL0     C59695   6.954  12.068   1.113  0.4546 -0.5060  0.7229
  453MOL0     C59696   6.962  12.172   1.214  0.4911  0.1590 -0.6873
  453MOL0     C59697   6.992  12.302   1.173  0.4366  0.5370  0.0237
  453MOL0     C59698   7.032  12.329   1.043  0.7133  0.0103  0.7335
  453MOL0     O59699   7.079  12.452   1.000  0.8795 -0.2977  0.2060
  453MOL0     C59700   6.968  12.527   0.952  0.1807 -0.0655  0.2945
  453MOL0     C59701   7.038  12.643   0.882  0.5478 -0.6762 -0.1243
  453MOL0     C59702   6.956  12.729   0.782  0.0633  0.6458  0.7881
  453MOL0     C59703   6.840  12.799   0.842 -0.3630 -0.1859 -1.0930
  453MOL0     C59704   6.798  12.911   0.738  0.2649  0.5274 -0.0160
  453MOL0     C59705   6.666  12.987   0.772 -0.6023 -0.5361 -0.3255
  453MOL0     C59706   6.615  13.075   0.653 -1.0318 -0.4323  0.1513
  453MOL0     C59707   6.455  13.085   0.664 -0.7251 -0.0945  0.4878
  453MOL0    Cl59708   6.396  13.223   0.767  0.1041  0.0272 -0.2586
  453MOL0     C59709   7.030  12.233   0.948 -0.8897 -0.2713  1.2905
  453MOL0     C59710   6.991  12.101   0.979 -0.9183  0.0319 -0.0422
  453MOL0     O59711   7.107  11.848   1.106  0.1449 -0.0705 -0.1763
  453MOL0     C59712   7.023  11.603   1.202 -0.1888  0.8202  0.7746
  453MOL0     C59713   6.972  11.481   1.258  0.4100  0.2241  0.7165
  453MOL0     N59714   6.549  11.064   1.018  0.0283 -0.1177  0.5925
  453MOL0     N59715   6.516  10.936   0.992  0.4543  0.3908 -0.5040
  453MOL0     C59716   6.008   9.906   1.388  0.7215  0.5371 -0.4230
  453MOL0     C59717   6.073   9.849   1.500 -0.3293 -0.9038  0.2426
  453MOL0     C59718   6.448   9.715   1.777 -0.8688 -0.8422 -0.7778
  453MOL0     C59719   6.581   9.679   1.790 -0.2657  0.4943  0.5824
  453MOL0     C59720   6.608   9.583   1.884 -0.2781 -0.4962 -0.0464
  453MOL0     C59721   6.513   9.517   1.972  0.3047  0.1100 -0.7048
  453MOL0     O59722   6.555   9.420   2.067 -0.4743  0.1172 -0.2448
  453MOL0     C59723   6.462   9.331   2.130 -0.2228  0.6023 -0.1844
  453MOL0     C59724   6.413   9.222   2.043  0.2258  0.1198 -0.2771
  453MOL0     C59725   6.289   9.156   2.093 -0.7358  0.0487  0.0892
  453MOL0     C59726   6.216   9.067   1.986  0.2210  0.1768 -0.1618
  453MOL0     C59727   6.122   8.981   2.049  0.2957  0.5031 -0.8479
  453MOL0     C59728   6.034   8.919   2.120  0.1269 -0.5884 -0.5296
  453MOL0     C59729   6.382   9.556   1.962  0.9519 -0.9192  0.4444
  453MOL0     C59730   6.354   9.651   1.864 -0.1114 -0.1384 -0.0044
  453MOL0     H59731   6.364  10.016   1.480  0.8571 -1.7183 -0.4731
  453MOL0     H59732   6.244  10.130   1.313 -1.3228  1.3271  0.4465
  453MOL0     H59733   5.891  10.098   1.079 -0.3966 -0.9092  0.7648
  453MOL0     H59734   5.991   9.949   1.092 -2.6856 -0.5524 -1.5295
  453MOL0     H59735   6.121  10.105   0.938 -2.0590 -0.2541 -0.2544
  453MOL0     H59736   6.199  10.119   1.092  1.1920  3.4835 -0.5554
  453MOL0     H59737   6.063  10.328   1.141 -1.0943 -3.5944  1.3616
  453MOL0     H59738   5.994  10.324   0.982  0.2638 -1.2787 -1.7831
  453MOL0     H59739   6.282  10.356   1.046  0.4980 -4.5758 -1.5089
  453MOL0     H59740   6.227  10.322   0.880  2.9618  1.3239  0.4286
  453MOL0     H59741   6.188  10.542   1.079 -1.2145 -2.2494 -0.6378
  453MOL0     H59742   6.082  10.552   0.931 -0.5431 -1.5232  0.7642
  453MOL0     H59743   6.272  10.553   0.783  0.0476 -0.4047  0.3325
  453MOL0     H59744   6.372  10.554   0.918 -1.2559  2.2337  0.4792
  453MOL0     H59745   6.358  10.779   0.829  0.7084  0.0866  1.5382
  453MOL0     H59746   6.184  10.786   0.857 -1.1811 -1.2059  2.3922
  453MOL0     H59747   6.378  10.735   1.093  0.4646 -0.7643 -1.3534
  453MOL0     H59748   6.224  10.811   1.098  0.5989 -4.9733  0.6339
  453MOL0     H59749   6.223  11.081   1.059  1.1614  3.2169  0.8405
  453MOL0     H59750   6.337  11.333   1.071 -1.4012 -0.7886  1.0182
  453MOL0     H59751   6.506  11.344   1.029 -1.5287  0.8410 -0.2546
  453MOL0     H59752   6.401  11.271   1.300 -0.4113 -1.7453 -2.3857
  453MOL0     H59753   6.482  11.423   1.249  2.9902 -0.2430  3.2843
  453MOL0     H59754   6.600  11.156   1.290  1.2560 -0.8315 -1.1149
  453MOL0     H59755   6.674  11.278   1.174  0.4004  0.4997  0.2767
  453MOL0     H59756   6.682  11.228   1.461  2.9215 -0.6960 -0.6540
  453MOL0     H59757   6.614  11.394   1.444 -1.0229 -0.8696  1.7963
  453MOL0     H59758   6.645  11.577   1.290  0.0606 -0.5379  2.9446
  453MOL0     H59759   6.725  11.773   1.204 -1.0734 -0.8902  0.0888
  453MOL0     H59760   6.945  12.169   1.321 -0.5427  3.8809 -0.6020
  453MOL0     H59761   6.993  12.380   1.248 -1.5079 -1.2551  2.0557
  453MOL0     H59762   6.895  12.560   1.026 -0.5921  0.9143 -0.8707
  453MOL0     H59763   6.909  12.465   0.884  0.2012 -3.1086  2.8209
  453MOL0     H59764   7.135  12.616   0.839  1.0269  4.1006 -2.7047
  453MOL0     H59765   7.080  12.700   0.965  2.4341  1.0957 -2.1443
  453MOL0     H59766   6.929  12.668   0.695 -1.4803 -0.8031  2.2198
  453MOL0     H59767   7.025  12.806   0.748  0.9407 -1.3663 -2.4452
  453MOL0     H59768   6.747  12.742   0.849 -1.7637  1.6038 -3.7799
  453MOL0     H59769   6.860  12.852   0.936 -0.2961 -0.0884 -1.1625
  453MOL0     H59770   6.784  12.859   0.642 -2.5230 -2.0771  1.6090
  453MOL0     H59771   6.882  12.980   0.730  0.3296  0.2968 -5.7702
  453MOL0     H59772   6.679  13.048   0.862  1.2249 -0.2655 -0.7502
  453MOL0     H59773   6.587  12.916   0.800  1.1314 -1.4698  2.6005
  453MOL0     H59774   6.659  13.174   0.667  0.5807 -1.4708  3.3274
  453MOL0     H59775   6.653  13.032   0.559 -3.7631 -3.7167  0.3614
  453MOL0     H59776   6.427  12.985   0.700  1.9799 -1.2649 -0.3166
  453MOL0     H59777   6.410  13.096   0.565  1.5956 -0.2766 -0.6788
  453MOL0     H59778   7.050  12.248   0.842  0.3884 -4.9558  0.6391
  453MOL0     H59779   6.970  12.034   0.896  3.2357  0.9709 -2.1253
  453MOL0     H59780   7.125  11.602   1.165 -1.1901  1.4189 -2.2628
  453MOL0     H59781   7.042  11.399   1.268 -1.6523 -1.6023  1.0931
  453MOL0     H59782   5.911   9.879   1.347  1.7771  0.3400 -2.9256
  453MOL0     H59783   6.034   9.767   1.558 -1.5131  0.1197  0.9551
  453MOL0     H59784   6.661   9.729   1.738 -0.4361  1.6488  1.3993
  453MOL0     H59785   6.711   9.550   1.889  0.0697 -0.0828 -2.8060
  453MOL0     H59786   6.376   9.385   2.171 -1.0290  1.0794 -2.3621
  453MOL0     H59787   6.512   9.284   2.215  0.6396  2.8194  0.6019
  453MOL0     H59788   6.395   9.263   1.943  1.5525  0.3937 -0.4208
  453MOL0     H59789   6.495   9.150   2.038  1.0228  1.0860 -2.4781
  453MOL0     H59790   6.226   9.240   2.126  2.0671  3.7383 -3.1445
  453MOL0     H59791   6.319   9.086   2.172 -0.9509  0.2668  0.3696
  453MOL0     H59792   6.162   9.132   1.916  0.7145  0.5127 -0.2323
  453MOL0     H59793   6.285   9.002   1.930 -1.3694  1.0465 -3.4039
  453MOL0     H59794   5.976   8.869   2.194  1.2183 -0.7135  0.2751
  453MOL0     H59795   6.292   9.521   2.012 -1.0342 -0.0182 -2.2538
  453MOL0     H59796   6.250   9.681   1.855  0.1934  1.4679  1.3729
  454MOL0     O59797   1.810  10.667   4.917 -0.0749 -0.6404 -0.8851
  454MOL0     C59798   1.731  10.669   4.822  0.1670 -0.0604 -0.5218
  454MOL0     O59799   1.610  10.728   4.816 -0.4071 -0.1727  0.1863
  454MOL0     C59800   1.561  10.794   4.928  0.1164  0.2612  0.3236
  454MOL0     C59801   1.630  10.903   4.978  0.3062 -0.2815  0.3260
  454MOL0     C59802   1.595  10.956   5.097  0.3133  0.0351 -0.4759
  454MOL0     C59803   1.489  10.903   5.163  1.0712  0.7459 -0.3291
  454MOL0     O59804   1.443  10.950   5.286  0.8676  0.3453 -0.3626
  454MOL0     C59805   1.548  10.982   5.377 -1.0711 -0.0029 -0.0757
  454MOL0     C59806   1.498  10.962   5.516 -0.0331  0.1196 -1.1080
  454MOL0     C59807   1.403  11.063   5.564  0.1696  0.2530  0.5061
  454MOL0     C59808   1.399  11.070   5.712 -0.5138 -0.3123  0.4493
  454MOL0     C59809   1.334  11.201   5.778 -0.8191  0.1224 -0.0210
  454MOL0     C59810   1.419  11.246   5.896 -0.2627  0.0072  0.3996
  454MOL0     C59811   1.376  11.373   5.972  0.8843  0.0101  0.1699
  454MOL0     C59812   1.266  11.358   6.076 -0.0686 -0.2573 -0.3588
  454MOL0     N59813   1.206  11.487   6.105 -0.0341  0.3104 -1.2359
  454MOL0     C59814   1.067  11.485   6.089  0.3193  0.3268 -0.8322
  454MOL0     C59815   1.028  11.587   6.172 -0.5655  0.3271  0.5149
  454MOL0     C59816   0.897  11.643   6.221 -0.8819 -0.4688 -0.0188
  454MOL0     C59817   0.791  11.533   6.213  0.2951  0.4227 -0.7215
  454MOL0     C59818   0.826  11.419   6.312  0.1366  0.6350  0.1606
  454MOL0     C59819   0.762  11.286   6.276 -0.4727 -0.5355 -0.3884
  454MOL0     O59820   0.815  11.232   6.156  0.5399  0.2769 -0.0982
  454MOL0     C59821   0.925  11.155   6.161  0.7083 -0.1658 -0.5562
  454MOL0     C59822   1.026  11.148   6.263  0.5358  0.0247  0.2146
  454MOL0     C59823   1.150  11.084   6.244  0.0848 -0.5861  0.2441
  454MOL0     C59824   1.170  11.010   6.127 -0.3929  0.4042  1.0251
  454MOL0     C59825   1.299  10.947   6.103  0.3317 -0.0795 -0.4229
  454MOL0     O59826   1.392  10.951   6.211 -0.5725  0.0622  0.7984
  454MOL0     C59827   1.509  10.874   6.182  0.2532 -0.1981  0.8986
  454MOL0     C59828   1.532  10.765   6.260 -0.4428  0.7927  0.0503
  454MOL0     C59829   1.639  10.682   6.229 -0.3488  0.5376  0.4853
  454MOL0     C59830   1.729  10.698   6.125 -0.0225  0.6903  0.1813
  454MOL0     O59831   1.833  10.600   6.116 -0.0685  1.0150  0.6713
  454MOL0     C59832   1.945  10.632   6.029  0.4962  0.8777  0.2350
  454MOL0     C59833   1.983  10.504   5.946 -0.6353 -0.9443  0.7501
  454MOL0     C59834   2.127  10.520   5.889 -0.1709 -1.4119  0.4326
  454MOL0     C59835   2.186  10.405   5.809  0.1633  0.3782  0.5179
  454MOL0     C59836   2.343  10.403   5.834 -0.2703  0.9343  0.3499
  454MOL0     C59837   2.402  10.290   5.759  1.1690  0.9999  0.7612
  454MOL0     C59838   2.550  10.264   5.784  0.0852 -1.1612 -0.4062
  454MOL0     C59839   2.583  10.218   5.926 -0.7600 -0.1730 -0.0738
  454MOL0    Cl59840   2.627  10.362   6.031  0.1577  0.0630  0.6452
  454MOL0     C59841   1.704  10.821   6.046  0.7128 -0.2134  0.1964
  454MOL0     C59842   1.599  10.908   6.070  0.4008  0.5415  0.5830
  454MOL0     O59843   1.320  10.889   5.992  0.2823  0.2716  0.3888
  454MOL0     C59844   1.061  10.995   6.034  1.1463 -0.2700  0.0577
  454MOL0     C59845   0.946  11.072   6.044  0.1477  1.1819 -0.1622
  454MOL0     N59846   1.143  11.640   6.226 -0.0870  0.0127 -0.7510
  454MOL0     N59847   1.249  11.586   6.192 -0.1467  0.0788  0.6113
  454MOL0     C59848   1.408  10.796   5.106 -0.8706 -0.6785 -1.0746
  454MOL0     C59849   1.452  10.736   4.992 -0.8223 -0.5389  0.0103
  454MOL0     C59850   1.778  10.597   4.700  1.4935 -0.1236  0.5403
  454MOL0     C59851   1.906  10.589   4.662  0.1754  0.0191 -0.7382
  454MOL0     C59852   1.953  10.536   4.542  0.2024 -0.4156  0.0063
  454MOL0     C59853   1.857  10.488   4.455 -0.1828  0.0575  0.9570
  454MOL0     O59854   1.884  10.418   4.344 -0.4810 -0.6919  0.4278
  454MOL0     C59855   2.008  10.338   4.334  0.4214  0.6842  0.5451
  454MOL0     C59856   2.041  10.295   4.190 -0.5604 -0.2626  0.0013
  454MOL0     C59857   2.157  10.202   4.170  0.0046 -0.5766 -0.1102
  454MOL0     C59858   2.290  10.261   4.183  0.1951  0.2399  0.2579
  454MOL0     C59859   2.317  10.350   4.067  0.1970  0.7196 -0.6101
  454MOL0     C59860   2.353  10.431   3.987  0.3666 -0.3833  0.9740
  454MOL0     C59861   1.715  10.497   4.479 -0.7131 -0.3960 -0.1048
  454MOL0     C59862   1.680  10.549   4.605  0.5936  0.4790  0.5079
  454MOL0     H59863   1.718  10.939   4.925  1.3251 -1.8400  0.8726
  454MOL0     H59864   1.640  11.047   5.135  1.2347 -0.8218  0.5507
  454MOL0     H59865   1.578  11.087   5.368 -2.6722  1.0489  4.5892
  454MOL0     H59866   1.636  10.918   5.381  0.7304  2.4092  1.9041
  454MOL0     H59867   1.583  10.963   5.585  0.7161 -0.8991 -1.9918
  454MOL0     H59868   1.460  10.860   5.525 -1.8419  0.8993  1.4978
  454MOL0     H59869   1.309  11.043   5.511  0.3212 -0.4812  0.4921
  454MOL0     H59870   1.438  11.159   5.527  0.2585 -0.3293 -1.0016
  454MOL0     H59871   1.325  10.998   5.747 -2.5143  0.8464 -1.1723
  454MOL0     H59872   1.502  11.059   5.748  0.4756 -0.6075 -2.2823
  454MOL0     H59873   1.233  11.174   5.811 -1.1305  1.3802  0.0886
  454MOL0     H59874   1.332  11.269   5.692  0.2880 -0.4670 -0.5367
  454MOL0     H59875   1.519  11.268   5.856 -0.4347  0.3365  0.1475
  454MOL0     H59876   1.429  11.159   5.961  2.5752 -0.2582 -0.2200
  454MOL0     H59877   1.466  11.399   6.028  0.0536 -1.2699  2.2206
  454MOL0     H59878   1.358  11.458   5.905 -2.2069  0.1739  1.0874
  454MOL0     H59879   1.292  11.319   6.175 -0.0633  0.3157 -0.1291
  454MOL0     H59880   1.196  11.288   6.030  1.1489 -0.1645 -2.5011
  454MOL0     H59881   1.001  11.418   6.036 -0.8053 -0.5468  1.5387
  454MOL0     H59882   0.877  11.735   6.165 -0.6290  1.6089  3.0418
  454MOL0     H59883   0.908  11.694   6.317  1.8861 -1.3021  0.1833
  454MOL0     H59884   0.788  11.496   6.110  1.2338  1.6700 -1.2235
  454MOL0     H59885   0.690  11.561   6.247 -0.2526 -1.9561 -0.1526
  454MOL0     H59886   0.934  11.411   6.322  0.4344  2.0084 -1.4737
  454MOL0     H59887   0.784  11.443   6.411 -0.6788  3.4799 -0.7590
  454MOL0     H59888   0.656  11.303   6.257 -0.1969  0.5135 -1.1192
  454MOL0     H59889   0.779  11.225   6.364  0.9088  0.6724  0.2205
  454MOL0     H59890   1.011  11.210   6.351  3.0253  0.7539  0.2245
  454MOL0     H59891   1.238  11.092   6.308  3.6226 -0.7253 -4.1049
  454MOL0     H59892   1.470  10.743   6.346 -0.9432 -0.8672 -0.6893
  454MOL0     H59893   1.675  10.600   6.290  2.9718  1.9174  0.5578
  454MOL0     H59894   2.030  10.665   6.089  1.2720 -1.8495  0.7985
  454MOL0     H59895   1.921  10.705   5.952  1.3015  2.1533  1.1529
  454MOL0     H59896   1.917  10.502   5.859 -1.1388  1.0221  1.0282
  454MOL0     H59897   1.981  10.411   6.003 -1.1318 -2.0840 -1.0438
  454MOL0     H59898   2.199  10.530   5.971  3.4198 -4.0712 -2.0281
  454MOL0     H59899   2.131  10.611   5.829 -0.9642 -0.3264  1.9536
  454MOL0     H59900   2.130  10.313   5.831 -2.9820  2.0991  0.2028
  454MOL0     H59901   2.161  10.421   5.704 -0.8470 -0.9210  0.5258
  454MOL0     H59902   2.354  10.391   5.942 -1.5756  0.8367  0.4946
  454MOL0     H59903   2.393  10.492   5.795  1.5098 -2.2550 -6.0170
  454MOL0     H59904   2.400  10.288   5.649  2.5977 -4.6681  0.5192
  454MOL0     H59905   2.350  10.199   5.792 -1.7621  2.3125  0.1087
  454MOL0     H59906   2.577  10.189   5.709 -0.4081  0.9086 -2.7579
  454MOL0     H59907   2.614  10.346   5.752  1.1692 -1.2366  1.4293
  454MOL0     H59908   2.667  10.148   5.937  0.3778  1.4231  2.0972
  454MOL0     H59909   2.497  10.172   5.976 -2.1771  1.8489 -0.5502
  454MOL0     H59910   1.773  10.848   5.966 -1.1572  0.5031 -1.2603
  454MOL0     H59911   1.583  10.996   6.009 -0.4648 -0.7877 -1.1878
  454MOL0     H59912   1.077  10.944   5.939  2.2963  1.9115 -0.9852
  454MOL0     H59913   0.872  11.061   5.965 -0.9223 -2.2952  1.1164
  454MOL0     H59914   1.325  10.756   5.163 -0.8888 -1.7030 -1.7938
  454MOL0     H59915   1.404  10.648   4.951 -1.1555  1.2557 -3.8665
  454MOL0     H59916   1.984  10.633   4.723  0.3438  1.3479 -1.8378
  454MOL0     H59917   2.056  10.540   4.509  0.2394 -0.4854  0.1107
  454MOL0     H59918   2.002  10.245   4.389 -2.2302  0.9897  0.8829
  454MOL0     H59919   2.099  10.389   4.368 -0.9137  1.9061  2.5115
  454MOL0     H59920   1.945  10.267   4.146 -0.1355 -2.7918  0.5307
  454MOL0     H59921   2.067  10.390   4.142 -2.8965 -0.9250 -2.8808
  454MOL0     H59922   2.152  10.164   4.067  0.3851  0.4087 -0.5052
  454MOL0     H59923   2.130  10.118   4.235 -2.5965  1.8206  2.1757
  454MOL0     H59924   2.298  10.318   4.275 -2.3234 -1.5543  1.7433
  454MOL0     H59925   2.368  10.185   4.178  1.1019  1.1993 -0.4616
  454MOL0     H59926   2.378  10.514   3.924  0.0686  0.9758  2.5787
  454MOL0     H59927   1.641  10.469   4.404 -1.6215  0.5586  0.4163
  454MOL0     H59928   1.576  10.554   4.637  0.4120 -0.6274  0.1107
  455MOL0     O59929   7.409   7.297   9.754  0.0515 -0.4306 -0.6492
  455MOL0     C59930   7.382   7.301   9.630 -0.1215 -0.6731  0.1786
  455MOL0     O59931   7.424   7.209   9.546 -0.3451 -0.0119 -0.2747
  455MOL0     C59932   7.507   7.105   9.575 -0.7932 -0.6380  0.0524
  455MOL0     C59933   7.576   7.059   9.460 -0.3303  0.9486 -0.0075
  455MOL0     C59934   7.681   6.973   9.479  1.0707  0.9465 -0.4616
  455MOL0     C59935   7.687   6.903   9.608  0.1378  0.4277 -0.0221
  455MOL0     O59936   7.778   6.796   9.626  1.0146 -0.2366  0.6348
  455MOL0     C59937   7.834   6.730   9.514 -0.2686  0.0746  0.0970
  455MOL0     C59938   7.906   6.598   9.558  0.1679  0.2655  0.0826
  455MOL0     C59939   8.014   6.532   9.465 -0.1369 -0.5458 -0.0314
  455MOL0     C59940   7.957   6.464   9.342  0.2805  0.1516 -0.6560
  455MOL0     C59941   8.068   6.394   9.255 -1.0165 -0.1450  0.2689
  455MOL0     C59942   8.124   6.261   9.314 -0.2444 -0.6798  0.7273
  455MOL0     C59943   8.278   6.230   9.308  0.0352 -0.3101 -0.5830
  455MOL0     C59944   8.300   6.077   9.315  0.0487 -0.4456 -1.0375
  455MOL0     N59945   8.436   6.044   9.265 -0.7012  0.2930 -0.8598
  455MOL0     C59946   8.534   6.007   9.351 -0.8260  0.5867  0.0319
  455MOL0     C59947   8.628   5.952   9.271 -0.8848 -0.6550  0.8579
  455MOL0     C59948   8.756   5.875   9.299 -0.8977  0.3303 -0.3562
  455MOL0     C59949   8.771   5.843   9.443  0.3172 -0.7827  0.2246
  455MOL0     C59950   8.812   5.971   9.527 -0.1495  0.8362 -1.1184
  455MOL0     C59951   8.803   5.954   9.681 -0.1648 -0.0980  0.6328
  455MOL0     O59952   8.890   5.851   9.731  1.5558  0.0731  1.1367
  455MOL0     C59953   8.935   5.883   9.859 -0.2702  0.4218  0.3208
  455MOL0     C59954   9.064   5.839   9.878  0.6084 -0.0607  0.0126
  455MOL0     C59955   9.131   5.858   9.996  0.1210  0.2319 -0.1840
  455MOL0     C59956   9.071   5.933  10.098  0.6701  0.7699  0.5097
  455MOL0     C59957   9.142   5.968  10.222  0.1723 -0.4230 -1.6741
  455MOL0     O59958   9.081   6.069  10.297  0.6980 -0.1080 -1.0519
  455MOL0     C59959   9.137   6.130  10.401 -0.4576 -0.2863 -0.0401
  455MOL0     C59960   9.051   6.188  10.482 -0.2020 -0.2980  0.0988
  455MOL0     C59961   9.096   6.260  10.593 -0.3300 -0.2668 -0.0916
  455MOL0     C59962   9.232   6.259  10.632 -0.1197  0.8330  0.8276
  455MOL0     O59963   9.282   6.329  10.743  0.5080 -0.0333  0.2512
  455MOL0     C59964   9.200   6.408  10.831  0.2191 -0.1307 -0.0882
  455MOL0     C59965   9.131   6.325  10.945 -0.1565 -0.5698  0.1363
  455MOL0     C59966   9.031   6.403  11.021  0.1731 -0.4136  0.0112
  455MOL0     C59967   9.075   6.526  11.097 -0.4567  0.0517  0.5018
  455MOL0     C59968   8.972   6.583  11.197  0.4969 -0.1201  0.5798
  455MOL0     C59969   9.032   6.687  11.288  0.1013 -0.0866 -0.8011
  455MOL0     C59970   9.018   6.828  11.239 -0.3706  0.0337 -0.9417
  455MOL0     C59971   9.076   6.929  11.326  0.6112  0.2598  0.4477
  455MOL0    Cl59972   9.003   7.091  11.303 -0.0726  0.3441  0.2791
  455MOL0     C59973   9.321   6.198  10.549 -0.4286 -0.0545  0.0015
  455MOL0     C59974   9.273   6.143  10.429  0.2514 -0.7845  0.4613
  455MOL0     O59975   9.234   5.900  10.263  0.5774 -0.1312 -0.6598
  455MOL0     C59976   8.938   5.981  10.074  0.0338  0.5443  0.1836
  455MOL0     C59977   8.872   5.949   9.961  0.5770 -0.6000 -1.1233
  455MOL0     N59978   8.589   5.949   9.139 -0.2023 -1.5946 -0.0687
  455MOL0     N59979   8.472   6.019   9.134 -0.6535 -0.2160 -0.2454
  455MOL0     C59980   7.602   6.937   9.713  0.5497 -1.3430 -0.8535
  455MOL0     C59981   7.506   7.039   9.696 -1.0526 -0.2949 -0.5717
  455MOL0     C59982   7.306   7.417   9.574  0.1107  0.4404 -0.3984
  455MOL0     C59983   7.321   7.447   9.437 -0.4427 -0.2077  0.5673
  455MOL0     C59984   7.294   7.587   9.402 -0.1420  0.1421 -0.0277
  455MOL0     C59985   7.214   7.666   9.487  0.5310 -0.9499  0.1110
  455MOL0     O59986   7.146   7.789   9.450  0.4091 -0.3141 -0.1775
  455MOL0     C59987   7.239   7.889   9.409  0.8862 -0.4040  0.2837
  455MOL0     C59988   7.178   8.030   9.436  0.2838  0.7235  0.3934
  455MOL0     C59989   7.142   8.057   9.581 -0.2474 -0.5540 -0.0896
  455MOL0     C59990   7.125   8.208   9.618  0.6388  0.0269 -0.0653
  455MOL0     C59991   7.086   8.296   9.510  0.3648 -0.0646 -0.8649
  455MOL0     C59992   7.052   8.372   9.415 -0.3650  0.3483 -1.2441
  455MOL0     C59993   7.189   7.628   9.620  0.3741  0.4518  0.6216
  455MOL0     C59994   7.246   7.508   9.664  0.0776 -0.0579 -0.2503
  455MOL0     H59995   7.558   7.101   9.362  0.3531  1.4457  0.0703
  455MOL0     H59996   7.742   6.949   9.393 -0.1516  2.9646 -1.9826
  455MOL0     H59997   7.917   6.790   9.477  1.4084  0.0335  3.4028
  455MOL0     H59998   7.745   6.718   9.452 -1.0158  1.3544  0.8652
  455MOL0     H59999   7.819   6.532   9.552 -1.5690  2.5846 -1.6991
  455MOL0     H60000   7.928   6.587   9.665 -2.5423 -2.3051  0.5150
  455MOL0     H60001   8.075   6.470   9.532  1.3798  1.2874  0.3921
  455MOL0     H60002   8.091   6.601   9.427  1.8043 -1.7700  1.4475
  455MOL0     H60003   7.882   6.390   9.370  1.6852 -0.5958  1.3581
  455MOL0     H60004   7.919   6.545   9.280 -1.9072 -1.6950 -1.8918
  455MOL0     H60005   8.152   6.463   9.244 -0.4639 -1.1565 -3.4771
  455MOL0     H60006   8.025   6.375   9.156  2.7410  0.7155 -1.7132
  455MOL0     H60007   8.062   6.188   9.262 -2.0758  1.3103 -0.0556
  455MOL0     H60008   8.096   6.259   9.420 -3.1451  0.5798  0.0995
  455MOL0     H60009   8.318   6.280   9.219 -0.1108  1.4719  0.3052
  455MOL0     H60010   8.330   6.267   9.397 -1.6250  1.3424 -0.2186
  455MOL0     H60011   8.226   6.016   9.261 -0.1545  0.2744 -1.5818
  455MOL0     H60012   8.298   6.036   9.416  2.6729  0.4349 -0.5496
  455MOL0     H60013   8.530   6.012   9.459 -1.1348 -1.9771  0.2217
  455MOL0     H60014   8.847   5.926   9.267  0.9075 -2.0204  0.6785
  455MOL0     H60015   8.760   5.783   9.240  1.2411  0.5844 -0.6773
  455MOL0     H60016   8.849   5.768   9.456  0.2545 -0.6919  1.2250
  455MOL0     H60017   8.678   5.800   9.480 -1.6754  1.7949 -1.3833
  455MOL0     H60018   8.910   6.010   9.498 -0.1844  1.3948 -0.5103
  455MOL0     H60019   8.746   6.051   9.495 -1.2223 -0.1878 -1.5170
  455MOL0     H60020   8.700   5.936   9.715  0.8369 -2.6785  2.6498
  455MOL0     H60021   8.827   6.054   9.717 -2.1709  0.1743  1.3272
  455MOL0     H60022   9.106   5.775   9.801  0.1538 -1.1361  0.6413
  455MOL0     H60023   9.234   5.825  10.009 -0.2045 -1.6509 -1.9030
  455MOL0     H60024   8.943   6.186  10.477 -0.2150  0.9773 -0.5492
  455MOL0     H60025   9.029   6.328  10.645 -2.4264 -1.7949 -0.6128
  455MOL0     H60026   9.120   6.466  10.783 -0.3893  0.5998  1.7146
  455MOL0     H60027   9.265   6.484  10.875  0.5568 -0.8506  0.6766
  455MOL0     H60028   9.212   6.278  11.002  1.4437 -0.4608 -1.9089
  455MOL0     H60029   9.079   6.239  10.903 -1.9714  1.7946 -2.8627
  455MOL0     H60030   8.981   6.332  11.087  0.1751  0.1336  0.6138
  455MOL0     H60031   8.953   6.440  10.955  0.8889  0.4349 -0.3822
  455MOL0     H60032   9.171   6.519  11.149  0.2361  1.9723 -0.4409
  455MOL0     H60033   9.098   6.611  11.033 -2.9755  1.2518  1.0670
  455MOL0     H60034   8.932   6.504  11.260  0.0142 -0.9306 -0.6979
  455MOL0     H60035   8.897   6.642  11.144  0.7503 -0.1941  0.1277
  455MOL0     H60036   9.135   6.677  11.324 -0.4412  0.6545  1.0809
  455MOL0     H60037   8.967   6.675  11.376 -0.8600 -2.6153 -1.7679
  455MOL0     H60038   9.043   6.825  11.133 -1.9677 -2.9600 -1.3632
  455MOL0     H60039   8.910   6.845  11.239 -0.2863  0.7671 -2.5139
  455MOL0     H60040   9.185   6.935  11.314  0.4805 -1.3847 -2.4233
  455MOL0     H60041   9.053   6.904  11.430 -0.6199  2.2667  0.7094
  455MOL0     H60042   9.426   6.194  10.576 -0.9201  0.1393  2.1073
  455MOL0     H60043   9.348   6.098  10.364  0.3911  2.2630 -1.7043
  455MOL0     H60044   8.889   6.041  10.150  0.8911  0.1690  1.0577
  455MOL0     H60045   8.767   5.975   9.952  0.1651 -2.2138 -1.3522
  455MOL0     H60046   7.618   6.902   9.815 -0.7442 -0.7284 -0.4120
  455MOL0     H60047   7.445   7.072   9.780  2.8821 -0.3264  2.6054
  455MOL0     H60048   7.360   7.374   9.368 -2.8040  1.2912 -2.5822
  455MOL0     H60049   7.302   7.618   9.298 -2.2340 -0.0463 -0.2751
  455MOL0     H60050   7.269   7.882   9.304 -0.3940  3.6511 -0.5098
  455MOL0     H60051   7.329   7.877   9.470  1.4467 -0.7427 -0.5824
  455MOL0     H60052   7.256   8.103   9.412 -0.7156  1.5168 -0.6121
  455MOL0     H60053   7.086   8.042   9.377 -1.0706  0.2385  2.3126
  455MOL0     H60054   7.225   8.017   9.639  1.1686 -1.2307 -2.4304
  455MOL0     H60055   7.045   8.008   9.596 -1.5539  2.0126  0.4939
  455MOL0     H60056   7.048   8.224   9.694 -2.1907  0.4548 -2.8065
  455MOL0     H60057   7.215   8.249   9.665 -0.1032  2.2221 -0.4600
  455MOL0     H60058   7.011   8.444   9.347 -0.8587  0.7790 -0.5045
  455MOL0     H60059   7.130   7.696   9.682  1.7126  0.0768  2.3755
  455MOL0     H60060   7.256   7.498   9.772  0.0945  0.3975 -0.2094
  456MOL0     O60061   4.717   8.397   1.991  0.3914  0.0843 -0.0343
  456MOL0     C60062   4.832   8.374   2.005 -0.9025  0.5361  0.1151
  456MOL0     O60063   4.917   8.422   2.113  0.2523 -0.2965  0.1104
  456MOL0     C60064   4.862   8.534   2.182  0.1960  0.0579 -0.7737
  456MOL0     C60065   4.895   8.540   2.323  0.9872  0.3852  0.5417
  456MOL0     C60066   4.846   8.639   2.406  0.4493  1.7796 -1.0382
  456MOL0     C60067   4.763   8.737   2.357 -0.4187 -0.0443  0.0723
  456MOL0     O60068   4.728   8.832   2.452 -0.5700 -0.1389 -0.0294
  456MOL0     C60069   4.670   8.957   2.405 -0.1711 -0.5267 -0.4203
  456MOL0     C60070   4.685   9.047   2.530  0.6234 -0.5072  0.0802
  456MOL0     C60071   4.601   9.184   2.521 -0.2137  0.4206  0.2438
  456MOL0     C60072   4.628   9.275   2.641  0.0124  1.3988 -0.3656
  456MOL0     C60073   4.535   9.391   2.633  0.6897 -0.6581  0.1939
  456MOL0     C60074   4.563   9.500   2.738 -1.0620 -0.1133 -0.0038
  456MOL0     C60075   4.458   9.612   2.759  1.0428  0.5403  0.8842
  456MOL0     C60076   4.507   9.749   2.808 -0.2733  0.9670 -0.6626
  456MOL0     N60077   4.586   9.744   2.930 -0.1628 -0.3232  0.1089
  456MOL0     C60078   4.541   9.668   3.042 -0.2072  0.0719 -0.4529
  456MOL0     C60079   4.644   9.655   3.125 -0.4145 -0.9435 -0.3598
  456MOL0     C60080   4.635   9.601   3.261  0.2499 -0.3205 -0.1743
  456MOL0     C60081   4.769   9.564   3.312 -0.3785  0.2592 -0.1787
  456MOL0     C60082   4.756   9.548   3.470 -0.0143 -0.7126  0.7167
  456MOL0     C60083   4.892   9.532   3.531  0.3827 -0.5490  0.8470
  456MOL0     O60084   4.972   9.416   3.501 -0.5375  0.6526  0.5321
  456MOL0     C60085   5.104   9.400   3.524  0.4622  0.8629  0.9015
  456MOL0     C60086   5.186   9.501   3.573 -0.9221  0.5144  1.1539
  456MOL0     C60087   5.323   9.482   3.586  0.5441 -0.5309  0.5083
  456MOL0     C60088   5.372   9.354   3.542 -0.2587 -0.4904 -0.9427
  456MOL0     C60089   5.518   9.311   3.553 -0.0891  0.5850  0.3458
  456MOL0     O60090   5.557   9.210   3.469 -0.3076  0.2443  0.0037
  456MOL0     C60091   5.688   9.160   3.488  0.8752  0.8485 -0.4490
  456MOL0     C60092   5.789   9.178   3.394  0.0927  0.6912 -0.5382
  456MOL0     C60093   5.914   9.120   3.406  0.5752  0.1747  0.0616
  456MOL0     C60094   5.955   9.047   3.527 -0.5059  0.0161  0.6209
  456MOL0     O60095   6.075   8.989   3.552 -0.5446  0.3213  0.0022
  456MOL0     C60096   6.161   8.977   3.440  0.4316 -0.8068  0.5978
  456MOL0     C60097   6.298   8.906   3.468 -0.2764 -0.4091 -1.0797
  456MOL0     C60098   6.395   9.002   3.545 -0.2726  0.7028  0.1814
  456MOL0     C60099   6.435   9.108   3.437  0.1652 -0.2669 -0.5909
  456MOL0     C60100   6.577   9.154   3.459  0.1074  0.2352  0.1323
  456MOL0     C60101   6.594   9.231   3.591  0.1636 -0.0746  0.3433
  456MOL0     C60102   6.510   9.363   3.603  0.7122 -0.3087  0.9283
  456MOL0     C60103   6.509   9.464   3.482 -0.9640  0.1314 -0.2236
  456MOL0    Cl60104   6.679   9.482   3.432  0.5249  0.4399 -0.4447
  456MOL0     C60105   5.852   9.035   3.621  0.0660 -0.8880 -0.1471
  456MOL0     C60106   5.720   9.091   3.612  0.2638 -1.0678  1.1712
  456MOL0     O60107   5.577   9.352   3.652  0.5695  0.0682 -0.4537
  456MOL0     C60108   5.288   9.249   3.502  0.1590  0.3626  0.5131
  456MOL0     C60109   5.153   9.275   3.485 -0.7820  0.2040 -0.4653
  456MOL0     N60110   4.759   9.694   3.052  0.3630 -0.1943 -0.2452
  456MOL0     N60111   4.720   9.746   2.944  0.5862 -0.2519  0.5655
  456MOL0     C60112   4.742   8.749   2.217 -0.6219 -0.2663  0.3157
  456MOL0     C60113   4.791   8.644   2.135 -0.3790 -0.9298 -0.1434
  456MOL0     C60114   4.889   8.252   1.928  0.8625  0.1209  0.1938
  456MOL0     C60115   4.806   8.187   1.837 -0.0326 -0.5717 -1.7529
  456MOL0     C60116   4.839   8.079   1.763  0.5064 -0.5252  0.0932
  456MOL0     C60117   4.969   8.038   1.768  0.0324  0.7343  0.3022
  456MOL0     O60118   5.032   7.943   1.688 -0.2222  0.1323  0.6258
  456MOL0     C60119   4.951   7.835   1.628 -0.5762 -0.3214  0.3392
  456MOL0     C60120   5.023   7.732   1.556 -1.0300  0.3566 -0.1814
  456MOL0     C60121   5.126   7.658   1.646 -0.4026 -0.2243 -0.5720
  456MOL0     C60122   5.236   7.741   1.718 -1.5765 -0.4860 -0.3332
  456MOL0     C60123   5.335   7.638   1.738 -1.0807 -0.7293  0.2214
  456MOL0     C60124   5.425   7.563   1.759  0.6886 -0.0611 -0.6641
  456MOL0     C60125   5.053   8.101   1.859 -1.6697 -0.4558 -0.2098
  456MOL0     C60126   5.018   8.215   1.930 -0.5066  0.5354 -0.8719
  456MOL0     H60127   4.956   8.464   2.372  0.0025 -0.4903  0.4235
  456MOL0     H60128   4.880   8.646   2.509  0.1203 -0.6988 -0.6925
  456MOL0     H60129   4.567   8.925   2.395 -0.0363 -0.8350 -0.8450
  456MOL0     H60130   4.714   9.014   2.322  2.7101  1.2018  2.0589
  456MOL0     H60131   4.789   9.077   2.547 -0.8816  3.5717  4.0882
  456MOL0     H60132   4.646   8.993   2.617 -4.7505  0.5519 -1.3065
  456MOL0     H60133   4.494   9.167   2.532 -0.6337  2.6275  0.0705
  456MOL0     H60134   4.631   9.234   2.428  2.3419 -1.6238 -0.1547
  456MOL0     H60135   4.610   9.222   2.735 -3.4976  0.7407 -1.2590
  456MOL0     H60136   4.731   9.307   2.626  0.1120  1.2063 -0.0976
  456MOL0     H60137   4.430   9.361   2.632  1.2527 -3.0430 -3.0027
  456MOL0     H60138   4.540   9.440   2.535 -1.6068  1.0284  0.8349
  456MOL0     H60139   4.660   9.541   2.709 -0.6305 -0.2966  1.1023
  456MOL0     H60140   4.572   9.442   2.831  1.9364 -1.4561 -0.9990
  456MOL0     H60141   4.417   9.625   2.658  2.2885 -0.7825  0.1590
  456MOL0     H60142   4.380   9.567   2.821  1.6535 -3.1571 -0.7271
  456MOL0     H60143   4.434   9.830   2.816 -0.4695  0.8564 -1.2909
  456MOL0     H60144   4.584   9.793   2.745  0.0247  1.0849 -0.2221
  456MOL0     H60145   4.445   9.622   3.065  0.1131  1.1131  3.6703
  456MOL0     H60146   4.565   9.518   3.269  0.3356 -0.5722 -1.7740
  456MOL0     H60147   4.584   9.672   3.326 -2.9909 -1.2012 -1.5463
  456MOL0     H60148   4.831   9.653   3.296  0.4334 -0.4825 -1.3404
  456MOL0     H60149   4.811   9.480   3.257 -1.8080  0.1078 -1.0921
  456MOL0     H60150   4.714   9.638   3.516  0.9921 -1.6683  3.7546
  456MOL0     H60151   4.689   9.464   3.494 -1.5039  0.9931  2.9542
  456MOL0     H60152   4.880   9.548   3.638  3.1961  2.0465  0.9195
  456MOL0     H60153   4.957   9.614   3.500  2.5436 -2.6113 -0.5338
  456MOL0     H60154   5.141   9.591   3.614 -0.1976  2.5515 -2.1280
  456MOL0     H60155   5.389   9.559   3.624  0.0229  1.1992 -1.8881
  456MOL0     H60156   5.762   9.232   3.304  2.1650  1.1067 -0.9533
  456MOL0     H60157   5.970   9.140   3.315 -0.8020 -1.2184 -1.1463
  456MOL0     H60158   6.176   9.078   3.400 -0.3454 -1.0273 -0.2894
  456MOL0     H60159   6.103   8.928   3.361  0.6559 -0.2208  0.0519
  456MOL0     H60160   6.332   8.869   3.371 -1.5633  2.6503 -2.8685
  456MOL0     H60161   6.275   8.823   3.535 -2.1316 -0.7038 -2.0131
  456MOL0     H60162   6.477   8.943   3.587 -2.3380 -1.4559  1.4526
  456MOL0     H60163   6.341   9.042   3.631 -3.0868 -1.3664 -0.4868
  456MOL0     H60164   6.447   9.074   3.334  0.9857 -1.0797 -0.2465
  456MOL0     H60165   6.376   9.200   3.439 -0.2656 -0.2258 -5.4057
  456MOL0     H60166   6.604   9.221   3.376  1.9015 -1.8955 -1.1031
  456MOL0     H60167   6.641   9.067   3.446 -0.5392 -0.0976 -0.9417
  456MOL0     H60168   6.701   9.249   3.603  0.0405 -0.0411  1.5227
  456MOL0     H60169   6.574   9.169   3.678  2.0672 -1.4181 -0.1249
  456MOL0     H60170   6.406   9.331   3.619  1.9399 -6.8556 -1.2194
  456MOL0     H60171   6.548   9.425   3.685  3.6388  2.3823 -2.1160
  456MOL0     H60172   6.474   9.562   3.516 -0.6686  1.6934 -3.9316
  456MOL0     H60173   6.441   9.440   3.399 -0.8583  2.0937 -0.9269
  456MOL0     H60174   5.883   8.988   3.713  0.0953  0.0185  0.3246
  456MOL0     H60175   5.647   9.080   3.692 -0.9981  0.9860  0.3781
  456MOL0     H60176   5.321   9.156   3.456 -0.6652 -0.6576  1.9111
  456MOL0     H60177   5.112   9.191   3.429  3.8011 -2.7262  0.0020
  456MOL0     H60178   4.719   8.843   2.168  1.1299 -1.0505 -2.2499
  456MOL0     H60179   4.785   8.653   2.026 -0.9415 -0.6279 -0.0951
  456MOL0     H60180   4.702   8.219   1.835  0.0610 -0.2719 -1.7928
  456MOL0     H60181   4.764   8.035   1.698  2.7551  0.9062 -3.7993
  456MOL0     H60182   4.869   7.870   1.563  1.6141  2.1158 -1.3065
  456MOL0     H60183   4.898   7.791   1.713 -1.6625 -0.5948 -0.4513
  456MOL0     H60184   4.963   7.658   1.501  2.5568 -0.4254 -3.5075
  456MOL0     H60185   5.072   7.791   1.478 -0.0054  3.5003  2.6059
  456MOL0     H60186   5.170   7.590   1.573 -1.4989  0.0311 -1.5019
  456MOL0     H60187   5.068   7.603   1.722  3.4336 -3.0676  0.6143
  456MOL0     H60188   5.295   7.815   1.664 -2.9914  0.4169 -0.6864
  456MOL0     H60189   5.198   7.787   1.810  0.3649  0.3912  0.0828
  456MOL0     H60190   5.503   7.493   1.782 -1.2030 -1.1151  3.6354
  456MOL0     H60191   5.152   8.056   1.867 -2.2655 -1.9738 -1.1153
  456MOL0     H60192   5.094   8.270   1.985 -1.7585 -0.0658  1.5813
  457MOL0     O60193  11.374   4.971   4.345  0.0362 -0.0506  0.1527
  457MOL0     C60194  11.302   4.932   4.252  0.7035  0.3079 -0.6628
  457MOL0     O60195  11.315   4.953   4.123 -0.3861 -0.2528  0.7122
  457MOL0     C60196  11.430   5.030   4.092  0.6338  0.2512  0.2827
  457MOL0     C60197  11.538   4.968   4.042 -0.2593  0.6646 -0.5874
  457MOL0     C60198  11.650   5.039   3.994  0.0217 -0.0671  0.2552
  457MOL0     C60199  11.655   5.180   4.010  0.2958  0.6796  1.2869
  457MOL0     O60200  11.770   5.245   3.972 -0.8965  0.1764 -0.1414
  457MOL0     C60201  11.779   5.385   3.980  0.7531 -0.5568  0.4570
  457MOL0     C60202  11.916   5.421   3.946  1.0136  0.6543 -0.1440
  457MOL0     C60203  11.953   5.572   3.969 -0.8487 -0.7159  0.0133
  457MOL0     C60204  11.909   5.663   3.854  0.0590  0.6680  0.6599
  457MOL0     C60205  11.941   5.812   3.864 -0.3198  0.9570 -0.3282
  457MOL0     C60206  12.048   5.862   3.770 -0.3770 -0.6434  0.4163
  457MOL0     C60207  12.046   6.008   3.761  0.0583  0.3371 -0.0152
  457MOL0     C60208  12.164   6.085   3.829  0.5583  0.0102  0.3338
  457MOL0     N60209  12.279   6.089   3.744  0.4105  0.1727  0.5036
  457MOL0     C60210  12.280   6.158   3.630 -1.1058  0.2879  0.6730
  457MOL0     C60211  12.394   6.123   3.572  0.9563  0.3524  0.0705
  457MOL0     C60212  12.452   6.168   3.442  0.1273 -0.3614  0.1536
  457MOL0     C60213  12.369   6.156   3.314  0.2156  0.5099  0.3136
  457MOL0     C60214  12.360   6.018   3.262  0.0334 -0.2541 -1.0088
  457MOL0     C60215  12.267   5.938   3.344  1.3903 -0.2641 -0.1766
  457MOL0     O60216  12.237   5.809   3.284 -0.2793  0.4637 -0.0776
  457MOL0     C60217  12.325   5.700   3.279  0.6666 -0.2429 -0.3548
  457MOL0     C60218  12.453   5.698   3.338 -0.5325 -0.1049 -0.0358
  457MOL0     C60219  12.539   5.588   3.321  0.0106 -0.7926 -0.0478
  457MOL0     C60220  12.493   5.476   3.246  0.9540 -0.6859 -1.1781
  457MOL0     C60221  12.581   5.358   3.221  1.0144  0.0349  0.3004
  457MOL0     O60222  12.529   5.279   3.120 -0.6343  0.0734  0.4514
  457MOL0     C60223  12.610   5.193   3.042  0.1593 -0.4180  0.3338
  457MOL0     C60224  12.539   5.087   2.979  0.5143 -0.0653  0.2774
  457MOL0     C60225  12.593   5.000   2.884 -0.1611  0.1854  0.6580
  457MOL0     C60226  12.722   5.012   2.847  0.5836 -0.9950  0.6415
  457MOL0     O60227  12.767   4.938   2.735 -0.5359  0.8646  0.1934
  457MOL0     C60228  12.917   4.900   2.742 -0.2101  0.2214  0.0395
  457MOL0     C60229  12.949   4.797   2.642  0.7208  0.1563 -0.0271
  457MOL0     C60230  12.841   4.714   2.596 -0.0164  0.3063 -0.3940
  457MOL0     C60231  12.894   4.604   2.507  0.4935 -0.3022 -0.9628
  457MOL0     C60232  12.957   4.490   2.582 -0.1953  0.2517 -0.7280
  457MOL0     C60233  12.862   4.395   2.647  0.1164 -0.1999 -0.3855
  457MOL0     C60234  12.905   4.246   2.646  0.0207  0.0249  0.1839
  457MOL0     C60235  12.791   4.146   2.665  0.4801 -0.2245 -0.7905
  457MOL0    Cl60236  12.715   4.155   2.827 -0.1114 -0.3849 -0.4141
  457MOL0     C60237  12.797   5.105   2.918  0.3860  0.0127  0.6051
  457MOL0     C60238  12.744   5.199   3.007  0.2189  0.1996  0.3423
  457MOL0     O60239  12.694   5.353   3.279  0.1389  0.1247  0.2310
  457MOL0     C60240  12.362   5.478   3.194 -0.3069 -0.2310  1.4195
  457MOL0     C60241  12.279   5.583   3.215 -0.6869 -0.0259 -0.4377
  457MOL0     N60242  12.466   6.042   3.656 -1.4666 -0.5271 -0.1101
  457MOL0     N60243  12.396   6.019   3.757 -0.5286 -0.8028  0.3543
  457MOL0     C60244  11.545   5.247   4.073 -0.3699  0.4094 -0.1785
  457MOL0     C60245  11.433   5.173   4.102 -0.6784  0.1016 -1.4580
  457MOL0     C60246  11.198   4.837   4.302 -0.5202  0.0547 -0.4032
  457MOL0     C60247  11.179   4.810   4.442 -0.5348 -0.5567  0.1755
  457MOL0     C60248  11.084   4.716   4.482  0.2997  0.5017  0.0195
  457MOL0     C60249  11.019   4.646   4.389  0.3534 -0.1050 -0.1217
  457MOL0     O60250  10.918   4.555   4.416  0.7442 -0.4567 -0.7136
  457MOL0     C60251  10.899   4.507   4.552  0.6611 -0.0697  0.6918
  457MOL0     C60252  10.800   4.598   4.621  0.2394 -1.0794  0.1841
  457MOL0     C60253  10.734   4.518   4.740  1.0069  0.1673  0.0657
  457MOL0     C60254  10.598   4.580   4.805 -0.1741  1.1556 -1.2075
  457MOL0     C60255  10.581   4.532   4.940  0.2783  1.3443 -0.3283
  457MOL0     C60256  10.559   4.479   5.051 -0.5344 -0.9036  0.3158
  457MOL0     C60257  11.041   4.661   4.259 -0.1197  0.1499  0.7077
  457MOL0     C60258  11.126   4.762   4.210 -0.0201  0.0605  1.3899
  457MOL0     H60259  11.542   4.860   4.032 -4.0530  0.2660  0.5405
  457MOL0     H60260  11.730   4.981   3.949 -0.9122 -2.7533  1.7831
  457MOL0     H60261  11.759   5.422   4.081 -0.1695 -0.8991  0.4100
  457MOL0     H60262  11.712   5.429   3.907  0.1455 -0.2667  1.1722
  457MOL0     H60263  11.926   5.394   3.840  2.2694 -0.8372  0.3242
  457MOL0     H60264  11.982   5.353   4.000  0.0393  1.9154  2.8347
  457MOL0     H60265  12.062   5.584   3.965 -0.7718 -1.4965 -0.5277
  457MOL0     H60266  11.929   5.620   4.064  2.0632  3.0190 -0.9010
  457MOL0     H60267  11.953   5.633   3.759  1.9792  2.7628  0.7772
  457MOL0     H60268  11.800   5.659   3.853  0.0990 -1.1216  0.6577
  457MOL0     H60269  11.993   5.814   3.960  2.2259 -1.8360 -1.4905
  457MOL0     H60270  11.849   5.871   3.871 -1.4800 -0.7997 -0.0821
  457MOL0     H60271  12.025   5.827   3.669 -0.6847  0.4592  0.0835
  457MOL0     H60272  12.142   5.820   3.808  0.4745 -0.6439 -1.5716
  457MOL0     H60273  12.064   6.020   3.653  0.6911  0.8608  0.1454
  457MOL0     H60274  11.945   6.037   3.793 -0.5127 -0.8359 -0.6853
  457MOL0     H60275  12.183   6.021   3.916  2.6307 -1.2997 -0.9806
  457MOL0     H60276  12.136   6.184   3.865 -0.6165 -0.7943  1.7204
  457MOL0     H60277  12.198   6.208   3.580 -0.7823 -2.7947 -3.4437
  457MOL0     H60278  12.557   6.142   3.426  0.0430 -0.1461 -0.8407
  457MOL0     H60279  12.454   6.277   3.447  0.9494 -0.3777  0.2394
  457MOL0     H60280  12.420   6.217   3.239 -0.2271  1.3908  0.7072
  457MOL0     H60281  12.274   6.210   3.325  1.8570  3.7387 -0.1363
  457MOL0     H60282  12.328   6.012   3.158  1.7093 -0.6937 -1.5210
  457MOL0     H60283  12.458   5.972   3.271  0.0104 -0.2393 -0.6251
  457MOL0     H60284  12.170   5.989   3.350  0.9805 -0.5769 -2.8634
  457MOL0     H60285  12.316   5.919   3.440  3.2246  1.1348 -0.7819
  457MOL0     H60286  12.497   5.780   3.392 -0.1265  0.9225 -1.8290
  457MOL0     H60287  12.637   5.589   3.370  0.1083  0.1460 -0.2366
  457MOL0     H60288  12.434   5.072   3.003  0.4771  1.8253  1.5531
  457MOL0     H60289  12.533   4.924   2.835 -0.0324 -1.7358  3.2588
  457MOL0     H60290  12.950   4.872   2.842  4.2097 -2.9325 -1.9828
  457MOL0     H60291  12.978   4.985   2.709  1.9717 -1.1240  0.4695
  457MOL0     H60292  13.027   4.735   2.687 -1.2200 -1.9108  0.6693
  457MOL0     H60293  12.990   4.850   2.555 -2.6749  0.5377 -1.5628
  457MOL0     H60294  12.785   4.782   2.531  0.3646 -0.7128 -1.8407
  457MOL0     H60295  12.777   4.665   2.669  1.7421 -2.0491 -0.3039
  457MOL0     H60296  12.817   4.569   2.437  1.2175 -1.7208 -1.1031
  457MOL0     H60297  12.978   4.636   2.446  0.4819  2.0728  0.1636
  457MOL0     H60298  13.035   4.525   2.651 -0.1097  1.6647 -1.4993
  457MOL0     H60299  13.012   4.428   2.511  0.7573 -2.0327  1.8308
  457MOL0     H60300  12.762   4.402   2.602 -1.1169 -1.8477  1.9066
  457MOL0     H60301  12.841   4.438   2.745 -1.1449 -1.3310 -0.1291
  457MOL0     H60302  12.949   4.228   2.548 -1.3356 -1.4693 -0.1906
  457MOL0     H60303  12.978   4.216   2.722  1.8319 -0.9056 -1.8476
  457MOL0     H60304  12.840   4.049   2.650  0.8898  0.0929 -1.5626
  457MOL0     H60305  12.709   4.163   2.596 -0.0180 -3.2492 -1.0687
  457MOL0     H60306  12.896   5.133   2.883  1.0541 -1.2866  1.4012
  457MOL0     H60307  12.802   5.276   3.058  1.3350 -2.2322  3.0303
  457MOL0     H60308  12.335   5.407   3.118  0.0940  2.2378 -1.1939
  457MOL0     H60309  12.187   5.593   3.158 -0.6977 -0.6398 -0.5341
  457MOL0     H60310  11.540   5.354   4.090 -2.0287 -0.1362  3.7345
  457MOL0     H60311  11.342   5.215   4.144  0.1394 -1.6012  2.4436
  457MOL0     H60312  11.237   4.857   4.521  0.9299 -1.3106 -0.4148
  457MOL0     H60313  11.090   4.687   4.587  2.7058  2.3624  0.4951
  457MOL0     H60314  10.991   4.487   4.609  2.5421  0.5639 -1.9235
  457MOL0     H60315  10.847   4.412   4.537  0.4000 -0.1095  1.7625
  457MOL0     H60316  10.844   4.695   4.648  0.7990 -1.6451  1.3942
  457MOL0     H60317  10.721   4.617   4.548  0.6417 -0.0327  0.0134
  457MOL0     H60318  10.813   4.520   4.816 -1.2202  2.0656  2.5500
  457MOL0     H60319  10.713   4.414   4.713 -0.3271 -0.1828  2.1774
  457MOL0     H60320  10.592   4.689   4.803  0.1933  1.1930 -0.6150
  457MOL0     H60321  10.521   4.549   4.734 -2.0716  2.4574  0.1520
  457MOL0     H60322  10.547   4.434   5.147 -0.5442 -2.9419 -0.5807
  457MOL0     H60323  10.999   4.594   4.185 -1.1378  0.4629  0.9789
  457MOL0     H60324  11.130   4.786   4.104  0.5158  0.2242  1.4458
  458MOL0     O60325   4.189   9.379   9.256 -0.4490 -0.0095 -0.6295
  458MOL0     C60326   4.301   9.425   9.228 -0.4111  0.2230 -0.0744
  458MOL0     O60327   4.419   9.377   9.268 -0.5129  0.3288 -0.3784
  458MOL0     C60328   4.405   9.281   9.368  0.9758  0.9894  1.1937
  458MOL0     C60329   4.450   9.151   9.354  0.1884  0.0229 -0.3712
  458MOL0     C60330   4.429   9.046   9.449 -0.3030  0.2825 -0.0677
  458MOL0     C60331   4.362   9.079   9.565  0.0158  0.0665 -0.8141
  458MOL0     O60332   4.341   8.987   9.674 -0.2108  0.5747  0.4558
  458MOL0     C60333   4.453   8.901   9.712  0.4743 -0.2742  0.2670
  458MOL0     C60334   4.415   8.825   9.841 -0.3308  0.1457  0.0769
  458MOL0     C60335   4.432   8.672   9.829  0.3983  0.0691  0.2589
  458MOL0     C60336   4.577   8.629   9.841  0.2694  0.2686 -0.4103
  458MOL0     C60337   4.594   8.471   9.832  0.5680  0.5034 -0.1265
  458MOL0     C60338   4.732   8.409   9.789 -0.7588 -0.0110 -0.9674
  458MOL0     C60339   4.841   8.474   9.876  0.0300 -0.2706 -1.2324
  458MOL0     C60340   4.978   8.398   9.863 -0.5650 -0.4396 -0.3266
  458MOL0     N60341   5.082   8.464   9.953  0.0433  0.4075  0.0372
  458MOL0     C60342   5.182   8.387  10.002 -0.4129 -1.0818  0.3132
  458MOL0     C60343   5.285   8.475  10.027 -0.8151 -0.3498 -0.1283
  458MOL0     C60344   5.406   8.432  10.102  0.2305 -0.4932  0.2206
  458MOL0     C60345   5.529   8.467  10.011 -0.6503 -0.0692  0.0645
  458MOL0     C60346   5.660   8.460  10.088  0.7312  0.5396  0.3514
  458MOL0     C60347   5.783   8.528  10.011  0.5707 -0.5354 -0.0140
  458MOL0     O60348   5.773   8.669  10.010 -0.2344 -0.3460 -0.4585
  458MOL0     C60349   5.838   8.728   9.906 -1.2587  0.5729  0.1277
  458MOL0     C60350   5.921   8.668   9.813  0.2174  0.0210  0.6274
  458MOL0     C60351   5.982   8.745   9.710 -0.5996 -0.6468 -0.3557
  458MOL0     C60352   5.961   8.883   9.692 -0.1969  0.4058 -0.6728
  458MOL0     C60353   6.022   8.953   9.575 -0.8626  0.6246 -1.2096
  458MOL0     O60354   6.063   9.071   9.612 -0.3518  0.4478 -0.0455
  458MOL0     C60355   6.120   9.172   9.531  0.1633  1.2053 -0.3033
  458MOL0     C60356   6.130   9.293   9.592  0.2722  0.4291  0.4256
  458MOL0     C60357   6.171   9.412   9.523 -0.3504  0.0892 -0.5943
  458MOL0     C60358   6.210   9.395   9.389 -0.0990 -0.1825 -0.1319
  458MOL0     O60359   6.243   9.503   9.315 -0.4682  0.1569  0.5994
  458MOL0     C60360   6.331   9.596   9.373  0.4729 -0.2687  0.5872
  458MOL0     C60361   6.469   9.601   9.299  0.1443  0.8208  0.2454
  458MOL0     C60362   6.534   9.461   9.291  0.0804 -0.1141  0.0255
  458MOL0     C60363   6.652   9.460   9.202 -0.1493  1.0748  0.3550
  458MOL0     C60364   6.718   9.319   9.183 -0.1205  0.3660  0.1394
  458MOL0     C60365   6.847   9.317   9.091 -0.1640  1.7815  0.8997
  458MOL0     C60366   6.968   9.231   9.151 -0.8951 -0.0470 -0.2583
  458MOL0     C60367   7.078   9.305   9.228 -0.3464 -0.2912  0.1740
  458MOL0    Cl60368   7.041   9.334   9.397  0.0046 -0.1364  0.1584
  458MOL0     C60369   6.196   9.275   9.326 -1.4740  0.4545 -0.2483
  458MOL0     C60370   6.147   9.162   9.392 -0.6314 -0.6146  0.0946
  458MOL0     O60371   6.044   8.895   9.473 -0.2616  0.2430 -0.3902
  458MOL0     C60372   5.875   8.938   9.793  0.2699 -0.4507 -0.1824
  458MOL0     C60373   5.815   8.864   9.895  0.2260 -0.1046  0.4062
  458MOL0     N60374   5.244   8.600   9.987  0.2448  0.4292  0.9826
  458MOL0     N60375   5.136   8.588   9.929 -0.7086  0.1570  0.5123
  458MOL0     C60376   4.314   9.212   9.588 -0.4804 -0.8244  1.1653
  458MOL0     C60377   4.333   9.311   9.483  0.0851  0.7234 -0.0699
  458MOL0     C60378   4.292   9.553   9.140  0.2905  0.0318 -0.2185
  458MOL0     C60379   4.162   9.600   9.097 -0.5445 -0.9211 -0.1039
  458MOL0     C60380   4.141   9.728   9.037  0.5384  1.4082 -0.5624
  458MOL0     C60381   4.255   9.812   9.013 -0.9034  1.0069 -0.1924
  458MOL0     O60382   4.234   9.929   8.946 -0.1450 -0.7436  1.1188
  458MOL0     C60383   4.308   9.950   8.824  0.2551 -0.6752 -0.1503
  458MOL0     C60384   4.198   9.964   8.716 -0.6948  0.0831 -0.3303
  458MOL0     C60385   4.261   9.986   8.585 -0.3215  0.4189  0.7149
  458MOL0     C60386   4.375  10.083   8.575 -0.2177 -0.6870 -1.0375
  458MOL0     C60387   4.335  10.224   8.605  0.4789 -0.5501  0.6436
  458MOL0     C60388   4.307  10.341   8.606  0.2611 -0.0244  0.3053
  458MOL0     C60389   4.388   9.769   9.059 -0.0312  0.3383  0.0748
  458MOL0     C60390   4.403   9.641   9.118 -0.3165 -0.3586  0.0213
  458MOL0     H60391   4.500   9.135   9.259 -0.0700  0.7235 -0.6250
  458MOL0     H60392   4.450   8.941   9.433 -2.3928 -0.4842  1.7527
  458MOL0     H60393   4.545   8.958   9.732  1.5093 -1.9168  0.3764
  458MOL0     H60394   4.470   8.827   9.633 -1.3406 -1.0208  0.5324
  458MOL0     H60395   4.309   8.841   9.861 -0.1261  1.5320  0.1917
  458MOL0     H60396   4.476   8.868   9.921 -1.2002  1.9873 -0.1810
  458MOL0     H60397   4.406   8.627   9.733  1.9552 -1.5149  0.5076
  458MOL0     H60398   4.374   8.620   9.905 -0.2578  0.9431  0.3699
  458MOL0     H60399   4.634   8.670   9.757  1.7245 -1.4356 -0.3157
  458MOL0     H60400   4.625   8.663   9.933  0.9119 -1.2425 -0.1633
  458MOL0     H60401   4.523   8.431   9.759 -1.4973  1.6468  1.1615
  458MOL0     H60402   4.568   8.437   9.933  1.3240  4.5172  1.6307
  458MOL0     H60403   4.759   8.419   9.684  2.6198  1.0611 -0.1441
  458MOL0     H60404   4.720   8.304   9.817 -1.5618  0.6645  1.5451
  458MOL0     H60405   4.857   8.573   9.831 -2.6607 -1.0969 -4.3647
  458MOL0     H60406   4.811   8.485   9.981 -2.0064 -0.7963 -1.7269
  458MOL0     H60407   5.008   8.397   9.758 -0.6394  1.5496 -0.3892
  458MOL0     H60408   4.950   8.303   9.910 -2.4695  1.2882  2.2791
  458MOL0     H60409   5.171   8.285  10.036  0.2615 -1.0150  0.7564
  458MOL0     H60410   5.383   8.327  10.123 -2.0395  0.0996  0.9940
  458MOL0     H60411   5.405   8.492  10.193 -1.4736 -0.6083  0.3055
  458MOL0     H60412   5.507   8.567   9.973 -2.6912 -0.5920 -0.1913
  458MOL0     H60413   5.512   8.397   9.929 -1.8999  0.9165 -0.5346
  458MOL0     H60414   5.636   8.506  10.184 -0.1768 -0.9787  0.8858
  458MOL0     H60415   5.683   8.354  10.101  1.1275  0.5912  0.1012
  458MOL0     H60416   5.791   8.479   9.913 -1.9162 -0.1163 -0.4872
  458MOL0     H60417   5.870   8.510  10.074  0.3866 -0.5998  0.2204
  458MOL0     H60418   5.964   8.568   9.817 -3.1690 -1.9351 -3.9986
  458MOL0     H60419   6.050   8.692   9.644  1.4100 -0.8097  1.7247
  458MOL0     H60420   6.099   9.288   9.696 -0.8469  2.7579  0.2858
  458MOL0     H60421   6.184   9.509   9.570 -0.3719 -0.7912  1.3052
  458MOL0     H60422   6.344   9.603   9.481  1.7614 -0.2103  0.4527
  458MOL0     H60423   6.288   9.695   9.353 -1.4971 -0.4956  3.2267
  458MOL0     H60424   6.539   9.663   9.355  0.3992  0.1409  0.6920
  458MOL0     H60425   6.450   9.647   9.201 -0.2288  1.8394  0.7838
  458MOL0     H60426   6.466   9.383   9.258 -1.7828  2.2927 -2.2534
  458MOL0     H60427   6.560   9.434   9.394  1.0315  0.1882 -0.1178
  458MOL0     H60428   6.612   9.490   9.104 -1.1063  0.2415  0.4850
  458MOL0     H60429   6.729   9.534   9.226  1.8989 -1.1857  1.1488
  458MOL0     H60430   6.645   9.242   9.156  0.6741 -0.2520 -0.2848
  458MOL0     H60431   6.754   9.296   9.283  1.7263 -0.7065 -0.7263
  458MOL0     H60432   6.881   9.421   9.088  2.3936  0.9927  0.3722
  458MOL0     H60433   6.821   9.286   8.989  2.1109  1.6206  0.3094
  458MOL0     H60434   6.947   9.155   9.226 -0.2044  1.5506  1.6643
  458MOL0     H60435   7.018   9.186   9.064  3.1411  0.9810  1.2730
  458MOL0     H60436   7.078   9.402   9.177 -0.8841 -1.0896 -1.4167
  458MOL0     H60437   7.173   9.253   9.212 -0.5606 -0.6767  0.1564
  458MOL0     H60438   6.209   9.276   9.218 -1.3383  0.7137 -0.2283
  458MOL0     H60439   6.137   9.069   9.336 -0.7070 -0.1657 -0.6460
  458MOL0     H60440   5.867   9.045   9.782  2.6877 -0.3339 -1.5677
  458MOL0     H60441   5.769   8.929   9.969  1.2493 -0.3845  1.3206
  458MOL0     H60442   4.282   9.241   9.687 -3.0797  0.0226  0.1756
  458MOL0     H60443   4.306   9.416   9.489 -2.4050  0.2675 -1.6376
  458MOL0     H60444   4.072   9.540   9.104 -1.2958  0.0874 -0.8657
  458MOL0     H60445   4.038   9.748   9.008 -0.3691  0.2684  1.6348
  458MOL0     H60446   4.377   9.866   8.809  1.5319  0.1383  0.9004
  458MOL0     H60447   4.369  10.039   8.842  0.5232 -0.9870  0.5605
  458MOL0     H60448   4.124   9.883   8.720  1.1053 -1.6408  0.0482
  458MOL0     H60449   4.140  10.053   8.739 -0.2000  0.2327  0.3797
  458MOL0     H60450   4.186  10.027   8.516  1.3266  1.0728 -0.7500
  458MOL0     H60451   4.285   9.887   8.544  4.4413  1.8858 -0.6005
  458MOL0     H60452   4.460  10.059   8.639 -0.4359  1.0119 -0.0500
  458MOL0     H60453   4.412  10.086   8.471 -4.8133 -1.1883 -2.9297
  458MOL0     H60454   4.282  10.445   8.603  0.9288  0.1147 -2.0204
  458MOL0     H60455   4.472   9.837   9.051 -0.7615  2.3732  5.5407
  458MOL0     H60456   4.497   9.631   9.172 -0.3488 -0.9921 -0.0390
  459MOL0     O60457   8.777  11.126   7.740 -0.0756  0.3674  0.1260
  459MOL0     C60458   8.677  11.057   7.747 -0.2034 -0.0718 -0.0866
  459MOL0     O60459   8.568  11.073   7.842 -0.0963  0.0319 -0.2642
  459MOL0     C60460   8.560  11.181   7.931 -0.1077  0.8062 -0.7807
  459MOL0     C60461   8.429  11.228   7.954  0.1303  0.3105  1.4999
  459MOL0     C60462   8.397  11.329   8.039  0.4748  0.1415 -0.3190
  459MOL0     C60463   8.510  11.383   8.113  0.8428 -0.9764 -1.2748
  459MOL0     O60464   8.473  11.480   8.210  0.4075  0.5124 -0.2472
  459MOL0     C60465   8.540  11.479   8.335 -0.4485 -0.6206 -0.0011
  459MOL0     C60466   8.468  11.557   8.435  0.1977  1.1907  0.2222
  459MOL0     C60467   8.526  11.568   8.576  0.6112 -0.2356 -0.6806
  459MOL0     C60468   8.478  11.701   8.653 -0.4091 -0.1445  0.2669
  459MOL0     C60469   8.330  11.709   8.681  0.1242  0.6464  0.6742
  459MOL0     C60470   8.302  11.842   8.749  0.1354 -0.7939 -0.3002
  459MOL0     C60471   8.147  11.849   8.776  0.1622  0.1366  0.4115
  459MOL0     C60472   8.134  11.948   8.892  1.2681 -0.0521 -0.2877
  459MOL0     N60473   7.990  11.978   8.905 -0.3040 -0.0142  0.3561
  459MOL0     C60474   7.910  11.922   8.999  0.8920 -0.4599 -0.0568
  459MOL0     C60475   7.796  11.997   8.994  0.1578 -0.3129  0.3562
  459MOL0     C60476   7.668  11.969   9.068  0.4692 -0.7402  1.2024
  459MOL0     C60477   7.583  12.091   9.109 -0.2551 -0.4607 -0.0340
  459MOL0     C60478   7.535  12.205   9.010 -0.9341 -0.7002  0.2910
  459MOL0     C60479   7.473  12.160   8.882  0.4119 -1.2302  0.3998
  459MOL0     O60480   7.427  12.278   8.798 -0.3620 -0.1638  0.1305
  459MOL0     C60481   7.506  12.385   8.771 -0.2926  0.6201  0.5171
  459MOL0     C60482   7.470  12.502   8.827  0.0210  0.5164 -0.2078
  459MOL0     C60483   7.538  12.617   8.791 -0.3571  0.1652  0.6989
  459MOL0     C60484   7.644  12.624   8.695  0.5115 -0.9365  0.2571
  459MOL0     C60485   7.715  12.753   8.672 -0.1961  0.3843  0.2676
  459MOL0     O60486   7.672  12.859   8.733 -0.0021 -0.8040  0.2836
  459MOL0     C60487   7.703  12.981   8.686  0.2682  0.6202  0.6391
  459MOL0     C60488   7.694  13.015   8.554  0.0962 -0.4391  1.3875
  459MOL0     C60489   7.727  13.148   8.514  0.0251 -0.1912  0.1799
  459MOL0     C60490   7.748  13.252   8.606 -0.8386  0.1068 -0.3851
  459MOL0     O60491   7.762  13.390   8.595 -0.9519 -0.5950  0.8453
  459MOL0     C60492   7.843  13.426   8.481 -0.0461 -0.3975 -0.5739
  459MOL0     C60493   7.989  13.389   8.500  0.6868 -0.0207 -0.3331
  459MOL0     C60494   8.055  13.414   8.637 -0.6449 -0.0134 -0.8577
  459MOL0     C60495   8.195  13.477   8.607 -0.2877 -0.1537 -0.8159
  459MOL0     C60496   8.248  13.510   8.748 -0.2478  0.6312 -0.2158
  459MOL0     C60497   8.236  13.659   8.786  0.9736 -1.0036 -0.2752
  459MOL0     C60498   8.329  13.696   8.896 -0.5484 -0.5280  0.5910
  459MOL0     C60499   8.339  13.847   8.932  0.8253 -0.5108 -0.8457
  459MOL0    Cl60500   8.186  13.911   8.996 -0.3975  0.0210 -0.6103
  459MOL0     C60501   7.740  13.214   8.735 -0.4546  0.1804 -0.5064
  459MOL0     C60502   7.722  13.082   8.785  0.7258  0.6032  0.4318
  459MOL0     O60503   7.797  12.750   8.584  0.2367 -0.1022  0.3412
  459MOL0     C60504   7.677  12.504   8.631 -0.5148 -0.8645  0.5492
  459MOL0     C60505   7.603  12.386   8.666  1.1683  0.3786 -0.2126
  459MOL0     N60506   7.800  12.079   8.877 -0.4019 -0.2890 -0.4659
  459MOL0     N60507   7.913  12.063   8.829 -0.1531  0.6108 -0.2527
  459MOL0     C60508   8.642  11.344   8.098 -0.3774 -0.3684 -0.2269
  459MOL0     C60509   8.672  11.243   7.998  0.3140  0.1983  0.5295
  459MOL0     C60510   8.663  10.949   7.650  0.6654  0.2842  0.4026
  459MOL0     C60511   8.545  10.862   7.654 -0.0923 -1.0733 -0.1343
  459MOL0     C60512   8.534  10.754   7.570  0.3502 -0.5781  0.4661
  459MOL0     C60513   8.640  10.717   7.488  0.4287 -0.2309  0.1039
  459MOL0     O60514   8.621  10.599   7.422  0.8084  0.2926  0.0521
  459MOL0     C60515   8.718  10.557   7.325  0.5436 -0.0532 -0.8060
  459MOL0     C60516   8.826  10.481   7.394  0.5551  0.7719  0.0157
  459MOL0     C60517   8.943  10.458   7.304 -0.1139 -0.1649  0.4123
  459MOL0     C60518   9.004  10.577   7.226 -0.5741 -0.2686 -0.0107
  459MOL0     C60519   9.055  10.678   7.316  0.1199 -0.7133 -1.1108
  459MOL0     C60520   9.104  10.759   7.396  0.1000 -0.1850  0.3830
  459MOL0     C60521   8.749  10.807   7.474 -0.6048 -0.2588  0.2727
  459MOL0     C60522   8.761  10.921   7.555 -0.2011 -0.6464  0.3310
  459MOL0     H60523   8.356  11.177   7.892  3.6780 -2.2270 -1.0193
  459MOL0     H60524   8.296  11.364   8.057 -0.4123 -1.8487 -1.1836
  459MOL0     H60525   8.642  11.520   8.340 -1.8996  3.4299  0.1282
  459MOL0     H60526   8.546  11.372   8.357  0.2337 -0.6397 -0.2650
  459MOL0     H60527   8.368  11.512   8.444 -0.6911  3.4617  3.9283
  459MOL0     H60528   8.467  11.658   8.392  4.8953  1.6649  0.6979
  459MOL0     H60529   8.635  11.571   8.569  0.7412 -2.4796 -0.3296
  459MOL0     H60530   8.505  11.480   8.639  1.6355  2.4589  3.8592
  459MOL0     H60531   8.519  11.697   8.754 -3.0914  2.7965  1.6359
  459MOL0     H60532   8.508  11.791   8.598 -3.0830  1.6952  1.6095
  459MOL0     H60533   8.291  11.631   8.747 -3.6774  1.0644 -0.7850
  459MOL0     H60534   8.271  11.715   8.589  0.0145  2.3422  0.8218
  459MOL0     H60535   8.338  11.924   8.687 -0.8508  0.3701  0.6429
  459MOL0     H60536   8.353  11.842   8.845  1.0454  4.1376 -0.5379
  459MOL0     H60537   8.087  11.881   8.690  1.2027  2.0173  0.3199
  459MOL0     H60538   8.123  11.748   8.811  2.0760 -0.4175  0.2383
  459MOL0     H60539   8.186  12.043   8.883 -2.4619  2.1229 -1.0391
  459MOL0     H60540   8.163  11.902   8.986 -0.6688  2.9914  1.9840
  459MOL0     H60541   7.930  11.851   9.078  3.1956  1.0246  0.7987
  459MOL0     H60542   7.709  11.921   9.158  1.9703  2.3010  2.2498
  459MOL0     H60543   7.617  11.901   8.999  2.8924 -0.8114 -0.6643
  459MOL0     H60544   7.640  12.152   9.180 -0.2531  0.3058 -0.6810
  459MOL0     H60545   7.496  12.053   9.165  1.0621 -0.4973  2.0912
  459MOL0     H60546   7.477  12.281   9.063 -1.2478 -1.5532  1.2039
  459MOL0     H60547   7.621  12.265   8.978 -1.0464  0.2774  1.6986
  459MOL0     H60548   7.392  12.088   8.897 -0.2447 -0.0798  2.7997
  459MOL0     H60549   7.550  12.110   8.822  1.6786 -2.9827  3.2873
  459MOL0     H60550   7.390  12.503   8.900 -1.5967 -0.8259 -1.8504
  459MOL0     H60551   7.518  12.715   8.834 -1.1223  0.1785  0.3255
  459MOL0     H60552   7.674  12.934   8.484  0.4753 -0.1406  0.9243
  459MOL0     H60553   7.729  13.177   8.409  1.5170  1.0592  0.5136
  459MOL0     H60554   7.844  13.535   8.477 -0.6118 -0.3482  0.4879
  459MOL0     H60555   7.798  13.377   8.394 -4.4342 -0.2127  1.3709
  459MOL0     H60556   8.043  13.444   8.422  3.6835 -1.0566  0.8835
  459MOL0     H60557   7.987  13.283   8.475 -2.3018 -1.0095  3.1625
  459MOL0     H60558   8.072  13.314   8.676  2.6464 -0.1042 -2.1842
  459MOL0     H60559   7.990  13.480   8.697  1.9071  0.3564  1.7317
  459MOL0     H60560   8.257  13.414   8.544 -0.6132  0.9970 -2.3288
  459MOL0     H60561   8.182  13.571   8.554  1.9895  3.0454  3.6115
  459MOL0     H60562   8.353  13.479   8.748  0.0191  1.1922 -3.5066
  459MOL0     H60563   8.190  13.457   8.824 -0.6238 -0.1796 -1.0505
  459MOL0     H60564   8.134  13.683   8.817  1.2983  0.1835 -0.0762
  459MOL0     H60565   8.264  13.728   8.706  0.9958  1.5377  1.7835
  459MOL0     H60566   8.304  13.642   8.988  1.7414  0.4057  1.8523
  459MOL0     H60567   8.434  13.672   8.875  0.7151  3.3158  1.6161
  459MOL0     H60568   8.364  13.900   8.840 -1.3065 -0.1564 -1.2905
  459MOL0     H60569   8.423  13.866   8.999 -0.9461  1.8631  0.9224
  459MOL0     H60570   7.776  13.286   8.808  2.0600 -0.5518 -0.9407
  459MOL0     H60571   7.740  13.052   8.888  1.6933  0.2380  0.1583
  459MOL0     H60572   7.752  12.509   8.552 -0.4889 -1.6174  0.5176
  459MOL0     H60573   7.617  12.287   8.624 -2.3758 -0.4414  0.2022
  459MOL0     H60574   8.727  11.367   8.160  0.5521 -1.5371 -1.0080
  459MOL0     H60575   8.773  11.209   7.977  1.0121  1.5382  1.5623
  459MOL0     H60576   8.469  10.875   7.729  1.1991  3.2090  0.6635
  459MOL0     H60577   8.444  10.694   7.564 -1.5094  2.1071 -0.3720
  459MOL0     H60578   8.767  10.633   7.264  2.2028 -0.8704 -0.5468
  459MOL0     H60579   8.680  10.480   7.257 -1.6270  0.5631 -0.3614
  459MOL0     H60580   8.859  10.537   7.482 -3.4568 -0.0814  2.2721
  459MOL0     H60581   8.780  10.387   7.423  0.9085 -1.2952 -5.0110
  459MOL0     H60582   8.919  10.377   7.235  1.3042 -1.5954  1.5181
  459MOL0     H60583   9.020  10.427   7.376 -1.0712  0.0829  1.5726
  459MOL0     H60584   9.074  10.541   7.150  1.4779  2.4780  0.4323
  459MOL0     H60585   8.932  10.625   7.160  1.4881  1.7535 -0.9289
  459MOL0     H60586   9.149  10.823   7.469  1.4409  2.3550 -2.4526
  459MOL0     H60587   8.829  10.785   7.405 -2.3672 -0.1272 -1.9415
  459MOL0     H60588   8.846  10.987   7.542 -0.6684 -0.6432 -4.5653
  460MOL0     O60589   9.324   0.378   1.968 -0.7270  0.2934 -0.2641
  460MOL0     C60590   9.398   0.397   1.868  0.2548  0.7278  0.2382
  460MOL0     O60591   9.435   0.300   1.786 -0.3981  0.0319  0.5270
  460MOL0     C60592   9.395   0.178   1.799 -0.3251  0.5883  1.1746
  460MOL0     C60593   9.256   0.155   1.800  0.0483  1.0107 -0.3400
  460MOL0     C60594   9.200   0.020   1.810 -0.4503  0.0410  1.0636
  460MOL0     C60595   9.296  -0.089   1.810 -0.1742  0.1786 -0.1265
  460MOL0     O60596   9.240  -0.214   1.824  0.1545 -0.1843  0.1774
  460MOL0     C60597   9.322  -0.308   1.902 -0.2501 -0.2595  0.3358
  460MOL0     C60598   9.249  -0.407   1.988 -0.2279 -0.0418 -1.0892
  460MOL0     C60599   9.224  -0.352   2.128  1.0319  0.7393 -0.8613
  460MOL0     C60600   9.192  -0.469   2.222 -0.9220 -0.1100  0.0033
  460MOL0     C60601   9.164  -0.410   2.366 -0.6803  0.2676  0.1325
  460MOL0     C60602   9.149  -0.526   2.450 -0.0290 -0.8860 -0.1660
  460MOL0     C60603   9.039  -0.511   2.564  0.5734 -0.2116 -0.5917
  460MOL0     C60604   9.050  -0.383   2.643 -0.3395  0.2961 -0.2300
  460MOL0     N60605   8.971  -0.378   2.763 -0.5731  1.0289  0.2367
  460MOL0     C60606   8.840  -0.345   2.783  1.2853  0.1696  0.1080
  460MOL0     C60607   8.820  -0.347   2.924 -0.0514  0.3254  0.1961
  460MOL0     C60608   8.693  -0.312   2.994  0.3732 -0.2789 -0.2370
  460MOL0     C60609   8.602  -0.436   3.029  0.4371  0.3387 -0.5035
  460MOL0     C60610   8.475  -0.387   3.088 -0.9451  0.5169  0.1983
  460MOL0     C60611   8.375  -0.508   3.086  0.0704 -0.1934  0.7389
  460MOL0     O60612   8.249  -0.465   3.153 -0.4765  0.2986  0.4383
  460MOL0     C60613   8.158  -0.552   3.189 -0.2005  0.9788  0.0557
  460MOL0     C60614   8.159  -0.685   3.148  1.3260  0.6408  1.0340
  460MOL0     C60615   8.057  -0.769   3.207  0.4576 -0.2531 -0.0942
  460MOL0     C60616   7.971  -0.727   3.306 -0.4088  0.7850 -0.7983
  460MOL0     C60617   7.883  -0.812   3.381 -0.4479  0.8338  0.3225
  460MOL0     O60618   7.806  -0.743   3.473 -0.6942 -0.1111  0.6713
  460MOL0     C60619   7.721  -0.802   3.562  0.8017  0.1652 -0.7695
  460MOL0     C60620   7.642  -0.714   3.632 -0.0518 -0.5547 -1.0642
  460MOL0     C60621   7.548  -0.761   3.728 -0.3354  0.6206 -0.1709
  460MOL0     C60622   7.539  -0.897   3.759  0.3407 -0.4194 -0.6007
  460MOL0     O60623   7.448  -0.961   3.847  0.3853 -0.1957 -0.4707
  460MOL0     C60624   7.386  -0.871   3.947 -0.1504 -0.0079  1.0776
  460MOL0     C60625   7.308  -0.944   4.043  0.2104  1.0168  0.3069
  460MOL0     C60626   7.368  -1.073   4.102 -0.3100  0.5688  0.1315
  460MOL0     C60627   7.286  -1.142   4.221 -0.3460 -0.2436 -0.4391
  460MOL0     C60628   7.333  -1.292   4.231 -0.0739  0.8618 -0.2952
  460MOL0     C60629   7.245  -1.379   4.327  0.2983 -0.3787 -1.0053
  460MOL0     C60630   7.265  -1.529   4.340 -0.4054  0.4283 -1.0439
  460MOL0     C60631   7.255  -1.612   4.213  0.2189  1.6382 -0.4179
  460MOL0    Cl60632   7.333  -1.775   4.220  0.2836  0.0350 -0.0619
  460MOL0     C60633   7.626  -0.981   3.696 -0.8011  0.3833 -0.2898
  460MOL0     C60634   7.718  -0.934   3.602  0.6335  0.2933 -0.1161
  460MOL0     O60635   7.870  -0.933   3.353  0.4569 -0.6351  0.3602
  460MOL0     C60636   7.980  -0.591   3.346 -1.2938 -1.3103  0.0468
  460MOL0     C60637   8.065  -0.502   3.279  0.3345 -0.9614 -0.0975
  460MOL0     N60638   8.948  -0.363   2.979 -0.5468 -0.0765  0.2328
  460MOL0     N60639   9.032  -0.399   2.890  0.5189  0.3776  0.7449
  460MOL0     C60640   9.431  -0.053   1.796  0.2216 -0.9444 -0.7860
  460MOL0     C60641   9.480   0.075   1.806 -0.9228 -0.0341 -0.6478
  460MOL0     C60642   9.456   0.527   1.849  0.1072 -0.3713 -0.6933
  460MOL0     C60643   9.564   0.549   1.763  0.5044  0.2046  0.1753
  460MOL0     C60644   9.623   0.676   1.760  0.1573  0.1997  0.3204
  460MOL0     C60645   9.592   0.778   1.849  0.2376 -0.4495  0.6094
  460MOL0     O60646   9.639   0.905   1.850 -0.6511 -0.3910 -0.1132
  460MOL0     C60647   9.731   0.943   1.736  1.2455  0.1107 -0.8352
  460MOL0     C60648   9.818   1.074   1.773 -1.1556  0.3889  0.7014
  460MOL0     C60649   9.812   1.187   1.666 -0.0084 -0.4359  0.7896
  460MOL0     C60650   9.855   1.130   1.517  0.6515 -0.5429 -0.6810
  460MOL0     C60651   9.849   1.245   1.424 -0.5205  0.5437  0.7013
  460MOL0     C60652   9.827   1.343   1.347  0.8520  0.2943 -1.0670
  460MOL0     C60653   9.488   0.754   1.939 -0.6798  0.5272 -0.0197
  460MOL0     C60654   9.427   0.631   1.942 -0.1305  0.0876 -0.7410
  460MOL0     H60655   9.191   0.241   1.812  2.7464  3.4822 -2.1099
  460MOL0     H60656   9.094   0.003   1.827 -0.6562 -0.2520 -0.3770
  460MOL0     H60657   9.391  -0.251   1.965  1.6556  1.0380 -2.6489
  460MOL0     H60658   9.364  -0.377   1.829 -2.7972  0.9334 -2.4985
  460MOL0     H60659   9.308  -0.499   1.983  0.8486  0.6969 -4.3025
  460MOL0     H60660   9.153  -0.441   1.947 -1.0045 -0.5838  1.0667
  460MOL0     H60661   9.144  -0.278   2.126 -1.5600 -1.7029  2.3501
  460MOL0     H60662   9.310  -0.305   2.177  0.1636 -1.6184  3.3653
  460MOL0     H60663   9.112  -0.535   2.187  0.1798 -1.3840 -0.1762
  460MOL0     H60664   9.280  -0.533   2.224 -0.5883  0.1952 -2.4875
  460MOL0     H60665   9.076  -0.345   2.356  0.9540  2.5287 -0.3310
  460MOL0     H60666   9.247  -0.345   2.395 -0.6978 -0.5265  2.1297
  460MOL0     H60667   9.242  -0.530   2.508 -1.4092 -0.6278  2.2018
  460MOL0     H60668   9.119  -0.611   2.388 -0.8786 -0.5773 -0.1936
  460MOL0     H60669   8.940  -0.515   2.517 -0.7120  0.5949  1.8616
  460MOL0     H60670   9.045  -0.596   2.632 -3.1478  2.2372  3.2510
  460MOL0     H60671   9.027  -0.301   2.573  3.5429 -0.2129 -2.3412
  460MOL0     H60672   9.153  -0.363   2.671 -0.7901  3.2222 -0.3145
  460MOL0     H60673   8.764  -0.336   2.707  1.7299 -2.9271 -0.8258
  460MOL0     H60674   8.632  -0.256   2.923 -1.4511 -0.4357  1.1164
  460MOL0     H60675   8.717  -0.253   3.083 -3.6651 -2.3851  2.6135
  460MOL0     H60676   8.653  -0.499   3.102 -0.9787 -1.6056 -1.1077
  460MOL0     H60677   8.588  -0.492   2.936  6.0059 -0.0337 -1.4254
  460MOL0     H60678   8.489  -0.364   3.194  1.0964  0.2387  0.0138
  460MOL0     H60679   8.437  -0.304   3.027 -1.3044  1.1503  1.2537
  460MOL0     H60680   8.423  -0.593   3.136  0.3693  0.7299  2.0775
  460MOL0     H60681   8.355  -0.546   2.986 -2.9345 -1.1617  1.6048
  460MOL0     H60682   8.235  -0.726   3.082  0.2295  0.8360 -0.4032
  460MOL0     H60683   8.045  -0.875   3.185 -0.6572  0.5692 -4.4632
  460MOL0     H60684   7.648  -0.607   3.620 -3.3311 -0.1081  0.0658
  460MOL0     H60685   7.490  -0.692   3.789  0.0368  0.8655 -0.0908
  460MOL0     H60686   7.325  -0.810   3.880  1.1480  0.8262  0.6126
  460MOL0     H60687   7.456  -0.799   3.992 -1.3373  3.7775 -2.5698
  460MOL0     H60688   7.211  -0.967   3.999  0.8601 -0.3479 -0.4831
  460MOL0     H60689   7.274  -0.884   4.128 -3.3406 -0.8177  0.3565
  460MOL0     H60690   7.473  -1.061   4.130 -0.7164  1.4706  1.3612
  460MOL0     H60691   7.383  -1.145   4.021  1.2402  3.8932 -2.8036
  460MOL0     H60692   7.303  -1.086   4.313  1.7135  2.8399 -2.4622
  460MOL0     H60693   7.183  -1.136   4.184 -0.8600 -1.0516  0.8122
  460MOL0     H60694   7.436  -1.279   4.265 -0.0231 -0.4295  0.0950
  460MOL0     H60695   7.336  -1.346   4.136  0.3945 -0.0374  0.2122
  460MOL0     H60696   7.140  -1.365   4.300  0.2882 -2.4915 -2.2360
  460MOL0     H60697   7.249  -1.334   4.427 -0.0040  1.8412 -1.9306
  460MOL0     H60698   7.367  -1.528   4.380  0.2572  3.5250 -2.5552
  460MOL0     H60699   7.211  -1.578   4.421  3.7146  0.2555  1.9355
  460MOL0     H60700   7.313  -1.559   4.137  4.0783 -0.0228  1.1029
  460MOL0     H60701   7.152  -1.617   4.179  1.6746  1.5969 -5.6768
  460MOL0     H60702   7.608  -1.087   3.712  0.0330  0.0867 -1.1552
  460MOL0     H60703   7.773  -1.014   3.553 -0.4201 -0.4104 -0.1703
  460MOL0     H60704   7.924  -0.542   3.425  0.5172  0.0624  0.5257
  460MOL0     H60705   8.067  -0.395   3.301 -2.9389  0.1086 -3.7672
  460MOL0     H60706   9.502  -0.132   1.775  1.4669 -0.7194  2.1149
  460MOL0     H60707   9.586   0.093   1.798 -0.9775  1.4701  1.1795
  460MOL0     H60708   9.594   0.472   1.692  0.4084  0.0859  0.2640
  460MOL0     H60709   9.679   0.699   1.670  2.1519 -0.0211  1.4474
  460MOL0     H60710   9.665   0.961   1.651 -1.0713  2.4244  1.2784
  460MOL0     H60711   9.810   0.871   1.713  3.0330  1.4175  0.8711
  460MOL0     H60712   9.789   1.112   1.872 -3.8936 -0.3308  0.2757
  460MOL0     H60713   9.924   1.050   1.781 -1.0168  1.1849  1.3432
  460MOL0     H60714   9.883   1.270   1.674 -2.0043  1.3486  0.8443
  460MOL0     H60715   9.711   1.227   1.677 -0.0028  0.5290 -1.8331
  460MOL0     H60716   9.960   1.101   1.506  0.3387 -0.9570 -2.9626
  460MOL0     H60717   9.788   1.050   1.484  1.5531 -1.5798 -0.0700
  460MOL0     H60718   9.790   1.436   1.311  0.6662  0.1311 -1.3064
  460MOL0     H60719   9.445   0.836   1.997 -1.7577 -0.3203  0.4133
  460MOL0     H60720   9.361   0.614   2.026  0.0630  2.9718  0.0954
  461MOL0     O60721   0.739   7.980  10.926  0.4622  1.0159  0.6766
  461MOL0     C60722   0.826   7.914  10.860 -0.2105  1.0195  0.5492
  461MOL0     O60723   0.853   7.932  10.726 -0.1878  0.4204 -0.1299
  461MOL0     C60724   0.815   8.034  10.638 -0.3541  0.1962 -0.4577
  461MOL0     C60725   0.752   8.156  10.678 -0.6676 -0.0313  0.0425
  461MOL0     C60726   0.696   8.251  10.585 -0.0434  0.9190 -0.4436
  461MOL0     C60727   0.716   8.234  10.447 -0.0300 -0.5800 -0.0291
  461MOL0     O60728   0.667   8.336  10.369 -0.0086 -0.9508 -0.5067
  461MOL0     C60729   0.552   8.297  10.294  0.6366  0.0031 -0.0939
  461MOL0     C60730   0.534   8.362  10.150  0.8233 -0.2736  0.1559
  461MOL0     C60731   0.655   8.357  10.050  0.9539  0.0222 -0.0760
  461MOL0     C60732   0.717   8.221  10.028 -0.0124  0.1109 -0.3384
  461MOL0     C60733   0.629   8.113   9.964  0.1023  0.4768 -0.0289
  461MOL0     C60734   0.704   7.993   9.910  0.1968  0.7745 -0.3854
  461MOL0     C60735   0.618   7.862   9.892  0.2222 -0.7320 -0.8222
  461MOL0     C60736   0.499   7.896   9.789  0.1314  1.0234  0.0633
  461MOL0     N60737   0.400   7.787   9.767  0.1531 -0.2098 -0.3182
  461MOL0     C60738   0.280   7.761   9.841  0.0623 -0.4605  0.4597
  461MOL0     C60739   0.235   7.641   9.805 -0.5336 -0.5127 -0.0703
  461MOL0     C60740   0.116   7.564   9.866 -0.9236 -1.0201  0.7885
  461MOL0     C60741   0.008   7.561   9.759  0.2883  0.0296 -0.2572
  461MOL0     C60742  -0.061   7.689   9.729 -0.5528  0.3494 -0.6213
  461MOL0     C60743  -0.150   7.732   9.841  0.1544 -0.1102  0.0979
  461MOL0     O60744  -0.074   7.800   9.950 -0.0783  0.2473  0.7073
  461MOL0     C60745  -0.119   7.791  10.086 -0.1900 -0.1985  0.6220
  461MOL0     C60746  -0.043   7.851  10.190  0.2870 -0.4732  0.2317
  461MOL0     C60747  -0.081   7.845  10.321  0.1345 -0.6872 -0.6909
  461MOL0     C60748  -0.195   7.783  10.363 -1.3900  0.8501 -0.3106
  461MOL0     C60749  -0.251   7.778  10.501  0.0927  0.8698 -0.7194
  461MOL0     O60750  -0.373   7.714  10.529 -0.4768  0.6409 -0.7020
  461MOL0     C60751  -0.417   7.726  10.656 -0.2874  0.5731  0.2450
  461MOL0     C60752  -0.511   7.832  10.682  0.1715  0.2535  0.2974
  461MOL0     C60753  -0.557   7.863  10.811  0.2838  0.3699  0.6924
  461MOL0     C60754  -0.500   7.798  10.921  0.8947 -0.1787 -0.7277
  461MOL0     O60755  -0.540   7.848  11.039  0.5034  0.9562  0.0505
  461MOL0     C60756  -0.507   7.790  11.168  0.0164  0.2327 -0.0156
  461MOL0     C60757  -0.596   7.833  11.284 -0.9209 -0.4524  0.3952
  461MOL0     C60758  -0.617   7.984  11.298  0.8731  0.9046 -0.7277
  461MOL0     C60759  -0.698   8.020  11.422  0.3208 -0.0172 -0.2698
  461MOL0     C60760  -0.773   8.143  11.414 -0.1845 -0.6520 -1.0063
  461MOL0     C60761  -0.868   8.153  11.527  0.6385 -0.6769  0.5964
  461MOL0     C60762  -0.948   8.284  11.533 -1.0181 -0.2705  0.6184
  461MOL0     C60763  -1.060   8.271  11.643 -0.3483 -0.5535  0.3406
  461MOL0    Cl60764  -1.173   8.135  11.616  0.5743 -0.3160  0.0740
  461MOL0     C60765  -0.412   7.690  10.899  1.5356  0.1207 -0.1793
  461MOL0     C60766  -0.372   7.653  10.770 -0.2970  0.5639  0.1659
  461MOL0     O60767  -0.177   7.824  10.586 -0.4739 -0.2268 -0.2982
  461MOL0     C60768  -0.273   7.720  10.266 -0.1335 -1.2043  0.5210
  461MOL0     C60769  -0.235   7.725  10.129 -0.6566  0.9387 -0.3923
  461MOL0     N60770   0.329   7.589   9.712 -0.0078 -0.2840 -1.3158
  461MOL0     N60771   0.427   7.676   9.694 -0.7297  0.0656  0.2622
  461MOL0     C60772   0.800   8.127  10.405 -0.0874 -1.2396 -0.6758
  461MOL0     C60773   0.846   8.027  10.502 -0.9191  0.6069 -0.3584
  461MOL0     C60774   0.923   7.819  10.921 -0.0657 -0.6318 -0.5746
  461MOL0     C60775   0.911   7.783  11.057 -1.0065 -0.2278 -0.4431
  461MOL0     C60776   1.011   7.700  11.116  0.0238  0.5909  0.3392
  461MOL0     C60777   1.115   7.651  11.041 -1.2540  0.4979 -0.5965
  461MOL0     O60778   1.203   7.553  11.083  0.6907 -0.3965 -0.3381
  461MOL0     C60779   1.182   7.491  11.211 -0.2947 -0.1633 -0.5671
  461MOL0     C60780   1.309   7.408  11.259 -0.0617 -0.1628 -0.0321
  461MOL0     C60781   1.423   7.499  11.301  0.6694  0.8032  0.0357
  461MOL0     C60782   1.477   7.460  11.429 -0.8456 -0.1351  0.1135
  461MOL0     C60783   1.599   7.530  11.470 -0.3201 -0.4157  0.3198
  461MOL0     C60784   1.692   7.596  11.487 -0.0413 -0.2256  0.5007
  461MOL0     C60785   1.129   7.692  10.905 -0.1034 -0.3582 -0.7309
  461MOL0     C60786   1.036   7.774  10.852  0.5689 -0.3948 -0.1016
  461MOL0     H60787   0.738   8.187  10.781 -2.4536 -1.0454  0.1516
  461MOL0     H60788   0.644   8.337  10.628 -0.0965 -0.2831  2.0927
  461MOL0     H60789   0.464   8.321  10.353 -0.3604 -1.3170 -0.9779
  461MOL0     H60790   0.545   8.188  10.283 -0.3616 -0.3127  2.8913
  461MOL0     H60791   0.500   8.463  10.173  0.1740 -1.1290  3.4102
  461MOL0     H60792   0.455   8.308  10.096 -0.0709  0.4579  0.7118
  461MOL0     H60793   0.734   8.424  10.086  2.1345 -2.2797  1.8324
  461MOL0     H60794   0.623   8.387   9.950 -0.7462 -0.4290  0.3074
  461MOL0     H60795   0.808   8.230   9.967  0.7855 -0.3126  0.7746
  461MOL0     H60796   0.753   8.185  10.125  0.7533  1.1454 -0.2149
  461MOL0     H60797   0.585   8.159   9.875 -2.0849 -2.5561 -0.6692
  461MOL0     H60798   0.553   8.085  10.038 -1.3959  1.6525 -1.0738
  461MOL0     H60799   0.766   7.971   9.997 -1.3615 -1.6927  0.2237
  461MOL0     H60800   0.772   8.020   9.828  2.5959 -0.0364  1.2411
  461MOL0     H60801   0.678   7.778   9.856 -2.2593 -2.1527 -1.8967
  461MOL0     H60802   0.564   7.841   9.985 -1.3433  4.4908 -0.2319
  461MOL0     H60803   0.551   7.912   9.694  3.4696 -0.3254  1.5168
  461MOL0     H60804   0.449   7.990   9.815 -0.1510  0.3182  2.2519
  461MOL0     H60805   0.244   7.834   9.912  1.9644  0.8532  0.1468
  461MOL0     H60806   0.076   7.594   9.963 -1.2805 -0.2595  0.4119
  461MOL0     H60807   0.152   7.461   9.879  1.9877 -0.2284 -0.3442
  461MOL0     H60808  -0.063   7.479   9.773 -0.4560 -0.4594 -5.0234
  461MOL0     H60809   0.049   7.539   9.659  0.1055 -0.4759 -0.2211
  461MOL0     H60810   0.009   7.772   9.720  0.6483 -0.1344  2.8902
  461MOL0     H60811  -0.109   7.687   9.630  0.6277  3.6263 -1.3916
  461MOL0     H60812  -0.222   7.658   9.878 -1.0975  2.2259  2.6875
  461MOL0     H60813  -0.220   7.804   9.796 -1.6903 -1.8459  0.0375
  461MOL0     H60814   0.049   7.898  10.155 -0.0260 -0.8453 -1.1360
  461MOL0     H60815  -0.021   7.900  10.393 -5.4110  0.8753  3.3806
  461MOL0     H60816  -0.555   7.886  10.599 -1.0040 -1.9071 -0.5613
  461MOL0     H60817  -0.642   7.930  10.821 -0.0071  0.3452 -1.2361
  461MOL0     H60818  -0.401   7.802  11.191  0.0499  2.9991 -1.2617
  461MOL0     H60819  -0.542   7.686  11.169 -1.8005  0.7962  1.1065
  461MOL0     H60820  -0.566   7.789  11.380 -4.3149 -1.7864  0.9533
  461MOL0     H60821  -0.693   7.787  11.267  0.6820 -4.0414 -0.0870
  461MOL0     H60822  -0.659   8.033  11.210  0.8891  2.3786  0.0666
  461MOL0     H60823  -0.521   8.034  11.309  1.2537  0.2903 -1.1795
  461MOL0     H60824  -0.765   7.935  11.433 -1.3728  1.1742 -0.8652
  461MOL0     H60825  -0.624   8.035  11.502  0.8417  5.7799 -1.3443
  461MOL0     H60826  -0.839   8.142  11.327 -0.9891 -2.0282 -0.4113
  461MOL0     H60827  -0.711   8.233  11.423  2.5910 -2.4923 -0.7049
  461MOL0     H60828  -0.815   8.139  11.622 -0.2886 -2.7885  0.8536
  461MOL0     H60829  -0.945   8.077  11.512  0.7202 -1.1855  2.5808
  461MOL0     H60830  -0.875   8.364  11.551  2.6549 -1.6146 -5.3485
  461MOL0     H60831  -0.986   8.309  11.434  1.8195 -0.1146 -0.5360
  461MOL0     H60832  -1.127   8.357  11.653  0.2356 -0.0557  0.0913
  461MOL0     H60833  -1.020   8.258  11.744  0.1497  1.3582  0.4289
  461MOL0     H60834  -0.366   7.640  10.984  0.3938  1.0278  1.0006
  461MOL0     H60835  -0.292   7.583  10.748  1.3417  1.8012  1.7699
  461MOL0     H60836  -0.360   7.664  10.297 -2.6676  0.7042 -2.5105
  461MOL0     H60837  -0.292   7.671  10.054  4.3939 -2.2250 -2.4638
  461MOL0     H60838   0.835   8.104  10.305  1.3797 -1.2367 -0.1829
  461MOL0     H60839   0.898   7.944  10.457 -2.0248 -2.4420  3.4380
  461MOL0     H60840   0.835   7.829  11.120  1.0951  1.4248  1.0061
  461MOL0     H60841   0.999   7.673  11.221 -0.1291 -1.3757 -0.1528
  461MOL0     H60842   1.090   7.433  11.217  0.6803 -1.6153  3.3925
  461MOL0     H60843   1.167   7.575  11.281  1.0378 -0.3720 -0.0013
  461MOL0     H60844   1.287   7.348  11.347 -1.6309  1.5109  0.7880
  461MOL0     H60845   1.341   7.332  11.187 -0.9188 -0.5920  0.0348
  461MOL0     H60846   1.407   7.605  11.323  0.4222  0.7183  0.2695
  461MOL0     H60847   1.494   7.497  11.218  0.5032  0.8253 -0.1085
  461MOL0     H60848   1.400   7.475  11.505 -0.8102  1.3023 -0.1082
  461MOL0     H60849   1.502   7.353  11.430  0.3818  0.1041  2.0332
  461MOL0     H60850   1.777   7.662  11.493  0.9529 -0.9126 -3.4851
  461MOL0     H60851   1.211   7.653  10.847 -2.0523 -2.7164 -2.0708
  461MOL0     H60852   1.054   7.808  10.750  4.5073  0.5838  0.7228
  462MOL0     O60853  11.418   4.859   9.546 -0.2718  0.0598 -0.1825
  462MOL0     C60854  11.417   4.950   9.627  0.0255 -0.2429 -0.1856
  462MOL0     O60855  11.389   4.936   9.761 -0.5117  0.7953 -0.2571
  462MOL0     C60856  11.338   4.811   9.793  1.1412  0.1808 -0.4906
  462MOL0     C60857  11.376   4.764   9.923  0.5941  0.4449 -0.3062
  462MOL0     C60858  11.331   4.629   9.964 -0.0348  0.1492  1.8317
  462MOL0     C60859  11.241   4.558   9.882 -0.3507 -0.2037 -0.0861
  462MOL0     O60860  11.217   4.429   9.926 -0.0102  0.4697  0.1341
  462MOL0     C60861  11.214   4.322   9.827  1.1145 -0.2949  0.7853
  462MOL0     C60862  11.325   4.336   9.717  0.4164  0.0741 -0.1834
  462MOL0     C60863  11.371   4.205   9.650 -0.2704  0.3347 -0.3721
  462MOL0     C60864  11.479   4.242   9.551  0.9703  1.0647 -0.3361
  462MOL0     C60865  11.525   4.120   9.469  0.7005  0.4115  0.3560
  462MOL0     C60866  11.614   4.029   9.552 -0.6583 -0.1598 -0.2150
  462MOL0     C60867  11.709   3.948   9.451  0.6770  0.4363  0.2119
  462MOL0     C60868  11.809   3.876   9.531  0.2478 -0.1367 -0.2213
  462MOL0     N60869  11.904   3.975   9.582 -0.9513 -0.0089 -0.4783
  462MOL0     C60870  12.006   4.044   9.512 -0.7767 -0.5982 -0.5394
  462MOL0     C60871  12.067   4.110   9.612 -0.0185  0.8096 -0.4328
  462MOL0     C60872  12.188   4.194   9.577 -0.1182  0.0932  0.6363
  462MOL0     C60873  12.157   4.315   9.490 -0.4879  0.6313  0.6828
  462MOL0     C60874  12.052   4.401   9.541  0.0769 -0.3923 -0.8037
  462MOL0     C60875  12.114   4.534   9.608  0.3831 -0.3633  0.3882
  462MOL0     O60876  12.191   4.490   9.715 -0.4214  0.0975 -0.4452
  462MOL0     C60877  12.175   4.581   9.818 -0.0703 -0.0997 -0.0358
  462MOL0     C60878  12.228   4.701   9.818 -0.3864  0.1741  0.1074
  462MOL0     C60879  12.199   4.789   9.926  0.3794 -0.4591  0.6595
  462MOL0     C60880  12.120   4.755  10.035  0.8254  0.2143  0.1245
  462MOL0     C60881  12.092   4.843  10.150 -0.8082  0.5528  0.0084
  462MOL0     O60882  12.062   4.781  10.267 -0.4314  0.0898  0.4587
  462MOL0     C60883  12.034   4.855  10.374 -1.0715 -1.0651 -0.2616
  462MOL0     C60884  11.965   4.975  10.384  1.1812 -0.3904 -0.5133
  462MOL0     C60885  11.947   5.039  10.503 -0.0973 -0.3246 -0.1622
  462MOL0     C60886  11.983   4.974  10.623  0.3720 -0.5818 -0.2549
  462MOL0     O60887  11.971   5.040  10.740 -0.1780 -0.1181 -0.7053
  462MOL0     C60888  11.848   5.016  10.810  0.2199 -0.0565  1.2455
  462MOL0     C60889  11.728   5.065  10.732  0.2033 -0.0663 -0.0196
  462MOL0     C60890  11.599   5.050  10.807 -0.2829  0.9715 -0.4198
  462MOL0     C60891  11.481   5.075  10.710  0.5651 -1.4305  0.1963
  462MOL0     C60892  11.367   5.174  10.762 -0.0809  0.2337  0.2332
  462MOL0     C60893  11.279   5.124  10.875  0.1682  0.0699 -0.1771
  462MOL0     C60894  11.195   5.004  10.838 -0.9900 -0.0596  0.6572
  462MOL0     C60895  11.080   4.994  10.943  0.0340  0.0844 -0.2631
  462MOL0    Cl60896  10.925   5.036  10.885 -0.0842  0.6112 -0.1230
  462MOL0     C60897  12.041   4.852  10.619 -1.0179  0.3077  0.0404
  462MOL0     C60898  12.070   4.796  10.494 -0.3712 -0.2082 -0.1906
  462MOL0     O60899  12.106   4.967  10.136 -0.3325 -0.0573  0.6562
  462MOL0     C60900  12.077   4.618  10.032 -0.5055 -0.0149 -1.5789
  462MOL0     C60901  12.104   4.534   9.926  0.2314  0.7247  0.0292
  462MOL0     N60902  12.017   4.078   9.734 -0.1470  0.2252 -0.0638
  462MOL0     N60903  11.927   3.995   9.714 -0.6440  0.6463  0.0525
  462MOL0     C60904  11.193   4.616   9.765 -0.3830 -0.1822 -0.2452
  462MOL0     C60905  11.241   4.738   9.720 -0.1458 -0.2953 -0.0942
  462MOL0     C60906  11.466   5.074   9.568 -0.1361 -0.7367 -0.2025
  462MOL0     C60907  11.487   5.094   9.425  0.5784 -1.0878  0.4322
  462MOL0     C60908  11.536   5.218   9.376 -0.4177 -0.9534  0.3115
  462MOL0     C60909  11.554   5.324   9.465 -0.1057 -0.3137  0.5058
  462MOL0     O60910  11.590   5.451   9.424 -0.4417  0.3674 -0.3609
  462MOL0     C60911  11.734   5.464   9.421  1.1537 -0.2685  0.0341
  462MOL0     C60912  11.753   5.619   9.423  0.5120  0.9670  0.3744
  462MOL0     C60913  11.758   5.686   9.285  0.2663 -0.0220 -0.2126
  462MOL0     C60914  11.753   5.833   9.293  0.7250  0.0415 -0.6277
  462MOL0     C60915  11.873   5.896   9.342 -0.9966  0.0338  0.0021
  462MOL0     C60916  11.985   5.931   9.375  0.1132 -0.1568  0.0471
  462MOL0     C60917  11.517   5.312   9.595 -0.2248 -0.1603 -0.5237
  462MOL0     C60918  11.476   5.190   9.650 -0.6644  0.7493  0.3378
  462MOL0     H60919  11.423   4.829   9.997 -1.3852 -0.4219  1.8554
  462MOL0     H60920  11.362   4.586  10.058 -0.0198 -0.1981  1.6696
  462MOL0     H60921  11.119   4.324   9.771  2.0688 -1.2482 -0.9506
  462MOL0     H60922  11.224   4.225   9.875 -1.7832 -0.5073  1.1389
  462MOL0     H60923  11.410   4.374   9.775  0.5897 -2.0741  1.0358
  462MOL0     H60924  11.304   4.417   9.645 -1.6993  0.7986  1.1841
  462MOL0     H60925  11.281   4.155   9.613 -3.0135  1.9228  3.3954
  462MOL0     H60926  11.415   4.138   9.724 -0.9484 -0.1516 -0.3944
  462MOL0     H60927  11.447   4.325   9.488  3.0402  4.1072  2.3113
  462MOL0     H60928  11.563   4.274   9.612  1.5443 -2.7776  1.1802
  462MOL0     H60929  11.566   4.146   9.372  3.4125 -0.3358  1.2120
  462MOL0     H60930  11.440   4.054   9.451  1.6294 -0.4360 -1.1215
  462MOL0     H60931  11.564   3.966   9.626  0.8991  2.8650  3.8215
  462MOL0     H60932  11.668   4.094   9.622 -1.1932 -0.9389  0.9633
  462MOL0     H60933  11.643   3.895   9.382 -0.6005  0.6869  1.1806
  462MOL0     H60934  11.769   4.016   9.390  0.4434 -0.6316 -1.2425
  462MOL0     H60935  11.851   3.797   9.468 -0.2779  0.0438 -0.8117
  462MOL0     H60936  11.752   3.830   9.612 -1.6110  1.0137 -0.8092
  462MOL0     H60937  12.035   4.049   9.408  0.0521  2.3661 -0.2418
  462MOL0     H60938  12.267   4.129   9.538 -0.6401 -0.2569  0.1502
  462MOL0     H60939  12.229   4.228   9.673  0.8063 -2.0137  1.0439
  462MOL0     H60940  12.125   4.277   9.392  2.2271 -1.9190  0.6239
  462MOL0     H60941  12.245   4.374   9.460  1.6362 -3.1967 -1.4751
  462MOL0     H60942  11.989   4.434   9.457 -1.4517  5.7862  2.1960
  462MOL0     H60943  11.975   4.342   9.590 -1.7290  1.5954 -1.0822
  462MOL0     H60944  12.032   4.592   9.651  0.8630  0.3780  0.3238
  462MOL0     H60945  12.169   4.586   9.529 -1.0833 -2.1377 -1.9303
  462MOL0     H60946  12.308   4.735   9.753 -1.2340  2.6827  0.2581
  462MOL0     H60947  12.243   4.888   9.932 -1.4536  0.3274  2.5376
  462MOL0     H60948  11.917   5.014  10.295  1.1236  2.2885  0.5889
  462MOL0     H60949  11.907   5.139  10.507  2.8602  0.9981 -0.7523
  462MOL0     H60950  11.855   5.068  10.907  0.4362  3.5286 -0.5123
  462MOL0     H60951  11.828   4.911  10.832 -0.8483  0.4461  2.8357
  462MOL0     H60952  11.727   4.998  10.645  3.8485 -0.7724  0.3270
  462MOL0     H60953  11.750   5.168  10.704  1.0579  0.0060  0.8713
  462MOL0     H60954  11.596   5.107  10.901  0.7412 -1.6379  1.3106
  462MOL0     H60955  11.600   4.945  10.839  2.3025  1.1862  0.4624
  462MOL0     H60956  11.503   5.124  10.615 -4.2804 -1.0494 -1.0315
  462MOL0     H60957  11.442   4.980  10.673 -0.2310 -0.0058 -3.0021
  462MOL0     H60958  11.306   5.194  10.674 -2.2416 -0.1263  1.5718
  462MOL0     H60959  11.412   5.268  10.793 -0.3034  1.0789 -1.8656
  462MOL0     H60960  11.210   5.202  10.909 -2.0718 -1.9021  0.0373
  462MOL0     H60961  11.343   5.102  10.961  0.1763  0.3116 -0.1200
  462MOL0     H60962  11.153   5.026  10.740  0.5211  7.1206  1.0733
  462MOL0     H60963  11.257   4.915  10.834  0.8046  1.1956 -0.9600
  462MOL0     H60964  11.113   5.053  11.029  1.6584 -1.4865  0.2357
  462MOL0     H60965  11.078   4.890  10.977 -0.8947  0.1397 -0.1061
  462MOL0     H60966  12.078   4.793  10.703 -1.6524 -0.8302 -0.4595
  462MOL0     H60967  12.123   4.701  10.497  0.9272  0.5266  0.8732
  462MOL0     H60968  12.025   4.579  10.118  0.4150  1.3774 -0.3415
  462MOL0     H60969  12.067   4.432   9.926  3.7234 -0.6907 -0.3841
  462MOL0     H60970  11.126   4.560   9.700 -0.0485 -0.2675 -0.5189
  462MOL0     H60971  11.198   4.781   9.630 -1.2898 -4.1282 -1.5585
  462MOL0     H60972  11.462   5.013   9.357 -2.0981  1.8361 -2.4023
  462MOL0     H60973  11.575   5.229   9.275 -2.5516  1.9588 -0.3221
  462MOL0     H60974  11.784   5.411   9.339 -1.1823 -0.7340 -1.1670
  462MOL0     H60975  11.786   5.413   9.503 -1.4125 -2.8153  0.2311
  462MOL0     H60976  11.678   5.654   9.495 -0.1225 -3.3466  2.0807
  462MOL0     H60977  11.849   5.643   9.471  0.8530 -2.2991  1.5706
  462MOL0     H60978  11.682   5.660   9.210 -0.5451  3.1949 -0.6444
  462MOL0     H60979  11.845   5.648   9.230 -0.2696  1.4119 -2.1900
  462MOL0     H60980  11.735   5.856   9.187  1.6418 -0.2706 -0.8579
  462MOL0     H60981  11.662   5.865   9.345  1.9932 -0.2730  1.9206
  462MOL0     H60982  12.085   5.964   9.395 -0.5382  0.4585  2.7024
  462MOL0     H60983  11.507   5.402   9.655 -0.2548 -0.3307 -0.2710
  462MOL0     H60984  11.458   5.175   9.755 -1.3730  0.1997  0.1413
  463MOL0     O60985  10.539   9.779   6.486  0.3444  0.1690  0.5179
  463MOL0     C60986  10.470   9.767   6.587  0.1495  0.0845  0.4634
  463MOL0     O60987  10.453   9.644   6.652 -0.2845  0.8142 -0.1755
  463MOL0     C60988  10.527   9.537   6.601  0.0673 -0.5212 -0.2485
  463MOL0     C60989  10.594   9.462   6.700  1.1437  0.3185  0.7954
  463MOL0     C60990  10.643   9.334   6.663  0.7613 -0.9549  0.3665
  463MOL0     C60991  10.614   9.285   6.535 -0.2091 -0.5545 -0.2333
  463MOL0     O60992  10.673   9.176   6.482 -0.0130  0.5997  0.3885
  463MOL0     C60993  10.709   9.061   6.562 -0.0433  0.1825 -0.1844
  463MOL0     C60994  10.681   8.944   6.463  0.3775  0.3061 -0.8324
  463MOL0     C60995  10.687   8.805   6.531  0.3020  0.8754 -0.2146
  463MOL0     C60996  10.657   8.695   6.436 -0.2154 -0.0237  0.6335
  463MOL0     C60997  10.716   8.567   6.489  0.4702  0.7477 -0.3077
  463MOL0     C60998  10.668   8.524   6.629  0.1681 -0.1200 -0.2067
  463MOL0     C60999  10.528   8.456   6.618  0.9526  0.2330 -0.2575
  463MOL0     C61000  10.453   8.470   6.759 -0.4908  0.3330  0.3440
  463MOL0     N61001  10.384   8.346   6.801  0.3814  0.3389 -0.7599
  463MOL0     C61002  10.452   8.225   6.820 -0.9224  0.4966 -0.7432
  463MOL0     C61003  10.366   8.121   6.842 -0.7428 -0.0848 -1.8184
  463MOL0     C61004  10.397   7.980   6.876 -0.4370 -0.1179  0.4524
  463MOL0     C61005  10.528   7.939   6.801 -0.1725  1.2844  0.5580
  463MOL0     C61006  10.524   7.800   6.740  0.7481  0.3227 -0.1628
  463MOL0     C61007  10.499   7.683   6.835 -0.0513 -0.1288 -0.8381
  463MOL0     O61008  10.470   7.564   6.753 -0.4660 -0.1288 -0.1749
  463MOL0     C61009  10.449   7.445   6.818  0.3580  0.0307 -0.5973
  463MOL0     C61010  10.371   7.354   6.750 -0.7905  0.9923  0.8416
  463MOL0     C61011  10.314   7.239   6.798  0.1159  0.3773  0.2144
  463MOL0     C61012  10.350   7.194   6.923 -1.3634  0.0476 -0.7369
  463MOL0     C61013  10.302   7.071   6.979 -0.3629 -0.6338 -0.4428
  463MOL0     O61014  10.284   6.967   6.889 -0.4551 -0.6260  0.4588
  463MOL0     C61015  10.206   6.858   6.919  0.4416 -0.1541 -0.1433
  463MOL0     C61016  10.216   6.753   6.828  0.2170 -0.6975 -0.3067
  463MOL0     C61017  10.172   6.624   6.843 -0.0897 -0.0668  0.9421
  463MOL0     C61018  10.086   6.605   6.945  0.2322  0.6873 -0.5679
  463MOL0     O61019  10.033   6.475   6.970  0.5496 -0.4919 -0.0031
  463MOL0     C61020  10.088   6.359   6.908  0.0684 -0.5380 -0.1868
  463MOL0     C61021   9.990   6.244   6.931 -0.2110 -0.1831 -0.4217
  463MOL0     C61022  10.050   6.105   6.880  1.0912  0.2038 -0.6385
  463MOL0     C61023   9.958   5.987   6.886 -0.5489  0.2241 -0.2326
  463MOL0     C61024  10.042   5.870   6.938 -0.4406  0.2229 -0.2854
  463MOL0     C61025   9.961   5.733   6.902  0.1314  0.1488  0.4505
  463MOL0     C61026  10.018   5.608   6.960 -0.3419 -0.3026  0.6420
  463MOL0     C61027  10.037   5.627   7.113  0.0643 -0.0721 -0.5673
  463MOL0    Cl61028   9.876   5.654   7.190 -0.0695 -0.4108  0.2463
  463MOL0     C61029  10.055   6.709   7.043  0.7154  1.6309 -0.4627
  463MOL0     C61030  10.122   6.831   7.027 -0.4202  0.5765 -0.6273
  463MOL0     O61031  10.271   7.067   7.099  0.3846  0.3488  0.2758
  463MOL0     C61032  10.431   7.287   7.001 -0.1302  0.6876 -0.7550
  463MOL0     C61033  10.474   7.409   6.950  1.1344 -0.0700  0.0306
  463MOL0     N61034  10.240   8.180   6.825 -0.0451 -0.1754  0.5486
  463MOL0     N61035  10.253   8.300   6.789  0.7894 -0.5360 -0.5268
  463MOL0     C61036  10.539   9.355   6.450  0.4551 -0.2435  0.0472
  463MOL0     C61037  10.493   9.490   6.476  0.0050  0.3448 -0.2844
  463MOL0     C61038  10.389   9.883   6.622 -0.7193 -0.0470  0.6026
  463MOL0     C61039  10.272   9.880   6.686  0.0015  0.3612  0.2643
  463MOL0     C61040  10.193   9.996   6.699 -0.0137 -0.5571 -0.4068
  463MOL0     C61041  10.232  10.128   6.662 -0.2409  0.7170  0.7720
  463MOL0     O61042  10.165  10.245   6.679  0.1386 -0.8534 -0.1397
  463MOL0     C61043  10.032  10.241   6.727  0.8541 -0.1035 -0.5205
  463MOL0     C61044   9.995  10.374   6.787 -0.4894  0.3651 -0.7350
  463MOL0     C61045   9.969  10.469   6.672  0.0911 -0.2201  0.1567
  463MOL0     C61046   9.960  10.615   6.716  0.4612  0.3092  0.2858
  463MOL0     C61047   9.845  10.666   6.788  0.5566  0.3139 -0.7032
  463MOL0     C61048   9.756  10.715   6.861 -0.7095  0.5458  0.2324
  463MOL0     C61049  10.363  10.134   6.613 -0.7586  0.0480 -0.1755
  463MOL0     C61050  10.437  10.016   6.588 -0.3854 -0.0721 -0.5834
  463MOL0     H61051  10.596   9.505   6.799 -0.6308  0.8704  0.6396
  463MOL0     H61052  10.699   9.282   6.740  1.1480 -0.2206  0.6027
  463MOL0     H61053  10.636   9.059   6.644 -0.2828 -3.6412 -0.3061
  463MOL0     H61054  10.806   9.079   6.609 -0.0317  3.3957 -1.2264
  463MOL0     H61055  10.741   8.956   6.372  2.8202 -0.5142  0.5679
  463MOL0     H61056  10.576   8.957   6.433  0.3437 -2.1217 -1.9811
  463MOL0     H61057  10.621   8.811   6.619  2.5953  1.6955  1.5417
  463MOL0     H61058  10.789   8.800   6.570  0.6366 -0.8292 -1.2441
  463MOL0     H61059  10.552   8.689   6.407  0.1000 -0.0721 -0.5572
  463MOL0     H61060  10.696   8.715   6.336 -2.3987 -0.4217 -0.3480
  463MOL0     H61061  10.824   8.584   6.493  0.1314  3.1650  0.1045
  463MOL0     H61062  10.691   8.491   6.414  0.2900  1.4112 -0.9320
  463MOL0     H61063  10.665   8.613   6.693  1.6317 -0.3123  0.1680
  463MOL0     H61064  10.740   8.448   6.661 -1.1879 -1.9453 -1.3059
  463MOL0     H61065  10.468   8.508   6.543  0.4755 -2.4470 -1.8409
  463MOL0     H61066  10.536   8.350   6.593  0.4196 -0.1349  1.0350
  463MOL0     H61067  10.375   8.547   6.761 -1.3968 -0.5460  2.3058
  463MOL0     H61068  10.526   8.493   6.837 -0.4762 -2.3974  1.2551
  463MOL0     H61069  10.560   8.218   6.809 -0.3672 -0.2614  3.5588
  463MOL0     H61070  10.312   7.916   6.850 -0.4926  0.7722 -1.7022
  463MOL0     H61071  10.419   7.984   6.983  1.6796  1.9989  0.0216
  463MOL0     H61072  10.618   7.950   6.864  0.8316 -1.1847 -0.3341
  463MOL0     H61073  10.550   8.004   6.716  2.1011 -0.1562 -0.0618
  463MOL0     H61074  10.455   7.801   6.655 -0.4766  2.8357  0.7634
  463MOL0     H61075  10.622   7.776   6.699  0.7722 -0.3702  0.2891
  463MOL0     H61076  10.402   7.700   6.884 -0.1701  0.1048 -1.1503
  463MOL0     H61077  10.572   7.696   6.915 -3.5006  2.2575  2.3055
  463MOL0     H61078  10.332   7.398   6.659 -3.1228  1.1599  1.8488
  463MOL0     H61079  10.247   7.183   6.733  0.0507  1.1605 -0.4091
  463MOL0     H61080  10.281   6.762   6.742 -0.6745 -0.5697 -0.9845
  463MOL0     H61081  10.212   6.555   6.769 -1.6505 -0.4600  0.4378
  463MOL0     H61082  10.189   6.344   6.948  0.6354 -3.0570 -2.3091
  463MOL0     H61083  10.085   6.372   6.799 -2.6861 -0.5677 -0.1817
  463MOL0     H61084   9.896   6.267   6.881  2.2308 -1.4935 -6.6517
  463MOL0     H61085   9.976   6.227   7.038  2.4962 -0.5152 -0.0383
  463MOL0     H61086  10.134   6.091   6.948  1.6285  1.0460 -1.0997
  463MOL0     H61087  10.080   6.112   6.775  2.3702  1.0843 -0.2397
  463MOL0     H61088   9.867   6.005   6.943 -2.7415 -2.7594 -2.4646
  463MOL0     H61089   9.909   5.974   6.788 -2.6638  2.2921  0.4520
  463MOL0     H61090  10.051   5.874   7.047  2.4126  1.9684 -0.4849
  463MOL0     H61091  10.138   5.877   6.884 -0.5220 -1.7670 -0.7814
  463MOL0     H61092   9.955   5.726   6.793  3.1972  0.5723  0.1619
  463MOL0     H61093   9.862   5.741   6.948 -0.0069  2.4851 -0.1262
  463MOL0     H61094   9.950   5.525   6.939 -0.3258 -1.3391  4.1446
  463MOL0     H61095  10.119   5.601   6.919 -0.3067  2.7828 -0.0332
  463MOL0     H61096  10.105   5.707   7.141 -2.3928  0.8783  3.5463
  463MOL0     H61097  10.082   5.535   7.151 -0.3580 -0.6848 -1.5113
  463MOL0     H61098   9.996   6.667   7.123 -2.9716 -0.0164 -3.7076
  463MOL0     H61099  10.114   6.897   7.113  0.2336 -1.0103  0.7199
  463MOL0     H61100  10.443   7.252   7.103 -1.4798  0.2549 -0.7208
  463MOL0     H61101  10.511   7.478   7.025 -0.1739  3.5305 -2.3639
  463MOL0     H61102  10.501   9.310   6.359 -2.0546 -0.1395  0.9588
  463MOL0     H61103  10.444   9.552   6.401  0.4466 -1.0727 -1.7979
  463MOL0     H61104  10.239   9.779   6.709 -2.4766  0.5523 -1.9551
  463MOL0     H61105  10.095   9.986   6.743 -0.6984  1.2774 -1.4098
  463MOL0     H61106  10.019  10.160   6.799 -2.9904  0.7941  0.0084
  463MOL0     H61107   9.965  10.216   6.644 -1.3616 -2.9416  1.8847
  463MOL0     H61108   9.906  10.372   6.851 -2.4111  0.2651 -3.2531
  463MOL0     H61109  10.087  10.412   6.833 -0.2242  1.6063 -2.2086
  463MOL0     H61110   9.875  10.439   6.624 -1.0444 -0.7791  2.5794
  463MOL0     H61111  10.040  10.473   6.588 -0.5159  3.6472 -0.3528
  463MOL0     H61112  10.054  10.636   6.768 -0.1218 -2.8174  2.8740
  463MOL0     H61113   9.958  10.685   6.632 -1.1670 -0.7175 -0.5857
  463MOL0     H61114   9.679  10.754   6.924 -0.2785  1.8251 -0.0000
  463MOL0     H61115  10.415  10.228   6.602  0.7960 -0.4267  2.1986
  463MOL0     H61116  10.537  10.022   6.545 -0.4458  2.3190 -0.5383
  464MOL0     O61117   9.292   9.357   3.749  0.3693  0.6888 -0.4548
  464MOL0     C61118   9.301   9.238   3.765  0.7266  0.5599  0.8238
  464MOL0     O61119   9.192   9.148   3.776  0.1610 -0.0142 -0.6746
  464MOL0     C61120   9.064   9.178   3.818 -0.6137 -0.3033  0.4919
  464MOL0     C61121   8.988   9.063   3.852  0.0067  0.2321  0.5936
  464MOL0     C61122   8.847   9.073   3.863  0.0901 -0.4393  0.5590
  464MOL0     C61123   8.793   9.203   3.893  0.4333  0.0890  0.7560
  464MOL0     O61124   8.657   9.212   3.917  0.2525  0.4294 -0.5444
  464MOL0     C61125   8.557   9.124   3.856  0.2574  0.3898  0.7260
  464MOL0     C61126   8.433   9.132   3.947  0.4340  0.6336  0.3112
  464MOL0     C61127   8.437   9.030   4.058  0.1546  0.7776  0.3994
  464MOL0     C61128   8.347   9.070   4.172  0.1272 -0.4635  0.2450
  464MOL0     C61129   8.382   9.000   4.297 -0.5184  0.2734 -0.1494
  464MOL0     C61130   8.330   9.079   4.417  0.4490 -0.7207  0.2081
  464MOL0     C61131   8.381   9.030   4.551 -0.7908  0.4399 -0.1693
  464MOL0     C61132   8.525   9.077   4.567 -0.6638 -0.6958 -0.4740
  464MOL0     N61133   8.577   9.050   4.703  0.2021  0.4936  0.8187
  464MOL0     C61134   8.524   9.081   4.823 -0.6098 -0.1801 -0.5044
  464MOL0     C61135   8.607   9.029   4.913  0.2421  0.1888  1.1524
  464MOL0     C61136   8.604   9.043   5.062  0.9271 -0.1449  0.7413
  464MOL0     C61137   8.549   8.922   5.137  0.6220  0.3106 -0.9182
  464MOL0     C61138   8.577   8.933   5.293 -0.0566 -0.2979  0.1058
  464MOL0     C61139   8.501   8.824   5.373  0.4814 -0.2121 -0.0621
  464MOL0     O61140   8.573   8.710   5.328  0.1948 -0.2700  0.6324
  464MOL0     C61141   8.569   8.595   5.408  0.1128  0.0825  0.3225
  464MOL0     C61142   8.468   8.561   5.499 -0.4801 -0.2398 -0.0142
  464MOL0     C61143   8.475   8.436   5.564 -0.4008 -0.1936  0.6579
  464MOL0     C61144   8.589   8.355   5.548  0.2767  0.4656 -0.1128
  464MOL0     C61145   8.595   8.233   5.627  0.2591 -0.2792  0.4059
  464MOL0     O61146   8.495   8.215   5.727 -0.1396  0.9259 -0.3138
  464MOL0     C61147   8.492   8.111   5.823 -0.0160  0.6140  0.8306
  464MOL0     C61148   8.385   8.104   5.916  0.0235  0.1287 -0.3279
  464MOL0     C61149   8.366   7.997   5.997  0.6331  0.2336 -0.1058
  464MOL0     C61150   8.451   7.891   5.998  0.0603  0.9010  0.3891
  464MOL0     O61151   8.426   7.790   6.092 -0.1401 -0.8534  0.0053
  464MOL0     C61152   8.505   7.674   6.107  0.2132 -0.3491 -0.5707
  464MOL0     C61153   8.444   7.585   6.213 -0.0663 -0.1011  0.7162
  464MOL0     C61154   8.552   7.484   6.252  0.1670 -0.2112  0.0606
  464MOL0     C61155   8.500   7.356   6.316  0.0246  0.0226 -1.2409
  464MOL0     C61156   8.600   7.322   6.430 -0.5793 -0.0998 -0.3687
  464MOL0     C61157   8.556   7.199   6.522 -0.3637 -0.5679  0.6638
  464MOL0     C61158   8.660   7.192   6.631  0.1828  0.4293  0.3766
  464MOL0     C61159   8.643   7.058   6.709 -0.1315 -0.7847 -0.3629
  464MOL0    Cl61160   8.474   7.058   6.771  0.3606  0.2151  0.5602
  464MOL0     C61161   8.571   7.906   5.921 -0.1467  0.5829 -0.2128
  464MOL0     C61162   8.582   8.003   5.826  0.4793 -1.0667  0.8389
  464MOL0     O61163   8.680   8.150   5.595 -0.0586  0.1690 -0.2959
  464MOL0     C61164   8.696   8.394   5.464  0.3123  0.1989 -0.0467
  464MOL0     C61165   8.673   8.505   5.385  0.4385 -0.8831 -0.0572
  464MOL0     N61166   8.706   8.952   4.845 -0.4233  0.2079 -0.4859
  464MOL0     N61167   8.685   8.969   4.716 -0.2126  0.5380 -0.4195
  464MOL0     C61168   8.875   9.321   3.877  0.0096 -0.6686  0.1992
  464MOL0     C61169   9.008   9.304   3.838 -0.1377 -0.2743 -0.1315
  464MOL0     C61170   9.440   9.170   3.743 -0.5074  0.1597  0.2504
  464MOL0     C61171   9.462   9.031   3.720 -1.0608 -1.2127  0.5520
  464MOL0     C61172   9.591   8.980   3.724 -0.1876  0.0908 -0.6964
  464MOL0     C61173   9.704   9.061   3.729  0.3025  0.5803  0.2589
  464MOL0     O61174   9.830   9.003   3.706 -0.1739 -0.5532 -0.1692
  464MOL0     C61175   9.929   9.063   3.794  0.2658  0.5244 -0.7797
  464MOL0     C61176  10.039   8.977   3.847  0.7513 -1.0006  0.3123
  464MOL0     C61177  10.002   8.836   3.883  1.0755  0.2350  0.4161
  464MOL0     C61178  10.126   8.771   3.939 -0.0514  0.4437 -1.0028
  464MOL0     C61179  10.111   8.626   3.911 -0.3010  0.7499 -0.4923
  464MOL0     C61180  10.107   8.504   3.887 -0.6766 -0.1960  0.2897
  464MOL0     C61181   9.692   9.198   3.750 -0.0498 -0.3932  0.4951
  464MOL0     C61182   9.560   9.248   3.754  0.3066 -1.3510  0.4306
  464MOL0     H61183   9.040   8.968   3.860 -0.1930 -0.0286 -0.8376
  464MOL0     H61184   8.796   8.979   3.879 -0.3735 -0.3404 -0.2997
  464MOL0     H61185   8.585   9.019   3.862 -2.0720 -0.1996  4.5504
  464MOL0     H61186   8.536   9.142   3.750  4.0055 -1.1175 -0.4344
  464MOL0     H61187   8.341   9.115   3.890 -0.1610  1.6604  0.9350
  464MOL0     H61188   8.438   9.233   3.990  1.1988  0.8578 -0.2619
  464MOL0     H61189   8.542   9.040   4.086 -0.1792  1.0275  1.6161
  464MOL0     H61190   8.414   8.933   4.012  3.5479  1.5441 -3.4685
  464MOL0     H61191   8.359   9.177   4.193 -1.9696  0.2935 -2.0442
  464MOL0     H61192   8.242   9.049   4.151  0.4400 -2.5440  0.5710
  464MOL0     H61193   8.490   8.981   4.304 -0.1392  2.7133  3.2636
  464MOL0     H61194   8.343   8.898   4.299 -0.2884  0.1249 -1.5931
  464MOL0     H61195   8.221   9.076   4.420  0.4011  0.9218  1.7868
  464MOL0     H61196   8.358   9.183   4.401  2.1391 -1.4323 -1.9064
  464MOL0     H61197   8.324   9.083   4.627 -2.4765  0.7556 -1.5661
  464MOL0     H61198   8.385   8.921   4.557 -1.4665  0.4880  2.4285
  464MOL0     H61199   8.539   9.183   4.547 -0.2923 -0.5522  0.4777
  464MOL0     H61200   8.585   9.026   4.491 -0.0629  0.6498 -0.9183
  464MOL0     H61201   8.432   9.135   4.840 -2.2850 -1.6946 -3.8028
  464MOL0     H61202   8.547   9.136   5.071  1.7036  0.6384 -1.6192
  464MOL0     H61203   8.703   9.062   5.105  0.2750  2.0855  1.4075
  464MOL0     H61204   8.599   8.833   5.097 -0.4724 -0.7941  0.0903
  464MOL0     H61205   8.443   8.910   5.114 -0.0193 -0.1691  1.9527
  464MOL0     H61206   8.684   8.928   5.310 -0.0705  2.6571  1.7494
  464MOL0     H61207   8.539   9.024   5.342  0.7870 -1.2987  2.7614
  464MOL0     H61208   8.393   8.817   5.359  0.5238  0.4425 -0.8082
  464MOL0     H61209   8.522   8.840   5.479  1.8972 -1.7712 -0.0799
  464MOL0     H61210   8.390   8.633   5.522  1.5360  2.0460  0.0879
  464MOL0     H61211   8.391   8.396   5.620 -2.4607  0.1599 -1.9868
  464MOL0     H61212   8.320   8.190   5.916  0.6583  0.6391  1.3073
  464MOL0     H61213   8.271   8.002   6.049 -0.8867  4.9422 -2.7715
  464MOL0     H61214   8.609   7.698   6.129  0.6296  1.0337 -3.4608
  464MOL0     H61215   8.494   7.617   6.014  1.1270 -0.6094 -0.5247
  464MOL0     H61216   8.361   7.531   6.168  0.1342 -3.3444  3.8153
  464MOL0     H61217   8.413   7.643   6.300 -0.0262  0.1434  0.5689
  464MOL0     H61218   8.626   7.531   6.317  1.0407 -1.6909  0.1737
  464MOL0     H61219   8.606   7.469   6.159  0.8095  3.8617 -0.4063
  464MOL0     H61220   8.400   7.382   6.353  1.1391  2.5530  0.3335
  464MOL0     H61221   8.501   7.282   6.236 -0.5078 -0.8544 -0.4454
  464MOL0     H61222   8.615   7.407   6.497 -0.5948  0.5746 -1.2131
  464MOL0     H61223   8.697   7.307   6.382 -2.1152  0.1194 -3.7904
  464MOL0     H61224   8.535   7.108   6.466 -4.8748  2.1833 -2.8935
  464MOL0     H61225   8.459   7.226   6.564  0.6788 -1.1034  3.6917
  464MOL0     H61226   8.764   7.194   6.596 -0.7729  2.0733 -2.6687
  464MOL0     H61227   8.650   7.283   6.691  2.2743  0.5437  0.6344
  464MOL0     H61228   8.726   7.071   6.779  0.0785  4.1480 -1.1606
  464MOL0     H61229   8.654   6.978   6.636  0.2287 -0.6201 -0.4893
  464MOL0     H61230   8.640   7.823   5.924 -0.6085  0.1236 -1.5896
  464MOL0     H61231   8.669   7.991   5.762 -0.8421 -2.0784 -0.8336
  464MOL0     H61232   8.793   8.347   5.466  0.2221  0.0290  0.7950
  464MOL0     H61233   8.752   8.538   5.317  0.4355 -0.1344  0.2955
  464MOL0     H61234   8.833   9.416   3.909  0.5685  0.5904 -2.5945
  464MOL0     H61235   9.066   9.394   3.817  0.6427 -0.4055  1.3304
  464MOL0     H61236   9.373   8.972   3.700 -0.7918 -0.4430 -3.9650
  464MOL0     H61237   9.604   8.874   3.705  0.4382 -0.1004  0.6762
  464MOL0     H61238   9.871   9.107   3.876 -0.4534  1.0837 -1.5662
  464MOL0     H61239   9.973   9.148   3.740  0.7512  3.2797  3.4439
  464MOL0     H61240  10.113   8.968   3.767 -0.8865 -2.7385 -1.1138
  464MOL0     H61241  10.092   9.022   3.931 -1.0921 -0.0738  1.0411
  464MOL0     H61242   9.965   8.795   3.789 -0.8272  0.4440  1.0293
  464MOL0     H61243   9.920   8.835   3.955 -0.4459  1.5158 -1.2082
  464MOL0     H61244  10.211   8.797   3.876  0.1128 -0.2343 -1.0684
  464MOL0     H61245  10.137   8.801   4.044  0.0876  0.9528 -1.1630
  464MOL0     H61246  10.125   8.402   3.858 -2.6264 -0.4532 -0.1887
  464MOL0     H61247   9.776   9.266   3.760 -0.4020 -0.2725  3.3174
  464MOL0     H61248   9.552   9.355   3.766 -0.7449 -1.1569 -1.5395
  465MOL0     O61249   6.951   9.335  10.130 -0.3141  0.6300 -0.5835
  465MOL0     C61250   6.970   9.344  10.012 -0.1941 -0.4931  0.0337
  465MOL0     O61251   7.041   9.244   9.935  0.6323 -0.1872 -0.0557
  465MOL0     C61252   7.075   9.137  10.012 -0.0803 -0.3852  1.0882
  465MOL0     C61253   6.993   9.024  10.027  0.9780 -0.8954 -0.0351
  465MOL0     C61254   7.042   8.916  10.103 -1.1566 -0.7750 -0.7002
  465MOL0     C61255   7.172   8.914  10.146 -0.3035 -0.1636 -0.4990
  465MOL0     O61256   7.207   8.807  10.227 -0.1782  0.3992  0.8201
  465MOL0     C61257   7.212   8.673  10.180 -0.4160 -0.1042 -0.1437
  465MOL0     C61258   7.303   8.660  10.059  0.4472 -0.3340 -0.1510
  465MOL0     C61259   7.321   8.522  10.001 -0.3211 -0.5200 -0.1674
  465MOL0     C61260   7.389   8.539   9.864 -0.0772  0.4494  0.3288
  465MOL0     C61261   7.431   8.398   9.803  0.0588  0.0475  0.1147
  465MOL0     C61262   7.486   8.418   9.660  0.5483  0.4767 -0.5176
  465MOL0     C61263   7.545   8.287   9.614 -0.0516  1.1514 -0.2291
  465MOL0     C61264   7.596   8.289   9.469 -0.1311  0.1054 -0.4480
  465MOL0     N61265   7.640   8.167   9.408  0.0752  0.2269  0.1198
  465MOL0     C61266   7.764   8.109   9.430  0.3554 -0.1541 -1.1519
  465MOL0     C61267   7.759   7.996   9.364  0.4972 -0.0360  0.0325
  465MOL0     C61268   7.871   7.909   9.310 -0.1498 -0.4813  0.2772
  465MOL0     C61269   7.995   7.939   9.394 -0.3014  0.0844  0.0494
  465MOL0     C61270   7.982   7.912   9.542  0.1996  0.2790 -0.0120
  465MOL0     C61271   8.093   7.971   9.633 -0.9483 -1.0552  0.5091
  465MOL0     O61272   8.081   7.905   9.759 -0.9940 -0.5950  0.0305
  465MOL0     C61273   8.172   7.925   9.861  0.5840 -0.3351  0.9594
  465MOL0     C61274   8.302   7.981   9.841 -0.4733  0.1516  0.5700
  465MOL0     C61275   8.393   8.006   9.948 -0.2403 -0.6350 -0.9350
  465MOL0     C61276   8.358   7.978  10.083  0.6258 -0.2397 -0.7820
  465MOL0     C61277   8.448   7.967  10.192 -0.9925  0.3043 -0.4734
  465MOL0     O61278   8.397   7.900  10.310  0.4572 -0.6146 -0.5344
  465MOL0     C61279   8.485   7.865  10.412  0.0105  0.4625 -0.2939
  465MOL0     C61280   8.412   7.771  10.493 -0.7990 -0.1506  0.7335
  465MOL0     C61281   8.469   7.724  10.609  0.0280  0.7790 -0.2441
  465MOL0     C61282   8.605   7.764  10.635 -0.3374 -0.2247 -1.0572
  465MOL0     O61283   8.678   7.708  10.738  0.3028  0.2557  0.1016
  465MOL0     C61284   8.623   7.609  10.832  0.6595 -0.2389  0.1045
  465MOL0     C61285   8.712   7.519  10.913  0.6706 -0.5688 -0.4211
  465MOL0     C61286   8.627   7.411  10.987 -0.0223  0.2571 -0.2688
  465MOL0     C61287   8.534   7.472  11.092  0.2042  0.6654 -0.0832
  465MOL0     C61288   8.448   7.370  11.187  0.7304  0.5877 -0.4177
  465MOL0     C61289   8.528   7.332  11.307 -1.2447 -0.3467 -0.5142
  465MOL0     C61290   8.539   7.432  11.418 -0.8951  1.0543 -0.1683
  465MOL0     C61291   8.606   7.360  11.536 -0.7053 -0.1454 -0.0707
  465MOL0    Cl61292   8.612   7.490  11.658 -0.3844  0.1160  0.1262
  465MOL0     C61293   8.676   7.857  10.561  0.1154 -0.0905 -0.1530
  465MOL0     C61294   8.610   7.910  10.449 -0.2316  0.5371  0.5876
  465MOL0     O61295   8.568   7.997  10.174 -1.1703 -0.2528 -0.4401
  465MOL0     C61296   8.219   7.939  10.099  0.7719 -0.1818 -0.0181
  465MOL0     C61297   8.142   7.902   9.993  0.5830 -0.5619  1.0428
  465MOL0     N61298   7.629   7.977   9.315 -0.1252  0.5384 -0.6800
  465MOL0     N61299   7.560   8.086   9.330 -0.3010  0.6417 -0.1617
  465MOL0     C61300   7.256   9.014  10.121  0.1702 -0.9223  0.8810
  465MOL0     C61301   7.207   9.127  10.053  0.3778 -0.7757 -0.0694
  465MOL0     C61302   6.899   9.462   9.946 -0.6644  0.5150 -0.2881
  465MOL0     C61303   6.894   9.478   9.808 -0.4002  0.4643  0.1865
  465MOL0     C61304   6.817   9.579   9.744 -0.5364  0.2299 -0.1794
  465MOL0     C61305   6.746   9.667   9.823 -0.6155  0.7306 -0.7827
  465MOL0     O61306   6.668   9.769   9.767 -0.7875  0.1839  0.8292
  465MOL0     C61307   6.632   9.878   9.857  0.1844  0.6268  0.3022
  465MOL0     C61308   6.485   9.870   9.883 -0.9597 -0.4942  0.0852
  465MOL0     C61309   6.393   9.856   9.755  0.3260 -0.0798  0.4684
  465MOL0     C61310   6.391   9.975   9.664  0.2139  0.5983 -0.6671
  465MOL0     C61311   6.280   9.977   9.571 -0.5290 -0.8582 -0.7147
  465MOL0     C61312   6.198   9.983   9.493  0.0317 -0.1841  0.3360
  465MOL0     C61313   6.758   9.653   9.959 -0.0998 -0.5190  1.1361
  465MOL0     C61314   6.832   9.560  10.020 -0.7173  0.6259 -1.5429
  465MOL0     H61315   6.889   9.025   9.996  0.1626 -3.0614  2.2436
  465MOL0     H61316   6.979   8.832  10.131 -1.0501 -0.1305  1.6929
  465MOL0     H61317   7.107   8.648  10.163 -1.6283  2.1655  3.0381
  465MOL0     H61318   7.252   8.611  10.262  2.3559  2.8038  0.9338
  465MOL0     H61319   7.395   8.705  10.097 -1.2089  3.0126  0.2747
  465MOL0     H61320   7.273   8.730   9.980  0.9556 -0.3843 -0.3932
  465MOL0     H61321   7.223   8.475   9.990 -0.4571 -0.0759 -1.0163
  465MOL0     H61322   7.370   8.451  10.068 -2.2263 -0.8846  0.9192
  465MOL0     H61323   7.323   8.582   9.789 -0.2277 -2.4801 -1.3841
  465MOL0     H61324   7.479   8.601   9.872  1.9928 -1.9361 -2.3564
  465MOL0     H61325   7.356   8.320   9.794  0.0588  0.0618 -0.0094
  465MOL0     H61326   7.512   8.363   9.868  1.3466  2.3748 -0.0950
  465MOL0     H61327   7.547   8.507   9.640 -3.9102  2.9699 -5.3448
  465MOL0     H61328   7.395   8.440   9.603 -1.2578 -2.8894  0.7515
  465MOL0     H61329   7.625   8.263   9.685 -0.0185  3.2511  0.4970
  465MOL0     H61330   7.473   8.206   9.628 -0.8486  1.5071 -1.9790
  465MOL0     H61331   7.683   8.354   9.478 -0.0294 -0.1300  0.3191
  465MOL0     H61332   7.514   8.332   9.410  0.3983  0.6507 -0.7911
  465MOL0     H61333   7.841   8.160   9.487 -2.0543  1.3588  0.9699
  465MOL0     H61334   7.889   7.935   9.206 -1.4298  0.7352  0.3346
  465MOL0     H61335   7.853   7.802   9.303  2.1151 -0.8674 -0.2889
  465MOL0     H61336   8.018   8.044   9.375 -2.3943  0.9253  1.6861
  465MOL0     H61337   8.071   7.876   9.347 -3.0788 -3.1329 -0.5017
  465MOL0     H61338   7.884   7.946   9.574  0.9667  2.5264  0.1321
  465MOL0     H61339   7.985   7.805   9.563  1.2599  0.1736 -0.6043
  465MOL0     H61340   8.083   8.079   9.648 -2.3464 -1.1910  0.7005
  465MOL0     H61341   8.182   7.946   9.574 -1.3651  0.5282 -0.8771
  465MOL0     H61342   8.344   7.995   9.742  0.1137  3.2851  1.1559
  465MOL0     H61343   8.498   8.026   9.927 -0.0597  1.0605  1.2977
  465MOL0     H61344   8.317   7.733  10.457 -1.3640 -0.2365  2.2363
  465MOL0     H61345   8.422   7.647  10.668  3.6195 -1.2891  0.2260
  465MOL0     H61346   8.553   7.540  10.783 -0.4013 -0.3307  1.6808
  465MOL0     H61347   8.564   7.670  10.902  2.8569  0.2307  1.6352
  465MOL0     H61348   8.768   7.583  10.981  3.3586 -0.0956 -2.8510
  465MOL0     H61349   8.790   7.474  10.850 -1.2504 -0.9879 -2.6280
  465MOL0     H61350   8.696   7.333  11.020 -2.1146 -2.2439 -1.4124
  465MOL0     H61351   8.576   7.358  10.905 -2.4754 -3.1099  3.0894
  465MOL0     H61352   8.574   7.557  11.148 -2.3777 -0.3967  3.7147
  465MOL0     H61353   8.460   7.521  11.028 -0.1292  1.0127  0.5589
  465MOL0     H61354   8.416   7.284  11.129  1.0397 -0.2567  0.6327
  465MOL0     H61355   8.360   7.417  11.232  0.5313  1.5146 -1.7440
  465MOL0     H61356   8.629   7.299  11.280  0.4525  4.8422 -1.6253
  465MOL0     H61357   8.480   7.249  11.360  4.2259 -3.9760 -0.2880
  465MOL0     H61358   8.591   7.519  11.377 -0.9728  1.5474  0.7415
  465MOL0     H61359   8.441   7.467  11.452 -1.7238 -0.6290 -0.7140
  465MOL0     H61360   8.711   7.332  11.524 -1.2124 -3.8909  2.6359
  465MOL0     H61361   8.551   7.271  11.567 -0.4822  0.9131  3.9325
  465MOL0     H61362   8.781   7.885  10.560 -0.4281  2.5770 -3.6921
  465MOL0     H61363   8.674   7.983  10.400  0.0682 -1.2447 -1.8192
  465MOL0     H61364   8.169   7.937  10.195  1.9017  2.4364  0.7256
  465MOL0     H61365   8.038   7.875  10.011  0.5871 -0.5328  1.1145
  465MOL0     H61366   7.355   9.030  10.160  0.5695 -0.9874 -0.0712
  465MOL0     H61367   7.272   9.211  10.030 -2.6410  1.2375 -2.1349
  465MOL0     H61368   6.954   9.410   9.749 -1.0395  0.8951 -0.9912
  465MOL0     H61369   6.805   9.569   9.637  0.9532 -2.2856 -0.2027
  465MOL0     H61370   6.651   9.975   9.811  2.2510  0.7534  1.2895
  465MOL0     H61371   6.705   9.882   9.939 -0.2667  1.2531  0.6749
  465MOL0     H61372   6.466   9.792   9.958 -0.7663 -0.4335  0.1977
  465MOL0     H61373   6.469   9.965   9.934  0.9559  0.0512 -0.2742
  465MOL0     H61374   6.290   9.864   9.790 -0.4324  2.1248 -1.9740
  465MOL0     H61375   6.411   9.765   9.696  2.0737  1.0254 -0.8152
  465MOL0     H61376   6.392  10.069   9.720 -1.7465  0.2092  0.1135
  465MOL0     H61377   6.484   9.971   9.607  1.1109 -4.3302  0.7144
  465MOL0     H61378   6.117   9.988   9.423  0.9244  2.6623 -0.6447
  465MOL0     H61379   6.698   9.719  10.020  0.4035  0.1149  0.9585
  465MOL0     H61380   6.821   9.565  10.128  0.6790 -1.4761 -1.2153
  466MOL0     O61381   5.763   5.517   4.978 -0.2767 -0.8974  0.6059
  466MOL0     C61382   5.718   5.423   5.037  0.5203 -0.5068 -0.3370
  466MOL0     O61383   5.793   5.335   5.104  0.4186  1.1047 -0.0120
  466MOL0     C61384   5.928   5.338   5.112 -0.3806  1.0089 -0.0188
  466MOL0     C61385   5.979   5.220   5.160 -0.5933  1.1059 -0.2061
  466MOL0     C61386   6.121   5.209   5.194  0.6466  0.5469 -0.4312
  466MOL0     C61387   6.204   5.319   5.193  0.0663  0.2914  0.7272
  466MOL0     O61388   6.340   5.312   5.222 -0.0303 -0.1779 -0.8662
  466MOL0     C61389   6.404   5.190   5.263  0.3029 -0.0087 -0.3845
  466MOL0     C61390   6.394   5.093   5.148 -0.5749  0.8869  0.2587
  466MOL0     C61391   6.535   5.051   5.093 -0.7142 -0.7768  0.6043
  466MOL0     C61392   6.612   4.978   5.209  0.1486 -0.0471  0.8174
  466MOL0     C61393   6.729   4.888   5.172  0.6664 -0.2643  0.6732
  466MOL0     C61394   6.849   4.976   5.119 -0.3967  0.0834  0.6363
  466MOL0     C61395   6.970   4.883   5.074  1.1902 -0.2180 -0.2560
  466MOL0     C61396   7.066   4.968   4.997 -0.4273  0.7169 -0.0086
  466MOL0     N61397   7.188   4.904   4.978 -0.8304  0.6344  0.1406
  466MOL0     C61398   7.224   4.779   4.922 -0.2065 -0.0841 -0.0752
  466MOL0     C61399   7.356   4.763   4.942 -0.6451  0.8336 -1.1013
  466MOL0     C61400   7.451   4.657   4.884 -0.5954  0.5344  0.1008
  466MOL0     C61401   7.507   4.557   4.988  0.3877  0.0361  0.9135
  466MOL0     C61402   7.593   4.454   4.920  0.2286 -0.1290 -0.5173
  466MOL0     C61403   7.712   4.500   4.847 -0.3352 -0.2755 -0.8729
  466MOL0     O61404   7.814   4.578   4.915  0.0849 -0.1523  0.3486
  466MOL0     C61405   7.930   4.593   4.851  0.2381 -0.6041  0.0322
  466MOL0     C61406   8.035   4.627   4.935  0.1028 -0.2746 -0.3309
  466MOL0     C61407   8.167   4.630   4.880 -0.0036  0.4372 -0.6227
  466MOL0     C61408   8.190   4.605   4.747  0.8086  0.2623 -0.6838
  466MOL0     C61409   8.339   4.603   4.720 -0.3443 -0.6569 -0.2045
  466MOL0     O61410   8.368   4.509   4.632 -0.1293  0.7845 -0.3095
  466MOL0     C61411   8.494   4.503   4.568  0.1589  0.1121 -0.6079
  466MOL0     C61412   8.584   4.385   4.593  0.3522 -0.2644  0.6794
  466MOL0     C61413   8.702   4.373   4.507 -0.0227 -0.0690  0.4286
  466MOL0     C61414   8.729   4.473   4.408  0.5316 -0.2977  0.4745
  466MOL0     O61415   8.842   4.473   4.326 -0.3220  0.7189 -0.6335
  466MOL0     C61416   8.860   4.355   4.240 -0.9769  0.7600 -0.3171
  466MOL0     C61417   9.008   4.317   4.233 -0.4764 -0.1133  0.4831
  466MOL0     C61418   9.089   4.415   4.142  0.6693  0.1265 -0.4567
  466MOL0     C61419   9.238   4.376   4.128  0.0556  0.0820  1.1866
  466MOL0     C61420   9.304   4.431   4.001 -0.3746  0.7093  0.0613
  466MOL0     C61421   9.438   4.352   3.971  0.3239 -0.3601  0.2493
  466MOL0     C61422   9.530   4.410   3.854 -0.4875  0.0574 -0.1301
  466MOL0     C61423   9.468   4.397   3.715 -0.8255 -0.2803 -1.2788
  466MOL0    Cl61424   9.572   4.495   3.614 -0.2230  0.3864  0.5883
  466MOL0     C61425   8.637   4.578   4.394  0.7349 -0.7287 -0.3771
  466MOL0     C61426   8.517   4.592   4.466  0.0707 -0.3520 -0.0515
  466MOL0     O61427   8.426   4.680   4.770 -0.4782  0.5389  0.3166
  466MOL0     C61428   8.077   4.575   4.664  0.0920  0.5547  0.4442
  466MOL0     C61429   7.952   4.567   4.717 -0.8280 -0.2974  0.7524
  466MOL0     N61430   7.397   4.863   5.029  0.9206 -0.2060  0.0067
  466MOL0     N61431   7.297   4.943   5.049 -0.0156  0.6753  0.3636
  466MOL0     C61432   6.152   5.440   5.139 -1.1281 -0.7599 -0.1470
  466MOL0     C61433   6.021   5.447   5.095  0.8423  0.2750  1.3874
  466MOL0     C61434   5.574   5.397   5.037 -0.5755  0.0439  0.1207
  466MOL0     C61435   5.526   5.288   5.115  0.5621  0.6213  1.3807
  466MOL0     C61436   5.388   5.263   5.122 -0.7547 -0.3895  1.0853
  466MOL0     C61437   5.295   5.329   5.030 -0.2769  0.6260  0.0565
  466MOL0     O61438   5.162   5.288   5.023  0.0835  0.5831  0.5509
  466MOL0     C61439   5.093   5.224   5.129 -0.5649 -0.1976  0.9735
  466MOL0     C61440   5.034   5.326   5.224 -0.0335 -0.2315  0.2296
  466MOL0     C61441   4.905   5.394   5.165  0.0996  0.5770 -0.4728
  466MOL0     C61442   4.794   5.418   5.274 -0.3716 -0.0060  0.1505
  466MOL0     C61443   4.673   5.471   5.214  0.0847  0.2881 -0.1104
  466MOL0     C61444   4.592   5.544   5.165  0.4821 -0.1681  0.6071
  466MOL0     C61445   5.346   5.435   4.953  0.0257  1.0491  0.3899
  466MOL0     C61446   5.483   5.464   4.954 -0.9092  1.4822  0.5800
  466MOL0     H61447   5.927   5.126   5.173  0.6879  0.5580  1.2876
  466MOL0     H61448   6.155   5.111   5.227 -2.6737 -0.9334 -0.9531
  466MOL0     H61449   6.359   5.157   5.357  0.0256  3.0278  0.6898
  466MOL0     H61450   6.505   5.208   5.300 -0.3519 -0.4780  1.7782
  466MOL0     H61451   6.338   5.139   5.066 -0.3342  1.7596  0.5782
  466MOL0     H61452   6.345   4.998   5.173  0.7224 -0.5594 -2.1853
  466MOL0     H61453   6.583   5.143   5.059  1.7685 -1.6466  1.5146
  466MOL0     H61454   6.518   4.980   5.012 -0.1830 -1.0303  0.7140
  466MOL0     H61455   6.660   5.051   5.275 -0.5254  1.2890 -0.1466
  466MOL0     H61456   6.542   4.916   5.265  0.2032 -0.3938  0.5029
  466MOL0     H61457   6.690   4.807   5.110 -2.6127  0.2653  1.8479
  466MOL0     H61458   6.768   4.850   5.267  2.3265 -0.0537  0.1008
  466MOL0     H61459   6.881   5.047   5.196  4.8236 -1.5273  0.3576
  466MOL0     H61460   6.816   5.036   5.034  1.4736 -0.8511 -0.8206
  466MOL0     H61461   7.023   4.861   5.167  1.9488  1.5687 -0.2351
  466MOL0     H61462   6.936   4.800   5.012 -1.4579  0.6696 -0.1244
  466MOL0     H61463   7.090   5.051   5.063  1.5204 -3.0120  4.5172
  466MOL0     H61464   7.018   4.997   4.902 -1.5140 -1.3220 -0.1483
  466MOL0     H61465   7.155   4.726   4.856 -0.1301  1.9202 -1.8650
  466MOL0     H61466   7.534   4.713   4.840  0.6925 -0.4152  1.2350
  466MOL0     H61467   7.398   4.601   4.806  1.9414  0.2218 -1.5295
  466MOL0     H61468   7.425   4.506   5.039 -0.8137  0.8535 -0.1419
  466MOL0     H61469   7.565   4.616   5.060  0.8943 -2.0418  2.2847
  466MOL0     H61470   7.644   4.406   5.004 -0.9109 -0.2890  0.1108
  466MOL0     H61471   7.538   4.382   4.859 -2.2345  1.2854 -0.0863
  466MOL0     H61472   7.675   4.562   4.764 -1.4508  1.3435  0.7534
  466MOL0     H61473   7.753   4.406   4.808  0.8400 -1.0718  2.0262
  466MOL0     H61474   8.028   4.627   5.043  0.2029 -0.5103 -0.3225
  466MOL0     H61475   8.248   4.649   4.948  0.2096  0.3611 -0.8534
  466MOL0     H61476   8.567   4.318   4.676  1.0317 -1.2567  0.0357
  466MOL0     H61477   8.761   4.284   4.522 -1.3983 -1.1607 -0.3914
  466MOL0     H61478   8.824   4.384   4.141  0.4905 -0.7637 -1.3666
  466MOL0     H61479   8.820   4.259   4.276 -0.4607  0.5020 -0.4141
  466MOL0     H61480   9.012   4.220   4.183 -5.2859 -0.8379  1.0324
  466MOL0     H61481   9.050   4.307   4.333 -0.7251  0.0580  0.6056
  466MOL0     H61482   9.088   4.512   4.192 -2.9081  1.2679 -2.3643
  466MOL0     H61483   9.029   4.413   4.050  1.3562  2.5418 -0.9972
  466MOL0     H61484   9.299   4.403   4.215  1.1144 -1.0575  0.8294
  466MOL0     H61485   9.242   4.267   4.131  2.9675  0.0993  1.3652
  466MOL0     H61486   9.333   4.536   4.011  0.0230  0.6365 -0.2627
  466MOL0     H61487   9.234   4.425   3.917  1.1360  1.7709 -1.3528
  466MOL0     H61488   9.409   4.253   3.936 -1.3386 -0.0262  0.5817
  466MOL0     H61489   9.493   4.346   4.065  0.7870 -3.4275 -0.1289
  466MOL0     H61490   9.553   4.515   3.875  0.8109 -0.1536 -0.4317
  466MOL0     H61491   9.626   4.359   3.850 -0.0752  0.6314  1.5903
  466MOL0     H61492   9.367   4.440   3.714 -0.1575  1.4024 -0.2926
  466MOL0     H61493   9.464   4.290   3.691  2.1669 -1.4086  2.2331
  466MOL0     H61494   8.672   4.658   4.329 -1.0720 -0.3203 -0.9156
  466MOL0     H61495   8.466   4.688   4.463  2.7106  1.2995  2.8874
  466MOL0     H61496   8.107   4.586   4.560 -1.0180 -0.4288 -0.0117
  466MOL0     H61497   7.877   4.569   4.638  1.1041  0.4522 -1.1779
  466MOL0     H61498   6.224   5.522   5.133 -0.3418 -1.4763 -0.7546
  466MOL0     H61499   5.986   5.548   5.075 -1.0050  0.9916  6.6620
  466MOL0     H61500   5.580   5.231   5.191 -1.0374 -0.7880  1.5267
  466MOL0     H61501   5.351   5.179   5.180 -3.1971  0.5630  1.0225
  466MOL0     H61502   5.158   5.151   5.178  3.0212 -1.2665 -4.5087
  466MOL0     H61503   5.008   5.173   5.083  0.7767 -0.4120 -1.4059
  466MOL0     H61504   5.007   5.268   5.312 -0.5852 -0.8041 -0.3129
  466MOL0     H61505   5.109   5.406   5.231 -0.2810  0.1728 -1.3324
  466MOL0     H61506   4.856   5.333   5.089  0.2321 -0.1978  0.0553
  466MOL0     H61507   4.937   5.487   5.117  1.9006  0.1429 -0.1961
  466MOL0     H61508   4.765   5.327   5.327 -0.2928  1.1614  2.3194
  466MOL0     H61509   4.830   5.481   5.356 -1.9655 -1.8091  2.3672
  466MOL0     H61510   4.520   5.605   5.115  1.2243  1.4312  1.4437
  466MOL0     H61511   5.280   5.492   4.888  0.5935  0.3600 -0.8204
  466MOL0     H61512   5.511   5.545   4.887 -0.8076  2.4944  1.8051
  467MOL0     O61513   8.755   9.597   2.019 -0.2820  0.2476 -0.6977
  467MOL0     C61514   8.763   9.720   2.035 -0.2296  0.8938 -0.1330
  467MOL0     O61515   8.755   9.788   2.152 -0.7108  0.7148 -0.4581
  467MOL0     C61516   8.723   9.716   2.265 -0.0047  0.7121 -1.3400
  467MOL0     C61517   8.831   9.695   2.361  0.9737  1.0665  0.2825
  467MOL0     C61518   8.791   9.623   2.478 -1.1081 -0.0046  0.9217
  467MOL0     C61519   8.658   9.574   2.500 -0.2730  0.3547  0.5316
  467MOL0     O61520   8.640   9.506   2.619 -0.2411 -0.5489  0.1443
  467MOL0     C61521   8.525   9.429   2.645  1.0012  0.3718 -0.3697
  467MOL0     C61522   8.416   9.521   2.701 -0.1644  0.4840 -0.1843
  467MOL0     C61523   8.427   9.529   2.856 -0.4422  0.7805  1.0460
  467MOL0     C61524   8.317   9.625   2.908 -0.1093 -0.5982  0.9549
  467MOL0     C61525   8.354   9.709   3.028 -0.8257  0.5486 -0.2285
  467MOL0     C61526   8.474   9.799   3.005 -0.7094 -0.8930  0.5506
  467MOL0     C61527   8.462   9.925   3.105 -0.0329  0.7698 -0.7236
  467MOL0     C61528   8.593  10.014   3.104  0.2964 -1.2347  0.4189
  467MOL0     N61529   8.712   9.947   3.146 -0.6999 -0.5066 -0.1575
  467MOL0     C61530   8.734   9.866   3.256  0.3952 -0.0063  0.3817
  467MOL0     C61531   8.869   9.840   3.257 -0.7102  0.5192 -0.8317
  467MOL0     C61532   8.939   9.759   3.360 -0.0753  1.4163 -0.5196
  467MOL0     C61533   8.996   9.628   3.310  0.2842  0.2151  1.0615
  467MOL0     C61534   9.050   9.551   3.438  0.2270 -0.0062 -0.2370
  467MOL0     C61535   9.117   9.425   3.404  0.1939  0.2999  0.4699
  467MOL0     O61536   9.250   9.457   3.362  0.1886 -0.1514 -0.1027
  467MOL0     C61537   9.341   9.370   3.313 -0.0657 -0.9833 -0.3191
  467MOL0     C61538   9.341   9.239   3.357  0.3092 -0.0581  0.7649
  467MOL0     C61539   9.435   9.143   3.328  0.2465 -0.0709  0.5139
  467MOL0     C61540   9.550   9.186   3.258 -0.4973 -1.0250  0.5856
  467MOL0     C61541   9.663   9.090   3.226 -0.0054  0.4251 -0.1168
  467MOL0     O61542   9.642   8.961   3.271  0.4361  0.6311  0.5462
  467MOL0     C61543   9.740   8.873   3.298 -0.3125  0.7863  1.2932
  467MOL0     C61544   9.754   8.830   3.430 -0.3982 -0.7647  0.5116
  467MOL0     C61545   9.850   8.725   3.459  0.0782 -0.1118  1.0720
  467MOL0     C61546   9.932   8.678   3.355  0.1499  0.0974 -0.1026
  467MOL0     O61547  10.028   8.589   3.374 -0.5398 -0.3489 -0.8103
  467MOL0     C61548  10.037   8.495   3.488  0.5952 -1.1908 -0.5557
  467MOL0     C61549  10.126   8.372   3.481 -0.8114 -0.8448 -0.6508
  467MOL0     C61550  10.100   8.313   3.348  0.1051  0.6942  0.1481
  467MOL0     C61551  10.149   8.164   3.349  0.9289 -0.2838 -0.8363
  467MOL0     C61552  10.139   8.101   3.210  0.0922  0.0474  0.2042
  467MOL0     C61553   9.995   8.097   3.151 -0.7311  0.5124 -0.7857
  467MOL0     C61554  10.006   8.021   3.012  0.1937 -0.3002  0.4929
  467MOL0     C61555   9.863   7.982   2.964 -0.1233  1.1734  0.0827
  467MOL0    Cl61556   9.885   7.913   2.796  0.3052 -0.0632  0.2732
  467MOL0     C61557   9.927   8.734   3.224 -0.2788 -0.7868  0.2470
  467MOL0     C61558   9.824   8.828   3.196  0.9314 -0.1526  0.8286
  467MOL0     O61559   9.762   9.131   3.160  0.7488  0.0927 -0.4522
  467MOL0     C61560   9.573   9.331   3.222  0.0907 -0.5771 -0.7387
  467MOL0     C61561   9.466   9.417   3.257  0.3993  0.0623 -0.2383
  467MOL0     N61562   8.925   9.915   3.154 -0.1120 -0.1891 -0.0152
  467MOL0     N61563   8.828   9.969   3.087  0.5606 -0.9185 -0.3280
  467MOL0     C61564   8.567   9.583   2.396  0.1954 -0.2324 -0.6851
  467MOL0     C61565   8.602   9.656   2.285  0.5713 -0.2675  0.1269
  467MOL0     C61566   8.783   9.801   1.911  0.2997 -1.0287  0.0506
  467MOL0     C61567   8.804   9.745   1.786  0.3544  0.0577  0.3531
  467MOL0     C61568   8.826   9.820   1.667 -0.4149 -0.8513  0.8814
  467MOL0     C61569   8.859   9.956   1.678 -0.3577  0.6278  0.2747
  467MOL0     O61570   8.912  10.019   1.561  0.4404  0.1018 -0.1571
  467MOL0     C61571   8.950  10.154   1.558 -0.5974 -0.9636 -0.1816
  467MOL0     C61572   8.855  10.248   1.475  0.3279 -0.4564  0.8820
  467MOL0     C61573   8.721  10.277   1.548  0.0211  0.4674 -0.0589
  467MOL0     C61574   8.616  10.346   1.453  0.8320  0.1968 -0.3342
  467MOL0     C61575   8.652  10.485   1.427  0.1777  0.1351  0.2790
  467MOL0     C61576   8.671  10.605   1.414 -0.3266  1.1531 -0.9815
  467MOL0     C61577   8.847  10.009   1.812 -0.4717 -0.0406 -0.5524
  467MOL0     C61578   8.800   9.935   1.928 -0.2742 -0.6761  0.6652
  467MOL0     H61579   8.927   9.737   2.333  2.6477 -2.9051 -0.6492
  467MOL0     H61580   8.868   9.610   2.554 -0.2370 -2.7590 -0.3235
  467MOL0     H61581   8.553   9.353   2.718  0.5437  0.6590  0.1187
  467MOL0     H61582   8.498   9.386   2.548  3.1987 -1.2960 -0.3250
  467MOL0     H61583   8.313   9.492   2.678 -0.4618  2.8240 -2.2129
  467MOL0     H61584   8.432   9.624   2.669 -1.1017  1.5353  2.4361
  467MOL0     H61585   8.528   9.560   2.885  0.2054 -0.3953  0.1236
  467MOL0     H61586   8.431   9.427   2.894  4.6327 -0.5287 -2.0415
  467MOL0     H61587   8.281   9.700   2.836 -0.7499  0.8418  2.6791
  467MOL0     H61588   8.232   9.559   2.928 -0.6055  0.0994  1.2000
  467MOL0     H61589   8.382   9.644   3.112  0.3929 -0.9438 -1.7134
  467MOL0     H61590   8.274   9.774   3.064 -1.9026 -0.3613 -0.9047
  467MOL0     H61591   8.486   9.841   2.904  4.4573  2.5163  2.1403
  467MOL0     H61592   8.568   9.744   3.015 -0.3314 -0.8767 -2.0712
  467MOL0     H61593   8.382   9.982   3.057 -0.1595  1.3321  0.1346
  467MOL0     H61594   8.439   9.890   3.206  2.1097  1.3333  0.0293
  467MOL0     H61595   8.582  10.102   3.168  0.5996 -2.2173  1.8973
  467MOL0     H61596   8.611  10.042   3.000 -0.8218  2.9511  1.1936
  467MOL0     H61597   8.649   9.830   3.312  0.4526 -1.6623 -0.5278
  467MOL0     H61598   8.879   9.728   3.446  2.1756 -3.1422 -0.3000
  467MOL0     H61599   9.008   9.827   3.412 -2.3194  2.0310  1.8813
  467MOL0     H61600   9.085   9.647   3.250  0.0997  0.3986  0.8465
  467MOL0     H61601   8.924   9.559   3.265  2.5319 -2.5481  1.4339
  467MOL0     H61602   9.114   9.618   3.495 -1.9875  1.1958  0.9641
  467MOL0     H61603   8.964   9.534   3.503  0.3841  1.1353  0.2804
  467MOL0     H61604   9.066   9.377   3.320 -0.8941  2.4476 -0.1625
  467MOL0     H61605   9.098   9.362   3.492  0.1235  0.5562  0.6403
  467MOL0     H61606   9.259   9.210   3.422 -0.1602  1.6197  0.9810
  467MOL0     H61607   9.393   9.047   3.357  4.0440 -2.2647 -0.7002
  467MOL0     H61608   9.680   8.881   3.491 -1.6062 -0.6339 -0.9838
  467MOL0     H61609   9.860   8.693   3.562  1.6576  0.5777  1.1656
  467MOL0     H61610   9.934   8.465   3.510 -0.6310  1.1600 -2.6311
  467MOL0     H61611  10.075   8.555   3.572 -3.9218  1.2677  0.0067
  467MOL0     H61612  10.090   8.308   3.562 -1.2953 -0.5451 -0.6260
  467MOL0     H61613  10.233   8.393   3.493 -0.6488 -2.1984  0.5396
  467MOL0     H61614  10.153   8.376   3.276 -2.1106  1.1077 -1.2200
  467MOL0     H61615   9.992   8.320   3.328  0.1191 -0.6331 -0.5226
  467MOL0     H61616  10.250   8.163   3.392  1.1466 -2.2158 -1.3317
  467MOL0     H61617  10.088   8.099   3.413 -0.0024  0.0049 -1.4153
  467MOL0     H61618  10.175   7.998   3.217  1.3149  0.3869 -0.7921
  467MOL0     H61619  10.217   8.139   3.143  2.0111 -2.5371  0.8548
  467MOL0     H61620   9.960   8.201   3.156  2.6845  1.7820 -0.3195
  467MOL0     H61621   9.930   8.039   3.217 -1.8493  0.4005 -1.9588
  467MOL0     H61622  10.057   8.077   2.933  2.8172 -4.4482 -1.0889
  467MOL0     H61623  10.062   7.927   3.018 -0.5982 -1.6826 -5.9516
  467MOL0     H61624   9.803   8.074   2.955 -0.6581  0.9208  0.9211
  467MOL0     H61625   9.824   7.910   3.037  0.8263  2.9396  2.4701
  467MOL0     H61626  10.005   8.724   3.149  0.5556  2.0344  0.6407
  467MOL0     H61627   9.823   8.868   3.095 -2.9844 -1.7727  0.0221
  467MOL0     H61628   9.667   9.360   3.177  0.0521 -2.9338 -2.5265
  467MOL0     H61629   9.479   9.524   3.241  1.1752  0.0245  0.0983
  467MOL0     H61630   8.470   9.537   2.408  1.3017 -2.3147  1.1805
  467MOL0     H61631   8.525   9.676   2.211  1.8824  0.6523 -1.0423
  467MOL0     H61632   8.798   9.637   1.779 -1.1596  0.0911  0.8618
  467MOL0     H61633   8.845   9.761   1.578  2.3995 -1.4440  1.7546
  467MOL0     H61634   9.051  10.167   1.518 -0.2517  0.6462  1.1277
  467MOL0     H61635   8.960  10.205   1.655  1.8574 -0.0852 -0.8186
  467MOL0     H61636   8.904  10.344   1.460 -2.3316  1.0733  1.3492
  467MOL0     H61637   8.829  10.215   1.374  0.8789  0.8380  0.2915
  467MOL0     H61638   8.743  10.340   1.635 -0.5533  0.8614 -0.1973
  467MOL0     H61639   8.669  10.189   1.588  2.3575 -0.8899  0.1846
  467MOL0     H61640   8.616  10.301   1.354 -0.3456  0.5579 -0.5118
  467MOL0     H61641   8.514  10.353   1.491  0.6046  0.6970 -1.0425
  467MOL0     H61642   8.707  10.705   1.403 -1.1440  1.6387  0.4713
  467MOL0     H61643   8.860  10.116   1.804 -2.3903  0.1752 -1.0841
  467MOL0     H61644   8.780   9.987   2.021 -2.1462  0.0509 -0.1122
  468MOL0     O61645   1.977   9.739   1.748 -0.3160  0.1363 -0.2806
  468MOL0     C61646   1.881   9.728   1.675  0.0050  0.2478  0.8254
  468MOL0     O61647   1.881   9.644   1.567  0.0923  0.0695  0.0502
  468MOL0     C61648   1.974   9.532   1.565 -0.6265 -0.6579 -0.0395
  468MOL0     C61649   2.107   9.548   1.536 -0.4889  0.2534  0.2605
  468MOL0     C61650   2.188   9.434   1.537  0.7892  0.5325  0.9396
  468MOL0     C61651   2.134   9.302   1.551 -0.1378  0.4583  0.5139
  468MOL0     O61652   2.213   9.184   1.542 -0.9608  0.2107  0.4012
  468MOL0     C61653   2.173   9.099   1.435  0.0540  0.0414 -0.3482
  468MOL0     C61654   2.293   9.013   1.416  0.0496  0.5262  0.0982
  468MOL0     C61655   2.421   9.093   1.373 -1.7883  0.2499 -0.4513
  468MOL0     C61656   2.454   9.089   1.226 -0.3620 -0.3814 -0.0913
  468MOL0     C61657   2.569   9.191   1.185 -0.4063  0.6570 -0.5511
  468MOL0     C61658   2.558   9.338   1.227  0.1222 -1.4000 -0.2565
  468MOL0     C61659   2.426   9.399   1.174  0.6247 -0.2857 -1.4645
  468MOL0     C61660   2.427   9.413   1.022 -0.0762 -0.7240  0.5108
  468MOL0     N61661   2.301   9.485   0.976 -1.0489 -0.6186 -0.0720
  468MOL0     C61662   2.281   9.610   1.026 -0.1836  0.0090 -0.2849
  468MOL0     C61663   2.154   9.647   0.999  0.6867  0.0912  0.8419
  468MOL0     C61664   2.095   9.781   1.031  0.3698 -0.4431 -0.8728
  468MOL0     C61665   2.025   9.769   1.167  0.1398  0.5227  0.0743
  468MOL0     C61666   1.876   9.763   1.144  0.4216  0.6844 -0.1504
  468MOL0     C61667   1.807   9.739   1.275 -0.0909  0.2995  0.8921
  468MOL0     O61668   1.660   9.757   1.253 -0.0340 -0.5734 -0.2877
  468MOL0     C61669   1.605   9.876   1.197 -1.1756 -0.1719 -0.5414
  468MOL0     C61670   1.576   9.984   1.273 -0.1017 -0.4325 -0.4647
  468MOL0     C61671   1.503  10.092   1.216  0.5024 -0.8282  0.7033
  468MOL0     C61672   1.462  10.090   1.076  1.6886  0.1953  0.1555
  468MOL0     C61673   1.393  10.208   1.024 -0.6166  0.7316  0.1594
  468MOL0     O61674   1.382  10.219   0.888  0.8065  0.1559  0.4156
  468MOL0     C61675   1.334  10.333   0.834  0.6041 -0.2876 -0.6255
  468MOL0     C61676   1.345  10.463   0.896  0.7479  0.3226  0.1882
  468MOL0     C61677   1.307  10.577   0.830  0.3741  1.1628 -0.9418
  468MOL0     C61678   1.264  10.573   0.698 -0.1475  0.1975 -0.2021
  468MOL0     O61679   1.232  10.695   0.650 -0.4769 -0.4970 -0.4838
  468MOL0     C61680   1.135  10.712   0.552  0.9419  0.2122  0.1311
  468MOL0     C61681   0.998  10.761   0.594  0.6233  0.7837 -0.8641
  468MOL0     C61682   0.934  10.813   0.481  0.3672  0.5596 -0.7769
  468MOL0     C61683   0.781  10.831   0.517  1.1288  1.3949 -0.1081
  468MOL0     C61684   0.689  10.846   0.390  0.1451 -0.8942  0.0699
  468MOL0     C61685   0.539  10.817   0.410 -0.1665 -1.0085 -0.9317
  468MOL0     C61686   0.478  10.886   0.536 -0.1761  0.4832 -0.4578
  468MOL0     C61687   0.334  10.942   0.517 -1.1918 -0.1918 -0.3197
  468MOL0    Cl61688   0.322  11.060   0.389  0.2216 -0.1288 -0.2770
  468MOL0     C61689   1.253  10.446   0.633  0.2087 -0.0153 -0.8509
  468MOL0     C61690   1.293  10.330   0.699  1.1627 -0.0312 -0.3068
  468MOL0     O61691   1.336  10.270   1.108 -0.4044 -0.6551  0.0229
  468MOL0     C61692   1.499   9.982   0.995  0.3955 -0.0690  0.3314
  468MOL0     C61693   1.574   9.875   1.058  1.0503 -0.6839  0.2275
  468MOL0     N61694   2.091   9.536   0.953 -0.4129 -0.0275  0.7102
  468MOL0     N61695   2.174   9.435   0.951  0.7493  1.1614  0.7731
  468MOL0     C61696   1.998   9.288   1.572 -1.2051  0.2680  0.7898
  468MOL0     C61697   1.922   9.403   1.584 -0.6144 -0.3153 -0.2784
  468MOL0     C61698   1.794   9.845   1.659  0.5641 -0.1777 -0.3539
  468MOL0     C61699   1.655   9.832   1.645  0.2471 -0.8115  0.5355
  468MOL0     C61700   1.574   9.938   1.626 -0.2937 -0.7805 -0.4026
  468MOL0     C61701   1.632  10.064   1.622 -0.1382  0.7932  0.2497
  468MOL0     O61702   1.548  10.169   1.595  1.1962  0.4503  0.1831
  468MOL0     C61703   1.557  10.283   1.686  0.8126 -0.9617 -0.5833
  468MOL0     C61704   1.414  10.323   1.739 -0.5040 -0.7357 -0.6341
  468MOL0     C61705   1.422  10.461   1.808  0.2742 -0.1351 -0.5424
  468MOL0     C61706   1.309  10.468   1.909  0.8064 -0.0189 -0.3458
  468MOL0     C61707   1.303  10.596   1.982  0.6266  1.5621 -0.1232
  468MOL0     C61708   1.289  10.696   2.048 -0.4326 -0.8003  0.2097
  468MOL0     C61709   1.771  10.086   1.635 -0.8678 -0.3956  1.2916
  468MOL0     C61710   1.850   9.973   1.655 -0.7415 -0.9565  0.8179
  468MOL0     H61711   2.140   9.651   1.532  0.0296  0.2404  2.6887
  468MOL0     H61712   2.291   9.443   1.505 -0.4212  0.3860 -3.6107
  468MOL0     H61713   2.149   9.158   1.345 -0.3683 -0.4744 -0.5767
  468MOL0     H61714   2.083   9.042   1.459 -0.3864  0.7053 -0.3677
  468MOL0     H61715   2.274   8.927   1.351 -2.8583  1.4791 -0.4773
  468MOL0     H61716   2.322   8.967   1.511  0.4741  3.4466  1.4702
  468MOL0     H61717   2.503   9.055   1.435 -1.2891  0.8158 -0.7498
  468MOL0     H61718   2.405   9.199   1.396 -3.2545  1.1554 -4.6997
  468MOL0     H61719   2.471   8.989   1.183  0.9115  0.8973 -2.8154
  468MOL0     H61720   2.358   9.119   1.183 -0.9749 -1.0438  0.7742
  468MOL0     H61721   2.571   9.187   1.076 -1.9715 -0.1712 -0.5882
  468MOL0     H61722   2.661   9.146   1.222  1.2323  1.2885 -3.5128
  468MOL0     H61723   2.640   9.396   1.183 -2.4247  2.0305 -0.8883
  468MOL0     H61724   2.561   9.343   1.337  0.3232  0.7113 -0.3189
  468MOL0     H61725   2.332   9.353   1.207  1.5194 -0.3583  1.2066
  468MOL0     H61726   2.431   9.500   1.216  0.7867 -1.0103  0.3487
  468MOL0     H61727   2.432   9.315   0.974 -1.7233 -0.0281 -1.1981
  468MOL0     H61728   2.519   9.462   0.990 -0.8624 -0.7142 -1.9064
  468MOL0     H61729   2.351   9.683   1.066 -0.3847  0.4106 -0.6508
  468MOL0     H61730   2.017   9.795   0.955 -1.1389  0.3209  0.7260
  468MOL0     H61731   2.166   9.864   1.030 -0.7445  0.6937  2.0996
  468MOL0     H61732   2.055   9.858   1.222 -0.2010  1.0314 -0.5436
  468MOL0     H61733   2.050   9.676   1.218 -4.3531  0.6839  3.1475
  468MOL0     H61734   1.840   9.859   1.108 -1.4159  0.4284  0.9092
  468MOL0     H61735   1.865   9.685   1.069  2.8275 -0.0906  0.1893
  468MOL0     H61736   1.852   9.794   1.359  2.3178 -2.7731  1.8073
  468MOL0     H61737   1.823   9.635   1.303 -0.7385  0.3697  1.5612
  468MOL0     H61738   1.612   9.990   1.376 -1.1212  0.7726 -0.1555
  468MOL0     H61739   1.479  10.171   1.286  0.5160  1.6895 -1.9353
  468MOL0     H61740   1.381  10.470   0.998  0.8500 -0.2837  0.1964
  468MOL0     H61741   1.327  10.667   0.888 -2.2839  2.0555 -1.2934
  468MOL0     H61742   1.116  10.619   0.496 -1.5122 -2.1922  4.4175
  468MOL0     H61743   1.172  10.787   0.482 -2.3233  0.1287 -1.9083
  468MOL0     H61744   1.010  10.832   0.676  2.7839 -1.7141  1.1538
  468MOL0     H61745   0.948  10.678   0.645  0.0688  2.5881  1.7321
  468MOL0     H61746   0.942  10.745   0.395 -5.2758 -0.7363 -0.6693
  468MOL0     H61747   0.973  10.907   0.440  1.5055 -0.1039 -1.2642
  468MOL0     H61748   0.756  10.738   0.569  1.6351 -0.2602 -2.6201
  468MOL0     H61749   0.764  10.911   0.589  0.8275  0.4675  0.8697
  468MOL0     H61750   0.728  10.780   0.313  2.8049 -0.3325  0.8533
  468MOL0     H61751   0.704  10.951   0.363  0.4034 -1.1869 -0.9764
  468MOL0     H61752   0.528  10.710   0.426 -0.9997 -0.7284  0.6126
  468MOL0     H61753   0.483  10.843   0.319  1.0992 -0.6450 -1.6316
  468MOL0     H61754   0.463  10.825   0.625 -1.0374 -0.1382 -1.0169
  468MOL0     H61755   0.543  10.969   0.565  1.8328 -1.4365  0.8687
  468MOL0     H61756   0.302  10.988   0.611 -1.6025  0.8783 -0.9617
  468MOL0     H61757   0.269  10.856   0.498 -1.6743  0.7233 -3.5280
  468MOL0     H61758   1.216  10.422   0.533  1.6131 -2.1291 -0.9238
  468MOL0     H61759   1.265  10.236   0.651 -2.3592  0.5846  0.2269
  468MOL0     H61760   1.464   9.990   0.893 -2.1057  2.8971  1.2740
  468MOL0     H61761   1.609   9.792   0.997 -0.6653 -1.3357  0.0654
  468MOL0     H61762   1.943   9.194   1.578 -0.9831  0.0686 -0.0890
  468MOL0     H61763   1.814   9.397   1.598 -0.8588 -0.3166 -1.9380
  468MOL0     H61764   1.618   9.732   1.630 -1.6165 -0.1295  0.3622
  468MOL0     H61765   1.468   9.928   1.608 -0.3815 -1.0713  0.2197
  468MOL0     H61766   1.595  10.373   1.638 -4.4374  2.5610  1.0216
  468MOL0     H61767   1.623  10.257   1.769 -0.2245  2.6573  1.5724
  468MOL0     H61768   1.343  10.333   1.657  0.8011 -0.7840 -1.8037
  468MOL0     H61769   1.396  10.244   1.813  1.8796  0.0538  0.9410
  468MOL0     H61770   1.414  10.543   1.737  2.6623  2.1482  1.6291
  468MOL0     H61771   1.521  10.468   1.854 -0.0308 -2.4328  0.6504
  468MOL0     H61772   1.214  10.444   1.861  1.6085 -0.4627 -1.7777
  468MOL0     H61773   1.325  10.393   1.987 -0.4476  1.2078  1.1485
  468MOL0     H61774   1.257  10.787   2.093 -1.2556  0.0955 -2.0178
  468MOL0     H61775   1.823  10.181   1.632  2.6627 -2.2117  0.4895
  468MOL0     H61776   1.957   9.989   1.654 -0.6472 -1.5840 -0.3118
  469MOL0     O61777   3.886  11.009   3.800 -0.0489 -0.0693  0.1009
  469MOL0     C61778   3.941  10.937   3.718  1.1213 -0.8426  0.0397
  469MOL0     O61779   4.033  10.976   3.618 -0.9408 -0.2981  0.8312
  469MOL0     C61780   4.110  11.083   3.652 -1.4532  0.6374 -0.4829
  469MOL0     C61781   4.241  11.055   3.698 -0.3106 -0.0699 -0.9286
  469MOL0     C61782   4.331  11.169   3.719  0.3549  0.0434 -0.2302
  469MOL0     C61783   4.286  11.302   3.696  0.2522 -0.3985  0.2081
  469MOL0     O61784   4.373  11.405   3.725 -0.6927 -0.1022 -0.7910
  469MOL0     C61785   4.330  11.536   3.694  0.1141  0.2843  0.6705
  469MOL0     C61786   4.423  11.639   3.755  0.3000  0.5016 -0.0500
  469MOL0     C61787   4.382  11.774   3.686  0.1533 -0.8387 -0.0620
  469MOL0     C61788   4.470  11.882   3.736 -0.0155  0.4772 -0.8678
  469MOL0     C61789   4.619  11.883   3.681 -1.0929  0.4175 -0.2574
  469MOL0     C61790   4.705  11.989   3.752 -0.4504  0.3472 -0.2656
  469MOL0     C61791   4.833  11.996   3.678 -0.4578  0.1994  0.0197
  469MOL0     C61792   4.920  12.113   3.729  0.3959  0.1904  0.0125
  469MOL0     N61793   4.862  12.251   3.710 -0.2375  0.1712  0.3218
  469MOL0     C61794   4.802  12.336   3.795 -0.7643 -0.2498  0.3785
  469MOL0     C61795   4.778  12.448   3.714  0.4194 -0.0900 -0.3685
  469MOL0     C61796   4.734  12.581   3.772  0.0012 -0.7346  0.7441
  469MOL0     C61797   4.583  12.565   3.820  0.3670 -0.4756  0.7445
  469MOL0     C61798   4.496  12.595   3.691  0.0511 -0.5044 -1.3451
  469MOL0     C61799   4.342  12.572   3.716  0.2275  0.2385 -0.4624
  469MOL0     O61800   4.278  12.668   3.797 -0.0158 -0.5307 -0.3629
  469MOL0     C61801   4.301  12.644   3.937 -0.0056  0.5547  0.3450
  469MOL0     C61802   4.343  12.755   4.018  0.1947  0.6283  0.3483
  469MOL0     C61803   4.351  12.737   4.155  0.2373 -0.8031 -0.1876
  469MOL0     C61804   4.321  12.614   4.217 -1.3133 -0.0230  0.5698
  469MOL0     C61805   4.340  12.588   4.365  1.7090 -0.3199 -0.3832
  469MOL0     O61806   4.390  12.688   4.438 -0.9741 -0.0917  0.0743
  469MOL0     C61807   4.355  12.696   4.570 -0.7658 -0.1405 -0.2955
  469MOL0     C61808   4.296  12.819   4.621 -0.0483  0.5223  0.1871
  469MOL0     C61809   4.232  12.829   4.743  0.0990 -0.3790  0.7660
  469MOL0     C61810   4.234  12.714   4.832 -0.0537 -0.2794  0.2209
  469MOL0     O61811   4.168  12.699   4.950  0.1877  0.2323 -0.1052
  469MOL0     C61812   4.063  12.791   4.973  0.5795 -0.4566  0.6716
  469MOL0     C61813   3.975  12.764   5.087  0.7184  0.5064 -0.6787
  469MOL0     C61814   4.049  12.781   5.224  0.1521  0.1393  0.4931
  469MOL0     C61815   3.953  12.769   5.344  1.4291  1.0415 -0.3287
  469MOL0     C61816   3.944  12.635   5.421  0.0685 -0.3455  0.9592
  469MOL0     C61817   3.936  12.499   5.341  0.8094 -0.3312 -0.8793
  469MOL0     C61818   3.792  12.495   5.293  0.0244 -0.1348 -0.2984
  469MOL0     C61819   3.756  12.350   5.250  0.0084  0.3064 -0.0112
  469MOL0    Cl61820   3.712  12.265   5.386 -0.3042  0.1292 -0.2415
  469MOL0     C61821   4.317  12.608   4.790  0.6948 -0.6521 -1.0377
  469MOL0     C61822   4.369  12.596   4.667  0.0033  0.4571 -0.0947
  469MOL0     O61823   4.286  12.485   4.409 -0.1003 -1.0060  0.3077
  469MOL0     C61824   4.295  12.505   4.139  1.2464 -0.2306  0.3710
  469MOL0     C61825   4.290  12.523   4.002 -0.2766  0.8947  0.5526
  469MOL0     N61826   4.814  12.420   3.584 -0.5348  0.4656  0.4297
  469MOL0     N61827   4.851  12.292   3.579 -0.3956 -0.0515  0.7353
  469MOL0     C61828   4.155  11.318   3.643  0.4491  0.4785  0.5278
  469MOL0     C61829   4.064  11.211   3.634  0.5389  1.1465  1.1982
  469MOL0     C61830   3.919  10.791   3.713  0.3351  0.0366  0.2032
  469MOL0     C61831   3.837  10.734   3.816 -0.5544  1.0819  0.6581
  469MOL0     C61832   3.801  10.596   3.812 -0.0478  0.7964  0.4764
  469MOL0     C61833   3.858  10.508   3.716 -0.5979 -0.0111 -0.2364
  469MOL0     O61834   3.840  10.369   3.723 -0.9962  1.0282  0.1973
  469MOL0     C61835   3.830  10.295   3.847 -0.7344  0.0544 -1.1478
  469MOL0     C61836   3.676  10.284   3.883  0.4423  0.0560  0.0052
  469MOL0     C61837   3.619  10.147   3.869  0.4613 -0.0549  0.3930
  469MOL0     C61838   3.609  10.113   3.718  0.5388  0.2073 -0.2368
  469MOL0     C61839   3.525  10.214   3.638  0.1948  0.4632  0.0121
  469MOL0     C61840   3.465  10.296   3.576 -0.1338 -0.6747 -0.7127
  469MOL0     C61841   3.937  10.564   3.618  0.0261 -0.1233 -0.0634
  469MOL0     C61842   3.967  10.704   3.616  0.5198 -0.2189  0.7940
  469MOL0     H61843   4.293  10.960   3.705  4.3158  2.3075  1.7382
  469MOL0     H61844   4.434  11.152   3.750  1.0235  2.4389 -0.9561
  469MOL0     H61845   4.227  11.561   3.721  0.9205  3.0497  1.5084
  469MOL0     H61846   4.333  11.544   3.584  2.5243 -0.0066  0.6681
  469MOL0     H61847   4.525  11.601   3.760  0.7617  1.6826 -0.3915
  469MOL0     H61848   4.394  11.638   3.860  1.5960 -2.6067  0.4112
  469MOL0     H61849   4.282  11.801   3.722  0.4448 -1.4423  1.2899
  469MOL0     H61850   4.376  11.761   3.578 -1.4658  0.6125 -0.1906
  469MOL0     H61851   4.421  11.973   3.700 -1.1681 -1.0550 -3.4672
  469MOL0     H61852   4.479  11.886   3.845  1.6266 -0.5313 -0.9241
  469MOL0     H61853   4.626  11.892   3.572 -0.3156 -2.6207 -0.5371
  469MOL0     H61854   4.675  11.791   3.700 -5.1464 -2.0246  1.2530
  469MOL0     H61855   4.721  11.981   3.860  1.5400 -1.6507 -0.6231
  469MOL0     H61856   4.661  12.089   3.747  0.1436  1.2588  5.4556
  469MOL0     H61857   4.890  11.903   3.686 -1.8480 -0.9658 -2.2515
  469MOL0     H61858   4.826  12.008   3.569  0.8762  6.1324  0.2644
  469MOL0     H61859   5.023  12.112   3.691  0.7399  1.6852  0.7978
  469MOL0     H61860   4.938  12.102   3.836 -1.0451 -1.6755  0.1016
  469MOL0     H61861   4.807  12.323   3.903  2.1160 -0.1962  0.3309
  469MOL0     H61862   4.742  12.656   3.694  0.4009  0.3585  1.8011
  469MOL0     H61863   4.801  12.616   3.852  1.9950  4.8286 -2.7800
  469MOL0     H61864   4.555  12.629   3.904 -3.1419  2.5387 -2.3440
  469MOL0     H61865   4.574  12.458   3.843  0.8243 -1.0170 -1.4208
  469MOL0     H61866   4.527  12.693   3.656 -1.5084  0.0040 -1.4059
  469MOL0     H61867   4.526  12.534   3.606  1.0543  0.0486 -1.4017
  469MOL0     H61868   4.322  12.468   3.745 -2.2742 -0.1632 -3.1865
  469MOL0     H61869   4.283  12.574   3.624 -0.0521 -0.6098 -0.3127
  469MOL0     H61870   4.369  12.853   3.979 -2.0827  1.3940  0.5973
  469MOL0     H61871   4.378  12.820   4.220 -1.6563 -1.4629  1.5337
  469MOL0     H61872   4.279  12.896   4.547  0.8939  0.9595  0.4000
  469MOL0     H61873   4.167  12.914   4.760  0.2257 -0.6767  3.0604
  469MOL0     H61874   3.996  12.782   4.887 -0.5418 -0.3258  1.5037
  469MOL0     H61875   4.100  12.893   4.989 -0.7318  0.0804  0.3985
  469MOL0     H61876   3.958  12.659   5.060  2.5749 -0.0342  0.1040
  469MOL0     H61877   3.896  12.835   5.064  1.3574  1.5307  0.2176
  469MOL0     H61878   4.083  12.886   5.221 -0.6992  0.4584 -3.4483
  469MOL0     H61879   4.135  12.713   5.222 -0.7976 -1.0828 -1.2495
  469MOL0     H61880   3.965  12.845   5.422 -1.3451 -0.0016  1.2572
  469MOL0     H61881   3.851  12.773   5.303  1.5880 -0.1117 -0.8743
  469MOL0     H61882   3.857  12.634   5.488 -0.0976  3.6827  1.0349
  469MOL0     H61883   4.033  12.638   5.484  1.0555 -0.4481 -0.3821
  469MOL0     H61884   3.967  12.414   5.402  1.3042  0.4535 -0.0220
  469MOL0     H61885   3.992  12.494   5.247  1.3920 -0.3579 -0.5317
  469MOL0     H61886   3.723  12.519   5.374 -1.0262  1.7238 -1.6519
  469MOL0     H61887   3.773  12.569   5.214 -2.0076  0.7084  0.8888
  469MOL0     H61888   3.836  12.310   5.188 -0.0600 -2.2027  1.4149
  469MOL0     H61889   3.670  12.358   5.183  0.0914  0.0437 -0.1489
  469MOL0     H61890   4.333  12.526   4.859  0.1774  0.9909  1.1260
  469MOL0     H61891   4.419  12.506   4.632 -1.3112  0.2891 -1.6805
  469MOL0     H61892   4.272  12.405   4.174 -1.1037  0.0613 -0.1534
  469MOL0     H61893   4.275  12.427   3.954  1.3483 -1.0390  3.5627
  469MOL0     H61894   4.111  11.413   3.615 -2.9964 -0.8119  1.1239
  469MOL0     H61895   3.971  11.244   3.587  1.5163  4.9402  1.6690
  469MOL0     H61896   3.811  10.785   3.908  2.1281  1.9843  0.9852
  469MOL0     H61897   3.726  10.550   3.875  1.0675 -2.7895 -0.5508
  469MOL0     H61898   3.889  10.331   3.931  1.2618 -0.8105 -2.1155
  469MOL0     H61899   3.882  10.200   3.832 -1.6690 -0.2178 -3.1192
  469MOL0     H61900   3.667  10.315   3.988  0.8897 -3.6745  1.3287
  469MOL0     H61901   3.617  10.358   3.830  0.9561  0.5697  0.1385
  469MOL0     H61902   3.519  10.134   3.914  0.4711  0.4422  0.5678
  469MOL0     H61903   3.679  10.072   3.922 -0.1756 -0.2411  0.8769
  469MOL0     H61904   3.710  10.103   3.677  1.1365  1.3340  0.8586
  469MOL0     H61905   3.545  10.025   3.715 -3.1228  2.5551  1.6878
  469MOL0     H61906   3.426  10.370   3.508 -0.9616 -0.5216 -0.0817
  469MOL0     H61907   3.969  10.503   3.534 -2.3160  0.0120 -1.1217
  469MOL0     H61908   4.024  10.744   3.532 -0.0442 -2.6756 -0.8605
  470MOL0     O61909   2.120   9.893   5.024 -0.3426 -0.1595  0.4487
  470MOL0     C61910   2.221   9.958   5.040 -0.4229  0.2898  0.5429
  470MOL0     O61911   2.327   9.934   5.128 -0.1639 -0.7998  0.9627
  470MOL0     C61912   2.324   9.843   5.227  0.9695  0.2546  0.4761
  470MOL0     C61913   2.208   9.807   5.297 -0.7880 -0.0424 -0.6209
  470MOL0     C61914   2.216   9.714   5.398 -0.1691 -0.2378  0.0273
  470MOL0     C61915   2.340   9.671   5.453 -0.8921 -0.6039  0.3932
  470MOL0     O61916   2.356   9.588   5.557 -0.5748  0.1548  0.6205
  470MOL0     C61917   2.295   9.634   5.686 -0.3358 -0.4587 -0.7025
  470MOL0     C61918   2.403   9.644   5.793 -0.1770 -0.5339  0.1251
  470MOL0     C61919   2.477   9.775   5.771 -0.3165 -0.4641  0.0685
  470MOL0     C61920   2.593   9.775   5.873 -1.1126  0.6410  0.1664
  470MOL0     C61921   2.681   9.654   5.870 -0.9313  0.7154  0.3078
  470MOL0     C61922   2.818   9.676   5.929 -0.9829  0.3515 -0.6548
  470MOL0     C61923   2.819   9.728   6.077  0.0608 -0.1332 -0.1129
  470MOL0     C61924   2.956   9.716   6.141  1.2285 -0.0992  0.2473
  470MOL0     N61925   3.067   9.777   6.055 -0.0653 -0.9405 -0.3709
  470MOL0     C61926   3.155   9.704   5.988 -0.6476 -1.0185  0.2366
  470MOL0     C61927   3.241   9.800   5.938  0.4000 -0.4478 -0.4925
  470MOL0     C61928   3.378   9.776   5.883 -1.0696 -0.3301  0.1055
  470MOL0     C61929   3.485   9.753   5.983 -0.2815  0.5675 -0.2016
  470MOL0     C61930   3.627   9.788   5.929  1.1422  0.2849  0.0358
  470MOL0     C61931   3.722   9.819   6.041 -0.8036 -0.4097  0.1293
  470MOL0     O61932   3.823   9.895   5.983 -0.5034 -0.4804  0.4102
  470MOL0     C61933   3.892   9.980   6.064 -0.5810 -0.4519  1.0847
  470MOL0     C61934   3.895   9.977   6.191  0.2940  0.4577  0.0573
  470MOL0     C61935   3.965  10.076   6.263 -0.7064  0.5382  0.4839
  470MOL0     C61936   4.036  10.184   6.204  0.0216  0.1203  0.2551
  470MOL0     C61937   4.079  10.301   6.277 -0.4187 -0.3961 -0.2299
  470MOL0     O61938   4.029  10.420   6.250 -0.3290 -0.0526  0.4710
  470MOL0     C61939   4.089  10.526   6.315  0.3349 -0.6042 -1.8590
  470MOL0     C61940   4.209  10.590   6.270  0.2290  0.0337  0.5104
  470MOL0     C61941   4.264  10.686   6.357  0.3958 -0.2460  0.3345
  470MOL0     C61942   4.196  10.730   6.476  0.6650 -0.2021  0.7945
  470MOL0     O61943   4.252  10.834   6.551  0.3332  1.4023  0.2186
  470MOL0     C61944   4.232  10.961   6.488  1.2354 -0.6855 -0.0991
  470MOL0     C61945   4.355  11.018   6.426  0.4620 -0.1404 -0.1782
  470MOL0     C61946   4.487  10.983   6.476 -0.2090  0.4787 -0.4526
  470MOL0     C61947   4.515  11.044   6.619 -0.3132 -0.5756 -0.2957
  470MOL0     C61948   4.598  11.177   6.601  0.2053  0.1283 -0.6568
  470MOL0     C61949   4.735  11.176   6.672 -1.0388 -1.0170 -0.1955
  470MOL0     C61950   4.798  11.319   6.648  0.2010 -0.3937  0.7085
  470MOL0     C61951   4.778  11.414   6.759  0.1391 -0.8289  0.4886
  470MOL0    Cl61952   4.840  11.579   6.716 -0.1532  0.0543 -0.2389
  470MOL0     C61953   4.088  10.664   6.525 -0.0407  0.2156  0.7004
  470MOL0     C61954   4.031  10.567   6.445  0.1106  0.5649  0.9788
  470MOL0     O61955   4.163  10.282   6.365 -0.3746  0.3137 -0.0587
  470MOL0     C61956   4.039  10.179   6.061 -0.6911 -0.5663  0.3789
  470MOL0     C61957   3.968  10.078   5.995  0.3819  0.3694  0.5095
  470MOL0     N61958   3.196   9.927   5.980  0.5945 -0.5759  0.8740
  470MOL0     N61959   3.090   9.914   6.040  0.1115  0.6707 -0.3830
  470MOL0     C61960   2.456   9.710   5.387 -0.1639  1.0623 -2.1557
  470MOL0     C61961   2.443   9.792   5.274 -1.0530  0.5296  0.2538
  470MOL0     C61962   2.244  10.052   4.923  0.2076  0.8444 -0.0746
  470MOL0     C61963   2.366  10.115   4.908  0.0409 -0.1079  0.5215
  470MOL0     C61964   2.387  10.206   4.808 -0.3216 -0.3985 -0.1963
  470MOL0     C61965   2.294  10.242   4.707  0.7045  0.3406 -0.6226
  470MOL0     O61966   2.316  10.312   4.589  0.3733  0.4374  0.0500
  470MOL0     C61967   2.390  10.432   4.580  0.3170 -0.3473 -0.2931
  470MOL0     C61968   2.543  10.430   4.560 -0.4063  0.0032  0.1670
  470MOL0     C61969   2.572  10.436   4.407  0.3682 -1.6956 -0.3956
  470MOL0     C61970   2.720  10.416   4.387 -0.6845 -0.3774  0.4791
  470MOL0     C61971   2.757  10.498   4.270 -0.6001 -0.0790  1.7264
  470MOL0     C61972   2.798  10.570   4.176  0.1635 -0.3212 -0.3276
  470MOL0     C61973   2.173  10.166   4.713 -0.5613 -0.1833  0.0485
  470MOL0     C61974   2.148  10.082   4.826 -0.2459 -0.0029  0.7464
  470MOL0     H61975   2.119   9.852   5.255  0.5714 -0.6227 -4.5590
  470MOL0     H61976   2.132   9.666   5.447  0.4753 -3.7430 -1.9926
  470MOL0     H61977   2.244   9.549   5.731  2.2047 -0.0726  3.4537
  470MOL0     H61978   2.223   9.715   5.678 -0.6636 -0.6808 -0.1009
  470MOL0     H61979   2.456   9.550   5.782 -0.4621 -0.5238 -1.5478
  470MOL0     H61980   2.350   9.644   5.889 -0.8522 -2.6961 -0.1904
  470MOL0     H61981   2.421   9.867   5.790  1.1273  0.8540 -1.6620
  470MOL0     H61982   2.522   9.785   5.671 -0.5574  1.4499  0.1087
  470MOL0     H61983   2.656   9.861   5.847  0.1968 -0.5494 -0.7714
  470MOL0     H61984   2.557   9.782   5.976  1.5021 -1.5649  1.3295
  470MOL0     H61985   2.699   9.628   5.766 -1.6572 -0.8703  0.5597
  470MOL0     H61986   2.626   9.569   5.911  1.4210 -1.6126 -1.0672
  470MOL0     H61987   2.858   9.753   5.863  0.8517  0.5719  0.6327
  470MOL0     H61988   2.874   9.582   5.920 -2.1892 -0.4493 -0.0120
  470MOL0     H61989   2.780   9.830   6.081  2.1161  0.6587  0.8284
  470MOL0     H61990   2.755   9.658   6.133 -0.0968  0.2113  0.1423
  470MOL0     H61991   2.968   9.608   6.149  1.2620 -0.0470  0.9325
  470MOL0     H61992   2.953   9.773   6.234 -3.2250  1.6905 -0.7618
  470MOL0     H61993   3.175   9.598   5.983  3.3068 -0.3819 -1.1465
  470MOL0     H61994   3.391   9.859   5.813 -1.9822 -0.8566 -0.7144
  470MOL0     H61995   3.376   9.682   5.826  0.9278  0.8159 -2.0240
  470MOL0     H61996   3.489   9.656   6.033 -1.0950  0.9287  0.6039
  470MOL0     H61997   3.466   9.822   6.066 -2.3222  1.2443 -1.1504
  470MOL0     H61998   3.648   9.700   5.868  0.4611  0.7298 -0.8682
  470MOL0     H61999   3.626   9.884   5.877 -1.2293  0.4164  0.1848
  470MOL0     H62000   3.767   9.730   6.086  1.6760 -2.9579 -6.1836
  470MOL0     H62001   3.670   9.880   6.116  0.4882 -2.4869  2.9081
  470MOL0     H62002   3.843   9.898   6.244 -1.0754  0.3172 -1.4333
  470MOL0     H62003   3.964  10.068   6.372 -0.6497 -0.3135  0.4324
  470MOL0     H62004   4.254  10.578   6.172 -0.5912  0.3510  0.0811
  470MOL0     H62005   4.355  10.739   6.330  0.6395 -0.8595 -0.0672
  470MOL0     H62006   4.199  11.035   6.563 -0.1038 -1.4064  0.0596
  470MOL0     H62007   4.147  10.945   6.421 -0.4698 -0.2337  1.8295
  470MOL0     H62008   4.355  11.127   6.415  1.1612 -0.1636 -0.5016
  470MOL0     H62009   4.367  10.967   6.330  4.6832 -2.7354  1.4497
  470MOL0     H62010   4.568  11.007   6.406  0.6567  1.7183  0.9127
  470MOL0     H62011   4.489  10.875   6.493 -2.5412  0.6349  1.3565
  470MOL0     H62012   4.422  11.062   6.674 -0.5989  0.4420 -1.0876
  470MOL0     H62013   4.574  10.968   6.672 -2.2958  0.5048  3.8236
  470MOL0     H62014   4.541  11.248   6.661  2.0569  1.3635 -0.2850
  470MOL0     H62015   4.611  11.199   6.495 -5.1006 -0.4560 -1.6911
  470MOL0     H62016   4.803  11.101   6.630  1.4345 -0.0538  1.7750
  470MOL0     H62017   4.722  11.141   6.775 -1.0486 -0.6486 -0.0694
  470MOL0     H62018   4.907  11.315   6.648  0.2455  0.3236 -0.7397
  470MOL0     H62019   4.761  11.360   6.554  1.5163  1.4316  0.9263
  470MOL0     H62020   4.834  11.378   6.845  0.7529 -1.2221 -0.0676
  470MOL0     H62021   4.672  11.429   6.781 -0.2666 -1.3810 -0.9498
  470MOL0     H62022   4.045  10.696   6.619  0.3212  0.4332  0.7929
  470MOL0     H62023   3.937  10.519   6.473 -1.7503  2.6372 -1.2444
  470MOL0     H62024   4.082  10.252   5.995 -1.0453 -2.0659 -1.6099
  470MOL0     H62025   3.972  10.070   5.887 -2.4777 -3.2072  0.4631
  470MOL0     H62026   2.542   9.678   5.445 -1.9752 -1.2625 -0.5809
  470MOL0     H62027   2.532   9.834   5.228 -1.3024  1.1701  0.3428
  470MOL0     H62028   2.437  10.115   4.990 -0.2783  0.5775  0.8126
  470MOL0     H62029   2.480  10.262   4.817 -0.6439 -0.1905  3.2262
  470MOL0     H62030   2.348  10.488   4.664  1.9426  1.7440 -0.7619
  470MOL0     H62031   2.353  10.480   4.490  2.6679  0.2970 -0.9897
  470MOL0     H62032   2.584  10.511   4.623 -2.7153  0.4642  1.1962
  470MOL0     H62033   2.583  10.339   4.605 -0.6089  0.9799  2.4595
  470MOL0     H62034   2.542  10.535   4.371 -2.8419 -1.9882  1.1045
  470MOL0     H62035   2.527  10.358   4.345 -2.4480  0.3390 -1.1131
  470MOL0     H62036   2.765  10.439   4.484 -2.6314 -2.0157  1.8467
  470MOL0     H62037   2.744  10.312   4.359 -2.4236 -1.0601  1.3636
  470MOL0     H62038   2.822  10.634   4.093  0.2355 -1.1073 -0.9321
  470MOL0     H62039   2.098  10.172   4.635 -1.1182  3.0570  0.6768
  470MOL0     H62040   2.047  10.045   4.838 -0.3730  0.4514  1.0695
  471MOL0     O62041   0.265   0.657   9.174 -0.3320 -0.6559 -0.2548
  471MOL0     C62042   0.375   0.694   9.214 -0.2653  0.4359  0.7647
  471MOL0     O62043   0.496   0.633   9.191 -0.3773  0.2877  0.3407
  471MOL0     C62044   0.514   0.507   9.147  1.3100  0.1334  0.7835
  471MOL0     C62045   0.647   0.465   9.130 -0.0231  0.9014  0.1611
  471MOL0     C62046   0.674   0.329   9.113 -1.5484 -0.4235  0.5601
  471MOL0     C62047   0.578   0.237   9.088  0.4594 -0.8675  0.2637
  471MOL0     O62048   0.609   0.109   9.060 -0.1338  0.7626  0.4938
  471MOL0     C62049   0.529   0.050   8.961  0.5907  0.5735  0.9754
  471MOL0     C62050   0.603  -0.065   8.899 -0.1415  0.1760 -0.6081
  471MOL0     C62051   0.508  -0.148   8.806 -0.9851 -0.4521 -0.7826
  471MOL0     C62052   0.366  -0.188   8.851  0.8040  0.5321  0.0053
  471MOL0     C62053   0.282  -0.282   8.769 -0.5855 -0.2812  0.1318
  471MOL0     C62054   0.274  -0.249   8.613  0.7954 -0.5568 -0.3382
  471MOL0     C62055   0.247  -0.102   8.567  0.2046 -0.1962 -1.3682
  471MOL0     C62056   0.115  -0.042   8.627 -0.2940 -0.5628 -0.4548
  471MOL0     N62057   0.141   0.093   8.672  0.1218 -0.4883 -0.0875
  471MOL0     C62058   0.089   0.202   8.594  0.7794  0.5926  0.9665
  471MOL0     C62059   0.142   0.314   8.656 -0.2682 -0.3502 -0.9539
  471MOL0     C62060   0.137   0.467   8.615 -0.6071  0.5000 -0.1256
  471MOL0     C62061   0.127   0.567   8.731  1.0193 -0.4833 -0.0741
  471MOL0     C62062  -0.014   0.579   8.794  0.9993 -0.0122  0.1076
  471MOL0     C62063  -0.063   0.448   8.858  0.7951  0.1693 -1.1733
  471MOL0     O62064  -0.190   0.474   8.938  0.3794 -0.0165  0.2319
  471MOL0     C62065  -0.193   0.565   9.034  0.6837  0.5562 -0.2198
  471MOL0     C62066  -0.093   0.590   9.131 -0.9010  0.4232 -0.2897
  471MOL0     C62067  -0.109   0.693   9.225  0.9470 -0.4560  0.2354
  471MOL0     C62068  -0.214   0.781   9.213 -1.3529 -0.7594 -0.6038
  471MOL0     C62069  -0.227   0.896   9.313 -0.0780 -0.4278  0.1007
  471MOL0     O62070  -0.351   0.955   9.317 -0.2537  0.0190  0.2788
  471MOL0     C62071  -0.397   1.044   9.411 -0.3943 -0.1498  0.2447
  471MOL0     C62072  -0.321   1.084   9.521 -0.0590  0.5819  0.7910
  471MOL0     C62073  -0.365   1.189   9.607  1.6216  0.7415 -0.5727
  471MOL0     C62074  -0.499   1.241   9.587 -0.4333 -0.7453 -0.1483
  471MOL0     O62075  -0.550   1.333   9.676 -0.4417 -0.5715 -0.0367
  471MOL0     C62076  -0.492   1.358   9.808 -0.2248  1.2670  0.1580
  471MOL0     C62077  -0.570   1.455   9.897 -0.8607  0.5488 -0.0797
  471MOL0     C62078  -0.702   1.407   9.950 -0.6148  0.2205 -0.3934
  471MOL0     C62079  -0.772   1.528  10.008 -0.3291 -0.5109  0.6987
  471MOL0     C62080  -0.921   1.504  10.035 -0.8035  0.5052 -0.1837
  471MOL0     C62081  -0.937   1.412  10.159  0.5310 -0.9235 -0.6114
  471MOL0     C62082  -1.083   1.395  10.213 -0.4811  0.1621  0.7481
  471MOL0     C62083  -1.165   1.335  10.098  0.3339 -0.0869 -0.2396
  471MOL0    Cl62084  -1.108   1.171  10.050 -0.1465 -0.1419 -0.4658
  471MOL0     C62085  -0.575   1.189   9.487  0.7155  0.3513 -0.4297
  471MOL0     C62086  -0.534   1.085   9.397  0.9375  0.2925 -0.8927
  471MOL0     O62087  -0.122   0.926   9.373 -0.1278 -0.2248 -0.2940
  471MOL0     C62088  -0.307   0.765   9.109 -0.1655  0.0730 -0.2063
  471MOL0     C62089  -0.296   0.656   9.024 -0.5393  1.2765 -0.2143
  471MOL0     N62090   0.230   0.273   8.755 -0.3612 -0.2210  0.0804
  471MOL0     N62091   0.216   0.145   8.763 -0.1015  0.8072 -0.7232
  471MOL0     C62092   0.441   0.274   9.108 -0.9832  0.2196  0.2199
  471MOL0     C62093   0.415   0.406   9.139 -0.6612 -0.3227  0.3477
  471MOL0     C62094   0.386   0.831   9.285 -0.2981  0.6262 -0.3556
  471MOL0     C62095   0.276   0.912   9.307  0.3326 -0.8962 -1.2597
  471MOL0     C62096   0.289   1.028   9.394 -0.7817  0.5879  0.2037
  471MOL0     C62097   0.407   1.061   9.460 -0.8472 -0.6626  0.1693
  471MOL0     O62098   0.415   1.159   9.552  0.2292 -0.5277 -0.2381
  471MOL0     C62099   0.447   1.286   9.491 -0.3149 -0.8920  1.1745
  471MOL0     C62100   0.391   1.411   9.570  0.5041  0.9946  0.0826
  471MOL0     C62101   0.417   1.408   9.719 -0.7536  0.3782  0.4209
  471MOL0     C62102   0.558   1.385   9.766 -0.3821  0.0313  0.2495
  471MOL0     C62103   0.647   1.500   9.724 -0.9071  0.4696  0.6768
  471MOL0     C62104   0.719   1.601   9.700  0.0120  1.2249 -0.0071
  471MOL0     C62105   0.517   0.972   9.443  0.0834  0.4012  0.9084
  471MOL0     C62106   0.506   0.860   9.356 -0.0095  0.0261 -0.0495
  471MOL0     H62107   0.725   0.541   9.139  2.0079 -1.1421  0.7334
  471MOL0     H62108   0.775   0.297   9.089 -1.0221  1.3521  0.2299
  471MOL0     H62109   0.502   0.114   8.876  0.7573 -2.3112 -1.4372
  471MOL0     H62110   0.431   0.028   9.005  1.0836  1.4308  2.5608
  471MOL0     H62111   0.640  -0.141   8.969 -1.3345  0.1782  0.0528
  471MOL0     H62112   0.692  -0.026   8.850  0.5099 -0.3983  0.0801
  471MOL0     H62113   0.562  -0.233   8.762  1.6548  1.0895 -0.7451
  471MOL0     H62114   0.501  -0.084   8.717  0.1218 -3.4078 -3.1565
  471MOL0     H62115   0.362  -0.213   8.958 -3.6858  2.7124  0.5814
  471MOL0     H62116   0.304  -0.098   8.857 -3.3108 -2.1174  2.6305
  471MOL0     H62117   0.182  -0.281   8.813 -0.4757 -3.5178  0.6800
  471MOL0     H62118   0.333  -0.377   8.788  2.3309  0.9618 -0.8675
  471MOL0     H62119   0.209  -0.312   8.552  1.2957 -1.3859 -0.0196
  471MOL0     H62120   0.378  -0.265   8.581  0.1016 -2.5778 -1.7724
  471MOL0     H62121   0.335  -0.044   8.596  0.4822 -0.9258 -0.7280
  471MOL0     H62122   0.234  -0.104   8.458  1.9052  2.2435 -1.6856
  471MOL0     H62123   0.069  -0.104   8.705 -1.6594 -0.8331 -1.4460
  471MOL0     H62124   0.053  -0.037   8.537  1.5137 -1.4834 -1.8327
  471MOL0     H62125   0.016   0.209   8.515 -1.5921 -3.4619  2.5060
  471MOL0     H62126   0.051   0.479   8.549  0.1558  0.0353 -1.2362
  471MOL0     H62127   0.230   0.493   8.564 -0.3975  1.5620  0.7556
  471MOL0     H62128   0.167   0.667   8.708 -0.3788  0.2602  0.5919
  471MOL0     H62129   0.185   0.534   8.817 -1.6571  2.1869  3.0239
  471MOL0     H62130  -0.013   0.664   8.863 -2.2006  2.9067 -3.0122
  471MOL0     H62131  -0.100   0.605   8.731 -0.8586 -0.6603  2.2627
  471MOL0     H62132   0.007   0.405   8.930 -1.7404  0.0929  1.3952
  471MOL0     H62133  -0.092   0.371   8.787 -0.3106 -0.2939 -0.2433
  471MOL0     H62134   0.001   0.536   9.136 -1.9179 -1.3294  1.5248
  471MOL0     H62135  -0.028   0.706   9.296  0.8360 -4.6530  1.3860
  471MOL0     H62136  -0.221   1.047   9.542 -0.1714 -0.2646 -0.0681
  471MOL0     H62137  -0.306   1.207   9.696  0.5994 -2.8440  0.9935
  471MOL0     H62138  -0.390   1.394   9.791 -0.5811  2.7553  1.0133
  471MOL0     H62139  -0.493   1.264   9.863 -0.5572  0.9321 -0.4058
  471MOL0     H62140  -0.577   1.552   9.848  0.2027 -0.1213 -1.6259
  471MOL0     H62141  -0.504   1.471   9.982 -0.0787  1.0385 -0.7732
  471MOL0     H62142  -0.693   1.335  10.032 -3.4959  0.0370 -0.1342
  471MOL0     H62143  -0.756   1.358   9.867 -2.7096 -3.1030  2.6148
  471MOL0     H62144  -0.724   1.565  10.099  2.2202 -3.4862  0.7527
  471MOL0     H62145  -0.772   1.611   9.937 -2.0471 -0.3445  0.8524
  471MOL0     H62146  -0.972   1.462   9.948 -2.6113 -0.3744  1.2296
  471MOL0     H62147  -0.974   1.594  10.068 -0.2112  1.3895 -1.5803
  471MOL0     H62148  -0.888   1.460  10.244 -0.7875 -1.4427  0.4852
  471MOL0     H62149  -0.887   1.316  10.146  2.4932 -0.1618  0.8325
  471MOL0     H62150  -1.087   1.325  10.297  0.3553  0.7250  1.2742
  471MOL0     H62151  -1.122   1.493  10.243 -2.2009  1.3257 -4.2552
  471MOL0     H62152  -1.164   1.384  10.000  2.2894  2.0697  0.7595
  471MOL0     H62153  -1.268   1.340  10.135  0.2832  0.5452 -0.4413
  471MOL0     H62154  -0.677   1.221   9.470 -0.1354 -0.9342  1.7757
  471MOL0     H62155  -0.589   1.046   9.312 -1.0180  1.8976 -0.4419
  471MOL0     H62156  -0.391   0.829   9.085 -1.0725 -1.5097 -1.4304
  471MOL0     H62157  -0.370   0.630   8.950 -0.7789  0.0732  0.4298
  471MOL0     H62158   0.354   0.211   9.091  0.6506 -1.6125 -1.9685
  471MOL0     H62159   0.311   0.427   9.160 -1.4836 -0.6032 -2.8675
  471MOL0     H62160   0.182   0.873   9.269  0.8051 -2.8347 -0.5440
  471MOL0     H62161   0.205   1.089   9.424 -3.2274 -3.4748  2.5309
  471MOL0     H62162   0.406   1.291   9.389  0.5808  0.1367  0.8495
  471MOL0     H62163   0.553   1.303   9.474 -0.2359 -0.7240  1.8195
  471MOL0     H62164   0.442   1.494   9.520 -0.9831  0.1537 -3.0662
  471MOL0     H62165   0.287   1.432   9.545  0.9628  3.6537  0.1929
  471MOL0     H62166   0.351   1.335   9.767  1.4866 -0.8080  1.8446
  471MOL0     H62167   0.402   1.508   9.759  1.0537  0.4765  0.9389
  471MOL0     H62168   0.558   1.375   9.875  0.8540  0.5899  0.3199
  471MOL0     H62169   0.591   1.288   9.726 -2.2364 -0.7804  0.5735
  471MOL0     H62170   0.780   1.688   9.688 -0.6589  1.5814 -0.8935
  471MOL0     H62171   0.612   0.999   9.488  2.6165  0.0037 -3.5840
  471MOL0     H62172   0.588   0.791   9.340  0.5686 -0.0294  2.7543
  472MOL0     O62173   9.230   8.122   8.948 -0.2569  0.2921  0.4182
  472MOL0     C62174   9.294   8.059   8.864  0.0041 -1.0701 -0.2644
  472MOL0     O62175   9.360   7.942   8.878  0.0777 -0.9070 -0.5549
  472MOL0     C62176   9.348   7.879   9.003  0.7036 -0.8137 -0.1482
  472MOL0     C62177   9.294   7.750   9.007 -0.4743  0.1005 -0.8095
  472MOL0     C62178   9.284   7.674   9.133 -0.2633 -0.3851 -0.4483
  472MOL0     C62179   9.316   7.741   9.252  0.2169 -0.5202  0.0043
  472MOL0     O62180   9.283   7.671   9.369  0.4871 -0.2780  0.5895
  472MOL0     C62181   9.346   7.716   9.489  0.1889  0.0138  0.1982
  472MOL0     C62182   9.370   7.603   9.581  0.8488  0.1053  0.1941
  472MOL0     C62183   9.242   7.548   9.631  0.3762  0.6690  0.0811
  472MOL0     C62184   9.262   7.413   9.710 -0.2318  0.3221 -0.3428
  472MOL0     C62185   9.140   7.359   9.790 -0.2321  0.8807 -0.0689
  472MOL0     C62186   9.016   7.342   9.700  0.1705  0.2634  0.0254
  472MOL0     C62187   8.890   7.289   9.778 -0.0097 -0.5448 -0.2052
  472MOL0     C62188   8.832   7.364   9.900 -0.4009 -0.4583 -0.5882
  472MOL0     N62189   8.702   7.323   9.942 -0.5447  0.6518 -0.7479
  472MOL0     C62190   8.694   7.285  10.077  0.3205 -0.4393  0.6922
  472MOL0     C62191   8.576   7.227  10.075  0.8801 -0.7276  0.2248
  472MOL0     C62192   8.520   7.154  10.195 -1.5663  0.0889  0.6918
  472MOL0     C62193   8.369   7.171  10.233 -0.0076  0.0997  0.7950
  472MOL0     C62194   8.274   7.114  10.130 -0.4849 -0.2038  0.7089
  472MOL0     C62195   8.137   7.123  10.175  0.7968 -0.2430 -0.0978
  472MOL0     O62196   8.118   7.078  10.305  0.2839 -0.1142  0.1694
  472MOL0     C62197   8.107   6.943  10.326 -0.4916 -0.3567 -0.3393
  472MOL0     C62198   8.093   6.904  10.453  0.2065 -0.2600 -0.7632
  472MOL0     C62199   8.107   6.773  10.492  0.0301 -0.2882  0.2886
  472MOL0     C62200   8.117   6.676  10.390 -0.1520  0.5319 -0.3380
  472MOL0     C62201   8.102   6.535  10.427 -0.3981 -0.9068 -0.0345
  472MOL0     O62202   8.106   6.519  10.565 -0.2652 -0.0550 -0.4023
  472MOL0     C62203   8.059   6.408  10.632 -0.5684  0.1228 -0.0310
  472MOL0     C62204   8.029   6.280  10.577  0.1446  0.2653 -0.3048
  472MOL0     C62205   7.995   6.177  10.661 -0.1979  0.7428 -0.0569
  472MOL0     C62206   7.989   6.186  10.799 -0.1346  0.2429  0.1968
  472MOL0     O62207   7.946   6.092  10.886 -0.1274 -0.0485 -0.6043
  472MOL0     C62208   7.910   5.959  10.843  0.0416  0.7103 -0.5462
  472MOL0     C62209   7.847   5.875  10.957 -0.2371 -0.5404 -1.5328
  472MOL0     C62210   7.802   5.737  10.911  0.3725 -0.6999  0.4386
  472MOL0     C62211   7.900   5.626  10.896  0.4253 -0.2126  0.0277
  472MOL0     C62212   7.840   5.486  10.896  0.8543  0.8589  0.7545
  472MOL0     C62213   7.943   5.370  10.884 -0.3986  0.5537  1.4947
  472MOL0     C62214   7.963   5.322  10.738 -0.2868 -0.3609  0.1845
  472MOL0     C62215   8.042   5.426  10.657 -0.2651 -0.1437 -0.2935
  472MOL0    Cl62216   8.144   5.347  10.528  0.2806  0.2846 -0.2593
  472MOL0     C62217   8.026   6.307  10.855 -0.3123  0.0956  0.4000
  472MOL0     C62218   8.068   6.417  10.779  0.6128  0.6452  0.2499
  472MOL0     O62219   8.096   6.448  10.339 -0.8709  0.5550 -0.1582
  472MOL0     C62220   8.115   6.710  10.258  0.5221  0.3226 -0.5089
  472MOL0     C62221   8.118   6.842  10.227 -0.2480 -0.1292  0.1175
  472MOL0     N62222   8.517   7.208   9.941 -0.8846 -0.1472 -0.7134
  472MOL0     N62223   8.609   7.264   9.866  0.1361 -0.4973 -0.2135
  472MOL0     C62224   9.355   7.870   9.248 -0.7866 -0.7941 -0.1416
  472MOL0     C62225   9.387   7.936   9.123  0.2493  0.2477 -0.7832
  472MOL0     C62226   9.290   8.134   8.735  0.7446  0.1114  0.9148
  472MOL0     C62227   9.403   8.172   8.659  0.5060  0.4364 -0.3415
  472MOL0     C62228   9.398   8.245   8.546 -0.3483  0.7137 -0.5259
  472MOL0     C62229   9.280   8.287   8.495 -0.0818  0.1848  0.9432
  472MOL0     O62230   9.274   8.357   8.374  0.5826  0.0524 -1.2222
  472MOL0     C62231   9.360   8.463   8.341 -0.1860  0.8553  0.2113
  472MOL0     C62232   9.323   8.600   8.398  0.9387  0.3113  0.1439
  472MOL0     C62233   9.174   8.641   8.352 -0.4648  0.4649 -0.6327
  472MOL0     C62234   9.139   8.780   8.370 -0.6182 -0.1945 -0.0043
  472MOL0     C62235   8.991   8.804   8.372 -0.5622  0.4407 -0.0682
  472MOL0     C62236   8.874   8.832   8.385 -0.2678 -0.0854 -0.6077
  472MOL0     C62237   9.163   8.239   8.561 -0.4961  0.3870  0.1390
  472MOL0     C62238   9.168   8.160   8.670  0.5237 -0.0733 -0.7137
  472MOL0     H62239   9.262   7.698   8.917  1.8392  1.8018 -2.7521
  472MOL0     H62240   9.257   7.569   9.137  1.4051 -0.9646 -2.5813
  472MOL0     H62241   9.281   7.792   9.534 -0.2860 -1.1250  1.5254
  472MOL0     H62242   9.436   7.774   9.469 -1.2250  2.0569 -0.5632
  472MOL0     H62243   9.417   7.645   9.670 -0.6730  0.2768  0.9636
  472MOL0     H62244   9.431   7.524   9.538 -1.7444 -2.3466  0.7218
  472MOL0     H62245   9.179   7.524   9.544  0.8158  0.3512 -0.1521
  472MOL0     H62246   9.193   7.625   9.692  0.3270  1.4181 -0.8719
  472MOL0     H62247   9.289   7.332   9.641  1.2708 -0.9748  1.6477
  472MOL0     H62248   9.335   7.435   9.788 -0.5722  2.4498 -0.5489
  472MOL0     H62249   9.113   7.423   9.874 -2.2028 -0.0861  0.0891
  472MOL0     H62250   9.162   7.256   9.821  2.3365  0.5707 -2.4637
  472MOL0     H62251   9.045   7.267   9.625  4.4099 -0.0495  1.7223
  472MOL0     H62252   8.994   7.437   9.651  2.8592  1.4638  0.9858
  472MOL0     H62253   8.808   7.277   9.706 -0.7736 -1.7757  0.8293
  472MOL0     H62254   8.899   7.186   9.814 -0.6291 -1.2271 -1.8653
  472MOL0     H62255   8.840   7.470   9.872  0.5889 -0.4599 -0.3662
  472MOL0     H62256   8.911   7.352   9.975 -1.3226 -1.4087  0.2627
  472MOL0     H62257   8.757   7.315  10.161 -1.1370  0.1637  1.6017
  472MOL0     H62258   8.575   7.183  10.285 -0.2457 -1.7208  0.5429
  472MOL0     H62259   8.546   7.054  10.159 -1.0104  1.4106 -3.1114
  472MOL0     H62260   8.365   7.280  10.234  0.7760  0.1746 -0.5046
  472MOL0     H62261   8.350   7.128  10.331 -0.8144 -1.9105 -0.1784
  472MOL0     H62262   8.275   7.176  10.040 -0.2251  0.9398  1.4744
  472MOL0     H62263   8.301   7.011  10.106 -1.9345  0.1422 -3.1523
  472MOL0     H62264   8.074   7.064  10.108  1.5406 -1.5542  0.3108
  472MOL0     H62265   8.105   7.227  10.183  0.6342 -0.2066 -1.0870
  472MOL0     H62266   8.094   6.991  10.519  1.1984 -0.4559 -0.5074
  472MOL0     H62267   8.111   6.762  10.600  2.7051  1.2176  0.4533
  472MOL0     H62268   8.047   6.255  10.473  0.0239  0.8472 -0.4693
  472MOL0     H62269   7.965   6.082  10.618  0.1237 -0.0922  1.4897
  472MOL0     H62270   7.996   5.908  10.800  0.4827  0.5585  0.4768
  472MOL0     H62271   7.824   5.964  10.775 -0.1595  0.7310 -0.2910
  472MOL0     H62272   7.764   5.934  10.997  0.3019 -0.7181 -0.0849
  472MOL0     H62273   7.928   5.866  11.030 -3.0146  1.3142  2.0863
  472MOL0     H62274   7.746   5.753  10.818  0.1361 -3.8720 -0.0774
  472MOL0     H62275   7.736   5.700  10.990  0.9586  1.3287  1.9509
  472MOL0     H62276   7.961   5.653  10.809  0.8944  2.9250  1.2063
  472MOL0     H62277   7.962   5.626  10.987 -0.4302  1.3079  0.6457
  472MOL0     H62278   7.761   5.481  10.821  1.1165 -0.0727  0.5288
  472MOL0     H62279   7.786   5.458  10.987  1.4158 -1.5213  0.4268
  472MOL0     H62280   7.914   5.279  10.938 -0.6667 -0.2137  0.1232
  472MOL0     H62281   8.029   5.403  10.942 -0.1249 -3.1038  3.4353
  472MOL0     H62282   8.015   5.226  10.751 -1.5086 -1.1376 -0.5108
  472MOL0     H62283   7.869   5.306  10.686 -0.4765 -0.2565  0.4957
  472MOL0     H62284   8.097   5.482  10.733 -1.7030 -0.2107  0.8570
  472MOL0     H62285   7.977   5.501  10.611  1.4271  1.3591 -0.3228
  472MOL0     H62286   8.026   6.301  10.963 -0.8016 -1.2220  0.3438
  472MOL0     H62287   8.086   6.508  10.835 -0.3674  0.0936  1.5123
  472MOL0     H62288   8.135   6.631  10.186  1.3978 -0.5210  0.6195
  472MOL0     H62289   8.131   6.858  10.120  3.5292 -0.3464  0.3868
  472MOL0     H62290   9.365   7.932   9.336  0.1557  1.0779 -1.4905
  472MOL0     H62291   9.405   8.043   9.127 -6.3054  1.7657  2.2467
  472MOL0     H62292   9.502   8.141   8.692 -0.0596  0.9072  1.9816
  472MOL0     H62293   9.491   8.271   8.497  0.9499 -2.1701  0.1780
  472MOL0     H62294   9.360   8.470   8.232  0.5412  1.2164  0.2265
  472MOL0     H62295   9.465   8.448   8.368  0.2070  0.9809 -1.1731
  472MOL0     H62296   9.333   8.609   8.506  1.2183  1.5430  0.0275
  472MOL0     H62297   9.386   8.677   8.352 -1.4168  1.4670 -1.3893
  472MOL0     H62298   9.103   8.580   8.408  2.0807 -0.8083  1.4118
  472MOL0     H62299   9.167   8.623   8.244  0.5212  1.4521 -0.8876
  472MOL0     H62300   9.180   8.818   8.464  1.2531 -1.1510 -0.3846
  472MOL0     H62301   9.181   8.843   8.292  3.7396 -1.2700  1.1612
  472MOL0     H62302   8.773   8.858   8.406 -0.1067 -0.4681  0.7639
  472MOL0     H62303   9.061   8.270   8.541 -1.0495 -1.1614  0.4768
  472MOL0     H62304   9.078   8.138   8.727  1.6960  2.3205  2.3160
  473MOL0     O62305   1.039   0.654   9.390 -0.7201 -0.0264 -0.5117
  473MOL0     C62306   1.112   0.657   9.291 -0.3335  0.3610 -0.9361
  473MOL0     O62307   1.079   0.715   9.175 -0.6947  0.0179  0.2122
  473MOL0     C62308   0.970   0.802   9.183 -0.2030 -0.0278 -0.2097
  473MOL0     C62309   0.898   0.819   9.062 -0.7473 -0.6572 -0.0477
  473MOL0     C62310   0.798   0.907   9.050  0.0416 -0.0841 -0.2092
  473MOL0     C62311   0.765   0.990   9.156  0.8591 -0.3732  0.6904
  473MOL0     O62312   0.662   1.088   9.150 -0.3810 -0.4712 -0.2247
  473MOL0     C62313   0.629   1.145   9.022  0.1775 -0.0573  1.1417
  473MOL0     C62314   0.634   1.301   9.020  0.0454 -0.0112  0.3700
  473MOL0     C62315   0.772   1.363   8.989 -0.1061  0.2411  0.4185
  473MOL0     C62316   0.751   1.509   8.950 -0.7654  0.4171 -0.0379
  473MOL0     C62317   0.882   1.589   8.956 -0.0250  0.1096  0.0363
  473MOL0     C62318   0.847   1.736   8.924 -0.9103  0.2489 -0.3314
  473MOL0     C62319   0.968   1.813   8.862 -0.3424  0.4736  0.4364
  473MOL0     C62320   1.046   1.873   8.976  0.9310 -0.3200  0.2075
  473MOL0     N62321   1.188   1.864   8.970 -0.5591 -0.9034  0.4090
  473MOL0     C62322   1.264   1.892   8.855  0.0747  0.4376  1.2748
  473MOL0     C62323   1.383   1.897   8.911 -1.1514  0.3256  0.8310
  473MOL0     C62324   1.505   1.933   8.837  0.4142  0.5239 -0.4134
  473MOL0     C62325   1.526   2.089   8.833  0.0937 -1.2809 -0.0821
  473MOL0     C62326   1.457   2.144   8.708 -0.7618 -0.2374  0.3919
  473MOL0     C62327   1.554   2.162   8.585  0.2159  0.6142 -0.0099
  473MOL0     O62328   1.620   2.037   8.571  0.2017  0.0797  0.0818
  473MOL0     C62329   1.670   1.989   8.447 -0.5169 -0.8761  0.1972
  473MOL0     C62330   1.668   2.050   8.329 -0.3237  0.3247 -0.7670
  473MOL0     C62331   1.713   1.985   8.217  0.1508  0.1478 -0.9384
  473MOL0     C62332   1.777   1.857   8.229 -0.7520  0.5762  0.2825
  473MOL0     C62333   1.834   1.791   8.117 -0.1352 -0.8365 -0.8893
  473MOL0     O62334   1.957   1.727   8.150 -0.3671  0.6776  0.8016
  473MOL0     C62335   2.043   1.720   8.034  0.2858  0.0951  0.2214
  473MOL0     C62336   2.127   1.828   7.986 -1.2108  1.3054 -0.5755
  473MOL0     C62337   2.200   1.818   7.865 -0.2597  0.0773 -0.0830
  473MOL0     C62338   2.192   1.703   7.783 -1.3788  0.3722 -0.8177
  473MOL0     O62339   2.258   1.707   7.659 -0.3626  0.2242 -0.2424
  473MOL0     C62340   2.224   1.611   7.554 -0.3529  0.3217  0.7388
  473MOL0     C62341   2.314   1.651   7.436  0.8428 -0.6511  0.4733
  473MOL0     C62342   2.278   1.579   7.317  0.2007  0.8025  0.6462
  473MOL0     C62343   2.362   1.623   7.187  0.2293 -0.5444  0.2141
  473MOL0     C62344   2.296   1.720   7.097 -0.5427  0.3397  0.7427
  473MOL0     C62345   2.404   1.782   7.006  0.2131  0.3315 -0.7250
  473MOL0     C62346   2.473   1.681   6.906 -0.1083 -0.1638 -0.4164
  473MOL0     C62347   2.560   1.762   6.815 -0.2976 -0.3515  1.0199
  473MOL0    Cl62348   2.564   1.683   6.660 -0.1234  0.2089 -0.4355
  473MOL0     C62349   2.109   1.598   7.828 -0.4655  1.1463  0.3015
  473MOL0     C62350   2.028   1.609   7.949  0.2506  0.3301  0.1840
  473MOL0     O62351   1.783   1.813   8.005 -0.1770  0.1133  1.0344
  473MOL0     C62352   1.782   1.792   8.350 -0.4460  0.5036 -0.4540
  473MOL0     C62353   1.733   1.862   8.459  0.2268 -0.4401 -0.0344
  473MOL0     N62354   1.388   1.887   9.041 -0.1673  0.0468 -0.3426
  473MOL0     N62355   1.274   1.863   9.084 -0.1344 -0.2802 -0.5472
  473MOL0     C62356   0.840   0.975   9.273  1.0581  0.8038  0.2628
  473MOL0     C62357   0.942   0.887   9.296 -0.3922  0.1794 -0.0296
  473MOL0     C62358   1.238   0.602   9.299  0.6914  0.5928  0.4472
  473MOL0     C62359   1.269   0.494   9.376  0.1966 -0.1173 -0.0679
  473MOL0     C62360   1.402   0.441   9.382  1.0743 -0.1193  0.0100
  473MOL0     C62361   1.500   0.490   9.300 -0.5391  0.7728  0.2491
  473MOL0     O62362   1.630   0.450   9.295  0.3982  0.2450 -0.7783
  473MOL0     C62363   1.676   0.326   9.330  0.3745  0.1995  0.3015
  473MOL0     C62364   1.692   0.261   9.196  0.4571  0.0346  0.0575
  473MOL0     C62365   1.829   0.286   9.122 -0.1221  0.5623  0.6392
  473MOL0     C62366   1.815   0.234   8.976  0.4942 -0.4036  0.1214
  473MOL0     C62367   1.942   0.256   8.912 -0.6254  0.5695  0.2335
  473MOL0     C62368   2.057   0.247   8.871  0.0494 -0.4215 -0.4886
  473MOL0     C62369   1.470   0.605   9.226 -0.1434  0.3646 -0.4619
  473MOL0     C62370   1.337   0.647   9.217  0.4300 -0.2075  0.8036
  473MOL0     H62371   0.942   0.754   8.987  2.1764  1.2401 -0.1426
  473MOL0     H62372   0.742   0.904   8.957 -0.4614  2.4341 -0.0521
  473MOL0     H62373   0.530   1.107   8.992  1.0260  0.0958 -2.3534
  473MOL0     H62374   0.696   1.106   8.945 -3.8388 -2.1466 -1.6663
  473MOL0     H62375   0.594   1.321   9.119 -1.2762 -2.5784  0.4402
  473MOL0     H62376   0.555   1.331   8.950  1.2003 -2.1663 -2.0456
  473MOL0     H62377   0.826   1.319   8.904  0.1374  1.2659  0.0248
  473MOL0     H62378   0.829   1.356   9.082 -0.5480  0.0562  0.6757
  473MOL0     H62379   0.699   1.518   8.854 -1.8947  1.4120  0.6410
  473MOL0     H62380   0.689   1.560   9.024 -3.0733  1.4095 -2.4542
  473MOL0     H62381   0.948   1.534   8.888  0.0433  0.8146 -0.4829
  473MOL0     H62382   0.933   1.582   9.053 -1.7236 -4.3622  0.8396
  473MOL0     H62383   0.799   1.786   9.010 -1.9569 -2.1862  0.5796
  473MOL0     H62384   0.762   1.728   8.855 -1.6341 -2.2358  0.7362
  473MOL0     H62385   1.038   1.749   8.806  0.7550 -0.4441  2.7005
  473MOL0     H62386   0.941   1.892   8.792 -0.8977 -1.4681 -1.6489
  473MOL0     H62387   1.013   1.822   9.067 -2.3437 -0.1758 -0.7456
  473MOL0     H62388   1.007   1.975   8.981 -0.5278 -0.7759 -0.9555
  473MOL0     H62389   1.239   1.900   8.749  0.4588  1.2677  1.2408
  473MOL0     H62390   1.495   1.879   8.742 -2.2542 -4.6177  2.3371
  473MOL0     H62391   1.587   1.879   8.884  0.7865  0.5327 -1.0483
  473MOL0     H62392   1.632   2.112   8.820  0.0837 -0.2687  1.3126
  473MOL0     H62393   1.491   2.130   8.928  4.1367 -1.6004  1.7685
  473MOL0     H62394   1.373   2.079   8.679 -1.2147  0.1814  0.7410
  473MOL0     H62395   1.419   2.240   8.745 -1.2086  0.8056 -2.5725
  473MOL0     H62396   1.628   2.243   8.590  2.0781 -0.9814 -0.4875
  473MOL0     H62397   1.494   2.174   8.494  0.6258 -3.9837 -1.1524
  473MOL0     H62398   1.643   2.156   8.333  1.6724  0.8694 -1.4025
  473MOL0     H62399   1.709   2.026   8.117 -0.7732 -2.5677 -2.0954
  473MOL0     H62400   2.138   1.911   8.055 -0.1244  0.1998  0.6545
  473MOL0     H62401   2.268   1.897   7.835  1.6071 -0.3641  2.5964
  473MOL0     H62402   2.115   1.618   7.540 -0.4865  0.5517  1.8145
  473MOL0     H62403   2.252   1.511   7.586  1.4509 -0.6332 -3.2765
  473MOL0     H62404   2.421   1.632   7.451  0.7839 -1.4514 -0.0391
  473MOL0     H62405   2.309   1.758   7.418  1.3882 -0.9009 -1.2690
  473MOL0     H62406   2.172   1.570   7.294  0.3601  0.5756 -0.0280
  473MOL0     H62407   2.306   1.474   7.328 -0.6541  0.4895 -0.0945
  473MOL0     H62408   2.461   1.660   7.216  0.2192 -0.5530  0.2598
  473MOL0     H62409   2.383   1.533   7.129 -1.9681 -1.6628  1.0510
  473MOL0     H62410   2.238   1.795   7.152 -1.0630  0.0117  0.6470
  473MOL0     H62411   2.227   1.667   7.030 -2.3475 -0.3993  3.0631
  473MOL0     H62412   2.476   1.838   7.066 -1.9561 -1.0716  3.5620
  473MOL0     H62413   2.354   1.862   6.950 -0.9191  0.3525  0.2922
  473MOL0     H62414   2.531   1.604   6.957  2.2491  1.3353 -0.7034
  473MOL0     H62415   2.404   1.626   6.841  1.7337  0.3378 -2.9603
  473MOL0     H62416   2.661   1.769   6.857 -0.4442  3.0925  1.0954
  473MOL0     H62417   2.518   1.860   6.790 -1.3533 -0.2418  2.9603
  473MOL0     H62418   2.083   1.513   7.766 -0.9003  2.2037 -1.0071
  473MOL0     H62419   1.959   1.534   7.984  1.0468 -0.9328 -0.8717
  473MOL0     H62420   1.840   1.702   8.369  0.3302  1.1318  0.1800
  473MOL0     H62421   1.730   1.817   8.558 -1.8038 -1.2751 -0.4092
  473MOL0     H62422   0.813   1.047   9.351  0.8090 -1.6979  2.6516
  473MOL0     H62423   1.001   0.892   9.387  1.0661  2.0937 -0.9948
  473MOL0     H62424   1.197   0.441   9.437  1.8459 -2.0124  0.3447
  473MOL0     H62425   1.407   0.362   9.456 -2.7090 -0.2852  0.2844
  473MOL0     H62426   1.595   0.271   9.379 -0.6883 -1.1686 -2.7511
  473MOL0     H62427   1.761   0.328   9.399 -1.2922  1.2595  2.4655
  473MOL0     H62428   1.692   0.152   9.205  3.6574 -0.2370 -1.6338
  473MOL0     H62429   1.611   0.296   9.130  0.0907  0.1927  0.5872
  473MOL0     H62430   1.907   0.234   9.179 -1.5175  0.2159  2.3184
  473MOL0     H62431   1.859   0.390   9.109 -0.0376  0.5832  0.9807
  473MOL0     H62432   1.773   0.133   8.971 -0.9944  0.1246  1.3632
  473MOL0     H62433   1.750   0.307   8.928  1.0034 -0.7266 -1.1214
  473MOL0     H62434   2.151   0.235   8.821 -1.4153 -2.8829 -2.9331
  473MOL0     H62435   1.552   0.649   9.169  1.0953 -1.5274 -0.2321
  473MOL0     H62436   1.336   0.731   9.148 -0.2955 -2.4874 -2.1646
  474MOL0     O62437  10.854   9.799   1.264  0.1214  0.2617  0.0894
  474MOL0     C62438  10.822   9.672   1.283 -0.2139 -1.3530  0.3719
  474MOL0     O62439  10.905   9.578   1.326  0.0064  0.1594 -0.6671
  474MOL0     C62440  11.030   9.612   1.363  0.0999  0.6734 -0.4642
  474MOL0     C62441  11.130   9.663   1.278  0.3141  0.7810 -0.0057
  474MOL0     C62442  11.254   9.693   1.327 -0.2400  0.2382 -0.7823
  474MOL0     C62443  11.287   9.677   1.468  0.7386 -0.4445  0.0056
  474MOL0     O62444  11.407   9.723   1.517 -0.5525  0.2379  0.1326
  474MOL0     C62445  11.524   9.666   1.450  0.0784  0.2033  0.4546
  474MOL0     C62446  11.638   9.750   1.502 -0.2521  1.5603 -0.9475
  474MOL0     C62447  11.672   9.886   1.431 -0.6570  1.3367  0.2681
  474MOL0     C62448  11.572   9.997   1.450 -0.3351 -0.2710  0.3509
  474MOL0     C62449  11.643  10.130   1.467  0.6689  0.6609  0.4484
  474MOL0     C62450  11.552  10.251   1.481 -0.7077 -0.3873  0.5438
  474MOL0     C62451  11.618  10.372   1.539  0.3488 -0.3259  0.9322
  474MOL0     C62452  11.526  10.496   1.525 -0.4924 -1.4550 -0.5473
  474MOL0     N62453  11.396  10.461   1.586 -0.5896 -0.3612  0.8772
  474MOL0     C62454  11.373  10.426   1.712 -0.1776 -0.6545  0.4013
  474MOL0     C62455  11.245  10.420   1.739 -0.4239  0.6404 -0.8795
  474MOL0     C62456  11.173  10.369   1.857 -0.0318  0.0517 -0.0701
  474MOL0     C62457  11.272  10.319   1.964 -0.3669  0.0428  0.2427
  474MOL0     C62458  11.210  10.251   2.079 -1.1801 -0.4251 -0.3660
  474MOL0     C62459  11.131  10.117   2.052  0.0033  0.8807 -0.1463
  474MOL0     O62460  11.218  10.018   1.995  0.1047 -0.0565  0.0175
  474MOL0     C62461  11.203   9.908   2.072 -0.4132 -0.4537  1.0312
  474MOL0     C62462  11.262   9.909   2.191 -0.9060 -0.1678 -0.4056
  474MOL0     C62463  11.265   9.794   2.278 -0.4923  0.5903 -0.1962
  474MOL0     C62464  11.210   9.675   2.232 -0.0081 -0.4716  0.1061
  474MOL0     C62465  11.227   9.547   2.306  1.0598  1.0005  0.2156
  474MOL0     O62466  11.172   9.438   2.248  0.3513  0.4799 -0.5357
  474MOL0     C62467  11.190   9.307   2.305  0.3612  0.8482  0.3010
  474MOL0     C62468  11.292   9.227   2.260 -0.1855  0.0417  0.0083
  474MOL0     C62469  11.304   9.101   2.307  0.1972 -0.0595 -0.4606
  474MOL0     C62470  11.205   9.042   2.382 -1.0125  0.2915  0.9321
  474MOL0     O62471  11.219   8.915   2.429  0.3353  0.9620  0.2697
  474MOL0     C62472  11.352   8.873   2.456  0.0677  0.0473 -1.0570
  474MOL0     C62473  11.357   8.743   2.542 -1.9928 -0.1411 -0.9780
  474MOL0     C62474  11.353   8.622   2.451  0.1262  0.4704  0.4960
  474MOL0     C62475  11.218   8.611   2.387 -0.1104  0.3105  0.6767
  474MOL0     C62476  11.213   8.478   2.299  0.5561  0.5656  0.2239
  474MOL0     C62477  11.078   8.456   2.237  0.2202 -0.4790  0.6431
  474MOL0     C62478  11.074   8.335   2.149 -0.5733 -0.2241  0.4653
  474MOL0     C62479  10.942   8.347   2.061 -0.6651  0.2716 -0.3496
  474MOL0    Cl62480  10.914   8.201   1.959 -0.0811  0.5909 -0.3257
  474MOL0     C62481  11.094   9.115   2.422  0.3709 -0.2868 -0.0674
  474MOL0     C62482  11.079   9.250   2.372  0.5078 -0.4964  0.0276
  474MOL0     O62483  11.302   9.535   2.403 -0.1223  0.1265 -0.5927
  474MOL0     C62484  11.132   9.682   2.111  0.1762  0.3198 -0.4641
  474MOL0     C62485  11.127   9.801   2.033  0.0245 -0.1334 -0.4482
  474MOL0     N62486  11.183  10.453   1.625  0.5236 -0.1037  0.4139
  474MOL0     N62487  11.273  10.479   1.530 -0.5094  0.2698 -0.4376
  474MOL0     C62488  11.192   9.617   1.551  0.1494 -0.6124 -0.0719
  474MOL0     C62489  11.062   9.583   1.498  0.1678 -0.3376 -0.1350
  474MOL0     C62490  10.671   9.653   1.266  0.3072 -0.0453  0.8961
  474MOL0     C62491  10.573   9.756   1.249  0.7134 -0.2773  1.0306
  474MOL0     C62492  10.440   9.721   1.237 -0.4281 -0.4791  0.7982
  474MOL0     C62493  10.393   9.591   1.248 -0.4372  0.0748  0.0635
  474MOL0     O62494  10.261   9.553   1.247 -0.0259  0.1669 -0.7639
  474MOL0     C62495  10.168   9.646   1.192  0.1942  0.4079 -0.3196
  474MOL0     C62496  10.061   9.569   1.112  0.2727  0.5850  0.2838
  474MOL0     C62497   9.952   9.682   1.056 -0.2922  0.5232  0.3194
  474MOL0     C62498   9.852   9.639   0.940 -0.0746 -0.3131 -1.4165
  474MOL0     C62499   9.740   9.565   0.989  0.6061  0.5946 -0.3880
  474MOL0     C62500   9.642   9.511   1.030 -0.2763 -0.1685 -0.1381
  474MOL0     C62501  10.482   9.490   1.254  0.1492  0.1590 -0.4784
  474MOL0     C62502  10.615   9.523   1.270 -0.4410  0.7109 -0.1677
  474MOL0     H62503  11.128   9.691   1.174  2.0663  0.3503 -0.1787
  474MOL0     H62504  11.329   9.725   1.256  0.4975 -0.2418 -0.2402
  474MOL0     H62505  11.523   9.687   1.343  2.9049  2.0655  0.7180
  474MOL0     H62506  11.529   9.558   1.468  0.6559 -0.2035 -1.8935
  474MOL0     H62507  11.733   9.695   1.507 -0.5040  1.2290  0.8576
  474MOL0     H62508  11.621   9.760   1.609  0.3416 -0.2132 -0.6509
  474MOL0     H62509  11.688   9.874   1.324 -4.9172  1.8105 -0.5937
  474MOL0     H62510  11.767   9.920   1.473 -1.2521  1.0304  1.9407
  474MOL0     H62511  11.503  10.007   1.365  2.0088  0.1101 -1.6123
  474MOL0     H62512  11.509   9.985   1.539  0.9797  0.4623  1.4126
  474MOL0     H62513  11.718  10.142   1.388 -0.3488 -3.2778 -1.3334
  474MOL0     H62514  11.695  10.119   1.563  3.2481  1.1706 -0.8042
  474MOL0     H62515  11.467  10.213   1.540 -1.3619 -1.3489 -0.9565
  474MOL0     H62516  11.512  10.271   1.381 -3.8511  0.9652  1.9287
  474MOL0     H62517  11.650  10.359   1.643  1.4426 -1.5710  0.4781
  474MOL0     H62518  11.714  10.391   1.491  0.0681 -3.4568 -1.1662
  474MOL0     H62519  11.512  10.541   1.426  1.7880  2.2951  0.6442
  474MOL0     H62520  11.567  10.577   1.586 -0.6727 -2.0150  0.3330
  474MOL0     H62521  11.457  10.396   1.775  0.3379 -1.1813 -0.5131
  474MOL0     H62522  11.092  10.301   1.829  1.8789 -3.7045  2.6902
  474MOL0     H62523  11.126  10.459   1.898 -1.3648 -0.0134 -1.3553
  474MOL0     H62524  11.346  10.391   2.004  1.3365 -1.5110  0.0205
  474MOL0     H62525  11.334  10.235   1.932  0.9455  0.7980  0.6630
  474MOL0     H62526  11.290  10.237   2.153 -0.7850  3.1969  0.0726
  474MOL0     H62527  11.140  10.318   2.130 -3.2360 -0.1649 -3.3155
  474MOL0     H62528  11.047  10.129   1.983  1.6157  0.7340 -2.2539
  474MOL0     H62529  11.093  10.085   2.150  1.6364 -1.3302 -0.1627
  474MOL0     H62530  11.312   9.997   2.230  0.1044 -0.9277  0.0656
  474MOL0     H62531  11.311   9.784   2.376 -1.6773  1.1253  0.4294
  474MOL0     H62532  11.373   9.266   2.199  1.8267 -1.5840  1.4931
  474MOL0     H62533  11.398   9.054   2.277 -0.5402 -1.8076 -0.1259
  474MOL0     H62534  11.405   8.952   2.510 -1.8426 -0.2723  1.4606
  474MOL0     H62535  11.401   8.858   2.359  0.4996 -1.6349 -0.6212
  474MOL0     H62536  11.270   8.739   2.608 -1.7447 -0.4190 -0.6615
  474MOL0     H62537  11.443   8.748   2.609 -1.4934  0.7477 -1.6601
  474MOL0     H62538  11.378   8.532   2.508  0.8509  0.6705  0.4999
  474MOL0     H62539  11.438   8.629   2.383  2.1472 -0.0274  2.8085
  474MOL0     H62540  11.143   8.617   2.466  0.9929  0.7491  1.7161
  474MOL0     H62541  11.205   8.688   2.310  1.4268 -0.3597 -0.3061
  474MOL0     H62542  11.239   8.387   2.354 -1.7730 -0.3361 -0.0128
  474MOL0     H62543  11.282   8.494   2.215  0.8701  1.8257  0.7132
  474MOL0     H62544  11.060   8.542   2.171  0.1182 -0.8262  0.2196
  474MOL0     H62545  10.995   8.451   2.308 -0.5232  0.2375 -0.1536
  474MOL0     H62546  11.166   8.329   2.090  0.7691  1.2388  2.2932
  474MOL0     H62547  11.068   8.240   2.201  0.4832 -1.5013 -1.5852
  474MOL0     H62548  10.959   8.424   1.985  2.4302 -0.6459 -0.7143
  474MOL0     H62549  10.854   8.362   2.124 -0.8216 -0.9060 -0.2753
  474MOL0     H62550  11.021   9.062   2.481  0.0000  1.4100  1.0528
  474MOL0     H62551  10.992   9.314   2.380  1.9747  1.7659 -0.8751
  474MOL0     H62552  11.080   9.593   2.078 -1.7979  2.3158 -3.2355
  474MOL0     H62553  11.066   9.801   1.943  0.7931  2.1177 -1.0120
  474MOL0     H62554  11.226   9.601   1.653  2.3473 -0.8974 -0.7993
  474MOL0     H62555  10.986   9.534   1.558 -0.6575  2.2166  1.0264
  474MOL0     H62556  10.600   9.858   1.226 -5.7415  1.5138 -0.4076
  474MOL0     H62557  10.380   9.811   1.222  2.0087  0.8555 -2.0426
  474MOL0     H62558  10.210   9.723   1.126 -0.6974  1.4556  0.3095
  474MOL0     H62559  10.123   9.690   1.281  2.1234  2.2717 -0.1839
  474MOL0     H62560  10.108   9.514   1.031  2.2072 -2.8082  3.4124
  474MOL0     H62561  10.011   9.489   1.168  0.2253 -0.4991 -1.2477
  474MOL0     H62562  10.010   9.758   1.003  0.1467  0.0024  0.0311
  474MOL0     H62563   9.906   9.733   1.140  1.7644  0.6293  1.4285
  474MOL0     H62564   9.811   9.726   0.888 -0.9799 -0.3799 -0.8423
  474MOL0     H62565   9.909   9.575   0.873 -1.5126  0.3721 -3.3784
  474MOL0     H62566   9.545   9.480   1.064 -1.7407  1.5672 -2.4001
  474MOL0     H62567  10.445   9.388   1.246 -0.8372  0.4058  0.5534
  474MOL0     H62568  10.683   9.439   1.258  1.3432  2.4174 -3.4097
  475MOL0     O62569   0.440   8.054   4.949 -0.2438  0.0123 -0.0221
  475MOL0     C62570   0.386   8.158   4.971  1.2009 -0.3220  0.7008
  475MOL0     O62571   0.398   8.234   5.084  0.5326  0.4994 -0.7822
  475MOL0     C62572   0.507   8.232   5.163  0.0371 -1.0900 -0.3658
  475MOL0     C62573   0.502   8.316   5.272 -0.6640  0.6858 -0.5059
  475MOL0     C62574   0.617   8.339   5.344  0.2915 -0.1325  0.0783
  475MOL0     C62575   0.730   8.258   5.331 -0.0475  1.0085 -0.3338
  475MOL0     O62576   0.825   8.277   5.430  0.1913  0.6865  0.3603
  475MOL0     C62577   0.914   8.170   5.455 -1.0782  0.0207 -0.8386
  475MOL0     C62578   1.003   8.201   5.583 -0.1070 -0.1452  0.4960
  475MOL0     C62579   1.110   8.099   5.611 -0.1246  0.7059  0.6162
  475MOL0     C62580   1.206   8.072   5.495 -1.1437  0.2886  0.5851
  475MOL0     C62581   1.330   7.983   5.525  0.3854  0.7182 -0.9029
  475MOL0     C62582   1.284   7.840   5.551 -0.5600  0.8036  0.5399
  475MOL0     C62583   1.387   7.757   5.642 -0.8236 -0.1184 -0.1150
  475MOL0     C62584   1.342   7.607   5.650 -0.7951  0.1823 -0.6144
  475MOL0     N62585   1.200   7.590   5.684  0.9678  0.0931  0.2908
  475MOL0     C62586   1.140   7.603   5.804 -0.6476 -0.3646 -0.1698
  475MOL0     C62587   1.010   7.620   5.785  0.5016 -0.3812  0.2391
  475MOL0     C62588   0.895   7.639   5.878  0.3882  0.8388  0.3217
  475MOL0     C62589   0.750   7.646   5.825 -1.2888  0.4879  0.2000
  475MOL0     C62590   0.657   7.731   5.917 -0.1257  1.1291  0.0451
  475MOL0     C62591   0.509   7.726   5.871 -0.9180  0.0146  1.1109
  475MOL0     O62592   0.438   7.833   5.944 -0.3161  0.2856 -1.3748
  475MOL0     C62593   0.306   7.815   5.971  0.3453  0.0631  0.1755
  475MOL0     C62594   0.241   7.904   6.058  0.2524 -0.0155 -0.7576
  475MOL0     C62595   0.102   7.905   6.082 -0.0856  0.0967  0.0884
  475MOL0     C62596   0.026   7.809   6.018 -0.0173  0.0668 -0.3484
  475MOL0     C62597  -0.114   7.806   6.043 -0.1390 -0.2583 -0.1418
  475MOL0     O62598  -0.186   7.716   5.970  0.9392  0.7371 -0.0736
  475MOL0     C62599  -0.318   7.738   5.979  1.1691 -0.0064 -1.0797
  475MOL0     C62600  -0.364   7.829   5.880 -0.3744 -0.2567 -0.3890
  475MOL0     C62601  -0.496   7.857   5.881  0.6570 -0.4951  0.1503
  475MOL0     C62602  -0.588   7.803   5.966 -0.5327  0.6123 -0.0396
  475MOL0     O62603  -0.718   7.831   5.950 -0.6456 -0.9686  0.0368
  475MOL0     C62604  -0.786   7.735   5.873  0.5093 -0.2654 -0.0061
  475MOL0     C62605  -0.940   7.738   5.896  0.5524 -0.2273 -0.7793
  475MOL0     C62606  -1.001   7.631   5.798  0.5973  0.0948  1.6817
  475MOL0     C62607  -1.153   7.644   5.786  0.4515 -0.3464  0.5376
  475MOL0     C62608  -1.228   7.564   5.677 -0.3903 -0.7208  0.3048
  475MOL0     C62609  -1.205   7.418   5.681  0.3932  0.4427  0.5843
  475MOL0     C62610  -1.284   7.352   5.794  0.3242 -0.3441 -0.4392
  475MOL0     C62611  -1.283   7.196   5.783  0.7972  1.4437  0.5927
  475MOL0    Cl62612  -1.393   7.137   5.916 -0.0476  0.2850  0.1246
  475MOL0     C62613  -0.552   7.702   6.059 -0.4900 -0.4082  0.4341
  475MOL0     C62614  -0.410   7.674   6.080  0.1744 -0.3699 -0.7379
  475MOL0     O62615  -0.160   7.886   6.132 -0.4159  0.2724 -0.8754
  475MOL0     C62616   0.078   7.710   5.935 -0.9322 -0.2710 -0.8749
  475MOL0     C62617   0.219   7.716   5.913  0.3743 -0.0077 -0.4483
  475MOL0     N62618   0.984   7.607   5.653  0.0396 -0.0448 -0.0090
  475MOL0     N62619   1.098   7.588   5.592 -0.4978  0.2889  0.7290
  475MOL0     C62620   0.735   8.170   5.221  0.3041  0.6002 -0.5237
  475MOL0     C62621   0.627   8.165   5.135  0.3815 -0.7021 -0.7545
  475MOL0     C62622   0.282   8.207   4.870 -0.0243 -0.2633 -0.5544
  475MOL0     C62623   0.281   8.172   4.731 -0.0480  0.2372  0.4352
  475MOL0     C62624   0.188   8.236   4.646 -0.6421 -0.2106  0.7042
  475MOL0     C62625   0.097   8.320   4.694  0.0691  0.0278 -0.2016
  475MOL0     O62626   0.007   8.378   4.608  0.2180 -0.3070 -0.5732
  475MOL0     C62627   0.028   8.513   4.572  0.2241 -0.1874  0.1289
  475MOL0     C62628  -0.069   8.546   4.460 -0.0796 -0.6726  0.0004
  475MOL0     C62629  -0.034   8.677   4.408  0.7345  0.3130  0.6441
  475MOL0     C62630  -0.134   8.743   4.313  0.3142  1.0873  0.3287
  475MOL0     C62631  -0.158   8.675   4.181  0.7446 -0.9807 -0.7889
  475MOL0     C62632  -0.159   8.612   4.080 -0.2541  0.6399  0.2032
  475MOL0     C62633   0.086   8.341   4.833 -0.0314 -0.3835 -0.6354
  475MOL0     C62634   0.177   8.290   4.924 -1.1098  0.7227  0.8033
  475MOL0     H62635   0.404   8.363   5.284  0.0055  1.7499  1.2061
  475MOL0     H62636   0.588   8.397   5.431 -0.9942 -0.1642 -0.3008
  475MOL0     H62637   0.981   8.144   5.373  1.4969  0.2453  1.0681
  475MOL0     H62638   0.846   8.087   5.477 -3.0091  1.3541 -1.5334
  475MOL0     H62639   0.939   8.202   5.671 -2.1379 -0.1542 -0.9185
  475MOL0     H62640   1.054   8.295   5.558  2.3098 -1.2022  1.1080
  475MOL0     H62641   1.046   8.013   5.635 -1.3415  1.5500  0.4748
  475MOL0     H62642   1.158   8.131   5.703 -1.6840  3.1390  0.6595
  475MOL0     H62643   1.148   8.025   5.415 -0.5413 -1.5617  1.1876
  475MOL0     H62644   1.249   8.160   5.447  0.7217 -0.7658  0.2455
  475MOL0     H62645   1.381   8.013   5.616  0.5630  0.0372 -0.7684
  475MOL0     H62646   1.399   7.977   5.440  0.2227 -3.3906 -0.9435
  475MOL0     H62647   1.274   7.779   5.461 -2.4106 -1.4660  2.1723
  475MOL0     H62648   1.188   7.840   5.603 -1.5127 -4.2352 -0.7788
  475MOL0     H62649   1.486   7.762   5.595 -1.2956  1.3111 -1.0323
  475MOL0     H62650   1.397   7.801   5.742 -0.2569 -0.7840  0.1286
  475MOL0     H62651   1.405   7.557   5.723 -2.9893 -0.8266  0.7048
  475MOL0     H62652   1.373   7.559   5.557  0.9685 -0.2426  0.1657
  475MOL0     H62653   1.191   7.609   5.900 -0.3372  1.0644 -0.3897
  475MOL0     H62654   0.919   7.732   5.929  0.7411  1.1011 -0.3082
  475MOL0     H62655   0.898   7.549   5.941 -0.3419  0.5823  0.0048
  475MOL0     H62656   0.706   7.546   5.814 -2.3725  0.7156  1.9611
  475MOL0     H62657   0.755   7.707   5.734  1.2293  1.7928  1.1271
  475MOL0     H62658   0.655   7.693   6.020  1.8715  1.7152  0.3391
  475MOL0     H62659   0.694   7.834   5.924  0.2840  0.9349  0.9679
  475MOL0     H62660   0.467   7.625   5.878 -2.4138  0.2456 -2.2705
  475MOL0     H62661   0.495   7.753   5.766  2.5172  3.7054  1.3359
  475MOL0     H62662   0.292   7.987   6.107 -0.1132 -1.2261  1.8499
  475MOL0     H62663   0.082   7.998   6.135 -0.1609  1.5913 -2.4085
  475MOL0     H62664  -0.303   7.857   5.794  0.9466 -2.4210 -0.2329
  475MOL0     H62665  -0.533   7.925   5.805 -0.5419 -1.6944 -0.3798
  475MOL0     H62666  -0.760   7.633   5.903  0.6440 -0.3764 -0.4902
  475MOL0     H62667  -0.763   7.744   5.766 -0.0254 -1.8986 -0.2822
  475MOL0     H62668  -0.978   7.838   5.872  3.4463  0.5174 -2.7839
  475MOL0     H62669  -0.981   7.705   5.993  0.0261 -0.8472 -1.2006
  475MOL0     H62670  -0.973   7.532   5.836  2.0149  1.0094  3.1522
  475MOL0     H62671  -0.965   7.648   5.696  1.0369 -3.3880  1.1209
  475MOL0     H62672  -1.194   7.624   5.886 -2.1581 -1.4558 -0.6589
  475MOL0     H62673  -1.167   7.751   5.767  2.1800 -0.4753 -1.8295
  475MOL0     H62674  -1.186   7.598   5.581 -1.4091  3.2342  1.0903
  475MOL0     H62675  -1.328   7.607   5.676  0.4208  1.2988 -0.8630
  475MOL0     H62676  -1.099   7.390   5.692 -0.0649 -1.2471  1.0829
  475MOL0     H62677  -1.253   7.378   5.591 -2.5078  0.8810  1.8417
  475MOL0     H62678  -1.227   7.381   5.883  2.4382  1.3012 -2.2474
  475MOL0     H62679  -1.389   7.381   5.808  0.9472  0.7715  3.0056
  475MOL0     H62680  -1.183   7.153   5.784 -0.4768 -2.0016 -1.7563
  475MOL0     H62681  -1.342   7.167   5.695 -1.2903  0.3419  2.2607
  475MOL0     H62682  -0.630   7.663   6.123 -1.5277 -0.4644 -0.8303
  475MOL0     H62683  -0.372   7.598   6.148 -1.5201 -0.6598 -0.0625
  475MOL0     H62684   0.014   7.635   5.892 -0.9795 -0.3826 -0.6109
  475MOL0     H62685   0.254   7.645   5.839  0.0469 -0.6123 -0.0398
  475MOL0     H62686   0.832   8.129   5.198  1.7971  1.4115  3.5016
  475MOL0     H62687   0.634   8.103   5.046  1.6515 -0.7392 -0.6432
  475MOL0     H62688   0.343   8.094   4.688  0.4888  0.9488 -0.0857
  475MOL0     H62689   0.185   8.219   4.539  5.3928  2.8462 -0.3354
  475MOL0     H62690   0.131   8.526   4.535  0.2165 -0.8086 -0.1179
  475MOL0     H62691   0.023   8.576   4.661 -2.5902  0.3484 -0.3025
  475MOL0     H62692  -0.072   8.471   4.380  0.6624 -0.2865 -0.3947
  475MOL0     H62693  -0.170   8.540   4.502  0.3041 -0.1571  1.0211
  475MOL0     H62694   0.062   8.663   4.358 -0.2959 -0.1120 -1.3243
  475MOL0     H62695  -0.016   8.748   4.489  2.2709  2.0311 -1.1272
  475MOL0     H62696  -0.224   8.755   4.373 -1.1893  0.1229 -1.6139
  475MOL0     H62697  -0.100   8.844   4.288 -0.7581  1.0034 -1.6595
  475MOL0     H62698  -0.173   8.570   3.983  0.7482  3.9571 -1.5341
  475MOL0     H62699   0.010   8.403   4.879  1.9604 -0.0996  2.6161
  475MOL0     H62700   0.159   8.308   5.029  2.7683  1.8263  1.4445
  476MOL0     O62701   3.676   3.712   4.766 -0.0465  0.2420  0.2102
  476MOL0     C62702   3.697   3.793   4.853 -0.2229 -0.1671  0.1194
  476MOL0     O62703   3.812   3.867   4.855 -0.9633 -0.0396 -0.1337
  476MOL0     C62704   3.912   3.803   4.779  0.0194 -0.1715 -1.1662
  476MOL0     C62705   3.945   3.665   4.780  0.0574  0.0635 -0.3447
  476MOL0     C62706   4.037   3.607   4.693 -0.1987  0.4308  1.0090
  476MOL0     C62707   4.103   3.696   4.604 -0.9222  0.3361 -0.7124
  476MOL0     O62708   4.190   3.656   4.509  0.4436  0.1830  0.0207
  476MOL0     C62709   4.252   3.528   4.539 -0.2619  0.8009 -0.1525
  476MOL0     C62710   4.214   3.426   4.435 -0.2334 -0.9530 -0.3837
  476MOL0     C62711   4.276   3.455   4.295  0.8304 -0.6956 -0.3470
  476MOL0     C62712   4.186   3.541   4.202 -0.5939 -0.1767 -1.0576
  476MOL0     C62713   4.237   3.539   4.053  0.2833  0.2308  0.2593
  476MOL0     C62714   4.149   3.628   3.967  0.2634  0.1495 -0.0041
  476MOL0     C62715   4.178   3.627   3.817  0.4891  0.0627 -1.2982
  476MOL0     C62716   4.086   3.544   3.726 -0.9385 -0.7485 -0.5556
  476MOL0     N62717   3.945   3.594   3.734  0.1679  0.1082 -0.2590
  476MOL0     C62718   3.892   3.681   3.650 -0.0605 -0.1021  0.1003
  476MOL0     C62719   3.760   3.692   3.676  0.9789 -0.4854 -0.8014
  476MOL0     C62720   3.657   3.735   3.570  0.6868 -0.2258 -0.0944
  476MOL0     C62721   3.514   3.754   3.627  0.4704 -0.7579  0.3652
  476MOL0     C62722   3.399   3.768   3.531 -0.1005 -1.0512 -0.4512
  476MOL0     C62723   3.339   3.636   3.483 -0.0142 -0.4009 -0.3018
  476MOL0     O62724   3.195   3.648   3.458  0.7125  0.2676 -0.8285
  476MOL0     C62725   3.133   3.531   3.417  0.2535 -0.9870 -0.1518
  476MOL0     C62726   3.021   3.551   3.328  0.2072  0.0390 -0.3692
  476MOL0     C62727   2.934   3.453   3.286 -1.1665 -0.2665 -0.4559
  476MOL0     C62728   2.958   3.313   3.327 -0.1744 -0.5569 -0.3441
  476MOL0     C62729   2.890   3.198   3.259  0.9635 -0.6345  0.0792
  476MOL0     O62730   2.777   3.230   3.187  0.5304  0.4737  0.3971
  476MOL0     C62731   2.729   3.160   3.081  0.5734  0.1383 -0.3917
  476MOL0     C62732   2.625   3.216   3.004  0.2602 -0.3373 -0.6162
  476MOL0     C62733   2.549   3.145   2.920 -0.0018 -0.0903 -0.8312
  476MOL0     C62734   2.587   3.015   2.884 -0.0990 -0.3585  0.2765
  476MOL0     O62735   2.526   2.942   2.784  0.5426 -0.6017 -0.2762
  476MOL0     C62736   2.400   2.984   2.719 -0.8101 -0.6100 -1.2730
  476MOL0     C62737   2.364   2.875   2.619  0.2013  0.4887  1.0462
  476MOL0     C62738   2.413   2.907   2.475  0.9289  0.2491  0.0603
  476MOL0     C62739   2.328   3.026   2.407  0.5053  0.2824 -0.7821
  476MOL0     C62740   2.338   3.007   2.253 -0.5630 -0.7814 -0.6297
  476MOL0     C62741   2.334   3.143   2.186 -0.0835  0.1017 -0.6985
  476MOL0     C62742   2.330   3.130   2.033  0.2105 -0.4096 -0.1321
  476MOL0     C62743   2.364   3.266   1.974 -0.2206 -0.2728 -0.2140
  476MOL0    Cl62744   2.251   3.404   2.020 -0.6092  0.0498  0.1770
  476MOL0     C62745   2.698   2.958   2.952  0.0437  0.0553 -0.3968
  476MOL0     C62746   2.768   3.027   3.054 -0.2713 -0.4816  0.1123
  476MOL0     O62747   2.933   3.093   3.277 -0.2484 -0.0469  0.2433
  476MOL0     C62748   3.065   3.289   3.414 -0.7876 -0.8226 -0.8100
  476MOL0     C62749   3.147   3.394   3.461  0.2403 -0.0028 -0.3198
  476MOL0     N62750   3.728   3.619   3.792 -0.7500 -0.7219  0.1427
  476MOL0     N62751   3.847   3.561   3.825 -0.2108 -0.0291 -0.1717
  476MOL0     C62752   4.082   3.833   4.607  1.1363  0.2296  0.2942
  476MOL0     C62753   3.983   3.883   4.686  0.7525  0.5675  0.3647
  476MOL0     C62754   3.590   3.816   4.949 -0.4198 -0.6049  0.3886
  476MOL0     C62755   3.480   3.733   4.968 -0.1245 -0.0462 -0.4623
  476MOL0     C62756   3.391   3.754   5.074  0.6220 -0.4900  0.3163
  476MOL0     C62757   3.401   3.860   5.161 -0.3770  0.7181 -0.2856
  476MOL0     O62758   3.318   3.880   5.273  0.1720 -0.5708  0.4361
  476MOL0     C62759   3.260   3.769   5.340  0.9669  0.9824 -0.3089
  476MOL0     C62760   3.119   3.742   5.283  0.2638  0.0755  0.0370
  476MOL0     C62761   3.038   3.621   5.343  0.3031  0.0434 -0.4541
  476MOL0     C62762   2.997   3.650   5.487  0.5865 -0.0942 -0.6911
  476MOL0     C62763   2.899   3.555   5.539 -0.3847 -0.0134 -0.8177
  476MOL0     C62764   2.832   3.472   5.580  0.1805  0.5941  0.1364
  476MOL0     C62765   3.512   3.945   5.142  1.5155 -0.1022  0.6737
  476MOL0     C62766   3.607   3.917   5.041 -0.0091 -0.3492  0.4737
  476MOL0     H62767   3.901   3.590   4.846  3.1051 -1.4652  0.1551
  476MOL0     H62768   4.043   3.499   4.681  1.1502  0.5906  0.0706
  476MOL0     H62769   4.237   3.495   4.642 -1.2591  1.9962  0.1111
  476MOL0     H62770   4.361   3.535   4.536 -0.2353  0.1858 -1.0709
  476MOL0     H62771   4.106   3.415   4.444 -0.5761  2.0732  0.2770
  476MOL0     H62772   4.267   3.332   4.456  0.8390 -0.4642 -0.8350
  476MOL0     H62773   4.282   3.357   4.246  0.8024 -1.2913  0.8016
  476MOL0     H62774   4.378   3.491   4.306 -0.4694  2.7831  1.7229
  476MOL0     H62775   4.087   3.495   4.211 -0.7911  0.6656  3.8820
  476MOL0     H62776   4.199   3.645   4.234  3.0932 -0.2349 -1.9244
  476MOL0     H62777   4.225   3.438   4.014 -0.5076  0.3408  0.1911
  476MOL0     H62778   4.342   3.568   4.046  0.8222 -0.3688  3.8153
  476MOL0     H62779   4.159   3.733   3.994  1.6027  0.2503 -0.8062
  476MOL0     H62780   4.047   3.596   3.989  0.3995 -1.6715 -1.7446
  476MOL0     H62781   4.173   3.731   3.784  1.0437  1.0994  1.6181
  476MOL0     H62782   4.284   3.600   3.805  0.2599 -1.7511  0.2508
  476MOL0     H62783   4.097   3.441   3.759  2.5920 -1.1653 -2.5712
  476MOL0     H62784   4.131   3.558   3.628  1.3197  2.6308  0.7669
  476MOL0     H62785   3.938   3.720   3.560  2.1365 -0.8555  0.8277
  476MOL0     H62786   3.646   3.650   3.502 -0.1139  0.3038 -0.6436
  476MOL0     H62787   3.688   3.823   3.514 -0.4394 -0.1785 -0.6777
  476MOL0     H62788   3.519   3.847   3.684 -1.4380 -0.8817  0.8017
  476MOL0     H62789   3.489   3.663   3.681  0.5855 -1.8347 -1.3349
  476MOL0     H62790   3.313   3.823   3.572  0.2594  0.0023 -1.0801
  476MOL0     H62791   3.426   3.825   3.442 -1.8427 -1.2835 -1.1705
  476MOL0     H62792   3.360   3.554   3.553  0.9858 -1.0913 -1.3740
  476MOL0     H62793   3.396   3.603   3.396  2.1951  0.3018  0.7945
  476MOL0     H62794   2.997   3.649   3.289 -2.2350  0.0845  1.0571
  476MOL0     H62795   2.863   3.472   3.207 -1.7505  1.1964  0.3886
  476MOL0     H62796   2.595   3.318   3.027 -0.4631 -0.5114 -0.7418
  476MOL0     H62797   2.467   3.207   2.887 -1.1372 -0.9751  0.2466
  476MOL0     H62798   2.404   3.086   2.680 -3.5352  0.0261 -0.1269
  476MOL0     H62799   2.331   2.986   2.803  0.8496  1.6915  0.1499
  476MOL0     H62800   2.258   2.857   2.604  0.6065 -1.1474 -0.1180
  476MOL0     H62801   2.409   2.782   2.654 -1.0734 -1.1071 -1.3311
  476MOL0     H62802   2.397   2.822   2.406 -0.9809  0.7106 -0.1313
  476MOL0     H62803   2.514   2.948   2.476  0.0200  2.7054 -0.7812
  476MOL0     H62804   2.222   3.031   2.431  0.3822  1.4604 -1.5057
  476MOL0     H62805   2.367   3.123   2.438 -0.8561  1.5764 -2.8617
  476MOL0     H62806   2.248   2.951   2.225 -2.5112  1.2009  1.2775
  476MOL0     H62807   2.429   2.960   2.215  0.2701 -0.2159  0.6092
  476MOL0     H62808   2.424   3.202   2.205 -1.5396  1.5822  2.3056
  476MOL0     H62809   2.251   3.205   2.222  0.9556  0.7040  0.7092
  476MOL0     H62810   2.392   3.048   1.996  0.3427 -0.1335 -0.5263
  476MOL0     H62811   2.229   3.104   2.000 -0.2167  2.1768 -1.0790
  476MOL0     H62812   2.369   3.263   1.865 -0.7464 -0.6166 -0.2299
  476MOL0     H62813   2.465   3.282   2.013 -0.1470 -3.4068  1.1772
  476MOL0     H62814   2.718   2.853   2.934  0.1299  0.0025 -0.0027
  476MOL0     H62815   2.849   2.978   3.108 -0.5833  0.6463  1.6701
  476MOL0     H62816   3.079   3.185   3.443 -4.1353 -0.9195  0.9781
  476MOL0     H62817   3.210   3.374   3.547 -0.3539 -1.3589 -0.1723
  476MOL0     H62818   4.132   3.900   4.538  0.4009 -0.1611 -0.6641
  476MOL0     H62819   3.973   3.991   4.685 -3.0253  0.3673  0.1367
  476MOL0     H62820   3.439   3.669   4.890  0.2858  0.1799 -0.8706
  476MOL0     H62821   3.302   3.692   5.079 -2.6079  3.8072  2.9032
  476MOL0     H62822   3.255   3.789   5.448 -2.2030  1.0259 -0.3683
  476MOL0     H62823   3.309   3.673   5.318 -1.5311 -0.7119  0.9194
  476MOL0     H62824   3.061   3.834   5.294 -0.5661 -0.6422  2.1099
  476MOL0     H62825   3.119   3.723   5.175 -0.1943 -1.1572  0.2369
  476MOL0     H62826   3.093   3.526   5.347 -0.3984 -0.3491  3.1999
  476MOL0     H62827   2.947   3.613   5.283  1.0021  1.1387 -1.7324
  476MOL0     H62828   3.086   3.646   5.551 -1.5152  1.3161  2.6257
  476MOL0     H62829   2.945   3.746   5.494 -0.8539 -0.7881 -1.4752
  476MOL0     H62830   2.751   3.413   5.616  1.8624 -0.8245  1.8554
  476MOL0     H62831   3.531   4.021   5.218  3.2479 -0.7463  0.9291
  476MOL0     H62832   3.691   3.983   5.026  0.5026 -1.0784  0.1043
  477MOL0     O62833   1.748  10.414   5.623 -0.1926 -0.1602 -0.6761
  477MOL0     C62834   1.688  10.513   5.655  0.3836  0.8329 -0.1862
  477MOL0     O62835   1.715  10.638   5.604 -0.3808 -0.0830 -0.4144
  477MOL0     C62836   1.801  10.639   5.502 -0.0210  0.1467 -0.3510
  477MOL0     C62837   1.940  10.652   5.540 -0.2753  0.7330  0.0634
  477MOL0     C62838   2.032  10.623   5.445 -0.3196 -0.8298  0.0871
  477MOL0     C62839   1.995  10.595   5.311  0.4615  0.2383 -0.9243
  477MOL0     O62840   2.092  10.586   5.216  0.2238 -0.4550  0.2651
  477MOL0     C62841   2.093  10.471   5.139  0.1118  0.0037 -1.0683
  477MOL0     C62842   2.196  10.472   5.022 -0.1589 -0.2843 -0.3444
  477MOL0     C62843   2.335  10.488   5.084 -0.4157 -0.1128 -0.8541
  477MOL0     C62844   2.379  10.363   5.156  0.1166 -0.2347  0.8748
  477MOL0     C62845   2.534  10.353   5.159 -0.3326 -0.2285  0.2894
  477MOL0     C62846   2.575  10.248   5.263  0.4204  0.6421  0.9648
  477MOL0     C62847   2.724  10.232   5.282  0.3805  0.7695 -1.3321
  477MOL0     C62848   2.810  10.230   5.166  0.1281 -0.4224 -0.9327
  477MOL0     N62849   2.774  10.121   5.077 -0.4155  0.5651 -0.1863
  477MOL0     C62850   2.812   9.987   5.102  0.5928  0.0195  0.4497
  477MOL0     C62851   2.759   9.917   4.998 -0.6033  0.4180  0.2141
  477MOL0     C62852   2.771   9.771   4.960 -0.8348  0.3933  0.3281
  477MOL0     C62853   2.672   9.668   5.036  0.2874  1.1147  0.5833
  477MOL0     C62854   2.525   9.669   4.975 -0.2934 -0.8227  0.1376
  477MOL0     C62855   2.460   9.528   4.988 -0.0003  0.1606 -0.2189
  477MOL0     O62856   2.502   9.430   4.888 -0.7996  0.5598 -1.0531
  477MOL0     C62857   2.428   9.314   4.868 -0.7091 -0.1458  0.3885
  477MOL0     C62858   2.508   9.217   4.799  1.3627  0.2311 -0.4171
  477MOL0     C62859   2.446   9.101   4.763 -0.1499  0.4177 -0.2489
  477MOL0     C62860   2.308   9.067   4.779 -0.0174 -0.2648 -0.1043
  477MOL0     C62861   2.248   8.937   4.731 -0.2217 -0.9422 -0.5599
  477MOL0     O62862   2.120   8.902   4.772  0.2326 -0.6506  0.0843
  477MOL0     C62863   2.078   8.777   4.747  0.5299 -0.1398  0.1819
  477MOL0     C62864   1.967   8.748   4.665 -0.6509 -0.0503 -0.3062
  477MOL0     C62865   1.902   8.619   4.657  0.4510 -0.1181 -0.1627
  477MOL0     C62866   1.960   8.507   4.717  0.1179 -0.3854  0.3661
  477MOL0     O62867   1.905   8.384   4.688  0.7254 -0.5255 -0.0549
  477MOL0     C62868   1.960   8.263   4.749  0.4490  0.2468  0.1958
  477MOL0     C62869   1.901   8.140   4.679 -0.0743 -0.5799  0.7883
  477MOL0     C62870   1.943   8.122   4.531  0.0881 -0.2346  0.4917
  477MOL0     C62871   1.875   8.004   4.465  0.5056 -0.5678 -0.0980
  477MOL0     C62872   1.951   7.975   4.344 -0.4821  1.0207 -0.2525
  477MOL0     C62873   1.888   8.058   4.228  0.0163  0.2598 -0.0419
  477MOL0     C62874   1.968   8.064   4.100  0.1986 -0.2196 -0.2368
  477MOL0     C62875   1.927   7.957   4.003 -0.2797 -0.0345  0.1967
  477MOL0    Cl62876   1.764   7.978   3.943  0.0259 -0.7201 -0.2984
  477MOL0     C62877   2.077   8.534   4.790 -0.6054  0.0885 -0.1542
  477MOL0     C62878   2.132   8.659   4.808  0.4250 -0.3388  0.1435
  477MOL0     O62879   2.325   8.851   4.673 -0.4226  0.1291 -0.0691
  477MOL0     C62880   2.238   9.168   4.842 -0.0566  0.7438  0.7672
  477MOL0     C62881   2.293   9.286   4.895 -0.6487 -0.0922 -0.1263
  477MOL0     N62882   2.684  10.003   4.922 -0.3739  0.6839 -0.2084
  477MOL0     N62883   2.702  10.120   4.954 -0.4108 -0.2912  1.0062
  477MOL0     C62884   1.865  10.611   5.278 -0.0541 -0.3469  0.5080
  477MOL0     C62885   1.774  10.632   5.373  0.3863 -0.4903  0.0568
  477MOL0     C62886   1.580  10.497   5.752 -0.7859  0.1725  0.2097
  477MOL0     C62887   1.497  10.604   5.781  0.0116  0.3477 -0.0223
  477MOL0     C62888   1.384  10.582   5.863  0.3529 -0.0596 -0.7181
  477MOL0     C62889   1.357  10.470   5.933  0.1539  0.5442  0.8746
  477MOL0     O62890   1.254  10.446   6.020 -0.2071  0.1983  0.4361
  477MOL0     C62891   1.150  10.550   6.037 -1.4281  0.2277  1.1290
  477MOL0     C62892   1.038  10.495   6.128 -0.2048 -0.4972  0.6940
  477MOL0     C62893   1.000  10.353   6.116 -0.0610 -0.2544 -0.1923
  477MOL0     C62894   0.902  10.318   6.230  0.1796  0.8392 -0.3988
  477MOL0     C62895   0.793  10.420   6.247 -0.2628 -0.0360 -0.1684
  477MOL0     C62896   0.687  10.470   6.275  0.4718 -0.3852 -0.1180
  477MOL0     C62897   1.439  10.354   5.898 -0.9271 -0.3972  0.3615
  477MOL0     C62898   1.555  10.375   5.816  0.2561 -0.6955 -0.3042
  477MOL0     H62899   1.965  10.669   5.644  0.2177  0.1837  0.0428
  477MOL0     H62900   2.139  10.640   5.454 -0.7252  4.5179 -1.6869
  477MOL0     H62901   1.996  10.461   5.089 -0.7989  2.2481  0.1245
  477MOL0     H62902   2.110  10.387   5.206 -0.9447  1.0644  0.5821
  477MOL0     H62903   2.170  10.555   4.955 -0.9522  2.0969  2.6877
  477MOL0     H62904   2.193  10.381   4.961 -1.6658  1.0783 -2.4476
  477MOL0     H62905   2.343  10.578   5.146 -3.4160  2.5032 -3.8712
  477MOL0     H62906   2.396  10.500   4.995  1.0357  3.4223  0.4668
  477MOL0     H62907   2.337  10.360   5.257 -2.1333  3.2980  0.2536
  477MOL0     H62908   2.346  10.275   5.101 -0.1377  1.7585 -2.4382
  477MOL0     H62909   2.572  10.452   5.186  1.0432 -0.7355  0.2653
  477MOL0     H62910   2.572  10.319   5.062  1.8672 -0.7258  1.2575
  477MOL0     H62911   2.549  10.148   5.229  2.0788  1.0726 -1.9337
  477MOL0     H62912   2.523  10.261   5.359  1.1671  0.1003  1.4498
  477MOL0     H62913   2.755  10.320   5.340  1.6420 -1.5714  1.8742
  477MOL0     H62914   2.741  10.148   5.350  1.1843  4.0268  2.8975
  477MOL0     H62915   2.915  10.223   5.197 -0.5199  2.5778  2.8477
  477MOL0     H62916   2.805  10.321   5.105  0.4328  0.4838  0.3471
  477MOL0     H62917   2.874   9.941   5.178 -0.8145  1.0476  2.3058
  477MOL0     H62918   2.875   9.747   4.987  0.0591 -1.3824 -3.8124
  477MOL0     H62919   2.759   9.756   4.852  1.3902 -1.8994  0.2985
  477MOL0     H62920   2.672   9.694   5.142  2.3699  0.4234  0.8026
  477MOL0     H62921   2.713   9.567   5.027 -2.4742 -0.0295 -0.5528
  477MOL0     H62922   2.459   9.733   5.033  3.1415  1.5699  1.7639
  477MOL0     H62923   2.515   9.712   4.875 -0.8516 -1.2243  0.0172
  477MOL0     H62924   2.355   9.541   4.958  0.0920 -2.8440 -2.3487
  477MOL0     H62925   2.474   9.492   5.091 -1.3233  1.4381  0.4418
  477MOL0     H62926   2.615   9.219   4.780  1.7130  4.3084  1.0623
  477MOL0     H62927   2.515   9.039   4.708 -0.1870  0.9777 -0.9473
  477MOL0     H62928   1.915   8.829   4.614  1.8046 -0.0396 -3.0051
  477MOL0     H62929   1.815   8.604   4.594 -0.1009  0.4404  0.4496
  477MOL0     H62930   1.935   8.253   4.855 -1.3229 -2.5619 -0.3785
  477MOL0     H62931   2.067   8.253   4.731  0.4156 -0.8367  0.5376
  477MOL0     H62932   1.794   8.156   4.665  0.4259  0.3729 -2.7545
  477MOL0     H62933   1.921   8.051   4.740  0.0721 -0.2656  1.2008
  477MOL0     H62934   2.049   8.094   4.540  0.1853  0.4753  1.9482
  477MOL0     H62935   1.941   8.219   4.481 -2.4746 -0.6847 -0.3958
  477MOL0     H62936   1.866   7.918   4.531 -0.9395  0.5391  1.2174
  477MOL0     H62937   1.770   8.030   4.447  0.5150  1.2000  2.0412
  477MOL0     H62938   1.934   7.868   4.329 -0.7743  1.1596 -0.9544
  477MOL0     H62939   2.059   7.987   4.356 -0.5203 -0.8416  3.4429
  477MOL0     H62940   1.873   8.157   4.272 -0.3284  0.5986 -0.8954
  477MOL0     H62941   1.786   8.018   4.222 -0.6159  1.1466  3.1036
  477MOL0     H62942   1.954   8.164   4.059 -0.3619  0.2860  1.1231
  477MOL0     H62943   2.075   8.074   4.122 -0.1236  1.9456  0.5673
  477MOL0     H62944   1.936   7.859   4.050 -1.6282 -2.0246 -3.2821
  477MOL0     H62945   1.982   7.953   3.908 -2.4049  0.1937 -1.1010
  477MOL0     H62946   2.128   8.448   4.833  3.2597  1.8077 -0.8268
  477MOL0     H62947   2.219   8.678   4.869  1.9397  4.0144 -2.8347
  477MOL0     H62948   2.132   9.149   4.854  0.1850 -1.0645  0.3148
  477MOL0     H62949   2.234   9.363   4.943  1.8545  0.2569  2.6619
  477MOL0     H62950   1.829  10.601   5.176 -3.3498 -2.8078  1.7299
  477MOL0     H62951   1.672  10.641   5.336  1.2190 -0.7744 -2.4909
  477MOL0     H62952   1.508  10.706   5.747  0.5859  0.0697 -0.7167
  477MOL0     H62953   1.311  10.659   5.883  0.4028 -0.2047  0.0419
  477MOL0     H62954   1.119  10.581   5.937  1.9490 -2.0574 -0.8172
  477MOL0     H62955   1.203  10.635   6.082 -3.0387  1.5011  0.7261
  477MOL0     H62956   1.076  10.490   6.230 -0.8823 -0.6411  0.9447
  477MOL0     H62957   0.956  10.567   6.119 -2.0304 -2.2084  2.5219
  477MOL0     H62958   1.089  10.289   6.109  0.3211  0.4039 -1.8385
  477MOL0     H62959   0.943  10.345   6.024 -0.4245 -0.7148  0.0685
  477MOL0     H62960   0.851  10.223   6.213 -2.8582  2.6347 -2.1140
  477MOL0     H62961   0.957  10.303   6.324 -1.4400 -2.8845  0.1528
  477MOL0     H62962   0.594  10.516   6.304  0.6849  1.5235 -2.1612
  477MOL0     H62963   1.435  10.266   5.960 -0.7151 -0.7948 -0.1793
  477MOL0     H62964   1.626  10.295   5.799 -0.5164 -0.9301 -2.9046
  478MOL0     O62965   4.437   6.356   8.176  0.4117 -0.9600 -0.5456
  478MOL0     C62966   4.372   6.327   8.081  0.8121  0.0281 -0.7662
  478MOL0     O62967   4.248   6.252   8.092  0.1528 -0.3117 -0.6203
  478MOL0     C62968   4.211   6.194   8.207 -0.4160  0.3553  0.7380
  478MOL0     C62969   4.206   6.267   8.329  0.8664 -0.9111 -0.0619
  478MOL0     C62970   4.153   6.210   8.445  0.0037 -0.6020  0.1621
  478MOL0     C62971   4.106   6.078   8.438  0.0569  0.1284 -0.6965
  478MOL0     O62972   4.082   6.011   8.543 -0.4804 -0.5208 -0.0568
  478MOL0     C62973   3.973   6.049   8.631 -1.1745 -0.1514  0.2720
  478MOL0     C62974   3.969   5.978   8.772  0.2417  0.3549  0.6774
  478MOL0     C62975   4.093   6.004   8.855 -0.2418 -0.6324  0.1524
  478MOL0     C62976   4.093   5.912   8.982 -0.9315  1.1191 -0.1241
  478MOL0     C62977   4.188   5.979   9.093  0.2314 -0.3232  0.6329
  478MOL0     C62978   4.239   5.878   9.195  0.0164  0.5032 -0.2742
  478MOL0     C62979   4.334   5.766   9.143  0.0178  0.7992 -0.8160
  478MOL0     C62980   4.472   5.819   9.149  0.2834  0.7019 -0.0461
  478MOL0     N62981   4.551   5.705   9.110 -0.1330  0.4524  0.4904
  478MOL0     C62982   4.573   5.599   9.189 -0.5781  0.1888 -1.0803
  478MOL0     C62983   4.628   5.506   9.113  1.3186 -0.3505  0.1379
  478MOL0     C62984   4.661   5.362   9.161 -0.3148 -0.4984  0.7447
  478MOL0     C62985   4.784   5.378   9.245  0.0868  0.3960 -0.5705
  478MOL0     C62986   4.850   5.241   9.276 -0.1980  0.0167  0.0321
  478MOL0     C62987   4.761   5.145   9.348  0.2123  0.6389 -0.2517
  478MOL0     O62988   4.718   5.185   9.472  0.2072 -0.8511 -0.4181
  478MOL0     C62989   4.633   5.107   9.543 -0.1707 -0.3640 -0.4674
  478MOL0     C62990   4.593   5.148   9.666  1.3185  0.1777 -0.4122
  478MOL0     C62991   4.517   5.073   9.747 -0.6411 -0.3714 -0.6178
  478MOL0     C62992   4.473   4.947   9.711 -0.2341  1.1432  0.0886
  478MOL0     C62993   4.378   4.854   9.776  0.9463 -0.3880  0.2980
  478MOL0     O62994   4.348   4.725   9.728  0.1114  0.0240 -0.4086
  478MOL0     C62995   4.276   4.635   9.800  0.1443  0.1187 -1.4405
  478MOL0     C62996   4.150   4.664   9.860 -0.3664  0.7067 -0.3939
  478MOL0     C62997   4.090   4.560   9.928 -0.2635 -0.0922 -0.2688
  478MOL0     C62998   4.140   4.431   9.929  0.4296  1.4873 -0.2739
  478MOL0     O62999   4.074   4.339  10.011 -0.3135 -0.0228 -0.4185
  478MOL0     C63000   3.984   4.252   9.952 -0.0194 -0.0159  0.0640
  478MOL0     C63001   3.874   4.255  10.055 -0.3718 -0.2040 -0.1315
  478MOL0     C63002   3.811   4.392  10.087  0.9654 -0.5335  0.2003
  478MOL0     C63003   3.689   4.379  10.176 -0.2956  0.9507  0.0131
  478MOL0     C63004   3.664   4.508  10.251 -0.8617 -0.9840  0.4580
  478MOL0     C63005   3.535   4.489  10.324  0.1033 -0.2591 -0.2572
  478MOL0     C63006   3.493   4.599  10.417 -0.5275  1.1990 -0.8135
  478MOL0     C63007   3.480   4.735  10.354 -0.1945  0.0321 -0.1067
  478MOL0    Cl63008   3.331   4.717  10.248 -0.2234 -0.0378 -0.0662
  478MOL0     C63009   4.258   4.406   9.867 -0.9608 -0.3595 -0.5857
  478MOL0     C63010   4.329   4.514   9.804 -0.0761  1.1350  0.1364
  478MOL0     O63011   4.338   4.897   9.884  0.7849 -0.0868  0.3718
  478MOL0     C63012   4.523   4.897   9.581  0.6776 -0.1538 -0.4123
  478MOL0     C63013   4.598   4.979   9.495 -0.1294  0.7491 -0.3392
  478MOL0     N63014   4.635   5.554   8.989  0.4015  0.1717  1.2800
  478MOL0     N63015   4.591   5.666   8.983  0.5111 -0.7930  0.4394
  478MOL0     C63016   4.113   6.006   8.316 -0.1829 -0.5669  0.2085
  478MOL0     C63017   4.155   6.064   8.191  0.4461  1.1873  0.4245
  478MOL0     C63018   4.419   6.362   7.951 -0.8450  0.9144 -0.6982
  478MOL0     C63019   4.555   6.396   7.924 -0.0731  0.3012  0.0584
  478MOL0     C63020   4.597   6.433   7.795  0.3264  0.2923 -0.4861
  478MOL0     C63021   4.502   6.454   7.696  1.1868 -0.6094 -0.5753
  478MOL0     O63022   4.526   6.474   7.562 -0.5407  0.1833  0.1317
  478MOL0     C63023   4.662   6.465   7.520 -0.1431  0.0082 -0.3406
  478MOL0     C63024   4.739   6.597   7.542  0.7093  0.2348  0.3707
  478MOL0     C63025   4.864   6.614   7.469 -0.7159  0.3563  0.3317
  478MOL0     C63026   4.856   6.677   7.329  0.1633  0.7794 -0.5977
  478MOL0     C63027   4.786   6.808   7.351  1.0197 -0.3603 -0.4514
  478MOL0     C63028   4.737   6.906   7.397 -0.5007 -0.3599 -0.1804
  478MOL0     C63029   4.362   6.442   7.732  0.3460 -0.8009 -0.0969
  478MOL0     C63030   4.320   6.395   7.852  0.0102  0.7797  0.1093
  478MOL0     H63031   4.228   6.372   8.343 -0.6090 -0.3151 -1.8429
  478MOL0     H63032   4.153   6.265   8.538  0.7663 -0.9632  0.3825
  478MOL0     H63033   3.879   6.035   8.576 -2.6105  1.0696  2.2806
  478MOL0     H63034   3.978   6.157   8.649  0.9811  0.4024 -2.8020
  478MOL0     H63035   3.964   5.872   8.745 -3.0223  0.2975  1.1379
  478MOL0     H63036   3.880   6.016   8.823 -0.8295 -1.1753  0.0106
  478MOL0     H63037   4.094   6.111   8.877 -3.8822  0.1461 -2.5194
  478MOL0     H63038   4.183   5.985   8.795 -2.0206 -1.4877 -2.4251
  478MOL0     H63039   3.998   5.878   9.024  0.1291 -4.3319 -1.3804
  478MOL0     H63040   4.133   5.812   8.965 -0.1944  1.5328 -0.9164
  478MOL0     H63041   4.136   6.061   9.143 -0.5371 -0.0983 -0.5127
  478MOL0     H63042   4.278   6.018   9.044 -0.3513  2.9325  1.8616
  478MOL0     H63043   4.152   5.822   9.230 -0.6331 -0.6204 -3.3615
  478MOL0     H63044   4.280   5.932   9.280 -1.8394 -1.5165  2.0432
  478MOL0     H63045   4.333   5.685   9.217 -1.5753  2.5995  1.2934
  478MOL0     H63046   4.308   5.732   9.043  1.1360  0.1405 -0.8973
  478MOL0     H63047   4.495   5.853   9.251  0.5482  2.2528 -0.6037
  478MOL0     H63048   4.480   5.897   9.073  0.2511 -0.2813 -1.0844
  478MOL0     H63049   4.553   5.582   9.295 -0.3894 -1.2256 -1.2492
  478MOL0     H63050   4.683   5.300   9.073 -1.9144  1.2127 -0.9612
  478MOL0     H63051   4.580   5.313   9.217 -0.0093 -0.3806  1.2929
  478MOL0     H63052   4.758   5.416   9.345  2.2433  2.1475 -0.5939
  478MOL0     H63053   4.853   5.456   9.211  2.1694 -0.9802  0.3385
  478MOL0     H63054   4.897   5.196   9.189  0.2442 -0.2457  0.3986
  478MOL0     H63055   4.931   5.263   9.346  0.6086  0.3649 -0.9905
  478MOL0     H63056   4.829   5.061   9.366  0.2027  0.5115 -0.7716
  478MOL0     H63057   4.679   5.104   9.289 -1.8256 -0.1862  2.9453
  478MOL0     H63058   4.613   5.248   9.704  1.0828 -0.4768  1.5064
  478MOL0     H63059   4.486   5.114   9.843  3.8232  1.9243  0.1122
  478MOL0     H63060   4.101   4.760   9.860 -2.6207 -0.3801 -0.6217
  478MOL0     H63061   4.019   4.601   9.999  0.6215  4.1825 -1.5550
  478MOL0     H63062   4.018   4.148   9.949  0.1459  0.0462 -0.1919
  478MOL0     H63063   3.957   4.274   9.848  1.1531 -0.7598 -0.4125
  478MOL0     H63064   3.918   4.208  10.144  0.1639 -0.2565 -0.4268
  478MOL0     H63065   3.795   4.188  10.020 -0.4195  1.2250 -3.0315
  478MOL0     H63066   3.769   4.432   9.995 -0.6383 -0.5644  0.8890
  478MOL0     H63067   3.878   4.459  10.142 -0.5285  0.6680  0.6027
  478MOL0     H63068   3.603   4.344  10.119  0.0720 -2.5354  1.3142
  478MOL0     H63069   3.709   4.300  10.250  0.6895  1.9039  0.8002
  478MOL0     H63070   3.662   4.594  10.183  3.2404 -0.8742  0.2512
  478MOL0     H63071   3.750   4.519  10.318 -0.2615  1.1573 -0.5799
  478MOL0     H63072   3.540   4.397  10.382  1.7205 -0.3766 -0.5376
  478MOL0     H63073   3.446   4.480  10.261 -0.9073  0.3726  1.0314
  478MOL0     H63074   3.397   4.569  10.461  0.5461  0.1593  0.9319
  478MOL0     H63075   3.566   4.596  10.498 -1.5101  0.1046  0.0706
  478MOL0     H63076   3.553   4.777  10.285 -0.8974 -0.1026 -0.9514
  478MOL0     H63077   3.456   4.815  10.425 -3.0275  1.8308 -2.8273
  478MOL0     H63078   4.306   4.311   9.886 -0.0769 -0.9273 -4.6836
  478MOL0     H63079   4.419   4.490   9.748 -1.5919  0.8409 -2.3571
  478MOL0     H63080   4.476   4.805   9.545  1.5574 -1.5009  1.6632
  478MOL0     H63081   4.611   4.942   9.394  0.6528  2.3544 -0.8487
  478MOL0     H63082   4.084   5.902   8.306 -0.9295 -0.2178 -1.7400
  478MOL0     H63083   4.150   6.013   8.095 -2.2081  0.2701  0.9602
  478MOL0     H63084   4.610   6.380   8.016  0.5936  0.3700 -0.3189
  478MOL0     H63085   4.701   6.450   7.772  0.6197 -1.7177 -0.8514
  478MOL0     H63086   4.672   6.441   7.414  0.3656  1.4136 -0.6384
  478MOL0     H63087   4.718   6.396   7.585  0.9233  0.9135 -0.2540
  478MOL0     H63088   4.660   6.668   7.513 -1.7052 -3.7444 -4.3506
  478MOL0     H63089   4.765   6.611   7.647 -1.5832  2.0664  0.7886
  478MOL0     H63090   4.922   6.524   7.446  1.5710  1.7827  0.1559
  478MOL0     H63091   4.931   6.678   7.527  2.1827 -0.1419 -2.1949
  478MOL0     H63092   4.946   6.698   7.270 -2.3424  4.2539 -3.6166
  478MOL0     H63093   4.794   6.615   7.265  0.4998  1.2544 -1.3996
  478MOL0     H63094   4.695   6.991   7.448 -0.6282 -1.2993  1.3399
  478MOL0     H63095   4.300   6.474   7.648  2.7161  2.1303 -0.9344
  478MOL0     H63096   4.214   6.384   7.872  0.5661 -1.4534  2.3793
  479MOL0     O63097   4.019   4.108   0.542  0.1717 -0.2560 -0.1722
  479MOL0     C63098   4.078   4.160   0.638  0.1284 -0.1111  0.1744
  479MOL0     O63099   4.167   4.087   0.715  0.3415 -0.0956  0.3285
  479MOL0     C63100   4.181   3.947   0.702 -0.9651 -0.0976 -0.3563
  479MOL0     C63101   4.186   3.870   0.583  0.0273  0.4872  0.9078
  479MOL0     C63102   4.210   3.734   0.578 -0.0616  0.4814 -0.2637
  479MOL0     C63103   4.249   3.673   0.694 -0.0080  0.4757  0.0372
  479MOL0     O63104   4.284   3.539   0.700 -0.1132  0.5921  0.4717
  479MOL0     C63105   4.337   3.489   0.577 -0.5578 -0.3088 -1.1479
  479MOL0     C63106   4.402   3.360   0.603 -0.1113  0.0357  0.7148
  479MOL0     C63107   4.501   3.323   0.500 -0.6838 -0.5826  1.2822
  479MOL0     C63108   4.451   3.314   0.356  0.4092 -1.0739  0.3365
  479MOL0     C63109   4.419   3.174   0.310 -0.1415  0.1398 -0.0974
  479MOL0     C63110   4.431   3.185   0.148  0.5368  0.9190 -0.0441
  479MOL0     C63111   4.418   3.056   0.072 -1.7866  0.4222  0.5808
  479MOL0     C63112   4.273   3.010   0.056  0.8827  0.1336  0.1013
  479MOL0     N63113   4.209   3.077  -0.065 -1.4705  0.3738  0.2066
  479MOL0     C63114   4.131   3.003  -0.146 -0.6271  0.5163  0.5359
  479MOL0     C63115   4.061   3.101  -0.214  0.8729  1.4300 -0.5417
  479MOL0     C63116   3.964   3.081  -0.331  0.1328  0.1029  0.4040
  479MOL0     C63117   3.855   2.976  -0.308 -0.3618 -0.2329 -1.1278
  479MOL0     C63118   3.719   3.018  -0.259  0.5487 -0.6764  0.3210
  479MOL0     C63119   3.738   3.065  -0.119  0.3355  0.1153  0.4272
  479MOL0     O63120   3.605   3.065  -0.065 -0.5354  0.2963 -0.8069
  479MOL0     C63121   3.592   3.111   0.067  0.1441 -0.6171  0.9874
  479MOL0     C63122   3.681   3.197   0.131 -0.0384 -0.6153  0.4146
  479MOL0     C63123   3.662   3.225   0.272  0.4310 -1.3424 -0.1510
  479MOL0     C63124   3.548   3.185   0.345 -0.2436 -0.5105  0.0986
  479MOL0     C63125   3.527   3.227   0.491  0.1192  0.4169  0.0315
  479MOL0     O63126   3.406   3.197   0.541  0.3584 -0.4877 -0.4240
  479MOL0     C63127   3.397   3.195   0.678 -0.4630 -0.2164 -0.1497
  479MOL0     C63128   3.426   3.310   0.759 -0.3762 -0.1226  0.1676
  479MOL0     C63129   3.390   3.314   0.887 -0.6111  0.2058  0.2739
  479MOL0     C63130   3.353   3.207   0.952  0.5559 -0.8739 -1.0201
  479MOL0     O63131   3.300   3.213   1.079  0.7071  0.6629 -0.9706
  479MOL0     C63132   3.373   3.278   1.178  0.2296 -0.1889 -0.0651
  479MOL0     C63133   3.331   3.233   1.315  0.6198 -0.3337 -0.2307
  479MOL0     C63134   3.339   3.083   1.338  0.6256  0.0896  0.0334
  479MOL0     C63135   3.306   3.039   1.474 -0.1041  0.7988 -0.2890
  479MOL0     C63136   3.151   3.038   1.510  0.0227  0.1302 -0.1192
  479MOL0     C63137   3.122   2.963   1.634  0.2169  0.0657 -0.0228
  479MOL0     C63138   2.981   2.990   1.698  0.5209  0.4778 -0.1922
  479MOL0     C63139   2.856   2.982   1.606 -0.0596  0.9144  0.1919
  479MOL0    Cl63140   2.830   2.818   1.556  0.0382 -0.3424 -0.1334
  479MOL0     C63141   3.326   3.079   0.880 -1.1946 -0.4583 -0.2450
  479MOL0     C63142   3.355   3.082   0.742 -0.3891  0.4354 -0.6750
  479MOL0     O63143   3.628   3.239   0.558  0.4942  0.4116 -0.2907
  479MOL0     C63144   3.452   3.110   0.274  0.5102 -1.0538  0.4509
  479MOL0     C63145   3.475   3.083   0.138 -0.6207  0.4834 -1.2781
  479MOL0     N63146   4.108   3.224  -0.177 -0.3966  0.8973  0.8512
  479MOL0     N63147   4.201   3.205  -0.096 -0.8009 -0.8885 -0.1596
  479MOL0     C63148   4.249   3.751   0.814  0.2497 -0.1828 -0.0325
  479MOL0     C63149   4.219   3.886   0.819 -0.3142  0.1436 -0.4618
  479MOL0     C63150   4.042   4.292   0.689 -0.2391  0.1445 -0.8771
  479MOL0     C63151   3.960   4.378   0.615 -0.3777 -0.0807 -0.3997
  479MOL0     C63152   3.953   4.511   0.651  0.4254 -0.1924  0.4756
  479MOL0     C63153   4.020   4.559   0.761  0.1133  0.8039 -0.8871
  479MOL0     O63154   3.992   4.683   0.811 -0.3801 -0.8215 -0.0714
  479MOL0     C63155   4.097   4.780   0.834  0.1713 -0.0898  0.3108
  479MOL0     C63156   4.138   4.847   0.702  0.9247 -0.7350  0.1334
  479MOL0     C63157   4.231   4.965   0.731 -0.0454  0.2187  0.5648
  479MOL0     C63158   4.280   5.040   0.600  0.2136 -0.0220  0.1869
  479MOL0     C63159   4.165   5.102   0.530 -0.5715  0.5226 -0.8508
  479MOL0     C63160   4.078   5.157   0.466 -0.4609 -0.5739  0.8938
  479MOL0     C63161   4.098   4.468   0.842  0.3906 -0.4240  0.0101
  479MOL0     C63162   4.104   4.334   0.807 -0.3289  0.0042  0.2525
  479MOL0     H63163   4.177   3.929   0.493 -0.6836 -0.5213  0.2923
  479MOL0     H63164   4.184   3.688   0.484  1.0301 -0.4105 -0.1533
  479MOL0     H63165   4.410   3.561   0.541 -0.6526  1.3134  1.6016
  479MOL0     H63166   4.264   3.470   0.498 -2.1034 -0.1111  0.1790
  479MOL0     H63167   4.326   3.281   0.601 -0.4270  0.3086  1.4933
  479MOL0     H63168   4.455   3.361   0.699  1.7371  0.4104 -0.2603
  479MOL0     H63169   4.539   3.224   0.526  2.0080  0.0420  0.1254
  479MOL0     H63170   4.586   3.392   0.503 -1.6643  0.8006 -0.6298
  479MOL0     H63171   4.363   3.373   0.330 -0.1597 -2.8492 -2.0808
  479MOL0     H63172   4.529   3.359   0.293  2.0917  0.1827  3.1194
  479MOL0     H63173   4.321   3.134   0.341  0.4450 -2.4736 -1.3280
  479MOL0     H63174   4.496   3.103   0.339 -1.8203 -1.9026 -0.3846
  479MOL0     H63175   4.527   3.230   0.120 -1.8524  5.0878 -2.7083
  479MOL0     H63176   4.358   3.258   0.111 -0.5717 -0.6467 -1.0717
  479MOL0     H63177   4.458   3.073  -0.028 -3.6547  0.9280 -0.1222
  479MOL0     H63178   4.474   2.988   0.137 -3.0431  2.8685  4.6345
  479MOL0     H63179   4.212   3.051   0.137 -0.4479 -1.6710  0.0844
  479MOL0     H63180   4.261   2.902   0.045  2.2345 -0.0773  0.5542
  479MOL0     H63181   4.118   2.896  -0.162 -0.2426  0.3412  1.3447
  479MOL0     H63182   4.021   3.046  -0.418  0.3060  1.9009 -0.2300
  479MOL0     H63183   3.923   3.180  -0.353  2.0739  0.8945  0.1505
  479MOL0     H63184   3.900   2.899  -0.244  2.1832  1.4857 -0.7007
  479MOL0     H63185   3.831   2.923  -0.401 -0.4611 -3.8128  0.7303
  479MOL0     H63186   3.679   3.098  -0.322 -0.2234 -2.4559 -1.5543
  479MOL0     H63187   3.652   2.931  -0.262  2.6911 -2.4177 -0.0358
  479MOL0     H63188   3.797   3.157  -0.117  0.1641  0.2139  1.5161
  479MOL0     H63189   3.793   2.986  -0.067  0.2208 -0.3112 -0.0915
  479MOL0     H63190   3.769   3.225   0.074 -1.1697  2.7113  0.0882
  479MOL0     H63191   3.727   3.297   0.320 -2.0758  0.2383  1.0596
  479MOL0     H63192   3.467   3.405   0.726 -0.3436  0.0587  0.7161
  479MOL0     H63193   3.412   3.408   0.938  1.0765  0.1554 -0.2956
  479MOL0     H63194   3.357   3.384   1.154  0.3976 -0.7404 -3.0773
  479MOL0     H63195   3.480   3.255   1.183  0.3379  0.4535  0.7886
  479MOL0     H63196   3.228   3.261   1.339 -0.3037 -3.2200 -0.4303
  479MOL0     H63197   3.397   3.281   1.387  0.0326 -1.2799  0.9691
  479MOL0     H63198   3.442   3.052   1.319  0.7313 -0.0130  0.7639
  479MOL0     H63199   3.270   3.029   1.272 -0.9484 -0.2482  1.8935
  479MOL0     H63200   3.340   2.935   1.480  1.1832  1.2172 -0.0077
  479MOL0     H63201   3.355   3.095   1.554 -2.5918  1.6025  0.7630
  479MOL0     H63202   3.096   2.991   1.428  2.2603  2.5836 -3.2800
  479MOL0     H63203   3.121   3.141   1.530 -2.4109 -1.0950  3.5361
  479MOL0     H63204   3.189   2.982   1.718  0.0942  5.6423 -0.8090
  479MOL0     H63205   3.128   2.858   1.603 -0.4844  0.4059 -1.4134
  479MOL0     H63206   2.976   2.913   1.776 -0.8479 -0.1988 -0.9114
  479MOL0     H63207   2.981   3.094   1.730 -0.3268  0.4721 -0.1344
  479MOL0     H63208   2.861   3.045   1.516 -0.2790  0.2166 -0.3166
  479MOL0     H63209   2.772   3.014   1.668  0.7235  0.6799  1.4089
  479MOL0     H63210   3.290   2.993   0.936 -0.4212 -0.7327 -0.1625
  479MOL0     H63211   3.354   2.989   0.686  1.2854  0.8412 -1.4439
  479MOL0     H63212   3.354   3.078   0.308 -1.6261  1.0578 -3.0829
  479MOL0     H63213   3.393   3.029   0.091 -2.2892 -1.1574  3.0423
  479MOL0     H63214   4.285   3.693   0.898 -0.4498 -2.6795 -1.3420
  479MOL0     H63215   4.233   3.941   0.911  0.2021 -3.1054  1.5541
  479MOL0     H63216   3.908   4.333   0.531  0.6014 -2.7200  0.3010
  479MOL0     H63217   3.869   4.563   0.607 -2.9080 -2.5020  3.5387
  479MOL0     H63218   4.188   4.742   0.882 -0.3056  1.0996  2.2725
  479MOL0     H63219   4.073   4.852   0.913  2.3598  0.1070  0.8709
  479MOL0     H63220   4.182   4.771   0.636  0.3671  0.6471 -1.9393
  479MOL0     H63221   4.048   4.892   0.658  2.3099  3.8632  1.4913
  479MOL0     H63222   4.314   4.922   0.788 -3.1472  0.0276  5.5002
  479MOL0     H63223   4.186   5.028   0.809  3.4817  0.2462  2.8133
  479MOL0     H63224   4.345   5.125   0.622  1.4367 -0.2194 -2.1952
  479MOL0     H63225   4.333   4.969   0.534  0.0165 -1.1440  1.2052
  479MOL0     H63226   4.001   5.210   0.413  0.3712 -0.5862 -0.3640
  479MOL0     H63227   4.145   4.509   0.930 -2.0837  1.2679  0.6471
  479MOL0     H63228   4.160   4.281   0.883 -2.6125  1.1785  2.9461
  480MOL0     O63229   9.017   1.737   5.273  0.5784 -0.5044 -0.4435
  480MOL0     C63230   9.103   1.756   5.188  0.0603  0.4419 -0.9816
  480MOL0     O63231   9.176   1.660   5.119 -0.2265 -0.4360 -0.1808
  480MOL0     C63232   9.145   1.533   5.162 -0.2715  0.6484  0.3064
  480MOL0     C63233   9.034   1.469   5.106 -0.4247 -0.2991 -1.2447
  480MOL0     C63234   9.010   1.330   5.135 -0.5711 -0.6135 -0.4257
  480MOL0     C63235   9.095   1.258   5.214 -0.3257  0.5002 -0.2956
  480MOL0     O63236   9.074   1.124   5.247 -0.9846 -0.7279  0.0263
  480MOL0     C63237   9.047   1.098   5.388  0.7178 -0.3859 -0.5423
  480MOL0     C63238   9.068   0.952   5.410 -0.5355 -0.0099  0.5140
  480MOL0     C63239   9.033   0.898   5.542  0.1855 -0.0177 -0.4339
  480MOL0     C63240   9.133   0.938   5.651 -0.1995  0.3556 -0.0612
  480MOL0     C63241   9.122   0.839   5.767 -0.2102  0.5965 -0.2883
  480MOL0     C63242   9.221   0.864   5.880  0.3706 -0.5216 -0.3362
  480MOL0     C63243   9.240   0.737   5.958 -1.2512  0.0720  0.3742
  480MOL0     C63244   9.352   0.765   6.055  0.1478 -1.1962 -0.1890
  480MOL0     N63245   9.315   0.847   6.166  0.5324 -0.7653 -0.2619
  480MOL0     C63246   9.207   0.835   6.248  0.3434 -0.7797 -0.5563
  480MOL0     C63247   9.223   0.935   6.344  0.5411  0.2558 -0.6390
  480MOL0     C63248   9.129   0.942   6.463  0.7765 -0.8531  0.0351
  480MOL0     C63249   9.190   0.982   6.601  0.1117 -0.2095 -0.6081
  480MOL0     C63250   9.279   0.866   6.644 -0.2393 -0.5649  0.5065
  480MOL0     C63251   9.341   0.905   6.772 -0.9712  0.8055 -0.2976
  480MOL0     O63252   9.413   0.798   6.827 -0.2248 -0.4225 -0.2404
  480MOL0     C63253   9.456   0.813   6.959 -0.3778  0.3788 -0.3455
  480MOL0     C63254   9.441   0.917   7.043  0.5092 -0.7474  0.0667
  480MOL0     C63255   9.501   0.929   7.168  0.5854  0.2399  0.1521
  480MOL0     C63256   9.566   0.813   7.218  0.6042 -1.0539 -0.4327
  480MOL0     C63257   9.616   0.817   7.361 -0.5417 -0.2625 -0.8536
  480MOL0     O63258   9.624   0.930   7.438  0.4916  0.0042 -0.1264
  480MOL0     C63259   9.657   0.924   7.572 -1.1890  0.4872 -1.3056
  480MOL0     C63260   9.556   0.930   7.670  0.0970 -0.3176  0.3643
  480MOL0     C63261   9.582   0.939   7.799  0.6931  0.7156 -1.2329
  480MOL0     C63262   9.717   0.915   7.847  0.9568 -0.2056  0.5299
  480MOL0     O63263   9.748   0.895   7.976  0.3507  0.2236 -0.5183
  480MOL0     C63264   9.702   0.991   8.072 -0.7027 -0.2936 -0.3383
  480MOL0     C63265   9.818   1.093   8.097 -0.1793 -0.5933 -0.6592
  480MOL0     C63266   9.826   1.169   8.226  0.1811  0.0014 -0.1692
  480MOL0     C63267   9.695   1.262   8.231 -0.3614 -0.1579 -0.5224
  480MOL0     C63268   9.722   1.378   8.328  0.8284  0.2333  0.3297
  480MOL0     C63269   9.595   1.440   8.408 -0.7509  0.1615 -0.1805
  480MOL0     C63270   9.630   1.532   8.534 -0.5027  0.5397 -0.4127
  480MOL0     C63271   9.511   1.615   8.575 -0.9500  0.2544 -0.0578
  480MOL0    Cl63272   9.382   1.502   8.636 -0.2769  0.2251 -0.3002
  480MOL0     C63273   9.825   0.913   7.754  0.8239  0.0710 -0.8511
  480MOL0     C63274   9.790   0.920   7.613  0.4984 -0.6698 -0.1188
  480MOL0     O63275   9.645   0.704   7.407 -0.7234  0.4503  0.4686
  480MOL0     C63276   9.569   0.699   7.141  0.4716  1.0151  0.2250
  480MOL0     C63277   9.523   0.703   7.008  0.1939 -0.8935  0.2671
  480MOL0     N63278   9.335   1.009   6.317  0.4032 -0.3455 -0.7941
  480MOL0     N63279   9.386   0.949   6.213  0.0808  0.1577  0.5949
  480MOL0     C63280   9.212   1.324   5.273 -0.3256 -0.5353 -1.0972
  480MOL0     C63281   9.224   1.463   5.257  0.4426 -0.1556 -1.1700
  480MOL0     C63282   9.123   1.899   5.142  0.3105 -0.8420  0.3205
  480MOL0     C63283   9.060   2.007   5.212 -0.0673 -0.5919 -0.7093
  480MOL0     C63284   9.071   2.144   5.170  0.3480  0.0726  0.1164
  480MOL0     C63285   9.153   2.178   5.059 -0.4777 -0.6467 -0.0574
  480MOL0     O63286   9.184   2.308   5.020 -0.5074  0.4630  0.5063
  480MOL0     C63287   9.141   2.429   5.092 -0.4431 -0.3039  0.2207
  480MOL0     C63288   9.208   2.548   5.009 -0.2818 -0.1719 -1.0771
  480MOL0     C63289   9.127   2.572   4.882  0.4665  0.2620 -0.3323
  480MOL0     C63290   9.167   2.700   4.812  0.2360  0.0978 -0.1638
  480MOL0     C63291   9.056   2.733   4.714 -1.3946 -0.1506 -0.3768
  480MOL0     C63292   8.963   2.784   4.653 -0.2932 -0.1062 -0.5787
  480MOL0     C63293   9.216   2.072   4.999 -0.1797  0.2751  0.2682
  480MOL0     C63294   9.190   1.938   5.030  0.7562  0.8456 -0.1319
  480MOL0     H63295   8.960   1.515   5.041  1.3446  0.0354 -3.1440
  480MOL0     H63296   8.930   1.270   5.094  2.6427 -2.9807 -3.8784
  480MOL0     H63297   8.947   1.133   5.416  0.9680  1.9177 -2.2053
  480MOL0     H63298   9.110   1.159   5.454 -0.6752 -0.3602  0.8189
  480MOL0     H63299   9.173   0.929   5.392 -1.1910 -2.8015 -0.3357
  480MOL0     H63300   9.013   0.900   5.331  1.7419  0.5309 -1.5555
  480MOL0     H63301   9.019   0.793   5.517  3.3082 -1.0842  1.7260
  480MOL0     H63302   8.934   0.938   5.565 -0.1493 -0.9127 -0.2955
  480MOL0     H63303   9.233   0.927   5.608  0.4474  1.7022  1.0516
  480MOL0     H63304   9.113   1.040   5.686 -2.0780 -0.6078  1.9299
  480MOL0     H63305   9.101   0.736   5.739 -0.5551  0.9048 -1.2183
  480MOL0     H63306   9.027   0.864   5.814  0.3397  1.0247  0.6199
  480MOL0     H63307   9.185   0.941   5.949 -2.0487 -1.4513 -0.4830
  480MOL0     H63308   9.313   0.904   5.837  0.0406  0.2259 -0.3636
  480MOL0     H63309   9.150   0.707   6.013 -0.8728  1.8751  2.0759
  480MOL0     H63310   9.268   0.650   5.898 -1.3176  0.3274 -0.0331
  480MOL0     H63311   9.420   0.827   5.996 -1.5841 -0.6386 -1.6820
  480MOL0     H63312   9.407   0.674   6.082 -0.5894 -1.2660  1.1878
  480MOL0     H63313   9.124   0.766   6.260  1.4594 -1.6841  3.1494
  480MOL0     H63314   9.070   0.852   6.482  0.3200 -1.0493 -2.0600
  480MOL0     H63315   9.062   1.025   6.436  3.9759  2.1855  0.6287
  480MOL0     H63316   9.108   1.008   6.668  0.1096 -0.7239 -0.4006
  480MOL0     H63317   9.248   1.074   6.592 -3.6094  2.3480 -0.5619
  480MOL0     H63318   9.217   0.777   6.663 -0.2226 -0.4535  1.0913
  480MOL0     H63319   9.355   0.861   6.566 -1.7174 -1.5383 -0.9597
  480MOL0     H63320   9.269   0.934   6.849 -0.3786  1.2846  0.0909
  480MOL0     H63321   9.408   0.990   6.758 -0.5316  0.4585 -0.3370
  480MOL0     H63322   9.384   1.003   7.009  1.2187  0.3006  1.4341
  480MOL0     H63323   9.488   1.014   7.233  2.6364  0.7565 -0.0402
  480MOL0     H63324   9.456   0.933   7.627 -0.1053 -2.5871  0.5523
  480MOL0     H63325   9.499   0.949   7.868  1.2217 -1.0330 -0.2886
  480MOL0     H63326   9.697   0.933   8.164 -1.6244 -1.8181 -1.3052
  480MOL0     H63327   9.608   1.040   8.046  1.2450  1.5797 -5.0673
  480MOL0     H63328   9.823   1.175   8.026 -0.6436 -1.2242 -1.4357
  480MOL0     H63329   9.907   1.033   8.075 -0.8888 -1.5794 -0.9355
  480MOL0     H63330   9.915   1.233   8.226 -1.1861  2.1336  3.0327
  480MOL0     H63331   9.847   1.110   8.315  1.2147 -0.7727 -0.8967
  480MOL0     H63332   9.661   1.287   8.131 -1.3944 -0.0401 -0.1570
  480MOL0     H63333   9.609   1.214   8.279 -0.7954 -0.3491 -1.4855
  480MOL0     H63334   9.778   1.463   8.287  0.1241 -0.6806 -2.7960
  480MOL0     H63335   9.790   1.332   8.400  1.5792 -0.8552 -1.0098
  480MOL0     H63336   9.531   1.361   8.449 -4.5292  1.3777 -3.2434
  480MOL0     H63337   9.532   1.495   8.339 -1.6547 -0.7204 -0.0760
  480MOL0     H63338   9.666   1.484   8.625  0.4092  2.0880  0.0843
  480MOL0     H63339   9.706   1.605   8.503 -1.0322  0.5795 -1.6927
  480MOL0     H63340   9.473   1.672   8.490 -2.8925 -0.3132  0.3688
  480MOL0     H63341   9.536   1.682   8.658  0.1903  1.9056 -1.6590
  480MOL0     H63342   9.925   0.897   7.794  0.2100  0.7380  1.0591
  480MOL0     H63343   9.865   0.918   7.535 -1.0285  0.0957 -1.6759
  480MOL0     H63344   9.606   0.605   7.182 -0.0110  1.4306  1.6744
  480MOL0     H63345   9.539   0.621   6.939  2.6031 -0.0574 -0.2502
  480MOL0     H63346   9.282   1.276   5.341  1.6344  2.3758 -0.9016
  480MOL0     H63347   9.290   1.509   5.329 -2.5464 -1.0033  2.3889
  480MOL0     H63348   9.012   1.985   5.307  1.1000  0.7668  0.2431
  480MOL0     H63349   9.009   2.209   5.231 -1.4277 -0.8995 -0.5804
  480MOL0     H63350   9.172   2.430   5.197  1.1039  4.3429 -0.0495
  480MOL0     H63351   9.032   2.425   5.096 -0.5296  1.9062  2.0053
  480MOL0     H63352   9.207   2.634   5.077  0.8268  1.3255 -2.8699
  480MOL0     H63353   9.313   2.533   4.985 -0.4590 -1.1255 -1.3065
  480MOL0     H63354   9.019   2.573   4.901  0.5647 -1.0695  0.4438
  480MOL0     H63355   9.153   2.486   4.819  0.7752  0.0637  0.0594
  480MOL0     H63356   9.179   2.788   4.876  1.9938 -0.0533 -0.2570
  480MOL0     H63357   9.259   2.687   4.755 -0.3664 -2.6725 -0.6370
  480MOL0     H63358   8.899   2.821   4.575  0.2360 -0.9027 -1.4218
  480MOL0     H63359   9.272   2.093   4.908 -0.2179 -0.6483  0.0192
  480MOL0     H63360   9.213   1.848   4.974 -3.6198 -0.6123  0.0782
  481MOL0     O63361   3.706   7.426   3.289 -0.0108  0.1623  0.3183
  481MOL0     C63362   3.737   7.489   3.186 -0.1957  0.3839  0.3067
  481MOL0     O63363   3.842   7.450   3.090  0.2113 -0.4036 -0.5589
  481MOL0     C63364   3.882   7.317   3.113  0.5040 -0.4774 -0.0520
  481MOL0     C63365   4.004   7.278   3.152  0.5119 -0.6305  0.5832
  481MOL0     C63366   4.038   7.142   3.175  0.2986 -0.3457  0.0747
  481MOL0     C63367   3.942   7.036   3.142 -0.1076 -0.6477  0.2477
  481MOL0     O63368   3.983   6.903   3.153 -0.0803 -0.4261 -0.3011
  481MOL0     C63369   3.885   6.795   3.135 -0.4910 -0.5220 -0.4583
  481MOL0     C63370   3.966   6.666   3.162  0.2881  0.4569  0.4820
  481MOL0     C63371   4.015   6.630   3.309  0.8971 -0.1665 -0.3093
  481MOL0     C63372   4.093   6.502   3.314 -0.9797  0.4716 -0.0142
  481MOL0     C63373   4.072   6.415   3.429 -0.4906 -0.5226  0.5585
  481MOL0     C63374   4.141   6.291   3.404 -0.1077 -0.1299 -0.0542
  481MOL0     C63375   4.138   6.188   3.522  0.5146  0.5398  0.5868
  481MOL0     C63376   4.232   6.224   3.639 -0.6871 -0.9819 -0.1177
  481MOL0     N63377   4.197   6.166   3.765  0.5873 -0.3424 -0.3357
  481MOL0     C63378   4.238   6.046   3.818 -0.8587 -0.3471 -0.4998
  481MOL0     C63379   4.201   6.041   3.945  1.3217  0.8923  0.5359
  481MOL0     C63380   4.232   5.916   4.030  1.0852 -0.1408  0.1600
  481MOL0     C63381   4.111   5.823   4.036 -0.6332  0.6451 -0.2995
  481MOL0     C63382   4.138   5.697   4.130 -0.0627 -0.6823 -0.7168
  481MOL0     C63383   4.078   5.570   4.064  0.4593  0.6874 -0.4313
  481MOL0     O63384   4.131   5.548   3.935  0.0592  0.0233  0.1948
  481MOL0     C63385   4.259   5.499   3.919  0.0475  0.2168 -0.2285
  481MOL0     C63386   4.338   5.423   4.004 -0.0397  0.2153 -0.3828
  481MOL0     C63387   4.472   5.386   3.971  0.6161 -0.4725  0.4233
  481MOL0     C63388   4.519   5.428   3.850 -0.6100 -0.8108  0.6006
  481MOL0     C63389   4.657   5.381   3.816 -0.1783  0.0772  0.0003
  481MOL0     O63390   4.689   5.259   3.843  0.4295  0.3556  0.2600
  481MOL0     C63391   4.807   5.205   3.807 -1.3796 -0.1506 -0.1527
  481MOL0     C63392   4.820   5.119   3.703  0.1081 -0.1745 -0.3358
  481MOL0     C63393   4.947   5.101   3.650 -0.1952  0.4575 -0.1836
  481MOL0     C63394   5.064   5.169   3.700 -0.7770 -0.4237  0.3788
  481MOL0     O63395   5.194   5.143   3.653 -0.0469 -0.3152  0.0710
  481MOL0     C63396   5.199   5.122   3.511 -0.7732 -0.4505 -0.6123
  481MOL0     C63397   5.340   5.145   3.447  0.2797  0.3491  0.4859
  481MOL0     C63398   5.453   5.087   3.534  0.6643 -0.1939 -0.9700
  481MOL0     C63399   5.586   5.107   3.470 -0.0007 -0.6748 -0.1468
  481MOL0     C63400   5.694   5.075   3.577  0.3725 -0.4447 -0.6434
  481MOL0     C63401   5.731   4.927   3.590 -0.2574  0.0623 -0.2020
  481MOL0     C63402   5.872   4.931   3.671 -0.4933  0.7921  0.4551
  481MOL0     C63403   5.886   4.794   3.747  0.0020  0.5226  0.8461
  481MOL0    Cl63404   5.897   4.665   3.626 -0.0713 -0.0088 -0.2426
  481MOL0     C63405   5.047   5.248   3.818  0.7167  0.0174  1.6857
  481MOL0     C63406   4.917   5.267   3.866  0.4652  0.2372 -0.5150
  481MOL0     O63407   4.718   5.451   3.742 -0.8193  0.6453  0.4324
  481MOL0     C63408   4.439   5.493   3.754  0.2986 -0.3613  0.8694
  481MOL0     C63409   4.312   5.525   3.796  0.6602 -0.5862 -0.5730
  481MOL0     N63410   4.111   6.147   3.965  0.5244  0.6194 -0.1044
  481MOL0     N63411   4.116   6.217   3.860 -0.2392 -0.3823 -0.3069
  481MOL0     C63412   3.815   7.076   3.103  0.1565 -1.5453 -0.6891
  481MOL0     C63413   3.786   7.215   3.084  0.1634 -0.3941 -0.5063
  481MOL0     C63414   3.690   7.627   3.162 -0.0106  0.5387 -0.0818
  481MOL0     C63415   3.702   7.685   3.030 -0.0485  0.2437 -0.1560
  481MOL0     C63416   3.654   7.809   3.006  1.1239 -0.1299  0.2827
  481MOL0     C63417   3.593   7.881   3.111  0.2264 -0.0212  0.2258
  481MOL0     O63418   3.535   8.015   3.090  0.0291  0.0990 -0.8364
  481MOL0     C63419   3.492   8.052   2.958  0.9345  0.1752  0.1327
  481MOL0     C63420   3.401   8.172   2.969 -0.5770  0.0187 -0.6545
  481MOL0     C63421   3.283   8.152   3.065 -0.2051 -0.1407  0.2082
  481MOL0     C63422   3.232   8.276   3.139  0.7027 -0.3797 -0.8420
  481MOL0     C63423   3.177   8.377   3.046 -0.6412 -0.7071  0.8577
  481MOL0     C63424   3.138   8.456   2.957 -0.2175  0.0749 -0.2218
  481MOL0     C63425   3.598   7.833   3.245 -1.0396  0.1890  0.2796
  481MOL0     C63426   3.644   7.706   3.261  1.0123  0.5146 -0.1380
  481MOL0     H63427   4.084   7.351   3.158  1.2724 -1.4771  1.0693
  481MOL0     H63428   4.138   7.112   3.206  0.8011 -4.3489 -4.2224
  481MOL0     H63429   3.859   6.804   3.029  2.0232  1.0812 -1.0314
  481MOL0     H63430   3.805   6.809   3.208  1.1651  3.3309  0.8473
  481MOL0     H63431   4.058   6.688   3.106  0.3092 -0.0927  0.2924
  481MOL0     H63432   3.918   6.580   3.113  1.3651 -1.1103  2.0613
  481MOL0     H63433   3.920   6.628   3.363  0.0775  1.6844 -1.5667
  481MOL0     H63434   4.086   6.707   3.339 -0.3553 -0.0455  2.6490
  481MOL0     H63435   4.052   6.442   3.232 -0.8584  3.9740 -2.8723
  481MOL0     H63436   4.200   6.516   3.297 -1.1691  2.4857  0.1642
  481MOL0     H63437   3.963   6.409   3.438 -1.0887  1.8165 -3.0089
  481MOL0     H63438   4.119   6.467   3.513 -1.4736  1.6561 -0.1507
  481MOL0     H63439   4.244   6.323   3.386 -0.9427  1.8543 -1.6356
  481MOL0     H63440   4.103   6.237   3.317 -2.2730  2.5481 -0.9033
  481MOL0     H63441   4.033   6.184   3.552 -0.4155 -2.3640 -2.4068
  481MOL0     H63442   4.172   6.089   3.491 -0.9727 -0.3269  1.5861
  481MOL0     H63443   4.236   6.333   3.651  2.1851 -1.0491  0.1368
  481MOL0     H63444   4.333   6.191   3.615  0.3008  1.9004 -0.3390
  481MOL0     H63445   4.307   5.980   3.767  2.6218  0.2507  2.9430
  481MOL0     H63446   4.274   5.955   4.124  0.5392  1.2867 -0.1649
  481MOL0     H63447   4.306   5.858   3.975 -0.9610 -3.3397  0.5389
  481MOL0     H63448   4.094   5.798   3.930  0.2024 -1.4675  0.0105
  481MOL0     H63449   4.019   5.855   4.086 -2.2835 -2.9257 -0.6761
  481MOL0     H63450   4.246   5.681   4.135  0.3719  2.1712  1.2681
  481MOL0     H63451   4.104   5.711   4.233  1.9762 -3.0602  0.3759
  481MOL0     H63452   3.972   5.597   4.064  0.7381  1.8053 -1.0338
  481MOL0     H63453   4.076   5.480   4.127  0.1946 -1.3734 -3.2093
  481MOL0     H63454   4.285   5.383   4.089 -1.5716  2.6339 -0.1192
  481MOL0     H63455   4.542   5.330   4.032  0.2181 -1.8521 -0.3297
  481MOL0     H63456   4.731   5.067   3.667 -0.4883  2.8716 -3.9024
  481MOL0     H63457   4.952   5.014   3.585  0.1389 -1.1237  1.8575
  481MOL0     H63458   5.130   5.188   3.457 -1.1634  1.1827  1.7259
  481MOL0     H63459   5.164   5.019   3.498 -0.1666 -1.0003  1.7821
  481MOL0     H63460   5.360   5.252   3.442  1.9514  0.2428  3.0940
  481MOL0     H63461   5.343   5.108   3.344  3.5221  1.9555 -0.1083
  481MOL0     H63462   5.428   4.982   3.549 -0.6718 -0.0280 -1.9013
  481MOL0     H63463   5.466   5.133   3.632  0.5072 -1.1059 -0.5132
  481MOL0     H63464   5.602   5.045   3.381  2.2752 -1.1115  0.5056
  481MOL0     H63465   5.596   5.209   3.431  1.1817  0.4014  2.6820
  481MOL0     H63466   5.670   5.116   3.675  2.8321 -1.4267  0.4610
  481MOL0     H63467   5.777   5.124   3.525 -0.6586  1.1810 -0.8493
  481MOL0     H63468   5.743   4.873   3.496 -1.1441 -1.4710  0.5401
  481MOL0     H63469   5.662   4.879   3.659  1.4355 -1.3148  0.5908
  481MOL0     H63470   5.961   4.936   3.608 -3.2880  1.8954 -3.8547
  481MOL0     H63471   5.873   5.014   3.742 -4.8899 -0.1953  2.0344
  481MOL0     H63472   5.799   4.785   3.813 -2.5817  1.5375 -2.1723
  481MOL0     H63473   5.974   4.777   3.810  1.0290  3.4815  0.3647
  481MOL0     H63474   5.138   5.299   3.849  1.1720  1.1744 -1.2232
  481MOL0     H63475   4.913   5.346   3.941 -1.0822 -0.9566  0.7224
  481MOL0     H63476   4.471   5.521   3.654 -1.1813  1.4404  0.8465
  481MOL0     H63477   4.258   5.587   3.725  0.7517 -1.0626 -1.0669
  481MOL0     H63478   3.741   7.003   3.073 -0.5500 -0.5802 -1.3476
  481MOL0     H63479   3.696   7.247   3.032  0.9445  1.5709 -0.7478
  481MOL0     H63480   3.754   7.620   2.960 -0.7479 -2.0758  1.3805
  481MOL0     H63481   3.668   7.850   2.906  0.4100 -1.6872 -0.5001
  481MOL0     H63482   3.443   7.967   2.911 -0.0109  2.2006 -2.8058
  481MOL0     H63483   3.585   8.080   2.907  0.7530  3.0933  1.1874
  481MOL0     H63484   3.450   8.258   3.014 -2.4789 -0.1453  1.9045
  481MOL0     H63485   3.360   8.209   2.875  1.0803  1.3774 -0.9074
  481MOL0     H63486   3.307   8.077   3.141  0.0279 -2.2403 -1.8482
  481MOL0     H63487   3.197   8.123   3.005  1.9910  1.8855 -4.4291
  481MOL0     H63488   3.159   8.267   3.220  2.3619  0.1495  0.7998
  481MOL0     H63489   3.317   8.318   3.193 -0.3476 -1.9384  2.2708
  481MOL0     H63490   3.109   8.532   2.888  1.1267 -0.4501 -1.4094
  481MOL0     H63491   3.546   7.885   3.324 -0.4592  0.4867  0.4751
  481MOL0     H63492   3.638   7.662   3.360  0.8450 -1.0665 -0.8194
  482MOL0     O63493   3.466  11.202   8.281 -0.4748 -0.2546  0.3097
  482MOL0     C63494   3.495  11.231   8.393 -0.1090 -0.1202  0.7352
  482MOL0     O63495   3.561  11.349   8.422  0.2641 -0.5810  1.4849
  482MOL0     C63496   3.601  11.435   8.326 -0.2407  0.5081  0.1872
  482MOL0     C63497   3.567  11.571   8.343  0.3452 -0.3144  0.5888
  482MOL0     C63498   3.593  11.664   8.242  0.4283  0.2339 -0.4118
  482MOL0     C63499   3.661  11.626   8.127  0.4940  0.2246 -0.1117
  482MOL0     O63500   3.707  11.702   8.023  0.6878 -0.0573 -0.2750
  482MOL0     C63501   3.606  11.805   7.982 -0.0102 -0.2524 -1.0108
  482MOL0     C63502   3.529  11.768   7.850  0.6005  0.4675  0.0526
  482MOL0     C63503   3.431  11.879   7.803 -0.1261 -0.5370  0.4283
  482MOL0     C63504   3.311  11.910   7.894 -0.9639 -0.1161 -1.5988
  482MOL0     C63505   3.196  11.987   7.828 -0.4660  0.0917 -0.0520
  482MOL0     C63506   3.218  12.143   7.810 -0.0545 -0.2126 -0.6528
  482MOL0     C63507   3.130  12.202   7.695 -0.0854  0.6056  0.0491
  482MOL0     C63508   2.979  12.225   7.711  0.0925 -0.6001 -0.5102
  482MOL0     N63509   2.939  12.339   7.779 -0.4082 -0.3387  0.9254
  482MOL0     C63510   2.920  12.332   7.919 -0.7256  0.0224 -0.0724
  482MOL0     C63511   2.877  12.465   7.945 -0.9564  0.4079  0.6223
  482MOL0     C63512   2.834  12.521   8.079 -0.1058 -0.3933 -0.5472
  482MOL0     C63513   2.831  12.673   8.085 -0.2985  0.6993 -0.0080
  482MOL0     C63514   2.760  12.708   8.219  0.3375 -0.1332 -0.3473
  482MOL0     C63515   2.857  12.699   8.340  0.1240  0.6572  0.5943
  482MOL0     O63516   2.788  12.735   8.461  0.3615 -0.2075  0.5291
  482MOL0     C63517   2.839  12.791   8.569 -0.0632 -0.0311  0.8251
  482MOL0     C63518   2.977  12.784   8.592 -0.1087 -0.1469  0.2268
  482MOL0     C63519   3.036  12.811   8.720 -0.4628 -0.0691 -0.1757
  482MOL0     C63520   2.954  12.859   8.820  0.0136  0.5844  0.6990
  482MOL0     C63521   3.016  12.905   8.949 -0.4594 -0.4023 -0.6226
  482MOL0     O63522   2.943  12.928   9.059  0.6446  1.0136 -0.4141
  482MOL0     C63523   2.981  12.952   9.187 -0.2667  0.3470  0.9094
  482MOL0     C63524   2.875  12.963   9.275 -1.3253 -1.1512  0.2448
  482MOL0     C63525   2.900  12.976   9.409 -0.5889 -1.3578 -0.4323
  482MOL0     C63526   3.031  12.986   9.466 -0.1694 -1.1357  0.2390
  482MOL0     O63527   3.053  12.983   9.602 -0.2625 -0.3412 -0.4674
  482MOL0     C63528   3.168  13.044   9.659  0.3473  0.7060  0.2495
  482MOL0     C63529   3.141  13.097   9.802 -0.5861 -0.9420 -0.3971
  482MOL0     C63530   3.022  13.185   9.820  0.9402 -0.2426  0.0885
  482MOL0     C63531   2.975  13.274   9.708  0.7458 -0.1241 -0.4205
  482MOL0     C63532   2.837  13.330   9.734 -0.3304  0.4399 -0.0919
  482MOL0     C63533   2.734  13.228   9.676  0.3999  0.0459 -0.9186
  482MOL0     C63534   2.590  13.283   9.675 -0.2212  0.3500  0.4988
  482MOL0     C63535   2.518  13.233   9.808 -0.1217  0.2103  0.6578
  482MOL0    Cl63536   2.347  13.294   9.783  0.3779 -0.1429  0.5162
  482MOL0     C63537   3.139  12.982   9.380 -0.2876  0.1681 -0.1308
  482MOL0     C63538   3.116  12.978   9.242  0.1317  0.1977 -0.0715
  482MOL0     O63539   3.132  12.939   8.950 -0.3456  1.2882  0.1079
  482MOL0     C63540   2.818  12.868   8.789  0.6863 -0.0735  0.2246
  482MOL0     C63541   2.757  12.824   8.672  0.1022  0.0443  0.4482
  482MOL0     N63542   2.903  12.544   7.831  0.3156 -0.0182  0.3136
  482MOL0     N63543   2.931  12.466   7.729  0.6007  0.0395 -0.3354
  482MOL0     C63544   3.694  11.491   8.117 -0.8792  0.4516 -0.6192
  482MOL0     C63545   3.669  11.395   8.213 -0.2457  0.7540  0.3301
  482MOL0     C63546   3.426  11.137   8.485  0.9659 -0.1110 -0.8576
  482MOL0     C63547   3.352  11.020   8.444 -0.3506 -0.0587 -0.3887
  482MOL0     C63548   3.298  10.941   8.539 -0.2278  0.2053 -1.2620
  482MOL0     C63549   3.303  10.972   8.681 -0.7412  0.0273 -0.2254
  482MOL0     O63550   3.257  10.890   8.781 -0.8264  0.2628 -0.4535
  482MOL0     C63551   3.166  10.784   8.744  0.4800 -0.7093  1.0629
  482MOL0     C63552   3.128  10.707   8.881  0.7620  0.2257 -0.4261
  482MOL0     C63553   3.031  10.799   8.953 -0.9414  0.3032  0.2966
  482MOL0     C63554   2.956  10.752   9.074 -0.6552 -0.0515 -0.4731
  482MOL0     C63555   2.881  10.623   9.064 -0.9247  0.1198 -0.1966
  482MOL0     C63556   2.832  10.511   9.067 -0.2027 -0.4483 -0.2398
  482MOL0     C63557   3.380  11.083   8.720 -0.8341  0.2015 -0.6412
  482MOL0     C63558   3.437  11.167   8.623 -0.5258 -0.2002  0.2772
  482MOL0     H63559   3.512  11.606   8.430  0.4005 -0.6097  0.7473
  482MOL0     H63560   3.573  11.768   8.262 -1.3045 -0.2821  0.7382
  482MOL0     H63561   3.667  11.890   7.951  2.2290 -1.7244 -0.9003
  482MOL0     H63562   3.538  11.836   8.062  4.0725  0.6834  2.4206
  482MOL0     H63563   3.476  11.674   7.865  0.8918  0.4638  1.1245
  482MOL0     H63564   3.593  11.761   7.761 -1.4829  0.0435 -1.4679
  482MOL0     H63565   3.389  11.829   7.715 -0.6999 -3.3035  2.1192
  482MOL0     H63566   3.478  11.973   7.777 -0.0655 -0.7489 -0.2470
  482MOL0     H63567   3.263  11.823   7.940 -2.3517  1.0517 -0.7216
  482MOL0     H63568   3.344  11.967   7.982  3.1580 -3.4145 -0.6891
  482MOL0     H63569   3.104  11.977   7.885  0.0417 -2.6788  0.4209
  482MOL0     H63570   3.185  11.948   7.726  0.7308 -1.2674  0.3004
  482MOL0     H63571   3.322  12.163   7.783  0.2429  0.9847  1.1664
  482MOL0     H63572   3.200  12.195   7.905 -2.6615  2.0780 -2.2199
  482MOL0     H63573   3.186  12.289   7.660 -0.2005  0.3271 -0.8751
  482MOL0     H63574   3.146  12.129   7.614  4.6945 -1.2151  2.2012
  482MOL0     H63575   2.932  12.139   7.759 -0.4961  1.4505  2.9463
  482MOL0     H63576   2.932  12.236   7.613  1.0693 -1.6624 -1.1300
  482MOL0     H63577   2.917  12.249   7.989  3.4293 -1.2230 -1.0544
  482MOL0     H63578   2.908  12.490   8.154 -0.3265 -1.1032 -0.6129
  482MOL0     H63579   2.739  12.483   8.117  1.9731 -4.6015  1.0577
  482MOL0     H63580   2.775  12.703   7.996 -0.6256 -2.4734 -1.0138
  482MOL0     H63581   2.932  12.712   8.070  0.1424 -0.3599  0.1538
  482MOL0     H63582   2.737  12.813   8.200 -4.5478 -1.5298 -4.6960
  482MOL0     H63583   2.669  12.647   8.218  0.8432 -0.9092 -1.3220
  482MOL0     H63584   2.936  12.773   8.323  0.1519  1.2540  3.0434
  482MOL0     H63585   2.895  12.597   8.352 -2.3933 -1.0647 -3.6227
  482MOL0     H63586   3.033  12.733   8.515  1.1087  0.5187  0.6379
  482MOL0     H63587   3.143  12.817   8.737 -0.7051  0.2703  1.3691
  482MOL0     H63588   2.775  12.928   9.249 -1.1854 -2.1049  0.9561
  482MOL0     H63589   2.819  12.965   9.480  0.1051 -2.5877  0.2137
  482MOL0     H63590   3.197  13.124   9.590 -0.2539 -0.8657 -1.9402
  482MOL0     H63591   3.257  12.980   9.657  0.3020  0.6657 -0.5655
  482MOL0     H63592   3.231  13.147   9.837 -0.6601  0.5684 -2.2295
  482MOL0     H63593   3.124  13.009   9.865 -3.9266 -0.9546 -1.1468
  482MOL0     H63594   3.037  13.240   9.914  3.0244  0.0279 -0.3566
  482MOL0     H63595   2.941  13.126   9.863  1.8147  0.0887  2.3656
  482MOL0     H63596   3.055  13.348   9.710  0.1575  0.7162 -3.1276
  482MOL0     H63597   2.994  13.233   9.608  4.7299  0.1381  0.0567
  482MOL0     H63598   2.820  13.427   9.686 -3.1487  1.3230  2.3579
  482MOL0     H63599   2.814  13.331   9.841  0.3041 -1.5807  0.0956
  482MOL0     H63600   2.746  13.140   9.740  2.8946  0.3695 -0.8647
  482MOL0     H63601   2.767  13.205   9.574  0.5376 -3.1668 -0.2452
  482MOL0     H63602   2.584  13.392   9.675  0.0332  0.3639  0.6005
  482MOL0     H63603   2.540  13.241   9.586 -0.0012  0.4631  0.3212
  482MOL0     H63604   2.561  13.270   9.901 -2.5908  1.1089  1.5160
  482MOL0     H63605   2.531  13.124   9.808  0.4415  0.2356 -1.1963
  482MOL0     H63606   3.245  12.989   9.399  0.1148 -0.1895 -2.1154
  482MOL0     H63607   3.205  12.962   9.182  0.9181 -0.3127  1.2056
  482MOL0     H63608   2.747  12.904   8.863  0.4136  0.7878 -0.4420
  482MOL0     H63609   2.650  12.830   8.650 -0.1151 -0.4209  1.3423
  482MOL0     H63610   3.757  11.465   8.032  1.8764  1.3124  1.0399
  482MOL0     H63611   3.701  11.292   8.206  1.9900  1.4545 -0.9163
  482MOL0     H63612   3.330  10.987   8.343 -2.3595  1.9101 -0.6748
  482MOL0     H63613   3.254  10.847   8.508 -0.2955 -0.9101  1.8297
  482MOL0     H63614   3.203  10.713   8.670  2.9758  1.2296  0.3460
  482MOL0     H63615   3.079  10.831   8.698 -0.2253 -2.7735  0.1493
  482MOL0     H63616   3.077  10.610   8.869 -1.1420  1.3166 -1.7087
  482MOL0     H63617   3.217  10.692   8.943 -0.1159  0.4460  0.9433
  482MOL0     H63618   2.961  10.824   8.873  1.0738  0.3427 -1.5169
  482MOL0     H63619   3.092  10.884   8.984  0.4102 -1.3772  2.6518
  482MOL0     H63620   3.028  10.742   9.156  2.3897 -0.9837 -3.0238
  482MOL0     H63621   2.880  10.831   9.078 -0.5925  0.0666 -1.4460
  482MOL0     H63622   2.777  10.421   9.087  0.3393 -0.7697 -0.1737
  482MOL0     H63623   3.392  11.101   8.826 -2.0899  2.2027 -0.7887
  482MOL0     H63624   3.498  11.250   8.658 -1.0624 -1.3032  4.3190
  483MOL0     O63625   6.330   8.289   3.233 -0.1015  0.5267 -0.0811
  483MOL0     C63626   6.298   8.182   3.285  0.3547 -0.0734  0.1642
  483MOL0     O63627   6.298   8.057   3.224  0.1142  1.0764  0.0942
  483MOL0     C63628   6.331   8.045   3.091 -0.3474 -0.3052  0.6809
  483MOL0     C63629   6.467   8.045   3.037  0.1542  0.2588 -0.8664
  483MOL0     C63630   6.490   8.012   2.897  1.1473 -0.0292 -0.3085
  483MOL0     C63631   6.374   7.992   2.818  0.6873  1.0479  0.0276
  483MOL0     O63632   6.364   7.977   2.686  0.7330  0.7181 -0.1201
  483MOL0     C63633   6.472   8.013   2.610  0.3149  0.3208  0.5046
  483MOL0     C63634   6.421   8.015   2.471 -0.4259 -0.5139  0.1975
  483MOL0     C63635   6.327   8.136   2.428 -1.1737 -0.0286  0.0477
  483MOL0     C63636   6.277   8.116   2.291  0.9328 -0.5699 -0.5943
  483MOL0     C63637   6.182   8.227   2.232  0.9029 -0.2411  1.3636
  483MOL0     C63638   6.173   8.242   2.077 -0.7322  1.0088 -0.8835
  483MOL0     C63639   6.116   8.115   2.001 -0.8922 -0.5464 -0.8351
  483MOL0     C63640   6.134   8.134   1.846 -0.9636  0.2876  0.1046
  483MOL0     N63641   6.064   8.033   1.772 -0.4203 -0.2696  0.3033
  483MOL0     C63642   6.064   7.898   1.801  1.0429  0.2267  1.7372
  483MOL0     C63643   5.993   7.842   1.694 -0.0977  0.5774 -0.7687
  483MOL0     C63644   5.952   7.700   1.677  0.4037 -0.6137  0.1794
  483MOL0     C63645   5.835   7.661   1.771  0.0216  0.8382 -0.9498
  483MOL0     C63646   5.881   7.647   1.922  0.6618  0.8038 -0.2199
  483MOL0     C63647   5.996   7.549   1.959 -0.1393 -1.0453 -0.4555
  483MOL0     O63648   5.961   7.407   1.934  1.0183  0.6530 -0.1432
  483MOL0     C63649   5.884   7.323   2.017  0.3750  0.2357  0.3980
  483MOL0     C63650   5.850   7.351   2.140  0.5933  0.5309 -0.0319
  483MOL0     C63651   5.772   7.257   2.213 -0.7544  0.5489 -0.2956
  483MOL0     C63652   5.750   7.127   2.164 -0.4970 -0.2105  0.9413
  483MOL0     C63653   5.662   7.028   2.245  0.1989  0.1286 -0.4988
  483MOL0     O63654   5.620   7.078   2.368 -0.3844  0.7322  0.1912
  483MOL0     C63655   5.576   6.987   2.461  0.2160 -0.4828 -0.5409
  483MOL0     C63656   5.633   6.864   2.481 -0.9864 -0.7344 -0.1602
  483MOL0     C63657   5.574   6.772   2.566 -0.7264 -0.3226  0.2087
  483MOL0     C63658   5.448   6.798   2.625  0.2864 -0.0278  0.2943
  483MOL0     O63659   5.371   6.703   2.668  0.4520  0.5781  0.7263
  483MOL0     C63660   5.392   6.568   2.639 -0.2298 -1.1146 -0.7776
  483MOL0     C63661   5.293   6.484   2.703  0.9216  0.2619 -0.1446
  483MOL0     C63662   5.326   6.457   2.844 -0.6884 -0.7572  0.8369
  483MOL0     C63663   5.239   6.360   2.918 -0.1797 -0.9851 -0.7464
  483MOL0     C63664   5.108   6.426   2.974 -0.0120  0.5304 -0.4240
  483MOL0     C63665   5.010   6.311   3.025  0.5887 -1.1295 -0.1876
  483MOL0     C63666   5.066   6.230   3.138  0.6022 -0.7662 -0.6425
  483MOL0     C63667   4.957   6.159   3.218  1.1289  1.2430 -0.2098
  483MOL0    Cl63668   5.042   6.073   3.349  0.1542 -0.2403  0.5016
  483MOL0     C63669   5.393   6.922   2.618 -0.8874 -0.2015  1.5431
  483MOL0     C63670   5.465   7.013   2.538 -0.2255 -0.7940 -0.1310
  483MOL0     O63671   5.633   6.919   2.201 -0.1239 -0.6956 -0.1230
  483MOL0     C63672   5.801   7.098   2.038 -1.0664  0.9626  0.3650
  483MOL0     C63673   5.859   7.198   1.958 -0.3021 -0.3690 -1.1231
  483MOL0     N63674   5.966   7.939   1.604  0.2061 -0.0687 -0.1499
  483MOL0     N63675   6.004   8.057   1.656  0.1439 -1.2959 -0.6736
  483MOL0     C63676   6.242   8.001   2.872  0.6698  0.0924  0.2718
  483MOL0     C63677   6.224   8.023   3.008  0.2131 -0.4199 -0.3890
  483MOL0     C63678   6.250   8.190   3.425 -0.0399 -0.5126  0.0547
  483MOL0     C63679   6.242   8.082   3.506 -0.5821 -0.0709 -0.0843
  483MOL0     C63680   6.200   8.082   3.636  0.4253  0.7466  0.0294
  483MOL0     C63681   6.142   8.197   3.699 -0.0884 -0.9675  0.0663
  483MOL0     O63682   6.085   8.183   3.823  0.0592 -0.6238  0.4197
  483MOL0     C63683   6.048   8.300   3.899 -0.5088  0.4784  0.0714
  483MOL0     C63684   6.168   8.387   3.947  0.1463 -0.7281 -0.9618
  483MOL0     C63685   6.252   8.325   4.059  1.2264 -0.7982 -0.7166
  483MOL0     C63686   6.372   8.401   4.108 -0.3777  0.3548  0.4392
  483MOL0     C63687   6.421   8.340   4.236 -0.2146  0.7638  0.0983
  483MOL0     C63688   6.440   8.291   4.345 -0.8445 -0.2354  0.6774
  483MOL0     C63689   6.127   8.312   3.610  0.2801 -0.4801  0.3495
  483MOL0     C63690   6.184   8.306   3.479 -0.3463  0.4609  0.4455
  483MOL0     H63691   6.552   8.057   3.102 -0.3546  0.6363 -0.2580
  483MOL0     H63692   6.588   7.986   2.859  0.4279 -0.3630 -2.0741
  483MOL0     H63693   6.550   7.937   2.616 -1.8977 -2.3170 -1.3099
  483MOL0     H63694   6.517   8.111   2.624 -1.4424  1.3665 -0.7933
  483MOL0     H63695   6.359   7.928   2.447 -3.7593  1.7728 -0.3037
  483MOL0     H63696   6.513   8.012   2.412  0.6929 -0.7420  1.8933
  483MOL0     H63697   6.383   8.229   2.437  0.8543 -1.1020 -0.7538
  483MOL0     H63698   6.236   8.138   2.489  0.4440  1.3212  2.5759
  483MOL0     H63699   6.358   8.098   2.220  1.8898 -1.2715  0.6307
  483MOL0     H63700   6.210   8.031   2.305 -1.3099  0.9385 -1.4996
  483MOL0     H63701   6.216   8.323   2.273  1.0341  0.4101 -0.1815
  483MOL0     H63702   6.080   8.213   2.268  0.8765  1.0537  1.8519
  483MOL0     H63703   6.277   8.240   2.043  0.1548 -1.4872  1.6192
  483MOL0     H63704   6.120   8.330   2.039 -1.8103 -0.4431 -2.9954
  483MOL0     H63705   6.169   8.032   2.050 -2.2343 -2.1772 -2.0241
  483MOL0     H63706   6.010   8.104   2.026 -1.1516  1.0736 -1.1169
  483MOL0     H63707   6.240   8.112   1.827 -1.8807 -2.4423 -2.7131
  483MOL0     H63708   6.107   8.237   1.820 -0.4927 -0.2162 -2.6810
  483MOL0     H63709   6.106   7.848   1.887  0.0231 -2.8314  0.6152
  483MOL0     H63710   6.033   7.628   1.691  0.2986 -0.4702  1.7154
  483MOL0     H63711   5.922   7.693   1.572  1.9374  1.2932 -0.4532
  483MOL0     H63712   5.793   7.562   1.751  1.7954 -0.1428 -0.1049
  483MOL0     H63713   5.755   7.731   1.744 -1.8345 -1.5473 -1.9247
  483MOL0     H63714   5.918   7.738   1.970  0.0572  1.1789 -0.4520
  483MOL0     H63715   5.795   7.612   1.979  0.5997 -1.1480 -1.4207
  483MOL0     H63716   6.017   7.563   2.066 -0.9813 -4.3677  0.2599
  483MOL0     H63717   6.083   7.577   1.899 -0.7177  0.3558 -0.6648
  483MOL0     H63718   5.866   7.450   2.184 -0.7025 -0.0136  1.8171
  483MOL0     H63719   5.740   7.299   2.308  0.7109  3.5809 -1.0299
  483MOL0     H63720   5.729   6.838   2.439  2.3189  1.6035  4.9739
  483MOL0     H63721   5.629   6.680   2.576  2.4689  1.4284 -0.1082
  483MOL0     H63722   5.494   6.531   2.655  1.0015  2.2548 -0.0150
  483MOL0     H63723   5.374   6.573   2.532  0.8279 -0.5875 -0.9450
  483MOL0     H63724   5.300   6.388   2.651 -4.0827  0.0009 -0.8126
  483MOL0     H63725   5.194   6.527   2.681  1.4537  1.3818 -0.4186
  483MOL0     H63726   5.335   6.548   2.904  1.5564 -0.8502  0.7120
  483MOL0     H63727   5.427   6.417   2.835  0.4297  1.9572  0.4331
  483MOL0     H63728   5.203   6.281   2.852 -2.7418 -3.0212  2.7117
  483MOL0     H63729   5.298   6.320   3.001  0.1001 -0.1173 -0.5145
  483MOL0     H63730   5.053   6.489   2.904 -1.1382  3.0547  2.5002
  483MOL0     H63731   5.140   6.488   3.059  3.7517 -2.9485  1.0683
  483MOL0     H63732   4.995   6.238   2.945  0.8769 -1.9170  0.4689
  483MOL0     H63733   4.920   6.366   3.055  2.3388  2.1327 -0.4451
  483MOL0     H63734   5.141   6.159   3.102 -0.6016 -2.6623  0.3882
  483MOL0     H63735   5.111   6.303   3.206 -1.7479 -0.0694  0.2546
  483MOL0     H63736   4.904   6.092   3.149  0.8366 -1.6702  2.6087
  483MOL0     H63737   4.881   6.229   3.254 -2.5359 -1.6118 -1.7157
  483MOL0     H63738   5.293   6.951   2.649 -0.8693  2.4430 -0.4363
  483MOL0     H63739   5.426   7.112   2.518  0.1052 -0.6310  0.0351
  483MOL0     H63740   5.800   6.999   1.995  1.4249  0.5203  1.1869
  483MOL0     H63741   5.901   7.190   1.858  1.9780  0.2435 -0.2965
  483MOL0     H63742   6.155   7.986   2.809  0.4244  0.1041  0.6018
  483MOL0     H63743   6.131   8.040   3.060 -0.5341 -3.4020 -0.5608
  483MOL0     H63744   6.275   7.986   3.467  0.8092 -0.5617  2.1380
  483MOL0     H63745   6.203   8.007   3.715  3.0449  2.4794  1.7192
  483MOL0     H63746   5.981   8.267   3.979 -0.2987 -1.6410 -0.5629
  483MOL0     H63747   5.981   8.366   3.844 -0.7342 -0.3551 -0.6680
  483MOL0     H63748   6.237   8.407   3.865 -2.3919  2.8667 -2.4924
  483MOL0     H63749   6.111   8.474   3.983  0.8313 -0.4702 -0.4815
  483MOL0     H63750   6.275   8.222   4.030 -1.7567 -1.7450 -0.0626
  483MOL0     H63751   6.189   8.323   4.148  0.1068  1.1566 -1.3906
  483MOL0     H63752   6.455   8.401   4.037  0.3507 -3.8165  1.0382
  483MOL0     H63753   6.346   8.503   4.139  0.9166  0.9063 -0.2095
  483MOL0     H63754   6.442   8.235   4.436  1.8765 -2.2806 -0.4674
  483MOL0     H63755   6.072   8.402   3.636 -3.5721 -2.2442 -0.8804
  483MOL0     H63756   6.176   8.398   3.422 -2.5763  1.5439  2.3270
  484MOL0     O63757   8.823  10.271   2.386  0.6968  0.3154 -1.0539
  484MOL0     C63758   8.911  10.208   2.447 -1.5144 -0.5087 -0.5210
  484MOL0     O63759   9.043  10.239   2.437 -0.4643  0.6225 -0.0813
  484MOL0     C63760   9.116  10.338   2.372  1.7091 -0.8094 -0.1405
  484MOL0     C63761   9.256  10.323   2.373 -0.1605 -0.4219  1.4329
  484MOL0     C63762   9.341  10.432   2.321  0.3099 -0.7720  0.2033
  484MOL0     C63763   9.280  10.544   2.267 -0.9224  0.4307 -0.1376
  484MOL0     O63764   9.354  10.642   2.216 -0.3316 -0.8200 -0.2442
  484MOL0     C63765   9.496  10.646   2.247 -0.8293  0.0939  0.7174
  484MOL0     C63766   9.552  10.776   2.200 -0.6276  0.2204 -0.6172
  484MOL0     C63767   9.551  10.788   2.055 -0.4838 -0.1210 -0.2892
  484MOL0     C63768   9.634  10.912   2.004 -0.3981 -0.0197  0.0228
  484MOL0     C63769   9.641  10.919   1.852 -0.1014  0.3598  0.5800
  484MOL0     C63770   9.705  11.053   1.810  0.7454  0.4021 -0.1279
  484MOL0     C63771   9.768  11.057   1.669  0.8562  0.9510  0.7190
  484MOL0     C63772   9.725  11.192   1.598  0.1490 -0.1486 -1.1568
  484MOL0     N63773   9.802  11.224   1.479  0.2246  0.2188 -0.0706
  484MOL0     C63774   9.793  11.155   1.364  0.6093 -0.0559  0.4992
  484MOL0     C63775   9.891  11.213   1.279  1.2935  0.1413  0.1785
  484MOL0     C63776   9.933  11.172   1.136  0.3151 -0.2948 -0.0329
  484MOL0     C63777   9.850  11.251   1.029 -0.4842  0.7730 -0.0550
  484MOL0     C63778   9.865  11.398   1.039 -0.8290  0.2095 -0.0423
  484MOL0     C63779   9.788  11.474   0.930 -0.4975 -0.6050 -0.6256
  484MOL0     O63780   9.815  11.612   0.924 -0.0787 -0.3689 -0.5237
  484MOL0     C63781   9.730  11.688   0.844  0.2299  0.3527 -0.6528
  484MOL0     C63782   9.628  11.644   0.762  0.6763  0.6000  0.6388
  484MOL0     C63783   9.548  11.735   0.694 -0.3091 -0.4161  0.0119
  484MOL0     C63784   9.584  11.875   0.696 -0.3546 -0.1229 -0.5314
  484MOL0     C63785   9.501  11.982   0.637 -0.0246 -0.4212 -0.8326
  484MOL0     O63786   9.424  11.943   0.532 -0.3995 -0.2927  0.1907
  484MOL0     C63787   9.361  12.038   0.458 -0.3504 -0.5095  0.4216
  484MOL0     C63788   9.432  12.132   0.376  0.0855 -0.1145  0.6312
  484MOL0     C63789   9.356  12.205   0.280 -0.7812  0.7930 -0.1057
  484MOL0     C63790   9.221  12.218   0.284  0.0564 -0.2898  0.6599
  484MOL0     O63791   9.164  12.307   0.202  1.0837 -0.1247  0.1109
  484MOL0     C63792   9.093  12.236   0.098 -0.5082 -0.3653 -0.5126
  484MOL0     C63793   9.009  12.330   0.013  0.0832  0.1658  0.3175
  484MOL0     C63794   8.901  12.405   0.090  0.5243 -1.0661  0.4021
  484MOL0     C63795   8.845  12.517  -0.002 -0.4617 -0.6506  0.1894
  484MOL0     C63796   8.715  12.571   0.053 -0.0098  0.2833  0.5919
  484MOL0     C63797   8.600  12.466   0.044  0.5965 -0.6298  0.3396
  484MOL0     C63798   8.476  12.527   0.096  0.3519  0.1679 -0.6923
  484MOL0     C63799   8.354  12.455   0.070  0.1939  1.3318  0.3263
  484MOL0    Cl63800   8.318  12.452  -0.102 -0.1937  0.0503  0.3190
  484MOL0     C63801   9.149  12.138   0.374 -0.9227  0.2580  0.0242
  484MOL0     C63802   9.218  12.054   0.462 -0.0972 -0.0559 -0.3665
  484MOL0     O63803   9.498  12.096   0.685 -0.0527  0.4500  0.2729
  484MOL0     C63804   9.699  11.918   0.768  0.4373  0.6458 -0.6018
  484MOL0     C63805   9.771  11.815   0.839  0.2851  0.2295  0.0381
  484MOL0     N63806   9.958  11.305   1.361 -0.1540 -0.2746 -0.3284
  484MOL0     N63807   9.900  11.314   1.477 -0.6216 -0.1555 -0.0520
  484MOL0     C63808   9.146  10.553   2.266 -1.0443  0.2792  0.2048
  484MOL0     C63809   9.067  10.457   2.331  0.1420 -0.3833  0.0682
  484MOL0     C63810   8.878  10.095   2.543 -0.1741  0.0096 -0.4358
  484MOL0     C63811   8.990  10.033   2.615  0.0829  0.4391  0.3292
  484MOL0     C63812   8.963   9.920   2.701  0.1453 -0.0579  0.2993
  484MOL0     C63813   8.837   9.860   2.710 -0.6484 -0.5884  0.7347
  484MOL0     O63814   8.806   9.756   2.790  0.2804  0.0995 -0.7901
  484MOL0     C63815   8.914   9.699   2.863  0.0837 -0.2202 -0.1452
  484MOL0     C63816   8.874   9.596   2.970 -0.4785  0.2207 -0.1188
  484MOL0     C63817   8.814   9.466   2.909 -0.5786 -0.3360 -0.6553
  484MOL0     C63818   8.799   9.361   3.009  0.0313 -0.2682 -0.3886
  484MOL0     C63819   8.725   9.245   2.943  0.1192  0.9813 -0.6992
  484MOL0     C63820   8.653   9.177   2.872  0.6313  0.1311  0.5943
  484MOL0     C63821   8.738   9.926   2.642  1.3424  0.7123 -0.3755
  484MOL0     C63822   8.751  10.043   2.565 -0.5726  0.9151  0.8516
  484MOL0     H63823   9.290  10.223   2.399 -1.4487 -1.3822 -0.3242
  484MOL0     H63824   9.449  10.421   2.319  0.3616 -0.1898 -0.4530
  484MOL0     H63825   9.549  10.564   2.197  1.0512 -0.6993  3.7463
  484MOL0     H63826   9.506  10.638   2.355  0.8741 -1.4804  0.5012
  484MOL0     H63827   9.653  10.775   2.242 -1.2789 -0.1758  1.0178
  484MOL0     H63828   9.514  10.859   2.260 -3.5720  1.2222 -3.5654
  484MOL0     H63829   9.449  10.786   2.017 -0.3388 -0.6883 -0.6575
  484MOL0     H63830   9.593  10.696   2.013  0.0525  0.1821 -0.4374
  484MOL0     H63831   9.584  11.003   2.038 -0.7796  1.1287 -3.2300
  484MOL0     H63832   9.734  10.909   2.049 -0.2203 -2.7130 -0.3847
  484MOL0     H63833   9.543  10.908   1.803  0.7470 -1.2304 -0.8714
  484MOL0     H63834   9.706  10.836   1.823 -0.5023 -0.4720  1.9708
  484MOL0     H63835   9.786  11.054   1.883  0.3210 -1.4812  0.4363
  484MOL0     H63836   9.630  11.131   1.828 -2.5447 -1.8973 -2.6931
  484MOL0     H63837   9.877  11.043   1.671  0.5797 -2.0780 -0.3602
  484MOL0     H63838   9.725  10.973   1.614  0.9300 -1.0806  3.5555
  484MOL0     H63839   9.729  11.274   1.671 -0.0479 -2.1501  1.2363
  484MOL0     H63840   9.623  11.190   1.559  0.1622  0.7119 -1.2633
  484MOL0     H63841   9.741  11.062   1.348 -0.4593  0.5985  0.0616
  484MOL0     H63842   9.921  11.064   1.124  0.7867 -0.6316  2.0208
  484MOL0     H63843  10.040  11.195   1.137  0.2374  0.1301  1.4812
  484MOL0     H63844   9.749  11.216   1.050  0.2938 -2.4181 -1.1564
  484MOL0     H63845   9.871  11.211   0.930  0.0584  0.2828  0.2557
  484MOL0     H63846   9.848  11.420   1.144  2.0077 -0.7968  0.7126
  484MOL0     H63847   9.973  11.412   1.024 -0.5790 -0.6241  0.9365
  484MOL0     H63848   9.685  11.471   0.966  0.3014 -1.7813  1.7669
  484MOL0     H63849   9.797  11.432   0.829 -1.4373  2.0882 -1.9274
  484MOL0     H63850   9.586  11.545   0.768  0.4908  0.6317 -0.0793
  484MOL0     H63851   9.458  11.706   0.639  0.4794  4.0843 -4.4146
  484MOL0     H63852   9.540  12.132   0.371  0.0616 -2.0141 -1.4514
  484MOL0     H63853   9.403  12.259   0.199 -1.4727  2.6669  0.6740
  484MOL0     H63854   9.018  12.167   0.140 -0.2446 -0.2273  0.1820
  484MOL0     H63855   9.161  12.177   0.036  1.6444 -0.8116  2.0827
  484MOL0     H63856   8.972  12.276  -0.074 -3.8504 -0.3744  2.1208
  484MOL0     H63857   9.075  12.413  -0.014  0.1883 -0.3803 -1.1652
  484MOL0     H63858   8.929  12.456   0.183 -1.7700 -2.4993  1.9772
  484MOL0     H63859   8.829  12.330   0.125  1.4968 -4.3714 -3.9334
  484MOL0     H63860   8.906  12.607  -0.011 -1.7210  0.0483 -2.4509
  484MOL0     H63861   8.822  12.482  -0.104 -3.0473  0.6177  0.2648
  484MOL0     H63862   8.689  12.655  -0.012 -1.0623 -1.2757 -1.1017
  484MOL0     H63863   8.739  12.606   0.154 -1.2542 -0.3643  1.1343
  484MOL0     H63864   8.619  12.376   0.102  0.7811 -2.3129 -2.1869
  484MOL0     H63865   8.582  12.438  -0.060  0.6195 -1.6781  0.6115
  484MOL0     H63866   8.480  12.537   0.205  0.7640 -2.4357 -0.4198
  484MOL0     H63867   8.463  12.631   0.064  1.7329  1.4527  2.4686
  484MOL0     H63868   8.270  12.493   0.129 -1.3327 -0.9846 -0.2308
  484MOL0     H63869   8.376  12.355   0.108 -0.5049  0.2204 -1.9898
  484MOL0     H63870   9.041  12.133   0.370 -0.9046 -0.3421  0.2020
  484MOL0     H63871   9.158  11.989   0.525 -0.1935 -0.1803 -0.5838
  484MOL0     H63872   9.737  12.020   0.767  2.5078 -0.0563  0.7743
  484MOL0     H63873   9.862  11.824   0.897 -0.2372  4.8855  0.5191
  484MOL0     H63874   9.093  10.632   2.213 -0.7524 -0.7955 -1.7838
  484MOL0     H63875   8.959  10.467   2.336 -0.0934 -1.7157 -1.5757
  484MOL0     H63876   9.089  10.074   2.598 -0.0773  1.0198  0.7499
  484MOL0     H63877   9.055   9.894   2.753 -0.1307 -0.5685  0.5414
  484MOL0     H63878   8.973   9.778   2.910 -0.4139  0.0852 -0.0223
  484MOL0     H63879   8.991   9.661   2.796  0.2796  0.1649 -0.1381
  484MOL0     H63880   8.963   9.575   3.030 -1.3703  2.5901  2.2735
  484MOL0     H63881   8.801   9.645   3.035 -0.4291  0.4811 -0.2588
  484MOL0     H63882   8.879   9.427   2.830  2.0937  2.4610 -0.0467
  484MOL0     H63883   8.719   9.497   2.864 -0.7124  0.0685 -0.1027
  484MOL0     H63884   8.897   9.322   3.039  0.4392  2.8138  3.0504
  484MOL0     H63885   8.744   9.401   3.094 -1.3414 -0.9748 -0.9135
  484MOL0     H63886   8.594   9.122   2.802  2.4212 -0.8358 -0.2307
  484MOL0     H63887   8.655   9.862   2.672  1.8219 -0.7593 -2.0297
  484MOL0     H63888   8.672  10.078   2.499 -0.1772 -1.3165 -0.9335
  485MOL0     O63889   3.390   4.270  11.195  0.2716 -0.6450 -0.2163
  485MOL0     C63890   3.281   4.246  11.151  0.4534 -0.6925  0.8483
  485MOL0     O63891   3.251   4.118  11.097 -0.0253  0.5643  0.2175
  485MOL0     C63892   3.326   4.000  11.117  0.2662  0.1997 -0.3736
  485MOL0     C63893   3.251   3.883  11.145 -0.2752  0.3978  0.2062
  485MOL0     C63894   3.314   3.770  11.180  0.2660  0.2026 -0.9214
  485MOL0     C63895   3.453   3.763  11.175  0.2368 -0.0799 -0.5564
  485MOL0     O63896   3.508   3.643  11.183 -0.2067  0.1642  0.1177
  485MOL0     C63897   3.487   3.567  11.307 -0.3251  0.2022  0.0075
  485MOL0     C63898   3.437   3.428  11.272 -1.1180  0.8482  0.3942
  485MOL0     C63899   3.473   3.366  11.135  0.4287 -1.3966 -0.7182
  485MOL0     C63900   3.397   3.232  11.117  0.7357 -1.0974  0.6223
  485MOL0     C63901   3.365   3.194  10.973  1.1703 -0.2852  0.8717
  485MOL0     C63902   3.491   3.177  10.895 -0.9868 -1.0323 -0.6677
  485MOL0     C63903   3.458   3.148  10.753 -0.8443  0.2708 -0.0089
  485MOL0     C63904   3.572   3.195  10.663  0.1178  0.8474  1.4671
  485MOL0     N63905   3.539   3.158  10.524 -0.2132 -0.2255 -0.2878
  485MOL0     C63906   3.539   3.025  10.480  0.4099 -0.4400 -0.1162
  485MOL0     C63907   3.547   3.029  10.342  0.4995  0.0842  0.0547
  485MOL0     C63908   3.516   2.913  10.246  0.0243  0.8057 -0.3889
  485MOL0     C63909   3.618   2.906  10.137  0.5874 -0.2978  0.1248
  485MOL0     C63910   3.745   2.849  10.162  0.0786  0.2520 -0.3471
  485MOL0     C63911   3.843   2.864  10.049  0.0794 -0.8305 -0.3621
  485MOL0     O63912   3.959   2.792  10.082 -0.7639  1.0828 -0.0481
  485MOL0     C63913   4.030   2.721   9.992 -0.1029  0.1375  0.2196
  485MOL0     C63914   3.972   2.641   9.887  0.2673  0.0918  0.2698
  485MOL0     C63915   4.067   2.569   9.810  0.7288  0.4826 -0.1681
  485MOL0     C63916   4.205   2.572   9.823  0.2921  0.6391  0.0398
  485MOL0     C63917   4.298   2.505   9.732  0.0839 -0.3003 -0.0108
  485MOL0     O63918   4.425   2.474   9.788 -0.4850  0.2905 -0.3886
  485MOL0     C63919   4.534   2.436   9.714  0.2298 -0.0500  0.0103
  485MOL0     C63920   4.537   2.393   9.581  0.1166 -0.4112  0.5374
  485MOL0     C63921   4.656   2.343   9.535  0.0374  0.2869 -0.3156
  485MOL0     C63922   4.775   2.369   9.597 -0.5563  0.4437 -0.0044
  485MOL0     O63923   4.893   2.314   9.552 -0.7441 -0.0594 -0.3071
  485MOL0     C63924   5.022   2.370   9.576 -0.7219  0.1989  0.6079
  485MOL0     C63925   5.138   2.276   9.534 -0.8127  1.1586 -0.0342
  485MOL0     C63926   5.121   2.216   9.392  0.8739  0.1583 -0.7876
  485MOL0     C63927   5.255   2.162   9.348  0.3405 -0.5811 -0.2813
  485MOL0     C63928   5.245   2.096   9.210 -0.9001  0.0852  0.8761
  485MOL0     C63929   5.371   2.023   9.188  0.3533  0.1093 -0.0940
  485MOL0     C63930   5.378   1.957   9.046 -0.8362 -0.6709  0.2717
  485MOL0     C63931   5.518   1.900   9.015  0.8162 -0.1651 -0.9585
  485MOL0    Cl63932   5.610   1.818   9.138  0.3978  0.1180 -0.1950
  485MOL0     C63933   4.771   2.437   9.716  0.1898  1.1746  1.1451
  485MOL0     C63934   4.651   2.451   9.787  0.8922  0.5212  0.9223
  485MOL0     O63935   4.271   2.489   9.614 -0.7295  0.1415  0.0407
  485MOL0     C63936   4.253   2.632   9.942 -0.1576 -0.9541 -0.1200
  485MOL0     C63937   4.167   2.707  10.025  0.2470  0.0300  0.6891
  485MOL0     N63938   3.552   3.167  10.319 -0.5538 -0.5593  1.0437
  485MOL0     N63939   3.555   3.245  10.422  0.1133 -1.1488 -1.1110
  485MOL0     C63940   3.534   3.871  11.149 -0.2374 -0.8771  1.5167
  485MOL0     C63941   3.463   3.989  11.119 -0.9222 -0.4435 -0.5274
  485MOL0     C63942   3.173   4.360  11.162  0.3026  0.3488  0.3294
  485MOL0     C63943   3.045   4.334  11.211 -0.0409  0.3040 -0.2504
  485MOL0     C63944   2.960   4.442  11.235 -0.4340 -0.6951  0.5117
  485MOL0     C63945   3.003   4.573  11.205  0.9521 -0.2418  0.0731
  485MOL0     O63946   2.921   4.682  11.238  0.3794  0.4637  0.4271
  485MOL0     C63947   2.801   4.685  11.171 -0.8629  0.0807  0.4350
  485MOL0     C63948   2.757   4.832  11.167  0.6262  0.7535  0.2844
  485MOL0     C63949   2.636   4.847  11.074 -1.4026  0.6085  0.1605
  485MOL0     C63950   2.572   4.986  11.085  1.4104  0.5397 -0.8405
  485MOL0     C63951   2.668   5.090  11.060 -0.0794 -0.2001  0.4595
  485MOL0     C63952   2.759   5.165  11.028  0.1290  0.9248  0.1518
  485MOL0     C63953   3.124   4.597  11.145 -1.4757  0.3257 -0.3806
  485MOL0     C63954   3.212   4.490  11.119 -0.3721 -0.7546  0.4153
  485MOL0     H63955   3.143   3.886  11.133 -0.4058 -0.3843  1.0376
  485MOL0     H63956   3.252   3.682  11.197 -0.9106  1.3356  1.0257
  485MOL0     H63957   3.416   3.612  11.376 -2.7174 -1.2842 -1.3197
  485MOL0     H63958   3.583   3.569  11.360 -0.5415  1.7156  0.3856
  485MOL0     H63959   3.328   3.431  11.284 -1.1286  4.2230  0.3638
  485MOL0     H63960   3.467   3.358  11.351 -2.5165 -0.4327 -0.1536
  485MOL0     H63961   3.581   3.348  11.137  1.4910  3.1389 -3.4613
  485MOL0     H63962   3.453   3.429  11.049 -2.9544  0.4783  1.2269
  485MOL0     H63963   3.462   3.154  11.157  1.6533 -0.1444  1.0147
  485MOL0     H63964   3.297   3.222  11.161 -0.8901 -2.3007 -2.9151
  485MOL0     H63965   3.302   3.274  10.932 -0.5684 -1.5544  0.9882
  485MOL0     H63966   3.315   3.097  10.977  4.1445 -1.8875  3.0033
  485MOL0     H63967   3.542   3.094  10.944  1.0660  1.3042  1.4570
  485MOL0     H63968   3.560   3.261  10.895 -0.0339 -1.7956 -1.3752
  485MOL0     H63969   3.434   3.042  10.738  1.5578 -0.0444 -2.3508
  485MOL0     H63970   3.367   3.199  10.723 -0.9243  0.1458  0.0197
  485MOL0     H63971   3.656   3.155  10.720  1.1814  0.3300 -0.3811
  485MOL0     H63972   3.588   3.303  10.667  3.2022  0.7290 -2.1300
  485MOL0     H63973   3.511   2.934  10.532 -0.4314 -2.5649 -3.9203
  485MOL0     H63974   3.418   2.932  10.202 -0.9256 -0.2522  1.1602
  485MOL0     H63975   3.497   2.815  10.290 -1.9331  0.7160 -1.3330
  485MOL0     H63976   3.631   3.008  10.101  2.6592 -0.7723 -0.6313
  485MOL0     H63977   3.580   2.844  10.055  0.0280 -1.0861  0.9553
  485MOL0     H63978   3.778   2.914  10.244 -2.8776 -0.8836  1.8734
  485MOL0     H63979   3.721   2.748  10.194  2.3099 -0.3640 -0.4438
  485MOL0     H63980   3.869   2.970  10.043 -1.2377 -0.4483  0.4953
  485MOL0     H63981   3.809   2.842   9.947 -0.4965  1.5812 -0.7517
  485MOL0     H63982   3.868   2.639   9.859  0.5547  0.0428 -0.8400
  485MOL0     H63983   4.021   2.509   9.732  2.6731 -0.8952 -0.3177
  485MOL0     H63984   4.446   2.368   9.527  1.2624 -0.4026 -1.5119
  485MOL0     H63985   4.682   2.281   9.450  3.3049 -0.3655  0.9934
  485MOL0     H63986   5.032   2.393   9.682  0.0074  1.1125  0.3512
  485MOL0     H63987   5.024   2.464   9.520  1.3653  0.5122  1.1108
  485MOL0     H63988   5.142   2.194   9.606 -4.8255 -0.7817 -1.6926
  485MOL0     H63989   5.222   2.345   9.544 -0.6662  1.0906 -0.7752
  485MOL0     H63990   5.110   2.297   9.320 -2.6206 -0.0689 -0.6358
  485MOL0     H63991   5.038   2.145   9.396  0.9002  0.0373 -2.0356
  485MOL0     H63992   5.334   2.237   9.344  0.8069 -0.7982  2.6237
  485MOL0     H63993   5.292   2.082   9.413  0.5548  0.6591  1.1886
  485MOL0     H63994   5.233   2.167   9.128 -2.4222 -0.4159  0.6304
  485MOL0     H63995   5.158   2.030   9.218 -2.5873  2.1772  0.6044
  485MOL0     H63996   5.379   1.944   9.263  0.7026  2.9760  3.1153
  485MOL0     H63997   5.461   2.085   9.196 -0.8661  2.1130 -1.1170
  485MOL0     H63998   5.304   1.876   9.042 -1.9177  0.2318  1.1284
  485MOL0     H63999   5.347   2.028   8.970 -0.2683 -0.5844  0.1184
  485MOL0     H64000   5.583   1.984   8.991  1.0872  0.1430  0.7438
  485MOL0     H64001   5.499   1.830   8.933  0.2311 -1.5501  0.3065
  485MOL0     H64002   4.866   2.462   9.764  1.4179 -0.7610 -0.1469
  485MOL0     H64003   4.645   2.487   9.889  0.8459 -1.5936  1.7027
  485MOL0     H64004   4.355   2.623   9.978  0.2558 -0.0553 -1.0304
  485MOL0     H64005   4.204   2.763  10.111 -0.9892 -0.2434  1.4138
  485MOL0     H64006   3.642   3.872  11.148 -0.1842 -2.6650  1.2820
  485MOL0     H64007   3.521   4.078  11.099 -3.0243  0.7862 -1.3926
  485MOL0     H64008   3.011   4.235  11.242  2.3788 -0.9168 -1.1653
  485MOL0     H64009   2.856   4.444  11.269 -0.3505  1.8117  0.7986
  485MOL0     H64010   2.723   4.624  11.216 -1.3930 -0.5273 -1.2466
  485MOL0     H64011   2.816   4.658  11.066  1.0112  1.1512  0.3767
  485MOL0     H64012   2.729   4.863  11.268 -0.7578 -2.5118  1.0022
  485MOL0     H64013   2.834   4.905  11.139 -0.0630  1.4027  0.0551
  485MOL0     H64014   2.556   4.773  11.089 -3.0684  1.8099 -2.1159
  485MOL0     H64015   2.679   4.830  10.975  1.9957 -0.8901  1.7525
  485MOL0     H64016   2.485   4.993  11.019  1.3311  0.3994 -0.7501
  485MOL0     H64017   2.530   5.006  11.184  2.1415 -0.0522 -0.4020
  485MOL0     H64018   2.837   5.233  11.002 -0.9842  2.8627  1.5550
  485MOL0     H64019   3.150   4.700  11.123 -1.6377 -0.0053 -2.2526
  485MOL0     H64020   3.311   4.493  11.076  0.1398 -3.8114  1.1381
  486MOL0     O64021  10.789   3.425   9.340 -0.0190  0.2182  0.7164
  486MOL0     C64022  10.857   3.340   9.392 -1.2519 -0.5073  0.9251
  486MOL0     O64023  10.881   3.211   9.334  0.3353 -0.4181  0.1171
  486MOL0     C64024  10.831   3.187   9.210 -0.1890 -0.6777 -0.0952
  486MOL0     C64025  10.918   3.148   9.112  0.7167  0.2226  0.1922
  486MOL0     C64026  10.879   3.124   8.983 -0.1989  0.7767  0.7695
  486MOL0     C64027  10.745   3.123   8.950  0.3473  0.2781  1.3594
  486MOL0     O64028  10.702   3.066   8.831 -0.0079  1.0319 -0.6854
  486MOL0     C64029  10.756   2.936   8.801 -0.7738 -0.8241  0.0037
  486MOL0     C64030  10.717   2.885   8.663  0.3042 -0.1779  0.1130
  486MOL0     C64031  10.791   2.747   8.643 -0.3458  0.2791 -1.0733
  486MOL0     C64032  10.768   2.692   8.503 -0.1876  0.1803 -0.6467
  486MOL0     C64033  10.793   2.543   8.499 -0.4004 -0.7267 -0.0509
  486MOL0     C64034  10.659   2.465   8.510  0.1245 -0.0707 -0.0274
  486MOL0     C64035  10.675   2.316   8.508 -0.5293 -0.3134 -0.2904
  486MOL0     C64036  10.560   2.252   8.574  0.4980  0.2253  0.7465
  486MOL0     N64037  10.580   2.106   8.568  1.0196  0.5374 -0.1866
  486MOL0     C64038  10.648   2.021   8.661  0.2243  0.3188  0.2657
  486MOL0     C64039  10.630   1.892   8.610  0.3397 -0.5751 -0.0717
  486MOL0     C64040  10.691   1.759   8.678  1.1913 -1.1567 -0.2029
  486MOL0     C64041  10.845   1.752   8.687 -1.1301  0.0932 -0.3865
  486MOL0     C64042  10.911   1.768   8.561  0.6229 -0.4704  0.1515
  486MOL0     C64043  11.068   1.757   8.566 -1.0826  0.1549  0.5392
  486MOL0     O64044  11.121   1.750   8.430  0.2306 -0.0668 -0.2527
  486MOL0     C64045  11.198   1.641   8.407 -0.5185 -0.5444 -0.0967
  486MOL0     C64046  11.340   1.642   8.421 -0.2420  0.2751 -0.7236
  486MOL0     C64047  11.424   1.540   8.381 -0.1499 -0.0571  0.6340
  486MOL0     C64048  11.375   1.430   8.321  0.2584 -0.3283 -0.1724
  486MOL0     C64049  11.461   1.322   8.278  0.1642 -0.3773 -0.1486
  486MOL0     O64050  11.592   1.331   8.306  0.5081  0.5789 -0.2973
  486MOL0     C64051  11.672   1.215   8.308 -0.1390  0.0499  0.7800
  486MOL0     C64052  11.808   1.234   8.279 -0.3842 -0.0701  1.6750
  486MOL0     C64053  11.903   1.125   8.304  0.4373 -0.9934  0.0125
  486MOL0     C64054  11.855   0.997   8.345 -0.1348  0.4496 -0.6605
  486MOL0     O64055  11.946   0.896   8.366  0.2895 -0.3954  0.0118
  486MOL0     C64056  11.890   0.774   8.398 -0.1169  0.4827  0.3198
  486MOL0     C64057  11.997   0.659   8.393  0.3425 -0.2446  0.2632
  486MOL0     C64058  11.920   0.531   8.433 -0.0505  0.6475 -0.2455
  486MOL0     C64059  12.016   0.408   8.423  0.8226 -0.3279 -0.2416
  486MOL0     C64060  11.947   0.294   8.499 -0.7207  0.4402  0.1305
  486MOL0     C64061  12.007   0.157   8.460  0.9224 -0.6810 -1.0926
  486MOL0     C64062  12.131   0.120   8.528 -0.3854  0.6751  0.0504
  486MOL0     C64063  12.173  -0.025   8.512 -0.0144 -0.2264 -0.9814
  486MOL0    Cl64064  12.280  -0.088   8.633 -0.3586 -0.7787 -0.5521
  486MOL0     C64065  11.712   0.987   8.354 -0.0879 -0.8201 -1.8796
  486MOL0     C64066  11.629   1.092   8.349  0.1811  0.2647 -0.3660
  486MOL0     O64067  11.406   1.226   8.219 -0.0636 -0.0332  0.1891
  486MOL0     C64068  11.230   1.423   8.305 -0.2760 -0.0623 -0.3663
  486MOL0     C64069  11.148   1.521   8.355 -0.5047 -1.0593  0.5480
  486MOL0     N64070  10.558   1.898   8.495  0.7096 -0.2901  0.6596
  486MOL0     N64071  10.527   2.021   8.471 -1.0139  0.3770 -0.0025
  486MOL0     C64072  10.649   3.168   9.042 -0.8704  1.6447 -0.3096
  486MOL0     C64073  10.689   3.184   9.179 -0.2826  0.2034 -0.5130
  486MOL0     C64074  10.903   3.364   9.521  0.0303 -0.1725 -0.3263
  486MOL0     C64075  10.936   3.264   9.617  1.3010 -0.1518  0.7009
  486MOL0     C64076  10.986   3.289   9.744 -0.0129 -0.9119  0.2876
  486MOL0     C64077  11.020   3.419   9.778 -0.8081  2.0355 -0.5349
  486MOL0     O64078  11.066   3.441   9.903 -0.5109  0.8306 -0.5666
  486MOL0     C64079  11.061   3.578   9.956 -0.0976 -0.0424 -0.0945
  486MOL0     C64080  10.911   3.640   9.969  0.5751 -1.4845  0.7797
  486MOL0     C64081  10.908   3.788  10.013 -1.0346 -0.1561  0.0415
  486MOL0     C64082  10.982   3.874   9.911  0.6693 -0.0816  0.4991
  486MOL0     C64083  10.943   4.013   9.937  0.1337 -0.2649 -0.6817
  486MOL0     C64084  10.918   4.121   9.989  0.9147 -0.8582 -0.0360
  486MOL0     C64085  11.005   3.523   9.679  0.2146 -0.4328  0.4971
  486MOL0     C64086  10.941   3.492   9.557 -0.2028  0.0954  0.0367
  486MOL0     H64087  11.022   3.137   9.142  0.4387 -3.2261  0.2215
  486MOL0     H64088  10.965   3.096   8.922 -1.7534 -2.8330 -0.0197
  486MOL0     H64089  10.716   2.871   8.879 -3.7614  0.2571 -0.5036
  486MOL0     H64090  10.864   2.941   8.815 -1.0857  1.2050  2.4279
  486MOL0     H64091  10.746   2.954   8.583  1.1361 -4.0834 -3.3281
  486MOL0     H64092  10.611   2.869   8.643  0.6702 -1.3703 -1.0872
  486MOL0     H64093  10.755   2.684   8.724  1.8259  0.3053 -0.0143
  486MOL0     H64094  10.897   2.767   8.657 -0.9352  1.6210  2.5259
  486MOL0     H64095  10.668   2.714   8.467 -1.1958 -1.7953  0.7700
  486MOL0     H64096  10.835   2.728   8.423 -0.2679 -1.4255 -1.4790
  486MOL0     H64097  10.879   2.527   8.565  2.0832 -0.5193 -2.9711
  486MOL0     H64098  10.836   2.515   8.402  2.8215 -1.1373  1.3520
  486MOL0     H64099  10.587   2.495   8.434 -0.9667 -0.8639  0.6646
  486MOL0     H64100  10.611   2.504   8.600  0.2330 -1.0840  0.4792
  486MOL0     H64101  10.693   2.289   8.404 -0.3976  4.1266 -1.6262
  486MOL0     H64102  10.763   2.293   8.569  0.6639  1.8011 -1.1164
  486MOL0     H64103  10.459   2.264   8.532  0.7483 -0.9974 -0.2724
  486MOL0     H64104  10.549   2.294   8.674 -0.9797  1.1854  0.2260
  486MOL0     H64105  10.705   2.053   8.748 -1.9469  2.9619  0.8623
  486MOL0     H64106  10.652   1.685   8.608 -1.5127  1.9446 -2.2744
  486MOL0     H64107  10.642   1.742   8.773 -0.1129  1.1099 -0.3989
  486MOL0     H64108  10.879   1.665   8.744  1.4564  2.2929  1.7256
  486MOL0     H64109  10.874   1.832   8.755  0.5961 -0.6322 -0.2132
  486MOL0     H64110  10.868   1.697   8.490  1.1879 -2.4360  1.7041
  486MOL0     H64111  10.879   1.864   8.520 -2.9892 -1.5331  0.1803
  486MOL0     H64112  11.091   1.668   8.625  0.5004 -0.4622 -0.8954
  486MOL0     H64113  11.102   1.850   8.614 -2.1981  0.4244  0.8300
  486MOL0     H64114  11.381   1.726   8.476  0.5572 -0.7964  0.3756
  486MOL0     H64115  11.531   1.538   8.399  0.2993  0.2401 -1.7123
  486MOL0     H64116  11.844   1.333   8.254  2.5877 -0.7947  2.7151
  486MOL0     H64117  12.009   1.149   8.303  0.1981  0.2839 -2.4082
  486MOL0     H64118  11.817   0.756   8.319 -0.9185  2.5461  0.5227
  486MOL0     H64119  11.844   0.770   8.498 -2.9000 -1.4275 -0.9019
  486MOL0     H64120  12.076   0.673   8.468  3.2304 -2.5511 -2.0631
  486MOL0     H64121  12.033   0.644   8.291  0.1291 -3.7166  0.5845
  486MOL0     H64122  11.843   0.506   8.359  0.4588 -4.7973  0.6266
  486MOL0     H64123  11.880   0.540   8.534  1.0338  4.3918 -0.0365
  486MOL0     H64124  12.039   0.370   8.323 -0.5214  0.3571 -0.8429
  486MOL0     H64125  12.112   0.439   8.465  0.1341  1.9324 -0.1921
  486MOL0     H64126  11.839   0.302   8.483 -1.0874  0.7405  2.3724
  486MOL0     H64127  11.956   0.295   8.608  0.1657  0.2440  0.0615
  486MOL0     H64128  12.035   0.148   8.355  1.6883  0.6978 -1.0308
  486MOL0     H64129  11.930   0.086   8.493  0.6285 -0.4770 -1.3300
  486MOL0     H64130  12.224   0.174   8.505  0.3562 -0.4899  0.2265
  486MOL0     H64131  12.100   0.134   8.632 -2.7750  1.3105 -0.6815
  486MOL0     H64132  12.230  -0.032   8.419 -3.6233  0.2179 -3.4342
  486MOL0     H64133  12.080  -0.082   8.504 -0.6219  0.9139 -2.3212
  486MOL0     H64134  11.677   0.889   8.385  1.5135 -1.7745 -2.9206
  486MOL0     H64135  11.524   1.065   8.354  0.0288  0.9022 -0.0649
  486MOL0     H64136  11.170   1.339   8.273  0.4631 -2.0356  2.9666
  486MOL0     H64137  11.039   1.512   8.353 -0.6272  0.2004  0.6594
  486MOL0     H64138  10.542   3.170   9.029 -0.7119  2.3783 -1.6759
  486MOL0     H64139  10.609   3.205   9.248  0.1921 -2.8328  1.0934
  486MOL0     H64140  10.929   3.161   9.582  0.2196  1.0183 -3.0051
  486MOL0     H64141  11.014   3.224   9.827 -1.1014 -0.4289  1.0651
  486MOL0     H64142  11.127   3.635   9.889  0.5010 -3.0288 -2.2407
  486MOL0     H64143  11.099   3.579  10.058 -1.4730  0.4345  0.4372
  486MOL0     H64144  10.852   3.636   9.876 -0.9309  0.1076  1.6024
  486MOL0     H64145  10.851   3.578  10.035 -0.8008  0.6660  1.6639
  486MOL0     H64146  10.946   3.797  10.116  0.4759  0.3505 -0.5402
  486MOL0     H64147  10.807   3.829  10.023 -1.3325 -0.1346 -2.4986
  486MOL0     H64148  11.091   3.863   9.908  0.9850  2.7016 -0.5234
  486MOL0     H64149  10.948   3.841   9.813  0.5710 -0.2627  0.5934
  486MOL0     H64150  10.885   4.214  10.029 -0.1031 -0.5203 -1.5848
  486MOL0     H64151  11.025   3.627   9.700 -0.7535 -0.3290  0.9789
  486MOL0     H64152  10.914   3.574   9.492 -0.9338  0.9954  1.4208
  487MOL0     O64153   7.707   1.087  11.356  0.1403  0.4150 -0.0068
  487MOL0     C64154   7.676   0.989  11.282 -0.3737 -0.8957  0.2619
  487MOL0     O64155   7.554   0.922  11.279  0.6607  0.1816 -0.2844
  487MOL0     C64156   7.439   0.984  11.316  0.5553 -0.0013  0.5206
  487MOL0     C64157   7.420   1.070  11.429  0.0764  1.3427  0.8586
  487MOL0     C64158   7.294   1.125  11.455  0.4693  0.4500  0.0479
  487MOL0     C64159   7.184   1.093  11.382 -0.1702 -0.8028 -0.9963
  487MOL0     O64160   7.070   1.140  11.434 -0.0432  0.4359 -0.1243
  487MOL0     C64161   6.947   1.102  11.371 -0.5498  0.1668 -0.4970
  487MOL0     C64162   6.827   1.184  11.423  0.4735 -0.0017  0.1770
  487MOL0     C64163   6.846   1.336  11.413 -0.3337  0.0395 -0.4074
  487MOL0     C64164   6.864   1.369  11.266  0.3524 -0.9930 -0.1029
  487MOL0     C64165   6.818   1.501  11.205 -0.6928  0.2035 -0.3007
  487MOL0     C64166   6.896   1.630  11.244  0.2642  0.5268 -0.7426
  487MOL0     C64167   6.811   1.756  11.272  0.6059 -0.0273  0.4915
  487MOL0     C64168   6.746   1.808  11.141 -0.3949  0.1030 -0.2633
  487MOL0     N64169   6.680   1.939  11.166 -0.7009  0.2881  0.2049
  487MOL0     C64170   6.677   2.060  11.100 -0.2358  0.7346  0.2412
  487MOL0     C64171   6.574   2.133  11.155 -0.1323 -0.5825  0.0095
  487MOL0     C64172   6.536   2.275  11.147 -1.2742 -0.1641 -0.4350
  487MOL0     C64173   6.458   2.312  11.025  0.1256 -0.2142 -1.0050
  487MOL0     C64174   6.432   2.462  11.009 -0.2295  0.8036 -0.1089
  487MOL0     C64175   6.389   2.499  10.873  0.4569 -0.9999  0.1598
  487MOL0     O64176   6.252   2.458  10.856  0.1389  0.3687  0.0814
  487MOL0     C64177   6.213   2.418  10.733 -0.2207  0.2099  0.4990
  487MOL0     C64178   6.266   2.463  10.611  0.0914  0.3038  0.4513
  487MOL0     C64179   6.212   2.420  10.486  0.6199 -0.2508 -0.5775
  487MOL0     C64180   6.107   2.324  10.476 -0.0778  0.1238 -0.7302
  487MOL0     C64181   6.080   2.266  10.338 -0.4426 -0.0352  0.1991
  487MOL0     O64182   6.131   2.335  10.228  0.0726  0.1089  0.0827
  487MOL0     C64183   6.111   2.313  10.093  0.7152  0.0030 -0.0017
  487MOL0     C64184   6.147   2.417  10.005 -0.1502 -1.0419  0.9156
  487MOL0     C64185   6.135   2.403   9.867  0.4682  0.2558  0.0545
  487MOL0     C64186   6.083   2.281   9.815  0.5262 -0.0186  0.5496
  487MOL0     O64187   6.091   2.269   9.678  0.7912  0.6219 -0.0765
  487MOL0     C64188   5.966   2.207   9.624  0.6244  0.1693 -0.0114
  487MOL0     C64189   5.881   2.307   9.554  0.6262 -1.0253  0.1124
  487MOL0     C64190   5.826   2.425   9.637 -0.3554 -0.2159 -0.8219
  487MOL0     C64191   5.682   2.466   9.602  0.1962 -0.2828 -0.0534
  487MOL0     C64192   5.668   2.490   9.455  0.1828  0.2188  0.3850
  487MOL0     C64193   5.525   2.537   9.410 -0.2262  0.5243 -0.4009
  487MOL0     C64194   5.524   2.554   9.261 -1.0245  0.0894  0.5799
  487MOL0     C64195   5.408   2.649   9.225 -0.1960  0.5516 -0.2277
  487MOL0    Cl64196   5.238   2.575   9.236  0.2121 -0.2353 -0.4437
  487MOL0     C64197   6.062   2.176   9.900  0.4536  0.7708  0.2637
  487MOL0     C64198   6.075   2.190  10.045 -0.8946 -0.2842  0.3582
  487MOL0     O64199   6.003   2.177  10.328  0.1763  0.0595  0.2876
  487MOL0     C64200   6.057   2.273  10.598  0.2167  0.6099  0.4408
  487MOL0     C64201   6.108   2.321  10.718 -0.6601  0.2743 -0.5086
  487MOL0     N64202   6.511   2.044  11.238  1.4619  0.4406 -0.3265
  487MOL0     N64203   6.574   1.931  11.242 -0.5695 -0.1009 -0.3698
  487MOL0     C64204   7.202   1.006  11.277  0.0116  0.5311  1.4775
  487MOL0     C64205   7.325   0.950  11.239  0.5412 -0.0884 -0.1381
  487MOL0     C64206   7.787   0.940  11.196  0.1732 -0.2603  0.1126
  487MOL0     C64207   7.779   0.842  11.103 -0.7120  0.1127 -0.0021
  487MOL0     C64208   7.885   0.802  11.029  0.1554  0.8953  0.1492
  487MOL0     C64209   8.017   0.857  11.035 -0.8363  0.0231  0.1352
  487MOL0     O64210   8.122   0.814  10.949 -0.2168  0.6354  0.3002
  487MOL0     C64211   8.104   0.696  10.862  1.7270  0.6102  0.8561
  487MOL0     C64212   8.234   0.659  10.786  0.6582  0.2297 -0.3409
  487MOL0     C64213   8.220   0.556  10.673  0.6309 -0.0284 -0.2381
  487MOL0     C64214   8.368   0.539  10.617  0.6009  0.2563  0.3198
  487MOL0     C64215   8.392   0.654  10.536 -0.3834 -0.8617 -0.1478
  487MOL0     C64216   8.426   0.743  10.461  0.4802 -0.3155  0.1698
  487MOL0     C64217   8.033   0.953  11.128 -0.3512 -0.5642 -0.5601
  487MOL0     C64218   7.916   1.003  11.200  0.1975  0.5778 -0.1208
  487MOL0     H64219   7.506   1.094  11.491  0.9655  0.7900 -0.1118
  487MOL0     H64220   7.285   1.188  11.543 -0.3027 -2.1045  1.9306
  487MOL0     H64221   6.934   0.997  11.400 -1.0019  0.2955 -0.2304
  487MOL0     H64222   6.962   1.112  11.263  1.1032  2.4883 -0.1305
  487MOL0     H64223   6.812   1.164  11.530 -1.2202  1.9015  0.3642
  487MOL0     H64224   6.737   1.147  11.373  1.4075 -1.7367 -0.2955
  487MOL0     H64225   6.934   1.379  11.462  2.0190  1.2703 -5.0459
  487MOL0     H64226   6.757   1.385  11.455  2.2647  3.2109  1.9406
  487MOL0     H64227   6.967   1.362  11.229  0.3946  0.4383 -0.3214
  487MOL0     H64228   6.801   1.295  11.217 -0.1158 -2.5462  2.6398
  487MOL0     H64229   6.709   1.511  11.219 -1.0870 -0.3567 -2.5623
  487MOL0     H64230   6.831   1.493  11.096 -2.6191  1.1482 -0.6451
  487MOL0     H64231   6.986   1.635  11.182  0.2125 -0.3040 -0.8971
  487MOL0     H64232   6.945   1.608  11.339  0.7100 -2.5475 -1.5748
  487MOL0     H64233   6.739   1.720  11.346  2.2691 -1.3193  1.5604
  487MOL0     H64234   6.870   1.831  11.325  0.2082 -1.0508  2.4678
  487MOL0     H64235   6.680   1.727  11.109  1.6040 -0.9689 -1.9410
  487MOL0     H64236   6.827   1.814  11.068  0.2229 -0.3067  0.3780
  487MOL0     H64237   6.739   2.112  11.027 -2.7296 -3.0408 -5.2032
  487MOL0     H64238   6.630   2.331  11.143 -1.3804  0.1421  0.8910
  487MOL0     H64239   6.495   2.307  11.243 -0.0062  2.0613 -0.5639
  487MOL0     H64240   6.362   2.261  11.018  0.7272 -1.3804 -0.9337
  487MOL0     H64241   6.519   2.277  10.941  2.6870  0.1196  0.5917
  487MOL0     H64242   6.373   2.494  11.096  0.7790 -1.9909  1.7397
  487MOL0     H64243   6.533   2.500  11.023  1.1575 -3.0019  1.5059
  487MOL0     H64244   6.457   2.466  10.794  0.4508 -0.6918  0.0261
  487MOL0     H64245   6.386   2.608  10.875  1.7994 -0.9505  2.3747
  487MOL0     H64246   6.338   2.544  10.610  1.2854 -0.7332 -0.1377
  487MOL0     H64247   6.261   2.458  10.397  0.2838  2.9740  0.4908
  487MOL0     H64248   6.182   2.509  10.050  1.5893 -0.4528 -1.4303
  487MOL0     H64249   6.170   2.483   9.803  2.3757 -1.0439 -0.6059
  487MOL0     H64250   5.901   2.160   9.698  1.5246  0.9147  1.2933
  487MOL0     H64251   5.986   2.133   9.547  0.1933  2.7967 -2.8409
  487MOL0     H64252   5.793   2.248   9.528 -1.4818  1.6765  0.5672
  487MOL0     H64253   5.932   2.339   9.463  1.0867 -2.3304 -0.0998
  487MOL0     H64254   5.896   2.509   9.630  1.7181 -1.8201 -0.5255
  487MOL0     H64255   5.839   2.385   9.739 -0.5258 -2.6649 -1.6820
  487MOL0     H64256   5.619   2.379   9.623 -0.7994  0.6982  1.1677
  487MOL0     H64257   5.659   2.556   9.660  1.4998  0.6814 -0.9649
  487MOL0     H64258   5.680   2.391   9.410  0.8787 -0.9341  2.9638
  487MOL0     H64259   5.744   2.555   9.410 -0.6479 -0.6766 -2.5203
  487MOL0     H64260   5.489   2.622   9.468 -1.2770  1.6019 -2.5133
  487MOL0     H64261   5.450   2.460   9.432  0.1107  1.0536  3.1282
  487MOL0     H64262   5.621   2.591   9.227  0.8056 -4.6073 -0.1349
  487MOL0     H64263   5.514   2.465   9.198  0.9921  0.1960  0.0211
  487MOL0     H64264   5.430   2.666   9.120  0.6731 -1.5560 -0.4532
  487MOL0     H64265   5.403   2.743   9.280 -2.6085  1.6737 -2.1586
  487MOL0     H64266   6.050   2.075   9.861 -1.8736  1.6998 -1.6536
  487MOL0     H64267   6.069   2.101  10.106  1.8979 -0.7896  0.0146
  487MOL0     H64268   5.986   2.190  10.592  2.8930 -1.7485 -1.9824
  487MOL0     H64269   6.065   2.275  10.806 -1.5810 -0.0983 -1.1362
  487MOL0     H64270   7.115   0.970  11.223  1.3592 -2.1400  0.9130
  487MOL0     H64271   7.323   0.888  11.149  2.4429 -0.0796 -0.2181
  487MOL0     H64272   7.681   0.799  11.081  0.3424 -2.0604 -0.6686
  487MOL0     H64273   7.874   0.731  10.948  3.1149 -2.4392  2.3665
  487MOL0     H64274   8.031   0.726  10.786  0.9343 -0.3150  1.2321
  487MOL0     H64275   8.064   0.610  10.916 -1.1949  1.1657 -0.2651
  487MOL0     H64276   8.261   0.757  10.747  0.2744  0.4985  0.0562
  487MOL0     H64277   8.305   0.620  10.860  1.2389 -1.2403 -1.6284
  487MOL0     H64278   8.138   0.581  10.605  0.1621 -1.3787 -0.2127
  487MOL0     H64279   8.200   0.451  10.697 -2.0042 -0.4536 -3.5128
  487MOL0     H64280   8.444   0.532  10.696  0.2890 -2.0762  0.4982
  487MOL0     H64281   8.370   0.456  10.546 -3.1777  1.2224 -1.1252
  487MOL0     H64282   8.445   0.819  10.388 -0.1465 -1.2429 -0.9999
  487MOL0     H64283   8.113   1.023  11.151 -1.5742  0.7747 -0.1752
  487MOL0     H64284   7.933   1.098  11.249 -0.7665  1.0501 -0.6883
  488MOL0     O64285   6.574   3.189   5.320 -0.3505  0.2227  0.1177
  488MOL0     C64286   6.581   3.102   5.410 -0.1824  0.2245 -0.5980
  488MOL0     O64287   6.605   2.968   5.384  0.0232  0.2479 -0.2585
  488MOL0     C64288   6.602   2.915   5.264  0.4449  0.1540 -0.9062
  488MOL0     C64289   6.489   2.835   5.232 -0.1056  0.7129 -0.1007
  488MOL0     C64290   6.481   2.766   5.115 -0.1129  0.1207  0.9202
  488MOL0     C64291   6.581   2.780   5.015  0.2915  0.7085  0.3506
  488MOL0     O64292   6.576   2.729   4.887  0.1802  0.6868 -0.0169
  488MOL0     C64293   6.443   2.712   4.834  0.3348  0.4532 -0.3179
  488MOL0     C64294   6.446   2.696   4.684  0.1834 -0.8769 -0.0816
  488MOL0     C64295   6.478   2.834   4.603 -0.1087 -0.0257 -0.1169
  488MOL0     C64296   6.442   2.966   4.665 -0.4987  0.4256 -0.2901
  488MOL0     C64297   6.504   3.090   4.589 -0.1434 -0.3012 -0.7153
  488MOL0     C64298   6.468   3.121   4.448 -0.0587 -0.6548  0.2116
  488MOL0     C64299   6.543   3.246   4.397 -0.2905 -0.2965 -0.1946
  488MOL0     C64300   6.679   3.201   4.336  0.7406  0.5384  0.0094
  488MOL0     N64301   6.771   3.313   4.330  0.0710 -0.2641 -0.0200
  488MOL0     C64302   6.740   3.441   4.293  0.6758  0.1357 -0.6374
  488MOL0     C64303   6.852   3.504   4.319  0.0482  0.0564  1.1598
  488MOL0     C64304   6.863   3.646   4.294  0.4138 -0.3875  0.5604
  488MOL0     C64305   6.919   3.680   4.154  0.4391  0.6535 -0.6222
  488MOL0     C64306   6.799   3.733   4.078 -0.1337  0.1180  0.4202
  488MOL0     C64307   6.832   3.770   3.933  0.0472 -0.4660  0.1116
  488MOL0     O64308   6.956   3.846   3.916 -0.0270  0.1905  0.2422
  488MOL0     C64309   7.018   3.842   3.797 -1.3988  1.3090  0.4915
  488MOL0     C64310   6.963   3.795   3.678  0.3061 -0.1569 -0.8154
  488MOL0     C64311   7.035   3.783   3.551  0.6164 -0.5106  0.5094
  488MOL0     C64312   7.167   3.823   3.545  0.4213 -0.3168 -0.0415
  488MOL0     C64313   7.233   3.816   3.420  0.5073  0.0096 -0.2805
  488MOL0     O64314   7.374   3.832   3.416  0.6319 -0.0661  0.2698
  488MOL0     C64315   7.453   3.825   3.301 -0.5131  0.4468 -0.3155
  488MOL0     C64316   7.592   3.846   3.320 -0.0960 -0.5227 -0.5437
  488MOL0     C64317   7.683   3.833   3.219  0.1369  0.0903 -1.2171
  488MOL0     C64318   7.640   3.807   3.089 -0.6437 -0.8267  0.0500
  488MOL0     O64319   7.733   3.792   2.993  0.6590 -0.0819  0.4946
  488MOL0     C64320   7.699   3.817   2.856  0.1832 -0.1984 -0.5315
  488MOL0     C64321   7.840   3.853   2.793 -0.0774 -0.1920  0.2531
  488MOL0     C64322   7.812   3.949   2.674 -0.3479  0.2039  0.4520
  488MOL0     C64323   7.923   3.965   2.574 -0.2958 -0.1109 -0.0137
  488MOL0     C64324   7.949   3.848   2.489 -0.4344 -0.3089  0.3679
  488MOL0     C64325   8.040   3.878   2.374 -0.6318 -0.4372  0.6153
  488MOL0     C64326   8.180   3.929   2.406  0.1807 -0.3915  0.2688
  488MOL0     C64327   8.272   3.964   2.290 -0.4659 -0.1795  0.0267
  488MOL0    Cl64328   8.319   3.803   2.223  0.2174 -0.4894  0.2206
  488MOL0     C64329   7.498   3.799   3.064 -0.3995  0.9387  0.6025
  488MOL0     C64330   7.411   3.805   3.172  0.1388 -0.2956  0.2545
  488MOL0     O64331   7.162   3.778   3.323 -0.1972 -0.2729 -0.4301
  488MOL0     C64332   7.226   3.891   3.663  0.2393 -0.0832 -0.5440
  488MOL0     C64333   7.150   3.893   3.780 -0.9939  0.6657  0.6244
  488MOL0     N64334   6.940   3.417   4.381  0.4631  1.0806  0.5880
  488MOL0     N64335   6.886   3.302   4.400 -0.1981 -0.3137 -0.5038
  488MOL0     C64336   6.698   2.862   5.044  0.9787  0.0395 -0.2946
  488MOL0     C64337   6.704   2.922   5.170 -0.3736 -0.1509  0.5412
  488MOL0     C64338   6.542   3.135   5.541 -0.6093 -0.1940 -0.3229
  488MOL0     C64339   6.503   3.265   5.575  0.0185  0.7499  0.3522
  488MOL0     C64340   6.450   3.291   5.705  0.0299 -0.2488  0.0312
  488MOL0     C64341   6.461   3.202   5.811  0.0132 -0.7000 -1.1674
  488MOL0     O64342   6.433   3.248   5.933  0.4573  0.1564  0.5186
  488MOL0     C64343   6.422   3.170   6.056  0.6195 -1.1628  0.3903
  488MOL0     C64344   6.309   3.236   6.144  0.1624  0.5542  0.1120
  488MOL0     C64345   6.274   3.183   6.287 -0.4064  0.3950 -0.8633
  488MOL0     C64346   6.184   3.289   6.360 -0.1203  0.3021 -0.2245
  488MOL0     C64347   6.180   3.253   6.506  0.1871  0.4620  0.8171
  488MOL0     C64348   6.145   3.224   6.619 -0.1655  0.3779 -0.3116
  488MOL0     C64349   6.511   3.068   5.778  0.6645  0.2696 -0.6662
  488MOL0     C64350   6.549   3.040   5.647 -0.3983  0.5361 -0.4652
  488MOL0     H64351   6.412   2.811   5.304  3.1756 -2.2622  2.8071
  488MOL0     H64352   6.408   2.687   5.111 -1.2050  1.0834  1.2313
  488MOL0     H64353   6.366   2.783   4.864 -1.8937 -0.8832 -2.5158
  488MOL0     H64354   6.418   2.613   4.873  3.2099 -1.7731 -3.5230
  488MOL0     H64355   6.341   2.687   4.652 -0.2596  2.3214  0.1748
  488MOL0     H64356   6.510   2.614   4.651 -0.3900  0.3047 -4.8129
  488MOL0     H64357   6.439   2.828   4.501  0.6467 -0.6311 -0.3780
  488MOL0     H64358   6.585   2.815   4.595 -0.4559 -1.5191 -2.1185
  488MOL0     H64359   6.334   2.982   4.661 -0.1955  2.8670 -0.1204
  488MOL0     H64360   6.458   2.974   4.773 -0.6693 -4.1535  0.2618
  488MOL0     H64361   6.612   3.087   4.605 -0.4423 -2.1512  1.3932
  488MOL0     H64362   6.491   3.185   4.641  2.6442  0.8058 -1.8570
  488MOL0     H64363   6.361   3.143   4.446  0.3694  1.7069  0.2751
  488MOL0     H64364   6.482   3.034   4.384 -1.1704 -0.4792 -0.2933
  488MOL0     H64365   6.496   3.296   4.312  1.9207  1.9675 -0.1872
  488MOL0     H64366   6.556   3.315   4.481 -1.8002 -0.8291  0.5115
  488MOL0     H64367   6.653   3.160   4.238  0.3051 -0.9513  0.7142
  488MOL0     H64368   6.721   3.117   4.393 -0.7428 -0.6344 -0.5511
  488MOL0     H64369   6.650   3.483   4.249  0.7008  1.9243  0.8830
  488MOL0     H64370   6.927   3.684   4.375 -1.5756 -1.0748  2.5656
  488MOL0     H64371   6.771   3.704   4.311  0.4889 -0.1003  0.0140
  488MOL0     H64372   6.934   3.582   4.106 -0.2763 -1.2096  2.6576
  488MOL0     H64373   7.005   3.748   4.150  0.5514  0.5577  0.0030
  488MOL0     H64374   6.728   3.650   4.084 -1.8059  1.5786  1.9396
  488MOL0     H64375   6.756   3.817   4.134  0.4264  0.8177 -0.1652
  488MOL0     H64376   6.748   3.817   3.882  0.3114  0.0920  0.1748
  488MOL0     H64377   6.843   3.681   3.871  0.5989  0.1019 -0.6218
  488MOL0     H64378   6.862   3.755   3.686 -0.2483  1.5492  3.9850
  488MOL0     H64379   6.981   3.742   3.467  0.7248  0.8645 -0.2677
  488MOL0     H64380   7.623   3.862   3.423  2.1363 -3.9039 -0.5369
  488MOL0     H64381   7.791   3.837   3.233  0.0832  0.7362 -0.9510
  488MOL0     H64382   7.621   3.894   2.849 -1.7700 -2.0881 -0.7965
  488MOL0     H64383   7.658   3.723   2.818 -0.0556 -1.1908  1.9580
  488MOL0     H64384   7.880   3.762   2.748 -0.1104 -0.1157  0.0652
  488MOL0     H64385   7.912   3.885   2.868  0.0626 -0.5278  0.2615
  488MOL0     H64386   7.775   4.046   2.707 -2.5205 -0.6975  0.8528
  488MOL0     H64387   7.735   3.899   2.615  1.1052  0.1431 -1.4717
  488MOL0     H64388   7.904   4.051   2.510 -2.3837  0.1195  0.8586
  488MOL0     H64389   8.003   3.995   2.642 -0.0024 -1.4100  0.2535
  488MOL0     H64390   7.855   3.802   2.459 -1.8793  2.1595  0.8265
  488MOL0     H64391   8.005   3.777   2.551 -0.5230 -0.6715  0.0400
  488MOL0     H64392   7.983   3.940   2.304  0.1324  1.3780  1.5314
  488MOL0     H64393   8.062   3.790   2.313  0.9626 -0.2852  0.9268
  488MOL0     H64394   8.176   4.017   2.471 -0.0598 -1.0048  1.1136
  488MOL0     H64395   8.238   3.855   2.461  0.7984  1.0289  1.6008
  488MOL0     H64396   8.359   4.020   2.327 -0.0873 -0.1474 -0.8974
  488MOL0     H64397   8.217   4.028   2.220 -0.3881 -1.6271 -1.3834
  488MOL0     H64398   7.472   3.779   2.961  2.3722  1.4179 -0.2640
  488MOL0     H64399   7.311   3.775   3.142  0.8154 -1.8553 -0.5591
  488MOL0     H64400   7.326   3.933   3.663 -0.3159  1.2910 -0.3494
  488MOL0     H64401   7.206   3.935   3.863  0.7304  1.7084 -1.0005
  488MOL0     H64402   6.781   2.878   4.975  2.0541 -0.6398  0.7973
  488MOL0     H64403   6.792   2.980   5.196 -1.3178  0.9802  1.2869
  488MOL0     H64404   6.500   3.344   5.501 -0.3202  0.0556 -0.3839
  488MOL0     H64405   6.411   3.389   5.731 -0.3289 -1.1296  3.3960
  488MOL0     H64406   6.518   3.182   6.108  2.7521 -1.7407 -3.1270
  488MOL0     H64407   6.414   3.063   6.034  4.6490 -1.3767 -0.6882
  488MOL0     H64408   6.346   3.339   6.147  0.8545  0.3076  2.2062
  488MOL0     H64409   6.214   3.227   6.091  0.0928  2.1626 -0.0904
  488MOL0     H64410   6.368   3.162   6.340 -1.9821  0.1026  2.0619
  488MOL0     H64411   6.225   3.086   6.271 -2.0142  1.3585 -2.0646
  488MOL0     H64412   6.245   3.380   6.357  2.5142 -1.3840 -0.7437
  488MOL0     H64413   6.085   3.299   6.316 -1.2213 -2.9513  1.1809
  488MOL0     H64414   6.119   3.184   6.715  0.0891 -2.2847 -1.2887
  488MOL0     H64415   6.508   2.995   5.859 -0.1761  1.6686  0.6155
  488MOL0     H64416   6.578   2.935   5.639 -1.2041  0.3135 -0.5487
  489MOL0     O64417  10.198   5.228   4.927 -0.3428  1.3414 -0.0150
  489MOL0     C64418  10.320   5.212   4.940 -0.0978  0.3769 -0.9215
  489MOL0     O64419  10.383   5.189   5.061 -0.0318  0.2490  0.1113
  489MOL0     C64420  10.312   5.150   5.174  0.7687 -0.9689  0.6815
  489MOL0     C64421  10.332   5.028   5.232  0.0500 -0.0746 -0.1203
  489MOL0     C64422  10.260   5.001   5.351 -1.2456  0.5222  0.1150
  489MOL0     C64423  10.179   5.090   5.412 -0.1427 -0.0250  0.0784
  489MOL0     O64424  10.116   5.046   5.525 -0.3629 -0.0352 -0.0564
  489MOL0     C64425  10.152   5.139   5.634  1.1931  0.6047 -0.4385
  489MOL0     C64426  10.301   5.137   5.663 -0.0328  0.4905 -1.4079
  489MOL0     C64427  10.326   5.027   5.765  0.5731 -0.1946 -0.3417
  489MOL0     C64428  10.303   4.876   5.717 -0.9739 -0.8507  0.4256
  489MOL0     C64429  10.277   4.773   5.822 -0.1598  0.8570 -0.6943
  489MOL0     C64430  10.392   4.750   5.932 -0.0671  0.8182  0.3778
  489MOL0     C64431  10.344   4.648   6.039 -0.4185  1.1440 -0.3027
  489MOL0     C64432  10.343   4.505   5.984 -0.0041 -0.1541  0.3478
  489MOL0     N64433  10.289   4.408   6.078 -0.1160 -0.1325  0.7829
  489MOL0     C64434  10.365   4.372   6.186  0.4110  0.9871  0.9363
  489MOL0     C64435  10.280   4.288   6.258 -0.8022 -0.1531  0.5783
  489MOL0     C64436  10.292   4.232   6.393 -0.1498  0.6502 -0.2087
  489MOL0     C64437  10.360   4.343   6.490 -0.3005  0.8313  0.1769
  489MOL0     C64438  10.513   4.324   6.509 -0.4472 -1.1140 -0.0582
  489MOL0     C64439  10.565   4.411   6.626  0.3890  0.7340  0.3760
  489MOL0     O64440  10.517   4.546   6.601  0.3413 -0.8131 -0.0248
  489MOL0     C64441  10.582   4.625   6.508  0.5677 -0.4383 -0.5404
  489MOL0     C64442  10.506   4.694   6.414 -0.7119  0.4124 -0.6631
  489MOL0     C64443  10.572   4.774   6.326  0.1893  0.3800 -1.0380
  489MOL0     C64444  10.715   4.804   6.349  0.0827  0.2689  0.0743
  489MOL0     C64445  10.782   4.893   6.250 -0.5169  0.5309 -0.4293
  489MOL0     O64446  10.743   4.876   6.118 -0.0869 -0.2680  0.4883
  489MOL0     C64447  10.806   4.950   6.022 -0.0263  0.6810  0.3899
  489MOL0     C64448  10.945   4.956   6.018  0.2394  0.2156 -1.0783
  489MOL0     C64449  11.016   5.045   5.926 -0.6246  0.6490 -0.0689
  489MOL0     C64450  10.940   5.133   5.848  1.3052 -0.3865  0.1450
  489MOL0     O64451  10.990   5.223   5.760  0.0705  0.1521  0.3417
  489MOL0     C64452  11.112   5.182   5.684  0.6685  0.2765 -0.3520
  489MOL0     C64453  11.112   5.259   5.549  0.0860 -0.1509 -0.3103
  489MOL0     C64454  11.230   5.356   5.552  0.1845 -0.7513 -0.3247
  489MOL0     C64455  11.217   5.440   5.426 -0.1931  0.2170 -0.3450
  489MOL0     C64456  11.353   5.486   5.368  0.1672 -0.2155  0.0563
  489MOL0     C64457  11.327   5.567   5.242  0.0126 -0.7819 -0.1531
  489MOL0     C64458  11.446   5.639   5.184  0.1225  0.0129  0.0018
  489MOL0     C64459  11.402   5.692   5.046  0.6585  0.6872  0.9702
  489MOL0    Cl64460  11.524   5.807   4.984 -0.9140 -0.2908  0.2090
  489MOL0     C64461  10.797   5.121   5.848 -0.0744  0.1599  0.5077
  489MOL0     C64462  10.736   5.030   5.937  0.8687  0.1091  0.5404
  489MOL0     O64463  10.867   4.975   6.296 -0.4665  0.6082 -0.0512
  489MOL0     C64464  10.784   4.746   6.450  0.2703 -0.0684  0.5609
  489MOL0     C64465  10.725   4.651   6.528 -0.5849 -0.3308 -0.3617
  489MOL0     N64466  10.167   4.276   6.175 -0.7997 -0.1145 -0.1788
  489MOL0     N64467  10.162   4.348   6.074 -0.0517 -0.3139 -0.1640
  489MOL0     C64468  10.158   5.211   5.351  0.0661 -0.0268  0.2337
  489MOL0     C64469  10.219   5.239   5.229  0.1250  0.1158  0.3019
  489MOL0     C64470  10.396   5.230   4.815  0.2515 -0.6724  0.8727
  489MOL0     C64471  10.532   5.222   4.815 -0.5298  0.0459  0.0799
  489MOL0     C64472  10.601   5.240   4.691 -0.1622  0.3397 -0.0045
  489MOL0     C64473  10.536   5.258   4.566 -0.3489 -0.4413 -0.2127
  489MOL0     O64474  10.617   5.267   4.459 -0.0302  0.1594 -0.8121
  489MOL0     C64475  10.555   5.251   4.332 -0.6490  0.2041  0.0725
  489MOL0     C64476  10.659   5.272   4.226 -0.1865 -0.1656  0.1890
  489MOL0     C64477  10.691   5.420   4.219  0.3678 -0.1755  0.6682
  489MOL0     C64478  10.624   5.487   4.104 -0.4252  0.7436  0.9646
  489MOL0     C64479  10.685   5.475   3.975  0.5646  0.5311 -1.0195
  489MOL0     C64480  10.737   5.470   3.872 -0.4672  0.4122 -0.2028
  489MOL0     C64481  10.398   5.282   4.572  0.2071 -0.1948  0.3224
  489MOL0     C64482  10.326   5.264   4.690  0.6264  0.5100  0.3076
  489MOL0     H64483  10.395   4.958   5.180 -0.0876  1.3034 -2.2818
  489MOL0     H64484  10.273   4.911   5.411 -2.3460  0.8126  0.8202
  489MOL0     H64485  10.097   5.107   5.723  0.8377 -1.6852 -1.4304
  489MOL0     H64486  10.127   5.244   5.616  2.9522  1.1325 -0.0456
  489MOL0     H64487  10.328   5.234   5.706 -2.4094  0.8653 -0.6274
  489MOL0     H64488  10.359   5.121   5.572  1.1989 -2.3376 -0.2247
  489MOL0     H64489  10.260   5.042   5.851  2.1906 -0.9343  1.0766
  489MOL0     H64490  10.429   5.035   5.801  0.8666 -1.4238 -0.8252
  489MOL0     H64491  10.215   4.873   5.653 -1.5245 -1.2551  1.1762
  489MOL0     H64492  10.400   4.851   5.672 -0.4318  2.8576 -0.7584
  489MOL0     H64493  10.260   4.684   5.761 -2.0850  0.0929  0.8438
  489MOL0     H64494  10.188   4.808   5.874 -0.4192 -2.1461  1.1272
  489MOL0     H64495  10.399   4.845   5.985 -2.3217 -0.7141  3.7997
  489MOL0     H64496  10.482   4.717   5.879 -1.5218 -0.3079 -1.5395
  489MOL0     H64497  10.421   4.642   6.117 -3.5556 -2.7406  2.9482
  489MOL0     H64498  10.247   4.674   6.082 -0.8189  0.4430 -0.7693
  489MOL0     H64499  10.448   4.478   5.967 -0.5224 -0.8073 -2.2832
  489MOL0     H64500  10.295   4.483   5.888 -0.6583 -2.2777  1.1103
  489MOL0     H64501  10.460   4.414   6.216 -0.5833  2.7648  1.7829
  489MOL0     H64502  10.346   4.138   6.375  1.2914  1.1768  1.1329
  489MOL0     H64503  10.186   4.218   6.417 -0.8760  1.6714 -2.5382
  489MOL0     H64504  10.318   4.327   6.590 -2.1592 -1.8564 -0.9060
  489MOL0     H64505  10.343   4.443   6.450  3.5161  1.6708  0.2685
  489MOL0     H64506  10.529   4.217   6.528  1.9309 -0.2749  3.4670
  489MOL0     H64507  10.571   4.352   6.420 -0.5470  3.3553  1.0603
  489MOL0     H64508  10.674   4.402   6.630  0.3284  0.3447  2.9823
  489MOL0     H64509  10.529   4.365   6.718  3.5928 -1.5340  0.6741
  489MOL0     H64510  10.402   4.665   6.404 -0.2353 -1.7265  0.1755
  489MOL0     H64511  10.523   4.814   6.238 -1.3917 -1.7269 -1.2071
  489MOL0     H64512  10.996   4.887   6.085  0.0293  2.3535  1.4399
  489MOL0     H64513  11.124   5.031   5.922 -0.7836 -0.4562 -0.6548
  489MOL0     H64514  11.098   5.075   5.667 -0.0141 -0.1870  2.6347
  489MOL0     H64515  11.197   5.200   5.750  0.3098  4.8788 -0.7704
  489MOL0     H64516  11.019   5.309   5.522  0.6632  0.3882 -1.3487
  489MOL0     H64517  11.137   5.185   5.472  1.8039 -0.4382  0.4722
  489MOL0     H64518  11.328   5.307   5.543  1.3621  1.6633 -1.5795
  489MOL0     H64519  11.239   5.431   5.631  2.2097 -0.6720 -0.5551
  489MOL0     H64520  11.163   5.383   5.349  2.0848  0.7342 -2.4357
  489MOL0     H64521  11.146   5.518   5.454  0.0900  0.9450 -1.5614
  489MOL0     H64522  11.415   5.401   5.336  2.5659  1.4287  0.0641
  489MOL0     H64523  11.408   5.550   5.437  0.2871  1.7499 -1.7699
  489MOL0     H64524  11.252   5.640   5.274 -0.3988 -1.4668  0.4936
  489MOL0     H64525  11.292   5.497   5.167  2.0844 -2.6832  0.5462
  489MOL0     H64526  11.468   5.731   5.238  1.8864  0.5027 -1.4661
  489MOL0     H64527  11.546   5.595   5.185  1.3600  2.6250 -0.0706
  489MOL0     H64528  11.311   5.752   5.053  0.9067  1.1572  0.2774
  489MOL0     H64529  11.362   5.612   4.984 -1.5135  1.7274  0.9379
  489MOL0     H64530  10.745   5.169   5.766 -0.6639  2.3528  2.0784
  489MOL0     H64531  10.629   5.013   5.930  0.7108  1.1961  0.1737
  489MOL0     H64532  10.884   4.779   6.472  1.1018 -0.6142 -2.0666
  489MOL0     H64533  10.780   4.603   6.609 -1.4054  1.5114  1.3895
  489MOL0     H64534  10.098   5.287   5.400  3.0443  2.0284  1.0129
  489MOL0     H64535  10.195   5.336   5.188  2.1141 -0.0748 -1.5273
  489MOL0     H64536  10.586   5.188   4.903 -1.1007 -0.2109  0.3335
  489MOL0     H64537  10.709   5.227   4.690 -0.4185 -2.6595 -2.1108
  489MOL0     H64538  10.463   5.310   4.329 -2.1421 -1.8918  1.8115
  489MOL0     H64539  10.523   5.148   4.313 -2.9228  0.9186 -0.2955
  489MOL0     H64540  10.748   5.210   4.239  0.3374  0.3044 -1.0501
  489MOL0     H64541  10.615   5.233   4.134 -0.4985  0.8894 -0.1233
  489MOL0     H64542  10.801   5.419   4.218  0.3658 -0.5727  0.5692
  489MOL0     H64543  10.639   5.476   4.297 -1.2398 -0.6686 -0.0031
  489MOL0     H64544  10.522   5.450   4.096 -0.3266 -0.0919  2.9169
  489MOL0     H64545  10.618   5.594   4.126 -3.1487  0.9656 -0.4430
  489MOL0     H64546  10.768   5.466   3.770  0.1865  4.6241 -0.3336
  489MOL0     H64547  10.337   5.293   4.482  0.3302 -1.6192  0.0400
  489MOL0     H64548  10.219   5.278   4.684  0.3732 -0.4357  1.9022
  490MOL0     O64549   0.418   0.182   7.070  0.1173  0.3343  0.6339
  490MOL0     C64550   0.308   0.151   7.034  0.7733  0.1206  0.1576
  490MOL0     O64551   0.223   0.228   6.971  0.3193  0.2171 -0.4215
  490MOL0     C64552   0.252   0.348   6.920  0.5105  0.0051 -0.3419
  490MOL0     C64553   0.271   0.460   7.006  0.5442  0.1030 -0.4989
  490MOL0     C64554   0.288   0.588   6.955  0.6971 -1.0455  0.0388
  490MOL0     C64555   0.283   0.621   6.818 -0.6337 -0.3825 -0.5737
  490MOL0     O64556   0.320   0.755   6.785  0.6436  0.1624  0.0647
  490MOL0     C64557   0.336   0.776   6.648 -0.3017 -0.5404  0.3090
  490MOL0     C64558   0.353   0.928   6.639  1.1438 -0.3281  0.1570
  490MOL0     C64559   0.240   1.009   6.707 -0.5925  0.4501 -0.4002
  490MOL0     C64560   0.105   0.997   6.642  0.0157 -0.0255 -1.0051
  490MOL0     C64561   0.029   1.129   6.669 -0.0799  0.6271 -0.0504
  490MOL0     C64562  -0.122   1.118   6.629  0.4255 -0.5568  1.1151
  490MOL0     C64563  -0.179   1.126   6.472 -1.1046  0.1830  0.4947
  490MOL0     C64564  -0.192   1.275   6.421 -0.0955  0.8068  0.4868
  490MOL0     N64565  -0.066   1.350   6.406  0.3067  0.1277  0.0771
  490MOL0     C64566   0.010   1.340   6.292  0.2839  0.1458 -0.1818
  490MOL0     C64567   0.113   1.437   6.311  0.8481  0.0056 -0.0185
  490MOL0     C64568   0.218   1.463   6.215  0.1372  1.0166  0.4962
  490MOL0     C64569   0.299   1.341   6.176 -0.0247 -0.2592 -0.4470
  490MOL0     C64570   0.373   1.271   6.299 -0.2595 -0.3662 -0.1714
  490MOL0     C64571   0.478   1.365   6.371  0.4315  0.2330 -0.0542
  490MOL0     O64572   0.556   1.282   6.454 -0.3318  0.2108  0.0623
  490MOL0     C64573   0.655   1.196   6.400 -0.4384 -1.1843 -0.4164
  490MOL0     C64574   0.731   1.143   6.496  0.2494  0.7104 -0.6152
  490MOL0     C64575   0.850   1.075   6.466  0.2012  0.0116 -0.2414
  490MOL0     C64576   0.883   1.057   6.330 -0.8636  0.7563  0.2525
  490MOL0     C64577   1.023   0.994   6.309  0.5062 -0.1079 -0.6411
  490MOL0     O64578   1.118   1.012   6.400 -0.4696  0.6883 -0.3030
  490MOL0     C64579   1.241   0.954   6.399  0.7000 -0.8288 -0.4340
  490MOL0     C64580   1.285   0.846   6.322 -0.1715 -0.5569 -0.2755
  490MOL0     C64581   1.427   0.817   6.308  0.2164  0.7295  0.1830
  490MOL0     C64582   1.518   0.896   6.379 -0.9618  0.6897  1.1071
  490MOL0     O64583   1.656   0.885   6.366  0.1284 -0.1827  0.1726
  490MOL0     C64584   1.699   0.810   6.255  0.1940  0.0391 -0.4362
  490MOL0     C64585   1.853   0.827   6.261 -0.5331 -0.7196  1.0532
  490MOL0     C64586   1.920   0.794   6.122 -0.4872 -0.6342 -0.1733
  490MOL0     C64587   2.078   0.755   6.152  0.2169 -0.0704  0.0146
  490MOL0     C64588   2.125   0.657   6.038  0.4409  0.4538 -0.7473
  490MOL0     C64589   2.117   0.724   5.900  0.9178  0.5197  0.1313
  490MOL0     C64590   2.182   0.621   5.796 -0.0218 -0.7679  0.2236
  490MOL0     C64591   2.340   0.609   5.794 -0.1488 -0.0360 -0.2607
  490MOL0    Cl64592   2.398   0.500   5.659  0.1438 -0.3059 -0.5435
  490MOL0     C64593   1.472   0.999   6.460  0.4264  1.1761 -0.0820
  490MOL0     C64594   1.335   1.020   6.476  0.6140  0.0964 -0.6947
  490MOL0     O64595   1.044   0.951   6.198 -1.0229 -0.5418 -0.3614
  490MOL0     C64596   0.810   1.118   6.232 -0.0119  0.1179 -0.3208
  490MOL0     C64597   0.694   1.188   6.270  0.4573  0.8860  0.1279
  490MOL0     N64598   0.100   1.485   6.443  0.1376 -0.5781 -0.0149
  490MOL0     N64599  -0.004   1.432   6.494  0.2520 -1.1467 -0.2085
  490MOL0     C64600   0.261   0.510   6.736  0.7446  0.1111  0.2904
  490MOL0     C64601   0.238   0.380   6.782  1.0092  0.8522 -0.6822
  490MOL0     C64602   0.265   0.022   7.074  0.4401  1.5661  0.2080
  490MOL0     C64603   0.131  -0.021   7.051  0.1014  1.4694 -0.0957
  490MOL0     C64604   0.084  -0.142   7.097 -0.2278  1.2309  0.1613
  490MOL0     C64605   0.169  -0.237   7.159  0.2152  0.0068 -0.1443
  490MOL0     O64606   0.138  -0.354   7.225  0.7207 -0.4229  0.4314
  490MOL0     C64607   0.019  -0.426   7.178  1.1922 -0.0094  0.1784
  490MOL0     C64608   0.022  -0.570   7.228  0.4897  0.0617 -0.2675
  490MOL0     C64609  -0.084  -0.649   7.161  0.3947 -0.2397 -0.4103
  490MOL0     C64610  -0.232  -0.645   7.209 -0.4297 -0.0472 -0.2066
  490MOL0     C64611  -0.243  -0.671   7.352  0.8031  0.8852  0.0780
  490MOL0     C64612  -0.258  -0.706   7.465  0.1301 -0.1688 -1.0718
  490MOL0     C64613   0.305  -0.199   7.175  0.2014 -0.9686 -0.3181
  490MOL0     C64614   0.351  -0.071   7.131 -0.4271  0.7229  0.6434
  490MOL0     H64615   0.275   0.450   7.114 -2.0627  4.5199  0.2489
  490MOL0     H64616   0.294   0.674   7.021 -1.0820  0.2151 -1.3313
  490MOL0     H64617   0.245   0.762   6.588  0.7083  1.8199 -1.9872
  490MOL0     H64618   0.412   0.718   6.595 -0.2695  1.3606 -1.8867
  490MOL0     H64619   0.357   0.959   6.534  0.4194  1.9681  0.7569
  490MOL0     H64620   0.452   0.955   6.675 -0.5170  3.5820  2.3699
  490MOL0     H64621   0.273   1.113   6.695  1.4041  0.1087  1.4672
  490MOL0     H64622   0.216   0.981   6.810 -0.4230 -0.5534 -0.6236
  490MOL0     H64623   0.105   0.980   6.534  1.4088  0.1619 -1.0476
  490MOL0     H64624   0.047   0.916   6.688 -1.1385  2.7136  2.8907
  490MOL0     H64625   0.068   1.204   6.599 -0.3550  1.1979  0.3917
  490MOL0     H64626   0.043   1.163   6.772 -0.9533 -0.4406  0.4339
  490MOL0     H64627  -0.162   1.205   6.681  3.7320  2.0301 -0.3045
  490MOL0     H64628  -0.168   1.030   6.675 -0.5024 -0.0004  1.2867
  490MOL0     H64629  -0.109   1.065   6.414 -2.8642 -2.2639  0.8319
  490MOL0     H64630  -0.277   1.080   6.464 -0.2361 -1.3554 -3.2518
  490MOL0     H64631  -0.260   1.331   6.486 -0.1513 -0.0546  1.1968
  490MOL0     H64632  -0.233   1.292   6.321  0.0550  1.9359  0.5996
  490MOL0     H64633  -0.022   1.274   6.213 -2.6873  0.9743  0.2051
  490MOL0     H64634   0.287   1.539   6.253  1.8956 -1.0805  1.6955
  490MOL0     H64635   0.176   1.507   6.124 -0.8065  1.9057  1.3337
  490MOL0     H64636   0.364   1.364   6.091  0.8765 -0.3050  0.2051
  490MOL0     H64637   0.232   1.264   6.138 -2.7578  1.8975 -0.2813
  490MOL0     H64638   0.309   1.233   6.379  3.1336 -3.6016  1.2858
  490MOL0     H64639   0.432   1.181   6.276 -1.7863 -1.6484  0.7156
  490MOL0     H64640   0.437   1.449   6.428  1.4952  0.8821 -0.2130
  490MOL0     H64641   0.543   1.412   6.297  0.4437 -0.1520 -0.2903
  490MOL0     H64642   0.709   1.154   6.601  1.8726  1.5289 -0.3380
  490MOL0     H64643   0.918   1.061   6.549 -2.4266 -0.9258  1.9039
  490MOL0     H64644   1.211   0.798   6.258 -0.0108 -0.0868 -0.8148
  490MOL0     H64645   1.457   0.742   6.235  1.2072  0.5059  0.7964
  490MOL0     H64646   1.678   0.872   6.167  0.7660  1.6538  0.5134
  490MOL0     H64647   1.658   0.709   6.247  3.2413 -1.4013  0.5788
  490MOL0     H64648   1.892   0.756   6.334  1.4100  0.6646  1.4454
  490MOL0     H64649   1.878   0.929   6.294 -3.0708 -0.0724  1.1717
  490MOL0     H64650   1.898   0.873   6.048  0.4257 -0.0401  0.1755
  490MOL0     H64651   1.871   0.705   6.082 -1.4748 -1.0201  1.7964
  490MOL0     H64652   2.142   0.843   6.160  0.4401 -0.0932 -1.3185
  490MOL0     H64653   2.090   0.701   6.247  0.1707 -4.9280 -2.4557
  490MOL0     H64654   2.063   0.568   6.031  0.4268  0.5204 -1.5717
  490MOL0     H64655   2.222   0.615   6.066 -0.4296 -0.9663  0.2588
  490MOL0     H64656   2.169   0.820   5.895 -0.3913  1.1853 -1.7810
  490MOL0     H64657   2.011   0.742   5.884  0.9993  0.5494 -0.3856
  490MOL0     H64658   2.147   0.522   5.827  0.7950  0.6421  7.1896
  490MOL0     H64659   2.141   0.646   5.698 -0.5682  0.8396  0.8385
  490MOL0     H64660   2.381   0.560   5.883  0.9069  0.0271 -0.6987
  490MOL0     H64661   2.391   0.705   5.781  0.4730 -0.3821 -0.3885
  490MOL0     H64662   1.541   1.058   6.520  1.8826 -2.6398  2.3814
  490MOL0     H64663   1.278   1.084   6.542 -3.0182 -1.6098 -1.9166
  490MOL0     H64664   0.847   1.116   6.131  1.0416  1.2910  0.0193
  490MOL0     H64665   0.637   1.252   6.203 -1.3112 -1.3632 -0.6354
  490MOL0     H64666   0.258   0.533   6.630  1.1397  4.9873  1.1212
  490MOL0     H64667   0.217   0.299   6.713  0.9317  1.1519 -1.0125
  490MOL0     H64668   0.058   0.038   6.996 -1.9334  1.6639  2.6136
  490MOL0     H64669  -0.022  -0.160   7.081  0.3320 -1.8458 -0.8329
  490MOL0     H64670   0.012  -0.414   7.070  0.7684  1.2245  0.3277
  490MOL0     H64671  -0.069  -0.371   7.213  0.4213 -1.2860  0.2939
  490MOL0     H64672   0.112  -0.628   7.206  0.5358  0.4618 -1.1698
  490MOL0     H64673   0.012  -0.578   7.337  0.0173 -1.6202 -0.3922
  490MOL0     H64674  -0.051  -0.753   7.160  0.4307 -0.2444  0.3561
  490MOL0     H64675  -0.085  -0.628   7.054  0.4967 -0.7181 -0.5069
  490MOL0     H64676  -0.286  -0.552   7.191  0.3086  0.3627 -0.3764
  490MOL0     H64677  -0.279  -0.720   7.145  3.3543 -0.4229 -2.9309
  490MOL0     H64678  -0.262  -0.724   7.571  2.6949  2.2818 -0.4260
  490MOL0     H64679   0.372  -0.271   7.221  1.8515  0.7266  0.0702
  490MOL0     H64680   0.455  -0.048   7.153 -0.9476  2.4692  1.5080
  491MOL0     O64681   8.362   2.097   4.632  0.2371  0.4668 -0.1681
  491MOL0     C64682   8.293   2.144   4.718 -0.5625  0.5806 -0.1025
  491MOL0     O64683   8.281   2.277   4.753  0.4782 -0.1054 -0.3020
  491MOL0     C64684   8.337   2.369   4.671 -0.9287  0.4973 -0.7458
  491MOL0     C64685   8.472   2.398   4.667 -1.2909  0.4635  0.7060
  491MOL0     C64686   8.530   2.484   4.574  0.0794 -0.3599 -0.1414
  491MOL0     C64687   8.450   2.544   4.471  0.0774 -0.7219  1.0651
  491MOL0     O64688   8.509   2.640   4.390  0.3486 -0.0323 -0.5021
  491MOL0     C64689   8.455   2.665   4.265 -0.1386 -0.4079  0.3832
  491MOL0     C64690   8.469   2.540   4.175  0.7026 -0.1706  0.7222
  491MOL0     C64691   8.391   2.565   4.038 -0.5663  0.2544  0.7775
  491MOL0     C64692   8.441   2.456   3.935  0.0348  0.8716 -1.1866
  491MOL0     C64693   8.375   2.469   3.793 -0.2819 -1.0491  0.5344
  491MOL0     C64694   8.220   2.454   3.795  0.8571  0.4078 -0.7187
  491MOL0     C64695   8.185   2.309   3.807 -0.7510  0.4640  0.0918
  491MOL0     C64696   8.033   2.281   3.792 -0.2844 -0.0816  0.3870
  491MOL0     N64697   7.973   2.331   3.673  0.2692  0.7362  0.8820
  491MOL0     C64698   7.942   2.268   3.556 -0.5771 -0.0546  0.1474
  491MOL0     C64699   7.863   2.347   3.480 -0.5743  0.8239  0.0330
  491MOL0     C64700   7.798   2.304   3.348  0.8733 -0.5400 -0.7163
  491MOL0     C64701   7.776   2.435   3.271  1.1059  0.1763 -0.0787
  491MOL0     C64702   7.698   2.414   3.141 -0.7243 -0.1665 -0.4559
  491MOL0     C64703   7.614   2.539   3.098 -0.8049 -0.1309 -1.2770
  491MOL0     O64704   7.601   2.551   2.957 -0.4877 -0.7607  0.7885
  491MOL0     C64705   7.483   2.588   2.901  0.5874  1.0281  0.1176
  491MOL0     C64706   7.356   2.606   2.968 -0.3586  0.1216  0.1151
  491MOL0     C64707   7.243   2.617   2.894  0.9400 -1.2112 -0.6941
  491MOL0     C64708   7.238   2.618   2.752  0.3461 -0.4421  0.1764
  491MOL0     C64709   7.107   2.614   2.687  0.3130 -0.6871  0.0908
  491MOL0     O64710   6.997   2.666   2.758  0.0954  0.7967 -0.6062
  491MOL0     C64711   6.868   2.673   2.703  0.1104 -0.0671 -0.6001
  491MOL0     C64712   6.775   2.763   2.755 -0.2723 -0.7862  0.8683
  491MOL0     C64713   6.643   2.753   2.730  0.4068 -0.0435 -0.3928
  491MOL0     C64714   6.584   2.652   2.652  0.2942  0.2519  0.2596
  491MOL0     O64715   6.445   2.653   2.631  0.2164 -0.4481 -0.2616
  491MOL0     C64716   6.379   2.582   2.522  0.1990  0.4431 -0.0589
  491MOL0     C64717   6.330   2.704   2.437 -0.6590  0.9327 -0.0756
  491MOL0     C64718   6.222   2.774   2.512  0.5231  0.4014  0.8250
  491MOL0     C64719   6.161   2.899   2.428 -0.2794  0.7935 -0.2830
  491MOL0     C64720   6.256   3.025   2.437  0.6916 -0.1199 -0.2920
  491MOL0     C64721   6.209   3.150   2.356 -0.6412  0.1510  0.6612
  491MOL0     C64722   6.080   3.220   2.403  0.2410  0.4371  0.2045
  491MOL0     C64723   6.043   3.342   2.314  0.9756 -0.0248  0.3555
  491MOL0    Cl64724   6.138   3.487   2.375  0.4800  0.5218 -0.2297
  491MOL0     C64725   6.677   2.549   2.609 -0.7437 -0.3721 -0.0960
  491MOL0     C64726   6.819   2.558   2.638  0.1701  0.7169 -0.0395
  491MOL0     O64727   7.101   2.585   2.569 -0.8242 -0.3392 -0.0937
  491MOL0     C64728   7.356   2.599   2.677 -0.8746  0.2360  0.4759
  491MOL0     C64729   7.470   2.574   2.757 -0.0747  0.6944 -0.3567
  491MOL0     N64730   7.849   2.462   3.558  0.7281  0.5853  0.8541
  491MOL0     N64731   7.914   2.456   3.666 -0.6615  0.2806  0.6542
  491MOL0     C64732   8.317   2.511   4.467  0.2709  0.8351  0.4089
  491MOL0     C64733   8.260   2.425   4.561 -0.1147 -0.5129  0.3494
  491MOL0     C64734   8.237   2.035   4.804 -0.3477 -0.3590 -0.4614
  491MOL0     C64735   8.244   2.061   4.946 -0.1863  1.4401 -0.6198
  491MOL0     C64736   8.211   1.959   5.030 -0.1206  0.5026 -0.7175
  491MOL0     C64737   8.156   1.842   4.992 -0.5904  0.4855  0.8285
  491MOL0     O64738   8.126   1.752   5.090  0.1042  0.3760  0.0104
  491MOL0     C64739   8.029   1.649   5.069 -1.2390 -0.7729 -0.3175
  491MOL0     C64740   7.887   1.713   5.059 -0.2225  0.6943 -0.6858
  491MOL0     C64741   7.778   1.606   5.061 -0.1201 -0.1367 -0.3599
  491MOL0     C64742   7.670   1.618   4.946  0.7152 -0.3311  0.3446
  491MOL0     C64743   7.728   1.609   4.812 -0.0966 -0.0872 -0.2841
  491MOL0     C64744   7.805   1.590   4.714 -0.2960  0.4930 -0.0347
  491MOL0     C64745   8.143   1.821   4.856 -0.1980  0.0911  1.4891
  491MOL0     C64746   8.179   1.915   4.756 -0.8440  0.0103  0.0901
  491MOL0     H64747   8.534   2.353   4.743 -0.0226  0.6591 -0.1887
  491MOL0     H64748   8.632   2.519   4.587 -0.8841  2.6128  0.1835
  491MOL0     H64749   8.504   2.750   4.218 -0.8671 -1.0727 -1.7324
  491MOL0     H64750   8.350   2.695   4.277  0.2363  0.8544  0.6010
  491MOL0     H64751   8.420   2.453   4.220  1.0865 -0.2242  1.0431
  491MOL0     H64752   8.576   2.523   4.157  0.6286  0.1658 -0.0841
  491MOL0     H64753   8.407   2.667   4.000  1.5095 -0.5063 -0.5765
  491MOL0     H64754   8.285   2.553   4.061 -1.4080 -3.1459 -3.4548
  491MOL0     H64755   8.548   2.467   3.916  0.4363 -2.5617 -1.4169
  491MOL0     H64756   8.432   2.353   3.969 -2.3227  2.0968  2.4101
  491MOL0     H64757   8.419   2.400   3.721 -1.4268  3.0181 -4.7646
  491MOL0     H64758   8.396   2.573   3.764  2.3928 -0.7706  3.0553
  491MOL0     H64759   8.170   2.504   3.712 -2.3251 -2.0706 -0.4818
  491MOL0     H64760   8.181   2.501   3.886  0.3218  0.4859 -0.9835
  491MOL0     H64761   8.243   2.252   3.734  1.6014  2.5078  0.2178
  491MOL0     H64762   8.215   2.276   3.907 -1.9245 -2.1472 -0.3434
  491MOL0     H64763   7.986   2.331   3.878  0.0907  3.0344 -1.0572
  491MOL0     H64764   8.020   2.173   3.793 -0.1152 -0.1138  1.8609
  491MOL0     H64765   7.977   2.168   3.532 -1.7635 -0.5928  0.5490
  491MOL0     H64766   7.701   2.258   3.366  0.1615  0.2479 -2.3367
  491MOL0     H64767   7.856   2.242   3.279 -0.4707 -0.0827 -2.3260
  491MOL0     H64768   7.870   2.483   3.242  1.0354 -0.4777 -1.4728
  491MOL0     H64769   7.714   2.503   3.331 -0.2905  1.7678 -3.0982
  491MOL0     H64770   7.763   2.403   3.054 -0.6884  1.5176 -0.6735
  491MOL0     H64771   7.634   2.326   3.158 -0.6525 -0.3009 -0.8614
  491MOL0     H64772   7.643   2.633   3.146 -2.2686 -1.6446  3.0057
  491MOL0     H64773   7.517   2.518   3.143 -0.5013 -1.1340 -1.0572
  491MOL0     H64774   7.356   2.614   3.076  0.9699 -2.4749  0.3928
  491MOL0     H64775   7.154   2.611   2.955 -0.1805  1.0992 -1.9822
  491MOL0     H64776   6.825   2.842   2.809  2.8483 -1.2159 -1.1492
  491MOL0     H64777   6.569   2.817   2.779 -0.0048  0.0287 -1.0855
  491MOL0     H64778   6.296   2.517   2.551 -0.6883  0.7735 -1.7688
  491MOL0     H64779   6.445   2.514   2.467  0.5225  1.8376 -1.4524
  491MOL0     H64780   6.291   2.661   2.344  0.5880 -0.3834 -0.0234
  491MOL0     H64781   6.419   2.765   2.415  1.3504 -1.4969  0.9134
  491MOL0     H64782   6.251   2.809   2.612  2.1564  0.6606  0.3027
  491MOL0     H64783   6.144   2.704   2.541  1.6774 -0.2802  2.4578
  491MOL0     H64784   6.138   2.867   2.326 -1.4651 -0.4841  0.3477
  491MOL0     H64785   6.065   2.925   2.474  0.3974  1.4724  0.7958
  491MOL0     H64786   6.353   2.993   2.397 -0.5856 -2.1744 -1.9438
  491MOL0     H64787   6.279   3.055   2.539 -1.4464  1.6399 -0.2678
  491MOL0     H64788   6.191   3.129   2.250  4.7778  2.6494 -1.0903
  491MOL0     H64789   6.297   3.214   2.359 -0.3477 -0.0634 -1.7731
  491MOL0     H64790   5.995   3.151   2.396  0.6497  0.0907 -2.1990
  491MOL0     H64791   6.087   3.236   2.511  4.1637 -5.0000  1.2105
  491MOL0     H64792   5.937   3.365   2.329  1.1216 -0.5189  2.3410
  491MOL0     H64793   6.060   3.317   2.209  2.9789 -0.2516  0.6998
  491MOL0     H64794   6.641   2.458   2.561 -1.1387 -1.2156  1.6963
  491MOL0     H64795   6.858   2.465   2.599 -0.7297 -0.9774  2.7848
  491MOL0     H64796   7.358   2.602   2.569 -0.1196  0.9166  0.5009
  491MOL0     H64797   7.560   2.546   2.703  0.7598  0.6214  1.0271
  491MOL0     H64798   8.247   2.557   4.398 -0.3184  0.4730  0.7566
  491MOL0     H64799   8.154   2.403   4.559 -0.1449 -0.2797 -0.6846
  491MOL0     H64800   8.255   2.159   4.992 -0.6449  2.0161 -1.6806
  491MOL0     H64801   8.210   1.983   5.136 -1.0424 -1.5068 -0.2423
  491MOL0     H64802   8.038   1.586   5.158 -0.5204  0.0243  0.1822
  491MOL0     H64803   8.056   1.587   4.983  0.0059 -2.3241  1.1360
  491MOL0     H64804   7.875   1.789   5.137  3.2962 -0.4943  1.2559
  491MOL0     H64805   7.867   1.765   4.965  1.7301  0.9150 -1.0367
  491MOL0     H64806   7.725   1.630   5.154 -1.0415 -1.1063 -0.6091
  491MOL0     H64807   7.818   1.505   5.070 -0.7974 -0.5914 -2.0569
  491MOL0     H64808   7.603   1.532   4.952  0.9352 -0.5917 -0.6612
  491MOL0     H64809   7.616   1.711   4.965 -1.1607 -1.1488 -0.7038
  491MOL0     H64810   7.853   1.570   4.621  1.5482  1.2873  0.7053
  491MOL0     H64811   8.096   1.732   4.815  1.1414  0.1660 -0.3462
  491MOL0     H64812   8.168   1.898   4.649 -0.0630 -2.0214  0.2883
  492MOL0     O64813  10.987   5.019   0.123 -0.7368  0.8920 -0.1078
  492MOL0     C64814  10.874   5.071   0.142  0.2013  0.1396  0.3081
  492MOL0     O64815  10.848   5.190   0.205 -0.1712 -0.0067  0.1142
  492MOL0     C64816  10.942   5.297   0.218 -0.8656  0.0917  0.1340
  492MOL0     C64817  10.922   5.396   0.316 -0.1670  0.5844  0.4444
  492MOL0     C64818  11.011   5.501   0.329 -0.6247 -0.4582 -0.7339
  492MOL0     C64819  11.127   5.514   0.251  0.0715 -0.3973  0.0820
  492MOL0     O64820  11.217   5.620   0.246 -0.4895  0.0056  1.0816
  492MOL0     C64821  11.171   5.747   0.281 -0.1221 -1.0023  0.6950
  492MOL0     C64822  11.265   5.780   0.392 -0.9067 -0.5122 -0.1654
  492MOL0     C64823  11.266   5.677   0.508 -0.3046  0.1188 -0.3004
  492MOL0     C64824  11.334   5.717   0.637  0.0051  0.3299 -0.3948
  492MOL0     C64825  11.324   5.613   0.749 -0.5638  0.1184 -0.3790
  492MOL0     C64826  11.435   5.643   0.845  0.4456  0.0008 -0.1883
  492MOL0     C64827  11.436   5.543   0.962 -0.2966  0.1491  0.1601
  492MOL0     C64828  11.511   5.590   1.089 -0.6247  0.6742  0.1902
  492MOL0     N64829  11.661   5.603   1.075  0.9908 -0.3467  0.6212
  492MOL0     C64830  11.736   5.597   0.967 -0.1046  0.2828 -0.3602
  492MOL0     C64831  11.861   5.631   1.005  1.1911  0.0170 -0.0235
  492MOL0     C64832  11.981   5.630   0.916 -0.1539 -0.5267 -0.6159
  492MOL0     C64833  12.027   5.490   0.911  0.2443  0.7780  0.7592
  492MOL0     C64834  11.994   5.413   0.778 -0.2620 -0.6472 -0.2683
  492MOL0     C64835  12.023   5.265   0.788 -0.5384  0.0347 -0.0283
  492MOL0     O64836  11.979   5.202   0.664  0.7547  0.2338  0.0585
  492MOL0     C64837  11.985   5.071   0.632  0.5644  0.9322 -0.8484
  492MOL0     C64838  11.936   5.036   0.508 -0.3519  0.3900 -0.4683
  492MOL0     C64839  11.915   4.904   0.460 -0.9520 -0.5487  0.1630
  492MOL0     C64840  11.950   4.802   0.543 -0.0506 -0.4226 -0.7284
  492MOL0     C64841  11.921   4.664   0.490  0.8628 -0.6271 -1.3087
  492MOL0     O64842  11.946   4.560   0.584 -0.3983 -0.2940  0.7426
  492MOL0     C64843  11.912   4.430   0.556  0.0684  0.4961  0.0044
  492MOL0     C64844  11.903   4.363   0.431 -0.7090  0.3110  1.1397
  492MOL0     C64845  11.880   4.221   0.431 -0.6961 -0.7875 -0.8589
  492MOL0     C64846  11.883   4.153   0.555  0.6158  0.3491 -0.1218
  492MOL0     O64847  11.885   4.009   0.543 -0.0623  0.2536  0.2819
  492MOL0     C64848  11.918   3.922   0.652  0.6959  0.0310  0.0367
  492MOL0     C64849  11.873   3.778   0.626  0.2563 -0.6581 -1.0191
  492MOL0     C64850  11.950   3.701   0.518  1.2132 -0.2737  0.4377
  492MOL0     C64851  12.078   3.654   0.579  0.1503 -0.5999 -0.2172
  492MOL0     C64852  12.151   3.565   0.475 -0.8007 -0.1036  0.5086
  492MOL0     C64853  12.271   3.491   0.545  1.2585  0.0048  0.1225
  492MOL0     C64854  12.360   3.421   0.443 -0.3514  0.2339 -0.1339
  492MOL0     C64855  12.488   3.360   0.513 -0.4853 -0.5260 -0.0173
  492MOL0    Cl64856  12.575   3.489   0.597 -0.1025 -0.3484  0.0046
  492MOL0     C64857  11.877   4.223   0.671  0.7131 -0.3917 -0.2327
  492MOL0     C64858  11.898   4.356   0.678  0.0513  0.1213  0.0074
  492MOL0     O64859  11.900   4.654   0.370 -0.2078  0.3982 -0.3917
  492MOL0     C64860  11.999   4.834   0.678 -0.1859  0.0651 -0.2300
  492MOL0     C64861  12.023   4.967   0.716 -0.0214  0.9031 -1.0083
  492MOL0     N64862  11.855   5.675   1.136 -0.2749  0.3837  0.5941
  492MOL0     N64863  11.732   5.661   1.173  0.4634 -0.7971  0.3661
  492MOL0     C64864  11.149   5.418   0.158  0.0665  0.6043 -0.1499
  492MOL0     C64865  11.055   5.315   0.137  0.1225  0.0582 -0.3295
  492MOL0     C64866  10.766   4.983   0.090  0.2344  0.1510  0.2873
  492MOL0     C64867  10.630   5.023   0.110 -0.6824  0.3222 -0.5765
  492MOL0     C64868  10.516   4.943   0.078 -0.6933 -0.7945  0.9259
  492MOL0     C64869  10.542   4.810   0.027  0.4913 -0.6316  0.1281
  492MOL0     O64870  10.450   4.715  -0.001 -0.0452  1.0844  0.1853
  492MOL0     C64871  10.323   4.700   0.061  0.5680 -1.3924  0.1605
  492MOL0     C64872  10.347   4.666   0.210 -0.8625 -0.0403 -0.0980
  492MOL0     C64873  10.210   4.643   0.287 -0.8957 -0.7684 -0.7520
  492MOL0     C64874  10.227   4.582   0.429 -1.0629 -0.2653  0.1898
  492MOL0     C64875  10.317   4.674   0.505 -0.1348  0.3555  0.0686
  492MOL0     C64876  10.385   4.762   0.554 -0.0444 -0.3056  0.2092
  492MOL0     C64877  10.674   4.775   0.015 -0.1810 -0.6780  0.2105
  492MOL0     C64878  10.787   4.861   0.028 -0.0910 -0.9650 -0.0445
  492MOL0     H64879  10.843   5.387   0.390 -0.2323  0.0252  0.3112
  492MOL0     H64880  10.996   5.568   0.413  2.0331 -1.6376  0.7933
  492MOL0     H64881  11.065   5.757   0.306 -0.5634  0.2423 -1.4188
  492MOL0     H64882  11.176   5.822   0.201  3.2213  0.2116  1.8928
  492MOL0     H64883  11.252   5.880   0.435 -0.2623  0.5943 -2.3473
  492MOL0     H64884  11.371   5.775   0.364 -0.5200  1.1670  0.8254
  492MOL0     H64885  11.302   5.577   0.485 -0.9548  0.4126 -2.9066
  492MOL0     H64886  11.161   5.663   0.534  0.1889 -2.1910  0.6609
  492MOL0     H64887  11.436   5.747   0.612 -0.1168 -0.1496 -1.5481
  492MOL0     H64888  11.289   5.804   0.686 -2.2662 -0.8203 -0.2997
  492MOL0     H64889  11.343   5.514   0.707  5.2369  1.1178 -0.9282
  492MOL0     H64890  11.225   5.616   0.795 -0.9990 -0.9244 -1.1951
  492MOL0     H64891  11.432   5.746   0.882  2.7064  0.1389 -0.2872
  492MOL0     H64892  11.525   5.631   0.785 -0.5622  0.7739 -1.9411
  492MOL0     H64893  11.337   5.511   0.995 -0.1393 -0.4541  0.0695
  492MOL0     H64894  11.494   5.452   0.943 -0.6854  0.1162 -0.9382
  492MOL0     H64895  11.496   5.509   1.161  1.0800  0.2599  0.1284
  492MOL0     H64896  11.471   5.681   1.135  1.4933  1.1826  1.1620
  492MOL0     H64897  11.707   5.562   0.868 -1.7869 -0.7100  0.4252
  492MOL0     H64898  12.061   5.689   0.962 -1.2309 -1.7018  3.1143
  492MOL0     H64899  11.965   5.676   0.818  0.9360 -1.9705 -1.5056
  492MOL0     H64900  11.977   5.431   0.988 -3.2339  3.1418  0.5328
  492MOL0     H64901  12.133   5.488   0.937  0.6290 -0.6968 -0.7100
  492MOL0     H64902  11.885   5.410   0.765 -0.5632  1.4102  1.2488
  492MOL0     H64903  12.035   5.465   0.691 -4.2147  0.6611 -1.6167
  492MOL0     H64904  11.960   5.217   0.863 -1.2822 -0.6218 -1.0452
  492MOL0     H64905  12.122   5.243   0.829 -0.9314 -1.3157  0.2131
  492MOL0     H64906  11.905   5.115   0.441  1.9924  1.9323  0.1519
  492MOL0     H64907  11.879   4.893   0.358 -3.4341  0.7830  0.8182
  492MOL0     H64908  11.925   4.411   0.336 -0.3783 -0.0887  1.0094
  492MOL0     H64909  11.881   4.171   0.335 -1.7091 -3.1917  0.2938
  492MOL0     H64910  11.876   3.951   0.749  3.3144 -1.1559  1.6540
  492MOL0     H64911  12.027   3.921   0.668  0.2519 -2.3515  4.6390
  492MOL0     H64912  11.769   3.789   0.593 -0.2088  0.7556  0.7125
  492MOL0     H64913  11.874   3.731   0.725  1.1866  2.5200  0.6490
  492MOL0     H64914  11.978   3.759   0.430  1.5467  0.1667  0.8291
  492MOL0     H64915  11.885   3.620   0.484  0.0038  1.1824 -0.8682
  492MOL0     H64916  12.145   3.737   0.604  1.0936 -1.3440 -0.1832
  492MOL0     H64917  12.057   3.597   0.670 -1.9739  1.4647  0.6871
  492MOL0     H64918  12.198   3.628   0.399  1.2627 -1.2870  0.7467
  492MOL0     H64919  12.084   3.500   0.419 -1.9983  2.0108 -0.6500
  492MOL0     H64920  12.233   3.433   0.629 -1.3779  2.5131  0.8191
  492MOL0     H64921  12.329   3.571   0.591  2.6296  0.0691 -1.6170
  492MOL0     H64922  12.301   3.338   0.405 -0.2369  0.2961 -0.4467
  492MOL0     H64923  12.389   3.491   0.364 -1.3879 -0.2405 -0.9428
  492MOL0     H64924  12.556   3.314   0.441 -0.3359 -0.7170  0.2435
  492MOL0     H64925  12.463   3.286   0.589  0.1810  0.5493  1.2857
  492MOL0     H64926  11.866   4.177   0.769  2.6257 -0.5215 -0.0435
  492MOL0     H64927  11.913   4.416   0.767  1.9077  0.9243 -0.7964
  492MOL0     H64928  12.006   4.753   0.750  1.2748 -1.4947 -2.0373
  492MOL0     H64929  12.060   4.994   0.814 -0.2317  0.3539 -0.7688
  492MOL0     H64930  11.238   5.430   0.097 -2.8517 -1.3896 -5.4146
  492MOL0     H64931  11.074   5.239   0.062 -1.4582  1.1591 -1.9280
  492MOL0     H64932  10.605   5.120   0.152  1.0162 -0.1088  1.6136
  492MOL0     H64933  10.413   4.973   0.098 -1.5280 -2.2980 -0.8197
  492MOL0     H64934  10.280   4.615   0.007 -0.0133 -0.4860 -0.8511
  492MOL0     H64935  10.261   4.789   0.041  0.3224 -0.4225  4.3921
  492MOL0     H64936  10.413   4.579   0.209  1.6450  1.6708  1.7372
  492MOL0     H64937  10.400   4.749   0.260  3.0107 -1.6741 -1.0967
  492MOL0     H64938  10.143   4.577   0.232 -2.9342  1.2328 -0.8214
  492MOL0     H64939  10.172   4.745   0.286  1.1376  0.0939 -3.5771
  492MOL0     H64940  10.135   4.573   0.488 -1.3407 -3.1770 -0.4945
  492MOL0     H64941  10.276   4.484   0.430 -2.4562 -0.9966 -0.5478
  492MOL0     H64942  10.440   4.836   0.608 -0.6156  0.5462 -0.3455
  492MOL0     H64943  10.680   4.676  -0.029  2.3139 -0.2338 -0.6147
  492MOL0     H64944  10.888   4.829   0.005  1.4036 -0.4548  4.6485
  493MOL0     O64945   3.742   4.744   0.339 -0.4835  0.0400  0.3719
  493MOL0     C64946   3.790   4.640   0.293 -0.0877 -0.1984 -0.4444
  493MOL0     O64947   3.723   4.545   0.224  0.2475 -0.1574 -0.5777
  493MOL0     C64948   3.580   4.559   0.214 -0.6113  0.4670  0.2563
  493MOL0     C64949   3.544   4.511   0.090  0.3104  0.0169  0.2563
  493MOL0     C64950   3.399   4.499   0.053 -0.3612 -0.3171  0.4755
  493MOL0     C64951   3.303   4.537   0.153 -0.2859 -1.1899  0.1769
  493MOL0     O64952   3.168   4.542   0.135  0.0280  0.4987  0.9464
  493MOL0     C64953   3.077   4.488   0.226 -0.2278  0.2388  0.7640
  493MOL0     C64954   2.935   4.486   0.159 -0.2049  0.1853 -0.4019
  493MOL0     C64955   2.844   4.393   0.248  0.5765 -0.3012  0.1820
  493MOL0     C64956   2.900   4.251   0.273 -0.3668  0.0200 -0.7946
  493MOL0     C64957   2.790   4.170   0.324 -0.3379  1.0900 -0.2149
  493MOL0     C64958   2.848   4.062   0.410 -0.2588  0.2943  0.3174
  493MOL0     C64959   2.743   3.951   0.442 -0.3785  0.6668 -0.3317
  493MOL0     C64960   2.794   3.817   0.499  0.3627  0.2367 -0.1235
  493MOL0     N64961   2.691   3.746   0.583 -0.6279  0.2679  0.3605
  493MOL0     C64962   2.722   3.688   0.705  0.3570  0.6646 -0.4687
  493MOL0     C64963   2.610   3.623   0.739  0.9718 -0.1875 -0.5308
  493MOL0     C64964   2.603   3.550   0.872  0.5071 -0.8390 -0.0409
  493MOL0     C64965   2.458   3.533   0.926 -0.1324  0.7564  0.9655
  493MOL0     C64966   2.382   3.655   0.959 -0.4868  0.0015  0.4510
  493MOL0     C64967   2.269   3.615   1.052  0.2085 -0.7304  0.9130
  493MOL0     O64968   2.269   3.687   1.173  0.0607  0.5560  0.0917
  493MOL0     C64969   2.152   3.756   1.204 -0.4212  0.3849  0.1995
  493MOL0     C64970   2.060   3.714   1.299 -0.7770 -0.0321 -0.5527
  493MOL0     C64971   1.937   3.770   1.316 -0.3819 -0.4242  0.5043
  493MOL0     C64972   1.895   3.873   1.236  0.2023 -0.2059  0.2028
  493MOL0     C64973   1.762   3.937   1.250 -0.6873  0.2918  0.2167
  493MOL0     O64974   1.664   3.870   1.309  0.2988 -0.3005 -0.6564
  493MOL0     C64975   1.543   3.934   1.331 -0.1039  0.0540  0.3825
  493MOL0     C64976   1.527   4.060   1.391 -0.4460 -0.8733 -0.0134
  493MOL0     C64977   1.401   4.116   1.402 -0.0329  0.8946 -0.0127
  493MOL0     C64978   1.290   4.032   1.371 -0.4570  0.6198 -0.3535
  493MOL0     O64979   1.168   4.088   1.402  0.0926 -0.1653  0.2965
  493MOL0     C64980   1.053   4.005   1.379 -0.1587 -0.6979  1.1787
  493MOL0     C64981   0.931   4.066   1.442 -1.1360 -0.4886  0.2010
  493MOL0     C64982   0.906   4.210   1.391  0.1142  0.0602 -0.1740
  493MOL0     C64983   0.779   4.250   1.460 -0.6911 -0.7774  0.1657
  493MOL0     C64984   0.729   4.377   1.385 -0.1395 -0.0140  0.8296
  493MOL0     C64985   0.589   4.418   1.438 -0.9215 -0.2167  0.3043
  493MOL0     C64986   0.603   4.458   1.591 -0.8457  1.1872  0.9279
  493MOL0     C64987   0.470   4.445   1.667  0.0434  0.4735  0.5177
  493MOL0    Cl64988   0.485   4.501   1.836 -0.1009 -0.1615 -0.4178
  493MOL0     C64989   1.311   3.908   1.312  0.6573 -0.1932  0.3313
  493MOL0     C64990   1.434   3.858   1.291 -0.2623 -0.3484 -0.1121
  493MOL0     O64991   1.761   4.057   1.219 -0.2960 -0.0977  0.6568
  493MOL0     C64992   1.985   3.910   1.139  0.1693 -0.6200  0.9999
  493MOL0     C64993   2.113   3.856   1.127 -0.0377  0.2288  0.1726
  493MOL0     N64994   2.517   3.637   0.643  0.8781 -1.1176 -0.2718
  493MOL0     N64995   2.562   3.702   0.545  0.0539  0.5396  0.4892
  493MOL0     C64996   3.348   4.584   0.283  0.4842  0.1171  0.1814
  493MOL0     C64997   3.485   4.601   0.311  0.0178 -0.2081  0.1227
  493MOL0     C64998   3.934   4.613   0.305  0.0456 -0.5476  0.6121
  493MOL0     C64999   4.026   4.700   0.370  0.5694  0.3597 -0.5139
  493MOL0     C65000   4.164   4.675   0.370  0.4940 -0.9040  0.8977
  493MOL0     C65001   4.221   4.561   0.306  0.3599  0.4177 -0.4511
  493MOL0     O65002   4.353   4.538   0.298  0.4544  0.6348 -0.5903
  493MOL0     C65003   4.438   4.658   0.296 -0.0183 -0.8009 -0.3524
  493MOL0     C65004   4.492   4.681   0.433  0.3725  0.2194 -0.5822
  493MOL0     C65005   4.575   4.805   0.422  0.1596  0.6117 -0.4645
  493MOL0     C65006   4.635   4.841   0.563  0.2579 -0.5457  1.0843
  493MOL0     C65007   4.680   4.732   0.646  0.2284  0.8123  0.6875
  493MOL0     C65008   4.721   4.650   0.719 -0.1726  0.4704  0.2486
  493MOL0     C65009   4.128   4.465   0.247  0.0531 -0.7700  0.1384
  493MOL0     C65010   3.992   4.490   0.258  0.3419  0.2270 -0.5110
  493MOL0     H65011   3.619   4.481   0.017 -4.1789 -2.2634 -4.0599
  493MOL0     H65012   3.368   4.462  -0.045 -1.2113 -0.7935  0.9122
  493MOL0     H65013   3.066   4.542   0.321  0.9505 -0.4642  1.3178
  493MOL0     H65014   3.113   4.388   0.249 -0.7381  0.3322  2.0633
  493MOL0     H65015   2.945   4.425   0.069 -0.1145 -4.0343  2.1973
  493MOL0     H65016   2.886   4.582   0.140 -2.8141 -1.2740 -1.5273
  493MOL0     H65017   2.744   4.384   0.203  0.1280 -0.1113  1.1230
  493MOL0     H65018   2.828   4.438   0.346  0.5853  1.2291 -0.4985
  493MOL0     H65019   2.941   4.202   0.185 -1.6602  0.1446 -1.4922
  493MOL0     H65020   2.979   4.258   0.349  1.0851  0.7985 -2.2979
  493MOL0     H65021   2.739   4.133   0.235  0.2348  2.1382 -1.0049
  493MOL0     H65022   2.718   4.225   0.386 -1.4327  1.0516 -1.4198
  493MOL0     H65023   2.877   4.116   0.500 -2.5144  0.6914  0.8643
  493MOL0     H65024   2.939   4.014   0.372  0.8339 -0.6272  3.7484
  493MOL0     H65025   2.676   3.990   0.519 -0.7511 -1.9189  0.7492
  493MOL0     H65026   2.692   3.929   0.348  0.1141 -0.6172 -0.3103
  493MOL0     H65027   2.886   3.843   0.552  0.7265 -1.9773  0.4689
  493MOL0     H65028   2.820   3.746   0.420 -1.4781  0.9514 -1.4249
  493MOL0     H65029   2.811   3.696   0.768 -0.8044 -1.1956  1.5653
  493MOL0     H65030   2.666   3.596   0.948  0.7419 -4.1919  1.9811
  493MOL0     H65031   2.635   3.447   0.850  0.2669 -1.5499  2.6290
  493MOL0     H65032   2.477   3.471   1.014  1.3494 -2.5959 -1.5362
  493MOL0     H65033   2.403   3.472   0.854  1.5506  0.3558 -0.0068
  493MOL0     H65034   2.448   3.720   1.017 -0.0307  1.5346 -1.6678
  493MOL0     H65035   2.345   3.712   0.873  2.3878  2.2681  0.6020
  493MOL0     H65036   2.282   3.512   1.087 -0.8788 -1.7980 -1.6041
  493MOL0     H65037   2.171   3.610   1.004 -1.0019 -3.3722  3.3420
  493MOL0     H65038   2.099   3.631   1.357 -0.3907  0.3840 -0.2065
  493MOL0     H65039   1.877   3.725   1.394  0.8778  0.9289  2.3407
  493MOL0     H65040   1.622   4.102   1.422  2.4464 -5.9953 -0.7635
  493MOL0     H65041   1.395   4.213   1.450 -0.3211  2.9426 -3.7458
  493MOL0     H65042   1.072   3.902   1.413 -0.1326 -1.4323 -0.9072
  493MOL0     H65043   1.037   4.000   1.271 -0.7351  0.2074  1.2151
  493MOL0     H65044   0.930   4.067   1.552 -1.7601 -0.8919  0.2045
  493MOL0     H65045   0.844   4.008   1.408 -1.6594 -1.3343  2.7564
  493MOL0     H65046   0.883   4.222   1.284 -2.0774  3.0310  0.5125
  493MOL0     H65047   0.977   4.291   1.409  0.4410  1.3701 -5.5824
  493MOL0     H65048   0.699   4.176   1.460 -1.2716 -0.1719 -0.6603
  493MOL0     H65049   0.814   4.276   1.560  2.2321 -3.5908  0.0259
  493MOL0     H65050   0.707   4.344   1.283 -3.8069 -4.5937  2.7702
  493MOL0     H65051   0.794   4.465   1.396  0.5212 -0.4911  0.7741
  493MOL0     H65052   0.520   4.334   1.423 -1.3655  0.0332  0.9121
  493MOL0     H65053   0.546   4.505   1.389  0.0524 -1.3117 -2.6802
  493MOL0     H65054   0.675   4.389   1.635 -1.5705 -0.2161  0.0092
  493MOL0     H65055   0.644   4.558   1.608 -1.3166  1.7109 -0.7551
  493MOL0     H65056   0.451   4.337   1.667  2.3455  0.0276  1.4597
  493MOL0     H65057   0.387   4.491   1.611  0.1016  0.5572  0.5007
  493MOL0     H65058   1.234   3.853   1.258  2.4064 -1.5846 -0.8802
  493MOL0     H65059   1.440   3.768   1.231  1.6481 -0.0035 -0.5024
  493MOL0     H65060   1.967   3.993   1.071  0.7759 -2.3828 -1.4683
  493MOL0     H65061   2.178   3.903   1.054  0.4969 -1.3201 -0.3933
  493MOL0     H65062   3.270   4.611   0.353 -0.3821  1.1803 -1.1385
  493MOL0     H65063   3.504   4.621   0.416 -0.9489  1.6369 -0.0269
  493MOL0     H65064   3.987   4.790   0.417  0.2708 -0.2794  0.5045
  493MOL0     H65065   4.224   4.757   0.408  2.2799 -2.0227  0.6100
  493MOL0     H65066   4.377   4.744   0.269 -1.9883 -1.4633  1.7148
  493MOL0     H65067   4.522   4.649   0.226 -0.2191  2.5489 -1.1627
  493MOL0     H65068   4.410   4.688   0.505  0.4085 -0.0470 -0.5161
  493MOL0     H65069   4.546   4.590   0.461  0.6787  0.2069 -1.1937
  493MOL0     H65070   4.513   4.890   0.391 -0.2337  1.0350  1.3559
  493MOL0     H65071   4.654   4.785   0.349  0.8156  0.0828  0.3804
  493MOL0     H65072   4.718   4.910   0.546 -0.2518  0.0768  1.0928
  493MOL0     H65073   4.566   4.899   0.625 -1.6273 -2.5538  1.0273
  493MOL0     H65074   4.764   4.573   0.780 -0.8483  0.0581  0.2114
  493MOL0     H65075   4.169   4.377   0.199  0.7118 -0.2029 -0.3605
  493MOL0     H65076   3.932   4.417   0.203 -0.4159 -0.3740  1.0411
  494MOL0     O65077   3.331   0.902   6.614  0.2255  0.3988  0.1675
  494MOL0     C65078   3.357   0.787   6.579  0.0511  0.4993 -0.2956
  494MOL0     O65079   3.487   0.736   6.555  0.5283 -0.5974 -0.1436
  494MOL0     C65080   3.589   0.829   6.563  0.4469  0.6287  0.9137
  494MOL0     C65081   3.649   0.841   6.436  0.2542  0.2851 -0.2376
  494MOL0     C65082   3.748   0.936   6.415  0.8969  0.2331  0.3836
  494MOL0     C65083   3.781   1.029   6.522  0.2111  1.6434 -0.1799
  494MOL0     O65084   3.882   1.117   6.525 -0.5085 -0.2126  0.1517
  494MOL0     C65085   3.960   1.148   6.406  0.8296 -1.5793 -0.1482
  494MOL0     C65086   4.027   1.287   6.415  0.3511 -0.5346 -1.5112
  494MOL0     C65087   4.119   1.289   6.553 -0.3028  0.0084  0.6190
  494MOL0     C65088   4.197   1.425   6.556  1.2212 -0.0773 -0.1693
  494MOL0     C65089   4.117   1.559   6.557  0.5464  0.1898  0.6602
  494MOL0     C65090   4.004   1.566   6.668  0.1148  0.4629 -0.1450
  494MOL0     C65091   4.059   1.533   6.804  0.1483  0.4883 -0.0701
  494MOL0     C65092   3.957   1.542   6.916 -0.3847  0.9968 -0.8406
  494MOL0     N65093   3.937   1.685   6.939  0.5777 -0.0060 -0.2052
  494MOL0     C65094   4.031   1.774   6.999 -0.0435  0.3276 -0.1110
  494MOL0     C65095   3.947   1.879   7.028  0.8893  1.0939 -0.2949
  494MOL0     C65096   3.993   2.004   7.088  0.3072 -0.2851 -0.3512
  494MOL0     C65097   4.099   2.077   7.000  0.5945  0.1062  0.4055
  494MOL0     C65098   4.165   2.198   7.085  0.3770 -0.2363  0.2098
  494MOL0     C65099   4.277   2.281   7.025  1.2096 -0.0325  1.1776
  494MOL0     O65100   4.374   2.350   7.111 -0.2184  0.3570 -0.3271
  494MOL0     C65101   4.381   2.486   7.111 -0.7018 -0.9626 -1.4034
  494MOL0     C65102   4.448   2.541   7.213 -0.3437  0.4977  0.1787
  494MOL0     C65103   4.460   2.675   7.232  0.6437 -0.3211 -0.2509
  494MOL0     C65104   4.423   2.763   7.126  0.6754 -1.2065  0.1510
  494MOL0     C65105   4.463   2.908   7.126  0.1845  0.6037  0.0633
  494MOL0     O65106   4.427   2.976   7.013 -1.7485  0.2521 -0.5713
  494MOL0     C65107   4.490   3.083   6.968  0.4986 -0.6304  0.0891
  494MOL0     C65108   4.610   3.135   7.016 -0.0082 -1.1666 -0.6458
  494MOL0     C65109   4.662   3.254   6.960 -0.3981  0.3430 -0.2640
  494MOL0     C65110   4.590   3.309   6.856  0.4813 -0.4960 -0.4303
  494MOL0     O65111   4.645   3.424   6.799 -0.1196  0.0915 -0.2110
  494MOL0     C65112   4.546   3.518   6.767  0.6371  0.5251 -1.0931
  494MOL0     C65113   4.618   3.662   6.765  0.5151  0.4918 -0.3627
  494MOL0     C65114   4.510   3.770   6.770  0.7802 -0.0703  0.2087
  494MOL0     C65115   4.565   3.910   6.790  0.4280 -0.6681  0.9335
  494MOL0     C65116   4.458   4.011   6.832 -0.4625  0.4529 -0.4440
  494MOL0     C65117   4.513   4.148   6.842 -0.5938  0.1166  0.3814
  494MOL0     C65118   4.422   4.236   6.933  0.3323  0.1711 -1.0011
  494MOL0     C65119   4.484   4.382   6.976 -0.4206 -0.0525  0.2622
  494MOL0    Cl65120   4.566   4.431   6.821  0.5427  0.2896 -0.1514
  494MOL0     C65121   4.473   3.257   6.799  0.2676  0.5897 -0.2570
  494MOL0     C65122   4.422   3.139   6.858 -0.0222  0.1026 -0.2388
  494MOL0     O65123   4.507   2.953   7.227  0.2311  0.5340 -0.0742
  494MOL0     C65124   4.350   2.710   7.020  0.3561  0.2286 -0.2838
  494MOL0     C65125   4.329   2.574   7.016  0.5281 -1.1291  0.1606
  494MOL0     N65126   3.825   1.860   6.963 -0.0331  0.8709 -0.4912
  494MOL0     N65127   3.822   1.749   6.904  0.4922 -0.0829 -1.0858
  494MOL0     C65128   3.707   1.017   6.646 -0.3593 -0.3239 -0.4382
  494MOL0     C65129   3.612   0.918   6.663 -0.2049  1.2668 -0.9720
  494MOL0     C65130   3.245   0.684   6.577  1.0639 -1.1708  0.4204
  494MOL0     C65131   3.267   0.551   6.600  0.4708  0.0553 -0.4121
  494MOL0     C65132   3.168   0.450   6.593  0.1456 -1.2853  1.0457
  494MOL0     C65133   3.037   0.495   6.563 -0.4524  0.6112 -1.3052
  494MOL0     O65134   2.930   0.414   6.576 -0.4376  0.4434  0.0816
  494MOL0     C65135   2.941   0.287   6.512 -0.0511 -0.1278 -1.0344
  494MOL0     C65136   2.933   0.309   6.369  0.5884 -0.5541  0.1524
  494MOL0     C65137   2.795   0.352   6.311  0.0844 -0.4407 -0.1951
  494MOL0     C65138   2.765   0.295   6.172  0.3903  0.6688 -0.6536
  494MOL0     C65139   2.861   0.313   6.071 -0.2761  0.3336 -0.3044
  494MOL0     C65140   2.938   0.322   5.977  0.3504  0.3815 -1.0272
  494MOL0     C65141   3.006   0.629   6.558  0.6601 -0.0790  0.7013
  494MOL0     C65142   3.107   0.725   6.554  0.7663  0.1201  0.4774
  494MOL0     H65143   3.620   0.768   6.361 -1.9797  2.1420 -1.3084
  494MOL0     H65144   3.797   0.966   6.323 -2.5404  3.3903 -0.6499
  494MOL0     H65145   3.892   1.145   6.321  1.4997 -2.6346 -0.6684
  494MOL0     H65146   4.037   1.079   6.372  1.0940  0.0375 -3.1369
  494MOL0     H65147   3.955   1.368   6.415  0.8734  0.1435  2.6336
  494MOL0     H65148   4.092   1.293   6.327 -1.0815  3.6460 -2.5054
  494MOL0     H65149   4.184   1.201   6.555 -0.9825 -0.5258 -0.1136
  494MOL0     H65150   4.045   1.297   6.634  0.2483  3.7799  0.9079
  494MOL0     H65151   4.257   1.418   6.647  2.5845 -3.5251 -1.1956
  494MOL0     H65152   4.266   1.425   6.471  1.1627  2.5812 -0.3107
  494MOL0     H65153   4.081   1.571   6.455 -0.3285 -0.2866  0.9003
  494MOL0     H65154   4.184   1.642   6.581 -0.4647  1.2185 -0.0064
  494MOL0     H65155   3.919   1.501   6.646  0.0773 -1.3556  4.2870
  494MOL0     H65156   3.958   1.665   6.672 -0.4678  0.1473  1.3955
  494MOL0     H65157   4.095   1.430   6.813 -2.1428 -0.4747 -1.2373
  494MOL0     H65158   4.141   1.602   6.826  0.6433  2.0286 -5.4316
  494MOL0     H65159   4.000   1.497   7.005 -2.2297  2.9860  1.1771
  494MOL0     H65160   3.860   1.497   6.894  1.2830 -2.5272 -1.6678
  494MOL0     H65161   4.137   1.759   7.020 -0.0812 -1.9168 -1.2003
  494MOL0     H65162   4.032   1.987   7.189  0.9114  1.3918 -0.2644
  494MOL0     H65163   3.906   2.071   7.095  0.5926 -0.0415  1.2555
  494MOL0     H65164   4.045   2.129   6.920 -3.7257 -1.5348  1.9395
  494MOL0     H65165   4.174   2.010   6.956 -1.3699 -1.8911 -0.1287
  494MOL0     H65166   4.084   2.269   7.103  1.2224  0.1281  3.0097
  494MOL0     H65167   4.193   2.168   7.186 -2.0075  1.5151  1.4993
  494MOL0     H65168   4.213   2.349   6.967 -1.5203  0.0022  4.0041
  494MOL0     H65169   4.334   2.206   6.969 -1.8069 -2.2764  0.8574
  494MOL0     H65170   4.482   2.474   7.292 -0.1872 -0.4390 -0.6666
  494MOL0     H65171   4.510   2.710   7.322 -0.3783  0.4250  0.0440
  494MOL0     H65172   4.668   3.085   7.093 -0.1683 -0.6600 -0.1961
  494MOL0     H65173   4.756   3.300   6.989  0.3005 -2.4243  2.4318
  494MOL0     H65174   4.468   3.535   6.841  0.9115  1.2914 -0.9767
  494MOL0     H65175   4.494   3.491   6.675  0.2701  2.1789 -1.3870
  494MOL0     H65176   4.683   3.678   6.678 -0.1111 -0.7554 -1.0778
  494MOL0     H65177   4.683   3.660   6.853 -0.8558  1.4729  0.7096
  494MOL0     H65178   4.439   3.743   6.849  1.5234 -1.5843  0.3989
  494MOL0     H65179   4.451   3.765   6.679 -2.0582 -0.6881  1.9516
  494MOL0     H65180   4.638   3.905   6.872  0.8672  1.1617  0.7176
  494MOL0     H65181   4.614   3.942   6.697 -1.5831 -2.6657 -0.9285
  494MOL0     H65182   4.407   3.981   6.924  2.1349 -0.5462  0.7620
  494MOL0     H65183   4.375   4.022   6.761 -1.7525  2.3002  1.2428
  494MOL0     H65184   4.507   4.185   6.740  2.5197 -0.6102 -0.1698
  494MOL0     H65185   4.614   4.164   6.880 -0.8600  3.8875 -0.1773
  494MOL0     H65186   4.327   4.252   6.882 -0.0828 -0.3356 -0.4070
  494MOL0     H65187   4.387   4.193   7.027 -2.3554  3.3043 -0.3885
  494MOL0     H65188   4.557   4.372   7.058  1.3884 -0.2029 -1.3031
  494MOL0     H65189   4.408   4.453   7.009  0.4512  0.8140  0.4814
  494MOL0     H65190   4.431   3.295   6.707 -0.3717 -0.7214 -0.5281
  494MOL0     H65191   4.342   3.091   6.803  2.0422 -1.6739 -1.8634
  494MOL0     H65192   4.321   2.772   6.936 -0.6895  1.3856  0.9036
  494MOL0     H65193   4.282   2.528   6.929 -1.0679  4.0433 -2.0878
  494MOL0     H65194   3.735   1.074   6.734 -2.4498  2.8436 -1.6397
  494MOL0     H65195   3.553   0.924   6.754  0.0161 -1.8003 -0.5142
  494MOL0     H65196   3.371   0.523   6.615  0.4347  0.5751  0.9430
  494MOL0     H65197   3.199   0.349   6.616  2.2912 -0.7308  0.8770
  494MOL0     H65198   2.854   0.228   6.541 -0.0108  0.0529 -0.5407
  494MOL0     H65199   3.032   0.235   6.542  0.1134  0.4848 -0.4371
  494MOL0     H65200   2.994   0.396   6.344  1.1061 -0.9990 -0.1463
  494MOL0     H65201   2.965   0.222   6.311  0.8806 -0.8798  0.7900
  494MOL0     H65202   2.786   0.459   6.293 -0.5578 -0.8401 -2.5642
  494MOL0     H65203   2.711   0.321   6.373 -0.9293  1.1079 -0.7428
  494MOL0     H65204   2.739   0.190   6.185 -3.2628  1.1817 -2.4646
  494MOL0     H65205   2.668   0.342   6.149 -0.4424 -0.8440 -0.3871
  494MOL0     H65206   2.997   0.345   5.891  0.9780  1.0524 -0.4288
  494MOL0     H65207   2.907   0.656   6.525  1.5165  1.2755 -0.9459
  494MOL0     H65208   3.072   0.824   6.528  3.7492  1.6234  1.7270
  495MOL0     O65209   5.087  10.534   9.351 -0.7216  0.8832 -0.4467
  495MOL0     C65210   5.162  10.533   9.449  0.3139  0.1675 -0.3484
  495MOL0     O65211   5.203  10.649   9.525 -0.4974  0.4555 -1.4772
  495MOL0     C65212   5.120  10.757   9.518  0.0900 -0.7878  0.1341
  495MOL0     C65213   4.997  10.741   9.575  0.8476  1.3818  0.1689
  495MOL0     C65214   4.927  10.864   9.601 -0.0056 -0.4364  0.1760
  495MOL0     C65215   4.967  10.986   9.556 -0.1647  0.0064  0.3170
  495MOL0     O65216   4.886  11.095   9.569  0.2182  0.9294  0.0509
  495MOL0     C65217   4.782  11.088   9.463  0.0198 -0.3223 -0.7661
  495MOL0     C65218   4.717  11.226   9.464 -0.5821  0.5692  0.6519
  495MOL0     C65219   4.817  11.335   9.460 -0.1866  0.0419  0.8083
  495MOL0     C65220   4.738  11.469   9.453 -0.1735 -0.6411  0.0085
  495MOL0     C65221   4.812  11.582   9.508  0.8407 -0.7655  0.0097
  495MOL0     C65222   4.723  11.711   9.505  1.3083  0.5780 -1.0984
  495MOL0     C65223   4.828  11.825   9.536  0.6368  1.1327 -0.3443
  495MOL0     C65224   4.879  11.814   9.682  0.2302 -0.4437  0.5789
  495MOL0     N65225   4.940  11.934   9.732  0.3759  0.6013  0.0708
  495MOL0     C65226   4.889  12.063   9.726 -0.2691 -0.7600 -0.0351
  495MOL0     C65227   4.994  12.152   9.752  0.0738 -0.6588 -0.1702
  495MOL0     C65228   4.989  12.303   9.738  0.2740  0.5769 -0.1793
  495MOL0     C65229   4.889  12.367   9.841  0.3512 -0.5623 -0.3346
  495MOL0     C65230   4.915  12.326   9.986 -0.1830 -0.2145 -1.0168
  495MOL0     C65231   5.059  12.358  10.036 -0.2857  0.8733  0.2839
  495MOL0     O65232   5.090  12.491  10.016 -0.3998 -0.1473 -0.3660
  495MOL0     C65233   5.053  12.599  10.100  0.3980 -0.6576  0.4932
  495MOL0     C65234   4.977  12.585  10.216 -0.4020 -0.1967  0.8246
  495MOL0     C65235   4.949  12.689  10.307 -0.5879 -0.5238 -0.0278
  495MOL0     C65236   4.995  12.819  10.274  0.3269  1.2086 -0.1592
  495MOL0     C65237   4.972  12.932  10.363 -0.1939  1.0216 -0.4172
  495MOL0     O65238   5.024  13.052  10.326  0.5397 -0.0922  0.0061
  495MOL0     C65239   5.029  13.149  10.419 -0.1361 -0.4190 -0.0318
  495MOL0     C65240   4.910  13.211  10.464 -0.6415 -0.1372  0.1217
  495MOL0     C65241   4.917  13.311  10.555 -0.5696 -0.0108 -0.2193
  495MOL0     C65242   5.042  13.368  10.588 -0.4195 -0.1867 -0.2386
  495MOL0     O65243   5.026  13.487  10.652  0.4382  0.0655  0.4718
  495MOL0     C65244   5.131  13.565  10.709 -1.2689  0.2317  0.2167
  495MOL0     C65245   5.085  13.713  10.736 -1.1455 -0.2556 -0.2233
  495MOL0     C65246   5.175  13.777  10.831 -0.2481  0.4361 -1.0167
  495MOL0     C65247   5.132  13.920  10.864  0.8811  0.5692  0.5858
  495MOL0     C65248   5.250  14.017  10.879 -0.4002  0.3959  0.3052
  495MOL0     C65249   5.295  13.991  11.024 -0.5865  0.9394 -0.0911
  495MOL0     C65250   5.419  14.081  11.055 -0.3870 -0.3324 -0.3801
  495MOL0     C65251   5.455  14.057  11.205 -0.2489 -0.7061  0.5963
  495MOL0    Cl65252   5.599  14.137  11.251 -0.4098  0.3137  0.1459
  495MOL0     C65253   5.164  13.316  10.540 -0.3371 -0.2661 -0.4117
  495MOL0     C65254   5.154  13.203  10.459  0.0085 -0.1991  0.6009
  495MOL0     O65255   4.913  12.914  10.468  0.1464 -0.8974 -0.5882
  495MOL0     C65256   5.063  12.833  10.150  0.7804  0.4881  0.6748
  495MOL0     C65257   5.091  12.728  10.071  0.7442 -1.0002 -0.4744
  495MOL0     N65258   5.095  12.075   9.801  0.2040  0.0902  0.7090
  495MOL0     N65259   5.069  11.944   9.778  0.4415  0.5135 -0.1252
  495MOL0     C65260   5.086  10.999   9.489 -0.2468 -0.0471 -0.4938
  495MOL0     C65261   5.162  10.883   9.473 -0.5795  0.4473  0.6016
  495MOL0     C65262   5.208  10.400   9.493  0.0225 -0.0053  0.1339
  495MOL0     C65263   5.181  10.283   9.412 -0.3386 -0.0151 -0.3473
  495MOL0     C65264   5.234  10.164   9.446  0.9698  0.2838  0.7344
  495MOL0     C65265   5.319  10.156   9.560 -0.0788 -0.4938  0.6308
  495MOL0     O65266   5.387  10.045   9.569  0.2773 -0.2781 -0.4240
  495MOL0     C65267   5.358   9.960   9.686 -0.0886  0.2975 -0.1391
  495MOL0     C65268   5.492   9.880   9.710 -0.8516  0.2707  0.1775
  495MOL0     C65269   5.512   9.768   9.599  0.2876  0.5527 -0.1140
  495MOL0     C65270   5.638   9.683   9.642  0.0157 -0.8802  0.2504
  495MOL0     C65271   5.756   9.764   9.634 -0.6465 -0.0001  0.6674
  495MOL0     C65272   5.863   9.821   9.598 -0.0284 -0.2064 -0.0969
  495MOL0     C65273   5.354  10.271   9.635 -0.2979 -0.1919  0.0537
  495MOL0     C65274   5.292  10.391   9.596  0.1979  0.1260 -0.4669
  495MOL0     H65275   4.958  10.651   9.620 -3.9335  1.6494 -2.7772
  495MOL0     H65276   4.842  10.867   9.668  0.7503 -1.8757  1.2487
  495MOL0     H65277   4.706  11.019   9.501 -0.6201  1.9071  2.3845
  495MOL0     H65278   4.826  11.069   9.365 -1.7991  0.0059 -1.7079
  495MOL0     H65279   4.648  11.241   9.548 -3.2405  1.2747 -1.5214
  495MOL0     H65280   4.661  11.232   9.370  0.1231 -2.5776 -0.0834
  495MOL0     H65281   4.884  11.318   9.375  2.4971 -0.3949  2.8608
  495MOL0     H65282   4.875  11.323   9.552 -0.4984 -0.2853  0.9638
  495MOL0     H65283   4.707  11.484   9.349 -0.3447 -2.0087 -0.1504
  495MOL0     H65284   4.643  11.459   9.506  0.3785 -5.0039  0.5521
  495MOL0     H65285   4.892  11.606   9.438  0.9470 -0.1639  0.3315
  495MOL0     H65286   4.844  11.548   9.608 -3.3841 -1.5612  1.2824
  495MOL0     H65287   4.631  11.705   9.564  2.2940 -2.1388  0.3517
  495MOL0     H65288   4.699  11.743   9.404  1.9638  1.7809 -0.8975
  495MOL0     H65289   4.901  11.825   9.455  2.7988 -0.4103  1.4835
  495MOL0     H65290   4.782  11.924   9.521  1.1605  1.1680 -1.8804
  495MOL0     H65291   4.954  11.736   9.694 -0.8562 -1.3012  2.0424
  495MOL0     H65292   4.799  11.796   9.754  0.6533 -0.3341  1.0780
  495MOL0     H65293   4.793  12.089   9.684 -1.2240 -1.7443  1.4491
  495MOL0     H65294   4.951  12.338   9.642  0.9938  0.6255 -0.4506
  495MOL0     H65295   5.090  12.337   9.762  0.9011 -2.8623  3.0372
  495MOL0     H65296   4.786  12.339   9.814  0.3888  0.6738 -1.9406
  495MOL0     H65297   4.911  12.473   9.830  2.2552 -1.0427 -1.6264
  495MOL0     H65298   4.846  12.382  10.050 -1.0169  1.8286 -3.5268
  495MOL0     H65299   4.897  12.219  10.001 -3.2014  0.3260 -0.0406
  495MOL0     H65300   5.131  12.297   9.980 -1.1449  0.6417 -0.5981
  495MOL0     H65301   5.076  12.327  10.140 -0.6011  1.1599  0.4217
  495MOL0     H65302   4.952  12.487  10.254 -1.8135  0.5447  1.9249
  495MOL0     H65303   4.910  12.664  10.405  1.8491  1.7827  1.6710
  495MOL0     H65304   4.814  13.169  10.435  0.2010 -0.2533 -2.8222
  495MOL0     H65305   4.833  13.376  10.579 -0.0868  1.0200 -1.2513
  495MOL0     H65306   5.219  13.556  10.644 -1.2810 -1.1502  0.3676
  495MOL0     H65307   5.153  13.517  10.804 -0.6404  1.9438  0.9878
  495MOL0     H65308   4.989  13.715  10.788  0.1819 -1.1376  2.3912
  495MOL0     H65309   5.077  13.780  10.650  2.3152 -1.7460 -1.8924
  495MOL0     H65310   5.276  13.772  10.789  0.7686  2.2438  1.0275
  495MOL0     H65311   5.168  13.718  10.923 -0.1432 -1.0268 -1.9063
  495MOL0     H65312   5.070  13.945  10.778 -2.0681 -1.3626  1.9931
  495MOL0     H65313   5.068  13.932  10.952  0.3710 -1.0391  0.4709
  495MOL0     H65314   5.226  14.120  10.853  0.8337  0.9648  1.2699
  495MOL0     H65315   5.332  13.996  10.810 -1.1332  2.5598 -1.3457
  495MOL0     H65316   5.312  13.883  11.034 -0.6032  1.0631  1.3360
  495MOL0     H65317   5.217  14.022  11.093  1.1204 -3.1982  4.2627
  495MOL0     H65318   5.502  14.060  10.987  0.0908  1.1859 -0.3066
  495MOL0     H65319   5.411  14.189  11.037  0.8250 -0.2099 -0.2368
  495MOL0     H65320   5.451  13.949  11.227 -0.9614 -0.8308 -0.0977
  495MOL0     H65321   5.381  14.107  11.269 -2.4251  1.6311 -3.3709
  495MOL0     H65322   5.264  13.351  10.565 -0.3177  0.4339 -1.4007
  495MOL0     H65323   5.242  13.150  10.425 -0.2715  0.3557 -1.0707
  495MOL0     H65324   5.107  12.924  10.111  0.4034  0.4631  0.1835
  495MOL0     H65325   5.130  12.744   9.971 -0.8495  1.7944 -0.7419
  495MOL0     H65326   5.124  11.090   9.444 -2.5811 -0.0885 -2.7682
  495MOL0     H65327   5.248  10.891   9.408 -1.2656 -0.2290 -0.4104
  495MOL0     H65328   5.115  10.297   9.327 -0.5922  1.4333  0.0509
  495MOL0     H65329   5.214  10.074   9.387 -0.2581  0.8913  0.1930
  495MOL0     H65330   5.274   9.899   9.653  0.4089 -0.1306 -0.6351
  495MOL0     H65331   5.336  10.026   9.771  0.9799 -0.9775  1.1840
  495MOL0     H65332   5.584   9.938   9.700 -0.5927 -0.2896 -0.7622
  495MOL0     H65333   5.500   9.836   9.811 -1.1962 -1.0498 -0.3468
  495MOL0     H65334   5.527   9.825   9.507  2.7036  2.2412  1.2339
  495MOL0     H65335   5.429   9.700   9.574  0.8100  0.3880 -1.4612
  495MOL0     H65336   5.628   9.651   9.746  3.5049 -2.0165  0.3724
  495MOL0     H65337   5.633   9.605   9.565  2.2976 -1.2128  0.3770
  495MOL0     H65338   5.938   9.888   9.560 -0.4657 -0.2120 -0.9909
  495MOL0     H65339   5.418  10.258   9.722 -1.7148 -0.6647  1.0669
  495MOL0     H65340   5.316  10.479   9.654 -0.4172  0.4657 -0.7114
  496MOL0     O65341   5.998   8.948   8.184 -0.9484  0.7433 -0.2473
  496MOL0     C65342   6.030   9.067   8.177 -0.6995  0.3990 -0.2030
  496MOL0     O65343   6.103   9.123   8.072  0.7166 -0.6671 -0.6528
  496MOL0     C65344   6.122   9.046   7.960  0.7133  0.5116 -0.5096
  496MOL0     C65345   6.251   9.017   7.920 -1.0685 -0.0207 -0.1795
  496MOL0     C65346   6.278   8.922   7.820 -0.5906  0.6243 -0.4080
  496MOL0     C65347   6.171   8.857   7.758 -0.2348  0.5008  0.0136
  496MOL0     O65348   6.194   8.762   7.666 -0.3003  0.4284  0.0601
  496MOL0     C65349   6.324   8.699   7.653  0.5023 -0.1399  0.6329
  496MOL0     C65350   6.407   8.776   7.542 -0.7153  0.2219 -0.6789
  496MOL0     C65351   6.389   8.715   7.394 -0.3100 -0.4840 -0.3382
  496MOL0     C65352   6.460   8.798   7.298 -0.4189  0.3426 -0.5584
  496MOL0     C65353   6.452   8.731   7.162  0.2137  0.3392 -0.0799
  496MOL0     C65354   6.508   8.811   7.045 -0.7076  0.0255 -0.8343
  496MOL0     C65355   6.436   8.948   7.016  0.0129  0.0537  0.4014
  496MOL0     C65356   6.500   9.074   7.064 -0.2270 -0.0493 -0.2559
  496MOL0     N65357   6.425   9.191   7.021 -0.4698 -0.1045 -0.0484
  496MOL0     C65358   6.293   9.232   7.057  0.7729  0.0399 -0.0527
  496MOL0     C65359   6.262   9.340   6.981 -0.8184  0.2406  0.3227
  496MOL0     C65360   6.124   9.402   6.969  1.5021 -1.2004 -0.1589
  496MOL0     C65361   6.092   9.504   7.071 -0.2863 -0.0264 -0.0757
  496MOL0     C65362   5.957   9.564   7.043 -1.0958  0.8713 -1.1124
  496MOL0     C65363   5.911   9.673   7.142  0.6180  0.3199  0.1746
  496MOL0     O65364   5.897   9.603   7.266  0.7414 -0.4363  0.1887
  496MOL0     C65365   5.832   9.668   7.363  0.4669  0.8367  0.1590
  496MOL0     C65366   5.763   9.595   7.466 -0.1372 -0.3224 -0.8194
  496MOL0     C65367   5.683   9.665   7.561 -0.0099  0.5451 -0.0936
  496MOL0     C65368   5.682   9.807   7.572 -0.4073 -0.4566 -0.8232
  496MOL0     C65369   5.607   9.872   7.684  0.7184  0.1201 -0.1463
  496MOL0     O65370   5.591  10.007   7.667  0.0920 -0.6050 -0.2146
  496MOL0     C65371   5.537  10.091   7.756 -0.1556  0.7054  0.0859
  496MOL0     C65372   5.603  10.215   7.774 -0.1851  0.2507  1.6776
  496MOL0     C65373   5.553  10.313   7.852 -0.3752  0.6220 -0.4025
  496MOL0     C65374   5.439  10.290   7.931  0.2553 -0.1024 -0.5626
  496MOL0     O65375   5.391  10.384   8.020  0.0149 -0.0945 -0.7605
  496MOL0     C65376   5.490  10.413   8.120 -0.4425  0.7850  0.7767
  496MOL0     C65377   5.431  10.516   8.214  0.5310  0.2437 -0.1507
  496MOL0     C65378   5.529  10.532   8.330  1.5709 -0.3931 -0.2663
  496MOL0     C65379   5.457  10.577   8.464 -0.3729 -0.7880  0.4306
  496MOL0     C65380   5.555  10.628   8.567  0.6133 -0.5311 -0.3985
  496MOL0     C65381   5.489  10.711   8.672 -0.7415 -0.0287 -0.5866
  496MOL0     C65382   5.468  10.846   8.605  0.3293 -0.3890 -0.5006
  496MOL0     C65383   5.588  10.940   8.593  0.3950  0.4588  0.5393
  496MOL0    Cl65384   5.539  11.102   8.550  0.0050  0.0520 -0.2382
  496MOL0     C65385   5.370  10.169   7.911 -0.5629 -0.2828  0.3311
  496MOL0     C65386   5.415  10.069   7.820 -0.3626 -0.0644  0.5918
  496MOL0     O65387   5.587   9.808   7.787  0.2124 -0.8739 -0.2651
  496MOL0     C65388   5.740   9.871   7.464  0.2758 -0.5653 -0.0919
  496MOL0     C65389   5.822   9.811   7.369  0.6894 -0.0912 -0.4189
  496MOL0     N65390   6.377   9.361   6.904  1.1868  0.0739 -0.5192
  496MOL0     N65391   6.465   9.270   6.921  0.2202 -0.2158 -0.4312
  496MOL0     C65392   6.041   8.885   7.796  0.7135  1.7919 -0.1290
  496MOL0     C65393   6.011   8.975   7.900 -1.0251 -0.6856  0.4708
  496MOL0     C65394   5.977   9.153   8.287 -0.3468 -0.1091  0.9101
  496MOL0     C65395   6.033   9.274   8.312 -0.5011  0.0330  0.7489
  496MOL0     C65396   6.000   9.338   8.431  0.5696 -0.2165  0.7276
  496MOL0     C65397   5.904   9.300   8.518 -0.1536  0.2979  0.2436
  496MOL0     O65398   5.890   9.377   8.623  0.2888 -0.2276  0.1098
  496MOL0     C65399   5.863   9.321   8.752  0.2005  0.3558 -0.5627
  496MOL0     C65400   5.820   9.436   8.841 -0.2988  0.0078  0.2406
  496MOL0     C65401   5.723   9.400   8.958 -0.6630  0.9830 -0.5558
  496MOL0     C65402   5.577   9.399   8.922  0.0638  1.0349 -0.7195
  496MOL0     C65403   5.490   9.355   9.037 -0.4828 -0.1087 -0.3781
  496MOL0     C65404   5.423   9.321   9.133  0.0625 -0.2669  0.2288
  496MOL0     C65405   5.824   9.187   8.488 -0.4464  1.5172 -0.1398
  496MOL0     C65406   5.868   9.116   8.375 -0.4588 -0.2294  0.6920
  496MOL0     H65407   6.336   9.051   7.979 -0.8615 -2.1712  0.8478
  496MOL0     H65408   6.383   8.902   7.801 -0.5622 -1.2355  1.3800
  496MOL0     H65409   6.316   8.595   7.621  1.4731  0.4082 -1.5621
  496MOL0     H65410   6.382   8.711   7.745 -0.4616  3.3531  0.9297
  496MOL0     H65411   6.510   8.779   7.580 -1.4891  0.1607  1.5784
  496MOL0     H65412   6.365   8.877   7.552 -1.0176 -0.0679  1.4172
  496MOL0     H65413   6.284   8.709   7.362 -0.3235 -1.7659 -0.1171
  496MOL0     H65414   6.424   8.612   7.383  3.7707  0.6292  0.6196
  496MOL0     H65415   6.428   8.901   7.282  1.2654  0.6275 -2.4276
  496MOL0     H65416   6.561   8.794   7.340 -1.6065 -1.5005  2.4923
  496MOL0     H65417   6.347   8.714   7.137  0.1386  0.6462  0.0275
  496MOL0     H65418   6.510   8.639   7.173 -0.0674  0.1161 -0.4175
  496MOL0     H65419   6.496   8.747   6.957  0.6858 -3.4267  1.2843
  496MOL0     H65420   6.616   8.831   7.049 -0.6947  0.2408 -1.9869
  496MOL0     H65421   6.438   8.950   6.907  0.7848  1.0898  0.4247
  496MOL0     H65422   6.329   8.940   7.040 -0.7433  1.2414 -2.1906
  496MOL0     H65423   6.604   9.074   7.030 -0.7433  0.8097 -1.9188
  496MOL0     H65424   6.500   9.078   7.174  0.3429  0.8523 -0.2854
  496MOL0     H65425   6.220   9.188   7.124 -0.4129  0.6949 -0.8755
  496MOL0     H65426   6.054   9.318   6.970 -2.0615  1.5042  0.9348
  496MOL0     H65427   6.117   9.443   6.868  0.3452 -0.8428  0.0476
  496MOL0     H65428   6.173   9.578   7.075 -0.5448  0.3154 -1.0007
  496MOL0     H65429   6.087   9.467   7.174 -0.7275 -0.5317 -0.2763
  496MOL0     H65430   5.949   9.594   6.938  1.0186 -0.4625 -1.7073
  496MOL0     H65431   5.880   9.486   7.051  0.3479 -0.4263  1.3874
  496MOL0     H65432   5.820   9.723   7.108  2.4927  3.6730 -0.4030
  496MOL0     H65433   5.984   9.754   7.151  1.5498 -0.4073 -0.5509
  496MOL0     H65434   5.779   9.488   7.467  2.6489 -0.0216  1.5272
  496MOL0     H65435   5.632   9.604   7.635  1.2243 -0.6915 -0.2178
  496MOL0     H65436   5.693  10.232   7.715  0.0855  0.3020  2.0998
  496MOL0     H65437   5.614  10.402   7.852 -2.2920  2.0620  1.6426
  496MOL0     H65438   5.589  10.438   8.080  0.0546  1.2755  2.2640
  496MOL0     H65439   5.499  10.323   8.181  0.5594 -1.3828 -2.2975
  496MOL0     H65440   5.331  10.491   8.250  0.6912  0.6038  0.5596
  496MOL0     H65441   5.427  10.615   8.168 -4.8481  1.6100  2.4807
  496MOL0     H65442   5.612  10.599   8.305  0.4248  0.4115 -2.1178
  496MOL0     H65443   5.567  10.431   8.351  3.9235  0.7595  1.6009
  496MOL0     H65444   5.376  10.647   8.438  0.8542  0.2328 -0.7627
  496MOL0     H65445   5.403  10.489   8.501  0.0249 -0.8877  0.7847
  496MOL0     H65446   5.632  10.687   8.515 -1.2161  1.6992 -0.7431
  496MOL0     H65447   5.613  10.545   8.607  1.0869 -0.5155 -1.0193
  496MOL0     H65448   5.559  10.715   8.756  1.7074  1.3614 -2.5421
  496MOL0     H65449   5.400  10.674   8.722 -0.8765  0.5996 -0.3476
  496MOL0     H65450   5.430  10.833   8.504  1.4473 -0.0824 -0.9736
  496MOL0     H65451   5.395  10.907   8.661  0.8481  1.4654 -1.7563
  496MOL0     H65452   5.649  10.899   8.511 -1.3910 -4.8857  1.4417
  496MOL0     H65453   5.633  10.927   8.692 -1.0588 -2.5480  0.9351
  496MOL0     H65454   5.279  10.150   7.967  1.7054 -3.0043  3.4774
  496MOL0     H65455   5.353   9.981   7.809 -1.2520  0.7335 -1.0463
  496MOL0     H65456   5.733   9.979   7.462  0.4121 -0.5441  0.3461
  496MOL0     H65457   5.864   9.864   7.284 -1.3745  1.2372 -0.7014
  496MOL0     H65458   5.953   8.839   7.753  1.6031 -0.9565  0.7378
  496MOL0     H65459   5.908   8.998   7.926 -0.2886  2.0426  1.3517
  496MOL0     H65460   6.113   9.318   8.254 -0.0218  0.6709  1.8771
  496MOL0     H65461   6.070   9.420   8.444 -1.4656  2.2198 -2.2951
  496MOL0     H65462   5.954   9.278   8.795  0.0076 -0.3346 -0.8359
  496MOL0     H65463   5.783   9.246   8.747 -0.8910  1.4793 -0.4687
  496MOL0     H65464   5.914   9.478   8.877 -0.5891 -1.8693  3.5879
  496MOL0     H65465   5.773   9.505   8.770 -1.7573 -1.2814 -0.1032
  496MOL0     H65466   5.729   9.483   9.028  0.1334  1.9577 -1.7282
  496MOL0     H65467   5.762   9.314   9.013 -0.1211  1.4820 -0.1380
  496MOL0     H65468   5.542   9.497   8.889  1.0440  1.3150 -0.9658
  496MOL0     H65469   5.558   9.337   8.834 -1.9814 -0.0225  0.3983
  496MOL0     H65470   5.371   9.279   9.217 -3.7210 -0.7663 -2.0913
  496MOL0     H65471   5.753   9.157   8.564 -0.2873  5.0613  1.6047
  496MOL0     H65472   5.812   9.025   8.359  1.3744 -1.5355  1.3286
  497MOL0     O65473   4.694   4.823   4.089  0.2569 -0.0322 -0.0809
  497MOL0     C65474   4.757   4.804   4.194 -0.7789  0.1383  0.7743
  497MOL0     O65475   4.704   4.754   4.312  0.2801 -0.3309 -0.3687
  497MOL0     C65476   4.577   4.687   4.310 -0.4752  0.2326  0.3723
  497MOL0     C65477   4.489   4.720   4.412  0.3076 -0.4544  0.5974
  497MOL0     C65478   4.353   4.655   4.412  0.0602 -1.4197 -0.5351
  497MOL0     C65479   4.319   4.569   4.310  0.0363  0.0028 -0.1629
  497MOL0     O65480   4.188   4.523   4.296 -0.6498 -0.3495  1.0383
  497MOL0     C65481   4.140   4.535   4.160  0.2168  0.0387  0.3562
  497MOL0     C65482   3.991   4.528   4.164 -0.1570 -0.6757 -0.0920
  497MOL0     C65483   3.921   4.655   4.212  0.6202 -0.8936  0.1331
  497MOL0     C65484   3.964   4.700   4.358  1.0584  0.5181  0.4662
  497MOL0     C65485   3.881   4.823   4.411  0.0657  0.6274 -0.1493
  497MOL0     C65486   3.899   4.849   4.564 -0.1045  0.1516 -0.1664
  497MOL0     C65487   4.037   4.912   4.598 -0.4244  0.4714  0.0942
  497MOL0     C65488   4.052   4.924   4.754 -0.9663 -0.2479  0.2659
  497MOL0     N65489   4.178   5.001   4.787 -0.0647 -0.0230 -0.0386
  497MOL0     C65490   4.206   5.111   4.880  0.0489  0.9602 -0.4287
  497MOL0     C65491   4.339   5.125   4.863  0.1146  0.0679  0.1342
  497MOL0     C65492   4.427   5.216   4.945  0.4630 -0.3965  0.3757
  497MOL0     C65493   4.465   5.344   4.865  1.2404 -0.2793 -0.4017
  497MOL0     C65494   4.572   5.310   4.771 -0.7504  0.7727 -0.0166
  497MOL0     C65495   4.625   5.422   4.679  0.6026 -0.3253  0.2544
  497MOL0     O65496   4.522   5.455   4.576 -0.1847 -0.3731 -0.1471
  497MOL0     C65497   4.564   5.538   4.475 -0.0171 -0.2511  0.5192
  497MOL0     C65498   4.484   5.533   4.359 -0.0267 -0.4127 -0.0685
  497MOL0     C65499   4.515   5.599   4.245  0.2355 -0.8908  0.0143
  497MOL0     C65500   4.611   5.697   4.243  0.6542  0.4547  0.1822
  497MOL0     C65501   4.637   5.775   4.118  0.3940 -0.8651  0.2222
  497MOL0     O65502   4.552   5.778   4.007 -0.0180  0.1479 -0.7832
  497MOL0     C65503   4.594   5.861   3.906 -0.5168 -0.2830 -0.3576
  497MOL0     C65504   4.656   5.809   3.790  0.5157 -0.5599  0.3583
  497MOL0     C65505   4.694   5.893   3.685 -0.9290 -0.4776 -1.4523
  497MOL0     C65506   4.671   6.029   3.692 -0.0403 -0.0985  0.2513
  497MOL0     O65507   4.728   6.112   3.593  0.1791  0.1899 -0.0373
  497MOL0     C65508   4.759   6.243   3.631 -0.1000  0.6413  0.4370
  497MOL0     C65509   4.874   6.247   3.738  0.0369  0.1986 -0.2134
  497MOL0     C65510   5.000   6.178   3.691  0.0083 -0.6409  0.1417
  497MOL0     C65511   5.103   6.194   3.800  0.7668 -0.1974 -0.0883
  497MOL0     C65512   5.238   6.127   3.757 -0.4558 -0.5580 -1.3950
  497MOL0     C65513   5.355   6.131   3.861 -0.0030  0.0959  0.6401
  497MOL0     C65514   5.418   6.271   3.890  0.4366 -0.6048 -0.0813
  497MOL0     C65515   5.569   6.267   3.934 -0.5115 -0.2003  0.8701
  497MOL0    Cl65516   5.588   6.172   4.086  0.0438 -0.2095  0.2342
  497MOL0     C65517   4.612   6.083   3.805  0.0140 -0.7998 -0.9226
  497MOL0     C65518   4.574   5.997   3.910  0.2029 -0.1209  0.6818
  497MOL0     O65519   4.740   5.845   4.121  0.3378  0.3555 -0.0695
  497MOL0     C65520   4.693   5.714   4.357  0.8697  0.1897 -0.9016
  497MOL0     C65521   4.660   5.639   4.474 -0.6053  0.2011  0.6727
  497MOL0     N65522   4.390   5.037   4.774  0.0937  0.5762  0.0561
  497MOL0     N65523   4.296   4.960   4.734  1.5247  1.3078 -0.4056
  497MOL0     C65524   4.427   4.520   4.219 -0.3418  0.9182 -0.6431
  497MOL0     C65525   4.552   4.592   4.214  0.0233  0.1467 -0.3791
  497MOL0     C65526   4.898   4.854   4.197 -1.0509  0.2114  1.5728
  497MOL0     C65527   4.988   4.835   4.301 -0.4910  0.6100 -0.6204
  497MOL0     C65528   5.109   4.908   4.310 -0.4512 -0.6755  1.1691
  497MOL0     C65529   5.143   4.997   4.210 -0.4686  0.3686  0.2674
  497MOL0     O65530   5.253   5.074   4.217  0.1370 -0.4972 -0.1207
  497MOL0     C65531   5.311   5.115   4.094 -0.1106 -0.3966  0.0732
  497MOL0     C65532   5.427   5.194   4.148  0.3355 -0.3920 -0.4745
  497MOL0     C65533   5.484   5.271   4.025 -0.1070  1.1465 -0.8536
  497MOL0     C65534   5.426   5.416   3.998  0.3319  0.2543 -0.2318
  497MOL0     C65535   5.428   5.508   4.112  0.9574  0.3797 -1.0878
  497MOL0     C65536   5.449   5.595   4.190  0.2276  0.9320 -0.0417
  497MOL0     C65537   5.061   4.999   4.093 -0.0093  0.5290  0.0537
  497MOL0     C65538   4.948   4.925   4.089  0.6968 -0.2713  0.2498
  497MOL0     H65539   4.515   4.807   4.472 -1.7752  0.5145  0.1669
  497MOL0     H65540   4.278   4.685   4.484  1.5481  2.6451 -0.3997
  497MOL0     H65541   4.168   4.447   4.101  2.7705 -1.2894  3.2681
  497MOL0     H65542   4.173   4.627   4.111  0.3733 -0.7839 -1.1248
  497MOL0     H65543   3.956   4.444   4.226  1.7004 -1.4848 -0.0846
  497MOL0     H65544   3.951   4.510   4.064 -3.0520 -0.2993  0.9152
  497MOL0     H65545   3.814   4.656   4.193  0.8544  1.4716 -1.6130
  497MOL0     H65546   3.943   4.737   4.143  1.1087 -1.1020  0.0334
  497MOL0     H65547   3.931   4.618   4.423 -2.2216  0.5328 -0.9910
  497MOL0     H65548   4.070   4.723   4.373  0.9553  0.4766  1.3403
  497MOL0     H65549   3.781   4.783   4.397  0.2274  0.8968 -2.4865
  497MOL0     H65550   3.892   4.908   4.343  2.5449 -0.4839 -1.2961
  497MOL0     H65551   3.887   4.754   4.616 -2.0429  1.5846  2.2516
  497MOL0     H65552   3.831   4.931   4.588  2.4743  2.1888  0.7560
  497MOL0     H65553   4.122   4.866   4.546 -0.8632 -3.1226  2.1951
  497MOL0     H65554   4.038   5.014   4.559  2.5120 -0.2682 -2.2278
  497MOL0     H65555   4.064   4.822   4.791  1.1602 -0.3443 -0.5940
  497MOL0     H65556   3.957   4.969   4.786 -1.0700  0.6338 -1.1873
  497MOL0     H65557   4.132   5.156   4.945 -1.3953 -0.9689 -0.6351
  497MOL0     H65558   4.521   5.167   4.973  2.0134  0.3347 -3.0696
  497MOL0     H65559   4.368   5.247   5.032 -1.9925  0.6366 -1.5576
  497MOL0     H65560   4.488   5.420   4.940 -3.5249 -1.4073  2.6352
  497MOL0     H65561   4.383   5.378   4.801 -0.2078 -1.2988  0.8505
  497MOL0     H65562   4.662   5.273   4.821 -2.1558  1.3742  3.2344
  497MOL0     H65563   4.536   5.228   4.707  1.4020  0.0680 -0.3944
  497MOL0     H65564   4.712   5.385   4.624  2.1889  1.2049  1.6236
  497MOL0     H65565   4.656   5.509   4.738 -2.0604 -0.8120  2.6194
  497MOL0     H65566   4.396   5.469   4.356  1.1396 -2.0322 -2.2993
  497MOL0     H65567   4.464   5.579   4.151 -1.9216 -0.0470  0.9437
  497MOL0     H65568   4.675   5.702   3.782  0.4211 -0.3979 -3.3497
  497MOL0     H65569   4.748   5.851   3.602  1.4145 -0.6657  0.0734
  497MOL0     H65570   4.676   6.310   3.652  0.1927  1.2657 -0.3337
  497MOL0     H65571   4.794   6.288   3.537 -1.6462  1.9849  0.4674
  497MOL0     H65572   4.836   6.203   3.830 -0.2130 -1.0996 -0.9019
  497MOL0     H65573   4.906   6.349   3.761  0.0330  0.1644 -0.0621
  497MOL0     H65574   5.035   6.224   3.598  2.3788 -2.0491  0.2444
  497MOL0     H65575   4.964   6.077   3.669 -0.6045  0.0737 -2.4436
  497MOL0     H65576   5.133   6.298   3.819  2.5511 -0.5141 -0.9137
  497MOL0     H65577   5.058   6.146   3.888  1.6703 -2.3167 -0.7203
  497MOL0     H65578   5.270   6.172   3.662  1.9152 -0.0318 -0.4189
  497MOL0     H65579   5.230   6.022   3.727 -0.7918 -1.1237  0.5366
  497MOL0     H65580   5.441   6.075   3.823 -0.5628  0.3208 -1.0198
  497MOL0     H65581   5.329   6.075   3.951 -1.9639 -0.4951 -0.2574
  497MOL0     H65582   5.416   6.332   3.799  2.0778 -2.9097 -1.7785
  497MOL0     H65583   5.362   6.321   3.970  0.8677  2.4059 -1.5479
  497MOL0     H65584   5.608   6.368   3.952  1.1917 -0.7478  0.3336
  497MOL0     H65585   5.623   6.219   3.853 -3.0400 -0.6061 -0.6749
  497MOL0     H65586   4.578   6.184   3.825 -0.2826 -1.0998  0.1513
  497MOL0     H65587   4.530   6.040   4.000  0.1873 -4.3316  2.9092
  497MOL0     H65588   4.777   5.783   4.354 -0.1174  1.7235  2.3185
  497MOL0     H65589   4.720   5.643   4.564 -0.7651 -3.2939  1.0577
  497MOL0     H65590   4.407   4.440   4.148  0.8436  1.5390 -1.7151
  497MOL0     H65591   4.634   4.562   4.150 -0.4364  1.7310 -1.7572
  497MOL0     H65592   4.971   4.769   4.386  0.4145 -2.4845 -2.6522
  497MOL0     H65593   5.174   4.886   4.394  1.3699 -0.9968 -0.2574
  497MOL0     H65594   5.238   5.165   4.029  1.7205 -0.7611 -2.3981
  497MOL0     H65595   5.347   5.032   4.034 -4.2954 -2.0921 -0.4799
  497MOL0     H65596   5.395   5.262   4.228  1.5827 -1.2127  0.7638
  497MOL0     H65597   5.504   5.138   4.201  2.1911 -0.4189 -3.0042
  497MOL0     H65598   5.482   5.206   3.937  2.6412 -0.4118  0.1085
  497MOL0     H65599   5.592   5.280   4.031 -0.2008  1.8762 -0.2192
  497MOL0     H65600   5.486   5.462   3.919 -2.0613  1.7825 -1.2636
  497MOL0     H65601   5.322   5.417   3.965  0.6053 -2.0580 -1.3998
  497MOL0     H65602   5.451   5.684   4.251 -0.1891 -0.2194  1.7249
  497MOL0     H65603   5.076   5.064   4.007  0.0147 -0.0345 -0.3673
  497MOL0     H65604   4.888   4.948   4.001 -0.2035  3.2194  1.5910
  498MOL0     O65605   4.953   4.406   6.483  0.4282 -0.9338 -0.5439
  498MOL0     C65606   4.925   4.496   6.565 -0.5644 -0.0308 -1.6082
  498MOL0     O65607   4.801   4.532   6.609 -0.1048 -0.1536  0.2541
  498MOL0     C65608   4.699   4.475   6.537  0.3757  0.0731 -0.2057
  498MOL0     C65609   4.633   4.549   6.441 -0.1402 -0.1491  0.4244
  498MOL0     C65610   4.546   4.483   6.347 -0.2961 -0.2038 -0.9118
  498MOL0     C65611   4.531   4.347   6.345 -0.2883 -0.0095  1.0051
  498MOL0     O65612   4.453   4.300   6.244 -0.1922 -0.5599  0.3401
  498MOL0     C65613   4.432   4.156   6.237 -0.7932  0.0169 -0.2574
  498MOL0     C65614   4.349   4.107   6.114  0.2198 -0.7562 -0.4337
  498MOL0     C65615   4.385   4.156   5.973 -0.1524 -0.1339  0.6045
  498MOL0     C65616   4.538   4.138   5.935 -0.3088 -0.0257 -0.9019
  498MOL0     C65617   4.605   4.224   5.828  0.8863 -0.4002  0.9510
  498MOL0     C65618   4.759   4.222   5.833  0.1630  0.1843  0.8129
  498MOL0     C65619   4.822   4.304   5.945  0.7980  0.7129 -0.0596
  498MOL0     C65620   4.972   4.304   5.943  0.0048 -0.5229 -0.8821
  498MOL0     N65621   5.020   4.425   6.009  0.3209  0.0109 -0.2191
  498MOL0     C65622   4.974   4.490   6.122 -0.3377  0.2421  0.7560
  498MOL0     C65623   5.058   4.591   6.141  0.8322  0.0893 -0.3611
  498MOL0     C65624   5.059   4.696   6.250  0.2745 -0.0540  0.5951
  498MOL0     C65625   4.931   4.776   6.258 -0.3494 -0.7168 -0.2677
  498MOL0     C65626   4.924   4.858   6.388  0.3910 -0.9778 -0.2761
  498MOL0     C65627   5.051   4.925   6.443  0.8882 -1.0597  0.5788
  498MOL0     O65628   5.078   5.045   6.358 -0.5333 -0.1062  0.5524
  498MOL0     C65629   5.188   5.107   6.405  0.3415 -0.4216 -0.4746
  498MOL0     C65630   5.307   5.054   6.381  0.7079  0.0956 -0.1183
  498MOL0     C65631   5.420   5.105   6.436 -0.6028  0.9440 -0.0805
  498MOL0     C65632   5.413   5.227   6.498 -0.1957  0.3595  0.0403
  498MOL0     C65633   5.540   5.305   6.531  0.4002  0.8704 -1.0246
  498MOL0     O65634   5.658   5.277   6.478 -0.3418  0.3076 -0.1897
  498MOL0     C65635   5.777   5.347   6.505  0.6748 -0.4239 -0.1703
  498MOL0     C65636   5.882   5.366   6.413  0.1506 -0.5232 -0.4610
  498MOL0     C65637   5.995   5.433   6.458  0.1619 -0.7288  0.0764
  498MOL0     C65638   6.024   5.473   6.584  0.0318 -0.1310 -0.0876
  498MOL0     O65639   6.136   5.546   6.617  0.6859  0.5860 -0.3031
  498MOL0     C65640   6.258   5.540   6.545  0.6689 -0.0777 -0.6232
  498MOL0     C65641   6.357   5.617   6.635 -1.0663 -0.0583  1.3323
  498MOL0     C65642   6.503   5.614   6.570 -0.2343 -0.1792  0.0350
  498MOL0     C65643   6.513   5.706   6.455 -0.2696 -0.5053  0.7856
  498MOL0     C65644   6.655   5.693   6.381  0.0966 -0.0743 -0.4582
  498MOL0     C65645   6.643   5.702   6.227  0.2035 -1.1464  0.6620
  498MOL0     C65646   6.768   5.768   6.165  0.2877  0.0201 -1.4717
  498MOL0     C65647   6.763   5.739   6.011  0.3542 -0.4983 -0.0676
  498MOL0    Cl65648   6.673   5.871   5.923 -0.3257  0.1503 -0.7370
  498MOL0     C65649   5.927   5.450   6.686 -0.6375 -0.2303  0.4856
  498MOL0     C65650   5.806   5.390   6.642 -0.0394  0.2746  0.0030
  498MOL0     O65651   5.515   5.405   6.599  0.8333  0.9979 -0.3553
  498MOL0     C65652   5.294   5.282   6.526  0.0634 -0.4782  0.1916
  498MOL0     C65653   5.183   5.215   6.481  0.3424 -0.3402 -0.1781
  498MOL0     N65654   5.142   4.603   6.032 -0.2233  0.2527  0.0454
  498MOL0     N65655   5.123   4.507   5.955 -0.5131  0.0324 -0.8839
  498MOL0     C65656   4.576   4.272   6.455  1.2328  0.1806  0.7694
  498MOL0     C65657   4.660   4.336   6.548 -0.5132  0.3329  0.7466
  498MOL0     C65658   5.042   4.557   6.637 -0.0267  0.0575 -0.2413
  498MOL0     C65659   5.165   4.498   6.616 -0.1978 -0.3242  0.1530
  498MOL0     C65660   5.271   4.561   6.673 -0.3727 -0.0900  0.1992
  498MOL0     C65661   5.264   4.688   6.727 -0.1510 -0.8614 -0.0882
  498MOL0     O65662   5.379   4.734   6.776  0.4287 -0.5824  0.4078
  498MOL0     C65663   5.382   4.851   6.865  0.3218  1.8472  0.1103
  498MOL0     C65664   5.423   4.967   6.777  0.7219  0.6325  0.2117
  498MOL0     C65665   5.499   5.080   6.857 -0.5867 -0.1431 -0.3955
  498MOL0     C65666   5.415   5.150   6.967  0.1221 -0.1923  0.5868
  498MOL0     C65667   5.288   5.207   6.911  0.0945  0.5987  0.0264
  498MOL0     C65668   5.179   5.232   6.869 -0.1527 -1.0983  0.7610
  498MOL0     C65669   5.143   4.759   6.734 -0.2749  0.0563  0.3128
  498MOL0     C65670   5.029   4.690   6.682 -1.1553 -0.9247 -0.3396
  498MOL0     H65671   4.667   4.652   6.435  1.0033 -0.5672 -0.7147
  498MOL0     H65672   4.498   4.529   6.261 -2.1100 -2.0337 -0.9566
  498MOL0     H65673   4.384   4.131   6.332  2.3986 -1.7866  1.0262
  498MOL0     H65674   4.520   4.094   6.254 -1.6232 -0.6423  1.9940
  498MOL0     H65675   4.250   4.147   6.138 -0.2369 -1.5279 -0.9918
  498MOL0     H65676   4.334   3.999   6.117 -4.3164 -0.3070  2.5324
  498MOL0     H65677   4.371   4.264   5.975  0.8794  0.2663 -3.4833
  498MOL0     H65678   4.321   4.106   5.899 -1.6553 -0.6917  2.2130
  498MOL0     H65679   4.582   4.149   6.034  0.5382  1.7964 -1.4433
  498MOL0     H65680   4.567   4.038   5.902  0.5165  0.0793 -0.5082
  498MOL0     H65681   4.570   4.327   5.819 -0.0084 -0.7084  0.8284
  498MOL0     H65682   4.582   4.183   5.730  1.7975 -0.7637  0.8793
  498MOL0     H65683   4.792   4.267   5.739  0.9125 -1.2011  0.3782
  498MOL0     H65684   4.800   4.121   5.834  3.9266  1.5161 -1.1170
  498MOL0     H65685   4.774   4.401   5.938  1.1730  1.1887  2.7895
  498MOL0     H65686   4.785   4.261   6.038 -1.2615  0.3955 -0.9688
  498MOL0     H65687   4.996   4.300   5.836 -2.2368 -1.1435 -1.4276
  498MOL0     H65688   5.017   4.224   6.003  0.6284  1.8629  2.0232
  498MOL0     H65689   4.891   4.449   6.178  0.7815 -2.3683  0.6770
  498MOL0     H65690   5.156   4.746   6.261  1.1005 -1.2501 -0.9648
  498MOL0     H65691   5.049   4.641   6.345  2.0448  0.5275  1.1704
  498MOL0     H65692   4.847   4.706   6.248  0.0751 -1.1694 -0.7341
  498MOL0     H65693   4.938   4.849   6.176  2.2106 -0.2451  0.2856
  498MOL0     H65694   4.849   4.933   6.361 -0.8829 -0.7370  3.3863
  498MOL0     H65695   4.880   4.797   6.467  0.1117  1.5262  1.5941
  498MOL0     H65696   5.140   4.863   6.437  1.3801 -0.5729  2.3500
  498MOL0     H65697   5.025   4.963   6.542 -0.1523 -0.4375  0.0888
  498MOL0     H65698   5.316   4.976   6.306  1.4993  1.5927 -1.6629
  498MOL0     H65699   5.515   5.061   6.408 -1.2874 -0.4076 -0.3636
  498MOL0     H65700   5.876   5.347   6.306  0.6229 -3.7210 -0.0222
  498MOL0     H65701   6.074   5.458   6.388  1.5801  1.9836  2.4285
  498MOL0     H65702   6.241   5.581   6.445  0.2710  1.0712 -0.0993
  498MOL0     H65703   6.297   5.438   6.546  0.1587 -0.3670  3.1124
  498MOL0     H65704   6.367   5.559   6.727 -0.2787 -0.4647  1.0009
  498MOL0     H65705   6.345   5.720   6.670  4.1742  2.1789 -2.1257
  498MOL0     H65706   6.543   5.518   6.537 -0.7210 -0.3167 -0.1643
  498MOL0     H65707   6.563   5.662   6.647 -0.2338  1.9389 -1.2013
  498MOL0     H65708   6.436   5.679   6.383  0.7566 -0.1641 -0.4721
  498MOL0     H65709   6.481   5.806   6.486  3.6839  1.3748 -0.5510
  498MOL0     H65710   6.709   5.606   6.420 -1.1081 -1.0058 -0.8429
  498MOL0     H65711   6.720   5.774   6.416 -2.4674  1.8645  0.1146
  498MOL0     H65712   6.545   5.747   6.210 -0.0911 -1.4445  1.5168
  498MOL0     H65713   6.634   5.601   6.185 -0.2652 -0.3442 -1.3147
  498MOL0     H65714   6.776   5.876   6.173  0.6188 -0.0534 -0.7322
  498MOL0     H65715   6.854   5.720   6.213 -0.3189  1.1634  0.9140
  498MOL0     H65716   6.719   5.646   5.972  0.1792 -0.0060 -1.0706
  498MOL0     H65717   6.868   5.730   5.982  0.5504  0.0630  0.4579
  498MOL0     H65718   5.943   5.474   6.790  1.1401 -0.9235  0.4066
  498MOL0     H65719   5.735   5.373   6.723  0.2049 -0.7418  0.0179
  498MOL0     H65720   5.278   5.358   6.602 -2.3163 -0.3111 -0.3803
  498MOL0     H65721   5.091   5.262   6.513  0.5262  1.1103 -1.6582
  498MOL0     H65722   4.566   4.164   6.464  0.5167  0.0590 -1.0600
  498MOL0     H65723   4.710   4.263   6.612 -2.7313 -0.3647  1.7698
  498MOL0     H65724   5.196   4.404   6.572  1.0982  0.5986 -1.0003
  498MOL0     H65725   5.367   4.512   6.658  0.0034 -0.2545  2.7313
  498MOL0     H65726   5.452   4.828   6.946 -0.7241 -1.1145  0.3163
  498MOL0     H65727   5.283   4.869   6.909 -0.4984  0.4122 -1.0529
  498MOL0     H65728   5.495   4.919   6.711  1.7977  0.1486  1.6743
  498MOL0     H65729   5.344   5.015   6.720  2.0949  0.4970 -1.8961
  498MOL0     H65730   5.510   5.157   6.780 -1.7293  0.3203 -0.1142
  498MOL0     H65731   5.590   5.038   6.900  0.5063  2.3806 -0.0844
  498MOL0     H65732   5.388   5.076   7.043 -0.9755  0.6865  1.0715
  498MOL0     H65733   5.469   5.238   7.005  0.2172  2.1337 -4.2080
  498MOL0     H65734   5.090   5.259   6.817  0.9290  2.5570  0.5379
  498MOL0     H65735   5.141   4.862   6.768 -1.3972  0.4091 -0.7348
  498MOL0     H65736   4.929   4.734   6.688 -2.0730 -2.7340 -1.4231
  499MOL0     O65737  10.307   9.737   0.870 -0.9329 -0.2788  0.2032
  499MOL0     C65738  10.363   9.747   0.766 -0.0461  0.2862  0.0557
  499MOL0     O65739  10.306   9.784   0.645  0.6299 -0.1301 -1.3852
  499MOL0     C65740  10.175   9.825   0.651  0.6575  0.1184  1.2518
  499MOL0     C65741  10.115   9.911   0.747  0.0092 -0.1179  1.5695
  499MOL0     C65742   9.984   9.959   0.739  0.1962 -0.0768  0.9453
  499MOL0     C65743   9.897   9.920   0.639  0.8314 -0.3498  0.1618
  499MOL0     O65744   9.771   9.972   0.656 -0.6212  0.6883 -0.5272
  499MOL0     C65745   9.674   9.938   0.556  0.6608 -0.4923 -0.5728
  499MOL0     C65746   9.539   9.982   0.621  0.4510 -0.9322  0.1419
  499MOL0     C65747   9.434  10.020   0.515  0.4746  0.4133  0.5114
  499MOL0     C65748   9.354   9.905   0.448  0.0231 -0.0755  0.2792
  499MOL0     C65749   9.271   9.925   0.321  0.3083  0.4258 -0.2736
  499MOL0     C65750   9.336   9.998   0.200 -1.2435  0.2524  0.6833
  499MOL0     C65751   9.265   9.967   0.063 -0.2210  0.3136 -0.1490
  499MOL0     C65752   9.146  10.046   0.037  0.5304  0.2167  0.1599
  499MOL0     N65753   9.121  10.047  -0.108  0.9967 -0.5058 -0.0619
  499MOL0     C65754   9.110  10.161  -0.187 -0.8546 -0.1490 -0.2216
  499MOL0     C65755   9.084  10.109  -0.310 -0.7347  0.0092 -0.0159
  499MOL0     C65756   9.062  10.174  -0.437 -0.3335  0.2404  0.4194
  499MOL0     C65757   9.197  10.241  -0.488  0.4275  0.2178  0.9232
  499MOL0     C65758   9.176  10.330  -0.613 -0.0108  0.1053 -0.0353
  499MOL0     C65759   9.143  10.258  -0.739  0.3414 -0.6089  0.2503
  499MOL0     O65760   9.198  10.125  -0.753 -0.4875 -0.5031 -0.2715
  499MOL0     C65761   9.330  10.104  -0.782 -0.0572  0.2248 -0.5593
  499MOL0     C65762   9.378   9.970  -0.778  0.1713 -0.0836 -0.3763
  499MOL0     C65763   9.516   9.938  -0.788  0.2619  0.3728  0.0409
  499MOL0     C65764   9.609  10.039  -0.820  0.8458 -0.4315 -0.3326
  499MOL0     C65765   9.744  10.012  -0.837  0.0386 -0.2940  0.0723
  499MOL0     O65766   9.816  10.087  -0.922  0.5793  0.4497  0.5207
  499MOL0     C65767   9.953  10.099  -0.903  0.2097  0.0371 -0.0846
  499MOL0     C65768  10.043  10.006  -0.965 -0.5803 -0.2436 -0.3526
  499MOL0     C65769  10.181  10.032  -0.935  0.2521  0.6740  0.4431
  499MOL0     C65770  10.232  10.158  -0.884  0.2089  0.3861  0.5541
  499MOL0     O65771  10.357  10.187  -0.859 -0.4958  0.2819  0.0917
  499MOL0     C65772  10.407  10.291  -0.944  0.5673  0.1236  0.3404
  499MOL0     C65773  10.447  10.243  -1.089  0.4211 -0.0734 -0.2123
  499MOL0     C65774  10.489  10.361  -1.167 -0.1870 -0.8768  0.4840
  499MOL0     C65775  10.439  10.350  -1.313  0.2860 -0.2484 -0.8314
  499MOL0     C65776  10.485  10.225  -1.382  0.9221 -0.2395  0.1110
  499MOL0     C65777  10.522  10.244  -1.533 -0.3607  1.3235  0.2285
  499MOL0     C65778  10.560  10.086  -1.576 -0.0463 -1.1585 -0.1518
  499MOL0     C65779  10.563  10.077  -1.729  0.0961  0.7199 -0.4177
  499MOL0    Cl65780  10.647   9.932  -1.787 -0.1097  0.4610  0.0407
  499MOL0     C65781  10.141  10.248  -0.835 -0.1966  0.2970  0.2773
  499MOL0     C65782  10.005  10.213  -0.843  0.2842  0.0762 -1.1512
  499MOL0     O65783   9.784   9.912  -0.783  0.3887  0.1160  0.3762
  499MOL0     C65784   9.555  10.173  -0.832 -0.3495  0.2872  0.0041
  499MOL0     C65785   9.425  10.199  -0.820  0.7134  0.3878 -0.5732
  499MOL0     N65786   9.073   9.973  -0.302  0.6701 -0.0995 -0.2965
  499MOL0     N65787   9.109   9.937  -0.187  1.1365 -0.6953  0.3302
  499MOL0     C65788   9.949   9.829   0.548 -0.0118 -0.0446  0.0877
  499MOL0     C65789  10.082   9.778   0.557 -0.1516  0.3062  0.0883
  499MOL0     C65790  10.508   9.706   0.765  0.2142 -0.4146  0.1717
  499MOL0     C65791  10.570   9.674   0.888  0.6349 -0.1654 -0.2949
  499MOL0     C65792  10.713   9.647   0.883  0.4544  0.1737  1.2557
  499MOL0     C65793  10.782   9.638   0.759  0.3208  0.0214  0.2485
  499MOL0     O65794  10.905   9.592   0.741 -0.1881  0.3114  0.4489
  499MOL0     C65795  11.000   9.607   0.854  0.2418 -0.0995 -0.2047
  499MOL0     C65796  11.131   9.537   0.822  0.6630  0.3301  0.5222
  499MOL0     C65797  11.250   9.589   0.908 -0.3409  0.7817  0.6297
  499MOL0     C65798  11.295   9.729   0.871  0.2985  0.1056  0.8565
  499MOL0     C65799  11.402   9.767   0.956 -0.0395 -0.5335 -0.3670
  499MOL0     C65800  11.511   9.796   1.006 -0.2791  0.1318 -0.6186
  499MOL0     C65801  10.720   9.664   0.643  0.7204  0.9809 -0.6668
  499MOL0     C65802  10.588   9.717   0.650 -0.0585 -0.6328 -0.3699
  499MOL0     H65803  10.174   9.960   0.824 -0.0766  1.8345  0.4591
  499MOL0     H65804   9.951  10.026   0.818 -0.0620 -1.0105  1.6609
  499MOL0     H65805   9.677   9.832   0.530  1.7396  0.0177 -2.7625
  499MOL0     H65806   9.692   9.998   0.466  0.6285  1.8633  0.9109
  499MOL0     H65807   9.556  10.070   0.683 -5.1241 -0.4977  1.5386
  499MOL0     H65808   9.500   9.899   0.681 -0.8744  1.4419  2.7284
  499MOL0     H65809   9.477  10.076   0.431 -4.1548  1.9308 -1.1573
  499MOL0     H65810   9.362  10.083   0.567  0.6941 -0.1394  1.5136
  499MOL0     H65811   9.425   9.826   0.426 -1.1319 -1.0106 -0.2051
  499MOL0     H65812   9.292   9.864   0.528 -1.4474  0.9838 -0.2655
  499MOL0     H65813   9.177   9.974   0.349 -0.3477 -0.5401 -0.7239
  499MOL0     H65814   9.244   9.826   0.283 -0.5414 -0.3320  2.1483
  499MOL0     H65815   9.438   9.959   0.197 -0.9177  1.1084  0.4319
  499MOL0     H65816   9.344  10.104   0.223 -0.9771  0.3134  0.3199
  499MOL0     H65817   9.340   9.988  -0.015  0.2268 -1.7965 -0.3705
  499MOL0     H65818   9.252   9.858   0.054  0.5931 -0.0134  2.0416
  499MOL0     H65819   9.139  10.148   0.077 -1.3989  0.5346 -0.8457
  499MOL0     H65820   9.063   9.992   0.085  1.8074 -1.9115  0.0962
  499MOL0     H65821   9.124  10.263  -0.152  3.0325 -1.2730  2.1495
  499MOL0     H65822   8.979  10.245  -0.428 -0.7238 -0.1318 -0.1571
  499MOL0     H65823   9.036  10.109  -0.521 -1.7568  1.0061  0.2299
  499MOL0     H65824   9.277  10.172  -0.515  0.2448  0.4958 -0.4082
  499MOL0     H65825   9.244  10.301  -0.409 -0.5011  1.8082  0.3314
  499MOL0     H65826   9.095  10.401  -0.592 -0.7188 -1.4088  2.7974
  499MOL0     H65827   9.271  10.383  -0.625  1.0422 -2.0591 -2.0243
  499MOL0     H65828   9.159  10.321  -0.827 -1.0219 -0.8992 -0.2303
  499MOL0     H65829   9.035  10.241  -0.737  0.7281 -3.5900  0.3953
  499MOL0     H65830   9.316   9.895  -0.730 -1.3274  1.4386  0.1797
  499MOL0     H65831   9.540   9.834  -0.767 -0.9809  0.7709  4.4485
  499MOL0     H65832  10.009   9.930  -1.034  0.4733 -1.8686  0.8477
  499MOL0     H65833  10.251   9.952  -0.958 -1.5944 -1.2151  1.0397
  499MOL0     H65834  10.498  10.323  -0.892 -0.7334  4.4235  0.3855
  499MOL0     H65835  10.332  10.370  -0.938 -0.0569 -0.5858  2.9091
  499MOL0     H65836  10.363  10.185  -1.127 -1.2893  0.9193  1.8741
  499MOL0     H65837  10.536  10.180  -1.078  1.9291  2.2810  2.8829
  499MOL0     H65838  10.599  10.364  -1.163  0.0217 -4.3306  0.4831
  499MOL0     H65839  10.453  10.461  -1.144  1.5154 -0.5863  2.1925
  499MOL0     H65840  10.330  10.354  -1.309  0.2792 -1.2604  0.5665
  499MOL0     H65841  10.476  10.438  -1.366 -2.6126  0.8815 -1.1197
  499MOL0     H65842  10.399  10.157  -1.377 -0.3021  1.2045 -0.5795
  499MOL0     H65843  10.572  10.188  -1.327  3.8559  4.3713 -0.8691
  499MOL0     H65844  10.607  10.310  -1.551 -0.1362  1.0629  0.3316
  499MOL0     H65845  10.438  10.273  -1.596 -0.6897 -1.1356 -0.5853
  499MOL0     H65846  10.658  10.060  -1.536  0.1080 -0.7229 -0.2408
  499MOL0     H65847  10.484  10.018  -1.538 -2.0552  0.9799 -0.1478
  499MOL0     H65848  10.615  10.162  -1.776 -0.2418 -0.1875 -2.5910
  499MOL0     H65849  10.465  10.065  -1.775  0.7914  0.7106 -2.0001
  499MOL0     H65850  10.177  10.341  -0.793  3.5226 -0.5091 -0.7445
  499MOL0     H65851   9.930  10.284  -0.812 -0.5273 -1.1641 -0.1525
  499MOL0     H65852   9.625  10.255  -0.845  1.6442 -1.2205  0.6581
  499MOL0     H65853   9.381  10.298  -0.827  0.7356  0.3170 -1.7665
  499MOL0     H65854   9.883   9.781   0.477  0.1609  0.7927 -0.6601
  499MOL0     H65855  10.116   9.694   0.498 -3.1156 -1.0377  0.0997
  499MOL0     H65856  10.522   9.662   0.984 -0.5365  3.6930 -0.2236
  499MOL0     H65857  10.761   9.627   0.978  1.2687  0.8554  0.9974
  499MOL0     H65858  10.966   9.558   0.946 -1.1018 -2.3059 -1.7645
  499MOL0     H65859  11.026   9.713   0.851  1.5644 -0.3869 -4.2662
  499MOL0     H65860  11.131   9.428   0.818  4.1308  0.2332 -1.1935
  499MOL0     H65861  11.139   9.567   0.716 -0.4955 -0.0431  0.3183
  499MOL0     H65862  11.333   9.521   0.884  0.7966  1.4760  2.4155
  499MOL0     H65863  11.215   9.583   1.011 -1.5645 -3.6472  0.1672
  499MOL0     H65864  11.341   9.732   0.772 -1.9007  2.3219 -0.2058
  499MOL0     H65865  11.214   9.800   0.891  2.0722  1.9449  1.8866
  499MOL0     H65866  11.601   9.825   1.056  0.2445 -0.0990 -1.3960
  499MOL0     H65867  10.774   9.664   0.548  0.7354 -0.2994 -0.6776
  499MOL0     H65868  10.548   9.768   0.563  1.5275  2.9139  0.7841
  500MOL0     O65869  10.955   8.492   6.267 -0.6250 -1.0656  0.1631
  500MOL0     C65870  10.950   8.373   6.223 -0.9267  0.1743 -0.8992
  500MOL0     O65871  11.031   8.269   6.260 -0.4614  1.1052 -0.3119
  500MOL0     C65872  11.128   8.296   6.355 -0.2455  0.8667 -0.5959
  500MOL0     C65873  11.259   8.258   6.333  0.5841  0.2869  0.2653
  500MOL0     C65874  11.354   8.277   6.439 -0.1952 -0.6214  0.1806
  500MOL0     C65875  11.298   8.315   6.568 -0.4847 -0.7129 -0.7934
  500MOL0     O65876  11.393   8.308   6.666  0.5029 -0.2626 -0.0702
  500MOL0     C65877  11.460   8.422   6.705  0.9581  0.1859  0.3367
  500MOL0     C65878  11.483   8.409   6.860  0.0681 -0.1372 -0.0916
  500MOL0     C65879  11.354   8.403   6.939  0.3409  0.3375 -1.0369
  500MOL0     C65880  11.396   8.434   7.080  0.5470 -0.2374  1.1890
  500MOL0     C65881  11.269   8.445   7.160 -0.4387  0.0760  0.5924
  500MOL0     C65882  11.304   8.454   7.314  0.1824 -1.1201  0.4138
  500MOL0     C65883  11.197   8.528   7.399  0.4461 -0.8384  1.3868
  500MOL0     C65884  11.255   8.567   7.537 -0.6680 -0.1465  0.4071
  500MOL0     N65885  11.146   8.621   7.619  0.8178  0.1615 -1.0562
  500MOL0     C65886  11.032   8.552   7.656  0.0102 -0.6594  0.4861
  500MOL0     C65887  10.965   8.628   7.747 -1.0623 -0.7028  0.9962
  500MOL0     C65888  10.840   8.589   7.814  0.0479  0.5948 -0.2464
  500MOL0     C65889  10.884   8.563   7.957  0.1617 -0.3755  0.1997
  500MOL0     C65890  10.762   8.486   8.020 -0.4042 -0.5539  0.2419
  500MOL0     C65891  10.765   8.470   8.171  0.1716  0.3737  0.8842
  500MOL0     O65892  10.744   8.593   8.243 -0.0530  0.3747 -0.1212
  500MOL0     C65893  10.733   8.601   8.384  0.0007 -0.0099  0.5632
  500MOL0     C65894  10.807   8.515   8.475 -0.2160 -0.4059  1.0430
  500MOL0     C65895  10.795   8.532   8.607 -0.4789 -0.0654  0.1483
  500MOL0     C65896  10.702   8.629   8.664 -0.4081 -0.5669  0.1822
  500MOL0     C65897  10.672   8.628   8.807 -0.2243 -0.2635  0.3219
  500MOL0     O65898  10.567   8.708   8.851 -0.7535 -0.4613  0.2144
  500MOL0     C65899  10.577   8.727   8.985 -0.3338  0.1549  0.3979
  500MOL0     C65900  10.636   8.847   9.031  0.4607  0.9199  0.1362
  500MOL0     C65901  10.650   8.878   9.168 -0.1754  1.0271 -0.0859
  500MOL0     C65902  10.607   8.781   9.269 -0.9358 -0.1410 -0.5834
  500MOL0     O65903  10.632   8.817   9.402  0.5435  0.5206 -0.5796
  500MOL0     C65904  10.673   8.720   9.505 -0.1101 -0.8272 -0.3317
  500MOL0     C65905  10.675   8.789   9.645  0.6172  0.3257  0.1845
  500MOL0     C65906  10.789   8.894   9.670  0.5828 -0.9233 -1.4342
  500MOL0     C65907  10.788   8.938   9.820 -0.3302  0.3222  0.5211
  500MOL0     C65908  10.917   9.009   9.854 -0.1500 -0.7224 -0.1736
  500MOL0     C65909  11.031   8.912   9.882  0.1937  0.6509 -0.4928
  500MOL0     C65910  11.153   8.998   9.887  0.0557 -0.4877  0.7207
  500MOL0     C65911  11.281   8.936   9.943  0.2339  0.4082  0.1611
  500MOL0    Cl65912  11.420   9.027   9.868 -0.0742 -0.1173  0.3442
  500MOL0     C65913  10.550   8.665   9.223  0.3872 -0.0618 -0.1675
  500MOL0     C65914  10.537   8.636   9.080 -0.3689  0.3792 -0.3336
  500MOL0     O65915  10.739   8.552   8.883  0.5851  0.5863  0.6186
  500MOL0     C65916  10.629   8.713   8.577 -0.2586 -0.8315  0.0979
  500MOL0     C65917  10.650   8.700   8.441 -0.1614 -0.4505 -0.7961
  500MOL0     N65918  11.036   8.744   7.759 -0.4225 -0.1600 -0.0945
  500MOL0     N65919  11.140   8.739   7.688  0.3723 -0.1261 -0.0089
  500MOL0     C65920  11.169   8.345   6.590  0.8560 -0.5731  0.7678
  500MOL0     C65921  11.086   8.338   6.481  0.4682  0.6845  0.3015
  500MOL0     C65922  10.845   8.347   6.119 -0.6918 -0.7383  0.2096
  500MOL0     C65923  10.739   8.435   6.104  0.6053 -0.6277  0.3768
  500MOL0     C65924  10.636   8.417   6.013  0.1847 -0.6298 -0.6263
  500MOL0     C65925  10.621   8.296   5.964 -0.2140  0.1266  0.6155
  500MOL0     O65926  10.510   8.282   5.883  0.1917  0.6050 -0.3168
  500MOL0     C65927  10.448   8.160   5.865  1.0991  0.5630 -0.3677
  500MOL0     C65928  10.301   8.168   5.835  0.7276 -1.3107 -0.5763
  500MOL0     C65929  10.250   8.262   5.717 -0.0848 -0.1430 -0.0275
  500MOL0     C65930  10.093   8.275   5.728  0.2504 -0.1972  0.9758
  500MOL0     C65931  10.057   8.375   5.833  0.3940  0.2178 -0.1166
  500MOL0     C65932   9.998   8.444   5.914  0.7328 -0.3512  0.9384
  500MOL0     C65933  10.721   8.196   5.980  0.7140 -1.3313 -0.6261
  500MOL0     C65934  10.831   8.224   6.053  0.2128  0.3299  0.3335
  500MOL0     H65935  11.296   8.199   6.250 -1.3426  1.4867 -1.5463
  500MOL0     H65936  11.460   8.280   6.416 -0.3341  2.3324 -0.5140
  500MOL0     H65937  11.404   8.509   6.669 -1.2286 -2.0993 -2.2614
  500MOL0     H65938  11.561   8.439   6.667  3.2056  1.3557  5.9413
  500MOL0     H65939  11.542   8.498   6.881  0.3867 -0.7191  1.6193
  500MOL0     H65940  11.535   8.315   6.879  3.2333  1.4655 -0.1800
  500MOL0     H65941  11.308   8.304   6.940  3.6185 -1.3788  2.4077
  500MOL0     H65942  11.284   8.482   6.910 -2.9686 -0.9556  2.6439
  500MOL0     H65943  11.438   8.343   7.122  0.6031  0.0895  1.8498
  500MOL0     H65944  11.451   8.529   7.073  0.1950  0.0163  1.8842
  500MOL0     H65945  11.211   8.352   7.165  0.2414 -0.2926  4.6738
  500MOL0     H65946  11.201   8.520   7.118  4.5712  3.2750 -2.9405
  500MOL0     H65947  11.397   8.508   7.335 -1.8455  3.2008 -0.6902
  500MOL0     H65948  11.321   8.354   7.356  1.9036 -0.8123  0.5329
  500MOL0     H65949  11.181   8.624   7.350  1.6150 -0.3628  1.8945
  500MOL0     H65950  11.109   8.466   7.417 -0.4201 -0.5682 -1.4434
  500MOL0     H65951  11.337   8.637   7.524 -0.4381 -0.6666 -1.1254
  500MOL0     H65952  11.301   8.484   7.592 -0.4095  0.9875  1.9705
  500MOL0     H65953  11.011   8.455   7.613 -2.9971  1.6931 -4.1189
  500MOL0     H65954  10.808   8.493   7.772  1.3682  0.2734 -0.5828
  500MOL0     H65955  10.763   8.666   7.803  0.8725  1.6688  1.1472
  500MOL0     H65956  10.904   8.655   8.011  2.6579 -1.5337  1.4057
  500MOL0     H65957  10.975   8.503   7.959  0.4391  0.0601  0.8498
  500MOL0     H65958  10.665   8.528   7.993 -0.2605  0.2996  1.0122
  500MOL0     H65959  10.769   8.384   7.982  0.1552 -2.1284  4.1762
  500MOL0     H65960  10.854   8.408   8.189 -1.1446 -1.1044  2.6751
  500MOL0     H65961  10.680   8.410   8.205 -0.7544 -0.1164 -1.9987
  500MOL0     H65962  10.867   8.440   8.425 -2.0537 -0.7421 -0.7929
  500MOL0     H65963  10.855   8.458   8.661  0.6799  0.6126 -0.1681
  500MOL0     H65964  10.669   8.920   8.958 -1.6544  4.6625  2.5812
  500MOL0     H65965  10.699   8.971   9.195  6.1536 -1.2683 -1.8976
  500MOL0     H65966  10.771   8.681   9.480  0.2387  1.1564 -2.4164
  500MOL0     H65967  10.604   8.636   9.521  1.5586 -1.6422  4.3139
  500MOL0     H65968  10.685   8.717   9.727  1.9757 -0.4026 -0.5868
  500MOL0     H65969  10.582   8.845   9.660 -0.0206 -0.4470 -0.8072
  500MOL0     H65970  10.780   8.983   9.607 -0.7961 -0.4750 -0.6532
  500MOL0     H65971  10.887   8.848   9.659  1.8026  0.7428  1.2083
  500MOL0     H65972  10.704   9.003   9.843 -0.5584 -0.1276  0.9888
  500MOL0     H65973  10.783   8.844   9.875 -2.7073  0.7544  1.1067
  500MOL0     H65974  10.909   9.079   9.937  0.4720  1.9484 -2.2219
  500MOL0     H65975  10.943   9.074   9.770 -1.8136  3.1723  2.0671
  500MOL0     H65976  11.045   8.829   9.813  0.1556 -1.4940  1.9146
  500MOL0     H65977  11.014   8.862   9.978 -0.7309 -4.1323 -2.8332
  500MOL0     H65978  11.174   9.022   9.783  1.1049 -4.1504 -0.0654
  500MOL0     H65979  11.130   9.090   9.943 -1.9851 -0.6636  0.2480
  500MOL0     H65980  11.290   8.836   9.900 -0.5115  0.7347 -0.7780
  500MOL0     H65981  11.292   8.937  10.052  0.7878 -0.6130  0.1200
  500MOL0     H65982  10.518   8.583   9.286  2.6516 -1.0052 -0.1574
  500MOL0     H65983  10.509   8.536   9.049  0.5627 -0.2371  0.7404
  500MOL0     H65984  10.575   8.800   8.615 -1.1444 -1.5291  0.4722
  500MOL0     H65985  10.602   8.779   8.385 -1.5841  0.9183  2.1160
  500MOL0     H65986  11.148   8.381   6.691  5.0449  3.8950  0.4531
  500MOL0     H65987  10.981   8.365   6.492  0.0916 -0.4031 -0.4466
  500MOL0     H65988  10.731   8.531   6.154  0.7164 -1.4314  2.0134
  500MOL0     H65989  10.563   8.495   5.996  0.6592  0.3152  1.3651
  500MOL0     H65990  10.463   8.100   5.955  2.0338 -2.0986 -2.1773
  500MOL0     H65991  10.493   8.125   5.772 -0.7491  0.0719 -1.1259
  500MOL0     H65992  10.266   8.067   5.813  3.4919 -2.1591 -1.5339
  500MOL0     H65993  10.261   8.205   5.930  0.0674 -0.0358 -1.3286
  500MOL0     H65994  10.259   8.200   5.627 -3.9173 -1.8878  0.5925
  500MOL0     H65995  10.297   8.360   5.716 -3.0276  1.4896  2.7627
  500MOL0     H65996  10.051   8.306   5.632 -4.5688 -1.1378  2.4984
  500MOL0     H65997  10.046   8.179   5.749  2.1979 -1.9977 -2.1556
  500MOL0     H65998   9.949   8.512   5.980 -2.0632  1.0790 -2.2738
  500MOL0     H65999  10.710   8.107   5.920 -3.6632 -1.8225  0.5296
  500MOL0     H66000  10.896   8.138   6.056 -4.6746 -3.8851 -0.7973
  501MOL0     O66001   8.618   3.914   9.506  0.4743 -1.0958  0.2764
  501MOL0     C66002   8.506   3.881   9.549  0.3468  0.6614  0.3802
  501MOL0     O66003   8.487   3.779   9.631 -0.3898 -0.3821  0.3016
  501MOL0     C66004   8.592   3.724   9.704  0.3298 -0.0492 -0.1319
  501MOL0     C66005   8.642   3.601   9.662  0.1142  0.0259  0.2041
  501MOL0     C66006   8.730   3.527   9.741 -0.8850  0.2663  0.0451
  501MOL0     C66007   8.782   3.593   9.862  0.0357  0.5448 -0.0686
  501MOL0     O66008   8.892   3.538   9.923  0.2755 -0.0753 -0.1191
  501MOL0     C66009   8.873   3.519  10.067  1.1795 -0.2425  1.0311
  501MOL0     C66010   9.008   3.492  10.130 -0.6663 -1.1299  0.1800
  501MOL0     C66011   9.027   3.489  10.285 -0.1187 -0.0709  0.0972
  501MOL0     C66012   9.167   3.491  10.331  0.1632  1.2136  0.8226
  501MOL0     C66013   9.189   3.468  10.476 -0.4251  0.0529  0.5104
  501MOL0     C66014   9.339   3.447  10.502  0.2576  0.5038 -0.4768
  501MOL0     C66015   9.377   3.382  10.641 -0.0009  0.4119 -0.5281
  501MOL0     C66016   9.523   3.339  10.659  0.0396  0.7651 -0.8622
  501MOL0     N66017   9.554   3.270  10.787  0.1355  0.4537 -0.6647
  501MOL0     C66018   9.544   3.326  10.907  0.5631 -0.0418  0.4387
  501MOL0     C66019   9.579   3.231  10.993 -1.2316  0.0684 -0.7883
  501MOL0     C66020   9.587   3.258  11.141  0.2111 -0.3635 -0.2631
  501MOL0     C66021   9.724   3.224  11.211  0.0716 -0.2565  0.8729
  501MOL0     C66022   9.766   3.074  11.231 -0.9885 -0.7235  0.4003
  501MOL0     C66023   9.864   3.063  11.352  0.4168  0.1860 -0.3481
  501MOL0     O66024   9.962   3.168  11.338  0.0376 -0.6429  0.2878
  501MOL0     C66025  10.072   3.172  11.409 -0.4072  0.1503 -0.3948
  501MOL0     C66026  10.068   3.190  11.538 -0.3960 -0.2360 -0.0261
  501MOL0     C66027  10.179   3.191  11.623  0.3602 -0.8601  0.7390
  501MOL0     C66028  10.307   3.144  11.579 -1.5197 -0.2695  0.4281
  501MOL0     C66029  10.436   3.139  11.662 -0.0540  0.0046  0.2295
  501MOL0     O66030  10.535   3.055  11.616 -0.2956 -1.2117  0.1680
  501MOL0     C66031  10.629   3.027  11.709 -1.3691 -0.1221 -0.0390
  501MOL0     C66032  10.613   2.992  11.851 -0.4672 -0.3887 -0.2418
  501MOL0     C66033  10.734   2.958  11.922 -0.3870 -0.1215  0.5529
  501MOL0     C66034  10.857   2.937  11.861 -0.7643 -1.0733  0.5393
  501MOL0     O66035  10.957   2.898  11.955  0.1100  0.4317 -0.0416
  501MOL0     C66036  11.088   2.937  11.917  0.4965  0.7278  0.2264
  501MOL0     C66037  11.092   3.083  11.899  0.4644 -0.4076 -0.1472
  501MOL0     C66038  11.234   3.123  11.855 -0.9472 -0.6337 -0.5988
  501MOL0     C66039  11.250   3.272  11.893  0.9173 -0.1175 -0.1023
  501MOL0     C66040  11.395   3.308  11.864  0.2153 -0.9992 -0.5461
  501MOL0     C66041  11.439   3.445  11.920  0.4810 -0.4254 -0.9070
  501MOL0     C66042  11.431   3.552  11.812 -0.2125 -0.1984 -0.0887
  501MOL0     C66043  11.425   3.686  11.883 -0.3177 -0.3366  0.0998
  501MOL0    Cl66044  11.443   3.795  11.753  0.3188 -0.4286  0.0448
  501MOL0     C66045  10.869   2.963  11.729  1.0015 -0.0351  1.0511
  501MOL0     C66046  10.762   3.015  11.656 -0.2347 -0.5007 -0.0677
  501MOL0     O66047  10.441   3.206  11.764 -0.1812  0.5081  0.1856
  501MOL0     C66048  10.311   3.106  11.440  0.3288  0.3697 -0.2183
  501MOL0     C66049  10.193   3.111  11.362  0.2556 -0.1061  0.2846
  501MOL0     N66050   9.617   3.117  10.929  0.6944  0.2036 -0.6950
  501MOL0     N66051   9.604   3.145  10.804  0.0161  0.5629  1.2349
  501MOL0     C66052   8.729   3.715   9.906 -0.8248 -0.0765 -0.6765
  501MOL0     C66053   8.632   3.779   9.834 -1.1906 -0.5424  1.0764
  501MOL0     C66054   8.395   3.967   9.515 -0.7643  0.2776 -0.0627
  501MOL0     C66055   8.401   4.104   9.546 -0.2853  0.3783 -0.0879
  501MOL0     C66056   8.300   4.186   9.498 -0.2269 -0.2882 -0.7963
  501MOL0     C66057   8.187   4.146   9.426 -0.5275  0.1099  0.2333
  501MOL0     O66058   8.097   4.235   9.376 -0.2091  0.6888  1.0188
  501MOL0     C66059   8.026   4.299   9.479 -0.5296  1.1849  0.9525
  501MOL0     C66060   7.876   4.320   9.446 -0.7438  1.0391  0.8912
  501MOL0     C66061   7.877   4.417   9.325 -0.4700  0.8213 -0.9109
  501MOL0     C66062   7.739   4.436   9.261 -0.2087 -0.0340 -0.2145
  501MOL0     C66063   7.639   4.506   9.342  0.6674  0.1583  0.4925
  501MOL0     C66064   7.557   4.565   9.418 -0.6114 -0.0422  0.0895
  501MOL0     C66065   8.176   4.005   9.404 -0.2091 -0.1774  0.2755
  501MOL0     C66066   8.286   3.916   9.442  0.3521 -0.0610  0.2316
  501MOL0     H66067   8.614   3.567   9.562  0.8564 -0.9849  0.3280
  501MOL0     H66068   8.770   3.428   9.722  0.9577  0.8204  0.8399
  501MOL0     H66069   8.804   3.442  10.103  1.3638 -0.9003  0.0164
  501MOL0     H66070   8.843   3.613  10.115  2.4525 -0.3745  2.1306
  501MOL0     H66071   9.071   3.575  10.097  0.2932 -2.2642 -0.9485
  501MOL0     H66072   9.050   3.396  10.096 -1.5237 -1.3706 -0.2148
  501MOL0     H66073   8.975   3.412  10.342 -0.4658  1.6321  2.1938
  501MOL0     H66074   8.985   3.575  10.337  0.8265 -0.2038  1.1114
  501MOL0     H66075   9.216   3.412  10.273 -0.7765 -0.0149  1.6578
  501MOL0     H66076   9.208   3.587  10.300  1.3505 -0.0899 -2.0630
  501MOL0     H66077   9.132   3.378  10.500 -2.4597  1.2780  0.5458
  501MOL0     H66078   9.149   3.555  10.530  1.9015  0.5674  1.5296
  501MOL0     H66079   9.397   3.539  10.493 -0.4619  0.8000 -2.6154
  501MOL0     H66080   9.373   3.378  10.424 -1.0362  0.4635 -1.0231
  501MOL0     H66081   9.347   3.460  10.711 -0.8756  0.5185 -1.0099
  501MOL0     H66082   9.308   3.302  10.668 -0.8020  0.9457 -0.9606
  501MOL0     H66083   9.591   3.424  10.649 -0.8639  1.6652  0.3977
  501MOL0     H66084   9.545   3.272  10.575  1.4667 -0.1647  0.2221
  501MOL0     H66085   9.531   3.432  10.927 -0.5779 -0.1145  0.1652
  501MOL0     H66086   9.519   3.188  11.189 -0.4858 -0.7152 -1.7254
  501MOL0     H66087   9.549   3.356  11.172 -0.0636 -0.8878  1.1464
  501MOL0     H66088   9.718   3.273  11.308 -1.9659 -0.3213  0.8160
  501MOL0     H66089   9.799   3.278  11.152 -0.0753  0.5213  1.3808
  501MOL0     H66090   9.676   3.024  11.267 -0.6930 -0.3653  1.7010
  501MOL0     H66091   9.814   3.037  11.139 -2.8126 -0.2120 -0.8042
  501MOL0     H66092   9.905   2.962  11.346 -0.6177 -0.1627 -3.4450
  501MOL0     H66093   9.803   3.078  11.441  1.2028  2.2496 -0.1060
  501MOL0     H66094   9.972   3.214  11.582 -0.0978  0.6441  0.1693
  501MOL0     H66095  10.162   3.229  11.723  0.4752  0.3206  0.3220
  501MOL0     H66096  10.513   2.994  11.891  0.2856  0.3029  1.7709
  501MOL0     H66097  10.748   2.943  12.028  3.4008 -0.0806  0.2145
  501MOL0     H66098  11.127   2.879  11.833  0.2992 -2.1658  2.0269
  501MOL0     H66099  11.151   2.908  12.001  1.5169  0.7083 -0.5307
  501MOL0     H66100  11.062   3.128  11.994 -0.1582  1.5304 -1.2132
  501MOL0     H66101  11.027   3.122  11.820 -0.8490  4.0446  2.7568
  501MOL0     H66102  11.244   3.093  11.750 -1.7616 -0.8525 -0.6249
  501MOL0     H66103  11.303   3.069  11.921 -2.2574 -0.9133  0.5900
  501MOL0     H66104  11.197   3.336  11.822  2.6894  0.5369 -0.8955
  501MOL0     H66105  11.217   3.290  11.995  2.6294  0.0554  0.4480
  501MOL0     H66106  11.396   3.299  11.755 -0.4834  1.8123 -0.8669
  501MOL0     H66107  11.449   3.230  11.918  1.3836  2.0482  3.1865
  501MOL0     H66108  11.535   3.428  11.970  0.6111 -3.5385 -2.0377
  501MOL0     H66109  11.370   3.478  11.998  0.1066  1.7714 -2.0614
  501MOL0     H66110  11.508   3.553  11.734  0.4006 -0.3516  0.5003
  501MOL0     H66111  11.333   3.534  11.768 -2.3405  3.6964  2.5301
  501MOL0     H66112  11.511   3.691  11.951 -0.4709  0.8837  0.2205
  501MOL0     H66113  11.332   3.705  11.938  0.7182 -0.4822  1.9698
  501MOL0     H66114  10.964   2.954  11.677 -0.0676  3.0549 -1.8190
  501MOL0     H66115  10.759   3.030  11.548 -1.2018  3.5566  0.3482
  501MOL0     H66116  10.408   3.073  11.405 -0.0124 -1.5460  0.5209
  501MOL0     H66117  10.203   3.091  11.255 -0.9771  3.3241 -0.5970
  501MOL0     H66118   8.746   3.752  10.006 -2.0807 -1.4602  0.0845
  501MOL0     H66119   8.592   3.873   9.872 -1.4314 -0.4835  0.6774
  501MOL0     H66120   8.481   4.137   9.612  0.9512  1.4501 -2.0284
  501MOL0     H66121   8.315   4.291   9.520  0.5984 -1.1130  3.3943
  501MOL0     H66122   8.075   4.396   9.495 -0.0058  0.7516  2.0938
  501MOL0     H66123   8.020   4.244   9.573 -0.2262 -0.7877 -0.1380
  501MOL0     H66124   7.828   4.231   9.403  0.4065  0.3391  1.0338
  501MOL0     H66125   7.821   4.355   9.534 -1.7545 -1.7323  1.4740
  501MOL0     H66126   7.948   4.377   9.253 -1.0371 -4.5473  1.0908
  501MOL0     H66127   7.910   4.512   9.369 -1.9698  1.0758 -0.2663
  501MOL0     H66128   7.772   4.489   9.171  0.6907  0.9193  0.6564
  501MOL0     H66129   7.701   4.339   9.226 -1.9923  0.5379  0.0194
  501MOL0     H66130   7.493   4.609   9.492  1.4778  1.0319  1.3539
  501MOL0     H66131   8.096   3.951   9.355  1.5530 -0.2457 -2.7671
  501MOL0     H66132   8.281   3.808   9.432  1.5606  0.1056 -4.7026
  502MOL0     O66133   1.782   9.172   5.462  0.1899  0.0683  0.1099
  502MOL0     C66134   1.698   9.170   5.371 -0.2921  0.0640 -0.6495
  502MOL0     O66135   1.593   9.082   5.367  0.0316  0.0543  0.2553
  502MOL0     C66136   1.527   9.038   5.483  0.3364 -0.9765 -0.5153
  502MOL0     C66137   1.448   8.924   5.470 -0.3598 -0.6845  0.0374
  502MOL0     C66138   1.394   8.858   5.588  0.9906  0.1041 -0.4815
  502MOL0     C66139   1.400   8.924   5.718 -0.4615 -0.0305 -0.4558
  502MOL0     O66140   1.353   8.856   5.831  0.1712 -0.2482  0.4825
  502MOL0     C66141   1.405   8.893   5.961 -0.8936 -1.1362  0.3985
  502MOL0     C66142   1.423   8.776   6.049 -0.2340 -0.8824  0.5413
  502MOL0     C66143   1.567   8.730   6.043  0.7538 -0.5974 -0.2702
  502MOL0     C66144   1.585   8.640   5.937  0.5103  0.3065  0.8272
  502MOL0     C66145   1.731   8.629   5.893  0.7068  0.3716  0.3315
  502MOL0     C66146   1.752   8.548   5.768  0.2890  0.3804  0.0005
  502MOL0     C66147   1.666   8.588   5.650  0.1835 -1.3186  0.8558
  502MOL0     C66148   1.731   8.569   5.507 -0.1252  0.2122  0.4591
  502MOL0     N66149   1.858   8.641   5.490 -0.3917 -0.2027 -0.1240
  502MOL0     C66150   1.875   8.777   5.483  0.1138  0.8886  0.0061
  502MOL0     C66151   2.008   8.789   5.505 -1.0914  0.5763  0.9890
  502MOL0     C66152   2.082   8.928   5.516  1.1580 -0.8050  1.0886
  502MOL0     C66153   2.106   8.970   5.659  0.0472  1.1142 -0.3076
  502MOL0     C66154   2.195   8.887   5.765 -0.2176 -0.4556  0.1666
  502MOL0     C66155   2.160   8.908   5.910  0.4003 -0.4932 -0.0396
  502MOL0     O66156   2.238   9.014   5.964  0.2853 -0.2891  0.5813
  502MOL0     C66157   2.204   9.075   6.085 -0.0941  0.8366  0.7058
  502MOL0     C66158   2.090   9.039   6.153  0.2629 -0.5432  0.1811
  502MOL0     C66159   2.051   9.105   6.270  0.2260 -0.1453 -0.1851
  502MOL0     C66160   2.134   9.209   6.327  0.3267  0.7771  1.2109
  502MOL0     C66161   2.081   9.289   6.439  0.4887  1.0460  0.6070
  502MOL0     O66162   1.955   9.246   6.481  0.1335 -0.1760 -0.0254
  502MOL0     C66163   1.883   9.323   6.571 -1.1399 -0.6641  1.5333
  502MOL0     C66164   1.794   9.425   6.540  0.6021 -0.1692 -0.0549
  502MOL0     C66165   1.733   9.510   6.647 -0.2538 -0.2836 -0.7137
  502MOL0     C66166   1.751   9.477   6.782 -0.2589 -0.2269 -0.2615
  502MOL0     O66167   1.669   9.551   6.866  0.1085  0.9715 -0.5058
  502MOL0     C66168   1.639   9.501   7.001 -0.7492  0.1081  0.5790
  502MOL0     C66169   1.537   9.384   6.997 -0.7015  0.2843 -0.0185
  502MOL0     C66170   1.515   9.313   7.122  0.1011  0.2629 -0.6527
  502MOL0     C66171   1.418   9.387   7.212 -0.5962  0.2471 -0.0918
  502MOL0     C66172   1.372   9.339   7.350  0.2947 -0.2500  0.8901
  502MOL0     C66173   1.300   9.202   7.344 -0.3029 -0.5599 -0.4654
  502MOL0     C66174   1.156   9.197   7.283  0.8241  0.1218  0.4958
  502MOL0     C66175   1.044   9.276   7.357  0.0949 -0.1434 -0.6597
  502MOL0    Cl66176   0.882   9.250   7.305 -0.3042  0.0292 -0.1225
  502MOL0     C66177   1.842   9.370   6.812  0.2714 -0.4727 -0.4942
  502MOL0     C66178   1.894   9.293   6.709 -1.0750  0.1847 -0.7028
  502MOL0     O66179   2.139   9.390   6.480  0.6034 -0.2174  0.1348
  502MOL0     C66180   2.261   9.236   6.272 -0.0737  0.4955  0.8140
  502MOL0     C66181   2.293   9.161   6.156 -0.2895 -0.2618 -0.2444
  502MOL0     N66182   2.064   8.668   5.518 -0.5004  0.2066  0.1791
  502MOL0     N66183   1.975   8.581   5.509 -0.1684  0.5017  0.1827
  502MOL0     C66184   1.459   9.056   5.716  0.6776 -0.5591 -0.2508
  502MOL0     C66185   1.524   9.101   5.606 -0.0663 -0.3573 -0.1485
  502MOL0     C66186   1.726   9.251   5.258 -0.2100  0.6947  0.8582
  502MOL0     C66187   1.825   9.348   5.263  0.0441 -0.6015  0.4151
  502MOL0     C66188   1.856   9.429   5.149 -0.0109  0.2248  0.4195
  502MOL0     C66189   1.793   9.404   5.027 -0.1027 -0.2182  0.1436
  502MOL0     O66190   1.814   9.487   4.915  0.4040 -0.4604  0.2003
  502MOL0     C66191   1.906   9.595   4.923  0.2480  0.0638  0.3457
  502MOL0     C66192   1.940   9.653   4.787  0.7969 -0.4155  0.4839
  502MOL0     C66193   1.855   9.775   4.742  0.6187 -0.7282 -0.8506
  502MOL0     C66194   1.913   9.827   4.608  0.5470 -0.2352  0.9368
  502MOL0     C66195   1.856   9.956   4.593  0.7689 -0.6795  0.3695
  502MOL0     C66196   1.810  10.068   4.600  0.0814  0.3554  0.1440
  502MOL0     C66197   1.698   9.302   5.017 -0.7787 -0.8046 -0.4371
  502MOL0     C66198   1.665   9.228   5.130  0.6515  0.1932  0.2980
  502MOL0     H66199   1.442   8.882   5.370  2.0664  2.1337 -1.4589
  502MOL0     H66200   1.340   8.765   5.602  1.4196 -0.2222 -0.9282
  502MOL0     H66201   1.336   8.963   6.010  0.7399  0.8272  0.0672
  502MOL0     H66202   1.498   8.946   5.940 -1.3072 -1.1869 -1.8025
  502MOL0     H66203   1.353   8.693   6.035 -0.8736 -0.4667  1.2353
  502MOL0     H66204   1.414   8.815   6.151  1.1616 -0.7834  0.6368
  502MOL0     H66205   1.596   8.662   6.123  0.7407 -0.6629 -0.3206
  502MOL0     H66206   1.643   8.809   6.037  0.9291 -0.7002  0.4428
  502MOL0     H66207   1.556   8.538   5.963  1.1451 -0.4076 -1.0743
  502MOL0     H66208   1.538   8.670   5.843  0.2392 -0.9841  0.5269
  502MOL0     H66209   1.785   8.579   5.974 -1.7811  0.8273  2.3900
  502MOL0     H66210   1.784   8.724   5.884  1.7292 -0.3131 -1.3170
  502MOL0     H66211   1.737   8.444   5.800 -1.7332 -0.2176 -2.5474
  502MOL0     H66212   1.858   8.563   5.748  0.1327  1.3293 -0.1436
  502MOL0     H66213   1.571   8.537   5.663  0.1348 -0.7169  3.4753
  502MOL0     H66214   1.640   8.695   5.656 -0.6363 -1.6031  5.2759
  502MOL0     H66215   1.651   8.593   5.436 -0.4139 -2.1804 -0.1235
  502MOL0     H66216   1.748   8.461   5.499 -1.5482 -0.0911  1.1640
  502MOL0     H66217   1.807   8.852   5.444  1.3219  0.6872 -2.7520
  502MOL0     H66218   2.019   9.002   5.464 -1.0221 -2.9521  0.4887
  502MOL0     H66219   2.176   8.918   5.461  0.2475  0.6808 -0.9001
  502MOL0     H66220   2.006   8.967   5.702  1.3493  0.9859  3.0424
  502MOL0     H66221   2.144   9.072   5.655  1.2170  0.6754 -3.9042
  502MOL0     H66222   2.176   8.781   5.748 -1.0425 -0.4006  0.6859
  502MOL0     H66223   2.299   8.916   5.746 -0.2403  1.6514  2.7116
  502MOL0     H66224   2.177   8.819   5.972  0.2950  0.4049  1.3028
  502MOL0     H66225   2.053   8.923   5.924  0.4934 -0.3114  0.5075
  502MOL0     H66226   2.023   8.960   6.124 -1.3081 -0.0751  2.2730
  502MOL0     H66227   1.953   9.075   6.306 -0.4201 -1.4966 -2.8064
  502MOL0     H66228   1.764   9.460   6.442  2.2655  1.4391 -0.0395
  502MOL0     H66229   1.671   9.590   6.610 -1.4992 -1.2879 -0.8695
  502MOL0     H66230   1.604   9.590   7.054 -2.0061  0.4388 -0.7317
  502MOL0     H66231   1.734   9.478   7.050 -0.0894 -3.0168 -1.8520
  502MOL0     H66232   1.577   9.310   6.927  1.9117  3.3933 -2.1567
  502MOL0     H66233   1.440   9.417   6.957 -0.7246 -0.7940 -0.8941
  502MOL0     H66234   1.603   9.276   7.176  1.5437 -0.0937 -3.1014
  502MOL0     H66235   1.462   9.222   7.095 -1.7378  0.4832  1.8457
  502MOL0     H66236   1.461   9.488   7.218  0.9732 -0.5021  2.2563
  502MOL0     H66237   1.328   9.407   7.153  1.1312  2.3125 -2.2593
  502MOL0     H66238   1.308   9.413   7.397  0.8160 -0.8069  2.5377
  502MOL0     H66239   1.468   9.335   7.401  1.9105  2.8379 -1.5495
  502MOL0     H66240   1.283   9.171   7.448 -1.3391 -0.9432 -0.7313
  502MOL0     H66241   1.368   9.131   7.296 -0.4599 -1.3894  0.4812
  502MOL0     H66242   1.147   9.229   7.178 -3.3570  0.4792  0.8079
  502MOL0     H66243   1.137   9.089   7.286 -3.0873  0.6900  1.6022
  502MOL0     H66244   1.061   9.381   7.331 -0.9177 -0.3302 -2.2140
  502MOL0     H66245   1.041   9.247   7.463 -1.1977 -1.2213 -0.9658
  502MOL0     H66246   1.871   9.349   6.914 -1.6015 -0.4607  0.0896
  502MOL0     H66247   1.969   9.218   6.734  1.2279  2.7705  0.7787
  502MOL0     H66248   2.311   9.313   6.330 -1.0047 -0.1845  2.5648
  502MOL0     H66249   2.384   9.179   6.100 -0.2085  2.0158  0.5190
  502MOL0     H66250   1.460   9.115   5.807  1.8752  1.0480 -1.2498
  502MOL0     H66251   1.566   9.202   5.608  1.8909 -1.1336  0.1432
  502MOL0     H66252   1.876   9.386   5.351  0.0715 -0.9110  0.5332
  502MOL0     H66253   1.926   9.510   5.160 -0.6640  0.5637  2.6390
  502MOL0     H66254   1.999   9.547   4.955  0.9872  0.3146 -1.3556
  502MOL0     H66255   1.875   9.678   4.987 -0.2006  2.3153 -2.5688
  502MOL0     H66256   2.044   9.687   4.789  1.2436 -1.6820  0.0011
  502MOL0     H66257   1.939   9.577   4.708 -3.2939 -0.3968  0.2946
  502MOL0     H66258   1.863   9.854   4.817  1.4373 -0.9665 -0.6696
  502MOL0     H66259   1.750   9.751   4.723  0.5280  0.7442 -2.3181
  502MOL0     H66260   2.021   9.832   4.594  0.2962  0.8950 -0.9780
  502MOL0     H66261   1.881   9.761   4.527  0.2645  0.5429  0.4059
  502MOL0     H66262   1.761  10.163   4.606 -1.9236 -0.4473 -1.9585
  502MOL0     H66263   1.651   9.301   4.919  0.7542  3.2243 -1.4344
  502MOL0     H66264   1.596   9.145   5.117  1.8391 -0.7644  0.0326
  503MOL0     O66265   8.800   8.540   6.540 -0.2813  0.3201 -0.2858
  503MOL0     C66266   8.851   8.452   6.606 -0.2535 -0.5450 -0.1741
  503MOL0     O66267   8.853   8.455   6.744  0.6221  0.3175 -0.2992
  503MOL0     C66268   8.808   8.561   6.809 -0.3577 -0.1814  0.0799
  503MOL0     C66269   8.887   8.609   6.911  0.2759  1.3110 -0.3387
  503MOL0     C66270   8.838   8.708   6.997 -0.8166  0.2044 -0.0270
  503MOL0     C66271   8.698   8.742   6.992  0.2075 -0.3071 -0.3304
  503MOL0     O66272   8.631   8.822   7.077  0.0285 -0.6953  0.1885
  503MOL0     C66273   8.693   8.839   7.205  0.7034 -0.4104  0.2303
  503MOL0     C66274   8.593   8.776   7.303  0.3217 -0.3130 -0.3638
  503MOL0     C66275   8.616   8.623   7.327 -1.0289  0.7365 -0.5297
  503MOL0     C66276   8.766   8.589   7.364 -0.0679  0.1960 -0.9412
  503MOL0     C66277   8.829   8.680   7.486  0.2727  0.5042 -0.9444
  503MOL0     C66278   8.959   8.620   7.546  0.9488  0.3799  0.0223
  503MOL0     C66279   8.996   8.701   7.675  0.4220  0.0797  0.2968
  503MOL0     C66280   9.119   8.636   7.742  0.4433 -0.0393  0.5786
  503MOL0     N66281   9.159   8.726   7.843 -0.0309 -0.8315  0.7030
  503MOL0     C66282   9.227   8.849   7.818 -0.0275 -0.3655 -0.8241
  503MOL0     C66283   9.284   8.894   7.934  0.4195 -0.4284 -0.5410
  503MOL0     C66284   9.391   8.996   7.955  0.8520 -0.0261  0.4785
  503MOL0     C66285   9.391   9.058   8.097 -0.7872 -0.0355  0.3251
  503MOL0     C66286   9.264   9.147   8.108 -0.7747  0.5531 -0.2452
  503MOL0     C66287   9.250   9.188   8.257  0.0799  0.2706  0.5066
  503MOL0     O66288   9.163   9.298   8.284 -0.1174 -0.3671 -1.0351
  503MOL0     C66289   9.022   9.280   8.291  0.2309  0.4896  0.7451
  503MOL0     C66290   8.956   9.163   8.255  0.0729  0.0001 -0.6867
  503MOL0     C66291   8.814   9.147   8.265 -0.4936 -0.5185  0.2924
  503MOL0     C66292   8.739   9.259   8.303 -0.1027  0.2323 -0.3135
  503MOL0     C66293   8.590   9.271   8.307 -0.3270  0.6311  0.3845
  503MOL0     O66294   8.519   9.178   8.240  0.3868 -0.2465 -0.1177
  503MOL0     C66295   8.385   9.189   8.209 -0.2271 -1.4938 -0.6165
  503MOL0     C66296   8.324   9.073   8.163 -0.1675 -0.4022 -0.1258
  503MOL0     C66297   8.193   9.073   8.119 -0.0341 -0.3401 -0.0082
  503MOL0     C66298   8.114   9.188   8.118  0.9687  0.6693  0.3735
  503MOL0     O66299   7.987   9.182   8.064 -0.8821  0.3869 -0.5795
  503MOL0     C66300   7.912   9.301   8.086  0.2799  0.7956 -0.1912
  503MOL0     C66301   7.765   9.274   8.030  0.5557  0.1484  0.5615
  503MOL0     C66302   7.668   9.375   8.091 -1.0062 -0.1976  0.6843
  503MOL0     C66303   7.682   9.518   8.022 -0.1970 -0.9242 -0.0278
  503MOL0     C66304   7.557   9.603   8.033  0.1649  0.4115 -0.0824
  503MOL0     C66305   7.447   9.575   7.926  0.0527  1.0533 -0.5218
  503MOL0     C66306   7.322   9.653   7.959 -0.0450 -0.4324 -0.2963
  503MOL0     C66307   7.229   9.697   7.844  0.1967  0.4275 -0.7802
  503MOL0    Cl66308   7.127   9.850   7.891 -0.4792  0.1481 -0.0670
  503MOL0     C66309   8.180   9.307   8.159 -0.2318 -0.1274  0.1982
  503MOL0     C66310   8.307   9.309   8.209 -0.8224 -0.0142  0.3442
  503MOL0     O66311   8.535   9.354   8.379  0.2116  0.8155 -0.3070
  503MOL0     C66312   8.810   9.378   8.333 -0.1300  0.0887 -0.2682
  503MOL0     C66313   8.945   9.387   8.324 -0.7932  0.2073  0.3569
  503MOL0     N66314   9.243   8.802   8.035  0.0595 -0.7234  0.0672
  503MOL0     N66315   9.174   8.709   7.975 -0.2482 -0.7607 -0.5509
  503MOL0     C66316   8.628   8.712   6.876  0.1737 -0.1048 -0.1685
  503MOL0     C66317   8.686   8.616   6.793 -0.0892 -0.1747  0.2974
  503MOL0     C66318   8.930   8.347   6.539  1.2171  0.8478  0.1048
  503MOL0     C66319   8.957   8.224   6.602 -1.0324 -0.0233  0.0376
  503MOL0     C66320   9.027   8.122   6.534 -0.4016 -0.1202 -0.5618
  503MOL0     C66321   9.084   8.136   6.402  0.2639  0.5355  0.3522
  503MOL0     O66322   9.173   8.035   6.365 -0.0354 -0.4592  0.2372
  503MOL0     C66323   9.215   8.036   6.218 -0.4094  0.2135 -0.3276
  503MOL0     C66324   9.098   7.990   6.125  0.3387 -0.5183  0.4355
  503MOL0     C66325   9.117   7.842   6.105  0.1417 -0.1877 -0.4425
  503MOL0     C66326   9.048   7.766   6.214  0.8793 -0.4516 -0.3972
  503MOL0     C66327   8.957   7.659   6.161 -0.2242  0.6621  0.4637
  503MOL0     C66328   8.875   7.586   6.110  0.3299 -0.2611  0.3107
  503MOL0     C66329   9.055   8.257   6.337  0.0969 -0.3684 -0.2568
  503MOL0     C66330   8.985   8.355   6.401  0.0688  0.3914  0.4603
  503MOL0     H66331   8.985   8.565   6.926 -1.6626 -2.8930  1.3566
  503MOL0     H66332   8.911   8.747   7.067  4.9551 -4.5827 -2.5480
  503MOL0     H66333   8.710   8.946   7.212 -0.9822  0.0080 -1.2662
  503MOL0     H66334   8.785   8.783   7.225  0.3882 -0.9070  0.3288
  503MOL0     H66335   8.488   8.790   7.274  1.0316  2.5006 -1.9606
  503MOL0     H66336   8.604   8.828   7.399  0.7921 -1.9813  0.5342
  503MOL0     H66337   8.584   8.559   7.245 -0.2034 -0.5059  0.0879
  503MOL0     H66338   8.558   8.586   7.412 -1.2198  2.3268  0.0605
  503MOL0     H66339   8.758   8.485   7.397  0.7290  0.4918  0.2557
  503MOL0     H66340   8.822   8.583   7.271 -0.2571 -0.6732 -1.0073
  503MOL0     H66341   8.762   8.695   7.571  1.5355 -0.4595  0.2497
  503MOL0     H66342   8.851   8.780   7.446  0.3460  1.4875  1.4061
  503MOL0     H66343   9.044   8.621   7.476  0.5563 -1.5876 -0.5213
  503MOL0     H66344   8.937   8.518   7.578 -0.2470 -0.5977 -3.4845
  503MOL0     H66345   8.990   8.809   7.663  0.6145  0.3670  2.4521
  503MOL0     H66346   8.910   8.698   7.743 -0.9193  0.0033 -1.3196
  503MOL0     H66347   9.203   8.626   7.674  0.5617 -1.0738  0.8693
  503MOL0     H66348   9.092   8.537   7.779  3.3247 -2.4838 -3.1428
  503MOL0     H66349   9.238   8.891   7.719  1.4868 -0.2222 -0.6284
  503MOL0     H66350   9.370   9.084   7.893  0.5656 -0.4980 -0.1053
  503MOL0     H66351   9.480   8.939   7.927  0.1262 -0.4932 -0.9873
  503MOL0     H66352   9.472   9.127   8.122 -2.9540  1.0711  5.7850
  503MOL0     H66353   9.384   8.980   8.174 -4.9263  0.2684  0.5244
  503MOL0     H66354   9.250   9.226   8.034  1.8330  0.3461 -1.0886
  503MOL0     H66355   9.184   9.077   8.083 -0.8931  0.8898 -0.8261
  503MOL0     H66356   9.348   9.217   8.298  1.3002  0.4271 -2.3185
  503MOL0     H66357   9.212   9.107   8.320 -0.2791 -0.1601 -0.2558
  503MOL0     H66358   9.015   9.072   8.252 -1.6391 -1.1645 -0.8014
  503MOL0     H66359   8.769   9.055   8.231  1.4308 -1.0038 -1.0846
  503MOL0     H66360   8.377   8.978   8.166 -1.9762 -1.4921  3.4072
  503MOL0     H66361   8.154   8.980   8.078  1.4152 -0.1498 -1.9344
  503MOL0     H66362   7.946   9.389   8.031 -0.3382  2.6341  2.1871
  503MOL0     H66363   7.907   9.319   8.194 -1.6330  1.6487 -0.3870
  503MOL0     H66364   7.725   9.178   8.065 -0.4872 -0.4001 -1.9255
  503MOL0     H66365   7.757   9.277   7.921  0.5658 -0.3442  0.5408
  503MOL0     H66366   7.696   9.381   8.197  0.4024  1.8007  0.2605
  503MOL0     H66367   7.565   9.341   8.080 -0.8327 -0.6650  0.5094
  503MOL0     H66368   7.773   9.568   8.058 -0.2730  1.4657 -2.7861
  503MOL0     H66369   7.700   9.500   7.916 -0.4267  1.2552 -0.4736
  503MOL0     H66370   7.593   9.705   8.017 -0.8514  1.0418  1.4281
  503MOL0     H66371   7.502   9.595   8.127 -1.2947  0.9580 -0.8434
  503MOL0     H66372   7.414   9.470   7.925 -2.7175  1.7141  2.5345
  503MOL0     H66373   7.503   9.601   7.836  2.0062 -1.1987 -0.0642
  503MOL0     H66374   7.265   9.589   8.026  2.5938 -0.6401  1.9257
  503MOL0     H66375   7.355   9.746   8.008  2.8772 -2.8349  2.7365
  503MOL0     H66376   7.159   9.617   7.818 -1.1224  1.1622  0.3329
  503MOL0     H66377   7.295   9.712   7.758  2.4786 -2.6262  0.2600
  503MOL0     H66378   8.140   9.408   8.157 -1.2770 -0.3917  2.9170
  503MOL0     H66379   8.346   9.407   8.237 -0.6912  0.3582 -1.0648
  503MOL0     H66380   8.749   9.464   8.358 -1.9343 -1.5594  1.4010
  503MOL0     H66381   8.994   9.482   8.344 -4.4129  1.8919  2.1300
  503MOL0     H66382   8.527   8.748   6.864 -0.2456 -1.6390 -1.5991
  503MOL0     H66383   8.626   8.578   6.711 -0.7844  0.5677  0.4542
  503MOL0     H66384   8.909   8.204   6.697  0.4231  1.4950  1.1517
  503MOL0     H66385   9.035   8.029   6.590 -0.5352 -1.5134 -2.7410
  503MOL0     H66386   9.296   7.965   6.198  0.0578  0.7890 -0.4826
  503MOL0     H66387   9.253   8.134   6.191 -1.0406  0.3244 -0.8341
  503MOL0     H66388   8.997   8.021   6.155  0.5779  1.2192 -0.3907
  503MOL0     H66389   9.116   8.037   6.027  0.9705 -0.1708  0.7128
  503MOL0     H66390   9.223   7.821   6.087  0.7447  2.7862 -0.7912
  503MOL0     H66391   9.068   7.800   6.017  1.0253  0.8471 -1.4608
  503MOL0     H66392   9.123   7.729   6.286 -3.0412 -1.2641  3.7020
  503MOL0     H66393   8.988   7.837   6.271  2.5199  0.0998  0.7365
  503MOL0     H66394   8.797   7.515   6.092 -0.6852  0.9826 -0.3122
  503MOL0     H66395   9.093   8.274   6.237  3.7458 -0.2158  1.0154
  503MOL0     H66396   8.969   8.452   6.353 -1.1659  1.0878  2.1980
  504MOL0     O66397   5.712   4.804   4.151  1.3470 -0.0235  0.7591
  504MOL0     C66398   5.718   4.878   4.251 -0.9677 -0.8710 -0.1709
  504MOL0     O66399   5.828   4.961   4.280  0.1254 -0.1532  0.3712
  504MOL0     C66400   5.921   4.978   4.178 -0.0195  0.2040 -0.3388
  504MOL0     C66401   6.002   4.873   4.150 -0.1012  0.2147  1.1337
  504MOL0     C66402   6.103   4.882   4.047  0.1079  0.7185  0.0251
  504MOL0     C66403   6.111   5.003   3.969  0.4294 -0.2114  0.2100
  504MOL0     O66404   6.201   5.034   3.866  0.2803  0.1094  0.0681
  504MOL0     C66405   6.253   4.927   3.781  0.3345  0.2776 -0.7882
  504MOL0     C66406   6.271   4.993   3.650 -0.1836  0.7926 -0.2493
  504MOL0     C66407   6.333   4.894   3.551  0.9733  0.1979  0.5830
  504MOL0     C66408   6.359   4.965   3.422 -0.1875 -0.6657  0.3609
  504MOL0     C66409   6.510   4.942   3.379 -0.1824  0.8725  1.1713
  504MOL0     C66410   6.550   5.052   3.276 -0.3692 -0.3657 -0.1071
  504MOL0     C66411   6.465   5.073   3.157  0.0829 -0.0298 -0.6922
  504MOL0     C66412   6.523   5.012   3.035 -0.3718  0.5851 -0.2990
  504MOL0     N66413   6.444   5.061   2.923 -0.2886 -0.5939  0.6141
  504MOL0     C66414   6.484   5.171   2.856 -2.0353  0.3604  0.9369
  504MOL0     C66415   6.420   5.166   2.738  0.5034 -0.0262 -0.9659
  504MOL0     C66416   6.452   5.248   2.615  0.2103 -0.4294  0.6853
  504MOL0     C66417   6.600   5.243   2.558  0.8290 -0.4401 -0.8343
  504MOL0     C66418   6.616   5.298   2.421  0.7577 -1.4816  0.6709
  504MOL0     C66419   6.522   5.238   2.312 -0.9418 -0.0244 -0.1510
  504MOL0     O66420   6.520   5.095   2.318  0.0400  0.4190  0.0295
  504MOL0     C66421   6.438   5.032   2.228 -0.4678  0.2544 -0.2824
  504MOL0     C66422   6.308   4.986   2.261  1.0821 -0.2677 -0.0263
  504MOL0     C66423   6.226   4.908   2.177  0.4171  0.2072  0.2143
  504MOL0     C66424   6.278   4.881   2.052 -0.0877  0.6212 -0.0726
  504MOL0     C66425   6.182   4.817   1.958 -0.8644 -0.2899 -0.0329
  504MOL0     O66426   6.079   4.755   2.011  0.2209  0.7246 -0.3903
  504MOL0     C66427   5.991   4.684   1.940 -0.1121  0.5461 -0.0446
  504MOL0     C66428   5.915   4.750   1.842 -2.0469 -0.6013 -0.3792
  504MOL0     C66429   5.811   4.693   1.766  0.2293 -0.7333 -0.1008
  504MOL0     C66430   5.762   4.568   1.807  0.2716  0.1575  0.1968
  504MOL0     O66431   5.642   4.516   1.757  0.3583 -0.0675  0.4954
  504MOL0     C66432   5.537   4.612   1.742  0.1726  0.2772 -0.4203
  504MOL0     C66433   5.419   4.536   1.673  0.1637 -0.2067  0.2479
  504MOL0     C66434   5.441   4.521   1.521 -0.0264  0.7944  0.0445
  504MOL0     C66435   5.357   4.407   1.466  1.2931 -0.6097 -0.2049
  504MOL0     C66436   5.376   4.380   1.320 -0.7401  1.1456 -0.0239
  504MOL0     C66437   5.516   4.366   1.272  0.6468 -0.6739 -0.6639
  504MOL0     C66438   5.521   4.358   1.122  0.2422 -1.3741 -0.6398
  504MOL0     C66439   5.652   4.391   1.070 -1.1457 -0.2326  0.2021
  504MOL0    Cl66440   5.772   4.312   1.168 -0.5031 -0.1856  0.1880
  504MOL0     C66441   5.833   4.511   1.919  0.0132  0.3479 -0.3687
  504MOL0     C66442   5.946   4.565   1.983  0.4417  0.2818 -0.0380
  504MOL0     O66443   6.209   4.816   1.838 -0.6243  0.3737  0.2996
  504MOL0     C66444   6.405   4.920   2.011  0.1177  0.0505  0.0492
  504MOL0     C66445   6.490   4.993   2.106 -0.3442  1.1982  0.3567
  504MOL0     N66446   6.327   5.062   2.753 -0.1394  0.3706 -0.4084
  504MOL0     N66447   6.332   5.011   2.867 -0.5035 -0.0937 -0.8930
  504MOL0     C66448   6.016   5.102   3.987 -0.1385 -0.5598 -0.3543
  504MOL0     C66449   5.938   5.094   4.104  0.5854 -0.2196 -0.7262
  504MOL0     C66450   5.610   4.871   4.352  0.1372  0.6138  0.0007
  504MOL0     C66451   5.601   4.956   4.466  1.3837 -0.7171 -0.5413
  504MOL0     C66452   5.505   4.939   4.561  0.2235 -0.1010 -0.4694
  504MOL0     C66453   5.416   4.825   4.561 -0.1098 -0.1884  0.4943
  504MOL0     O66454   5.330   4.785   4.661 -0.3286 -0.1586  0.1382
  504MOL0     C66455   5.319   4.872   4.775  0.2915 -0.1681  0.7930
  504MOL0     C66456   5.201   4.969   4.774  0.1291  0.0362  0.0659
  504MOL0     C66457   5.059   4.906   4.734  0.0224  0.1174  0.0981
  504MOL0     C66458   4.959   5.024   4.768  0.2048  0.8848  0.9571
  504MOL0     C66459   4.819   4.983   4.727 -0.5583  0.5113 -0.2202
  504MOL0     C66460   4.705   4.954   4.696 -0.9734 -0.4796  0.4974
  504MOL0     C66461   5.422   4.751   4.442  0.3850 -0.4455 -0.0016
  504MOL0     C66462   5.506   4.775   4.339  0.3785  0.2315 -0.0846
  504MOL0     H66463   6.006   4.779   4.205  0.2245 -1.5045 -1.6319
  504MOL0     H66464   6.176   4.804   4.029  1.3403  1.9180 -0.3620
  504MOL0     H66465   6.184   4.843   3.768 -0.5147  0.5969  1.2741
  504MOL0     H66466   6.350   4.899   3.823 -0.4738  0.7104  1.5487
  504MOL0     H66467   6.328   5.082   3.677 -0.5413  0.3735  2.0937
  504MOL0     H66468   6.172   5.019   3.610 -1.3263 -1.0308  1.2225
  504MOL0     H66469   6.252   4.820   3.545 -3.7393  4.7450  1.1472
  504MOL0     H66470   6.424   4.845   3.587  0.0324 -2.5016 -0.4891
  504MOL0     H66471   6.308   4.910   3.343 -2.3197  0.5550  0.7969
  504MOL0     H66472   6.344   5.074   3.428  2.5493 -0.1338 -0.9700
  504MOL0     H66473   6.517   4.844   3.332 -3.4859  2.0471 -2.3240
  504MOL0     H66474   6.579   4.952   3.463  1.6175  1.9483 -0.3519
  504MOL0     H66475   6.649   5.021   3.242  0.9152  1.5589  1.6781
  504MOL0     H66476   6.563   5.149   3.323  1.1286 -0.6952  0.1970
  504MOL0     H66477   6.372   5.019   3.172  0.4642 -1.7387 -3.7889
  504MOL0     H66478   6.450   5.181   3.148 -1.0868 -0.2979 -2.3962
  504MOL0     H66479   6.504   4.904   3.028  0.6893  0.4359 -1.3227
  504MOL0     H66480   6.629   5.034   3.019 -0.1832 -1.2883 -2.1293
  504MOL0     H66481   6.556   5.242   2.898 -1.1593 -0.2378  0.4898
  504MOL0     H66482   6.431   5.350   2.647  4.2779  1.7424 -2.5703
  504MOL0     H66483   6.388   5.221   2.531  1.5688 -0.0062 -0.5294
  504MOL0     H66484   6.656   5.149   2.560  4.4137  1.5395 -0.5236
  504MOL0     H66485   6.668   5.287   2.632  1.7946 -1.9573 -0.7788
  504MOL0     H66486   6.610   5.407   2.418 -3.0731 -1.5792  0.5624
  504MOL0     H66487   6.716   5.278   2.379  1.6417  1.9890  0.8632
  504MOL0     H66488   6.560   5.270   2.214 -1.4854  0.3258 -0.2523
  504MOL0     H66489   6.421   5.276   2.325 -0.6749  2.1004 -3.2688
  504MOL0     H66490   6.270   5.019   2.358 -0.6175 -1.2576 -0.3011
  504MOL0     H66491   6.130   4.868   2.208  1.0648 -0.9020  0.8806
  504MOL0     H66492   5.946   4.851   1.815 -2.6838  0.0100  1.0662
  504MOL0     H66493   5.778   4.763   1.691 -1.7022 -0.7135  0.7146
  504MOL0     H66494   5.567   4.690   1.672 -3.4491  2.8943  0.6581
  504MOL0     H66495   5.493   4.653   1.833  0.9797  5.0811 -1.9197
  504MOL0     H66496   5.322   4.584   1.692  1.3168  0.9569  3.8479
  504MOL0     H66497   5.409   4.435   1.714 -1.4554  0.5013  1.7266
  504MOL0     H66498   5.547   4.498   1.505 -0.6217 -0.2746 -3.2202
  504MOL0     H66499   5.409   4.614   1.475  1.5419  0.1328 -2.6072
  504MOL0     H66500   5.372   4.323   1.534 -0.8242 -0.1887  0.8767
  504MOL0     H66501   5.253   4.422   1.496  1.4066 -0.5500  0.1609
  504MOL0     H66502   5.338   4.469   1.269 -2.0200 -1.1245 -3.3439
  504MOL0     H66503   5.313   4.303   1.274  2.0819 -0.0614 -2.0891
  504MOL0     H66504   5.564   4.283   1.326 -0.3804 -0.8688 -0.0393
  504MOL0     H66505   5.568   4.456   1.306 -1.5387 -0.8355  3.7589
  504MOL0     H66506   5.506   4.259   1.078  1.2592 -0.3196 -3.5920
  504MOL0     H66507   5.457   4.433   1.074 -1.5893 -0.9176  2.2689
  504MOL0     H66508   5.671   4.498   1.081 -2.0383 -0.0688  0.2247
  504MOL0     H66509   5.643   4.354   0.968 -0.4313 -1.4603  0.5611
  504MOL0     H66510   5.800   4.416   1.960  2.5517  0.5790  2.5316
  504MOL0     H66511   5.997   4.527   2.070  0.3784 -0.2877 -0.2483
  504MOL0     H66512   6.447   4.892   1.915 -0.2178 -0.2861 -0.0017
  504MOL0     H66513   6.590   5.018   2.072 -0.5058  1.5631  0.1386
  504MOL0     H66514   6.030   5.199   3.938 -2.2767  0.3481  0.6855
  504MOL0     H66515   5.877   5.183   4.116  2.5477  1.1303 -0.1921
  504MOL0     H66516   5.667   5.041   4.482 -2.1118  1.9515  1.0207
  504MOL0     H66517   5.484   5.014   4.637 -0.3663 -2.4023  1.7626
  504MOL0     H66518   5.412   4.929   4.791 -0.5137  1.8586 -1.1363
  504MOL0     H66519   5.304   4.804   4.859  0.1860  0.4919  1.3187
  504MOL0     H66520   5.192   5.006   4.876  1.8730  1.2236 -0.1742
  504MOL0     H66521   5.228   5.047   4.701  0.8274 -0.5294 -0.2893
  504MOL0     H66522   5.037   4.818   4.796 -2.4441 -0.5597 -1.5814
  504MOL0     H66523   5.056   4.878   4.629 -0.2463 -0.3627  0.2301
  504MOL0     H66524   4.961   5.049   4.874 -1.4530  1.9431  0.7609
  504MOL0     H66525   4.998   5.118   4.727 -0.1902  0.5503 -0.2176
  504MOL0     H66526   4.613   4.912   4.661 -1.2408 -0.2140  0.8756
  504MOL0     H66527   5.341   4.679   4.428 -3.6549  3.6464  0.0079
  504MOL0     H66528   5.493   4.739   4.237 -1.2770  2.6204 -0.8326
  505MOL0     O66529   9.860   1.218   4.242 -0.0817 -0.5428  0.2942
  505MOL0     C66530   9.932   1.272   4.322  0.5462 -0.9290  0.0634
  505MOL0     O66531   9.947   1.243   4.452  0.2914  0.2198  0.4423
  505MOL0     C66532   9.873   1.139   4.499  0.3892 -0.1002 -0.1180
  505MOL0     C66533   9.918   1.008   4.503  0.2783  0.4350  1.3616
  505MOL0     C66534   9.828   0.899   4.525  0.2328  0.4923  0.6486
  505MOL0     C66535   9.685   0.925   4.548 -0.3913  0.1530  0.3519
  505MOL0     O66536   9.588   0.832   4.546  0.2749 -0.1305 -0.6242
  505MOL0     C66537   9.622   0.698   4.538  0.1458  0.0481  0.3641
  505MOL0     C66538   9.490   0.630   4.499 -0.4321 -0.1500 -0.2080
  505MOL0     C66539   9.392   0.617   4.616  0.8538 -0.1582 -0.3199
  505MOL0     C66540   9.280   0.516   4.581 -0.2445 -0.2687 -0.0906
  505MOL0     C66541   9.171   0.510   4.692 -0.3423 -0.8857  0.5126
  505MOL0     C66542   9.058   0.415   4.638  0.8505  0.1794 -0.9006
  505MOL0     C66543   8.981   0.369   4.770 -0.7148  0.6305  0.2918
  505MOL0     C66544   8.847   0.319   4.746  1.1230  1.0089 -0.0756
  505MOL0     N66545   8.760   0.296   4.866 -0.3052  0.1676 -0.9629
  505MOL0     C66546   8.798   0.227   4.988 -1.1032 -0.2494  0.5244
  505MOL0     C66547   8.698   0.255   5.076  0.3966  0.9996 -0.1794
  505MOL0     C66548   8.706   0.201   5.216  0.1536 -0.4334 -0.9681
  505MOL0     C66549   8.573   0.125   5.239  0.0089 -0.2089 -0.0898
  505MOL0     C66550   8.538   0.024   5.133 -1.0873 -1.3788  1.1603
  505MOL0     C66551   8.661  -0.069   5.105  0.1507  0.4074  0.2781
  505MOL0     O66552   8.692  -0.129   5.227 -0.2791  0.7571  0.4420
  505MOL0     C66553   8.783  -0.233   5.228  0.5867  0.1113 -1.6951
  505MOL0     C66554   8.844  -0.290   5.121  0.9880 -0.3658  0.1481
  505MOL0     C66555   8.923  -0.411   5.131 -0.2175 -0.2367  0.4401
  505MOL0     C66556   8.927  -0.476   5.254  1.5495 -0.5916  0.0119
  505MOL0     C66557   8.988  -0.610   5.255  0.0156  0.4671 -0.7920
  505MOL0     O66558   9.020  -0.659   5.127 -0.5381 -0.2651 -0.2464
  505MOL0     C66559   9.035  -0.795   5.103 -0.0054 -0.4354 -0.3898
  505MOL0     C66560   9.075  -0.826   4.977  0.2193  0.9027 -0.7296
  505MOL0     C66561   9.088  -0.960   4.937  0.2308  0.4555  0.8772
  505MOL0     C66562   9.075  -1.065   5.035 -0.1733  0.1732  0.4787
  505MOL0     O66563   9.085  -1.198   4.991  0.4593 -0.6493 -0.0377
  505MOL0     C66564   9.023  -1.308   5.057  1.1210  0.3569  0.7075
  505MOL0     C66565   9.021  -1.432   4.956 -1.2769 -0.8247  0.4640
  505MOL0     C66566   9.166  -1.487   4.925  0.2533 -0.9357 -0.0867
  505MOL0     C66567   9.140  -1.621   4.853  0.7462  0.6044 -0.3579
  505MOL0     C66568   9.263  -1.673   4.776 -0.2717  0.2847  0.8801
  505MOL0     C66569   9.273  -1.588   4.643 -0.6056 -0.5047 -1.2210
  505MOL0     C66570   9.411  -1.613   4.577  0.3392 -0.0963 -0.8174
  505MOL0     C66571   9.441  -1.522   4.455 -0.4442  0.3419 -0.0924
  505MOL0    Cl66572   9.616  -1.514   4.407 -0.0018 -0.1229 -0.2415
  505MOL0     C66573   9.038  -1.037   5.167  0.1989 -0.3519  0.4316
  505MOL0     C66574   9.020  -0.896   5.200  0.1790  0.5473  0.0566
  505MOL0     O66575   9.019  -0.664   5.362  1.0809 -0.8083  0.3962
  505MOL0     C66576   8.856  -0.430   5.360  0.1886  0.0548 -0.6927
  505MOL0     C66577   8.793  -0.311   5.344  0.6819 -0.4294  0.4147
  505MOL0     N66578   8.602   0.341   5.024 -0.0424  0.3784  0.0912
  505MOL0     N66579   8.637   0.351   4.894  0.9764  0.4167  0.3996
  505MOL0     C66580   9.651   1.056   4.544  0.0097 -0.5127 -0.7122
  505MOL0     C66581   9.742   1.156   4.514 -0.2228  0.0736  0.5722
  505MOL0     C66582  10.018   1.384   4.275  0.2798  1.7460  0.2068
  505MOL0     C66583  10.129   1.417   4.344 -0.6863  0.6642 -0.1569
  505MOL0     C66584  10.221   1.512   4.291 -0.3624  1.1668  0.5874
  505MOL0     C66585  10.190   1.574   4.170  1.0341 -0.6914  0.9478
  505MOL0     O66586  10.273   1.654   4.092 -0.3807 -0.0985  0.4255
  505MOL0     C66587  10.380   1.740   4.154  0.5450 -0.0539 -0.0149
  505MOL0     C66588  10.519   1.700   4.121 -0.1784  0.4719  1.2326
  505MOL0     C66589  10.545   1.735   3.967 -0.4919 -0.1803 -0.3716
  505MOL0     C66590  10.682   1.679   3.935  0.2299 -0.2399  0.2237
  505MOL0     C66591  10.703   1.705   3.789  0.0937 -0.1295 -0.2629
  505MOL0     C66592  10.716   1.733   3.670 -0.5866  0.3717  0.2166
  505MOL0     C66593  10.066   1.551   4.103  0.8000 -0.8928  0.0041
  505MOL0     C66594   9.985   1.450   4.155 -0.4442  0.2422 -0.1251
  505MOL0     H66595  10.021   0.977   4.489 -0.8757 -3.4441  0.0217
  505MOL0     H66596   9.872   0.800   4.521 -2.0099 -0.5286 -1.0577
  505MOL0     H66597   9.661   0.666   4.635  1.7942 -2.3851 -1.0015
  505MOL0     H66598   9.702   0.686   4.466  1.0629  1.5966  1.0652
  505MOL0     H66599   9.514   0.530   4.464 -2.4175 -0.2716 -1.3985
  505MOL0     H66600   9.448   0.681   4.412 -0.4523 -0.4352 -0.3651
  505MOL0     H66601   9.349   0.715   4.637  0.1974 -0.9170  2.3270
  505MOL0     H66602   9.449   0.576   4.700  0.1970 -1.0641 -0.2997
  505MOL0     H66603   9.238   0.539   4.483 -1.0420 -0.9420  0.0766
  505MOL0     H66604   9.326   0.417   4.580 -1.9490 -1.1458 -2.7136
  505MOL0     H66605   9.125   0.607   4.713  3.0816  1.4253 -1.6449
  505MOL0     H66606   9.203   0.470   4.788 -2.6608 -1.1365  1.2626
  505MOL0     H66607   9.099   0.338   4.573 -0.1300 -0.9322 -0.2265
  505MOL0     H66608   8.999   0.481   4.574 -0.3364  1.1353  1.0717
  505MOL0     H66609   9.040   0.292   4.821  1.1334  1.6482 -0.2144
  505MOL0     H66610   8.972   0.453   4.839  2.4453  1.6917 -0.4085
  505MOL0     H66611   8.857   0.228   4.687 -1.4524  0.5147  0.1390
  505MOL0     H66612   8.789   0.380   4.676 -0.0634  0.0255  0.0087
  505MOL0     H66613   8.883   0.164   5.015 -0.5273  0.1213 -0.4034
  505MOL0     H66614   8.724   0.284   5.286  3.1445 -2.5223  1.0037
  505MOL0     H66615   8.785   0.131   5.244 -0.9525 -1.7238 -0.9950
  505MOL0     H66616   8.494   0.202   5.241  0.7150  0.5410 -0.3312
  505MOL0     H66617   8.571   0.068   5.333  0.3507 -0.1877 -0.0689
  505MOL0     H66618   8.449  -0.020   5.178 -0.7645 -0.3656  2.8940
  505MOL0     H66619   8.505   0.088   5.050  0.1965  1.0933  2.4221
  505MOL0     H66620   8.747  -0.014   5.067  1.6819 -2.3967 -0.5405
  505MOL0     H66621   8.630  -0.148   5.036 -1.8163  0.2399  1.2847
  505MOL0     H66622   8.843  -0.238   5.026 -1.1712  2.0759  1.4112
  505MOL0     H66623   8.960  -0.462   5.043 -3.5508 -1.6958 -0.2569
  505MOL0     H66624   9.089  -0.757   4.895 -0.5460  2.3719  0.3485
  505MOL0     H66625   9.120  -0.985   4.836  1.2194  0.5048  1.1657
  505MOL0     H66626   8.919  -1.287   5.082  0.9132 -0.3753  0.4669
  505MOL0     H66627   9.079  -1.332   5.148  2.2154  0.7182  0.1520
  505MOL0     H66628   8.971  -1.404   4.863  1.7344  1.4351 -0.6519
  505MOL0     H66629   8.969  -1.517   5.002 -0.8737 -0.7579  1.0589
  505MOL0     H66630   9.220  -1.492   5.020  1.3806  1.7792 -0.4895
  505MOL0     H66631   9.224  -1.413   4.869  1.8390 -0.2316  2.3205
  505MOL0     H66632   9.110  -1.699   4.924 -1.2397 -1.2319 -3.0432
  505MOL0     H66633   9.060  -1.617   4.779  0.7303  1.0634 -0.3200
  505MOL0     H66634   9.271  -1.782   4.765 -1.1568  0.3118 -0.2068
  505MOL0     H66635   9.349  -1.663   4.844  0.5234 -2.5611  0.4339
  505MOL0     H66636   9.278  -1.480   4.660  1.3419 -0.7869  0.3029
  505MOL0     H66637   9.184  -1.601   4.580 -2.8244 -2.8502  2.1057
  505MOL0     H66638   9.494  -1.599   4.646 -0.0749 -0.2408 -0.2870
  505MOL0     H66639   9.420  -1.713   4.534  0.7578  0.5460 -2.2906
  505MOL0     H66640   9.407  -1.419   4.469 -0.5447  0.0135  2.8221
  505MOL0     H66641   9.382  -1.558   4.370 -3.7502 -1.8138  2.8031
  505MOL0     H66642   9.047  -1.105   5.251  0.3444 -2.2096 -1.0278
  505MOL0     H66643   8.981  -0.868   5.298 -0.4381 -3.6995  1.2436
  505MOL0     H66644   8.858  -0.465   5.463 -3.3978 -1.9520 -1.1574
  505MOL0     H66645   8.745  -0.276   5.436  2.5007  1.8982  0.5813
  505MOL0     H66646   9.549   1.078   4.573  0.2076 -0.7362  0.2054
  505MOL0     H66647   9.704   1.257   4.507  2.3938  1.4537  3.7585
  505MOL0     H66648  10.153   1.376   4.442 -1.1683  1.6711  0.3979
  505MOL0     H66649  10.320   1.533   4.329  0.6695 -2.8593  0.6423
  505MOL0     H66650  10.366   1.746   4.262  1.6983 -0.0608  0.1404
  505MOL0     H66651  10.365   1.840   4.112 -0.5766  0.3168  1.2028
  505MOL0     H66652  10.589   1.758   4.182 -0.1793  3.0526 -1.0486
  505MOL0     H66653  10.526   1.591   4.132  2.5874  0.4192 -0.1000
  505MOL0     H66654  10.562   1.843   3.962  1.9264 -0.3740  1.6171
  505MOL0     H66655  10.468   1.713   3.893  0.4082  0.2228 -1.4589
  505MOL0     H66656  10.755   1.729   3.999 -2.1460  1.7104  1.6128
  505MOL0     H66657  10.701   1.574   3.957 -0.5341 -0.5559 -0.5793
  505MOL0     H66658  10.743   1.772   3.574  0.2981 -1.6586 -0.4101
  505MOL0     H66659  10.038   1.600   4.010 -2.0447 -1.0686  0.6536
  505MOL0     H66660   9.908   1.411   4.088 -4.3951  3.5562  2.0022
  506MOL0     O66661   2.107  10.573   1.268  0.2718 -1.1574  0.5713
  506MOL0     C66662   2.223  10.571   1.310  0.4453 -1.1899 -0.9006
  506MOL0     O66663   2.336  10.509   1.255  0.1748  0.0162  0.2469
  506MOL0     C66664   2.321  10.429   1.146  0.3425  0.0310 -0.2049
  506MOL0     C66665   2.429  10.344   1.121 -0.0887  0.1516 -1.2681
  506MOL0     C66666   2.426  10.255   1.011 -0.1191  0.6580  0.2703
  506MOL0     C66667   2.322  10.255   0.918 -0.3568  0.0683 -0.2322
  506MOL0     O66668   2.348  10.176   0.809 -0.1012 -0.2603 -0.3392
  506MOL0     C66669   2.297  10.226   0.677 -1.0555 -0.2646 -0.7045
  506MOL0     C66670   2.431  10.236   0.590  0.6523  0.9157 -0.0730
  506MOL0     C66671   2.506  10.371   0.624  0.7114  0.4271 -0.1434
  506MOL0     C66672   2.430  10.494   0.584  0.6444  0.2667 -0.0266
  506MOL0     C66673   2.510  10.628   0.574 -0.7152  0.4192 -0.5544
  506MOL0     C66674   2.621  10.609   0.469 -1.1524  0.2327 -0.4653
  506MOL0     C66675   2.714  10.728   0.452 -0.3394 -0.1367 -0.0018
  506MOL0     C66676   2.821  10.690   0.339  0.2427 -0.8010 -0.4211
  506MOL0     N66677   2.894  10.810   0.290 -0.7991  0.1033  0.6949
  506MOL0     C66678   2.959  10.900   0.367 -0.2327 -0.1438  0.2328
  506MOL0     C66679   3.021  10.986   0.288  0.0305 -0.1729 -0.4047
  506MOL0     C66680   3.108  11.108   0.321 -0.1284  0.5216 -0.5081
  506MOL0     C66681   3.154  11.106   0.460 -0.2371  0.5958  0.4535
  506MOL0     C66682   3.245  11.239   0.485 -0.6899 -0.1550 -0.2131
  506MOL0     C66683   3.364  11.268   0.398  0.6157 -0.4218  0.3088
  506MOL0     O66684   3.453  11.152   0.395 -0.8763 -0.8820  0.8098
  506MOL0     C66685   3.577  11.171   0.343  0.7730  0.3331 -0.6562
  506MOL0     C66686   3.612  11.291   0.272 -1.0699 -0.3672 -0.2566
  506MOL0     C66687   3.743  11.315   0.226  0.1203  1.1158  0.6890
  506MOL0     C66688   3.833  11.203   0.242 -0.1821  0.0647 -0.6823
  506MOL0     C66689   3.970  11.204   0.188 -0.2290  0.4340  0.2651
  506MOL0     O66690   4.017  11.084   0.143 -0.1778  0.3342 -0.7246
  506MOL0     C66691   4.124  11.089   0.050  0.3030  0.9361 -0.2132
  506MOL0     C66692   4.118  11.155  -0.071  0.6317 -0.3268 -0.8907
  506MOL0     C66693   4.224  11.153  -0.162  0.3795 -0.2856 -1.3874
  506MOL0     C66694   4.344  11.092  -0.121 -0.3155  0.0189 -0.1081
  506MOL0     O66695   4.461  11.092  -0.196 -0.4179  0.3125  0.4938
  506MOL0     C66696   4.483  11.157  -0.325 -0.4468  0.5041 -0.1929
  506MOL0     C66697   4.636  11.180  -0.344  0.1613 -0.4548 -0.7766
  506MOL0     C66698   4.691  11.289  -0.245 -0.0008 -0.5482  0.5507
  506MOL0     C66699   4.831  11.267  -0.211 -1.2791 -0.6316 -0.0884
  506MOL0     C66700   4.881  11.370  -0.109  0.6915  0.3691  0.5787
  506MOL0     C66701   4.914  11.499  -0.174 -0.2723  0.7644 -0.2150
  506MOL0     C66702   4.970  11.583  -0.057 -0.3632  0.3293  0.0502
  506MOL0     C66703   5.032  11.721  -0.109 -0.8133  1.3450  0.0256
  506MOL0    Cl66704   4.915  11.849  -0.130 -0.4135  0.6615  0.1577
  506MOL0     C66705   4.356  11.020   0.003 -0.3943 -0.3844  0.4115
  506MOL0     C66706   4.247  11.017   0.086 -0.2402  0.2347  0.5926
  506MOL0     O66707   4.008  11.317   0.155  0.4876 -0.2631 -0.0814
  506MOL0     C66708   3.802  11.084   0.314 -0.2690 -0.3522 -0.1518
  506MOL0     C66709   3.673  11.071   0.358 -0.4809 -0.2492 -1.2146
  506MOL0     N66710   3.000  10.938   0.158  0.1830 -0.2541 -0.4415
  506MOL0     N66711   2.932  10.835   0.157  0.0830 -0.1816 -0.1447
  506MOL0     C66712   2.216  10.341   0.942 -0.9766 -0.5974  0.2578
  506MOL0     C66713   2.218  10.425   1.053 -0.1653  0.0326 -0.4793
  506MOL0     C66714   2.251  10.617   1.447  0.2068  1.7102 -0.3470
  506MOL0     C66715   2.372  10.596   1.510 -0.2415  0.2539 -1.2848
  506MOL0     C66716   2.390  10.643   1.640  0.0815 -0.2791 -0.0010
  506MOL0     C66717   2.291  10.701   1.720  0.1202  0.7516 -0.0373
  506MOL0     O66718   2.291  10.754   1.848  0.4983  0.5804  0.5047
  506MOL0     C66719   2.373  10.697   1.949 -0.0032 -0.1269  0.8877
  506MOL0     C66720   2.293  10.670   2.077  0.4972 -0.1189 -0.2510
  506MOL0     C66721   2.246  10.798   2.167 -0.3128  0.5127  0.6230
  506MOL0     C66722   2.370  10.884   2.204 -0.3746 -0.5000 -0.2265
  506MOL0     C66723   2.356  10.992   2.306 -0.0761 -0.1009  0.6478
  506MOL0     C66724   2.358  11.068   2.398  0.2383  0.1008 -0.4318
  506MOL0     C66725   2.161  10.701   1.657 -0.1620  0.2073  0.4577
  506MOL0     C66726   2.148  10.661   1.524  0.9904  0.0997 -0.6921
  506MOL0     H66727   2.513  10.355   1.188 -2.7608 -1.4956  2.6938
  506MOL0     H66728   2.515  10.198   0.983 -2.0877 -3.4099  1.5394
  506MOL0     H66729   2.243  10.321   0.679 -1.8511 -0.6761  2.5795
  506MOL0     H66730   2.234  10.153   0.624  1.5847 -1.1118 -2.9238
  506MOL0     H66731   2.408  10.231   0.483  0.9676 -1.0997 -0.0907
  506MOL0     H66732   2.503  10.158   0.619  1.5816  2.0982  0.9041
  506MOL0     H66733   2.603  10.366   0.575  2.0754  1.3826  2.3172
  506MOL0     H66734   2.524  10.376   0.731  2.3621  1.7021 -0.4539
  506MOL0     H66735   2.402  10.470   0.481  0.5580  1.8874 -0.4110
  506MOL0     H66736   2.339  10.501   0.645  1.2533  0.8081  0.8453
  506MOL0     H66737   2.541  10.659   0.674 -6.9624  2.0250  1.3186
  506MOL0     H66738   2.449  10.715   0.545 -2.3131 -1.1953 -2.3375
  506MOL0     H66739   2.574  10.587   0.372 -1.9850  2.4035 -0.6212
  506MOL0     H66740   2.681  10.524   0.501 -0.9664  1.4185  2.6335
  506MOL0     H66741   2.651  10.812   0.423  0.0074  0.4021  0.7727
  506MOL0     H66742   2.767  10.758   0.543 -0.7646 -1.7721  0.8304
  506MOL0     H66743   2.762  10.652   0.255 -0.8662  0.4807 -0.2537
  506MOL0     H66744   2.887  10.613   0.382 -2.4049 -3.0335 -0.0932
  506MOL0     H66745   2.979  10.878   0.472  0.4394 -3.3707 -0.4652
  506MOL0     H66746   3.057  11.204   0.315 -0.0881  0.6532  0.8093
  506MOL0     H66747   3.199  11.106   0.260 -1.5128 -2.3529 -2.6998
  506MOL0     H66748   3.217  11.019   0.478  0.0122  0.7137  0.1683
  506MOL0     H66749   3.091  11.106   0.549  0.3974 -3.0427  1.0585
  506MOL0     H66750   3.175  11.323   0.478  0.3012  0.7640  0.5156
  506MOL0     H66751   3.278  11.253   0.588 -0.0182 -0.0284 -0.4355
  506MOL0     H66752   3.409  11.361   0.432  1.6463  0.1782 -2.5156
  506MOL0     H66753   3.322  11.284   0.299 -2.2554  0.1513  1.5017
  506MOL0     H66754   3.539  11.372   0.270 -1.5588 -0.8148 -0.5826
  506MOL0     H66755   3.764  11.410   0.177  2.4265  1.5649  2.3816
  506MOL0     H66756   4.024  11.209  -0.081  0.2026 -0.6453  0.8998
  506MOL0     H66757   4.212  11.204  -0.257  0.7785  2.0003 -0.2729
  506MOL0     H66758   4.426  11.249  -0.342  0.5556  0.8029 -2.2252
  506MOL0     H66759   4.473  11.083  -0.405  1.2260 -0.3706  0.3451
  506MOL0     H66760   4.651  11.213  -0.447 -2.4925  1.7754 -0.5735
  506MOL0     H66761   4.694  11.089  -0.327 -2.1855 -2.0242 -0.5882
  506MOL0     H66762   4.636  11.292  -0.150  3.4287 -1.1940  2.7261
  506MOL0     H66763   4.703  11.388  -0.291  3.6366  0.3418  2.9843
  506MOL0     H66764   4.839  11.170  -0.161 -0.1797  0.6619  2.4576
  506MOL0     H66765   4.898  11.270  -0.298 -0.7541  3.0815  0.2741
  506MOL0     H66766   4.968  11.330  -0.056 -1.4713 -2.1413  2.5132
  506MOL0     H66767   4.811  11.376  -0.025 -0.2192 -3.2951  0.2614
  506MOL0     H66768   4.824  11.545  -0.213 -1.1450  0.3469  1.2241
  506MOL0     H66769   4.981  11.490  -0.260 -3.1894  2.3061 -2.8494
  506MOL0     H66770   4.889  11.600   0.015 -1.0800 -0.9541 -0.4237
  506MOL0     H66771   5.039  11.522   0.002 -2.9978 -2.5163  0.4295
  506MOL0     H66772   5.064  11.694  -0.210  1.4091 -2.3678  1.5428
  506MOL0     H66773   5.126  11.754  -0.064 -0.5661  0.9063 -0.1674
  506MOL0     H66774   4.438  10.952   0.021 -2.1118 -2.8057 -0.3762
  506MOL0     H66775   4.251  10.966   0.181  1.5048  3.3312  2.3337
  506MOL0     H66776   3.874  11.003   0.313 -2.1596 -2.1047 -1.0792
  506MOL0     H66777   3.662  10.977   0.411  2.8707 -1.4923 -2.4861
  506MOL0     H66778   2.139  10.357   0.867  0.5225 -0.4551 -1.3057
  506MOL0     H66779   2.144  10.503   1.038 -1.2861 -0.5443  1.6185
  506MOL0     H66780   2.467  10.557   1.475 -1.0385 -1.7860 -1.3377
  506MOL0     H66781   2.494  10.652   1.671  0.0868 -0.5258  0.0568
  506MOL0     H66782   2.445  10.775   1.974 -1.8907  2.4995 -1.2150
  506MOL0     H66783   2.432  10.607   1.928 -3.3309 -2.9908  2.6984
  506MOL0     H66784   2.198  10.624   2.049 -1.1873  1.6254  2.1886
  506MOL0     H66785   2.350  10.596   2.133  1.5757  0.6571 -0.2899
  506MOL0     H66786   2.209  10.768   2.265  1.7565 -2.2908  0.6628
  506MOL0     H66787   2.182  10.863   2.106 -1.1877  0.3896  1.3857
  506MOL0     H66788   2.432  10.818   2.266 -1.0447 -0.5166  0.4456
  506MOL0     H66789   2.441  10.912   2.126 -0.3537  0.9791  0.3019
  506MOL0     H66790   2.356  11.120   2.492  1.7582  0.1838 -0.4169
  506MOL0     H66791   2.078  10.760   1.696  1.2903  4.4935 -2.2511
  506MOL0     H66792   2.052  10.668   1.474 -0.0268  0.1840  1.2080
  507MOL0     O66793   4.975   9.059   6.145 -0.0445  0.2992  0.3488
  507MOL0     C66794   5.021   8.970   6.068  0.2058  0.0940 -0.2169
  507MOL0     O66795   5.154   8.950   6.045 -0.7096 -0.6795  0.8443
  507MOL0     C66796   5.253   9.022   6.104  0.5515  0.1475  0.6924
  507MOL0     C66797   5.238   9.163   6.095  0.5643 -0.3018 -0.1975
  507MOL0     C66798   5.334   9.243   6.158  1.2166 -0.5221 -0.2991
  507MOL0     C66799   5.434   9.189   6.233  0.0155 -0.1932  1.0254
  507MOL0     O66800   5.495   9.286   6.313 -0.2081  0.1465  0.1703
  507MOL0     C66801   5.540   9.255   6.445  0.4159  0.0728 -0.1303
  507MOL0     C66802   5.428   9.213   6.547 -1.5546 -0.6776  0.2820
  507MOL0     C66803   5.432   9.275   6.685  0.5076 -0.0948 -0.3538
  507MOL0     C66804   5.366   9.190   6.781 -0.6285  0.4134 -1.2046
  507MOL0     C66805   5.370   9.253   6.925  0.5305  0.0397 -0.0817
  507MOL0     C66806   5.288   9.181   7.029  1.0221 -0.2421 -0.9440
  507MOL0     C66807   5.290   9.029   7.046 -0.6762  0.0324 -0.2946
  507MOL0     C66808   5.204   8.990   7.160 -0.3307  0.3005 -0.0219
  507MOL0     N66809   5.055   8.989   7.135 -0.2487 -0.2302  0.7015
  507MOL0     C66810   4.997   8.927   7.024 -0.2871  0.7675 -0.3199
  507MOL0     C66811   4.864   8.953   7.047  0.3294 -0.3922  0.2472
  507MOL0     C66812   4.737   8.913   6.973 -0.8886  1.0514 -0.0882
  507MOL0     C66813   4.637   9.030   6.968 -0.0269  1.1380 -0.0665
  507MOL0     C66814   4.566   9.067   7.100  0.5562  0.1611 -0.0149
  507MOL0     C66815   4.518   9.209   7.127 -0.4111 -0.3015  0.4080
  507MOL0     O66816   4.612   9.295   7.188 -0.0690 -0.3971  0.8422
  507MOL0     C66817   4.574   9.413   7.243 -0.2234  0.6743 -0.5040
  507MOL0     C66818   4.668   9.468   7.333 -0.8095  0.1934 -0.4702
  507MOL0     C66819   4.640   9.599   7.392  0.2344 -0.5085 -0.2027
  507MOL0     C66820   4.519   9.669   7.368  0.2257 -0.6557 -0.2159
  507MOL0     C66821   4.486   9.798   7.436  0.3490 -0.3634  0.7308
  507MOL0     O66822   4.562   9.835   7.536  0.1232  0.0281 -0.6584
  507MOL0     C66823   4.530   9.919   7.640  0.2207  0.4811 -0.4394
  507MOL0     C66824   4.632   9.968   7.719 -0.1801  0.4689 -0.9180
  507MOL0     C66825   4.603  10.032   7.843 -0.8059  0.7095  0.0977
  507MOL0     C66826   4.469  10.067   7.872 -0.3314 -0.0510 -0.1143
  507MOL0     O66827   4.426  10.128   7.982  0.0967  0.0938 -0.4638
  507MOL0     C66828   4.516  10.183   8.082  0.2052 -0.2772  1.2620
  507MOL0     C66829   4.442  10.308   8.145  0.9789  0.2635 -1.4589
  507MOL0     C66830   4.318  10.289   8.245 -0.1225 -0.5002  0.5250
  507MOL0     C66831   4.186  10.275   8.166 -0.6067  0.6047 -0.0753
  507MOL0     C66832   4.075  10.256   8.262 -0.0208 -0.5701  0.4581
  507MOL0     C66833   3.932  10.229   8.186  0.1822 -0.0871 -0.3547
  507MOL0     C66834   3.912  10.084   8.128 -0.3332 -1.3751  0.1562
  507MOL0     C66835   3.783  10.058   8.052  0.6279  0.2342 -0.1217
  507MOL0    Cl66836   3.634  10.088   8.144  0.4707  0.1417 -0.0938
  507MOL0     C66837   4.368  10.035   7.787  0.4479 -0.2514  0.0518
  507MOL0     C66838   4.391   9.956   7.674 -0.3225  0.0410 -1.1800
  507MOL0     O66839   4.405   9.871   7.377 -0.5550  0.5500  1.0160
  507MOL0     C66840   4.422   9.596   7.289 -0.0118 -0.5181 -0.7882
  507MOL0     C66841   4.452   9.476   7.229  0.2299  0.5926 -0.6144
  507MOL0     N66842   4.844   9.005   7.172 -0.3778  0.1179 -0.9796
  507MOL0     N66843   4.958   9.021   7.224 -0.1043  0.0414  0.1521
  507MOL0     C66844   5.449   9.054   6.234  0.3147 -0.1478 -0.1582
  507MOL0     C66845   5.371   8.976   6.162  0.0720  0.1082 -0.7534
  507MOL0     C66846   4.923   8.869   6.009 -0.2486 -0.0025 -0.4783
  507MOL0     C66847   4.962   8.758   5.931 -0.6176  0.7610 -0.2642
  507MOL0     C66848   4.866   8.673   5.886 -0.2676 -0.2154 -0.0498
  507MOL0     C66849   4.735   8.678   5.930 -0.9014 -0.5544  0.5444
  507MOL0     O66850   4.629   8.596   5.897 -0.4576  0.3358  0.4656
  507MOL0     C66851   4.627   8.514   5.783  0.1762 -0.2070  0.3302
  507MOL0     C66852   4.520   8.557   5.688  0.4607 -1.2595  0.4297
  507MOL0     C66853   4.464   8.455   5.589 -0.2865 -0.4204 -0.6451
  507MOL0     C66854   4.349   8.358   5.648 -0.8616 -0.3671  0.6888
  507MOL0     C66855   4.294   8.261   5.558  0.0917 -0.2355 -0.0277
  507MOL0     C66856   4.230   8.189   5.485 -0.1184 -0.6952  0.4390
  507MOL0     C66857   4.696   8.782   6.014 -0.3222 -0.1443  0.0823
  507MOL0     C66858   4.792   8.877   6.052 -0.2037 -0.1634 -0.2740
  507MOL0     H66859   5.155   9.205   6.040  2.4503  1.0134 -2.2112
  507MOL0     H66860   5.316   9.348   6.140  1.4872 -0.4567 -0.1849
  507MOL0     H66861   5.592   9.338   6.494 -2.8419  1.7215  0.8180
  507MOL0     H66862   5.616   9.176   6.441 -0.3551 -0.8441  1.8883
  507MOL0     H66863   5.424   9.104   6.541 -0.2206 -0.6806 -1.3040
  507MOL0     H66864   5.337   9.245   6.496 -0.7575  0.3065 -0.5842
  507MOL0     H66865   5.397   9.379   6.683  1.8654  0.5929  3.1081
  507MOL0     H66866   5.536   9.285   6.718  0.8799  0.6965 -1.6965
  507MOL0     H66867   5.262   9.176   6.750 -0.9276 -0.2248  0.0152
  507MOL0     H66868   5.422   9.096   6.786 -0.5375  0.5019 -0.3927
  507MOL0     H66869   5.331   9.354   6.915 -0.4833 -0.1672  1.4511
  507MOL0     H66870   5.472   9.262   6.964 -0.0688  0.4009  1.4435
  507MOL0     H66871   5.184   9.214   7.038  1.1212 -0.5010  3.4382
  507MOL0     H66872   5.330   9.224   7.121  2.2650 -3.3108  0.0500
  507MOL0     H66873   5.241   8.978   6.962 -1.7698  1.5382 -0.6111
  507MOL0     H66874   5.394   8.994   7.039  0.0323  2.0174 -0.3056
  507MOL0     H66875   5.225   9.051   7.248  0.0587  3.0730 -1.9290
  507MOL0     H66876   5.230   8.887   7.190  1.3475 -0.1779 -2.8336
  507MOL0     H66877   5.039   8.881   6.935 -0.5690  1.6433 -0.9174
  507MOL0     H66878   4.708   8.821   7.024  3.5636  0.2290  1.4811
  507MOL0     H66879   4.756   8.876   6.872 -0.6975 -3.0111  1.2502
  507MOL0     H66880   4.557   9.005   6.898 -0.0579 -0.9767  0.6525
  507MOL0     H66881   4.692   9.121   6.943 -0.6179  1.0264 -1.8951
  507MOL0     H66882   4.491   8.988   7.113 -0.2045  0.9271  0.3260
  507MOL0     H66883   4.628   9.055   7.189 -1.7068  1.7572  1.8773
  507MOL0     H66884   4.426   9.215   7.185 -1.8717 -1.5208 -1.6623
  507MOL0     H66885   4.489   9.262   7.035  0.4279 -0.2042  0.1887
  507MOL0     H66886   4.758   9.412   7.352 -0.3138  0.9361 -0.6031
  507MOL0     H66887   4.709   9.653   7.457 -0.0989  0.7158 -0.8369
  507MOL0     H66888   4.736   9.946   7.694 -0.0050 -4.6020  2.5710
  507MOL0     H66889   4.684  10.061   7.909 -0.2838 -1.6144  0.5765
  507MOL0     H66890   4.609  10.214   8.034  1.3378 -2.0567  2.2174
  507MOL0     H66891   4.531  10.107   8.159  0.9348 -1.6559 -0.2076
  507MOL0     H66892   4.416  10.388   8.075  1.1189  2.3127  0.6772
  507MOL0     H66893   4.512  10.351   8.218 -1.3249 -3.3627  3.4799
  507MOL0     H66894   4.312  10.374   8.313 -1.2196  0.1742 -0.3853
  507MOL0     H66895   4.341  10.200   8.304  0.4015 -0.5511  0.2472
  507MOL0     H66896   4.167  10.367   8.110  0.5111  0.1576 -1.2210
  507MOL0     H66897   4.193  10.194   8.093  0.1560 -0.6722  1.3497
  507MOL0     H66898   4.079  10.354   8.311 -1.5311 -0.5322  0.5405
  507MOL0     H66899   4.090  10.179   8.337 -2.8765 -0.9854  0.7055
  507MOL0     H66900   3.929  10.305   8.107 -1.3223 -0.0047 -0.2459
  507MOL0     H66901   3.843  10.250   8.246  0.0613  2.9455 -1.4096
  507MOL0     H66902   3.997  10.067   8.061  1.3396  2.6213  0.9565
  507MOL0     H66903   3.932  10.020   8.215 -1.1316  1.5173  2.6660
  507MOL0     H66904   3.784   9.958   8.007  1.9462  0.2299 -0.1280
  507MOL0     H66905   3.782  10.135   7.975  0.0593 -0.6417 -1.0198
  507MOL0     H66906   4.270  10.068   7.820  1.0779  2.7077 -0.7576
  507MOL0     H66907   4.305   9.927   7.615 -1.7726 -0.4452  1.0421
  507MOL0     H66908   4.322   9.636   7.274 -0.6129 -1.3815  0.7432
  507MOL0     H66909   4.380   9.432   7.161  0.7842  3.1202 -3.0288
  507MOL0     H66910   5.525   9.006   6.294 -0.1366  1.8126  2.1565
  507MOL0     H66911   5.375   8.868   6.165  1.3069 -0.0342 -3.8653
  507MOL0     H66912   5.066   8.735   5.911 -0.2023 -3.4378  4.6778
  507MOL0     H66913   4.895   8.591   5.821  1.4751 -0.3258  0.8065
  507MOL0     H66914   4.587   8.418   5.818 -1.4373  0.0945 -0.6069
  507MOL0     H66915   4.721   8.496   5.729 -0.7695 -0.7340 -1.2362
  507MOL0     H66916   4.433   8.580   5.750  1.1875 -0.7436  1.2804
  507MOL0     H66917   4.551   8.648   5.634  0.8204  0.6580  3.6277
  507MOL0     H66918   4.545   8.389   5.558 -0.4980  0.0734 -2.3004
  507MOL0     H66919   4.419   8.506   5.504 -1.6741 -0.7429 -0.1275
  507MOL0     H66920   4.407   8.298   5.719  2.7453  2.7262  0.6943
  507MOL0     H66921   4.272   8.403   5.712  1.7201  0.7229  3.2455
  507MOL0     H66922   4.190   8.129   5.406 -0.2794  0.6756 -0.5586
  507MOL0     H66923   4.593   8.788   6.047 -0.2915  0.2326  0.1206
  507MOL0     H66924   4.765   8.953   6.125 -0.1587  0.8154 -1.2373
  508MOL0     O66925   3.616   4.526   3.309 -0.5512  0.5719 -0.8817
  508MOL0     C66926   3.576   4.604   3.395 -0.0586  0.5023  0.6453
  508MOL0     O66927   3.573   4.584   3.526  0.6970 -0.0801  0.5565
  508MOL0     C66928   3.633   4.475   3.579 -0.6278 -0.1820  0.3537
  508MOL0     C66929   3.584   4.341   3.556  0.6411  0.5259 -0.3685
  508MOL0     C66930   3.639   4.245   3.638 -0.2739 -0.1765  0.2680
  508MOL0     C66931   3.743   4.270   3.729  0.1177 -0.1825  0.0329
  508MOL0     O66932   3.803   4.177   3.808  0.0656 -0.5045  0.2493
  508MOL0     C66933   3.769   4.045   3.825 -0.3702  0.2058  0.3527
  508MOL0     C66934   3.823   4.009   3.967 -0.1102  0.1539 -0.7921
  508MOL0     C66935   3.777   3.868   4.005 -0.6148  0.6998 -1.2745
  508MOL0     C66936   3.828   3.845   4.149 -0.1509  0.1458 -0.1317
  508MOL0     C66937   3.768   3.708   4.189 -0.6585  0.6277 -0.5463
  508MOL0     C66938   3.792   3.685   4.338  0.0995 -0.1846 -0.2010
  508MOL0     C66939   3.740   3.558   4.397  0.2359  0.3762 -0.2599
  508MOL0     C66940   3.594   3.579   4.443 -0.5061 -0.1339 -0.6162
  508MOL0     N66941   3.539   3.444   4.472 -0.2382  1.1523  0.2542
  508MOL0     C66942   3.591   3.353   4.558  0.0778 -0.3759 -0.0479
  508MOL0     C66943   3.487   3.269   4.584 -0.4933 -0.9553 -0.3232
  508MOL0     C66944   3.488   3.159   4.682 -0.3115 -0.3452 -0.1780
  508MOL0     C66945   3.419   3.206   4.810  0.7730 -0.4746 -0.5385
  508MOL0     C66946   3.378   3.111   4.920  0.6474  1.7950  0.0982
  508MOL0     C66947   3.490   3.057   5.008 -0.3920 -0.5125  0.0605
  508MOL0     O66948   3.580   2.984   4.927 -0.6670  0.5078  0.5052
  508MOL0     C66949   3.552   2.848   4.909  0.2085  1.1793  0.4979
  508MOL0     C66950   3.571   2.815   4.772  0.3565 -0.3440 -0.1068
  508MOL0     C66951   3.543   2.686   4.722 -0.4169 -1.2736 -0.9104
  508MOL0     C66952   3.491   2.586   4.809  0.4095  0.7079 -0.2808
  508MOL0     C66953   3.436   2.459   4.757  0.4620  0.0088 -0.1099
  508MOL0     O66954   3.479   2.435   4.621 -0.4194  0.0729  0.6462
  508MOL0     C66955   3.475   2.311   4.558 -0.0970 -0.7883 -0.4823
  508MOL0     C66956   3.474   2.197   4.624 -0.2939  0.8479  0.0450
  508MOL0     C66957   3.488   2.073   4.555 -1.3130 -0.3650 -0.3053
  508MOL0     C66958   3.507   2.062   4.416  0.2419 -0.0246  0.0704
  508MOL0     O66959   3.518   1.941   4.352 -0.0561 -0.0853 -0.1776
  508MOL0     C66960   3.510   1.935   4.205 -0.0591 -0.4995 -0.0223
  508MOL0     C66961   3.642   1.946   4.126 -0.1371 -0.4109 -0.3480
  508MOL0     C66962   3.639   1.906   3.976 -0.2095 -0.6742  0.1977
  508MOL0     C66963   3.519   1.987   3.908  0.2011 -0.5624  0.7026
  508MOL0     C66964   3.539   1.971   3.754 -0.2293 -0.5151 -0.2119
  508MOL0     C66965   3.427   2.056   3.682  0.5529  0.8100  0.4046
  508MOL0     C66966   3.443   2.080   3.533  0.6092 -0.0286 -0.3695
  508MOL0     C66967   3.363   2.197   3.496 -0.7181 -0.7287  1.1558
  508MOL0    Cl66968   3.449   2.343   3.556 -0.3124 -0.2085 -0.0763
  508MOL0     C66969   3.512   2.188   4.351  0.0888 -0.4680 -0.1011
  508MOL0     C66970   3.506   2.311   4.420 -0.0918  0.7326 -0.5411
  508MOL0     O66971   3.360   2.390   4.826  0.4959 -0.5234 -0.2237
  508MOL0     C66972   3.478   2.616   4.946  0.9361 -0.2728  0.2501
  508MOL0     C66973   3.508   2.746   4.996  0.6444  0.0758  1.4070
  508MOL0     N66974   3.378   3.294   4.498 -0.3150 -0.2880  0.0268
  508MOL0     N66975   3.419   3.394   4.428 -0.3287  0.2631  0.4877
  508MOL0     C66976   3.800   4.397   3.734  0.3458  0.9335  0.4442
  508MOL0     C66977   3.744   4.498   3.662 -0.1689 -0.6591 -0.1127
  508MOL0     C66978   3.557   4.749   3.364 -0.0260 -1.0342  0.5707
  508MOL0     C66979   3.601   4.788   3.242  0.1558  0.0087 -0.3616
  508MOL0     C66980   3.609   4.923   3.209  0.1751  0.2274  0.2330
  508MOL0     C66981   3.565   5.015   3.303 -0.2118  0.0862 -0.3337
  508MOL0     O66982   3.583   5.146   3.289 -0.2534 -0.3760 -0.1752
  508MOL0     C66983   3.648   5.218   3.182 -0.4684 -0.2494  0.0496
  508MOL0     C66984   3.797   5.207   3.207  0.4597  0.8725  0.3676
  508MOL0     C66985   3.845   5.243   3.345  0.4761 -0.1399 -0.7487
  508MOL0     C66986   3.841   5.394   3.385 -0.1144 -0.1142  0.2379
  508MOL0     C66987   3.908   5.417   3.514 -0.2544 -0.3135 -1.2767
  508MOL0     C66988   3.934   5.463   3.624 -0.3509 -0.4014  0.2644
  508MOL0     C66989   3.508   4.980   3.426 -0.9096  1.1444  0.9801
  508MOL0     C66990   3.496   4.841   3.454  0.2058 -0.6844  0.3638
  508MOL0     H66991   3.509   4.312   3.483 -0.1799 -1.1394  1.0433
  508MOL0     H66992   3.601   4.146   3.615  1.7238 -0.4824 -2.1763
  508MOL0     H66993   3.815   3.979   3.751  1.8665  0.4314  1.4665
  508MOL0     H66994   3.660   4.038   3.822 -0.3453 -3.2760  2.1309
  508MOL0     H66995   3.780   4.080   4.038 -0.4481 -3.2760  2.8162
  508MOL0     H66996   3.932   4.023   3.962 -0.0649  1.9722  2.2971
  508MOL0     H66997   3.834   3.805   3.936  0.3279 -0.8170  0.7772
  508MOL0     H66998   3.670   3.852   3.990 -1.4613  4.7310 -0.5110
  508MOL0     H66999   3.937   3.844   4.161 -0.0343 -1.6472 -1.0739
  508MOL0     H67000   3.784   3.921   4.215 -1.0025  1.4457 -2.1194
  508MOL0     H67001   3.796   3.626   4.122 -2.5782 -0.6104  0.0687
  508MOL0     H67002   3.660   3.719   4.176 -0.4641  0.0202 -3.1149
  508MOL0     H67003   3.754   3.768   4.398 -1.5978 -0.6492 -0.5757
  508MOL0     H67004   3.901   3.685   4.346  0.8298 -1.1501 -5.7395
  508MOL0     H67005   3.739   3.480   4.321  0.9967 -0.7108  0.8083
  508MOL0     H67006   3.808   3.519   4.474  1.4574 -2.3059 -2.5153
  508MOL0     H67007   3.537   3.618   4.359  1.3639  2.9950 -0.5783
  508MOL0     H67008   3.585   3.645   4.530 -1.8007 -1.3716  0.2291
  508MOL0     H67009   3.676   3.352   4.626 -0.8656 -3.2593  1.2653
  508MOL0     H67010   3.589   3.121   4.695  1.1083  3.1211  0.0152
  508MOL0     H67011   3.423   3.079   4.644  0.4023 -1.1912  0.3528
  508MOL0     H67012   3.321   3.249   4.787 -0.4038 -1.2924  2.4584
  508MOL0     H67013   3.471   3.288   4.860  1.1263  1.1706 -3.3581
  508MOL0     H67014   3.313   3.161   4.993 -0.7798  1.8291 -1.1430
  508MOL0     H67015   3.308   3.035   4.885 -2.6080  4.1246  1.0045
  508MOL0     H67016   3.447   2.999   5.090  2.3686  0.2470  2.1885
  508MOL0     H67017   3.556   3.128   5.060  0.2999 -0.8251 -0.3777
  508MOL0     H67018   3.617   2.883   4.701 -0.8285  1.2899  0.6363
  508MOL0     H67019   3.551   2.652   4.619 -3.5471 -2.0731 -1.0066
  508MOL0     H67020   3.475   2.187   4.732 -0.7300  4.0083  0.4506
  508MOL0     H67021   3.481   1.986   4.620 -4.2260  0.0038  0.0102
  508MOL0     H67022   3.432   2.000   4.164 -1.3885 -0.7265  1.9983
  508MOL0     H67023   3.486   1.834   4.168  1.3472 -0.8444 -0.0361
  508MOL0     H67024   3.712   1.883   4.181  0.5370 -2.2507 -3.0661
  508MOL0     H67025   3.664   2.053   4.131 -1.0736 -0.2756  1.5609
  508MOL0     H67026   3.609   1.802   3.961 -0.6631 -0.2753 -2.0231
  508MOL0     H67027   3.738   1.922   3.932 -0.1715  0.7890  0.7370
  508MOL0     H67028   3.431   1.937   3.949  0.7641  1.2241  4.5578
  508MOL0     H67029   3.519   2.092   3.940  0.1151  0.5712 -2.6415
  508MOL0     H67030   3.531   1.865   3.729  0.6868 -1.0250  1.4987
  508MOL0     H67031   3.632   2.003   3.707 -0.6879 -1.8935 -2.1982
  508MOL0     H67032   3.424   2.143   3.748 -2.6003  0.7467  0.4779
  508MOL0     H67033   3.333   2.001   3.690 -0.1821  1.0564 -4.0095
  508MOL0     H67034   3.542   2.095   3.490 -0.8241  0.4573 -3.7819
  508MOL0     H67035   3.403   1.993   3.481  0.5041 -1.3852  1.8456
  508MOL0     H67036   3.257   2.202   3.519 -1.3825  0.5041 -1.7483
  508MOL0     H67037   3.372   2.205   3.388  1.3290 -1.0204  1.2634
  508MOL0     H67038   3.543   2.189   4.247 -0.4296  0.0749 -0.2591
  508MOL0     H67039   3.528   2.399   4.361  0.7996 -0.8929 -2.7445
  508MOL0     H67040   3.434   2.548   5.019 -1.0922  1.5551  0.8387
  508MOL0     H67041   3.497   2.763   5.102 -0.3132 -4.2451  2.1843
  508MOL0     H67042   3.887   4.410   3.797  1.1535 -0.2405 -0.4036
  508MOL0     H67043   3.779   4.597   3.689  2.0146 -1.8348  1.8237
  508MOL0     H67044   3.632   4.715   3.168  3.9014  0.0570  0.9583
  508MOL0     H67045   3.648   4.946   3.111 -0.3822  3.7246  0.6744
  508MOL0     H67046   3.613   5.321   3.184 -0.1686 -0.1253 -0.8012
  508MOL0     H67047   3.622   5.168   3.088 -3.9597 -3.2414  2.3097
  508MOL0     H67048   3.816   5.100   3.194  2.2478  1.1131  0.7338
  508MOL0     H67049   3.850   5.261   3.128 -0.3703 -1.4410 -1.9022
  508MOL0     H67050   3.948   5.208   3.357  1.3650  2.9322  2.3090
  508MOL0     H67051   3.800   5.181   3.423  3.6301  1.0431  2.3089
  508MOL0     H67052   3.877   5.468   3.313 -3.8095  0.2131 -1.5019
  508MOL0     H67053   3.736   5.422   3.395  0.3734  2.1031 -0.2536
  508MOL0     H67054   3.962   5.491   3.723  1.3721  0.3506 -0.3767
  508MOL0     H67055   3.465   5.045   3.502 -2.9494 -2.1449  2.8800
  508MOL0     H67056   3.459   4.801   3.548 -0.5780 -0.5759  0.1098
  509MOL0     O67057   1.059  10.473   0.275  0.4487 -0.4516  0.2387
  509MOL0     C67058   1.097  10.457   0.154  0.1949  0.2854 -0.4561
  509MOL0     O67059   1.029  10.502   0.047 -0.0196  0.5483  0.3046
  509MOL0     C67060   0.893  10.512   0.037 -0.4432 -0.4698 -0.6822
  509MOL0     C67061   0.844  10.459  -0.085  0.0936 -0.1179  0.7352
  509MOL0     C67062   0.707  10.486  -0.123  0.0409  0.6006 -0.2077
  509MOL0     C67063   0.614  10.563  -0.037  0.6642 -0.3465  0.5292
  509MOL0     O67064   0.489  10.606  -0.072  0.5763  0.0903  0.4724
  509MOL0     C67065   0.427  10.547  -0.191  0.1668 -0.0023 -0.5409
  509MOL0     C67066   0.286  10.606  -0.196  0.3235 -0.0784  0.4534
  509MOL0     C67067   0.189  10.546  -0.289  0.7438 -0.6811  0.4681
  509MOL0     C67068   0.208  10.593  -0.434 -0.0554 -0.1798  0.5216
  509MOL0     C67069   0.114  10.521  -0.530 -0.7173  0.3400  0.6722
  509MOL0     C67070   0.151  10.557  -0.668  1.0613 -0.7014 -0.0338
  509MOL0     C67071   0.084  10.476  -0.784  0.5980 -0.1022 -0.3227
  509MOL0     C67072  -0.047  10.529  -0.837  0.6573  0.0844  0.2823
  509MOL0     N67073  -0.155  10.544  -0.739 -0.2632 -0.0359  0.2932
  509MOL0     C67074  -0.176  10.662  -0.686 -0.0462  0.1460  0.2946
  509MOL0     C67075  -0.246  10.628  -0.574 -0.1704  0.4528  0.0190
  509MOL0     C67076  -0.318  10.731  -0.498  0.3363 -0.4147 -1.1751
  509MOL0     C67077  -0.245  10.783  -0.369  0.2918 -0.4384  0.1147
  509MOL0     C67078  -0.250  10.681  -0.254  0.7375 -0.3083  0.1892
  509MOL0     C67079  -0.190  10.732  -0.129 -0.6628 -0.1402 -0.3084
  509MOL0     O67080  -0.247  10.852  -0.065  0.4642  0.5504 -0.6853
  509MOL0     C67081  -0.203  10.886   0.070  0.3530  0.2533  0.6412
  509MOL0     C67082  -0.242  11.012   0.111  0.4064  0.0649  0.0085
  509MOL0     C67083  -0.213  11.051   0.246 -0.0874 -0.3958 -0.1673
  509MOL0     C67084  -0.144  10.963   0.337  0.9205 -0.3228 -0.4940
  509MOL0     C67085  -0.104  11.017   0.469 -0.7546  0.3534 -0.0090
  509MOL0     O67086  -0.109  11.152   0.496  0.1947  0.1163  0.5395
  509MOL0     C67087  -0.044  11.198   0.614  0.3341  0.0299  0.2085
  509MOL0     C67088  -0.131  11.211   0.721  0.3312  0.0857  0.0922
  509MOL0     C67089  -0.092  11.273   0.833 -1.1576 -0.3685 -1.1247
  509MOL0     C67090   0.043  11.322   0.850 -0.2273 -0.2080 -0.1449
  509MOL0     O67091   0.088  11.363   0.975  1.1673 -0.6207 -0.3086
  509MOL0     C67092   0.020  11.375   1.099 -0.6323 -0.4167  0.3325
  509MOL0     C67093  -0.040  11.518   1.105  0.8836 -0.7161  0.0083
  509MOL0     C67094  -0.155  11.529   1.213 -0.1700  0.3015 -0.0954
  509MOL0     C67095  -0.106  11.482   1.352  0.3978  0.3447 -0.2059
  509MOL0     C67096   0.033  11.545   1.389  0.2004 -0.2565 -0.8074
  509MOL0     C67097   0.060  11.533   1.537  0.2817 -0.2794  0.5209
  509MOL0     C67098   0.206  11.584   1.567 -0.6635  0.0296  0.2913
  509MOL0     C67099   0.232  11.593   1.710  0.3586 -0.8728  0.2221
  509MOL0    Cl67100   0.404  11.636   1.744 -0.2518  0.1490  0.0059
  509MOL0     C67101   0.125  11.323   0.737  0.4155 -0.8109  1.0153
  509MOL0     C67102   0.082  11.259   0.618  0.1619  0.1004  0.2089
  509MOL0     O67103  -0.074  10.929   0.557  0.5775 -0.1742  1.0712
  509MOL0     C67104  -0.115  10.834   0.292 -0.8291  0.0371 -0.5502
  509MOL0     C67105  -0.152  10.796   0.163 -0.8900 -0.4232  0.2336
  509MOL0     N67106  -0.262  10.488  -0.558 -0.6433 -0.4787  0.0571
  509MOL0     N67107  -0.198  10.443  -0.667 -0.3977  0.6191  0.5059
  509MOL0     C67108   0.665  10.604   0.089  0.1136 -0.1502 -0.0229
  509MOL0     C67109   0.797  10.575   0.131 -0.6778 -0.2728 -0.3436
  509MOL0     C67110   1.228  10.408   0.128 -0.8500 -0.7563 -0.0663
  509MOL0     C67111   1.266  10.328   0.018  0.1831 -0.6570 -0.3319
  509MOL0     C67112   1.397  10.270   0.019  0.7746 -0.0122 -0.5092
  509MOL0     C67113   1.503  10.321   0.097 -0.0584 -0.8181  0.2886
  509MOL0     O67114   1.634  10.289   0.092  0.2743  0.7290  0.5031
  509MOL0     C67115   1.665  10.180   0.010  0.2440  0.1741  0.7169
  509MOL0     C67116   1.798  10.128   0.054 -0.4441 -0.1109 -1.5426
  509MOL0     C67117   1.911  10.233   0.039  0.1552 -0.0811 -0.9103
  509MOL0     C67118   2.055  10.177   0.050 -0.1521  0.7136 -0.9604
  509MOL0     C67119   2.082  10.159   0.189 -0.2725 -0.1098 -1.5066
  509MOL0     C67120   2.089  10.148   0.307 -0.0424 -0.2954 -1.1558
  509MOL0     C67121   1.470  10.410   0.200 -0.5826  0.5313  1.6105
  509MOL0     C67122   1.333  10.445   0.217 -0.4715 -0.2518 -1.0426
  509MOL0     H67123   0.910  10.422  -0.164  0.9141 -0.6860  1.6583
  509MOL0     H67124   0.680  10.460  -0.224 -1.5101  0.2218  0.2770
  509MOL0     H67125   0.425  10.440  -0.168  0.2367  0.2997  0.9540
  509MOL0     H67126   0.492  10.579  -0.273  0.9041 -0.9344 -0.3429
  509MOL0     H67127   0.279  10.715  -0.207 -0.9390 -0.2224 -0.4594
  509MOL0     H67128   0.227  10.579  -0.107 -1.4282  2.3489  0.1362
  509MOL0     H67129   0.083  10.556  -0.266 -0.5277 -1.1256 -4.3036
  509MOL0     H67130   0.215  10.439  -0.282  2.0697 -0.5709 -1.8046
  509MOL0     H67131   0.197  10.701  -0.436 -0.4350 -0.2117 -1.8903
  509MOL0     H67132   0.311  10.571  -0.465  1.2899  3.5403  1.8250
  509MOL0     H67133   0.008  10.535  -0.509 -1.4706 -0.6259 -2.0402
  509MOL0     H67134   0.123  10.412  -0.519 -2.0073  0.2888  1.4810
  509MOL0     H67135   0.259  10.543  -0.676  0.9422 -0.6123 -5.1938
  509MOL0     H67136   0.128  10.662  -0.688 -1.0278 -1.4122 -1.7262
  509MOL0     H67137   0.140  10.471  -0.878  0.6509  2.3865 -0.4834
  509MOL0     H67138   0.081  10.373  -0.745  1.6507  1.1752  3.5774
  509MOL0     H67139  -0.098  10.468  -0.912  0.3424  2.8201 -1.8996
  509MOL0     H67140  -0.034  10.630  -0.879  1.2433  1.1718  2.9026
  509MOL0     H67141  -0.154  10.762  -0.724  1.9235 -0.3678 -0.0285
  509MOL0     H67142  -0.418  10.706  -0.461  0.7402  1.9221  1.9932
  509MOL0     H67143  -0.342  10.817  -0.560 -1.9211  0.1821  0.4121
  509MOL0     H67144  -0.282  10.882  -0.343  0.4159 -0.2546 -0.4102
  509MOL0     H67145  -0.140  10.803  -0.392  0.7470 -2.1074  0.5832
  509MOL0     H67146  -0.353  10.655  -0.227  0.5038 -1.7097 -1.8944
  509MOL0     H67147  -0.197  10.588  -0.275 -0.2175 -1.0079  0.7908
  509MOL0     H67148  -0.084  10.755  -0.146 -0.3112 -1.3940  0.0411
  509MOL0     H67149  -0.193  10.645  -0.062  1.5929 -1.8837 -2.2473
  509MOL0     H67150  -0.305  11.073   0.047 -1.1779  0.9699  2.2990
  509MOL0     H67151  -0.241  11.147   0.290 -2.0736 -0.7189 -0.6473
  509MOL0     H67152  -0.230  11.165   0.719  0.1566  0.4081  1.1337
  509MOL0     H67153  -0.147  11.277   0.926  1.4866 -0.5876  0.5368
  509MOL0     H67154   0.096  11.353   1.175 -0.7411  1.0909  0.9174
  509MOL0     H67155  -0.049  11.292   1.112 -2.2225  1.1186  2.3379
  509MOL0     H67156  -0.088  11.539   1.009 -0.4294 -0.9634  0.5983
  509MOL0     H67157   0.035  11.596   1.121 -1.1650  2.0804 -2.8201
  509MOL0     H67158  -0.235  11.464   1.175  1.4976 -2.1177  0.2901
  509MOL0     H67159  -0.202  11.627   1.216  1.0519  0.8779  0.9349
  509MOL0     H67160  -0.189  11.495   1.422  0.8687 -1.7839  0.8065
  509MOL0     H67161  -0.088  11.375   1.349  0.1508 -0.0149  4.4392
  509MOL0     H67162   0.035  11.650   1.360 -0.5153  0.0540  0.2106
  509MOL0     H67163   0.112  11.490   1.337  1.9834  0.4415  1.0513
  509MOL0     H67164   0.047  11.429   1.567 -2.2968 -0.0510  0.4309
  509MOL0     H67165  -0.013  11.590   1.595 -0.3259  0.1821 -0.6711
  509MOL0     H67166   0.261  11.501   1.522 -0.2974  0.2169  0.3861
  509MOL0     H67167   0.251  11.672   1.519 -0.1086 -0.8522 -0.8627
  509MOL0     H67168   0.199  11.503   1.763  0.2407 -1.0724 -0.1844
  509MOL0     H67169   0.168  11.673   1.747  0.8977  0.2066 -1.0846
  509MOL0     H67170   0.225  11.366   0.735 -0.1445  0.5699 -1.3300
  509MOL0     H67171   0.131  11.256   0.522 -1.3739 -3.0080 -0.6220
  509MOL0     H67172  -0.071  10.763   0.361  2.5314  0.1436 -2.3572
  509MOL0     H67173  -0.132  10.696   0.124 -1.5372 -0.3968 -0.1863
  509MOL0     H67174   0.597  10.660   0.153  0.1126  0.8849 -0.9087
  509MOL0     H67175   0.828  10.600   0.232 -0.0767  2.6999 -1.1422
  509MOL0     H67176   1.179  10.301  -0.040 -2.1318  1.0077  2.1201
  509MOL0     H67177   1.401  10.183  -0.046 -0.3607 -0.9951  0.6750
  509MOL0     H67178   1.668  10.217  -0.093  1.3836 -0.9783  0.3065
  509MOL0     H67179   1.592  10.100   0.018 -1.3937  1.4408 -0.6095
  509MOL0     H67180   1.796  10.087   0.155 -0.7557 -0.8013 -1.8190
  509MOL0     H67181   1.818  10.038  -0.006  2.4020 -3.1149  3.2603
  509MOL0     H67182   1.884  10.316   0.105 -2.6826 -0.5194 -1.4080
  509MOL0     H67183   1.913  10.276  -0.061 -0.3379 -0.8971 -1.2810
  509MOL0     H67184   2.072  10.081   0.001 -1.0645 -0.5691  1.0818
  509MOL0     H67185   2.123  10.255   0.017  1.1619  0.7205  1.4916
  509MOL0     H67186   2.094  10.128   0.412 -1.5042  2.4872 -0.4554
  509MOL0     H67187   1.546  10.449   0.268  1.2356  0.4443 -0.2851
  509MOL0     H67188   1.311  10.509   0.302  1.5760 -0.8525 -0.0080
  510MOL0     O67189   7.912   3.147   0.753 -0.2939 -0.3281  0.9323
  510MOL0     C67190   7.805   3.144   0.814 -0.9180 -0.1278  0.5233
  510MOL0     O67191   7.787   3.123   0.949 -0.0662  0.4040  1.0105
  510MOL0     C67192   7.890   3.110   1.033  0.1204  0.2210 -0.2489
  510MOL0     C67193   7.876   2.995   1.127 -0.1080  0.3880  0.9530
  510MOL0     C67194   7.986   2.985   1.214 -0.0726 -0.3002  0.9140
  510MOL0     C67195   8.094   3.069   1.217 -0.1140  0.4759 -0.1782
  510MOL0     O67196   8.196   3.071   1.319  0.1340 -0.7354  0.1568
  510MOL0     C67197   8.181   3.000   1.448  0.7473  0.5267 -0.7348
  510MOL0     C67198   8.245   3.079   1.558  0.4420  0.4666  0.9723
  510MOL0     C67199   8.389   3.115   1.528  0.1156  0.4389 -0.0276
  510MOL0     C67200   8.488   2.998   1.504 -0.4750 -0.5969  0.3671
  510MOL0     C67201   8.563   3.007   1.362  0.2480  0.2052  0.7785
  510MOL0     C67202   8.661   2.893   1.345  0.0345 -0.2242 -0.3478
  510MOL0     C67203   8.737   2.905   1.206 -0.2163 -0.5968  1.1870
  510MOL0     C67204   8.657   2.956   1.082  0.3506  0.1115  0.4576
  510MOL0     N67205   8.737   2.947   0.956  0.1010 -0.6226  0.3079
  510MOL0     C67206   8.700   2.872   0.851  0.4297 -0.5913  0.3589
  510MOL0     C67207   8.797   2.899   0.755 -0.5222  0.4047 -0.7888
  510MOL0     C67208   8.797   2.833   0.619 -0.0597 -1.1089  0.0725
  510MOL0     C67209   8.699   2.906   0.519  0.4539  0.4770  0.0739
  510MOL0     C67210   8.713   3.059   0.520  0.8962  0.6808  0.2985
  510MOL0     C67211   8.606   3.103   0.415  0.6743 -0.1686 -0.2500
  510MOL0     O67212   8.614   3.038   0.295 -0.6031  0.5929  1.1766
  510MOL0     C67213   8.567   3.108   0.187  0.2990 -0.0127  0.2592
  510MOL0     C67214   8.443   3.178   0.193 -0.6861  0.9943  0.1249
  510MOL0     C67215   8.397   3.250   0.082  0.4181  0.6365 -0.3898
  510MOL0     C67216   8.468   3.255  -0.037 -0.2832  0.7135  0.0374
  510MOL0     C67217   8.425   3.350  -0.140 -0.0749 -0.7007  0.6590
  510MOL0     O67218   8.301   3.403  -0.129  0.8448  0.2362 -0.1438
  510MOL0     C67219   8.260   3.459  -0.250  0.1770  0.4159  0.3231
  510MOL0     C67220   8.257   3.374  -0.355 -0.2622 -0.2075  0.7966
  510MOL0     C67221   8.207   3.422  -0.481  0.0270  0.5891  0.3248
  510MOL0     C67222   8.154   3.553  -0.498 -0.7922  0.5837 -0.5160
  510MOL0     O67223   8.104   3.598  -0.612 -0.1986  0.1734 -0.4463
  510MOL0     C67224   8.024   3.506  -0.683 -0.0364  0.0035  0.4968
  510MOL0     C67225   7.911   3.578  -0.767 -0.7383 -0.8881 -1.9374
  510MOL0     C67226   7.985   3.660  -0.871 -0.6110 -0.2540  0.3284
  510MOL0     C67227   7.885   3.720  -0.966  0.1975 -0.7150 -0.4874
  510MOL0     C67228   7.932   3.850  -1.041 -0.7533  0.0812 -0.3463
  510MOL0     C67229   7.821   3.883  -1.140 -0.6546  0.9859 -0.0985
  510MOL0     C67230   7.868   3.985  -1.242  0.5363  0.5517  0.5341
  510MOL0     C67231   7.836   3.941  -1.385 -0.0841  0.0648  0.1533
  510MOL0    Cl67232   7.669   3.901  -1.394 -0.0207 -0.0855  0.0396
  510MOL0     C67233   8.155   3.635  -0.396  0.0724 -0.0488 -0.3916
  510MOL0     C67234   8.205   3.589  -0.270  1.1013 -0.3580  0.5147
  510MOL0     O67235   8.506   3.378  -0.232  0.1150  0.9580  0.3521
  510MOL0     C67236   8.590   3.171  -0.044 -0.0004 -0.9400 -0.0628
  510MOL0     C67237   8.632   3.103   0.067 -0.6298  0.1152 -0.0907
  510MOL0     N67238   8.892   2.983   0.808  0.6581  0.5229  0.2424
  510MOL0     N67239   8.853   3.014   0.924 -0.3735 -1.0529  0.2260
  510MOL0     C67240   8.085   3.188   1.144  0.3944 -0.9406  0.4235
  510MOL0     C67241   7.983   3.206   1.049 -0.8625  0.4549  0.1140
  510MOL0     C67242   7.687   3.175   0.734  0.1901 -0.2657 -0.0995
  510MOL0     C67243   7.685   3.165   0.592 -0.0239 -0.1420  0.2294
  510MOL0     C67244   7.569   3.213   0.524 -1.0029  1.0800 -0.2311
  510MOL0     C67245   7.452   3.250   0.592  0.3685 -0.4455 -0.0492
  510MOL0     O67246   7.341   3.255   0.507 -0.4647  0.4034  0.3653
  510MOL0     C67247   7.218   3.285   0.565 -0.0525 -0.0279 -0.3710
  510MOL0     C67248   7.177   3.156   0.644  0.5529 -0.5749 -0.0100
  510MOL0     C67249   7.024   3.178   0.683  0.6148 -0.5725  0.2804
  510MOL0     C67250   6.976   3.037   0.740  0.6117  0.2169  0.8231
  510MOL0     C67251   6.976   2.938   0.625  0.0670 -0.2280  0.3858
  510MOL0     C67252   6.975   2.856   0.540 -0.0202 -0.6499  0.5535
  510MOL0     C67253   7.463   3.285   0.728  1.0914  0.4667  0.5163
  510MOL0     C67254   7.568   3.231   0.799  0.4341 -0.4415 -0.3538
  510MOL0     H67255   7.793   2.925   1.119  1.0362 -0.8352 -0.9966
  510MOL0     H67256   7.977   2.904   1.286 -2.2773 -1.9409 -1.0749
  510MOL0     H67257   8.234   2.905   1.442 -3.0832 -1.7359 -2.1168
  510MOL0     H67258   8.078   2.968   1.462  0.8683 -0.1974 -1.4191
  510MOL0     H67259   8.233   3.027   1.653  2.0359  2.8395  2.6020
  510MOL0     H67260   8.197   3.176   1.573  0.6065  0.2123  3.6880
  510MOL0     H67261   8.422   3.171   1.617 -1.3542  0.9639  0.2194
  510MOL0     H67262   8.384   3.187   1.446  0.4530  1.2938  0.6890
  510MOL0     H67263   8.572   3.000   1.573  2.1453  0.1236 -2.5968
  510MOL0     H67264   8.433   2.905   1.490 -3.0717  0.9910 -0.6319
  510MOL0     H67265   8.601   3.109   1.358 -1.6874  0.9370 -0.8050
  510MOL0     H67266   8.495   3.002   1.276  1.6071  1.2111 -0.3971
  510MOL0     H67267   8.604   2.800   1.343 -4.3083  2.0306  2.7252
  510MOL0     H67268   8.737   2.887   1.424  1.7845 -1.3914 -2.0373
  510MOL0     H67269   8.831   2.959   1.218 -0.0701 -0.5468 -0.1403
  510MOL0     H67270   8.777   2.814   1.162  1.0144  0.7128 -0.5100
  510MOL0     H67271   8.632   3.061   1.095  0.2672  0.4112 -1.7269
  510MOL0     H67272   8.568   2.894   1.072 -0.8189  1.9427 -1.2031
  510MOL0     H67273   8.617   2.804   0.835 -1.7654  1.8470  0.6748
  510MOL0     H67274   8.770   2.728   0.632 -0.4314 -0.7516  2.7931
  510MOL0     H67275   8.898   2.849   0.580  0.4398 -2.4979  0.7630
  510MOL0     H67276   8.600   2.868   0.546  0.8082 -1.6593 -1.4120
  510MOL0     H67277   8.728   2.876   0.418 -2.9507  1.3419 -1.3076
  510MOL0     H67278   8.688   3.097   0.619  1.4283  1.0654  0.2854
  510MOL0     H67279   8.810   3.088   0.480  0.1437  3.1229  0.0484
  510MOL0     H67280   8.615   3.212   0.409 -0.5627  0.0652  1.3718
  510MOL0     H67281   8.519   3.088   0.479 -0.7132 -0.7298 -2.1779
  510MOL0     H67282   8.382   3.160   0.281  1.2615 -1.9983  1.0519
  510MOL0     H67283   8.309   3.313   0.091  1.6173  2.5833 -1.5350
  510MOL0     H67284   8.288   3.271  -0.342  0.1985  0.0585  1.9355
  510MOL0     H67285   8.194   3.348  -0.559 -1.6221  2.3050 -1.1202
  510MOL0     H67286   7.968   3.442  -0.615 -0.6258  0.4037  0.3858
  510MOL0     H67287   8.088   3.450  -0.752  3.8579  2.8322  1.4430
  510MOL0     H67288   7.842   3.637  -0.706  1.0848 -2.0926  1.5907
  510MOL0     H67289   7.858   3.508  -0.832 -0.1543  1.8406 -5.6486
  510MOL0     H67290   8.048   3.592  -0.930 -1.7237 -2.4236  1.5048
  510MOL0     H67291   8.046   3.740  -0.827 -3.6009  4.0420 -2.5702
  510MOL0     H67292   7.866   3.653  -1.050 -0.9120 -0.2846 -0.5988
  510MOL0     H67293   7.789   3.748  -0.921 -2.3575 -1.4991 -4.8831
  510MOL0     H67294   8.026   3.825  -1.091 -1.0168 -1.9037  0.0616
  510MOL0     H67295   7.944   3.933  -0.970 -0.6981  0.1803 -0.4723
  510MOL0     H67296   7.726   3.907  -1.091 -0.7721 -0.2468  0.3185
  510MOL0     H67297   7.814   3.789  -1.197  2.6716 -0.1207  1.0855
  510MOL0     H67298   7.826   4.086  -1.230  0.6717  0.4770  1.8595
  510MOL0     H67299   7.975   4.002  -1.226  0.6502  1.8618 -1.3302
  510MOL0     H67300   7.887   3.848  -1.411 -2.2927 -1.0352 -0.4881
  510MOL0     H67301   7.847   4.013  -1.467  0.2911 -0.3214 -0.1406
  510MOL0     H67302   8.119   3.734  -0.422  1.2674 -0.3313 -3.5011
  510MOL0     H67303   8.195   3.666  -0.194 -0.4419  2.1677 -2.0178
  510MOL0     H67304   8.656   3.158  -0.129  2.5187 -0.4433  1.6964
  510MOL0     H67305   8.720   3.039   0.069  0.6551  1.8310  0.1912
  510MOL0     H67306   8.152   3.271   1.164 -0.1294 -0.4483  0.1646
  510MOL0     H67307   7.983   3.305   1.005 -0.6174  2.5022  4.2157
  510MOL0     H67308   7.769   3.130   0.533 -0.0974 -0.0283  0.0581
  510MOL0     H67309   7.564   3.215   0.416  2.4083  0.5955 -0.5091
  510MOL0     H67310   7.154   3.310   0.481 -0.9693  2.4563  0.9681
  510MOL0     H67311   7.221   3.378   0.622  1.0697 -1.2551  1.7183
  510MOL0     H67312   7.184   3.068   0.579  0.1397  0.1899 -1.1157
  510MOL0     H67313   7.248   3.155   0.727  3.4400  1.0907 -2.2216
  510MOL0     H67314   6.963   3.209   0.598  0.7003 -1.0634  0.0360
  510MOL0     H67315   7.004   3.242   0.769  0.8335 -0.7655  0.4774
  510MOL0     H67316   7.045   2.997   0.815  2.8256  1.5225 -0.3912
  510MOL0     H67317   6.879   3.045   0.788  0.8291  1.3996  1.0843
  510MOL0     H67318   6.981   2.774   0.470  0.1903  0.3644 -0.6517
  510MOL0     H67319   7.378   3.332   0.776  1.5127 -0.9388  2.7680
  510MOL0     H67320   7.572   3.254   0.905 -0.7472 -1.0022 -0.1730
  511MOL0     O67321   3.136   5.810   3.060  0.0394  0.2863  0.3901
  511MOL0     C67322   3.254   5.842   3.060  0.9428  0.0753 -0.1072
  511MOL0     O67323   3.307   5.970   3.059  0.0899  0.4556 -0.7453
  511MOL0     C67324   3.224   6.086   3.083  0.3542  0.3295 -0.3657
  511MOL0     C67325   3.111   6.088   3.168  0.4585  0.3911 -0.1293
  511MOL0     C67326   3.031   6.196   3.187  0.0361  0.0676 -0.7726
  511MOL0     C67327   3.058   6.319   3.122  0.6173  1.2300  0.4288
  511MOL0     O67328   2.974   6.428   3.135 -0.3046  0.1193  0.1983
  511MOL0     C67329   2.986   6.530   3.033 -0.5734 -0.1706  1.0243
  511MOL0     C67330   2.883   6.650   3.069  0.8986  0.3196 -0.5219
  511MOL0     C67331   2.877   6.746   2.953 -0.0805  0.1994 -0.4523
  511MOL0     C67332   3.010   6.818   2.925  0.3768 -0.2834 -1.1356
  511MOL0     C67333   2.983   6.910   2.796  0.3381 -0.5885  0.0691
  511MOL0     C67334   3.096   7.017   2.773 -0.5204  0.0655 -0.0606
  511MOL0     C67335   3.083   7.101   2.635 -0.0601  1.2319 -0.2107
  511MOL0     C67336   3.225   7.149   2.606 -0.2389 -0.5189 -0.3317
  511MOL0     N67337   3.294   7.218   2.717  0.3534  0.6017 -0.2725
  511MOL0     C67338   3.243   7.300   2.814 -0.2374 -0.4980  1.2425
  511MOL0     C67339   3.342   7.310   2.903  0.0387  0.1839 -0.6857
  511MOL0     C67340   3.347   7.387   3.035  0.4556 -0.3776 -0.0137
  511MOL0     C67341   3.287   7.528   3.024  0.4839 -0.1997  0.1055
  511MOL0     C67342   3.340   7.605   2.905 -0.0151  0.6314  0.7750
  511MOL0     C67343   3.269   7.745   2.908  0.2928  0.0542 -0.2042
  511MOL0     O67344   3.301   7.812   2.786  0.1978  0.0146 -0.1112
  511MOL0     C67345   3.217   7.924   2.759 -1.1708  0.2515 -0.5392
  511MOL0     C67346   3.269   8.021   2.678 -0.1346 -0.0784  0.2403
  511MOL0     C67347   3.199   8.138   2.649 -0.4854 -0.5908  0.0768
  511MOL0     C67348   3.077   8.165   2.700 -0.0462  0.6756 -0.2146
  511MOL0     C67349   3.006   8.283   2.661  1.1485 -0.5118  1.2033
  511MOL0     O67350   3.049   8.350   2.548  0.3500  0.2942  0.1207
  511MOL0     C67351   3.009   8.475   2.521 -0.4702 -0.2769 -0.9903
  511MOL0     C67352   2.889   8.500   2.462  0.4393  0.2167 -0.6078
  511MOL0     C67353   2.862   8.635   2.432 -0.5628 -0.7602  1.3806
  511MOL0     C67354   2.951   8.747   2.469  0.9212  0.3326  0.0993
  511MOL0     O67355   2.930   8.873   2.407  0.4836  0.4146  0.3595
  511MOL0     C67356   2.806   8.952   2.423  0.7136 -0.5179 -0.7739
  511MOL0     C67357   2.808   9.027   2.551 -0.6636 -0.2919  0.4771
  511MOL0     C67358   2.892   9.159   2.541  0.6238 -0.4584  0.1724
  511MOL0     C67359   2.915   9.220   2.674  0.2519 -0.0254 -0.3105
  511MOL0     C67360   2.784   9.254   2.746  0.3290  0.4759  0.0314
  511MOL0     C67361   2.802   9.349   2.871  0.7253  0.5684 -0.2344
  511MOL0     C67362   2.660   9.367   2.929 -0.8061 -0.2083  0.3033
  511MOL0     C67363   2.669   9.476   3.031  1.2044  0.5188 -0.9042
  511MOL0    Cl67364   2.783   9.445   3.169  0.4579 -0.3497 -0.3029
  511MOL0     C67365   3.064   8.709   2.541 -0.3393 -0.5633  0.0800
  511MOL0     C67366   3.098   8.574   2.565 -0.4062  0.2370  0.9000
  511MOL0     O67367   2.919   8.323   2.738 -0.1711  0.1188  0.4826
  511MOL0     C67368   3.020   8.072   2.790 -0.9380  0.9333  0.2906
  511MOL0     C67369   3.096   7.958   2.821 -0.4690  0.3652  0.7645
  511MOL0     N67370   3.456   7.251   2.855  0.1318  0.3824 -0.3379
  511MOL0     N67371   3.423   7.200   2.742  0.3649  0.7183  0.2056
  511MOL0     C67372   3.170   6.318   3.033  0.8060 -0.1457  0.2306
  511MOL0     C67373   3.253   6.205   3.019 -0.2000  0.4584 -0.1520
  511MOL0     C67374   3.355   5.737   3.031  0.8665 -0.6905 -0.2721
  511MOL0     C67375   3.316   5.615   2.969  0.6343  0.6907 -0.5406
  511MOL0     C67376   3.414   5.527   2.931  0.3113 -0.6249 -0.2453
  511MOL0     C67377   3.547   5.542   2.960 -0.7191 -0.2057 -0.8774
  511MOL0     O67378   3.631   5.434   2.922  0.2295 -0.2131  0.4612
  511MOL0     C67379   3.750   5.472   2.855 -0.1401  0.2212 -0.0661
  511MOL0     C67380   3.723   5.450   2.705  0.1822  0.0999  0.3232
  511MOL0     C67381   3.687   5.297   2.669 -0.3743 -0.1071  0.0247
  511MOL0     C67382   3.816   5.211   2.684 -0.0120 -0.5442  0.0809
  511MOL0     C67383   3.812   5.080   2.613 -0.4586 -0.5275 -0.4911
  511MOL0     C67384   3.806   4.974   2.548  0.3824 -0.5426 -0.6205
  511MOL0     C67385   3.590   5.655   3.035  0.8390  0.2165 -0.7604
  511MOL0     C67386   3.499   5.755   3.058  0.8700  0.2279 -0.3096
  511MOL0     H67387   3.076   5.990   3.199  2.3677  0.4015  2.2866
  511MOL0     H67388   2.934   6.182   3.234  1.0688  0.8113  1.6946
  511MOL0     H67389   2.960   6.488   2.936 -0.7510  2.3467 -0.1142
  511MOL0     H67390   3.087   6.573   3.033 -0.9359  0.8884  3.6058
  511MOL0     H67391   2.918   6.700   3.160  4.6877 -0.5637 -1.3572
  511MOL0     H67392   2.785   6.611   3.099  1.6236 -1.0246  0.2147
  511MOL0     H67393   2.787   6.809   2.959  0.4954  1.2321 -2.0699
  511MOL0     H67394   2.864   6.692   2.859  3.5475 -1.5171 -0.1342
  511MOL0     H67395   3.043   6.882   3.008 -1.6163  1.0335 -1.3018
  511MOL0     H67396   3.093   6.750   2.902  1.0468 -1.1200  2.9143
  511MOL0     H67397   2.892   6.967   2.814  1.4063  0.8997  1.0124
  511MOL0     H67398   2.979   6.863   2.698 -0.4278 -0.3495 -0.0198
  511MOL0     H67399   3.191   6.963   2.771  0.6864  2.0965 -1.4963
  511MOL0     H67400   3.110   7.083   2.858  3.6688 -0.9660  0.2340
  511MOL0     H67401   3.049   7.035   2.556  1.0083 -0.3961  0.6300
  511MOL0     H67402   3.005   7.177   2.645  0.4929  1.8265 -0.3372
  511MOL0     H67403   3.204   7.224   2.529 -0.9639  1.5792  1.8031
  511MOL0     H67404   3.291   7.073   2.563 -1.0596 -0.6125 -1.4799
  511MOL0     H67405   3.140   7.332   2.814  0.7660  3.3135 -1.1254
  511MOL0     H67406   3.449   7.404   3.072 -0.0330 -1.1156  1.8024
  511MOL0     H67407   3.294   7.337   3.116 -0.3294  1.9090  0.9795
  511MOL0     H67408   3.309   7.581   3.117  0.6128 -0.0947  0.0159
  511MOL0     H67409   3.178   7.528   3.012  0.3891 -2.4208  0.3940
  511MOL0     H67410   3.448   7.620   2.915  0.9367 -3.6414 -0.9081
  511MOL0     H67411   3.313   7.551   2.814  0.6959  2.7954 -0.8011
  511MOL0     H67412   3.284   7.806   2.997  1.2469  2.3972 -1.8632
  511MOL0     H67413   3.162   7.723   2.916 -0.2599  3.0478  3.2448
  511MOL0     H67414   3.373   8.000   2.654 -0.5606 -2.2653  0.0748
  511MOL0     H67415   3.246   8.198   2.573 -0.8676 -1.1870 -0.6489
  511MOL0     H67416   2.825   8.417   2.436  0.5654  0.2952 -1.1830
  511MOL0     H67417   2.775   8.653   2.369  0.2387  2.0809  0.9603
  511MOL0     H67418   2.717   8.888   2.413  0.0050  0.4293 -0.6137
  511MOL0     H67419   2.794   9.018   2.336 -1.7987 -0.4281 -0.4244
  511MOL0     H67420   2.842   8.962   2.632 -0.7100 -0.1789  0.5895
  511MOL0     H67421   2.706   9.063   2.570 -0.2209  1.9250 -1.0064
  511MOL0     H67422   2.831   9.222   2.475  0.2689 -0.9880 -0.0096
  511MOL0     H67423   2.992   9.141   2.500  0.3263  3.0069 -2.5425
  511MOL0     H67424   2.973   9.157   2.742  0.4153  0.2716 -0.1764
  511MOL0     H67425   2.964   9.317   2.664  1.0217 -0.3560  0.1762
  511MOL0     H67426   2.743   9.160   2.785  1.1325 -0.2388 -0.8111
  511MOL0     H67427   2.709   9.301   2.681 -1.7717 -2.3495  0.2389
  511MOL0     H67428   2.841   9.444   2.835 -0.5884  0.5548 -1.8185
  511MOL0     H67429   2.872   9.315   2.947  0.9777  1.0886 -0.2311
  511MOL0     H67430   2.584   9.398   2.856 -3.5895 -2.1707  2.1665
  511MOL0     H67431   2.630   9.271   2.971 -1.7309 -1.2490 -2.4877
  511MOL0     H67432   2.569   9.475   3.076  2.4704 -0.1668  2.1223
  511MOL0     H67433   2.679   9.576   2.988 -3.0119  2.0734  1.1955
  511MOL0     H67434   3.127   8.793   2.570  0.1774 -0.5293 -1.0663
  511MOL0     H67435   3.188   8.537   2.613  0.2031  0.5751  0.0391
  511MOL0     H67436   2.921   8.088   2.832 -1.5767  0.8093 -1.1259
  511MOL0     H67437   3.032   7.890   2.878 -2.9642  2.3991  0.5836
  511MOL0     H67438   3.189   6.406   2.973 -0.4589 -0.6466 -0.9520
  511MOL0     H67439   3.349   6.202   2.968  0.8706  0.9278  1.7206
  511MOL0     H67440   3.218   5.591   2.930  0.3311 -0.4482  0.8296
  511MOL0     H67441   3.409   5.435   2.874  0.6920 -1.2539  0.7194
  511MOL0     H67442   3.830   5.409   2.894  0.7333 -0.2952 -2.4772
  511MOL0     H67443   3.770   5.577   2.877  4.8995 -0.6414  0.6714
  511MOL0     H67444   3.643   5.516   2.671  1.5175  1.2466 -0.7149
  511MOL0     H67445   3.811   5.483   2.650  0.5379  0.7040  1.2294
  511MOL0     H67446   3.643   5.287   2.570  3.1841 -0.9428 -1.6416
  511MOL0     H67447   3.616   5.255   2.741 -1.6278  0.0452 -1.1050
  511MOL0     H67448   3.892   5.272   2.635 -1.1597  1.6086  0.8487
  511MOL0     H67449   3.841   5.196   2.790 -2.0468 -0.2507  0.6466
  511MOL0     H67450   3.792   4.886   2.488 -1.2705 -1.3202  0.8058
  511MOL0     H67451   3.695   5.654   3.063  1.1991  0.4222 -2.0555
  511MOL0     H67452   3.537   5.843   3.110 -2.4691 -0.0596  3.0630
  512MOL0     O67453   4.478   0.692   5.809  0.3734 -0.0983 -0.1679
  512MOL0     C67454   4.480   0.809   5.762  0.0466 -0.3649 -0.2398
  512MOL0     O67455   4.528   0.915   5.828 -1.2146 -0.2032  1.0795
  512MOL0     C67456   4.539   0.893   5.963  0.9490  0.5311 -0.8718
  512MOL0     C67457   4.432   0.941   6.047 -0.0120 -0.6085  0.6620
  512MOL0     C67458   4.433   0.930   6.186 -0.3075 -0.0583 -0.0574
  512MOL0     C67459   4.545   0.856   6.247 -0.1349 -0.7384  0.2662
  512MOL0     O67460   4.546   0.815   6.377 -0.2354  0.2641  0.2453
  512MOL0     C67461   4.469   0.882   6.480 -0.2648  0.8836 -0.2720
  512MOL0     C67462   4.552   0.984   6.564 -0.7384 -1.0531  0.3247
  512MOL0     C67463   4.480   1.032   6.694 -0.2962  0.5801  0.7815
  512MOL0     C67464   4.565   1.127   6.783  0.5961 -0.9109  1.5244
  512MOL0     C67465   4.517   1.152   6.925  0.8887 -0.5162 -0.4817
  512MOL0     C67466   4.391   1.246   6.919  0.0005  0.5801 -0.6483
  512MOL0     C67467   4.330   1.260   7.058  0.1152  0.8047 -0.8707
  512MOL0     C67468   4.394   1.359   7.155  0.7635  0.0878  0.3347
  512MOL0     N67469   4.412   1.501   7.112 -1.4110  0.4036  0.3581
  512MOL0     C67470   4.518   1.581   7.139  1.0702 -0.7170  0.5444
  512MOL0     C67471   4.471   1.706   7.118  0.3763  0.6237 -0.1806
  512MOL0     C67472   4.525   1.840   7.143 -0.4106 -0.2789 -0.8537
  512MOL0     C67473   4.641   1.871   7.052  0.5247 -0.4024 -0.0621
  512MOL0     C67474   4.606   1.896   6.905  0.3188  1.2677 -0.3020
  512MOL0     C67475   4.539   2.031   6.879  0.5695 -0.5158  0.2444
  512MOL0     O67476   4.616   2.150   6.903  0.4482  0.7551 -0.2909
  512MOL0     C67477   4.712   2.174   6.811  0.2864  0.3243 -0.3674
  512MOL0     C67478   4.671   2.259   6.709  0.6777 -0.5821  1.0012
  512MOL0     C67479   4.765   2.290   6.609  0.9864 -0.6293 -0.3130
  512MOL0     C67480   4.902   2.242   6.622 -0.3505 -0.0325  0.2395
  512MOL0     C67481   4.997   2.297   6.516 -0.5028  0.2560  0.2068
  512MOL0     O67482   4.947   2.406   6.441 -0.1077  0.8429 -0.0998
  512MOL0     C67483   5.033   2.493   6.374  0.2055  0.8005 -0.0122
  512MOL0     C67484   5.169   2.488   6.362 -0.2055 -0.1061  0.6222
  512MOL0     C67485   5.244   2.593   6.293  0.3384 -0.2327  1.5458
  512MOL0     C67486   5.172   2.699   6.230  0.1273 -0.6805  0.7410
  512MOL0     O67487   5.240   2.792   6.155 -0.3707 -0.1700  1.2193
  512MOL0     C67488   5.312   2.877   6.229 -0.6225  0.1087  0.1201
  512MOL0     C67489   5.356   2.992   6.147 -0.8505  0.1097 -0.9594
  512MOL0     C67490   5.424   3.105   6.222 -0.5407 -0.3350 -0.1302
  512MOL0     C67491   5.561   3.073   6.275 -0.3894  0.2977 -0.3029
  512MOL0     C67492   5.610   3.165   6.383  0.5064  0.2098  0.5364
  512MOL0     C67493   5.764   3.191   6.398  0.2046 -0.1310  0.1162
  512MOL0     C67494   5.842   3.070   6.442  0.3576 -0.2847  0.3725
  512MOL0     C67495   5.800   3.015   6.571  0.0807  0.1294 -0.0935
  512MOL0    Cl67496   5.877   2.852   6.584  0.0890 -0.2304 -0.5729
  512MOL0     C67497   5.033   2.706   6.259  0.2430 -0.0480  0.3392
  512MOL0     C67498   4.960   2.607   6.327 -0.9019 -0.1655 -0.3729
  512MOL0     O67499   5.112   2.251   6.528 -0.2116  0.4531 -0.4523
  512MOL0     C67500   4.937   2.149   6.725 -0.2604 -0.4888 -0.2426
  512MOL0     C67501   4.845   2.132   6.823  0.0867 -0.1437 -0.3022
  512MOL0     N67502   4.346   1.692   7.067 -0.4625 -0.2248  0.5114
  512MOL0     N67503   4.304   1.570   7.065  0.0884  0.1083  0.1288
  512MOL0     C67504   4.653   0.816   6.162 -0.1333  0.5089 -0.7282
  512MOL0     C67505   4.647   0.839   6.029 -0.5358  0.7176 -0.1839
  512MOL0     C67506   4.422   0.834   5.636 -0.0042 -1.0928  0.8224
  512MOL0     C67507   4.364   0.963   5.603  0.4620  0.5239  0.3472
  512MOL0     C67508   4.327   0.994   5.470  0.3088  0.2728  0.4071
  512MOL0     C67509   4.341   0.894   5.376 -1.0648  0.2731  0.3539
  512MOL0     O67510   4.307   0.926   5.245  0.0983  1.2597 -0.7532
  512MOL0     C67511   4.384   0.891   5.139 -0.8944 -0.4758 -1.5663
  512MOL0     C67512   4.348   0.764   5.059  0.4984  0.1637  0.3648
  512MOL0     C67513   4.237   0.782   4.955  0.5777 -0.3271  0.4025
  512MOL0     C67514   4.104   0.831   5.014 -0.3535  0.4907 -0.4046
  512MOL0     C67515   4.048   0.733   5.111  0.1501 -0.3429  0.5591
  512MOL0     C67516   4.005   0.659   5.194  0.5128  0.4940 -0.8250
  512MOL0     C67517   4.386   0.766   5.419  0.7499  0.1157  0.1558
  512MOL0     C67518   4.439   0.740   5.540 -0.9233 -0.4643  0.3759
  512MOL0     H67519   4.339   0.985   6.015  0.0064 -2.0703 -1.6251
  512MOL0     H67520   4.343   0.961   6.239 -2.0535  0.7227 -3.1781
  512MOL0     H67521   4.430   0.808   6.550  0.8189  1.7408  1.3111
  512MOL0     H67522   4.382   0.937   6.442  0.8793  1.9248 -1.5207
  512MOL0     H67523   4.566   1.070   6.498 -0.8157  0.3632  2.0949
  512MOL0     H67524   4.654   0.947   6.583 -1.3170 -1.6196  2.6739
  512MOL0     H67525   4.467   0.939   6.750 -1.9710 -0.7723 -1.6755
  512MOL0     H67526   4.394   1.094   6.667  1.7133  1.9432 -3.2923
  512MOL0     H67527   4.666   1.085   6.788  1.5603  1.2328  1.1049
  512MOL0     H67528   4.583   1.219   6.727 -0.8191 -2.3904 -1.6108
  512MOL0     H67529   4.587   1.199   6.995  1.7484  0.5466 -1.9806
  512MOL0     H67530   4.496   1.054   6.970 -1.3897  1.1897  2.5574
  512MOL0     H67531   4.316   1.190   6.863 -0.4215 -0.1250  0.5663
  512MOL0     H67532   4.419   1.346   6.887 -0.1824  0.3995 -1.3859
  512MOL0     H67533   4.226   1.287   7.040 -1.3717 -1.7521  2.7142
  512MOL0     H67534   4.322   1.168   7.117 -2.7386  4.0094  4.4783
  512MOL0     H67535   4.495   1.324   7.178 -0.3642 -3.4306  0.5336
  512MOL0     H67536   4.333   1.361   7.245  0.8934 -2.3046  0.5312
  512MOL0     H67537   4.610   1.559   7.193  0.7075  0.3102  1.6190
  512MOL0     H67538   4.549   1.858   7.248 -1.8628  1.0762 -0.7134
  512MOL0     H67539   4.444   1.911   7.125  0.8712  1.2951 -0.6641
  512MOL0     H67540   4.709   1.787   7.034 -1.1043 -0.9244 -6.5879
  512MOL0     H67541   4.687   1.964   7.087  0.6573 -0.0333 -1.1670
  512MOL0     H67542   4.697   1.884   6.846  1.3632 -0.1694  1.5172
  512MOL0     H67543   4.540   1.812   6.883 -1.4987  2.6421 -0.4310
  512MOL0     H67544   4.436   2.033   6.918 -0.6239  1.6882 -2.6169
  512MOL0     H67545   4.516   2.026   6.772  1.3009 -1.5609  0.1241
  512MOL0     H67546   4.566   2.286   6.707  1.1324  1.2827 -0.2983
  512MOL0     H67547   4.738   2.355   6.527  1.9073 -1.3942 -1.2563
  512MOL0     H67548   5.226   2.405   6.402  2.3453  1.6190  0.7725
  512MOL0     H67549   5.353   2.589   6.293  0.3046 -2.0091  1.4213
  512MOL0     H67550   5.401   2.827   6.267  1.2771  2.4262 -1.0203
  512MOL0     H67551   5.248   2.923   6.305 -0.5513 -0.5224  0.5676
  512MOL0     H67552   5.276   3.047   6.096  1.0789  4.5123  0.2359
  512MOL0     H67553   5.412   2.961   6.058 -0.1694 -2.9732  0.4418
  512MOL0     H67554   5.362   3.125   6.310 -3.4048 -2.5604 -1.4779
  512MOL0     H67555   5.435   3.186   6.150  2.0250 -2.6313 -2.5808
  512MOL0     H67556   5.573   2.969   6.304 -0.6662 -0.0474 -1.3754
  512MOL0     H67557   5.625   3.103   6.191 -1.1748 -0.1994 -1.0998
  512MOL0     H67558   5.570   3.133   6.479 -2.8522 -1.3383 -1.1944
  512MOL0     H67559   5.569   3.264   6.359 -0.9638 -0.5503 -0.2249
  512MOL0     H67560   5.786   3.277   6.461 -0.3587 -0.5849  0.9432
  512MOL0     H67561   5.800   3.218   6.298 -0.2160  0.7768  0.2002
  512MOL0     H67562   5.818   2.986   6.377 -1.3226  0.0501  0.5178
  512MOL0     H67563   5.947   3.098   6.437  0.8119 -1.6593  1.5369
  512MOL0     H67564   5.692   3.001   6.581  0.0876  0.5431  0.6983
  512MOL0     H67565   5.830   3.074   6.658  0.0030 -0.0698  0.0716
  512MOL0     H67566   4.975   2.789   6.219 -2.0500 -1.5678  0.3194
  512MOL0     H67567   4.855   2.605   6.355 -0.7487 -4.7792  0.7076
  512MOL0     H67568   5.033   2.102   6.738 -0.7060 -0.8973  2.0494
  512MOL0     H67569   4.877   2.060   6.898 -1.8293 -2.4633 -1.5654
  512MOL0     H67570   4.741   0.763   6.198  1.4682  2.4191 -1.6452
  512MOL0     H67571   4.725   0.802   5.962 -1.2295 -2.6735  0.6930
  512MOL0     H67572   4.366   1.042   5.678  1.9334  1.2296 -0.4008
  512MOL0     H67573   4.281   1.085   5.432 -0.6517 -0.0201  0.8515
  512MOL0     H67574   4.484   0.878   5.182 -0.7577  1.4275 -1.2254
  512MOL0     H67575   4.396   0.982   5.079 -1.7183  1.7201  1.3758
  512MOL0     H67576   4.437   0.727   5.006 -0.8603 -1.5099 -0.8547
  512MOL0     H67577   4.331   0.677   5.124 -0.2129 -1.5772 -1.9940
  512MOL0     H67578   4.222   0.686   4.904  2.3442 -2.2442  3.1978
  512MOL0     H67579   4.259   0.853   4.874 -2.8472 -0.0928 -0.4839
  512MOL0     H67580   4.117   0.930   5.058 -2.8660  0.5244  0.4625
  512MOL0     H67581   4.037   0.853   4.931 -2.4893 -0.0470  1.0820
  512MOL0     H67582   3.962   0.600   5.272 -0.3639  0.5779 -1.2323
  512MOL0     H67583   4.396   0.686   5.346  1.6573  2.1783 -2.0974
  512MOL0     H67584   4.491   0.646   5.555 -0.0225 -0.4481 -2.1986
  513MOL0     O67585   7.622   4.634  10.579 -0.1042  0.4584 -0.8595
  513MOL0     C67586   7.499   4.620  10.576 -0.4283 -0.1279  0.4404
  513MOL0     O67587   7.426   4.567  10.681 -0.0923 -0.2664 -0.3130
  513MOL0     C67588   7.493   4.562  10.803  0.0454  0.4573  1.0147
  513MOL0     C67589   7.496   4.445  10.871  0.6462  1.1915  0.3635
  513MOL0     C67590   7.538   4.432  11.000 -0.2736  0.4806  0.0589
  513MOL0     C67591   7.586   4.547  11.072 -0.7202 -0.2908  0.1969
  513MOL0     O67592   7.646   4.523  11.195 -0.0384 -1.3290  0.9682
  513MOL0     C67593   7.724   4.624  11.252  0.3388  0.2213  0.3182
  513MOL0     C67594   7.746   4.608  11.397 -1.0069  0.0707  0.8990
  513MOL0     C67595   7.843   4.720  11.449  0.5546  0.6167  0.2246
  513MOL0     C67596   7.894   4.687  11.584  0.2416 -0.8667  0.7868
  513MOL0     C67597   7.979   4.790  11.658 -0.0141 -0.7715  0.0989
  513MOL0     C67598   8.109   4.815  11.591  0.1498  0.1966  0.4299
  513MOL0     C67599   8.205   4.908  11.677  0.5699  0.1715  0.4818
  513MOL0     C67600   8.338   4.944  11.608  0.3958  0.1539 -0.0269
  513MOL0     N67601   8.306   5.018  11.486  0.0715 -0.0549 -0.3338
  513MOL0     C67602   8.358   4.992  11.358 -0.0099  1.0145 -0.3187
  513MOL0     C67603   8.317   5.098  11.286 -1.1289  0.2870  0.5198
  513MOL0     C67604   8.335   5.103  11.138  0.3005  0.1240 -0.6280
  513MOL0     C67605   8.249   5.000  11.071  0.3541 -0.1068 -0.0626
  513MOL0     C67606   8.099   5.018  11.103 -1.3593 -0.0703 -0.7464
  513MOL0     C67607   8.029   4.894  11.116  1.0324 -0.6699  0.2194
  513MOL0     O67608   7.885   4.908  11.153 -0.9007 -0.1275  0.0067
  513MOL0     C67609   7.803   4.969  11.062 -0.6176  0.2109  0.4978
  513MOL0     C67610   7.816   4.949  10.926 -0.3707 -0.1355 -0.0828
  513MOL0     C67611   7.737   5.027  10.835  0.2271  0.9442 -0.2469
  513MOL0     C67612   7.644   5.125  10.869 -0.3995 -0.5620 -0.2278
  513MOL0     C67613   7.555   5.196  10.769  0.0719 -0.3730  0.4609
  513MOL0     O67614   7.566   5.141  10.636 -0.0566 -0.3003  0.1141
  513MOL0     C67615   7.488   5.198  10.541  1.1264  1.1747 -0.7553
  513MOL0     C67616   7.536   5.237  10.419  0.5235 -0.5789  0.4829
  513MOL0     C67617   7.450   5.297  10.325  0.2036 -0.9916 -0.8446
  513MOL0     C67618   7.315   5.329  10.354  0.5191  0.6122  0.9532
  513MOL0     O67619   7.237   5.375  10.249 -0.7425 -0.1405  0.1838
  513MOL0     C67620   7.111   5.301  10.243 -0.4301 -0.4157  0.3143
  513MOL0     C67621   7.028   5.342  10.132  1.1054  0.1849 -0.5586
  513MOL0     C67622   6.874   5.292  10.133 -0.9556 -0.3490  0.1715
  513MOL0     C67623   6.845   5.143  10.142 -0.9115  0.2682  0.7793
  513MOL0     C67624   6.694   5.100  10.132 -0.6037  0.3713  0.7138
  513MOL0     C67625   6.661   5.071   9.978 -0.4236  0.0843 -0.5608
  513MOL0     C67626   6.512   5.064   9.965 -0.2585  0.1391  0.1421
  513MOL0     C67627   6.476   5.063   9.816 -0.6296  0.9026  0.0152
  513MOL0    Cl67628   6.514   4.897   9.769  0.2585 -0.2611 -0.2007
  513MOL0     C67629   7.263   5.296  10.478 -0.3379  0.2966 -0.6317
  513MOL0     C67630   7.345   5.226  10.567  0.6177  0.0121  0.3574
  513MOL0     O67631   7.481   5.285  10.814 -0.0343  0.6242 -0.3294
  513MOL0     C67632   7.631   5.139  11.008  0.1378  0.8407  0.5440
  513MOL0     C67633   7.712   5.069  11.098 -0.2872 -0.4244 -0.1564
  513MOL0     N67634   8.253   5.183  11.366 -0.1671  0.0132 -0.0022
  513MOL0     N67635   8.248   5.136  11.484  0.4949  0.1227 -0.2340
  513MOL0     C67636   7.585   4.669  11.001  0.4750  0.1833 -0.1340
  513MOL0     C67637   7.541   4.677  10.865  0.0233  0.1858  0.1004
  513MOL0     C67638   7.425   4.679  10.457 -0.3303 -0.6404 -0.3862
  513MOL0     C67639   7.484   4.785  10.381  0.2558 -0.8531  0.6210
  513MOL0     C67640   7.405   4.850  10.278  1.0923 -0.7241 -0.0500
  513MOL0     C67641   7.278   4.800  10.251  0.3056 -0.5113  0.8534
  513MOL0     O67642   7.196   4.863  10.151 -0.4170 -0.5416 -0.2100
  513MOL0     C67643   7.254   4.874  10.019  0.3053  0.4187  0.4980
  513MOL0     C67644   7.142   4.926   9.936  0.3905  0.4470 -0.7326
  513MOL0     C67645   7.192   4.987   9.799 -0.5421  1.1892 -0.3865
  513MOL0     C67646   7.091   5.100   9.760  0.8797  0.7822 -0.2742
  513MOL0     C67647   7.107   5.158   9.626 -0.0607  0.3772  0.3363
  513MOL0     C67648   7.101   5.208   9.514 -0.3573  0.5168 -0.2464
  513MOL0     C67649   7.227   4.694  10.318 -0.3871 -0.6149 -0.4083
  513MOL0     C67650   7.297   4.650  10.430 -0.1260  0.3843  0.2866
  513MOL0     H67651   7.449   4.360  10.821 -2.4508  0.7517  3.6135
  513MOL0     H67652   7.538   4.337  11.052 -0.0263  1.0009  1.0386
  513MOL0     H67653   7.667   4.717  11.239  0.3211  0.1671 -0.0076
  513MOL0     H67654   7.815   4.633  11.192 -0.1952 -2.4528 -1.0406
  513MOL0     H67655   7.784   4.506  11.395 -0.4194  0.2642 -1.9059
  513MOL0     H67656   7.647   4.628  11.441 -2.1238  2.2187 -2.2595
  513MOL0     H67657   7.790   4.815  11.455 -0.7569 -0.1609  1.9556
  513MOL0     H67658   7.920   4.741  11.375 -0.7838 -0.5184 -1.5604
  513MOL0     H67659   7.807   4.672  11.647 -2.0351  1.4452 -1.5553
  513MOL0     H67660   7.947   4.591  11.580  0.2764 -0.8196 -0.3351
  513MOL0     H67661   7.995   4.751  11.759  3.1657  0.3419  0.1452
  513MOL0     H67662   7.919   4.881  11.667  1.2110  0.0521  0.2628
  513MOL0     H67663   8.088   4.871  11.500 -1.8638 -0.1821  0.6125
  513MOL0     H67664   8.167   4.724  11.574  1.5747  0.9331  1.1060
  513MOL0     H67665   8.145   4.995  11.704 -1.0498 -0.2383 -1.5856
  513MOL0     H67666   8.245   4.848  11.760  0.5242 -0.3330  0.1471
  513MOL0     H67667   8.387   4.850  11.583 -0.3984 -0.3595  0.3114
  513MOL0     H67668   8.400   5.003  11.677  1.3349 -1.2581  0.3857
  513MOL0     H67669   8.408   4.901  11.327  0.2404  1.5689 -1.6014
  513MOL0     H67670   8.441   5.087  11.115  1.4364  3.4772  1.5581
  513MOL0     H67671   8.313   5.203  11.101 -0.7450 -0.1153 -0.6837
  513MOL0     H67672   8.288   4.904  11.105  0.4740  0.4701  1.4944
  513MOL0     H67673   8.247   4.999  10.961 -0.3704  0.9294 -0.0753
  513MOL0     H67674   8.082   5.087  11.186 -2.1178  0.0268 -0.9713
  513MOL0     H67675   8.067   5.085  11.023 -1.7786  0.5151 -0.0929
  513MOL0     H67676   8.083   4.828  11.185  1.6592 -0.8048 -0.3903
  513MOL0     H67677   8.047   4.837  11.025  0.2858 -2.8219  1.3496
  513MOL0     H67678   7.882   4.866  10.905  0.7187  0.3882  1.0991
  513MOL0     H67679   7.731   5.000  10.730 -2.5342 -3.0428  0.7290
  513MOL0     H67680   7.639   5.218  10.393  1.2433  0.4516  2.4430
  513MOL0     H67681   7.479   5.317  10.222  0.4892  2.0110 -0.2577
  513MOL0     H67682   7.058   5.309  10.338  2.8630  3.1231  2.1003
  513MOL0     H67683   7.130   5.193  10.237  1.6462 -0.2223  2.3530
  513MOL0     H67684   7.084   5.303  10.047  1.5325  0.2810 -0.3262
  513MOL0     H67685   7.024   5.449  10.111  1.4927 -0.0468 -1.8492
  513MOL0     H67686   6.824   5.338  10.047 -2.0367 -1.2904  0.2790
  513MOL0     H67687   6.830   5.352  10.213  0.2201  0.0798  0.5188
  513MOL0     H67688   6.901   5.089  10.065  1.8479  2.4322  1.1070
  513MOL0     H67689   6.884   5.112  10.239 -0.0266 -0.4703  0.2063
  513MOL0     H67690   6.628   5.174  10.180 -3.3997 -0.9501 -0.8650
  513MOL0     H67691   6.671   5.007  10.185 -4.5780  0.8392  0.1259
  513MOL0     H67692   6.710   4.984   9.935 -0.0421  0.4302 -0.8335
  513MOL0     H67693   6.700   5.153   9.917 -1.3287  1.0361  0.0960
  513MOL0     H67694   6.465   4.983  10.021 -0.5459  1.0090  1.1862
  513MOL0     H67695   6.472   5.158  10.004 -2.6867 -1.1536  0.9083
  513MOL0     H67696   6.545   5.129   9.762  2.3349 -2.0923 -0.1968
  513MOL0     H67697   6.368   5.078   9.810 -0.8513 -0.7552 -0.9270
  513MOL0     H67698   7.158   5.302  10.508  0.5778  1.0708  2.8911
  513MOL0     H67699   7.290   5.183  10.650  2.0171 -4.2995 -0.6802
  513MOL0     H67700   7.560   5.216  11.039  0.2850  1.0020  0.4813
  513MOL0     H67701   7.714   5.080  11.206 -0.0140 -1.2131 -0.0735
  513MOL0     H67702   7.618   4.762  11.048  2.5526 -0.7387  0.3717
  513MOL0     H67703   7.538   4.775  10.819  0.6083  0.6254  0.9632
  513MOL0     H67704   7.583   4.824  10.405 -0.1112 -0.9968  2.5588
  513MOL0     H67705   7.422   4.935  10.212  2.4864 -1.1019 -0.2091
  513MOL0     H67706   7.283   4.775   9.984  0.5737  0.4591  0.6034
  513MOL0     H67707   7.342   4.940  10.015 -0.1547  1.1106  1.3442
  513MOL0     H67708   7.063   4.854   9.913 -0.8381  0.6036  2.4891
  513MOL0     H67709   7.088   5.003   9.993 -1.0548 -0.1402 -1.2614
  513MOL0     H67710   7.183   4.907   9.725 -2.8632  0.6107  0.4418
  513MOL0     H67711   7.293   5.026   9.786  0.2098 -0.8639 -0.9685
  513MOL0     H67712   6.991   5.054   9.762  1.3040 -0.1514  0.8782
  513MOL0     H67713   7.117   5.177   9.832  4.5137  0.4384 -1.0373
  513MOL0     H67714   7.102   5.250   9.415 -1.1184  2.3136  0.4468
  513MOL0     H67715   7.126   4.654  10.310 -1.1839  1.3296 -0.5959
  513MOL0     H67716   7.247   4.579  10.495 -3.1852  0.5334 -1.7104
  514MOL0     O67717   4.486   0.388   5.020 -0.2796 -0.2507  0.8236
  514MOL0     C67718   4.369   0.359   5.046 -0.2874 -0.7660 -0.3592
  514MOL0     O67719   4.275   0.315   4.962 -0.9622 -0.5110 -0.1276
  514MOL0     C67720   4.316   0.291   4.832  0.7022  0.9932  0.2753
  514MOL0     C67721   4.271   0.172   4.774 -0.1891  0.6003 -0.1763
  514MOL0     C67722   4.288   0.159   4.628 -0.6860 -0.2102 -0.0050
  514MOL0     C67723   4.348   0.251   4.546 -0.7917  0.1797 -1.3335
  514MOL0     O67724   4.370   0.230   4.414 -0.3901 -0.5840 -0.0944
  514MOL0     C67725   4.264   0.248   4.321  0.2531  0.7664 -0.1931
  514MOL0     C67726   4.189   0.388   4.333  0.1366  0.1621  0.2345
  514MOL0     C67727   4.084   0.416   4.227 -0.2093  0.5784  0.3598
  514MOL0     C67728   4.142   0.434   4.085 -0.3898 -0.4709 -0.5005
  514MOL0     C67729   4.028   0.479   3.987  0.0812 -0.0791  0.0039
  514MOL0     C67730   3.912   0.377   3.983  0.2176 -0.4831 -0.4119
  514MOL0     C67731   3.801   0.451   3.908  0.0216  0.6692  0.9075
  514MOL0     C67732   3.680   0.366   3.892 -0.3815 -0.0590 -0.1003
  514MOL0     N67733   3.708   0.258   3.795 -0.3732 -0.1120  0.4895
  514MOL0     C67734   3.711   0.132   3.827  0.1344  0.5822 -0.4746
  514MOL0     C67735   3.681   0.059   3.721  0.2561 -0.8782  0.2922
  514MOL0     C67736   3.694  -0.097   3.708 -0.0852 -0.8492  0.3346
  514MOL0     C67737   3.628  -0.150   3.582  0.1711 -0.6871  0.1090
  514MOL0     C67738   3.629  -0.304   3.570 -0.4165  0.0323 -0.0142
  514MOL0     C67739   3.510  -0.367   3.490 -0.1157  0.0303  0.8759
  514MOL0     O67740   3.518  -0.503   3.525 -1.6680  0.5690  0.1266
  514MOL0     C67741   3.539  -0.613   3.444 -0.0347  0.0409  0.3472
  514MOL0     C67742   3.506  -0.625   3.311 -0.4866 -0.5726  0.1597
  514MOL0     C67743   3.545  -0.732   3.228 -0.3797  0.2430 -0.3093
  514MOL0     C67744   3.622  -0.825   3.292 -0.5082  1.2139  0.4931
  514MOL0     C67745   3.678  -0.935   3.210 -1.0722  0.2718 -0.3568
  514MOL0     O67746   3.604  -0.981   3.105 -0.0915 -0.0310 -0.2246
  514MOL0     C67747   3.647  -1.093   3.035  0.4503 -0.8582 -0.2972
  514MOL0     C67748   3.596  -1.216   3.073 -0.9356 -0.2395 -0.8768
  514MOL0     C67749   3.613  -1.334   3.007  0.2415  1.3420  0.1101
  514MOL0     C67750   3.701  -1.336   2.902  0.2628  0.4530 -0.1509
  514MOL0     O67751   3.714  -1.457   2.826 -0.1470  0.1874 -0.0634
  514MOL0     C67752   3.605  -1.477   2.738 -0.1906  0.2153 -0.5074
  514MOL0     C67753   3.649  -1.556   2.622 -0.5771  0.0657 -0.9853
  514MOL0     C67754   3.712  -1.690   2.644  0.0996 -0.1632 -0.1152
  514MOL0     C67755   3.739  -1.756   2.508  0.5222  0.3975  0.5223
  514MOL0     C67756   3.728  -1.905   2.530 -0.3743  0.2472 -1.0195
  514MOL0     C67757   3.711  -1.982   2.401  0.2088  0.7320 -0.5925
  514MOL0     C67758   3.837  -1.995   2.331 -0.3358 -0.5199  0.0497
  514MOL0     C67759   3.828  -1.999   2.178 -0.4042 -0.0499  0.6877
  514MOL0    Cl67760   3.810  -1.837   2.108  0.0813  0.3592  0.1155
  514MOL0     C67761   3.762  -1.214   2.863  0.1466 -0.4015  0.6217
  514MOL0     C67762   3.733  -1.089   2.923  0.1116  0.6667 -0.8041
  514MOL0     O67763   3.793  -0.967   3.236 -0.1740 -0.4521  0.1653
  514MOL0     C67764   3.635  -0.832   3.434 -1.5223 -0.1438  0.3702
  514MOL0     C67765   3.603  -0.720   3.500  0.1384 -0.4221 -0.5201
  514MOL0     N67766   3.651   0.147   3.617 -0.3737 -0.1240  0.4494
  514MOL0     N67767   3.664   0.257   3.667  0.3286 -0.3199 -0.0161
  514MOL0     C67768   4.414   0.353   4.614 -0.2654 -0.0516  0.6232
  514MOL0     C67769   4.392   0.377   4.753  0.2416  0.0956  0.6818
  514MOL0     C67770   4.331   0.372   5.191 -0.1829 -0.4383  0.2244
  514MOL0     C67771   4.428   0.355   5.284  0.9492  0.8658  0.0994
  514MOL0     C67772   4.400   0.372   5.417  1.1042 -0.0410  0.6005
  514MOL0     C67773   4.270   0.398   5.460  0.4741 -0.0845 -0.3865
  514MOL0     O67774   4.238   0.418   5.588 -0.7567  0.3256  0.1533
  514MOL0     C67775   4.325   0.364   5.685  0.0883  0.0136 -0.4829
  514MOL0     C67776   4.257   0.362   5.821  0.7456  0.9776  0.2447
  514MOL0     C67777   4.161   0.249   5.813  0.1109 -0.1188 -0.2148
  514MOL0     C67778   4.053   0.240   5.926 -0.3176 -0.1454 -0.2381
  514MOL0     C67779   4.130   0.250   6.057 -0.4664  0.0119  0.0355
  514MOL0     C67780   4.183   0.268   6.162  0.7515 -0.3097  0.0234
  514MOL0     C67781   4.168   0.411   5.368 -0.1661 -0.1837  0.2397
  514MOL0     C67782   4.189   0.394   5.235 -0.0992  0.7862  0.4853
  514MOL0     H67783   4.232   0.097   4.843  1.2961  0.3814  0.4621
  514MOL0     H67784   4.237   0.078   4.576  1.3020 -2.5238  1.4856
  514MOL0     H67785   4.191   0.166   4.331 -1.3637  2.1464 -0.2204
  514MOL0     H67786   4.313   0.227   4.225 -2.0451  3.5415 -2.1493
  514MOL0     H67787   4.270   0.461   4.323 -1.1732  1.9725  2.0342
  514MOL0     H67788   4.157   0.407   4.435  2.0542  1.2674  0.6874
  514MOL0     H67789   4.036   0.510   4.255 -0.6081  0.7061 -0.7118
  514MOL0     H67790   4.026   0.323   4.224  1.5248 -0.5242 -1.4115
  514MOL0     H67791   4.200   0.526   4.086 -0.6581 -0.2390 -2.4735
  514MOL0     H67792   4.194   0.345   4.048 -2.8989 -1.3964 -2.1288
  514MOL0     H67793   4.061   0.511   3.887  1.1276  3.1629  1.2444
  514MOL0     H67794   3.997   0.576   4.027 -0.2621 -0.1030 -0.2003
  514MOL0     H67795   3.878   0.347   4.083  0.7944 -1.6561 -0.5553
  514MOL0     H67796   3.949   0.281   3.947  0.1000 -0.5162 -0.4454
  514MOL0     H67797   3.759   0.543   3.951 -2.1346  0.9405 -1.4716
  514MOL0     H67798   3.834   0.477   3.806 -1.9056  1.5522  0.4580
  514MOL0     H67799   3.598   0.427   3.854 -0.6153  1.2659  2.3164
  514MOL0     H67800   3.654   0.318   3.987  1.3786 -2.3410 -0.6691
  514MOL0     H67801   3.737   0.085   3.922  1.0459 -4.9046 -3.0498
  514MOL0     H67802   3.646  -0.143   3.795  0.7604 -1.9436  0.2391
  514MOL0     H67803   3.802  -0.115   3.708 -0.2316 -2.3250 -2.3340
  514MOL0     H67804   3.682  -0.111   3.496  1.7155  0.9143  1.7129
  514MOL0     H67805   3.523  -0.119   3.587  0.0041 -0.9134 -1.5000
  514MOL0     H67806   3.725  -0.328   3.525 -1.9557 -0.2419 -3.4930
  514MOL0     H67807   3.617  -0.344   3.671 -0.2671 -2.3456 -0.8890
  514MOL0     H67808   3.523  -0.350   3.383  0.3724 -0.4981  0.8467
  514MOL0     H67809   3.414  -0.329   3.525 -0.7530 -1.7538  1.1878
  514MOL0     H67810   3.466  -0.532   3.270  4.3645  2.0344  0.6400
  514MOL0     H67811   3.518  -0.728   3.123  3.5202  0.4371 -1.4556
  514MOL0     H67812   3.526  -1.210   3.156 -2.6391  0.7759 -2.3288
  514MOL0     H67813   3.551  -1.421   3.024  1.4386  0.2929 -0.6870
  514MOL0     H67814   3.564  -1.379   2.710 -0.0497  1.5474  3.2972
  514MOL0     H67815   3.524  -1.526   2.792  1.4448  1.5941  3.6165
  514MOL0     H67816   3.732  -1.493   2.589  1.4202 -0.8490  1.8987
  514MOL0     H67817   3.561  -1.556   2.556 -1.8795  0.8994  0.6697
  514MOL0     H67818   3.634  -1.737   2.705  5.1372 -3.3159  4.8764
  514MOL0     H67819   3.803  -1.674   2.703 -0.8994  2.9140  0.7777
  514MOL0     H67820   3.667  -1.719   2.435  2.1916  3.6019  0.3279
  514MOL0     H67821   3.838  -1.727   2.472 -0.5085 -0.5342 -3.5496
  514MOL0     H67822   3.640  -1.931   2.588  0.9776  1.0289  1.5359
  514MOL0     H67823   3.815  -1.942   2.586 -2.1938  2.6690  3.9536
  514MOL0     H67824   3.641  -1.932   2.333 -1.7391  0.4094  1.0841
  514MOL0     H67825   3.665  -2.074   2.437 -0.2475  1.3598  0.4786
  514MOL0     H67826   3.900  -1.916   2.373 -1.6005  0.9101 -0.6288
  514MOL0     H67827   3.872  -2.092   2.367 -0.4800 -0.5352  0.1473
  514MOL0     H67828   3.744  -2.069   2.168  0.8427 -1.6180  0.8916
  514MOL0     H67829   3.913  -2.058   2.142 -1.1977 -1.9956  1.8346
  514MOL0     H67830   3.806  -1.206   2.764 -1.3283 -1.7641 -0.1916
  514MOL0     H67831   3.778  -1.001   2.877 -0.4357  1.5537  0.2880
  514MOL0     H67832   3.677  -0.917   3.487  0.5151  1.1512  0.9477
  514MOL0     H67833   3.604  -0.716   3.609  0.6242 -0.5653 -0.5167
  514MOL0     H67834   4.464   0.430   4.556 -2.7578  0.1148 -1.4848
  514MOL0     H67835   4.443   0.471   4.775  1.3188 -1.1024  3.9356
  514MOL0     H67836   4.531   0.331   5.259  0.7403  0.6419 -0.5709
  514MOL0     H67837   4.481   0.365   5.490  0.0336 -2.3070  1.6723
  514MOL0     H67838   4.416   0.425   5.682  0.4449 -0.4988 -0.1347
  514MOL0     H67839   4.360   0.263   5.665  0.1125 -0.8485  3.3098
  514MOL0     H67840   4.330   0.334   5.898  0.6022  2.1989  0.8500
  514MOL0     H67841   4.214   0.461   5.839 -0.5005  0.6771 -1.0019
  514MOL0     H67842   4.220   0.157   5.822  0.2605  0.1743  2.3585
  514MOL0     H67843   4.117   0.268   5.714  1.8239  1.4511 -0.7462
  514MOL0     H67844   3.993   0.331   5.918  2.5443  1.9367  0.2369
  514MOL0     H67845   4.004   0.143   5.913 -1.2938  0.2148  0.6443
  514MOL0     H67846   4.229   0.288   6.256  1.4119  2.4884 -0.7972
  514MOL0     H67847   4.067   0.431   5.401 -1.1678 -1.3673 -1.9269
  514MOL0     H67848   4.103   0.397   5.169 -0.1312  2.0189  0.5658
  515MOL0     O67849   0.417   9.391   1.589  0.7338 -0.1085 -0.0927
  515MOL0     C67850   0.444   9.288   1.541  0.2208 -0.6763 -0.1352
  515MOL0     O67851   0.496   9.186   1.616  0.0663 -0.4237  0.1872
  515MOL0     C67852   0.528   9.208   1.751 -0.8830  0.0895 -0.2411
  515MOL0     C67853   0.578   9.327   1.819 -0.4714  0.6251  1.4515
  515MOL0     C67854   0.642   9.316   1.934  0.3702  0.0357 -0.4235
  515MOL0     C67855   0.641   9.206   2.007  0.6914 -0.5143 -0.2878
  515MOL0     O67856   0.698   9.201   2.131  0.5379  0.0310  0.1683
  515MOL0     C67857   0.613   9.158   2.237 -0.0795 -0.3266 -0.9231
  515MOL0     C67858   0.695   9.127   2.356  0.8188 -0.1562 -0.0091
  515MOL0     C67859   0.696   9.249   2.447 -1.1431  0.9985  0.0845
  515MOL0     C67860   0.761   9.359   2.376  0.7808  0.6245  0.3698
  515MOL0     C67861   0.796   9.478   2.466  0.3003  0.1584 -0.3225
  515MOL0     C67862   0.894   9.570   2.383 -0.4473  0.2011  0.8870
  515MOL0     C67863   0.957   9.675   2.470 -0.4507 -0.2736  0.2383
  515MOL0     C67864   0.854   9.781   2.517  0.3734 -0.1939  0.0478
  515MOL0     N67865   0.820   9.882   2.417 -0.0151 -0.4609  0.0458
  515MOL0     C67866   0.884   9.997   2.383  0.5648 -0.4650 -0.4021
  515MOL0     C67867   0.839  10.039   2.266  0.2216  0.2330 -0.3457
  515MOL0     C67868   0.861  10.172   2.199 -0.1616  0.2668 -1.5147
  515MOL0     C67869   0.996  10.194   2.133  0.5287 -0.0293  0.2612
  515MOL0     C67870   1.098  10.251   2.234  0.6436 -0.3674 -0.1632
  515MOL0     C67871   1.107  10.403   2.240  0.0534  0.2444 -0.6097
  515MOL0     O67872   1.160  10.434   2.373 -0.0030  0.0275 -0.1747
  515MOL0     C67873   1.196  10.558   2.422  0.8581  0.2724 -0.5917
  515MOL0     C67874   1.287  10.559   2.525  0.1168 -0.3546 -1.1418
  515MOL0     C67875   1.363  10.674   2.563  0.8708 -0.3655 -0.2563
  515MOL0     C67876   1.316  10.799   2.509  0.1690 -0.4787 -0.0087
  515MOL0     C67877   1.370  10.928   2.551  1.0392 -0.7583  0.6424
  515MOL0     O67878   1.496  10.929   2.620  0.9955 -0.0574  0.1135
  515MOL0     C67879   1.543  11.052   2.658  0.9242  0.1263  0.4037
  515MOL0     C67880   1.532  11.103   2.792  0.1912 -0.3386  0.6984
  515MOL0     C67881   1.585  11.230   2.823  0.1157 -0.3570  0.5962
  515MOL0     C67882   1.645  11.314   2.727 -1.0850  0.6717  0.7445
  515MOL0     O67883   1.714  11.427   2.772 -0.3864  0.8068 -0.3829
  515MOL0     C67884   1.646  11.538   2.728  0.1952  0.2214  0.0524
  515MOL0     C67885   1.639  11.647   2.827  0.3448  0.8183  0.6279
  515MOL0     C67886   1.608  11.775   2.745 -0.1800  0.1967  1.0124
  515MOL0     C67887   1.565  11.891   2.840 -0.9925  0.4045  0.3003
  515MOL0     C67888   1.478  12.006   2.795 -0.1149  0.0730  0.4920
  515MOL0     C67889   1.340  11.965   2.748 -0.1981  0.2949  0.1407
  515MOL0     C67890   1.238  12.079   2.727 -0.2480 -0.5891 -0.1957
  515MOL0     C67891   1.185  12.114   2.865  0.1557  0.1332 -0.1587
  515MOL0    Cl67892   1.052  12.238   2.868  0.6063  0.4061 -0.0491
  515MOL0     C67893   1.633  11.268   2.586  0.4555 -0.0322  0.3039
  515MOL0     C67894   1.599  11.132   2.557  0.1583 -0.1762 -0.5298
  515MOL0     O67895   1.306  11.028   2.523 -0.5767 -0.3224 -0.0200
  515MOL0     C67896   1.218  10.796   2.401  0.3681  0.0636 -0.4755
  515MOL0     C67897   1.171  10.674   2.358 -0.4374  0.4565  0.0262
  515MOL0     N67898   0.737   9.959   2.229 -0.4933  0.8289  0.1936
  515MOL0     N67899   0.724   9.866   2.316 -0.1545 -0.1121 -0.7824
  515MOL0     C67900   0.582   9.086   1.956 -0.2485 -0.5891 -0.6411
  515MOL0     C67901   0.525   9.091   1.824 -0.5666 -0.2257 -1.2005
  515MOL0     C67902   0.421   9.273   1.400 -0.3311  0.0750  0.4580
  515MOL0     C67903   0.439   9.156   1.326  1.2444  0.2241 -0.7149
  515MOL0     C67904   0.425   9.148   1.190  0.6359  0.1888  0.1818
  515MOL0     C67905   0.390   9.259   1.115 -0.1537 -0.3962  0.3408
  515MOL0     O67906   0.371   9.237   0.985  0.3087  0.2564  0.3873
  515MOL0     C67907   0.281   9.325   0.910  0.4840 -0.2349 -0.4701
  515MOL0     C67908   0.224   9.256   0.789 -0.4118  0.2184 -0.5375
  515MOL0     C67909   0.137   9.338   0.707  0.2352  0.7183 -0.6813
  515MOL0     C67910   0.044   9.262   0.628  0.5324  0.2961  0.6494
  515MOL0     C67911  -0.069   9.203   0.694 -0.3751  0.7762 -0.1079
  515MOL0     C67912  -0.167   9.154   0.756 -0.2513  0.0074 -0.7360
  515MOL0     C67913   0.386   9.386   1.180  0.4025  0.5993 -0.0245
  515MOL0     C67914   0.411   9.395   1.322 -0.5083  0.2058 -0.2768
  515MOL0     H67915   0.589   9.410   1.750  0.8463 -0.2223  0.5833
  515MOL0     H67916   0.683   9.407   1.977  0.3868 -0.1511 -0.0440
  515MOL0     H67917   0.557   9.069   2.206 -1.0598 -0.6008  1.4487
  515MOL0     H67918   0.548   9.239   2.272  0.2046  0.0981 -1.3612
  515MOL0     H67919   0.797   9.105   2.323  0.4116  1.3619 -2.5174
  515MOL0     H67920   0.641   9.047   2.408  1.2285 -2.6309 -3.0653
  515MOL0     H67921   0.749   9.213   2.536  1.1501  0.5701 -1.3445
  515MOL0     H67922   0.599   9.274   2.490 -0.8463  0.4801  1.1029
  515MOL0     H67923   0.857   9.330   2.332  1.0899  2.0979  0.0176
  515MOL0     H67924   0.691   9.388   2.297 -0.8302  0.0556  1.5418
  515MOL0     H67925   0.837   9.441   2.560 -1.2705  2.1619  1.2746
  515MOL0     H67926   0.700   9.528   2.485 -0.8484  0.2210 -5.1057
  515MOL0     H67927   0.834   9.628   2.312 -0.3441 -1.1031 -0.3166
  515MOL0     H67928   0.972   9.508   2.337  1.3703  2.7036  0.3842
  515MOL0     H67929   1.004   9.609   2.543  1.1585  0.6746  0.1038
  515MOL0     H67930   1.043   9.730   2.432 -0.9701  1.5449  1.5508
  515MOL0     H67931   0.881   9.837   2.607  0.1222  0.2665 -0.1583
  515MOL0     H67932   0.760   9.735   2.550  2.1909 -3.5992  0.8596
  515MOL0     H67933   0.968  10.040   2.436 -0.0927  0.2288  0.1000
  515MOL0     H67934   0.836  10.248   2.274  1.5269 -2.1212  1.7119
  515MOL0     H67935   0.783  10.172   2.123 -1.5578  0.3123 -0.1203
  515MOL0     H67936   0.975  10.265   2.053 -1.1887 -1.0002 -0.2052
  515MOL0     H67937   1.031  10.100   2.088 -0.1355 -1.1350  1.9514
  515MOL0     H67938   1.075  10.211   2.333  2.0698 -1.3445 -0.2075
  515MOL0     H67939   1.196  10.210   2.208 -0.1131 -0.2848 -3.7238
  515MOL0     H67940   1.008  10.449   2.241  0.8325  2.1553 -2.4731
  515MOL0     H67941   1.168  10.450   2.162 -0.3450  0.1566 -0.9741
  515MOL0     H67942   1.325  10.460   2.546 -1.2049 -0.8650 -1.0822
  515MOL0     H67943   1.426  10.659   2.650  1.5271  1.0152 -0.4598
  515MOL0     H67944   1.504  11.040   2.876  1.4965 -1.8406  0.0481
  515MOL0     H67945   1.569  11.275   2.921 -3.5368  0.1411 -0.0627
  515MOL0     H67946   1.545  11.528   2.687 -0.1797  1.8197  0.4963
  515MOL0     H67947   1.699  11.569   2.637 -0.1928  3.5214  0.8193
  515MOL0     H67948   1.724  11.662   2.894 -0.8171  2.1631  1.8332
  515MOL0     H67949   1.554  11.626   2.891  1.2569 -2.2466  0.9952
  515MOL0     H67950   1.525  11.759   2.675  2.2762 -0.0262 -2.0803
  515MOL0     H67951   1.700  11.804   2.693  0.7435 -1.6775  1.5012
  515MOL0     H67952   1.528  11.846   2.933 -1.6277 -0.4471 -0.3399
  515MOL0     H67953   1.659  11.944   2.859 -0.3617 -0.5973  0.0717
  515MOL0     H67954   1.524  12.057   2.710 -0.5932 -2.7784 -1.6098
  515MOL0     H67955   1.476  12.083   2.873  0.0002  0.8390 -0.2439
  515MOL0     H67956   1.298  11.894   2.821  0.2928 -0.5090 -0.3409
  515MOL0     H67957   1.336  11.899   2.661  0.3423 -2.3105  1.9626
  515MOL0     H67958   1.269  12.171   2.676 -2.8147  0.1337 -0.5885
  515MOL0     H67959   1.148  12.046   2.675 -1.0518  1.5144 -0.2431
  515MOL0     H67960   1.266  12.158   2.923 -1.1397 -1.5118  3.1512
  515MOL0     H67961   1.145  12.025   2.914 -2.3336  0.0119 -2.1900
  515MOL0     H67962   1.666  11.333   2.506 -1.5500  0.4027 -0.2243
  515MOL0     H67963   1.600  11.090   2.457 -3.8650 -1.4574 -0.2110
  515MOL0     H67964   1.187  10.882   2.342 -3.9983 -1.8564 -1.3579
  515MOL0     H67965   1.120  10.667   2.262  1.2157  0.5363 -0.9068
  515MOL0     H67966   0.590   8.987   2.001  3.5020  0.4887  1.5140
  515MOL0     H67967   0.487   8.998   1.784  0.9089 -0.7769 -1.3862
  515MOL0     H67968   0.461   9.062   1.377  0.0022  0.6315  0.6673
  515MOL0     H67969   0.441   9.057   1.135  3.0378  1.7491 -1.8867
  515MOL0     H67970   0.331   9.418   0.880 -0.3796  0.4952  0.2686
  515MOL0     H67971   0.195   9.349   0.974  2.0704 -0.9418  2.0913
  515MOL0     H67972   0.315   9.227   0.735 -0.8132  1.0375 -1.6845
  515MOL0     H67973   0.169   9.170   0.828 -4.0800  2.2200 -0.8998
  515MOL0     H67974   0.195   9.405   0.641  0.4154 -0.2639 -1.5508
  515MOL0     H67975   0.062   9.399   0.758 -0.4599  0.9119 -1.8779
  515MOL0     H67976   0.006   9.306   0.535 -1.5647 -0.1203  1.2535
  515MOL0     H67977   0.103   9.177   0.590 -1.1241 -0.2081 -0.9464
  515MOL0     H67978  -0.236   9.100   0.816  0.3402  1.4741  1.3690
  515MOL0     H67979   0.370   9.479   1.126  3.9714 -0.0464 -2.5381
  515MOL0     H67980   0.420   9.494   1.364  2.1208  0.6100 -1.6045
  516MOL0     O67981  10.270   3.503   8.919  0.7666  0.2483 -0.2805
  516MOL0     C67982  10.157   3.478   8.966  0.3318  0.5450 -0.2984
  516MOL0     O67983  10.076   3.372   8.927  0.2930  0.3962 -0.0520
  516MOL0     C67984  10.101   3.268   8.845  0.5074  0.8881  0.2928
  516MOL0     C67985   9.997   3.167   8.846 -1.2722 -0.4993 -0.3186
  516MOL0     C67986  10.003   3.055   8.756  0.7963 -0.6372 -0.7079
  516MOL0     C67987  10.118   3.032   8.675 -0.3660 -0.2221 -0.3147
  516MOL0     O67988  10.128   2.918   8.605 -0.1546 -0.3523 -0.1280
  516MOL0     C67989  10.239   2.836   8.642 -0.8829 -0.5538  0.0461
  516MOL0     C67990  10.209   2.683   8.622 -0.0437  0.2745  0.2605
  516MOL0     C67991  10.241   2.647   8.479 -1.1655  0.5038  0.5589
  516MOL0     C67992  10.218   2.499   8.441 -0.8696  1.1758  0.1490
  516MOL0     C67993  10.270   2.484   8.300 -0.3896 -0.3615  0.8417
  516MOL0     C67994  10.275   2.342   8.261 -0.4073  1.3101  0.0512
  516MOL0     C67995  10.368   2.311   8.146 -0.3113 -0.0039 -1.1280
  516MOL0     C67996  10.348   2.402   8.022  0.1322  0.3386 -0.8279
  516MOL0     N67997  10.226   2.350   7.957 -0.6702  0.5320 -0.0226
  516MOL0     C67998  10.219   2.252   7.864  0.4204  0.4716  0.3412
  516MOL0     C67999  10.085   2.236   7.830  0.7510 -0.3106  0.0949
  516MOL0     C68000  10.033   2.150   7.715 -0.3179  0.3073  0.5601
  516MOL0     C68001   9.939   2.233   7.634 -0.2419 -0.8132 -0.1005
  516MOL0     C68002  10.015   2.326   7.537  0.1057 -0.3232 -0.6106
  516MOL0     C68003   9.981   2.282   7.399 -0.0717 -1.0984  0.6918
  516MOL0     O68004  10.051   2.369   7.303  0.7274  0.3995  0.0896
  516MOL0     C68005  10.054   2.323   7.167 -0.1836 -0.0047  0.5212
  516MOL0     C68006  10.015   2.207   7.119 -0.6261  0.2501 -0.9688
  516MOL0     C68007  10.000   2.187   6.987 -0.2016  0.0802  0.4574
  516MOL0     C68008  10.047   2.281   6.892  0.9990  0.1364  0.4411
  516MOL0     C68009  10.058   2.257   6.751  0.2787 -0.5666  1.1235
  516MOL0     O68010  10.073   2.130   6.704  1.0748 -0.2796 -0.2461
  516MOL0     C68011  10.098   2.099   6.575  0.0763  0.0888  0.5137
  516MOL0     C68012  10.002   2.131   6.478 -0.3399  0.4269 -0.1534
  516MOL0     C68013  10.034   2.090   6.341  1.2043 -0.7418 -1.1599
  516MOL0     C68014  10.156   2.033   6.307  0.1834  0.4344  0.2940
  516MOL0     O68015  10.180   1.995   6.180 -0.2777 -0.3606  0.1092
  516MOL0     C68016  10.080   1.963   6.083  0.6059  0.5987 -0.5003
  516MOL0     C68017  10.155   1.970   5.943 -0.0287  1.1103 -0.4394
  516MOL0     C68018  10.063   1.981   5.824 -0.0944  0.4673 -0.4943
  516MOL0     C68019  10.000   1.849   5.766 -0.3043 -0.0841 -0.0639
  516MOL0     C68020   9.869   1.879   5.691 -0.3809  1.7770  0.6845
  516MOL0     C68021   9.795   1.753   5.640  0.3572  0.1330 -0.1286
  516MOL0     C68022   9.863   1.670   5.531  0.3584  0.4376 -0.1395
  516MOL0     C68023   9.783   1.543   5.505 -1.0467  1.1608 -0.3294
  516MOL0    Cl68024   9.616   1.577   5.433  0.3580 -0.3621 -0.6028
  516MOL0     C68025  10.255   2.008   6.405  0.3888 -0.9761  0.2112
  516MOL0     C68026  10.226   2.043   6.541  0.5235  0.1249  0.8695
  516MOL0     O68027  10.058   2.362   6.677 -0.0216  0.6894  0.1090
  516MOL0     C68028  10.105   2.404   6.942  0.1105 -0.2945 -0.5117
  516MOL0     C68029  10.104   2.418   7.082  0.4261 -0.3076 -0.4040
  516MOL0     N68030  10.001   2.326   7.900 -0.0740 -0.5271 -0.1601
  516MOL0     N68031  10.089   2.390   7.983 -0.3721  0.0708  0.8659
  516MOL0     C68032  10.224   3.128   8.675 -0.6723  0.9832  0.8410
  516MOL0     C68033  10.207   3.241   8.759 -0.7018  0.0229 -0.3788
  516MOL0     C68034  10.107   3.570   9.068  1.1307  0.6176 -1.0770
  516MOL0     C68035  10.009   3.525   9.167  0.0562  0.5982  0.0757
  516MOL0     C68036   9.982   3.604   9.279 -0.4202 -0.1218  0.0508
  516MOL0     C68037  10.027   3.741   9.297 -0.4488 -0.2321  0.4038
  516MOL0     O68038  10.000   3.840   9.387  1.0045  0.0398 -0.0710
  516MOL0     C68039   9.894   3.813   9.489  1.1328  0.0766  0.0946
  516MOL0     C68040   9.843   3.948   9.546 -0.6222 -0.2990  0.8045
  516MOL0     C68041   9.924   3.998   9.667 -0.4279 -0.2679  0.1309
  516MOL0     C68042   9.902   4.146   9.697  0.0971  0.1956 -0.1289
  516MOL0     C68043   9.784   4.162   9.772  0.5737 -0.5609  0.1940
  516MOL0     C68044   9.681   4.194   9.830  0.7756  0.3952  1.2037
  516MOL0     C68045  10.130   3.776   9.197 -0.5840 -0.1996 -0.5089
  516MOL0     C68046  10.169   3.692   9.091 -0.3314 -0.3682 -0.0136
  516MOL0     H68047   9.918   3.174   8.920  1.4385 -0.6984  2.8659
  516MOL0     H68048   9.927   2.978   8.767  1.4116 -1.1645 -0.1158
  516MOL0     H68049  10.270   2.844   8.747 -0.9481 -0.3223  0.0473
  516MOL0     H68050  10.322   2.866   8.577 -1.6685 -4.2806 -3.0401
  516MOL0     H68051  10.116   2.647   8.666 -0.5212  1.4174  0.2222
  516MOL0     H68052  10.280   2.634   8.691 -0.6285  2.2089  2.3516
  516MOL0     H68053  10.346   2.673   8.461 -0.6953 -0.2350  2.0462
  516MOL0     H68054  10.170   2.707   8.422 -0.6956 -1.1034 -1.8928
  516MOL0     H68055  10.282   2.448   8.514 -2.1397  0.5057  0.8260
  516MOL0     H68056  10.119   2.454   8.455 -0.8553  0.5428 -1.5320
  516MOL0     H68057  10.365   2.538   8.297  0.2708 -1.3187  2.6367
  516MOL0     H68058  10.204   2.540   8.232  2.7738  1.3446 -1.0569
  516MOL0     H68059  10.177   2.304   8.233  0.5915 -1.0606 -0.4944
  516MOL0     H68060  10.313   2.283   8.345 -1.0982 -1.0264 -1.2080
  516MOL0     H68061  10.470   2.320   8.184 -0.7420 -0.4325  0.1648
  516MOL0     H68062  10.349   2.207   8.120  0.8863 -0.6158  0.3366
  516MOL0     H68063  10.428   2.379   7.950 -2.2987  2.2755 -4.4553
  516MOL0     H68064  10.327   2.505   8.052 -1.2053 -0.3040  0.5647
  516MOL0     H68065  10.296   2.189   7.821 -0.9662 -1.4705  0.5717
  516MOL0     H68066   9.982   2.066   7.764 -0.3619  1.6506  2.9739
  516MOL0     H68067  10.124   2.112   7.667 -1.7909 -2.6777 -0.1430
  516MOL0     H68068   9.870   2.289   7.697  2.8658  0.2123  2.6797
  516MOL0     H68069   9.865   2.171   7.583  0.1095  1.7172 -4.1605
  516MOL0     H68070   9.981   2.430   7.541  1.9402  0.4493 -2.7175
  516MOL0     H68071  10.122   2.329   7.561 -0.1344  0.1048  0.4488
  516MOL0     H68072   9.876   2.291   7.371  0.5276 -0.9305 -1.6964
  516MOL0     H68073  10.018   2.180   7.384 -1.8046 -1.6057 -0.3330
  516MOL0     H68074   9.981   2.125   7.181 -1.2854  1.1151 -0.1386
  516MOL0     H68075   9.964   2.091   6.951 -4.2441  0.6087  2.4819
  516MOL0     H68076   9.905   2.178   6.491 -0.9580 -0.4903 -1.3107
  516MOL0     H68077   9.954   2.104   6.269 -1.2922 -1.7160  1.2237
  516MOL0     H68078  10.002   2.040   6.089  1.2543  1.2199  0.1428
  516MOL0     H68079  10.033   1.867   6.105  3.6491 -1.0836 -0.8040
  516MOL0     H68080  10.219   1.882   5.933 -1.4998  0.1587 -1.9541
  516MOL0     H68081  10.221   2.057   5.939  0.8906  0.6238  2.1612
  516MOL0     H68082  10.120   2.034   5.748 -0.9595  2.1946 -0.0087
  516MOL0     H68083   9.981   2.052   5.844  0.4121  0.7850  0.5159
  516MOL0     H68084  10.077   1.810   5.699  2.3989  2.5780  1.2429
  516MOL0     H68085   9.986   1.769   5.840 -0.7268  1.4084  1.5404
  516MOL0     H68086   9.899   1.942   5.607 -3.1742  0.9482 -1.1056
  516MOL0     H68087   9.790   1.933   5.744 -0.4906  1.3915  0.9217
  516MOL0     H68088   9.704   1.797   5.598  0.6870  2.1671  1.1677
  516MOL0     H68089   9.764   1.696   5.728  1.1934 -2.9439 -1.6694
  516MOL0     H68090   9.857   1.733   5.442  0.0118  0.8156  0.1498
  516MOL0     H68091   9.969   1.651   5.553 -0.0169 -0.2781  1.1320
  516MOL0     H68092   9.755   1.490   5.596 -2.4090 -1.1508 -1.9801
  516MOL0     H68093   9.841   1.477   5.441  1.5648  1.4964  1.5492
  516MOL0     H68094  10.347   1.955   6.382  1.4613 -0.1166  2.2560
  516MOL0     H68095  10.308   2.031   6.610  1.4734 -3.5648 -0.6674
  516MOL0     H68096  10.137   2.487   6.879 -3.0941  0.4278 -1.3796
  516MOL0     H68097  10.135   2.507   7.135 -0.7299 -1.4384  2.3238
  516MOL0     H68098  10.316   3.102   8.622 -2.1139 -1.1698 -0.7352
  516MOL0     H68099  10.285   3.315   8.776 -1.5317  0.7784  0.2226
  516MOL0     H68100   9.972   3.423   9.156  0.8268  0.5303 -2.5581
  516MOL0     H68101   9.914   3.561   9.352 -1.1404  0.9495  0.0429
  516MOL0     H68102   9.931   3.750   9.570  0.9523 -2.9434 -1.9844
  516MOL0     H68103   9.813   3.758   9.442 -0.7473 -0.4608  3.6835
  516MOL0     H68104   9.847   4.023   9.467 -1.5525  2.4254  3.1386
  516MOL0     H68105   9.741   3.940   9.583 -1.0812  0.9915 -0.1082
  516MOL0     H68106  10.033   3.988   9.663 -0.2913  0.9486  0.3036
  516MOL0     H68107   9.891   3.927   9.742  1.3152  0.4625  1.6692
  516MOL0     H68108   9.982   4.178   9.764 -0.8000 -0.3074  1.2279
  516MOL0     H68109   9.900   4.195   9.600 -2.3342 -4.5054 -2.8036
  516MOL0     H68110   9.597   4.224   9.890 -0.0085 -1.4995  1.1311
  516MOL0     H68111  10.181   3.871   9.209 -0.8521 -0.3587  3.0164
  516MOL0     H68112  10.253   3.724   9.030  0.0564  0.2113  0.7989
  517MOL0     O68113   0.915   6.382   6.990  0.3053  0.1466 -0.2679
  517MOL0     C68114   0.843   6.376   6.893  0.0480 -0.9281 -0.0370
  517MOL0     O68115   0.729   6.312   6.881  0.1764 -0.5879 -0.1136
  517MOL0     C68116   0.670   6.294   7.002  0.3188  0.3446  0.4230
  517MOL0     C68117   0.670   6.162   7.048 -0.8281  0.0541  0.6850
  517MOL0     C68118   0.589   6.126   7.155 -0.0587  0.2432  0.5686
  517MOL0     C68119   0.525   6.232   7.238 -0.6598  0.6565 -0.3972
  517MOL0     O68120   0.478   6.202   7.358  0.2646 -0.6433  0.5156
  517MOL0     C68121   0.427   6.066   7.371  0.4869 -0.0659 -1.0892
  517MOL0     C68122   0.294   6.077   7.456  0.5003  0.2903  0.2664
  517MOL0     C68123   0.171   6.140   7.381 -0.1225 -0.0949 -0.4080
  517MOL0     C68124   0.140   6.063   7.249  0.4516  0.1771  0.4321
  517MOL0     C68125   0.009   6.106   7.186 -0.1822  0.1557  0.6340
  517MOL0     C68126  -0.020   6.039   7.043  0.7397 -0.4656  0.5925
  517MOL0     C68127  -0.166   6.087   6.994 -0.6238  0.0337  0.5234
  517MOL0     C68128  -0.160   6.199   6.897 -0.5014  0.6069  0.8438
  517MOL0     N68129  -0.135   6.154   6.765 -0.3173 -0.7055  0.3446
  517MOL0     C68130  -0.223   6.140   6.667  0.4850 -0.7776  1.0743
  517MOL0     C68131  -0.161   6.086   6.564  0.0482  1.2912  0.1777
  517MOL0     C68132  -0.218   6.076   6.423 -0.5657 -1.2087 -0.8818
  517MOL0     C68133  -0.129   6.006   6.320 -0.9466  1.0113  0.0471
  517MOL0     C68134  -0.195   6.015   6.177  0.2359  1.9301  0.0900
  517MOL0     C68135  -0.180   6.148   6.098 -0.4690 -0.6311 -0.3449
  517MOL0     O68136  -0.266   6.241   6.168 -0.1711 -0.9650 -0.4140
  517MOL0     C68137  -0.275   6.358   6.092  0.9247 -0.3875  0.8744
  517MOL0     C68138  -0.191   6.407   5.989 -0.4196  0.6857  0.3332
  517MOL0     C68139  -0.212   6.535   5.934 -0.4375  0.4430  0.3684
  517MOL0     C68140  -0.311   6.626   5.967 -0.8821 -0.4619 -0.0866
  517MOL0     C68141  -0.320   6.770   5.905  0.6625  0.7351  0.8428
  517MOL0     O68142  -0.224   6.803   5.818  0.4310 -0.0358  0.2958
  517MOL0     C68143  -0.198   6.933   5.791  0.2176 -0.6361  0.1280
  517MOL0     C68144  -0.191   6.992   5.663  0.3210 -0.0158 -0.7828
  517MOL0     C68145  -0.179   7.132   5.648 -0.6148  1.0966  0.4122
  517MOL0     C68146  -0.171   7.220   5.751  0.7166 -0.2619 -1.0709
  517MOL0     O68147  -0.158   7.359   5.723  0.2151  0.3406 -0.2836
  517MOL0     C68148  -0.265   7.407   5.638 -0.2772  0.4176  0.0697
  517MOL0     C68149  -0.255   7.564   5.626  1.0816  0.3155 -0.2471
  517MOL0     C68150  -0.116   7.606   5.556  0.3825  0.5054  0.3595
  517MOL0     C68151  -0.113   7.763   5.571 -0.7523 -0.3741 -0.4703
  517MOL0     C68152   0.005   7.833   5.498  0.3280 -0.0651  0.2792
  517MOL0     C68153  -0.028   7.868   5.351 -0.3068 -0.7351  0.3216
  517MOL0     C68154  -0.100   8.003   5.339  0.1537 -0.2301 -1.1919
  517MOL0     C68155  -0.155   8.017   5.200  1.5417 -0.4261 -0.8895
  517MOL0    Cl68156  -0.007   8.049   5.104 -0.0646 -0.1011 -0.6163
  517MOL0     C68157  -0.172   7.158   5.882  0.1412  0.1482  1.1536
  517MOL0     C68158  -0.185   7.022   5.901 -0.0437  0.2959 -0.4430
  517MOL0     O68159  -0.414   6.839   5.943 -0.4535  0.4016 -0.2549
  517MOL0     C68160  -0.401   6.579   6.074 -1.2630  0.3551 -0.7250
  517MOL0     C68161  -0.380   6.447   6.132  0.5360 -0.8541  0.2567
  517MOL0     N68162  -0.035   6.040   6.605 -0.4986 -0.5725  0.6171
  517MOL0     N68163  -0.026   6.085   6.729 -0.6150 -0.0465  0.7570
  517MOL0     C68164   0.519   6.357   7.186 -0.1556 -0.7448  0.1081
  517MOL0     C68165   0.586   6.391   7.073 -0.3872 -0.2830  0.2896
  517MOL0     C68166   0.887   6.458   6.778  0.6911 -0.1835 -0.7353
  517MOL0     C68167   0.814   6.467   6.660  0.9564  0.0771 -0.1199
  517MOL0     C68168   0.863   6.546   6.549 -0.3752  0.0644  0.0060
  517MOL0     C68169   0.987   6.606   6.563 -0.3629 -0.5357 -0.1210
  517MOL0     O68170   1.060   6.687   6.476  0.7037  0.8447  0.5891
  517MOL0     C68171   0.990   6.775   6.375  0.9705 -0.4522 -0.1119
  517MOL0     C68172   0.908   6.891   6.437 -0.0032 -0.7009 -0.7566
  517MOL0     C68173   0.990   6.948   6.550 -0.2102  0.3101  0.2624
  517MOL0     C68174   0.966   7.098   6.590 -0.6246  1.0687  0.0525
  517MOL0     C68175   1.045   7.142   6.710  0.2598 -0.3183  0.4025
  517MOL0     C68176   1.096   7.177   6.811 -0.3950 -0.1886 -0.3910
  517MOL0     C68177   1.060   6.599   6.679 -0.1774 -0.3206 -0.2008
  517MOL0     C68178   1.006   6.536   6.796  0.1366  0.2442 -0.6477
  517MOL0     H68179   0.722   6.086   6.990 -5.0083 -1.5825 -1.3182
  517MOL0     H68180   0.598   6.019   7.174 -0.7179 -0.1189 -0.9405
  517MOL0     H68181   0.504   6.003   7.417 -1.8977 -0.9336  1.9984
  517MOL0     H68182   0.402   6.011   7.280 -1.9290  1.0420 -1.1693
  517MOL0     H68183   0.318   6.131   7.549  2.3987  1.1026 -0.6349
  517MOL0     H68184   0.263   5.978   7.491  2.1206 -0.0026  0.9895
  517MOL0     H68185   0.197   6.245   7.367  0.9380 -0.3200 -0.2529
  517MOL0     H68186   0.079   6.132   7.440 -1.8947  1.9425 -2.7097
  517MOL0     H68187   0.216   6.087   7.173 -1.3906  0.5918 -1.3746
  517MOL0     H68188   0.139   5.954   7.258  0.1815  0.0080 -1.3371
  517MOL0     H68189   0.000   6.215   7.189  1.8630  0.3405  2.9974
  517MOL0     H68190  -0.074   6.078   7.251 -0.6783  1.2568  0.4970
  517MOL0     H68191  -0.028   5.930   7.057 -0.5413 -0.1172  3.1187
  517MOL0     H68192   0.067   6.053   6.979  0.9885 -1.4146  0.7062
  517MOL0     H68193  -0.228   6.003   6.963 -0.3292  0.7053 -2.0803
  517MOL0     H68194  -0.215   6.124   7.085  1.7952  1.2537  1.4259
  517MOL0     H68195  -0.093   6.279   6.928  0.7545  0.5317 -1.4446
  517MOL0     H68196  -0.262   6.238   6.903 -0.6762  0.3450 -0.3163
  517MOL0     H68197  -0.320   6.188   6.660  0.7965  0.0685 -6.4336
  517MOL0     H68198  -0.240   6.177   6.388  0.4296 -1.5200 -2.5231
  517MOL0     H68199  -0.312   6.021   6.438 -2.2743  1.5763 -0.7499
  517MOL0     H68200  -0.104   5.902   6.347  0.1393  0.9846 -0.9912
  517MOL0     H68201  -0.029   6.050   6.318  1.7105 -4.0678  2.1180
  517MOL0     H68202  -0.149   5.934   6.120  0.3392  0.3894  2.2172
  517MOL0     H68203  -0.301   5.990   6.189  0.1452  3.2015  2.7112
  517MOL0     H68204  -0.214   6.130   5.996  1.5720 -1.9696 -0.8573
  517MOL0     H68205  -0.073   6.174   6.095 -0.9129  1.2605 -2.5117
  517MOL0     H68206  -0.106   6.351   5.950 -0.7130 -0.7236  1.6171
  517MOL0     H68207  -0.131   6.555   5.865 -0.0353 -0.7721  0.4719
  517MOL0     H68208  -0.215   6.925   5.581 -0.9627 -2.0714  1.1609
  517MOL0     H68209  -0.180   7.154   5.541 -1.9368 -1.3541 -0.1384
  517MOL0     H68210  -0.366   7.383   5.670 -0.5735  0.8658 -0.5059
  517MOL0     H68211  -0.243   7.372   5.537  0.2570 -1.7442  0.8881
  517MOL0     H68212  -0.254   7.619   5.720  3.2620 -0.2788  0.1093
  517MOL0     H68213  -0.342   7.601   5.569  2.2051 -2.5718 -4.2496
  517MOL0     H68214  -0.119   7.568   5.454 -0.4161  2.0539 -0.2281
  517MOL0     H68215  -0.031   7.556   5.604  1.6799 -0.1059 -2.3615
  517MOL0     H68216  -0.207   7.813   5.545 -0.8346 -0.1912  0.1580
  517MOL0     H68217  -0.098   7.789   5.676 -1.8971 -1.2979 -0.0585
  517MOL0     H68218   0.089   7.763   5.511  3.7410  3.6314 -0.0162
  517MOL0     H68219   0.058   7.917   5.542  0.7728  1.3361 -2.6743
  517MOL0     H68220  -0.080   7.781   5.309  1.4066 -0.3498 -2.9840
  517MOL0     H68221   0.063   7.876   5.289 -1.1752 -0.1537 -0.9213
  517MOL0     H68222  -0.190   7.994   5.402 -0.0628  3.1192 -0.8302
  517MOL0     H68223  -0.050   8.090   5.382  2.2733 -2.2308  0.6060
  517MOL0     H68224  -0.225   8.100   5.183  0.1259 -1.6065 -1.1014
  517MOL0     H68225  -0.190   7.920   5.162 -1.9168 -0.0645  0.8850
  517MOL0     H68226  -0.164   7.236   5.957  1.9424  1.1413 -0.0063
  517MOL0     H68227  -0.188   6.987   6.004 -4.6218  0.5934 -0.2834
  517MOL0     H68228  -0.486   6.627   6.122  1.5604  1.1390  4.1016
  517MOL0     H68229  -0.452   6.422   6.208 -2.0524 -0.3398 -1.8573
  517MOL0     H68230   0.451   6.426   7.236 -0.1166 -1.0363  0.5670
  517MOL0     H68231   0.589   6.493   7.037  0.1713 -0.3563  0.1199
  517MOL0     H68232   0.718   6.417   6.655  0.3812  1.2115 -0.7890
  517MOL0     H68233   0.815   6.541   6.452  0.9631 -1.5266 -0.6085
  517MOL0     H68234   0.930   6.709   6.310  1.1518 -0.2892 -0.4487
  517MOL0     H68235   1.067   6.828   6.318 -2.7790  0.8572 -4.6090
  517MOL0     H68236   0.882   6.974   6.371 -4.3805 -0.2686  1.1882
  517MOL0     H68237   0.825   6.860   6.501 -0.5203 -3.1842 -2.4804
  517MOL0     H68238   1.099   6.950   6.536 -0.0323  1.6529  1.4796
  517MOL0     H68239   0.981   6.886   6.640  0.9814  0.3596  0.4411
  517MOL0     H68240   0.991   7.153   6.500  3.9401 -1.4471 -0.5213
  517MOL0     H68241   0.860   7.111   6.615 -0.6973  0.4980  0.0709
  517MOL0     H68242   1.153   7.210   6.895  1.1073  0.4973 -1.6279
  517MOL0     H68243   1.155   6.651   6.684  0.7460 -1.9155 -0.3621
  517MOL0     H68244   1.066   6.527   6.886  0.8050  1.8609 -0.8904
  518MOL0     O68245   6.464   8.769   0.841 -0.3278 -0.5808  0.1503
  518MOL0     C68246   6.513   8.696   0.760 -0.1923  0.1505 -0.1799
  518MOL0     O68247   6.455   8.591   0.695  0.3129 -0.6291 -0.9091
  518MOL0     C68248   6.322   8.548   0.724  0.5951  0.0198 -0.4113
  518MOL0     C68249   6.303   8.410   0.719  0.8642  0.1942 -0.4304
  518MOL0     C68250   6.170   8.361   0.734  0.1053  1.0504 -0.6096
  518MOL0     C68251   6.058   8.438   0.770 -0.2115 -0.0239  0.2928
  518MOL0     O68252   5.942   8.371   0.802  0.1524  0.2210  0.0554
  518MOL0     C68253   5.842   8.445   0.866 -0.5692  1.2286 -0.1120
  518MOL0     C68254   5.719   8.360   0.837  0.9494 -0.8624 -0.3186
  518MOL0     C68255   5.596   8.427   0.904  0.0821  0.5682  0.1838
  518MOL0     C68256   5.502   8.308   0.930  0.5794  0.6494  0.0902
  518MOL0     C68257   5.367   8.378   0.986 -0.6783  0.8232 -0.2088
  518MOL0     C68258   5.273   8.257   0.995  0.4153 -0.0231  0.6275
  518MOL0     C68259   5.125   8.290   1.070 -0.0159 -0.8848  0.9045
  518MOL0     C68260   5.146   8.278   1.225  0.1145  0.3245 -0.5548
  518MOL0     N68261   5.053   8.365   1.300 -0.0089 -0.4960 -1.4949
  518MOL0     C68262   4.929   8.328   1.367  0.4854 -0.6853 -0.5978
  518MOL0     C68263   4.877   8.440   1.415 -0.4879  0.1052  0.1782
  518MOL0     C68264   4.780   8.464   1.530 -0.2791  0.3613 -0.0813
  518MOL0     C68265   4.645   8.398   1.502 -0.1779  0.4864  0.7697
  518MOL0     C68266   4.526   8.481   1.554 -0.4018  0.0741 -0.3588
  518MOL0     C68267   4.536   8.543   1.695 -0.6549 -0.2187  0.2603
  518MOL0     O68268   4.422   8.628   1.711  0.7616 -0.4626  0.3156
  518MOL0     C68269   4.402   8.683   1.837  0.5062  0.6123  0.4319
  518MOL0     C68270   4.451   8.625   1.953  0.4886  1.3497  0.1204
  518MOL0     C68271   4.427   8.674   2.083  0.1119 -0.0118 -0.2149
  518MOL0     C68272   4.347   8.790   2.097  0.6056  0.5804  0.0697
  518MOL0     C68273   4.313   8.841   2.230 -0.3433 -0.2496 -0.2559
  518MOL0     O68274   4.350   8.760   2.331 -0.5008  0.1190 -0.9197
  518MOL0     C68275   4.345   8.792   2.467  1.2001 -0.0012  0.0886
  518MOL0     C68276   4.421   8.723   2.561  0.2165 -0.2263  1.6574
  518MOL0     C68277   4.411   8.753   2.705  0.2998 -0.2492  0.4664
  518MOL0     C68278   4.312   8.835   2.755  0.2796  0.5189  0.7799
  518MOL0     O68279   4.311   8.835   2.891  0.0093 -0.0017 -0.1072
  518MOL0     C68280   4.278   8.957   2.952 -0.3309  0.2281 -0.2523
  518MOL0     C68281   4.395   9.059   2.950  0.9748 -0.9975  0.1418
  518MOL0     C68282   4.357   9.193   3.032  0.7631  0.3955 -0.3740
  518MOL0     C68283   4.263   9.191   3.155  0.3032 -0.0647 -0.9812
  518MOL0     C68284   4.332   9.120   3.270  0.2138 -0.3050  1.1135
  518MOL0     C68285   4.245   9.107   3.389 -0.3650 -0.6583 -0.5557
  518MOL0     C68286   4.181   8.975   3.382 -0.5660 -0.2365  0.1342
  518MOL0     C68287   4.089   8.955   3.498  0.1783 -0.1332 -1.0135
  518MOL0    Cl68288   4.070   8.782   3.538 -0.0426  0.1795 -0.0902
  518MOL0     C68289   4.233   8.888   2.660 -0.3188 -0.4660 -0.1485
  518MOL0     C68290   4.245   8.869   2.525  0.4752 -0.9638  0.2427
  518MOL0     O68291   4.269   8.958   2.232  0.7140  0.3882 -0.2122
  518MOL0     C68292   4.291   8.847   1.982 -0.6756 -1.5027  0.7848
  518MOL0     C68293   4.325   8.799   1.857 -0.1458  0.3428  0.0606
  518MOL0     N68294   4.959   8.540   1.372  0.0090 -0.0396  1.2299
  518MOL0     N68295   5.053   8.503   1.296 -1.0407  0.1456 -0.1369
  518MOL0     C68296   6.088   8.578   0.777  0.1482 -0.0677 -0.7238
  518MOL0     C68297   6.212   8.634   0.745 -0.4785  0.7932 -0.2838
  518MOL0     C68298   6.665   8.707   0.753  1.0974  0.4221  0.3441
  518MOL0     C68299   6.734   8.815   0.819 -0.5476  0.4741  0.6109
  518MOL0     C68300   6.874   8.819   0.813 -0.0246 -0.1061 -0.6412
  518MOL0     C68301   6.952   8.727   0.751  0.1385  0.7821 -0.3626
  518MOL0     O68302   7.084   8.729   0.763  0.1626 -1.0702  0.5386
  518MOL0     C68303   7.156   8.670   0.655 -0.6148  0.3436 -0.3301
  518MOL0     C68304   7.300   8.700   0.649  0.8547  0.8748  0.0972
  518MOL0     C68305   7.325   8.851   0.686 -0.5204 -0.2826 -0.7413
  518MOL0     C68306   7.358   8.857   0.842  0.3398 -0.9249  0.9963
  518MOL0     C68307   7.414   8.995   0.871 -0.7997 -0.2475 -0.1450
  518MOL0     C68308   7.464   9.097   0.915  0.0899  0.5644 -0.1510
  518MOL0     C68309   6.883   8.624   0.688  1.1254 -1.0707 -0.3182
  518MOL0     C68310   6.744   8.616   0.680  0.5311 -0.4073 -0.0700
  518MOL0     H68311   6.379   8.340   0.686  1.7951 -0.2957  2.4467
  518MOL0     H68312   6.155   8.255   0.715 -1.5932  1.4172 -1.5178
  518MOL0     H68313   5.822   8.546   0.828 -0.4417  2.8853  3.7807
  518MOL0     H68314   5.873   8.447   0.971 -3.1052 -0.7400  0.7931
  518MOL0     H68315   5.733   8.261   0.880  1.6129 -0.8217 -0.4281
  518MOL0     H68316   5.698   8.353   0.730 -1.2746 -1.6791  0.1278
  518MOL0     H68317   5.535   8.494   0.843 -2.5021 -1.8987 -0.1385
  518MOL0     H68318   5.617   8.484   0.995  1.2304  1.8151 -0.8124
  518MOL0     H68319   5.484   8.248   0.841  3.1684  1.4755 -1.0919
  518MOL0     H68320   5.535   8.235   1.004  5.0981 -0.6141 -2.7470
  518MOL0     H68321   5.321   8.442   0.911  0.3032 -0.3212 -1.8682
  518MOL0     H68322   5.393   8.417   1.084 -0.6712  0.3295 -0.0106
  518MOL0     H68323   5.324   8.175   1.047  3.3596  0.7090 -0.8821
  518MOL0     H68324   5.249   8.224   0.894 -2.9524  0.2804  1.2332
  518MOL0     H68325   5.093   8.393   1.052  0.1511 -1.2141 -1.6413
  518MOL0     H68326   5.034   8.243   1.030 -2.7214  3.7918  0.7703
  518MOL0     H68327   5.253   8.302   1.233 -0.2309  1.6907  0.3952
  518MOL0     H68328   5.139   8.178   1.268  1.6043  1.6524  3.2643
  518MOL0     H68329   4.895   8.229   1.398  2.1735 -2.2136 -3.2430
  518MOL0     H68330   4.773   8.572   1.547 -2.5152  0.7633 -2.8255
  518MOL0     H68331   4.837   8.425   1.615  1.3996  1.8218 -0.4747
  518MOL0     H68332   4.647   8.302   1.553  3.3844  0.7163  1.2704
  518MOL0     H68333   4.617   8.382   1.397 -0.7462 -0.2105  1.0236
  518MOL0     H68334   4.509   8.555   1.474  0.8262 -1.2665 -1.9304
  518MOL0     H68335   4.437   8.419   1.543 -0.8074  0.0537  2.4641
  518MOL0     H68336   4.629   8.600   1.709 -2.7476  3.2937  1.0674
  518MOL0     H68337   4.527   8.462   1.768 -0.1272  0.3239  0.9458
  518MOL0     H68338   4.508   8.532   1.958 -4.2265 -2.1223  6.6056
  518MOL0     H68339   4.474   8.629   2.170 -0.9820 -0.6890  0.0433
  518MOL0     H68340   4.483   8.649   2.512 -1.3779 -2.1430  2.3721
  518MOL0     H68341   4.473   8.696   2.774 -0.2437 -0.0064  1.1731
  518MOL0     H68342   4.256   8.946   3.059  1.7665  1.7938  0.4233
  518MOL0     H68343   4.187   8.996   2.904 -0.4008 -0.1684 -0.4396
  518MOL0     H68344   4.415   9.089   2.847  2.8641  2.6474  1.3599
  518MOL0     H68345   4.489   9.014   2.984  0.8920  0.5836  2.7735
  518MOL0     H68346   4.314   9.259   2.956  2.1561  2.9192  0.8976
  518MOL0     H68347   4.441   9.252   3.069 -0.4946  1.4022  1.0133
  518MOL0     H68348   4.230   9.286   3.198  2.2501 -0.2528  1.1202
  518MOL0     H68349   4.167   9.142   3.135 -0.1332  0.0627  0.5891
  518MOL0     H68350   4.427   9.167   3.296  0.7023  0.4622 -1.7255
  518MOL0     H68351   4.356   9.019   3.236  0.1223  0.5251 -1.6071
  518MOL0     H68352   4.169   9.185   3.403  0.5881  0.0395  1.0002
  518MOL0     H68353   4.306   9.101   3.480 -1.9452 -3.7746  0.4108
  518MOL0     H68354   4.138   8.958   3.283  2.5307  0.7740 -1.5262
  518MOL0     H68355   4.265   8.906   3.397 -0.9300 -0.8267 -0.5097
  518MOL0     H68356   3.992   8.996   3.467  1.1149  1.2828 -2.2090
  518MOL0     H68357   4.121   9.015   3.584  0.2540 -0.2032 -0.9931
  518MOL0     H68358   4.141   8.942   2.681 -1.2720 -2.4605  1.0041
  518MOL0     H68359   4.169   8.917   2.463  1.4581  2.9539  1.7743
  518MOL0     H68360   4.224   8.932   1.988 -0.1725 -1.0682  0.4091
  518MOL0     H68361   4.281   8.829   1.762  1.4027  1.4260 -0.3536
  518MOL0     H68362   6.007   8.641   0.812  1.6205  1.0135  0.9166
  518MOL0     H68363   6.223   8.739   0.768  1.8763  0.5215  0.0171
  518MOL0     H68364   6.678   8.892   0.872 -0.9258  0.9924 -0.5197
  518MOL0     H68365   6.930   8.889   0.875  1.1434 -0.1447 -1.6106
  518MOL0     H68366   7.127   8.719   0.562  2.5521  1.8770 -0.6286
  518MOL0     H68367   7.129   8.564   0.658 -2.1349  0.6403 -1.9396
  518MOL0     H68368   7.336   8.626   0.721  1.3540 -2.0275 -2.9223
  518MOL0     H68369   7.355   8.660   0.563  1.7375  0.9858  0.5880
  518MOL0     H68370   7.239   8.912   0.658 -0.3292 -0.0538 -0.8249
  518MOL0     H68371   7.418   8.890   0.644  0.1359  0.8650  1.6101
  518MOL0     H68372   7.271   8.849   0.908  0.5436  1.4188  1.6655
  518MOL0     H68373   7.444   8.793   0.863 -0.8742 -2.9141  0.1662
  518MOL0     H68374   7.518   9.186   0.935  0.8927 -0.2511  1.5163
  518MOL0     H68375   6.947   8.542   0.657  2.2723  0.5130 -2.4075
  518MOL0     H68376   6.691   8.540   0.623 -1.6461  0.4903  0.6632
  519MOL0     O68377   2.306   2.438   4.097  0.1733  0.3009 -0.0368
  519MOL0     C68378   2.314   2.364   4.191 -0.2235  0.4624 -1.2281
  519MOL0     O68379   2.402   2.263   4.217  0.1534  0.5173  0.8997
  519MOL0     C68380   2.524   2.265   4.151  1.2561 -0.4914 -0.2993
  519MOL0     C68381   2.631   2.328   4.210  1.3101  0.2188  0.6408
  519MOL0     C68382   2.760   2.350   4.151  0.9849 -0.1291  0.5924
  519MOL0     C68383   2.774   2.300   4.023  0.9816  0.7694  0.9496
  519MOL0     O68384   2.897   2.321   3.968  0.2504 -0.2354 -0.7201
  519MOL0     C68385   2.978   2.217   4.023  0.5813  0.5626 -0.4249
  519MOL0     C68386   3.065   2.139   3.932  0.9586 -1.3513  0.7265
  519MOL0     C68387   3.001   2.071   3.806  0.6242 -0.9846 -0.8468
  519MOL0     C68388   2.995   2.175   3.686  0.7898  0.0748  0.6088
  519MOL0     C68389   2.909   2.126   3.565 -0.4308 -0.7322 -1.0378
  519MOL0     C68390   2.907   1.978   3.544  0.0921 -0.2300  0.3101
  519MOL0     C68391   2.833   1.946   3.417 -0.0928  0.2503  0.5122
  519MOL0     C68392   2.892   1.996   3.287  0.0847 -0.5616 -0.6691
  519MOL0     N68393   2.811   1.960   3.164  0.1999 -0.3145  0.2594
  519MOL0     C68394   2.680   1.998   3.137  0.5332 -0.5546  0.1069
  519MOL0     C68395   2.653   1.903   3.042  0.1266 -0.4824  0.5207
  519MOL0     C68396   2.520   1.906   2.977  0.0777  0.7819 -0.9363
  519MOL0     C68397   2.489   2.030   2.895 -0.1305 -0.4031 -0.6871
  519MOL0     C68398   2.591   2.067   2.784 -0.1125  0.3340  0.6696
  519MOL0     C68399   2.560   2.198   2.705 -1.0926  0.1159  0.4947
  519MOL0     O68400   2.440   2.171   2.623  0.1859  0.1901 -0.4020
  519MOL0     C68401   2.382   2.279   2.560  0.3324  0.7734  1.0321
  519MOL0     C68402   2.431   2.408   2.548 -0.0535 -0.7878  0.5965
  519MOL0     C68403   2.370   2.504   2.460 -0.8266  0.3229 -0.0517
  519MOL0     C68404   2.261   2.473   2.382 -0.0757 -0.4332 -0.4250
  519MOL0     C68405   2.177   2.568   2.309 -0.0924 -0.7173  0.6860
  519MOL0     O68406   2.055   2.526   2.265 -0.7230  0.5708 -0.0986
  519MOL0     C68407   1.985   2.589   2.157 -0.4513 -0.1199 -0.3852
  519MOL0     C68408   1.860   2.543   2.140  0.1008 -0.1185  0.8577
  519MOL0     C68409   1.791   2.579   2.022  1.4177  1.1666  0.3454
  519MOL0     C68410   1.849   2.653   1.926 -0.3122  0.2599 -0.4298
  519MOL0     O68411   1.797   2.691   1.809  0.2120 -0.4737  0.0464
  519MOL0     C68412   1.685   2.787   1.835 -0.4771 -0.8566 -0.1033
  519MOL0     C68413   1.696   2.856   1.703 -0.1379  0.6907  0.1501
  519MOL0     C68414   1.647   2.757   1.584  0.0457 -0.6439 -0.3069
  519MOL0     C68415   1.632   2.829   1.453  0.3521  0.1073  0.5046
  519MOL0     C68416   1.522   2.934   1.463  0.2167  0.2732  0.8004
  519MOL0     C68417   1.466   2.943   1.316  0.1376  1.2587  0.0561
  519MOL0     C68418   1.395   2.836   1.230 -0.0560 -0.1787 -0.6815
  519MOL0     C68419   1.302   2.742   1.319  0.9403  0.7920 -0.0787
  519MOL0    Cl68420   1.168   2.819   1.406 -0.5608 -0.0195  0.5645
  519MOL0     C68421   1.979   2.696   1.939 -0.1154 -0.0952  0.4280
  519MOL0     C68422   2.040   2.674   2.060 -0.4843 -0.4965 -0.3079
  519MOL0     O68423   2.218   2.680   2.295  0.1025  0.3295 -1.0107
  519MOL0     C68424   2.220   2.334   2.390  0.2052  0.1027  0.5905
  519MOL0     C68425   2.278   2.249   2.474 -0.2304 -0.1914 -0.0064
  519MOL0     N68426   2.762   1.819   3.015  0.2193  0.9495 -0.6746
  519MOL0     N68427   2.850   1.847   3.103  0.8641  0.3807  0.8784
  519MOL0     C68428   2.670   2.243   3.948 -0.5356 -0.0848 -0.0294
  519MOL0     C68429   2.540   2.223   4.016 -0.3916 -1.0108 -0.8472
  519MOL0     C68430   2.194   2.356   4.279 -0.2418 -0.7937 -0.5793
  519MOL0     C68431   2.185   2.296   4.401  0.1917  0.2469 -0.8766
  519MOL0     C68432   2.070   2.293   4.481  0.2938 -0.0023  0.7376
  519MOL0     C68433   1.957   2.361   4.435  0.6599  0.2645 -1.7548
  519MOL0     O68434   1.833   2.360   4.491  0.1916 -0.3811 -0.5489
  519MOL0     C68435   1.818   2.287   4.623  0.5244 -0.4016 -0.0884
  519MOL0     C68436   1.804   2.141   4.608  0.2003  0.6444 -0.7631
  519MOL0     C68437   1.657   2.088   4.588  0.1151 -0.0547 -0.0680
  519MOL0     C68438   1.654   1.936   4.541 -0.2993  0.9814  0.3171
  519MOL0     C68439   1.719   1.926   4.412  0.1890  0.2985 -0.3405
  519MOL0     C68440   1.795   1.937   4.309 -0.7637 -0.2851 -0.0910
  519MOL0     C68441   1.961   2.417   4.310 -0.0436  1.3724 -0.5467
  519MOL0     C68442   2.076   2.416   4.233  0.1992 -0.0279  0.0811
  519MOL0     H68443   2.613   2.372   4.307 -2.0553 -2.6415  1.5002
  519MOL0     H68444   2.845   2.380   4.210  1.1975 -1.5012  1.0138
  519MOL0     H68445   2.919   2.156   4.092  4.2787 -1.3668  1.3351
  519MOL0     H68446   3.054   2.273   4.079  1.1701  2.9810 -3.3303
  519MOL0     H68447   3.134   2.070   3.982  1.3856 -0.1255  1.9183
  519MOL0     H68448   3.130   2.219   3.897 -0.9988  0.4596  1.0296
  519MOL0     H68449   2.904   2.036   3.841  0.2235 -0.5278 -1.4816
  519MOL0     H68450   3.056   1.984   3.769 -2.3652 -3.4733  0.1605
  519MOL0     H68451   2.954   2.273   3.709  1.0386  0.3190  0.0293
  519MOL0     H68452   3.101   2.197   3.670  1.7535 -1.4140  4.0948
  519MOL0     H68453   2.936   2.183   3.475  0.0827  1.3950  0.4150
  519MOL0     H68454   2.804   2.150   3.584 -0.2854 -2.5754  3.2386
  519MOL0     H68455   2.862   1.932   3.632  2.8776 -1.2626  1.3050
  519MOL0     H68456   3.008   1.937   3.534  0.2124  0.1242  0.0337
  519MOL0     H68457   2.841   1.838   3.401  1.0536  0.7328 -2.7432
  519MOL0     H68458   2.727   1.971   3.428 -1.0018 -2.5336 -0.8492
  519MOL0     H68459   2.994   1.958   3.282  0.1619 -0.7775  1.7059
  519MOL0     H68460   2.893   2.105   3.296  0.1927 -0.7602  3.9648
  519MOL0     H68461   2.626   2.088   3.166  2.5676  1.2380 -1.3331
  519MOL0     H68462   2.441   1.898   3.052  2.1087 -0.7128  1.2232
  519MOL0     H68463   2.500   1.820   2.913  0.5685  0.1093 -0.2133
  519MOL0     H68464   2.477   2.115   2.962  3.2969 -1.0689  0.9784
  519MOL0     H68465   2.393   2.020   2.843 -0.4788 -1.2490  0.0901
  519MOL0     H68466   2.685   2.068   2.840 -1.3382  0.3989  2.8131
  519MOL0     H68467   2.598   1.987   2.710 -0.7000  0.9098 -0.0435
  519MOL0     H68468   2.635   2.231   2.633 -0.2232 -0.5108  1.0896
  519MOL0     H68469   2.546   2.284   2.771  1.3663  0.7512  0.3042
  519MOL0     H68470   2.523   2.438   2.596 -0.0292  0.8721 -0.4047
  519MOL0     H68471   2.412   2.604   2.462 -3.0145  1.3808 -2.1264
  519MOL0     H68472   1.817   2.479   2.216 -1.8784 -0.2577 -0.2961
  519MOL0     H68473   1.688   2.555   1.997  1.0440  2.6453  0.3835
  519MOL0     H68474   1.714   2.855   1.915 -1.2757 -0.1464 -0.4043
  519MOL0     H68475   1.590   2.734   1.844 -0.3419 -0.8476  1.6792
  519MOL0     H68476   1.797   2.893   1.685 -0.6210  1.9082 -0.1690
  519MOL0     H68477   1.630   2.943   1.709  1.2930  1.8178 -0.0228
  519MOL0     H68478   1.545   2.716   1.590 -0.5583  0.6195 -1.5165
  519MOL0     H68479   1.721   2.678   1.571 -0.3858 -1.2053  0.5143
  519MOL0     H68480   1.720   2.875   1.408  1.2536 -3.2889 -1.6128
  519MOL0     H68481   1.612   2.761   1.370 -0.4950  1.0570 -0.0982
  519MOL0     H68482   1.574   3.029   1.481  1.1030 -0.4613  2.3330
  519MOL0     H68483   1.445   2.911   1.538  0.9274 -2.8230  0.6975
  519MOL0     H68484   1.551   2.984   1.260  2.6545 -6.7236 -3.3779
  519MOL0     H68485   1.390   3.019   1.338 -1.8338 -0.2047 -1.3803
  519MOL0     H68486   1.346   2.873   1.139 -1.8695 -0.2555  0.2228
  519MOL0     H68487   1.468   2.764   1.192 -0.7981 -1.8257  0.8365
  519MOL0     H68488   1.356   2.694   1.401 -1.0748  0.8402  1.3508
  519MOL0     H68489   1.269   2.677   1.238 -0.0492  2.9409 -1.5074
  519MOL0     H68490   2.032   2.763   1.872 -1.1660  2.9052  2.3456
  519MOL0     H68491   2.141   2.712   2.069 -0.7098  0.3337 -1.1227
  519MOL0     H68492   2.143   2.299   2.322  0.8796 -2.5504  1.1109
  519MOL0     H68493   2.245   2.146   2.479  1.5498 -0.7053  3.1204
  519MOL0     H68494   2.686   2.186   3.857 -1.3042  1.3880 -1.1166
  519MOL0     H68495   2.462   2.157   3.979  0.2979 -3.2307  1.4494
  519MOL0     H68496   2.268   2.262   4.463 -1.0633  1.1809  1.4302
  519MOL0     H68497   2.069   2.237   4.574  0.2823  0.5288  1.0620
  519MOL0     H68498   1.737   2.325   4.687 -0.0496 -0.9872 -0.4564
  519MOL0     H68499   1.909   2.315   4.676  1.3833 -1.0939 -1.1720
  519MOL0     H68500   1.865   2.118   4.520  1.5855  1.8458 -0.1751
  519MOL0     H68501   1.842   2.088   4.695 -2.4911  1.3747  0.9833
  519MOL0     H68502   1.610   2.151   4.511 -1.7252 -0.5429  0.5915
  519MOL0     H68503   1.608   2.105   4.685 -0.6773 -3.0502  0.1321
  519MOL0     H68504   1.710   1.866   4.604  0.8028 -0.5646 -2.2205
  519MOL0     H68505   1.555   1.894   4.517  0.9771 -2.5259  0.5613
  519MOL0     H68506   1.859   1.963   4.228  0.5428  3.5880  1.9371
  519MOL0     H68507   1.873   2.464   4.270 -0.9103  0.8333  0.6576
  519MOL0     H68508   2.074   2.474   4.141 -2.5136  2.0926  1.3176
  520MOL0     O68509   8.783  10.387   3.761 -0.2793 -0.0063  0.4471
  520MOL0     C68510   8.813  10.341   3.870  1.0012  0.7859 -0.2761
  520MOL0     O68511   8.922  10.375   3.949 -0.3715  0.2911  1.0592
  520MOL0     C68512   9.048  10.346   3.897 -0.4090  0.1617  0.3793
  520MOL0     C68513   9.137  10.272   3.973 -0.2469 -0.8931  0.2128
  520MOL0     C68514   9.263  10.237   3.921  0.5740 -0.3525 -0.7851
  520MOL0     C68515   9.301  10.272   3.792  0.6009 -0.5983  0.1711
  520MOL0     O68516   9.427  10.230   3.760  0.6458  0.4129 -0.7228
  520MOL0     C68517   9.510  10.289   3.655  0.9320 -0.3139  0.6161
  520MOL0     C68518   9.652  10.263   3.699  0.6728 -0.8174 -0.6312
  520MOL0     C68519   9.687  10.115   3.703  0.6658 -0.7398  0.4828
  520MOL0     C68520   9.820  10.096   3.782  0.0471  0.2827 -0.6144
  520MOL0     C68521   9.850   9.940   3.813 -0.2234 -0.6614  0.3783
  520MOL0     C68522   9.733   9.855   3.858 -0.5400  0.3481 -1.1358
  520MOL0     C68523   9.696   9.890   4.019  0.4766  1.1218  0.3054
  520MOL0     C68524   9.590   9.785   4.063  0.1974 -1.3087  0.0955
  520MOL0     N68525   9.455   9.800   3.992 -0.7343  0.2341  0.7479
  520MOL0     C68526   9.403   9.731   3.883  0.7926 -0.9007  0.3146
  520MOL0     C68527   9.281   9.794   3.858  0.3808 -0.6391 -0.6022
  520MOL0     C68528   9.186   9.765   3.749 -0.4980  0.2062 -0.0143
  520MOL0     C68529   9.053   9.840   3.745  0.1136  0.9837  0.1418
  520MOL0     C68530   9.057   9.987   3.700 -0.9693  0.4593  0.3388
  520MOL0     C68531   8.911  10.052   3.713 -0.9820 -0.3251 -0.3914
  520MOL0     O68532   8.850  10.040   3.580 -0.0949 -0.3802 -0.0100
  520MOL0     C68533   8.721  10.003   3.579  0.0444 -0.0379  0.3165
  520MOL0     C68534   8.665   9.904   3.668  0.2314  0.4976  0.5783
  520MOL0     C68535   8.530   9.887   3.657 -0.3450  0.2201 -0.2562
  520MOL0     C68536   8.444   9.955   3.565 -0.4339  1.4575 -0.3527
  520MOL0     C68537   8.300   9.928   3.558 -0.3841 -0.2378 -0.0029
  520MOL0     O68538   8.234   9.966   3.444  0.2766 -0.0422  0.1840
  520MOL0     C68539   8.093   9.957   3.440 -0.9616  0.5379 -0.1778
  520MOL0     C68540   8.016   9.864   3.501  0.4346  1.0334  0.4423
  520MOL0     C68541   7.879   9.862   3.503 -0.1122 -0.5676  0.1943
  520MOL0     C68542   7.810   9.969   3.457 -0.3345 -0.6667  0.8288
  520MOL0     O68543   7.673   9.984   3.473  0.0695  0.0324 -0.5740
  520MOL0     C68544   7.610  10.107   3.449  1.3062  0.1931 -0.2214
  520MOL0     C68545   7.458  10.074   3.438 -0.1948 -0.4908  0.1444
  520MOL0     C68546   7.401  10.011   3.567 -0.5101  0.0584  0.8696
  520MOL0     C68547   7.434  10.075   3.700  0.8688  1.1781 -0.2505
  520MOL0     C68548   7.401  10.008   3.836  1.1799  0.6873 -0.0602
  520MOL0     C68549   7.459   9.866   3.837  0.3592 -0.1602 -0.3305
  520MOL0     C68550   7.617   9.869   3.834 -0.3360  0.8097  0.3205
  520MOL0     C68551   7.683   9.742   3.888 -0.9456 -1.1462 -0.4626
  520MOL0    Cl68552   7.862   9.764   3.866 -0.1436  0.0654 -0.6034
  520MOL0     C68553   7.888  10.077   3.396  0.2946  0.2845  0.0517
  520MOL0     C68554   8.023  10.068   3.385 -1.0606 -0.2747  0.5644
  520MOL0     O68555   8.244   9.877   3.660  0.2066 -0.3758 -0.1772
  520MOL0     C68556   8.504  10.047   3.485 -0.2550 -0.1093 -0.2488
  520MOL0     C68557   8.641  10.072   3.491 -0.5478  0.4582  0.3959
  520MOL0     N68558   9.253   9.888   3.961  0.1555 -0.0645 -0.0497
  520MOL0     N68559   9.357   9.882   4.045 -0.0430 -0.5445 -0.3214
  520MOL0     C68560   9.210  10.351   3.712 -0.8859 -0.9021  0.7203
  520MOL0     C68561   9.087  10.392   3.768 -0.0625  0.1001 -0.1817
  520MOL0     C68562   8.710  10.257   3.934  0.0798  0.3282 -0.1971
  520MOL0     C68563   8.603  10.190   3.868 -0.0364 -0.9275 -0.4081
  520MOL0     C68564   8.507  10.119   3.934  0.1959  0.1280  0.0361
  520MOL0     C68565   8.519  10.094   4.073  0.1839 -0.1542  0.4858
  520MOL0     O68566   8.440  10.014   4.145  0.3698 -0.4896  0.2752
  520MOL0     C68567   8.393   9.885   4.086  0.4669 -0.0824  0.2253
  520MOL0     C68568   8.494   9.775   4.117  0.0710  0.5028  0.4187
  520MOL0     C68569   8.450   9.625   4.088 -0.6345  0.7886  0.5196
  520MOL0     C68570   8.450   9.527   4.198 -0.8735 -0.3002 -0.7896
  520MOL0     C68571   8.315   9.517   4.270  0.0092  0.2729  0.1161
  520MOL0     C68572   8.203   9.510   4.322  0.1075 -0.2898 -0.2339
  520MOL0     C68573   8.620  10.164   4.141  0.2610 -0.3060 -0.5592
  520MOL0     C68574   8.716  10.237   4.075  0.4665 -0.0311  0.0347
  520MOL0     H68575   9.123  10.225   4.070  2.6764 -0.3912  0.9738
  520MOL0     H68576   9.328  10.168   3.976 -0.5415 -1.4902 -0.8481
  520MOL0     H68577   9.492  10.397   3.652  1.3831 -0.2550 -1.5368
  520MOL0     H68578   9.482  10.252   3.556  0.5704  2.5692 -0.4694
  520MOL0     H68579   9.655  10.299   3.802  0.6334 -1.7327 -0.2948
  520MOL0     H68580   9.725  10.311   3.633  0.9565 -1.6944 -0.9787
  520MOL0     H68581   9.686  10.067   3.604 -0.6453 -1.1620  0.6851
  520MOL0     H68582   9.612  10.064   3.765  2.2381 -1.3797  1.9561
  520MOL0     H68583   9.911  10.134   3.734 -1.1909  3.6604 -0.5200
  520MOL0     H68584   9.814  10.165   3.866 -0.5568  2.0011 -2.0219
  520MOL0     H68585   9.931   9.949   3.886 -0.0440  0.9497  0.0053
  520MOL0     H68586   9.899   9.894   3.726  1.9029 -0.2094  1.2693
  520MOL0     H68587   9.771   9.752   3.849  3.6979  1.7117 -1.0363
  520MOL0     H68588   9.647   9.870   3.792 -0.6568  1.9907 -0.6493
  520MOL0     H68589   9.780   9.888   4.089 -1.2610  2.5244  2.5897
  520MOL0     H68590   9.657   9.992   4.023 -0.0631  0.9240  0.2182
  520MOL0     H68591   9.585   9.795   4.172  0.8731 -2.2483  0.2244
  520MOL0     H68592   9.621   9.682   4.044 -1.5342 -1.6200 -1.4263
  520MOL0     H68593   9.446   9.656   3.817  2.0693 -0.1156  0.2027
  520MOL0     H68594   9.161   9.658   3.749  1.2320 -0.2724 -2.3648
  520MOL0     H68595   9.243   9.779   3.657  2.1204  1.4722  1.6846
  520MOL0     H68596   9.010   9.862   3.843 -0.4696  5.6559 -0.9475
  520MOL0     H68597   8.977   9.781   3.692  1.4231 -0.1117 -0.5850
  520MOL0     H68598   9.139  10.044   3.745  2.2690 -2.8865 -0.7550
  520MOL0     H68599   9.089   9.977   3.596  1.0161  1.1522  0.8370
  520MOL0     H68600   8.936  10.156   3.732 -0.9448 -0.7055  1.8840
  520MOL0     H68601   8.849  10.013   3.794 -2.8980 -0.0879 -1.6746
  520MOL0     H68602   8.736   9.853   3.733  0.6522  2.1567  1.4732
  520MOL0     H68603   8.471   9.811   3.708 -1.2312  0.7279 -0.4944
  520MOL0     H68604   8.064   9.771   3.529 -2.0162 -0.4397  0.0561
  520MOL0     H68605   7.831   9.784   3.560 -0.7595  0.1176  0.6150
  520MOL0     H68606   7.632  10.141   3.347 -0.3764  1.0148 -0.3462
  520MOL0     H68607   7.619  10.182   3.529 -3.0911 -2.1338  2.8786
  520MOL0     H68608   7.438   9.994   3.365  0.4189  0.3542 -0.9859
  520MOL0     H68609   7.409  10.167   3.409  1.9069  0.1482 -1.6691
  520MOL0     H68610   7.443   9.910   3.563  1.1479  0.6658 -3.6830
  520MOL0     H68611   7.294  10.017   3.546 -0.0392  0.2740 -1.9041
  520MOL0     H68612   7.541  10.101   3.705  1.6192 -1.8653  2.0233
  520MOL0     H68613   7.388  10.174   3.713  1.1534  0.9507  3.6447
  520MOL0     H68614   7.296   9.997   3.867  2.4660 -0.8582  4.6192
  520MOL0     H68615   7.439  10.064   3.922 -3.2368  0.1808  2.5642
  520MOL0     H68616   7.414   9.808   3.756 -0.1384 -1.7402  1.0049
  520MOL0     H68617   7.429   9.809   3.926  2.0334 -0.1768  0.2731
  520MOL0     H68618   7.643   9.881   3.728  2.2003  1.0928  0.9305
  520MOL0     H68619   7.670   9.945   3.891  1.3168 -0.9024  1.1574
  520MOL0     H68620   7.660   9.661   3.818  0.3044  1.7534 -4.6167
  520MOL0     H68621   7.659   9.735   3.994 -0.8502 -0.0756 -0.3678
  520MOL0     H68622   7.844  10.160   3.340 -0.3131 -0.4779 -0.6324
  520MOL0     H68623   8.094  10.133   3.334  2.2534 -4.7464 -1.1615
  520MOL0     H68624   8.450  10.099   3.406 -0.2645  0.5383  0.1796
  520MOL0     H68625   8.682  10.145   3.422 -0.6396  1.2054  1.1220
  520MOL0     H68626   9.221  10.377   3.607 -0.7807 -1.1717  0.6634
  520MOL0     H68627   9.013  10.446   3.709  0.1384  0.3501 -0.2067
  520MOL0     H68628   8.590  10.211   3.762  0.3130 -1.5455 -0.5733
  520MOL0     H68629   8.434  10.067   3.873 -0.2306  0.2298  0.4545
  520MOL0     H68630   8.370   9.888   3.979 -0.3827 -0.0172  0.4027
  520MOL0     H68631   8.303   9.860   4.142  1.7373 -1.1950  1.8475
  520MOL0     H68632   8.582   9.795   4.055  1.8037  0.5625  2.7500
  520MOL0     H68633   8.532   9.791   4.219 -1.4814  1.2451  0.9035
  520MOL0     H68634   8.513   9.598   4.003 -3.3607 -1.1311 -1.0173
  520MOL0     H68635   8.351   9.622   4.043  1.8277 -1.8059 -5.9907
  520MOL0     H68636   8.472   9.436   4.143  1.1996  0.4287 -1.2388
  520MOL0     H68637   8.531   9.549   4.267  1.7014  1.5073 -4.0858
  520MOL0     H68638   8.103   9.516   4.362  0.0998  2.1941 -0.4425
  520MOL0     H68639   8.628  10.144   4.247  0.5927  0.5028 -0.4284
  520MOL0     H68640   8.783  10.285   4.144 -0.9644  2.6520 -0.2907
  521MOL0     O68641   8.975   2.857   1.652  0.3856  0.2298  0.1525
  521MOL0     C68642   9.006   2.897   1.768  0.1925  0.4726 -0.3417
  521MOL0     O68643   8.932   2.877   1.887  0.2234 -0.8552 -0.2199
  521MOL0     C68644   8.809   2.812   1.889 -0.0588  1.1030  0.8667
  521MOL0     C68645   8.761   2.719   1.794 -0.4132 -0.4534  0.8956
  521MOL0     C68646   8.632   2.675   1.801  0.5756 -0.2749  0.4143
  521MOL0     C68647   8.552   2.704   1.904 -0.2027  0.2849  1.1596
  521MOL0     O68648   8.424   2.647   1.901 -0.4864  0.1432  0.2940
  521MOL0     C68649   8.325   2.754   1.918 -0.6747  0.0843  0.4067
  521MOL0     C68650   8.201   2.708   1.830 -0.0471  0.9858 -0.0562
  521MOL0     C68651   8.094   2.617   1.897  0.9098 -0.4427  0.0674
  521MOL0     C68652   8.004   2.704   1.983  0.0236  0.1739  0.5916
  521MOL0     C68653   7.885   2.630   2.025  0.6380  0.2010  0.2770
  521MOL0     C68654   7.908   2.502   2.104  0.3545  0.1623  0.4552
  521MOL0     C68655   7.818   2.375   2.066 -0.3333  0.1101 -0.0135
  521MOL0     C68656   7.817   2.268   2.184 -0.8666 -0.5809 -0.4309
  521MOL0     N68657   7.750   2.294   2.304 -0.6589 -0.2809  0.2436
  521MOL0     C68658   7.619   2.266   2.320 -0.3623  0.9661  0.4348
  521MOL0     C68659   7.607   2.277   2.454 -0.0883  0.5284  0.0477
  521MOL0     C68660   7.492   2.249   2.547  0.0880  0.2086  0.3970
  521MOL0     C68661   7.464   2.100   2.575  0.9426  0.5187 -0.1791
  521MOL0     C68662   7.384   2.081   2.701 -0.5814  0.4845  0.5041
  521MOL0     C68663   7.479   2.064   2.818 -0.2197 -0.2109  0.2608
  521MOL0     O68664   7.413   2.060   2.943 -0.4518  0.4198  0.0112
  521MOL0     C68665   7.484   2.033   3.055 -0.7951  0.2478  0.7276
  521MOL0     C68666   7.628   2.003   3.050 -0.3005  0.9912  0.7557
  521MOL0     C68667   7.711   1.987   3.162  0.0036 -0.3883 -0.6739
  521MOL0     C68668   7.647   1.988   3.286  0.2466  0.2229  0.3561
  521MOL0     C68669   7.722   1.953   3.404 -0.1567 -0.5645  0.5792
  521MOL0     O68670   7.647   1.906   3.512  0.7104 -0.4706  0.1991
  521MOL0     C68671   7.722   1.904   3.625 -0.6347 -1.3830 -0.0990
  521MOL0     C68672   7.716   2.019   3.703  0.4904 -0.5257 -0.0448
  521MOL0     C68673   7.773   2.025   3.831  0.2364  0.0736 -0.4331
  521MOL0     C68674   7.851   1.917   3.871 -0.8015  0.0998  0.2068
  521MOL0     O68675   7.904   1.922   3.993 -0.1956  1.5410 -0.1036
  521MOL0     C68676   7.846   1.997   4.100 -0.0014  0.4162 -0.2330
  521MOL0     C68677   7.912   1.941   4.219 -0.2116  1.0450  0.7380
  521MOL0     C68678   7.865   2.007   4.347 -0.6727 -0.1307  0.1397
  521MOL0     C68679   7.933   1.959   4.486 -0.4963 -0.0616 -0.1069
  521MOL0     C68680   7.850   2.003   4.607  0.0613  0.0598 -0.3224
  521MOL0     C68681   7.836   2.149   4.636 -0.5849 -0.6172 -0.5344
  521MOL0     C68682   7.778   2.183   4.773  0.4548 -0.9083 -0.3159
  521MOL0     C68683   7.713   2.321   4.764 -0.1481 -0.2045 -0.2170
  521MOL0    Cl68684   7.828   2.453   4.708  0.0721 -0.0529 -0.4903
  521MOL0     C68685   7.873   1.805   3.790 -0.3606  0.6323  0.4053
  521MOL0     C68686   7.801   1.794   3.674 -0.0336 -0.5874  0.5742
  521MOL0     O68687   7.844   1.982   3.398  0.1822  0.0357 -0.0722
  521MOL0     C68688   7.507   2.006   3.293  0.2740 -0.4260  0.1483
  521MOL0     C68689   7.426   2.038   3.181  0.2914 -0.0002  0.0775
  521MOL0     N68690   7.725   2.333   2.508  0.4098  0.2927  0.0678
  521MOL0     N68691   7.813   2.348   2.416  0.0870  0.5255  0.1108
  521MOL0     C68692   8.596   2.787   2.003 -0.0602  0.5979 -1.0911
  521MOL0     C68693   8.725   2.846   1.994  0.7281 -0.4092  0.7411
  521MOL0     C68694   9.138   2.961   1.786  0.0605  0.4798 -0.9616
  521MOL0     C68695   9.206   3.016   1.675  1.1313  0.1389  0.5480
  521MOL0     C68696   9.339   3.050   1.676  0.3967 -0.7300 -0.6030
  521MOL0     C68697   9.413   3.047   1.792  0.4178  0.3389  0.1189
  521MOL0     O68698   9.533   3.098   1.804 -1.0417 -0.4210  0.2300
  521MOL0     C68699   9.616   3.124   1.688 -0.8665  0.0289 -0.4816
  521MOL0     C68700   9.761   3.110   1.738  0.3927  0.2029 -0.2886
  521MOL0     C68701   9.853   3.133   1.629  0.1345 -0.1163  0.5090
  521MOL0     C68702  10.000   3.116   1.666  0.5536  0.6071  0.3772
  521MOL0     C68703  10.075   3.078   1.549 -1.2622 -0.9342 -0.7747
  521MOL0     C68704  10.112   3.035   1.447 -0.9240  0.3442  0.5474
  521MOL0     C68705   9.346   2.985   1.900 -0.5249 -0.5297 -0.4490
  521MOL0     C68706   9.215   2.943   1.905 -0.2784 -1.2607 -0.1293
  521MOL0     H68707   8.817   2.680   1.710 -0.9122  1.5700 -0.4460
  521MOL0     H68708   8.596   2.602   1.728 -1.0018  0.0110  0.8721
  521MOL0     H68709   8.366   2.846   1.875  3.2393 -1.7355 -0.2010
  521MOL0     H68710   8.296   2.771   2.022  3.4747 -2.4233  2.2368
  521MOL0     H68711   8.239   2.658   1.740 -4.1253  0.9420 -2.0208
  521MOL0     H68712   8.160   2.806   1.805  2.5264  2.7455  2.0812
  521MOL0     H68713   8.146   2.538   1.953 -0.9453 -0.6502  1.5715
  521MOL0     H68714   8.019   2.567   1.834 -0.9495 -0.2733  2.0268
  521MOL0     H68715   8.048   2.756   2.069 -1.6867  0.6458  1.2136
  521MOL0     H68716   7.964   2.772   1.907 -2.7905 -2.8953 -0.9227
  521MOL0     H68717   7.830   2.595   1.937 -1.0419 -1.3433  1.8424
  521MOL0     H68718   7.826   2.692   2.093  0.0976 -0.5588  0.5149
  521MOL0     H68719   7.899   2.530   2.209  0.0870 -0.9306  0.7405
  521MOL0     H68720   8.010   2.467   2.088  0.0828 -0.0769 -0.9338
  521MOL0     H68721   7.715   2.408   2.049 -0.7260 -0.3299  1.3875
  521MOL0     H68722   7.866   2.335   1.976  1.7212 -2.3410  1.9944
  521MOL0     H68723   7.912   2.216   2.201 -0.5870 -1.2323 -3.4077
  521MOL0     H68724   7.765   2.185   2.136  3.4788 -1.2847 -4.8103
  521MOL0     H68725   7.536   2.218   2.269  0.0344 -2.0527  2.3594
  521MOL0     H68726   7.404   2.310   2.522 -1.8876 -1.3236  3.0225
  521MOL0     H68727   7.526   2.293   2.641 -0.0377  2.7015 -0.6446
  521MOL0     H68728   7.567   2.061   2.570  0.5411 -0.4820 -0.9988
  521MOL0     H68729   7.405   2.051   2.498 -0.0476  1.3567  0.0253
  521MOL0     H68730   7.302   2.151   2.719 -0.9271 -0.6836  4.4480
  521MOL0     H68731   7.339   1.982   2.694  1.6135 -0.6819  1.6472
  521MOL0     H68732   7.556   2.142   2.811 -0.4714  0.0193  0.0326
  521MOL0     H68733   7.531   1.969   2.800 -0.3134 -0.6987  2.2690
  521MOL0     H68734   7.678   2.007   2.954 -0.6535  1.1919  0.5778
  521MOL0     H68735   7.816   1.970   3.138 -0.8542 -5.3630 -2.0853
  521MOL0     H68736   7.651   2.099   3.671 -0.9868 -2.2861 -1.6727
  521MOL0     H68737   7.774   2.117   3.888  3.1345  0.1350 -0.4229
  521MOL0     H68738   7.738   1.981   4.098  0.2466 -1.5410 -0.1915
  521MOL0     H68739   7.879   2.101   4.093 -2.6333  1.4097  0.8108
  521MOL0     H68740   8.017   1.971   4.206  0.2548 -0.5767  0.5556
  521MOL0     H68741   7.910   1.832   4.229  0.2471  1.0757  1.2132
  521MOL0     H68742   7.755   2.004   4.351 -0.7842  0.2093 -1.8281
  521MOL0     H68743   7.884   2.111   4.319 -0.9557  0.2347  1.2348
  521MOL0     H68744   7.932   1.850   4.499  2.3192 -0.0647  0.7426
  521MOL0     H68745   8.022   2.022   4.482 -0.1290 -0.5557  0.2575
  521MOL0     H68746   7.879   1.950   4.699 -3.8061 -0.4999  0.7597
  521MOL0     H68747   7.751   1.959   4.593  0.4487 -0.7401 -0.6039
  521MOL0     H68748   7.766   2.191   4.564 -1.7387  1.1535  1.4989
  521MOL0     H68749   7.932   2.192   4.606 -2.0754  2.3417 -1.4144
  521MOL0     H68750   7.701   2.113   4.807 -1.3776  0.4657 -1.4447
  521MOL0     H68751   7.859   2.189   4.846 -3.0260  2.0606  3.8022
  521MOL0     H68752   7.699   2.342   4.870 -0.3434 -1.3151 -0.0073
  521MOL0     H68753   7.620   2.314   4.708 -1.3022 -0.1416  1.6023
  521MOL0     H68754   7.926   1.716   3.822  2.1363  2.1910  0.8857
  521MOL0     H68755   7.809   1.700   3.621 -1.8731  0.4227 -1.6772
  521MOL0     H68756   7.463   1.988   3.390 -2.3926  0.5657 -0.7977
  521MOL0     H68757   7.324   2.064   3.205  0.4921  1.6396 -0.7576
  521MOL0     H68758   8.533   2.811   2.089  1.8337 -2.2008  1.2435
  521MOL0     H68759   8.756   2.910   2.076 -2.6153  1.4800  0.6998
  521MOL0     H68760   9.165   3.036   1.577 -1.0615  2.0907  1.7780
  521MOL0     H68761   9.388   3.091   1.589 -1.3245  2.8912 -0.0255
  521MOL0     H68762   9.590   3.220   1.641  1.0592 -0.6804 -3.2329
  521MOL0     H68763   9.608   3.046   1.612 -0.8028 -1.3308  0.8710
  521MOL0     H68764   9.775   3.181   1.820 -0.1648  0.6873 -0.6051
  521MOL0     H68765   9.769   3.010   1.782  4.7568  0.3569 -0.3265
  521MOL0     H68766   9.836   3.227   1.575 -1.4284 -2.2185 -2.9679
  521MOL0     H68767   9.826   3.058   1.555  1.0034 -0.6654  0.7420
  521MOL0     H68768  10.029   3.205   1.723 -0.2073  2.4866 -2.0113
  521MOL0     H68769  10.003   3.029   1.731  2.7853  1.1228  1.0557
  521MOL0     H68770  10.134   2.981   1.357 -1.5724  1.2191 -0.1495
  521MOL0     H68771   9.392   2.981   1.998  2.2438 -1.2496 -1.6925
  521MOL0     H68772   9.170   2.926   2.002  1.8999  1.2834  1.4950
  522MOL0     O68773   7.431   7.020   2.634  0.8794 -0.3250 -0.7091
  522MOL0     C68774   7.396   7.045   2.752 -0.0304 -0.0279 -0.7937
  522MOL0     O68775   7.412   7.159   2.817  0.1021  0.4104  0.1552
  522MOL0     C68776   7.412   7.276   2.747  0.4150  0.1348 -0.1677
  522MOL0     C68777   7.493   7.383   2.797  0.6869  1.3544 -0.0321
  522MOL0     C68778   7.482   7.514   2.739  0.1296  0.0234 -1.5070
  522MOL0     C68779   7.386   7.531   2.640 -0.1839 -0.3120  0.5086
  522MOL0     O68780   7.363   7.650   2.565 -0.3218 -0.0544  0.7925
  522MOL0     C68781   7.437   7.767   2.598  0.6574 -0.5305  1.3771
  522MOL0     C68782   7.435   7.867   2.470  0.1628 -0.7116 -0.1972
  522MOL0     C68783   7.537   7.829   2.371  0.0772 -0.3785 -0.5624
  522MOL0     C68784   7.526   7.891   2.231  0.1592 -0.3724  0.0490
  522MOL0     C68785   7.640   7.848   2.127 -0.4011  0.3390 -0.4457
  522MOL0     C68786   7.788   7.893   2.178 -0.2718  0.2827  0.0047
  522MOL0     C68787   7.871   7.771   2.218  0.4072  0.0040  0.0835
  522MOL0     C68788   7.912   7.694   2.087 -0.1078  0.2178 -0.2015
  522MOL0     N68789   7.967   7.557   2.109  0.5624  0.2333 -0.1843
  522MOL0     C68790   8.078   7.534   2.175 -0.4448  0.5382 -0.5592
  522MOL0     C68791   8.082   7.403   2.206  0.7284  0.5130 -0.6978
  522MOL0     C68792   8.197   7.326   2.274  0.0712 -0.1367  0.6747
  522MOL0     C68793   8.219   7.388   2.406 -0.9469 -1.0185  0.6063
  522MOL0     C68794   8.344   7.316   2.468 -0.7310 -0.1200 -0.3093
  522MOL0     C68795   8.397   7.404   2.583 -0.5119  0.7188 -1.0556
  522MOL0     O68796   8.283   7.429   2.668  0.2881 -0.3072  0.0527
  522MOL0     C68797   8.278   7.382   2.799  0.0881 -0.1222  0.3761
  522MOL0     C68798   8.330   7.255   2.825  1.1303  0.0689  0.9781
  522MOL0     C68799   8.309   7.194   2.952 -0.4899  0.2942 -0.6373
  522MOL0     C68800   8.247   7.262   3.057  0.0601 -0.3850  0.3226
  522MOL0     C68801   8.220   7.195   3.187 -0.1438 -0.7841  0.1100
  522MOL0     O68802   8.215   7.062   3.197  0.0953 -0.4895 -0.6047
  522MOL0     C68803   8.205   6.999   3.318  1.0019  0.7802  0.2354
  522MOL0     C68804   8.309   6.897   3.335 -0.5327 -0.1488  0.9673
  522MOL0     C68805   8.332   6.823   3.447  0.5876  0.1174 -0.5620
  522MOL0     C68806   8.235   6.837   3.546  0.4599 -0.1322 -0.3638
  522MOL0     O68807   8.236   6.776   3.665  0.4248 -0.7263  0.0913
  522MOL0     C68808   8.322   6.670   3.691 -1.0726  0.0848  0.0952
  522MOL0     C68809   8.282   6.586   3.812  1.2000  0.6620 -0.4670
  522MOL0     C68810   8.369   6.464   3.828 -0.2961 -0.4316 -0.7198
  522MOL0     C68811   8.329   6.373   3.944  0.8374 -0.2329  0.8262
  522MOL0     C68812   8.188   6.323   3.925  0.5112  0.1148 -0.3795
  522MOL0     C68813   8.139   6.222   4.031 -0.0658  0.3172  0.4608
  522MOL0     C68814   7.989   6.192   4.017  0.0287  0.5471 -0.0828
  522MOL0     C68815   7.917   6.113   4.142 -0.2797 -0.3397  0.5687
  522MOL0    Cl68816   7.950   6.187   4.303 -0.0483  0.4356  0.5473
  522MOL0     C68817   8.142   6.944   3.540 -0.4805  0.3442  0.0755
  522MOL0     C68818   8.120   7.009   3.424  0.6052 -0.4784 -0.1778
  522MOL0     O68819   8.210   7.269   3.283 -0.1645 -0.5983 -0.2149
  522MOL0     C68820   8.195   7.391   3.029 -0.2987  0.2159  0.3111
  522MOL0     C68821   8.215   7.448   2.901 -0.3074  0.0285  0.1402
  522MOL0     N68822   7.961   7.342   2.161 -0.4744 -0.4369 -0.9223
  522MOL0     N68823   7.896   7.443   2.113  0.0100 -0.0944  0.0047
  522MOL0     C68824   7.308   7.429   2.594  0.6373 -0.7332 -0.9535
  522MOL0     C68825   7.319   7.300   2.649 -0.5074 -0.5173 -0.9335
  522MOL0     C68826   7.349   6.927   2.824  0.0211 -0.1951 -0.9627
  522MOL0     C68827   7.364   6.801   2.778 -0.1350  0.2432  0.5172
  522MOL0     C68828   7.301   6.692   2.853  0.2149 -0.2483 -0.2580
  522MOL0     C68829   7.230   6.712   2.971 -0.1883  0.3115  0.3010
  522MOL0     O68830   7.181   6.609   3.053  0.7459 -1.5255 -0.0109
  522MOL0     C68831   7.199   6.464   3.027 -0.8142 -0.3223  0.6005
  522MOL0     C68832   7.326   6.409   3.089 -0.2667  0.6327  0.8705
  522MOL0     C68833   7.332   6.258   3.073  0.0352  1.0208 -0.4605
  522MOL0     C68834   7.451   6.202   3.162  0.6784 -0.2446  0.4451
  522MOL0     C68835   7.585   6.248   3.123 -0.3411  0.0693  0.1956
  522MOL0     C68836   7.692   6.289   3.091  0.4512 -0.7779 -0.0600
  522MOL0     C68837   7.220   6.836   3.015 -1.3997 -0.1576  0.1037
  522MOL0     C68838   7.282   6.945   2.947  0.7752  0.8225 -0.3491
  522MOL0     H68839   7.557   7.351   2.879 -0.6097  0.7359  0.7798
  522MOL0     H68840   7.557   7.589   2.757  2.2880 -1.6241 -3.0523
  522MOL0     H68841   7.542   7.761   2.631  0.2807 -0.1064  2.7213
  522MOL0     H68842   7.376   7.816   2.674 -1.4729 -0.5047 -0.2534
  522MOL0     H68843   7.460   7.970   2.497  2.3058 -0.3911 -2.9864
  522MOL0     H68844   7.332   7.865   2.433  0.5735 -3.8972 -1.5474
  522MOL0     H68845   7.527   7.721   2.354 -0.6229 -0.4252  0.0775
  522MOL0     H68846   7.636   7.836   2.417 -1.0782  1.1773  1.8760
  522MOL0     H68847   7.432   7.863   2.183 -0.5738  4.3012 -1.7445
  522MOL0     H68848   7.519   7.999   2.244 -2.9758 -0.6011  0.9056
  522MOL0     H68849   7.629   7.894   2.029 -0.4702  1.5236  0.0957
  522MOL0     H68850   7.640   7.741   2.104 -1.3702  0.4288 -0.8965
  522MOL0     H68851   7.773   7.966   2.258  0.6592 -0.3112  0.7395
  522MOL0     H68852   7.837   7.941   2.093 -1.4119  2.7823  0.6779
  522MOL0     H68853   7.960   7.800   2.276  3.4820 -2.0862 -3.1426
  522MOL0     H68854   7.801   7.707   2.272 -2.6312  0.2930 -3.1301
  522MOL0     H68855   7.997   7.742   2.038  0.9955 -0.3258  1.1083
  522MOL0     H68856   7.842   7.705   2.003 -0.7711 -1.9330  0.0002
  522MOL0     H68857   8.149   7.616   2.175 -1.1762  1.1975 -1.9984
  522MOL0     H68858   8.292   7.340   2.221 -0.1864 -2.2724 -0.4304
  522MOL0     H68859   8.167   7.222   2.267 -2.3842  0.5497 -0.1383
  522MOL0     H68860   8.132   7.397   2.471 -0.8921  0.9005  0.4618
  522MOL0     H68861   8.243   7.494   2.393 -2.8378 -0.7547 -1.2139
  522MOL0     H68862   8.316   7.220   2.510 -0.2074  1.1203  3.2614
  522MOL0     H68863   8.423   7.312   2.392  0.5191  5.3934  0.2294
  522MOL0     H68864   8.432   7.501   2.548 -0.1216  0.7086 -0.6953
  522MOL0     H68865   8.468   7.347   2.643  0.6310  3.4286  0.3329
  522MOL0     H68866   8.389   7.193   2.758  0.5273 -0.0718  0.5674
  522MOL0     H68867   8.341   7.093   2.976  2.1559  1.1757 -0.0919
  522MOL0     H68868   8.365   6.887   3.243 -3.0768 -0.4274 -0.6579
  522MOL0     H68869   8.413   6.752   3.455  1.9135  1.4583 -1.5715
  522MOL0     H68870   8.423   6.712   3.698 -0.1479 -2.1313  0.8025
  522MOL0     H68871   8.321   6.608   3.600 -1.8988 -2.8640  1.9686
  522MOL0     H68872   8.180   6.554   3.787  2.7379 -1.9627 -4.3244
  522MOL0     H68873   8.292   6.640   3.906  4.2842  1.8130 -1.3494
  522MOL0     H68874   8.472   6.501   3.833 -0.6978  0.5616  0.9052
  522MOL0     H68875   8.368   6.408   3.735  0.4630 -1.3940 -0.1680
  522MOL0     H68876   8.394   6.285   3.950 -1.2540 -1.7617  3.4773
  522MOL0     H68877   8.333   6.429   4.038 -1.2315  0.1540  0.7223
  522MOL0     H68878   8.186   6.274   3.827 -0.3150  2.3004 -1.5203
  522MOL0     H68879   8.116   6.405   3.925  1.6716  1.2479  2.4471
  522MOL0     H68880   8.169   6.258   4.130  0.5730 -0.7837  0.6852
  522MOL0     H68881   8.205   6.138   4.010  0.1333  1.1593 -2.8357
  522MOL0     H68882   7.934   6.285   3.999 -2.6236 -0.5997  1.5016
  522MOL0     H68883   7.967   6.131   3.930  0.4441  1.6242 -0.9703
  522MOL0     H68884   7.944   6.007   4.143  2.1850  0.1200 -2.1217
  522MOL0     H68885   7.810   6.119   4.120  0.1826  0.6781 -1.8073
  522MOL0     H68886   8.089   6.964   3.633 -2.3651  0.2257 -0.9159
  522MOL0     H68887   8.041   7.084   3.429  0.6863 -0.4145  0.1802
  522MOL0     H68888   8.147   7.458   3.099  1.4270  1.2480  0.5653
  522MOL0     H68889   8.164   7.543   2.890  1.0082  0.9355  1.5758
  522MOL0     H68890   7.227   7.448   2.525 -0.6577  1.7949  1.0874
  522MOL0     H68891   7.269   7.208   2.622  1.3214 -2.3988  1.6321
  522MOL0     H68892   7.433   6.781   2.696  0.9596 -0.5712  1.5780
  522MOL0     H68893   7.330   6.594   2.815  2.7357 -0.4898  2.0110
  522MOL0     H68894   7.204   6.447   2.919 -1.8041 -2.5033  0.8379
  522MOL0     H68895   7.114   6.404   3.059 -0.7364  0.0736  1.5908
  522MOL0     H68896   7.412   6.454   3.037  0.0063  2.0267  2.4583
  522MOL0     H68897   7.333   6.443   3.192 -0.9679 -0.6803  1.3681
  522MOL0     H68898   7.360   6.247   2.968 -2.8944 -1.4853 -1.0982
  522MOL0     H68899   7.235   6.210   3.092  0.9734 -0.4579  0.9416
  522MOL0     H68900   7.434   6.236   3.264  0.7454 -1.8057  0.9888
  522MOL0     H68901   7.463   6.094   3.159 -3.3495 -0.8597  0.8826
  522MOL0     H68902   7.788   6.326   3.063  0.7906 -1.9818 -0.5791
  522MOL0     H68903   7.181   6.850   3.115  1.0263 -1.1937  1.2995
  522MOL0     H68904   7.265   7.039   3.000  0.5145 -0.3281  1.7253
  523MOL0     O68905   1.021   0.600   7.595 -0.1746 -0.4880  0.0732
  523MOL0     C68906   1.137   0.566   7.627  0.2907 -0.4586 -0.3490
  523MOL0     O68907   1.206   0.466   7.578 -0.0653  0.4039  0.0536
  523MOL0     C68908   1.132   0.389   7.501  1.3065 -0.2144 -0.9736
  523MOL0     C68909   1.117   0.415   7.368 -0.4410  0.0072  1.0132
  523MOL0     C68910   1.053   0.320   7.284  0.6660 -0.5575 -1.0678
  523MOL0     C68911   1.000   0.200   7.335 -0.4069  0.4576  0.5480
  523MOL0     O68912   0.949   0.097   7.262 -0.4387  0.4561  0.2507
  523MOL0     C68913   0.811   0.114   7.227  0.5083  0.1021 -0.2876
  523MOL0     C68914   0.708   0.058   7.338 -0.0329 -0.1301  1.1835
  523MOL0     C68915   0.724  -0.097   7.354 -0.0141  0.3535 -0.4990
  523MOL0     C68916   0.609  -0.154   7.432  0.9413 -0.2284 -0.3785
  523MOL0     C68917   0.625  -0.306   7.441 -0.0847  0.2034 -0.4596
  523MOL0     C68918   0.500  -0.377   7.501  0.1603  0.3319 -0.1901
  523MOL0     C68919   0.473  -0.361   7.654 -0.1542  0.5371  0.2651
  523MOL0     C68920   0.377  -0.243   7.689  0.2580 -0.5782 -0.0253
  523MOL0     N68921   0.248  -0.262   7.619  0.3176 -1.0634 -0.5446
  523MOL0     C68922   0.186  -0.164   7.546 -0.0262 -0.5617  0.4019
  523MOL0     C68923   0.062  -0.217   7.522  0.1562  0.7126  0.0804
  523MOL0     C68924  -0.042  -0.152   7.442 -0.6241  0.3050 -0.8157
  523MOL0     C68925  -0.173  -0.156   7.513 -0.4416  1.2476 -0.5343
  523MOL0     C68926  -0.253  -0.283   7.477  0.0989  0.7293  0.5009
  523MOL0     C68927  -0.393  -0.265   7.533 -0.2867  0.5292  0.6166
  523MOL0     O68928  -0.474  -0.384   7.482 -0.5113  0.1287  0.1808
  523MOL0     C68929  -0.570  -0.455   7.562  0.5171 -0.2258  0.4568
  523MOL0     C68930  -0.594  -0.425   7.692  0.1615 -0.0237 -0.1185
  523MOL0     C68931  -0.676  -0.501   7.771  0.1530 -0.2683 -0.2606
  523MOL0     C68932  -0.750  -0.604   7.724  0.7940  0.9794  0.4136
  523MOL0     C68933  -0.832  -0.687   7.817  0.0094  0.6786 -0.2258
  523MOL0     O68934  -0.830  -0.673   7.956  0.4629  0.0303  0.2033
  523MOL0     C68935  -0.906  -0.734   8.050  0.1289  0.2884 -0.2678
  523MOL0     C68936  -1.031  -0.788   8.035  0.2974 -0.6348  0.6913
  523MOL0     C68937  -1.119  -0.836   8.128 -0.4388  0.0695  0.5478
  523MOL0     C68938  -1.077  -0.831   8.264  0.4390  0.1768 -1.1680
  523MOL0     O68939  -1.150  -0.884   8.366  0.3512  0.4643  0.7090
  523MOL0     C68940  -1.188  -0.788   8.460 -0.1269 -0.7598 -0.4041
  523MOL0     C68941  -1.328  -0.813   8.506 -1.0567  0.3657 -0.2715
  523MOL0     C68942  -1.427  -0.806   8.388  0.5850  0.1423 -0.1079
  523MOL0     C68943  -1.562  -0.859   8.425  0.4867 -0.6136  0.3384
  523MOL0     C68944  -1.662  -0.851   8.314 -0.9645  0.1560  0.3776
  523MOL0     C68945  -1.795  -0.792   8.346  0.2786 -0.3715  0.0644
  523MOL0     C68946  -1.897  -0.890   8.406  0.0007  0.0820  0.1115
  523MOL0     C68947  -1.851  -0.956   8.542  0.5451  0.3927  0.4173
  523MOL0    Cl68948  -1.867  -0.847   8.679  0.1385  0.1039 -0.2397
  523MOL0     C68949  -0.952  -0.764   8.298 -0.9196  0.3652  0.2931
  523MOL0     C68950  -0.873  -0.716   8.190 -0.5183 -0.5319  0.0940
  523MOL0     O68951  -0.914  -0.759   7.755 -0.3285  0.4407  0.4459
  523MOL0     C68952  -0.739  -0.640   7.585 -0.5063 -0.4669 -0.2847
  523MOL0     C68953  -0.641  -0.565   7.514  0.9906 -0.0329 -0.3419
  523MOL0     N68954   0.050  -0.343   7.567  0.9490 -0.4404  0.3983
  523MOL0     N68955   0.165  -0.362   7.626  0.5838  1.2157 -0.2140
  523MOL0     C68956   0.997   0.187   7.472 -0.1680  0.1272 -0.2897
  523MOL0     C68957   1.063   0.282   7.556 -0.3819  0.7153  0.4888
  523MOL0     C68958   1.190   0.622   7.752 -0.0708  0.1948  0.9325
  523MOL0     C68959   1.303   0.563   7.817  0.5877  0.2999  0.5463
  523MOL0     C68960   1.354   0.623   7.933 -0.4465  0.6494  0.3174
  523MOL0     C68961   1.307   0.750   7.974  0.9190  1.6436  0.2142
  523MOL0     O68962   1.363   0.806   8.082  0.2375  1.3313  0.5518
  523MOL0     C68963   1.276   0.865   8.185 -0.5207  0.3788 -0.4054
  523MOL0     C68964   1.216   0.754   8.276  0.9121  0.5305  1.0758
  523MOL0     C68965   1.083   0.686   8.210  0.6441  0.7767 -0.4923
  523MOL0     C68966   0.953   0.690   8.295  0.0845 -0.1450 -0.4188
  523MOL0     C68967   0.888   0.816   8.291 -0.8217 -0.3645  0.1380
  523MOL0     C68968   0.842   0.922   8.271  1.1788 -0.6239  0.4032
  523MOL0     C68969   1.207   0.815   7.900  0.0728  0.0751 -0.1890
  523MOL0     C68970   1.146   0.743   7.793 -0.4994 -0.1870 -0.4313
  523MOL0     H68971   1.161   0.507   7.328 -1.3407  1.1511  2.5786
  523MOL0     H68972   1.048   0.355   7.181 -3.2046  0.9346 -0.5386
  523MOL0     H68973   0.781   0.068   7.133  1.9484 -2.3937  0.3960
  523MOL0     H68974   0.784   0.220   7.224 -0.6918 -0.0970  1.8915
  523MOL0     H68975   0.604   0.088   7.323  0.4437  0.6378 -1.0276
  523MOL0     H68976   0.743   0.101   7.432  0.5076 -2.4856  2.1241
  523MOL0     H68977   0.813  -0.104   7.417 -0.6365 -1.1962  0.2615
  523MOL0     H68978   0.747  -0.159   7.267  4.1004 -0.9803  1.2871
  523MOL0     H68979   0.600  -0.115   7.534  1.1967 -4.2272  1.3550
  523MOL0     H68980   0.515  -0.129   7.383  2.6749  2.9418 -2.4458
  523MOL0     H68981   0.709  -0.329   7.508  0.0686  1.1691 -0.3010
  523MOL0     H68982   0.652  -0.357   7.348  0.1514  2.3839 -1.6567
  523MOL0     H68983   0.526  -0.482   7.486  1.4314  0.8140 -1.6382
  523MOL0     H68984   0.413  -0.339   7.448  0.3433 -0.6561 -1.2437
  523MOL0     H68985   0.422  -0.451   7.690 -3.4141  2.7602  1.7179
  523MOL0     H68986   0.569  -0.349   7.704  0.4881  0.8443 -1.0004
  523MOL0     H68987   0.420  -0.148   7.656 -1.6223  0.2884 -0.0959
  523MOL0     H68988   0.350  -0.239   7.795 -2.0422  1.5518 -0.6162
  523MOL0     H68989   0.209  -0.059   7.533 -3.4502  0.4364  1.4330
  523MOL0     H68990  -0.044  -0.193   7.341 -0.7053  1.0035 -1.1014
  523MOL0     H68991  -0.007  -0.049   7.429  0.1363 -0.1057 -2.2076
  523MOL0     H68992  -0.226  -0.063   7.489 -1.1097  1.5428  1.8214
  523MOL0     H68993  -0.168  -0.140   7.622 -4.7548  1.3182 -0.1684
  523MOL0     H68994  -0.277  -0.289   7.370 -0.6976 -0.7314  0.7414
  523MOL0     H68995  -0.215  -0.371   7.530 -3.5416  0.6131  3.2765
  523MOL0     H68996  -0.440  -0.175   7.494  2.2731  2.3991  1.6301
  523MOL0     H68997  -0.392  -0.254   7.642  2.6317 -0.8879  0.8322
  523MOL0     H68998  -0.547  -0.345   7.747  3.0657 -2.0123  0.4769
  523MOL0     H68999  -0.678  -0.471   7.876  0.2534  0.7243 -0.5271
  523MOL0     H69000  -1.066  -0.780   7.932  1.7971  2.7562  0.2865
  523MOL0     H69001  -1.212  -0.885   8.099 -2.7406  2.6451  2.9504
  523MOL0     H69002  -1.175  -0.684   8.429 -2.0558  0.1932  1.6334
  523MOL0     H69003  -1.130  -0.795   8.553  0.4160 -1.9146 -0.8064
  523MOL0     H69004  -1.366  -0.750   8.587 -0.9667 -0.5366  0.4829
  523MOL0     H69005  -1.337  -0.913   8.549 -2.0232  0.4882 -0.1508
  523MOL0     H69006  -1.397  -0.877   8.311 -3.2800 -1.1559 -0.6516
  523MOL0     H69007  -1.428  -0.700   8.363  1.4745  1.3106  4.0024
  523MOL0     H69008  -1.539  -0.959   8.462  1.4015  0.0787  1.7594
  523MOL0     H69009  -1.609  -0.816   8.514 -1.5537 -2.5997  0.3125
  523MOL0     H69010  -1.682  -0.955   8.289 -0.6626 -0.1917  1.5108
  523MOL0     H69011  -1.627  -0.800   8.224 -3.0967  0.5582 -0.2816
  523MOL0     H69012  -1.842  -0.751   8.256  0.5882  1.0686  0.5362
  523MOL0     H69013  -1.788  -0.707   8.415  1.6572 -2.0287  2.0880
  523MOL0     H69014  -1.985  -0.832   8.436  0.0072  0.9762 -1.4954
  523MOL0     H69015  -1.919  -0.966   8.330  1.2947 -1.2993  1.0619
  523MOL0     H69016  -1.752  -1.002   8.535  1.8403  2.9140  0.9210
  523MOL0     H69017  -1.929  -1.031   8.563 -0.2771  1.2957  0.6698
  523MOL0     H69018  -0.915  -0.772   8.400 -2.4597 -4.6867  0.6972
  523MOL0     H69019  -0.776  -0.673   8.211 -1.0473 -0.4886  2.7739
  523MOL0     H69020  -0.799  -0.719   7.541  0.7152 -1.8489  0.4449
  523MOL0     H69021  -0.637  -0.589   7.409  0.0761  0.6820 -0.5498
  523MOL0     H69022   0.956   0.104   7.528  0.4023  0.3128  0.4090
  523MOL0     H69023   1.054   0.263   7.662 -2.2035  1.1155  0.4504
  523MOL0     H69024   1.356   0.477   7.779 -0.6186  0.7951 -2.5182
  523MOL0     H69025   1.425   0.587   8.007 -2.8644  2.0170  3.5580
  523MOL0     H69026   1.199   0.935   8.150 -1.8276 -1.7755 -2.0556
  523MOL0     H69027   1.348   0.916   8.250  0.1130 -0.0672 -0.7453
  523MOL0     H69028   1.283   0.671   8.299  0.2424 -0.7671 -1.3415
  523MOL0     H69029   1.190   0.813   8.365 -0.0916  2.7568 -0.6151
  523MOL0     H69030   1.107   0.581   8.190 -2.3868 -0.4780  1.7134
  523MOL0     H69031   1.054   0.728   8.113 -4.2605 -1.6749 -0.3974
  523MOL0     H69032   0.882   0.610   8.276  3.0131 -2.6518 -1.6978
  523MOL0     H69033   0.979   0.676   8.400 -1.9218  2.2498  0.4948
  523MOL0     H69034   0.782   1.009   8.250  0.6523 -0.8670  0.8673
  523MOL0     H69035   1.186   0.913   7.943  0.4594  0.6659 -1.3171
  523MOL0     H69036   1.063   0.792   7.742 -2.9926 -0.1422  3.3128
  524MOL0     O69037  10.130   2.924   6.213 -0.4136  0.2339 -0.1511
  524MOL0     C69038  10.242   2.942   6.270 -0.4152  0.0408  0.0727
  524MOL0     O69039  10.307   3.058   6.258 -0.2432  0.8225  0.0384
  524MOL0     C69040  10.253   3.156   6.180 -0.9079  0.0791  0.5106
  524MOL0     C69041  10.147   3.243   6.210  0.3017 -0.0652 -1.0341
  524MOL0     C69042  10.096   3.331   6.118  0.0083 -0.0652  0.1027
  524MOL0     C69043  10.157   3.343   5.994 -0.1855 -0.4938  0.3614
  524MOL0     O69044  10.124   3.438   5.898 -0.3939  0.3335  0.2793
  524MOL0     C69045  10.010   3.519   5.919 -0.2348 -0.2800  0.3489
  524MOL0     C69046   9.962   3.547   5.782  0.1155 -0.2198  0.8025
  524MOL0     C69047   9.808   3.571   5.773  0.6041  1.1103 -0.7333
  524MOL0     C69048   9.778   3.697   5.854  0.0463 -0.1656  0.3099
  524MOL0     C69049   9.624   3.736   5.857  0.2276  0.6137 -0.8781
  524MOL0     C69050   9.583   3.781   5.718 -0.2086  0.8317 -0.2246
  524MOL0     C69051   9.443   3.837   5.712  0.1176  0.5600 -0.0676
  524MOL0     C69052   9.332   3.741   5.774 -0.0053 -0.4364 -1.0337
  524MOL0     N69053   9.337   3.603   5.744  0.2109  0.0321  0.1818
  524MOL0     C69054   9.314   3.546   5.624  0.2439 -0.1662 -0.0173
  524MOL0     C69055   9.355   3.419   5.636 -0.0295  1.0929  0.3837
  524MOL0     C69056   9.341   3.331   5.513 -2.0110  0.6521  0.3581
  524MOL0     C69057   9.450   3.218   5.505 -0.4205 -0.9927 -0.3579
  524MOL0     C69058   9.594   3.284   5.532 -0.3557  1.2914  1.2064
  524MOL0     C69059   9.713   3.186   5.505 -0.1388 -0.0590  0.3523
  524MOL0     O69060   9.834   3.249   5.454 -0.4117  0.0131  0.1129
  524MOL0     C69061   9.937   3.171   5.501 -0.2740  0.0897  1.1327
  524MOL0     C69062   9.980   3.174   5.639  0.1633 -0.1316  0.5480
  524MOL0     C69063  10.097   3.122   5.671  0.5359  0.8383 -0.6279
  524MOL0     C69064  10.178   3.053   5.586 -0.3164  0.0318  0.8758
  524MOL0     C69065  10.296   2.982   5.634  1.3673  0.3092  0.6813
  524MOL0     O69066  10.308   2.961   5.768 -0.0496  0.3753  0.0625
  524MOL0     C69067  10.428   2.969   5.825 -0.2317  0.0786 -0.3936
  524MOL0     C69068  10.483   2.857   5.888  0.3192  0.8796 -0.4488
  524MOL0     C69069  10.606   2.852   5.943  0.2935 -0.0331 -0.0945
  524MOL0     C69070  10.693   2.954   5.923 -0.0036 -0.7064  0.5880
  524MOL0     O69071  10.819   2.935   5.979  0.2148  0.7439 -0.1468
  524MOL0     C69072  10.844   2.908   6.124  0.1265  0.6638 -0.4911
  524MOL0     C69073  10.912   3.023   6.208  0.4004 -1.2607  0.4153
  524MOL0     C69074  10.917   3.013   6.357 -0.3872 -0.4485 -0.2062
  524MOL0     C69075  10.780   3.042   6.429 -0.0060 -0.3777  0.0079
  524MOL0     C69076  10.798   3.072   6.571  0.3751 -0.1426  0.9144
  524MOL0     C69077  10.824   2.956   6.662 -0.7358  0.4910 -0.2910
  524MOL0     C69078  10.712   2.861   6.687  0.2456  0.2740  0.5685
  524MOL0     C69079  10.759   2.715   6.683 -0.4130  0.3466  1.0908
  524MOL0    Cl69080  10.865   2.669   6.821 -0.0772 -0.0458  0.0912
  524MOL0     C69081  10.645   3.074   5.862 -0.7545  0.3884 -0.4515
  524MOL0     C69082  10.517   3.085   5.818  0.7314 -0.2911  0.9267
  524MOL0     O69083  10.362   2.926   5.547 -0.3488 -0.5594  0.5812
  524MOL0     C69084  10.133   3.031   5.458 -0.4997  0.4848  1.1159
  524MOL0     C69085  10.020   3.093   5.415  0.2104 -0.8233  1.2127
  524MOL0     N69086   9.386   3.391   5.768 -0.1294  0.5053  0.1731
  524MOL0     N69087   9.375   3.503   5.830  0.1064 -0.0041  0.4699
  524MOL0     C69088  10.269   3.268   5.952 -0.7413 -0.0468  0.2087
  524MOL0     C69089  10.315   3.177   6.051  0.7843  0.9180 -0.7646
  524MOL0     C69090  10.302   2.835   6.345  0.1455 -0.3360 -1.0870
  524MOL0     C69091  10.434   2.825   6.396 -0.9436 -1.1278  0.3133
  524MOL0     C69092  10.481   2.706   6.448 -0.1686  0.5850  0.1750
  524MOL0     C69093  10.411   2.589   6.462 -0.2096  0.4922 -0.6474
  524MOL0     O69094  10.478   2.480   6.514  0.1635  0.4747 -0.0841
  524MOL0     C69095  10.419   2.368   6.579 -0.0736 -1.0417  0.2657
  524MOL0     C69096  10.491   2.341   6.718 -0.3766  0.6056  1.0154
  524MOL0     C69097  10.464   2.451   6.821 -0.1471  0.4145  0.5531
  524MOL0     C69098  10.523   2.429   6.962 -0.0566  0.3087  0.0413
  524MOL0     C69099  10.498   2.532   7.062  0.1861  0.8812 -0.4099
  524MOL0     C69100  10.471   2.616   7.142 -0.2893 -0.0192 -0.5477
  524MOL0     C69101  10.276   2.606   6.435  0.5878  0.5612 -0.0558
  524MOL0     C69102  10.220   2.723   6.385  0.2175 -0.0237  0.6489
  524MOL0     H69103  10.098   3.243   6.307  2.4389  0.6236  0.1195
  524MOL0     H69104  10.007   3.386   6.150  0.5190  0.1191  1.2823
  524MOL0     H69105  10.055   3.612   5.955 -1.0160  1.4541 -2.7324
  524MOL0     H69106   9.932   3.467   5.975 -0.4115 -0.0810  0.2919
  524MOL0     H69107   9.983   3.466   5.712  1.6921  1.2535 -0.5267
  524MOL0     H69108  10.013   3.635   5.742 -1.4658  1.4995  2.3081
  524MOL0     H69109   9.751   3.482   5.804  3.4407 -1.2456 -1.7875
  524MOL0     H69110   9.777   3.586   5.669 -1.0108  0.7029 -0.3434
  524MOL0     H69111   9.813   3.693   5.957  4.3185  1.9005 -0.8349
  524MOL0     H69112   9.836   3.778   5.809 -0.1732 -1.1319 -1.8436
  524MOL0     H69113   9.617   3.822   5.924  0.3628 -0.0109 -0.0470
  524MOL0     H69114   9.559   3.651   5.883 -0.3605  0.6320 -2.2131
  524MOL0     H69115   9.584   3.692   5.654 -1.3055  0.3105  0.4437
  524MOL0     H69116   9.653   3.860   5.690 -2.7884  2.8889 -1.1943
  524MOL0     H69117   9.424   3.927   5.772 -1.9581  2.7140 -3.6030
  524MOL0     H69118   9.431   3.852   5.604  5.0245 -2.0336 -1.2902
  524MOL0     H69119   9.238   3.788   5.746  0.2623  0.4271 -0.5260
  524MOL0     H69120   9.328   3.736   5.884  1.0851  0.6012 -0.9243
  524MOL0     H69121   9.259   3.586   5.539  1.1132  0.9100 -0.0922
  524MOL0     H69122   9.349   3.391   5.422  0.8797  0.9705  0.7204
  524MOL0     H69123   9.241   3.286   5.507 -1.6026 -0.2259 -0.1224
  524MOL0     H69124   9.445   3.154   5.416 -2.2414 -1.5220  0.0799
  524MOL0     H69125   9.433   3.142   5.582  2.1699 -2.5019 -1.1538
  524MOL0     H69126   9.612   3.370   5.468 -4.0583 -0.2214 -2.3400
  524MOL0     H69127   9.604   3.318   5.635  1.1805  2.5847  0.6543
  524MOL0     H69128   9.670   3.115   5.434 -1.5640 -1.0190  2.0960
  524MOL0     H69129   9.744   3.145   5.602 -3.0122 -0.5296  1.1742
  524MOL0     H69130   9.929   3.242   5.707 -4.0627 -2.0774 -0.3777
  524MOL0     H69131  10.135   3.132   5.772  1.6945 -0.2497 -0.9351
  524MOL0     H69132  10.433   2.761   5.890  2.9656 -0.6531 -2.3816
  524MOL0     H69133  10.643   2.762   5.991  1.7249  1.2744  1.3813
  524MOL0     H69134  10.909   2.820   6.130 -1.2673 -0.3527  0.2399
  524MOL0     H69135  10.752   2.897   6.183 -0.2214  3.5844 -0.3276
  524MOL0     H69136  10.856   3.114   6.182  2.2731 -0.5813 -1.5641
  524MOL0     H69137  11.009   3.042   6.162 -0.6609  2.2914 -0.7302
  524MOL0     H69138  10.998   3.078   6.392 -3.1898  1.3067  3.5792
  524MOL0     H69139  10.945   2.911   6.385 -0.5779 -1.1577 -2.4087
  524MOL0     H69140  10.722   3.117   6.374 -3.5080 -1.8272  1.4267
  524MOL0     H69141  10.727   2.947   6.421  2.1449 -1.6788  0.2428
  524MOL0     H69142  10.706   3.116   6.611 -0.2679 -0.4988 -0.1652
  524MOL0     H69143  10.873   3.151   6.585  0.5927 -0.4361  1.4519
  524MOL0     H69144  10.862   2.995   6.757 -1.5375  3.8711 -1.2351
  524MOL0     H69145  10.914   2.910   6.621 -0.2406  0.0111  1.2392
  524MOL0     H69146  10.665   2.880   6.784  0.6574 -1.5989  1.1834
  524MOL0     H69147  10.639   2.889   6.611 -0.5805  0.9222  1.5740
  524MOL0     H69148  10.807   2.693   6.587  2.7037 -4.3515  3.3359
  524MOL0     H69149  10.670   2.651   6.691 -0.0245 -0.0972  1.9603
  524MOL0     H69150  10.706   3.164   5.867  3.1134 -2.0342  0.3013
  524MOL0     H69151  10.491   3.184   5.780  0.1258  0.0143  2.0994
  524MOL0     H69152  10.194   2.974   5.388  0.3188  1.3066  1.1337
  524MOL0     H69153   9.994   3.091   5.309  0.3788 -1.5902  1.1768
  524MOL0     H69154  10.319   3.285   5.857 -2.2211  0.7548 -0.4687
  524MOL0     H69155  10.408   3.121   6.045 -0.9072 -2.5168  1.8318
  524MOL0     H69156  10.513   2.897   6.373 -1.5211 -0.7631 -0.5906
  524MOL0     H69157  10.587   2.700   6.470  0.2659  1.9182 -1.3155
  524MOL0     H69158  10.450   2.281   6.520  1.7889  0.7998 -1.6670
  524MOL0     H69159  10.311   2.365   6.593 -0.3921  1.1725 -1.2475
  524MOL0     H69160  10.445   2.248   6.754 -1.7680  1.7906  2.4181
  524MOL0     H69161  10.598   2.328   6.699  0.0737  3.5382  1.1261
  524MOL0     H69162  10.357   2.458   6.844 -0.5107 -3.2538  0.5529
  524MOL0     H69163  10.499   2.546   6.778 -2.1438  3.2898  4.5845
  524MOL0     H69164  10.490   2.332   6.999 -0.0029  0.3480  0.1942
  524MOL0     H69165  10.632   2.434   6.952 -0.1648  1.2384 -0.8723
  524MOL0     H69166  10.444   2.690   7.215 -0.2238  0.7396 -1.2786
  524MOL0     H69167  10.209   2.522   6.450 -1.3346  1.8922 -0.8388
  524MOL0     H69168  10.112   2.721   6.372  0.2763  3.0896 -1.5047
  525MOL0     O69169   2.651   4.594   7.355  0.6702 -0.1436 -0.2805
  525MOL0     C69170   2.694   4.676   7.282 -0.2939 -0.7805  0.8217
  525MOL0     O69171   2.807   4.655   7.198  0.2700 -0.4091  0.6649
  525MOL0     C69172   2.877   4.541   7.197  0.5941 -0.4953 -0.2140
  525MOL0     C69173   2.919   4.502   7.073 -0.8855  0.0237  0.3974
  525MOL0     C69174   2.994   4.387   7.058  0.3481 -0.1454 -1.0047
  525MOL0     C69175   3.028   4.311   7.170 -0.4417  0.6772  0.6214
  525MOL0     O69176   3.084   4.181   7.164  0.1043  1.0700 -0.4038
  525MOL0     C69177   3.165   4.138   7.057 -0.0579 -0.4454 -0.1706
  525MOL0     C69178   3.297   4.218   7.059 -0.6830 -0.9641 -0.3579
  525MOL0     C69179   3.402   4.127   6.982 -0.1340 -0.0646  0.5135
  525MOL0     C69180   3.510   4.209   6.924 -0.4733 -0.0544  0.3374
  525MOL0     C69181   3.600   4.114   6.830 -0.1004 -0.1956 -0.6714
  525MOL0     C69182   3.703   4.188   6.742 -0.0544 -0.1566 -0.0474
  525MOL0     C69183   3.639   4.312   6.675  0.4678  0.1589 -0.1215
  525MOL0     C69184   3.740   4.348   6.563 -0.8869 -0.4959  0.5510
  525MOL0     N69185   3.661   4.403   6.453 -0.3335 -0.1163  0.1308
  525MOL0     C69186   3.638   4.539   6.432  1.3088  0.1791  0.0380
  525MOL0     C69187   3.553   4.540   6.319  0.9149  0.1739 -0.0553
  525MOL0     C69188   3.498   4.653   6.258  0.5757  0.1158  0.1075
  525MOL0     C69189   3.592   4.739   6.181  0.8923  0.0429 -0.6263
  525MOL0     C69190   3.649   4.656   6.061  0.4347  0.3110  0.5943
  525MOL0     C69191   3.753   4.748   5.990  0.1241 -0.2280  0.8585
  525MOL0     O69192   3.720   4.871   5.931  0.1273 -0.2988 -0.4838
  525MOL0     C69193   3.692   4.877   5.793 -0.1278 -0.6716  1.5926
  525MOL0     C69194   3.651   5.000   5.743  0.6419  0.2222  0.0583
  525MOL0     C69195   3.611   5.008   5.596 -0.3286 -0.1001  0.0450
  525MOL0     C69196   3.628   4.895   5.514 -0.3251 -0.3437  0.5906
  525MOL0     C69197   3.599   4.897   5.370 -0.9521  0.3090  1.0368
  525MOL0     O69198   3.670   4.815   5.286 -0.2011 -0.4563 -0.0075
  525MOL0     C69199   3.654   4.818   5.154  1.1086  0.3726 -0.1051
  525MOL0     C69200   3.759   4.769   5.082  1.1629 -0.6210  0.1813
  525MOL0     C69201   3.752   4.754   4.939 -0.1980 -1.2127 -0.3232
  525MOL0     C69202   3.655   4.829   4.880  0.6798  0.0998 -0.7839
  525MOL0     O69203   3.647   4.828   4.747 -0.9424 -0.8478 -0.4166
  525MOL0     C69204   3.584   4.708   4.696 -0.2111  0.0212  0.7937
  525MOL0     C69205   3.462   4.744   4.607 -0.7250 -0.1843  0.1216
  525MOL0     C69206   3.495   4.854   4.508 -0.7678  0.5035  0.2090
  525MOL0     C69207   3.380   4.873   4.420  0.1322 -0.2346  0.5197
  525MOL0     C69208   3.411   4.974   4.312  0.2447  0.3571 -0.2011
  525MOL0     C69209   3.287   4.970   4.220  0.0261 -0.4523 -0.5189
  525MOL0     C69210   3.255   5.100   4.168  0.4230 -0.0535  0.6514
  525MOL0     C69211   3.103   5.100   4.123 -0.7108 -0.2511  0.3411
  525MOL0    Cl69212   2.995   5.131   4.268 -0.0958 -0.5624 -0.3785
  525MOL0     C69213   3.549   4.886   4.956  0.2458  0.1222 -0.0744
  525MOL0     C69214   3.536   4.861   5.095 -0.2460  0.1595 -0.0709
  525MOL0     O69215   3.506   4.976   5.335 -0.5148 -0.3100 -0.3566
  525MOL0     C69216   3.680   4.768   5.573  0.2884 -1.0039  1.1379
  525MOL0     C69217   3.699   4.765   5.706  0.9378 -0.4140 -0.1209
  525MOL0     N69218   3.536   4.411   6.280  0.1119  0.4385 -0.7276
  525MOL0     N69219   3.602   4.323   6.360  0.4502  0.2615  0.3321
  525MOL0     C69220   2.989   4.351   7.295 -0.3929 -0.6851 -0.1752
  525MOL0     C69221   2.915   4.466   7.309  0.9632  0.1875  0.4214
  525MOL0     C69222   2.639   4.813   7.287  0.1931 -0.5602  0.4495
  525MOL0     C69223   2.518   4.847   7.344 -0.4186 -0.1401 -0.3034
  525MOL0     C69224   2.460   4.973   7.329  0.7485 -1.2205 -0.0981
  525MOL0     C69225   2.524   5.076   7.264  0.1664  0.6002 -0.6164
  525MOL0     O69226   2.478   5.201   7.264 -0.1787  0.2652  0.0193
  525MOL0     C69227   2.363   5.228   7.185  0.0309 -0.3544  0.5176
  525MOL0     C69228   2.303   5.361   7.235  0.6861 -1.0295  0.1256
  525MOL0     C69229   2.165   5.399   7.162  0.4441  0.1604 -0.1285
  525MOL0     C69230   2.102   5.514   7.241  1.0416 -1.0694  0.1293
  525MOL0     C69231   2.153   5.645   7.196  0.3062 -0.3077  0.8412
  525MOL0     C69232   2.180   5.761   7.171  1.2996  0.0347  0.2621
  525MOL0     C69233   2.645   5.044   7.205  0.4750 -0.3411  0.1224
  525MOL0     C69234   2.702   4.917   7.218  0.1836  0.4110  0.0986
  525MOL0     H69235   2.896   4.557   6.982  2.1693 -0.4565 -0.7814
  525MOL0     H69236   3.026   4.360   6.958  1.8176  1.1375 -0.9196
  525MOL0     H69237   3.121   4.163   6.961 -0.6551  3.2603  0.8963
  525MOL0     H69238   3.185   4.031   7.073  1.2715  0.0321  1.8838
  525MOL0     H69239   3.320   4.241   7.163 -4.6816 -1.1038  0.7219
  525MOL0     H69240   3.285   4.314   7.009  1.7792  0.2066  1.1509
  525MOL0     H69241   3.357   4.070   6.901  0.9984 -0.1508 -0.0645
  525MOL0     H69242   3.445   4.059   7.056 -0.3425 -0.7593  0.0043
  525MOL0     H69243   3.462   4.282   6.858  1.2893  0.7137 -0.1474
  525MOL0     H69244   3.562   4.267   7.001  0.0165  4.4842 -2.9800
  525MOL0     H69245   3.540   4.039   6.777  0.0634 -0.1085 -0.9766
  525MOL0     H69246   3.662   4.052   6.896 -2.5343 -3.2110 -1.0019
  525MOL0     H69247   3.733   4.106   6.677 -2.2322 -2.2810  1.4148
  525MOL0     H69248   3.781   4.226   6.809 -2.6013  1.5464  2.2117
  525MOL0     H69249   3.539   4.286   6.639  1.1566 -1.6386 -0.8838
  525MOL0     H69250   3.638   4.387   6.754 -0.1356 -1.8109  1.8388
  525MOL0     H69251   3.795   4.265   6.518 -1.4568 -0.3078 -0.5116
  525MOL0     H69252   3.816   4.420   6.597 -1.5583 -0.3174  1.7241
  525MOL0     H69253   3.680   4.619   6.491  4.3213 -2.2143  1.3938
  525MOL0     H69254   3.458   4.720   6.335 -0.6912 -3.1769  2.5736
  525MOL0     H69255   3.409   4.627   6.200  0.3621 -0.2816  0.5965
  525MOL0     H69256   3.666   4.782   6.250  1.1575 -1.2368 -0.0804
  525MOL0     H69257   3.538   4.823   6.138 -1.0201 -0.7924  0.0320
  525MOL0     H69258   3.700   4.564   6.088 -2.0093 -0.4987  3.0082
  525MOL0     H69259   3.562   4.633   5.999  0.2762 -1.3988  1.4098
  525MOL0     H69260   3.792   4.682   5.912 -0.0098 -1.4093  1.7617
  525MOL0     H69261   3.834   4.773   6.060 -0.8632  2.6951  1.0671
  525MOL0     H69262   3.635   5.084   5.809  2.1062 -0.4689  1.3382
  525MOL0     H69263   3.585   5.109   5.565 -1.7097  0.4879  2.8527
  525MOL0     H69264   3.853   4.748   5.132  3.1312  1.6049 -2.2511
  525MOL0     H69265   3.825   4.707   4.874  1.3438 -2.8918  2.3896
  525MOL0     H69266   3.544   4.643   4.774 -2.2301  2.2155  1.7009
  525MOL0     H69267   3.649   4.649   4.630 -2.2789 -0.6467 -0.7367
  525MOL0     H69268   3.380   4.778   4.672  0.9519  0.5016  1.9697
  525MOL0     H69269   3.435   4.655   4.549 -1.1412  1.9134 -3.1409
  525MOL0     H69270   3.579   4.811   4.452  0.4448 -1.9945  3.5570
  525MOL0     H69271   3.533   4.946   4.552  1.3359  0.5676 -1.5639
  525MOL0     H69272   3.369   4.777   4.368 -0.0437  1.1369 -2.1375
  525MOL0     H69273   3.294   4.913   4.475 -0.0369 -0.4216  0.3905
  525MOL0     H69274   3.501   4.948   4.257  0.8544 -2.1007  1.7569
  525MOL0     H69275   3.427   5.064   4.372  2.6812  0.7545 -1.3543
  525MOL0     H69276   3.197   4.950   4.280 -1.1270  1.8215 -1.3990
  525MOL0     H69277   3.298   4.888   4.149 -1.0186 -3.5220  2.5679
  525MOL0     H69278   3.275   5.167   4.252  3.0381 -2.7056  2.3599
  525MOL0     H69279   3.324   5.126   4.087  0.2836 -0.0379  0.5384
  525MOL0     H69280   3.075   5.006   4.076 -1.0157  1.6263 -3.6008
  525MOL0     H69281   3.088   5.187   4.059 -1.1829  0.3890  1.2942
  525MOL0     H69282   3.457   4.924   4.912  0.9004  1.4809 -0.2861
  525MOL0     H69283   3.445   4.898   5.141  0.4807  0.1206  1.4767
  525MOL0     H69284   3.693   4.698   5.491 -3.0297  2.6089 -3.0112
  525MOL0     H69285   3.717   4.663   5.739 -0.0667 -0.7183 -0.4850
  525MOL0     H69286   3.020   4.291   7.381  1.2061  0.0576 -0.1944
  525MOL0     H69287   2.890   4.496   7.411  1.3031 -0.9067  0.8392
  525MOL0     H69288   2.460   4.780   7.406  0.4236 -3.1037 -2.5334
  525MOL0     H69289   2.370   5.000   7.383  1.2714  2.8889 -0.9839
  525MOL0     H69290   2.286   5.152   7.194  0.2760 -0.4579  2.1466
  525MOL0     H69291   2.403   5.240   7.084  1.7965  1.0154  1.3146
  525MOL0     H69292   2.275   5.349   7.341  0.5394  2.2062  0.5600
  525MOL0     H69293   2.373   5.445   7.237  1.3250 -1.5243  2.9543
  525MOL0     H69294   2.098   5.312   7.170  1.9043 -1.3040 -2.6279
  525MOL0     H69295   2.173   5.424   7.056 -2.2614  2.8908  0.1816
  525MOL0     H69296   1.993   5.513   7.231  1.1583  0.8297 -2.1512
  525MOL0     H69297   2.112   5.489   7.347 -0.6053  1.6044  1.0070
  525MOL0     H69298   2.191   5.867   7.161 -1.3619  0.5449  1.6633
  525MOL0     H69299   2.702   5.114   7.145  1.1451 -1.6022 -0.7527
  525MOL0     H69300   2.799   4.898   7.172 -0.5669 -0.3358 -1.2588
  526MOL0     O69301   8.200   1.447   7.122  0.4981 -0.2092  0.0642
  526MOL0     C69302   8.124   1.462   7.216 -0.0499 -0.3243  0.2553
  526MOL0     O69303   8.152   1.525   7.330  0.5639 -0.7972  0.1482
  526MOL0     C69304   8.254   1.612   7.336 -0.5030 -0.5263  0.4415
  526MOL0     C69305   8.222   1.745   7.309 -0.1653  0.1619  0.0231
  526MOL0     C69306   8.326   1.842   7.312  0.4209  0.6248  0.2474
  526MOL0     C69307   8.456   1.810   7.348  0.7586 -0.1313 -0.5443
  526MOL0     O69308   8.559   1.910   7.353 -0.3340  0.3113  0.5141
  526MOL0     C69309   8.668   1.901   7.260 -0.1139 -0.0593  0.8592
  526MOL0     C69310   8.631   1.934   7.116  0.2813 -0.3748  0.2664
  526MOL0     C69311   8.528   2.047   7.096  0.8499 -0.4440  0.4228
  526MOL0     C69312   8.506   2.104   6.953  0.0364  0.7313  0.5029
  526MOL0     C69313   8.396   2.208   6.952 -0.3602 -0.7636  0.8650
  526MOL0     C69314   8.386   2.292   6.822  0.7294  0.7212 -0.2205
  526MOL0     C69315   8.407   2.207   6.691  0.0595 -0.5118 -0.3700
  526MOL0     C69316   8.399   2.293   6.559  1.2701  0.1975 -0.6412
  526MOL0     N69317   8.390   2.217   6.434  0.2563 -0.5321  1.0973
  526MOL0     C69318   8.273   2.185   6.369 -0.4155  1.0249 -0.0105
  526MOL0     C69319   8.310   2.102   6.262  0.1019 -1.0153 -0.0723
  526MOL0     C69320   8.225   2.051   6.153 -0.1355 -0.4528  0.3913
  526MOL0     C69321   8.101   2.151   6.133  0.5303  1.2699 -0.5510
  526MOL0     C69322   8.010   2.082   6.019 -0.5163 -0.4161  0.6930
  526MOL0     C69323   7.865   2.124   6.041 -0.6048  1.0621 -0.1419
  526MOL0     O69324   7.850   2.239   6.115  0.0748  0.4048 -0.6794
  526MOL0     C69325   7.734   2.258   6.179  1.1954 -0.4131 -0.0903
  526MOL0     C69326   7.727   2.296   6.308 -0.7716 -0.3036 -0.4945
  526MOL0     C69327   7.607   2.316   6.378  0.8969  0.5486  0.0130
  526MOL0     C69328   7.488   2.322   6.306 -0.0156  0.3057 -0.6719
  526MOL0     C69329   7.361   2.348   6.378 -0.4904  0.1121  0.4954
  526MOL0     O69330   7.253   2.342   6.291 -0.0812  0.0704 -0.7457
  526MOL0     C69331   7.128   2.374   6.342  0.0574 -0.2190  0.3306
  526MOL0     C69332   7.076   2.507   6.330 -0.2389  0.3544 -0.6331
  526MOL0     C69333   6.950   2.533   6.352  0.2593 -0.1933  0.0800
  526MOL0     C69334   6.865   2.429   6.400 -0.3463 -0.0768 -0.4208
  526MOL0     O69335   6.735   2.481   6.428 -1.1783 -1.1763 -0.0735
  526MOL0     C69336   6.649   2.407   6.504  0.1707 -0.9205 -0.1627
  526MOL0     C69337   6.559   2.319   6.416  1.0353 -0.4648  0.2716
  526MOL0     C69338   6.490   2.211   6.504 -0.6173 -0.0332  0.1656
  526MOL0     C69339   6.586   2.091   6.531 -0.1391  1.0049  0.0149
  526MOL0     C69340   6.525   2.013   6.651 -0.4027  0.6250 -0.2750
  526MOL0     C69341   6.577   1.865   6.642 -0.8135  0.1025 -0.2632
  526MOL0     C69342   6.548   1.788   6.773  0.4887  0.1008 -0.2268
  526MOL0     C69343   6.639   1.669   6.795 -0.2664  1.1872 -1.1892
  526MOL0    Cl69344   6.803   1.709   6.832 -0.3543 -0.3741  0.0511
  526MOL0     C69345   6.909   2.294   6.413 -0.0977  0.0150 -0.0782
  526MOL0     C69346   7.044   2.271   6.387 -1.1309 -0.4697  0.8916
  526MOL0     O69347   7.362   2.384   6.498 -0.3072  0.2396  0.5464
  526MOL0     C69348   7.492   2.283   6.171  0.0703 -0.1881 -0.0404
  526MOL0     C69349   7.615   2.256   6.109  0.9467 -0.8030  1.0248
  526MOL0     N69350   8.446   2.086   6.267  0.2285 -0.2225  0.0879
  526MOL0     N69351   8.493   2.161   6.369 -0.5685 -0.6014 -1.0747
  526MOL0     C69352   8.481   1.680   7.376 -0.1614 -0.5411 -0.9174
  526MOL0     C69353   8.385   1.579   7.370  0.4163  0.1594  0.2920
  526MOL0     C69354   7.994   1.394   7.206 -0.2522  0.1044 -0.7247
  526MOL0     C69355   7.950   1.304   7.107  0.2863 -0.1216 -0.1022
  526MOL0     C69356   7.815   1.250   7.099 -0.9996 -0.6628  0.1775
  526MOL0     C69357   7.728   1.291   7.197 -0.5088  0.2511  0.0715
  526MOL0     O69358   7.602   1.247   7.183 -0.0271  0.5567  0.2612
  526MOL0     C69359   7.525   1.234   7.302  0.8094 -0.3321 -0.1546
  526MOL0     C69360   7.404   1.136   7.297  0.0080 -0.5752  0.1423
  526MOL0     C69361   7.351   1.085   7.426 -0.3347  0.5211 -0.7009
  526MOL0     C69362   7.243   0.989   7.407 -0.1837 -0.3081 -0.1568
  526MOL0     C69363   7.285   0.863   7.358  0.2568 -0.3680  0.5810
  526MOL0     C69364   7.323   0.762   7.300 -0.2154  0.3691  0.2706
  526MOL0     C69365   7.774   1.369   7.310  0.0268 -0.0112  0.5371
  526MOL0     C69366   7.901   1.429   7.302 -0.1942  0.2257 -0.7992
  526MOL0     H69367   8.116   1.763   7.302 -0.3437 -0.2032  1.4433
  526MOL0     H69368   8.315   1.950   7.320 -1.3401  0.4156  1.1772
  526MOL0     H69369   8.708   1.800   7.273 -3.1207 -1.3427  0.9026
  526MOL0     H69370   8.748   1.970   7.289 -0.4261  0.4699  0.4761
  526MOL0     H69371   8.590   1.848   7.064 -1.3739  1.4143 -1.5805
  526MOL0     H69372   8.714   1.978   7.060 -0.4191  2.0647  0.9779
  526MOL0     H69373   8.568   2.136   7.145 -2.0273  1.3050 -0.1494
  526MOL0     H69374   8.432   2.017   7.138  1.1954 -0.3022  1.3255
  526MOL0     H69375   8.597   2.144   6.907 -0.4252  1.0109 -0.2014
  526MOL0     H69376   8.483   2.037   6.870  0.2762  2.5623 -1.1284
  526MOL0     H69377   8.408   2.269   7.042  1.8659 -2.5924  1.9052
  526MOL0     H69378   8.296   2.162   6.952 -1.3439  1.2769 -0.0149
  526MOL0     H69379   8.474   2.356   6.823  1.3170  0.2107  4.7265
  526MOL0     H69380   8.292   2.349   6.817  1.0487  1.3291  0.5296
  526MOL0     H69381   8.504   2.157   6.691 -0.2318 -1.1943  2.0414
  526MOL0     H69382   8.325   2.138   6.667 -1.3050  0.8578  0.1571
  526MOL0     H69383   8.483   2.362   6.552  1.0075  0.7380  1.0788
  526MOL0     H69384   8.303   2.346   6.563  2.2434  1.9209  1.9462
  526MOL0     H69385   8.171   2.210   6.396 -0.2224  0.2288  1.5854
  526MOL0     H69386   8.191   1.951   6.180 -2.4255 -0.0302 -0.6844
  526MOL0     H69387   8.278   2.046   6.058 -2.5870 -1.0237 -1.0403
  526MOL0     H69388   8.117   2.252   6.094 -0.7551  2.2486  1.2966
  526MOL0     H69389   8.047   2.153   6.228 -1.2178 -0.8738 -1.4010
  526MOL0     H69390   8.045   2.121   5.923  0.3500 -0.1401  1.1076
  526MOL0     H69391   8.010   1.973   6.018 -0.7209 -0.4452 -1.9129
  526MOL0     H69392   7.802   2.046   6.085 -2.1879  2.3815  0.0397
  526MOL0     H69393   7.825   2.144   5.941  3.2910  1.1226 -1.8689
  526MOL0     H69394   7.825   2.292   6.356 -0.8466 -1.5078 -0.4063
  526MOL0     H69395   7.605   2.333   6.485 -0.1696 -0.2467  0.1349
  526MOL0     H69396   7.153   2.574   6.293  2.5725 -3.1509 -1.7860
  526MOL0     H69397   6.919   2.635   6.329  1.0621  0.7202  2.6513
  526MOL0     H69398   6.589   2.488   6.547 -2.2348 -0.8334 -3.3121
  526MOL0     H69399   6.704   2.362   6.587  3.2690  2.3731 -0.1821
  526MOL0     H69400   6.610   2.262   6.337 -0.4574 -0.0989 -0.9954
  526MOL0     H69401   6.484   2.377   6.362  1.2815 -2.2664 -2.1967
  526MOL0     H69402   6.401   2.184   6.447  1.0712 -1.1302 -2.1210
  526MOL0     H69403   6.455   2.240   6.604  0.8333 -0.3337  0.7936
  526MOL0     H69404   6.591   2.030   6.441 -0.4167  0.0134  0.6592
  526MOL0     H69405   6.689   2.119   6.559 -0.2198  1.9438 -0.5804
  526MOL0     H69406   6.418   2.021   6.632 -0.2313 -0.7122 -2.1192
  526MOL0     H69407   6.549   2.061   6.746  1.1914  0.0615 -0.3665
  526MOL0     H69408   6.685   1.852   6.630 -0.5116  0.2155  1.9089
  526MOL0     H69409   6.531   1.814   6.556  1.3190 -1.9473 -0.2718
  526MOL0     H69410   6.553   1.857   6.858  2.3061  1.0465 -1.0514
  526MOL0     H69411   6.447   1.746   6.778  0.8530 -0.6177  2.5220
  526MOL0     H69412   6.644   1.602   6.709  1.3350 -0.4998  0.1165
  526MOL0     H69413   6.609   1.630   6.893 -0.4620 -0.5537 -1.9095
  526MOL0     H69414   6.844   2.216   6.452 -1.5051  1.0230 -0.3520
  526MOL0     H69415   7.096   2.176   6.393 -2.8325 -1.6165 -1.1188
  526MOL0     H69416   7.398   2.281   6.115 -0.5510 -0.2589  0.9833
  526MOL0     H69417   7.618   2.242   6.001  1.2912 -0.8503  1.0392
  526MOL0     H69418   8.579   1.645   7.407  1.3967  1.7281 -2.9293
  526MOL0     H69419   8.417   1.476   7.370  0.5722  0.2058  0.0312
  526MOL0     H69420   8.014   1.269   7.027 -1.2202 -0.8118 -1.0441
  526MOL0     H69421   7.788   1.176   7.023 -0.4261  0.3245 -1.0169
  526MOL0     H69422   7.498   1.335   7.335  4.1372  0.9531 -0.9331
  526MOL0     H69423   7.583   1.189   7.383  1.0640 -0.4962 -0.4249
  526MOL0     H69424   7.318   1.180   7.247  0.1066 -1.5484 -0.9271
  526MOL0     H69425   7.435   1.048   7.241  3.9496  0.8964 -0.2751
  526MOL0     H69426   7.301   1.166   7.480  2.5618  2.8933 -1.2918
  526MOL0     H69427   7.435   1.050   7.487 -0.3889  0.7038 -0.5190
  526MOL0     H69428   7.212   0.960   7.507  1.1223 -1.6752 -0.1165
  526MOL0     H69429   7.154   1.030   7.358  1.4503  3.6176 -0.2215
  526MOL0     H69430   7.362   0.667   7.267 -1.3543  0.4926 -1.5405
  526MOL0     H69431   7.706   1.390   7.392 -2.3711 -1.2357 -1.0161
  526MOL0     H69432   7.934   1.507   7.370 -0.0189 -0.5303 -0.0122
  527MOL0     O69433   0.826   1.001   4.295 -0.1350  0.2893  0.3641
  527MOL0     C69434   0.938   1.058   4.288 -0.2432 -0.4130  0.8151
  527MOL0     O69435   0.963   1.175   4.216  0.8659  0.6275  0.2784
  527MOL0     C69436   0.872   1.231   4.129 -0.1518  0.2618  0.4664
  527MOL0     C69437   0.885   1.198   3.992  0.5724  0.7621 -0.5270
  527MOL0     C69438   0.806   1.273   3.902  0.5712 -0.2521  0.1001
  527MOL0     C69439   0.721   1.384   3.941  0.2381  0.0005 -0.5089
  527MOL0     O69440   0.645   1.441   3.840  0.2850  0.0859 -0.6725
  527MOL0     C69441   0.648   1.586   3.835 -0.6513  0.4876  0.4456
  527MOL0     C69442   0.544   1.625   3.730  1.3650 -0.4411  1.0118
  527MOL0     C69443   0.547   1.770   3.687 -0.1704 -0.7215  0.3195
  527MOL0     C69444   0.436   1.819   3.588 -0.1132 -0.6957  0.1938
  527MOL0     C69445   0.477   1.957   3.537  0.3304 -0.1391  0.3716
  527MOL0     C69446   0.354   2.037   3.469 -0.1359  0.1406  0.4910
  527MOL0     C69447   0.399   2.160   3.415  0.6319 -0.6505  1.0726
  527MOL0     C69448   0.306   2.221   3.302 -0.7169 -0.5041 -0.8024
  527MOL0     N69449   0.363   2.340   3.229  0.5973 -0.2245 -0.9303
  527MOL0     C69450   0.409   2.458   3.290 -0.0406  0.7297  0.1050
  527MOL0     C69451   0.437   2.540   3.189 -0.4982 -0.7774  0.8328
  527MOL0     C69452   0.511   2.667   3.223  0.3007  0.1637 -0.0771
  527MOL0     C69453   0.413   2.781   3.220 -0.3694  0.3843 -0.4055
  527MOL0     C69454   0.456   2.889   3.125  0.2344  0.0870 -0.3872
  527MOL0     C69455   0.353   3.002   3.130  0.4857 -0.1368  0.7199
  527MOL0     O69456   0.399   3.117   3.062  0.2140  0.5058  0.3480
  527MOL0     C69457   0.494   3.195   3.127 -0.2416  0.3100 -0.5607
  527MOL0     C69458   0.602   3.250   3.047 -0.1906 -0.6326  0.2739
  527MOL0     C69459   0.694   3.346   3.096 -0.0523 -0.2374 -1.0270
  527MOL0     C69460   0.689   3.380   3.231  1.3567 -0.4553 -0.1320
  527MOL0     C69461   0.789   3.464   3.296 -0.1043 -0.2099  0.4814
  527MOL0     O69462   0.852   3.564   3.219  0.5050  0.0592 -0.4518
  527MOL0     C69463   0.960   3.624   3.285 -1.5136  0.1037  0.4620
  527MOL0     C69464   1.065   3.539   3.315 -0.2383 -0.0650  0.2637
  527MOL0     C69465   1.181   3.592   3.364 -1.3553  0.7740 -0.3611
  527MOL0     C69466   1.197   3.736   3.388 -0.5748 -0.0926 -0.0980
  527MOL0     O69467   1.318   3.783   3.443  0.0816  0.2611  0.0335
  527MOL0     C69468   1.353   3.918   3.421 -0.5060  0.7484 -0.8552
  527MOL0     C69469   1.370   3.946   3.277  0.9769 -0.3554  0.6178
  527MOL0     C69470   1.382   4.085   3.238  0.4353  0.4991  0.8536
  527MOL0     C69471   1.492   4.155   3.313 -0.6613  0.1147  0.1049
  527MOL0     C69472   1.484   4.305   3.293  0.2032 -0.0543  0.2213
  527MOL0     C69473   1.585   4.382   3.388 -1.0088  0.1260 -0.3554
  527MOL0     C69474   1.734   4.327   3.368  0.3255 -0.2165  0.5215
  527MOL0     C69475   1.841   4.424   3.407 -0.4130 -0.1790  0.1157
  527MOL0    Cl69476   1.895   4.527   3.254  0.1669  0.1751 -0.3485
  527MOL0     C69477   1.084   3.809   3.373  0.1681  0.4346  1.5484
  527MOL0     C69478   0.972   3.762   3.309 -0.1773  0.0388 -0.9791
  527MOL0     O69479   0.812   3.460   3.417  0.6096 -0.0059  1.1240
  527MOL0     C69480   0.588   3.314   3.313 -0.3674  0.2515 -0.6306
  527MOL0     C69481   0.491   3.228   3.268 -0.6533  0.5653  1.1698
  527MOL0     N69482   0.369   2.491   3.079  0.4871  0.3876  0.3425
  527MOL0     N69483   0.331   2.369   3.101 -0.8516  0.3112 -0.4467
  527MOL0     C69484   0.710   1.412   4.081  0.2722  0.1389  0.3063
  527MOL0     C69485   0.792   1.334   4.167  0.3144 -0.5835  0.2812
  527MOL0     C69486   1.025   1.031   4.413 -0.1291  0.1547  0.4070
  527MOL0     C69487   1.113   1.125   4.453 -0.7730  0.5910  0.5683
  527MOL0     C69488   1.196   1.111   4.559 -0.1987  0.6586  0.3245
  527MOL0     C69489   1.192   0.986   4.626  0.4431  0.6862  0.7023
  527MOL0     O69490   1.283   0.956   4.724  1.0662  0.4835 -0.8965
  527MOL0     C69491   1.238   0.995   4.853  0.0376  0.0334  0.0340
  527MOL0     C69492   1.357   1.038   4.943  0.0324 -0.0955 -0.4549
  527MOL0     C69493   1.315   1.091   5.088  0.1951 -0.0836 -0.6738
  527MOL0     C69494   1.238   0.992   5.177  0.5696  0.0933 -0.4052
  527MOL0     C69495   1.311   0.960   5.297 -0.0789  0.1070  0.1760
  527MOL0     C69496   1.371   0.931   5.391 -0.4576  0.8983  0.2753
  527MOL0     C69497   1.102   0.884   4.587 -0.2457  0.4088  0.7800
  527MOL0     C69498   1.014   0.906   4.481 -0.7384 -0.8874  0.0373
  527MOL0     H69499   0.946   1.112   3.967 -0.7445 -0.9184  1.7268
  527MOL0     H69500   0.810   1.241   3.798  1.0865  0.3152 -0.0618
  527MOL0     H69501   0.735   1.628   3.784 -2.6689  1.6360 -2.2510
  527MOL0     H69502   0.624   1.629   3.933 -4.5942 -0.1825 -0.0883
  527MOL0     H69503   0.444   1.621   3.773 -0.3686  2.9780 -2.1349
  527MOL0     H69504   0.545   1.559   3.642  1.5188 -0.2072  0.8345
  527MOL0     H69505   0.642   1.794   3.640  1.2109  0.4119  3.3950
  527MOL0     H69506   0.543   1.828   3.780 -0.1427 -2.5119  1.5028
  527MOL0     H69507   0.433   1.753   3.501 -1.1311  0.8343 -0.9957
  527MOL0     H69508   0.340   1.813   3.641 -0.0623 -2.0793  0.1669
  527MOL0     H69509   0.547   1.932   3.456 -1.0145 -1.4781 -0.4416
  527MOL0     H69510   0.524   2.011   3.619  0.5675 -1.3862  1.0870
  527MOL0     H69511   0.282   2.052   3.549 -1.1932 -0.4874 -0.3197
  527MOL0     H69512   0.303   1.979   3.391  0.3422 -0.1807  0.4080
  527MOL0     H69513   0.404   2.226   3.502 -0.2480 -1.7597  1.9985
  527MOL0     H69514   0.498   2.174   3.369 -0.0214  1.2103  0.0835
  527MOL0     H69515   0.216   2.254   3.356 -1.0161 -0.7879 -1.1266
  527MOL0     H69516   0.272   2.148   3.229 -1.5508 -2.8274  1.7269
  527MOL0     H69517   0.453   2.470   3.388  1.8860  0.6811 -0.7120
  527MOL0     H69518   0.578   2.679   3.138  1.4099  0.5981  0.8368
  527MOL0     H69519   0.572   2.662   3.313 -0.8413  2.2091  0.8866
  527MOL0     H69520   0.438   2.827   3.316  1.5210  1.8010 -1.5014
  527MOL0     H69521   0.307   2.758   3.206 -0.9047  1.1084  2.0532
  527MOL0     H69522   0.555   2.919   3.162  1.4370 -2.6101 -1.1850
  527MOL0     H69523   0.459   2.859   3.020 -0.2506 -0.7229 -0.1841
  527MOL0     H69524   0.322   3.003   3.235  2.0362 -2.7291  1.2792
  527MOL0     H69525   0.268   2.966   3.071  2.4362  0.0120 -2.3863
  527MOL0     H69526   0.613   3.229   2.941 -0.8321 -2.4736  0.5373
  527MOL0     H69527   0.772   3.401   3.045  0.9089 -0.3998  0.2101
  527MOL0     H69528   1.060   3.431   3.301  3.6627 -0.2389 -0.8393
  527MOL0     H69529   1.265   3.529   3.391  0.9090  3.6860 -0.1164
  527MOL0     H69530   1.449   3.938   3.469  0.5223 -1.5556 -1.7594
  527MOL0     H69531   1.275   3.979   3.467  0.0941  0.0019  1.2711
  527MOL0     H69532   1.284   3.912   3.218  0.5829 -0.3445  1.1691
  527MOL0     H69533   1.446   3.877   3.239 -1.2782 -0.6436 -3.9980
  527MOL0     H69534   1.286   4.127   3.271  1.4131  3.1284  0.5781
  527MOL0     H69535   1.402   4.098   3.131  3.9350  2.3622  1.5714
  527MOL0     H69536   1.485   4.138   3.421  1.2654  0.0109  0.2500
  527MOL0     H69537   1.593   4.124   3.286 -0.7286  0.5584 -0.6881
  527MOL0     H69538   1.389   4.348   3.325  0.9868  1.0767  1.1412
  527MOL0     H69539   1.508   4.325   3.188  1.8022 -0.7009  0.4365
  527MOL0     H69540   1.553   4.382   3.493 -0.8856  0.1840 -0.3179
  527MOL0     H69541   1.589   4.485   3.351  1.7379  0.6881  1.2206
  527MOL0     H69542   1.736   4.247   3.443 -1.1011 -0.8363 -0.0728
  527MOL0     H69543   1.743   4.293   3.265  0.6841  2.9772 -0.5933
  527MOL0     H69544   1.931   4.365   3.429  0.3474 -0.0154 -2.2237
  527MOL0     H69545   1.814   4.479   3.498 -1.3730 -0.8316  0.2481
  527MOL0     H69546   1.077   3.915   3.394 -0.8780  0.1306  2.8999
  527MOL0     H69547   0.904   3.838   3.274  2.0815  2.1523 -1.0661
  527MOL0     H69548   0.596   3.334   3.420 -1.7262 -0.4800 -0.3650
  527MOL0     H69549   0.417   3.177   3.330 -1.6998 -0.9933 -1.2319
  527MOL0     H69550   0.656   1.495   4.124  1.9352  1.5713 -0.2536
  527MOL0     H69551   0.776   1.344   4.273  1.5551 -1.0431  0.5254
  527MOL0     H69552   1.130   1.217   4.397  3.1787 -1.1545 -1.5217
  527MOL0     H69553   1.249   1.200   4.590  2.2872 -0.3188 -0.9018
  527MOL0     H69554   1.181   0.919   4.907  0.6725 -1.8928 -1.8485
  527MOL0     H69555   1.181   1.087   4.838  1.5518  0.8043 -1.5051
  527MOL0     H69556   1.421   0.950   4.955 -0.0264 -0.0549  0.1801
  527MOL0     H69557   1.416   1.124   4.910  1.6814 -0.5282  1.2441
  527MOL0     H69558   1.257   1.183   5.079 -1.2122 -0.6614  1.5624
  527MOL0     H69559   1.407   1.115   5.142  1.0261  1.1760 -2.5319
  527MOL0     H69560   1.142   1.033   5.208  1.7304  0.1602  3.7421
  527MOL0     H69561   1.218   0.904   5.116  2.4825 -1.8318  1.5438
  527MOL0     H69562   1.437   0.912   5.474 -0.3276 -0.8683 -0.2035
  527MOL0     H69563   1.099   0.786   4.634 -0.8159  0.0373 -0.0159
  527MOL0     H69564   0.944   0.832   4.445 -0.0220 -0.4528 -2.4218
  528MOL0     O69565   1.926  10.591   2.155  0.4088 -0.0243  0.9220
  528MOL0     C69566   1.821  10.577   2.219 -0.6821 -0.0781  0.5948
  528MOL0     O69567   1.789  10.653   2.339  0.2744 -0.4280 -0.6553
  528MOL0     C69568   1.878  10.760   2.355  0.4528 -0.8300  0.6626
  528MOL0     C69569   1.981  10.757   2.447 -0.3853 -0.2548  0.1394
  528MOL0     C69570   2.029  10.879   2.501 -0.0747  0.3183  0.2322
  528MOL0     C69571   1.993  11.000   2.447  0.2124 -0.4870  1.0168
  528MOL0     O69572   2.054  11.112   2.482 -0.1338  0.5469  0.2641
  528MOL0     C69573   1.977  11.235   2.478 -1.1748  0.3905 -0.1155
  528MOL0     C69574   2.064  11.356   2.500 -0.1409  0.4923 -0.1191
  528MOL0     C69575   2.108  11.345   2.651  0.0955 -0.3116  0.1648
  528MOL0     C69576   2.220  11.440   2.678 -0.3401 -1.3011 -0.0810
  528MOL0     C69577   2.244  11.491   2.819  0.5116 -0.2789 -0.4764
  528MOL0     C69578   2.360  11.597   2.817  0.1319  0.1905  0.0877
  528MOL0     C69579   2.304  11.736   2.808  0.7932  0.1290  0.2163
  528MOL0     C69580   2.419  11.839   2.805 -1.6481 -0.2599 -0.0232
  528MOL0     N69581   2.360  11.970   2.785  0.2970  0.0892  0.1458
  528MOL0     C69582   2.285  12.026   2.885 -0.3756  0.1373 -0.1810
  528MOL0     C69583   2.256  12.152   2.837  0.1203 -0.1602 -0.1645
  528MOL0     C69584   2.183  12.239   2.922 -0.4606  0.1565 -0.2514
  528MOL0     C69585   2.217  12.384   2.907 -1.0050 -1.1724 -0.2325
  528MOL0     C69586   2.119  12.477   2.971  0.7854 -0.1586 -0.5053
  528MOL0     C69587   2.168  12.622   2.975  0.1726 -0.0360  0.2759
  528MOL0     O69588   2.200  12.670   3.110  0.1217  1.1561  1.0852
  528MOL0     C69589   2.099  12.701   3.199  0.4248  0.0290 -0.3137
  528MOL0     C69590   1.965  12.679   3.169 -0.5187  0.1645 -0.2790
  528MOL0     C69591   1.862  12.694   3.266  0.9701 -0.4568  0.3928
  528MOL0     C69592   1.895  12.747   3.386 -0.2923  1.0163 -0.6783
  528MOL0     C69593   1.792  12.749   3.490 -0.9285  0.8870 -0.6562
  528MOL0     O69594   1.829  12.797   3.614  0.5069 -0.5252 -0.9039
  528MOL0     C69595   1.737  12.807   3.712 -0.3800  0.0299  1.0495
  528MOL0     C69596   1.659  12.926   3.704  0.1533 -0.1796  0.2274
  528MOL0     C69597   1.557  12.953   3.800  0.3190 -0.0308 -0.6892
  528MOL0     C69598   1.530  12.865   3.911  0.9034 -0.0292 -0.6782
  528MOL0     O69599   1.437  12.886   4.014 -0.0057  0.3624  0.4826
  528MOL0     C69600   1.445  13.014   4.088  0.5693 -0.2175  0.2057
  528MOL0     C69601   1.492  12.978   4.230 -1.7165  0.4946  0.5972
  528MOL0     C69602   1.447  13.084   4.331 -0.1015  0.3950  0.5706
  528MOL0     C69603   1.304  13.061   4.365  0.2864  0.0721 -0.4881
  528MOL0     C69604   1.259  13.165   4.476 -0.9031  0.1323 -0.6019
  528MOL0     C69605   1.307  13.119   4.614 -0.8938 -0.0529 -0.0699
  528MOL0     C69606   1.226  13.218   4.701 -0.1302 -0.7911  0.2219
  528MOL0     C69607   1.251  13.191   4.851 -0.0611  0.2557 -0.0269
  528MOL0    Cl69608   1.177  13.303   4.972 -0.0887  0.1227  0.1299
  528MOL0     C69609   1.620  12.749   3.913 -0.7583  0.3682 -0.1846
  528MOL0     C69610   1.713  12.717   3.815 -1.3529  0.4960  0.7828
  528MOL0     O69611   1.678  12.711   3.465  0.1673  0.4274  0.4446
  528MOL0     C69612   2.024  12.780   3.415 -0.8926  0.7054  0.2157
  528MOL0     C69613   2.126  12.751   3.329 -0.4044  1.0899  1.2766
  528MOL0     N69614   2.312  12.167   2.714  0.3868 -0.2988  0.0098
  528MOL0     N69615   2.391  12.066   2.695  0.2764 -0.3826  0.1460
  528MOL0     C69616   1.895  11.000   2.340  0.3217 -0.3649 -0.5937
  528MOL0     C69617   1.837  10.878   2.300 -0.7360 -0.0000  0.0995
  528MOL0     C69618   1.716  10.476   2.171  0.4818 -0.1235 -0.6829
  528MOL0     C69619   1.741  10.359   2.102 -0.6182  0.0391 -0.1054
  528MOL0     C69620   1.651  10.251   2.087 -0.4237 -0.3473  0.9057
  528MOL0     C69621   1.527  10.257   2.155 -0.8644  0.4706  0.0340
  528MOL0     O69622   1.442  10.152   2.168 -0.4279  0.1023 -0.5160
  528MOL0     C69623   1.401  10.103   2.040  0.0604 -0.0525 -0.0635
  528MOL0     C69624   1.367   9.954   2.064 -0.2392  0.6561  0.6462
  528MOL0     C69625   1.367   9.870   1.927 -0.6781 -0.3713 -0.3647
  528MOL0     C69626   1.241   9.877   1.837  0.1157  0.5170  0.2610
  528MOL0     C69627   1.117   9.853   1.911 -0.0585 -0.7138  0.1229
  528MOL0     C69628   1.009   9.847   1.960 -0.7712  0.6078  0.9111
  528MOL0     C69629   1.499  10.377   2.210  0.4554 -0.4321 -0.1770
  528MOL0     C69630   1.580  10.488   2.214 -0.1061 -0.7635  0.7753
  528MOL0     H69631   2.011  10.671   2.507 -0.1539 -0.8272 -0.7665
  528MOL0     H69632   2.094  10.890   2.587 -0.2899  1.3612  0.2826
  528MOL0     H69633   1.898  11.226   2.553 -0.4438  2.8668  1.0372
  528MOL0     H69634   1.920  11.249   2.386 -1.7156  1.7356  0.4020
  528MOL0     H69635   2.002  11.446   2.494 -0.8629  0.0205  0.0451
  528MOL0     H69636   2.147  11.355   2.430 -1.0374  1.0897 -1.2293
  528MOL0     H69637   2.138  11.244   2.678 -2.8645 -0.8020  2.0325
  528MOL0     H69638   2.031  11.351   2.728  1.2534 -1.2625  1.4602
  528MOL0     H69639   2.309  11.383   2.651  1.6868  1.1448  1.0065
  528MOL0     H69640   2.222  11.526   2.610 -0.1998 -0.8603  0.4661
  528MOL0     H69641   2.284  11.412   2.882  1.8663  0.3055 -0.5759
  528MOL0     H69642   2.151  11.536   2.858 -0.7883 -1.9167 -1.5724
  528MOL0     H69643   2.423  11.578   2.730 -1.6986  2.2578 -1.8121
  528MOL0     H69644   2.419  11.595   2.909 -1.6034 -1.3004  1.2585
  528MOL0     H69645   2.245  11.743   2.717  2.5334 -3.1208 -1.3206
  528MOL0     H69646   2.225  11.757   2.881  0.7472  0.1886  0.1495
  528MOL0     H69647   2.482  11.809   2.721 -1.9627 -0.0222 -0.3493
  528MOL0     H69648   2.470  11.828   2.902  0.9013 -0.0457 -1.2583
  528MOL0     H69649   2.253  11.980   2.978 -2.8012 -1.0213 -1.4822
  528MOL0     H69650   2.194  12.207   3.026  0.2043 -1.7679 -0.8808
  528MOL0     H69651   2.078  12.216   2.901 -0.6184 -1.4041  1.9344
  528MOL0     H69652   2.233  12.413   2.803  4.1418 -0.0051  0.5890
  528MOL0     H69653   2.316  12.393   2.954 -0.7024 -3.4392 -0.3187
  528MOL0     H69654   2.019  12.468   2.928 -0.3969  4.2383  0.7178
  528MOL0     H69655   2.105  12.441   3.074 -2.7907  1.2174 -0.3470
  528MOL0     H69656   2.100  12.686   2.918 -1.1582 -1.6405 -0.0068
  528MOL0     H69657   2.262  12.634   2.919 -0.3263  3.1030 -0.0743
  528MOL0     H69658   1.940  12.639   3.071  0.2560  1.6628 -1.1375
  528MOL0     H69659   1.766  12.646   3.251 -0.6755  2.4067  0.9003
  528MOL0     H69660   1.667  12.992   3.618 -3.2656 -0.9745 -0.8320
  528MOL0     H69661   1.505  13.043   3.769  3.1016  1.2563 -2.0437
  528MOL0     H69662   1.343  13.054   4.090  1.5711  2.5791  3.0694
  528MOL0     H69663   1.509  13.092   4.045 -2.0136  1.8954 -0.0477
  528MOL0     H69664   1.601  12.970   4.225 -1.7485 -2.6617  2.3314
  528MOL0     H69665   1.461  12.876   4.255  2.3207 -1.9611 -3.0149
  528MOL0     H69666   1.456  13.187   4.295 -6.3616  0.7202 -1.2975
  528MOL0     H69667   1.515  13.070   4.415 -0.1805 -0.8646  0.4481
  528MOL0     H69668   1.251  13.084   4.272  3.5207  0.6571 -2.3353
  528MOL0     H69669   1.283  12.956   4.387 -0.9600 -0.0964 -2.2224
  528MOL0     H69670   1.150  13.172   4.481 -0.8478  0.5695  0.1123
  528MOL0     H69671   1.293  13.263   4.439  1.3456 -1.3281 -2.7569
  528MOL0     H69672   1.414  13.139   4.625 -0.9467  0.3823 -0.2829
  528MOL0     H69673   1.288  13.014   4.637  0.6397 -0.1766  0.7040
  528MOL0     H69674   1.256  13.316   4.664  0.3168 -0.4308  1.4845
  528MOL0     H69675   1.119  13.194   4.697 -0.1407 -1.0038  1.3785
  528MOL0     H69676   1.359  13.196   4.867 -0.1545 -1.5062  1.5504
  528MOL0     H69677   1.218  13.092   4.884 -3.9082  2.4857  3.9485
  528MOL0     H69678   1.605  12.689   4.002 -0.5618 -1.2737 -1.2178
  528MOL0     H69679   1.769  12.624   3.821  0.9618  1.8013  0.5384
  528MOL0     H69680   2.056  12.824   3.510  0.1313  3.0471 -1.1132
  528MOL0     H69681   2.225  12.788   3.356 -0.2047  1.4641  0.1086
  528MOL0     H69682   1.848  11.087   2.295  0.5448  1.3095  2.1863
  528MOL0     H69683   1.756  10.875   2.227  0.6516  0.9405 -1.5372
  528MOL0     H69684   1.843  10.352   2.065 -0.3570  0.3940  0.5370
  528MOL0     H69685   1.682  10.162   2.033  1.7302  0.1694  1.2152
  528MOL0     H69686   1.474  10.104   1.958 -0.5912  1.0521 -0.6664
  528MOL0     H69687   1.312  10.164   2.018 -0.3872  0.8116  3.4914
  528MOL0     H69688   1.441   9.900   2.123  3.1722  2.4582 -1.6746
  528MOL0     H69689   1.279   9.938   2.127  1.0411 -2.6456  1.8066
  528MOL0     H69690   1.401   9.769   1.951 -0.8908  0.0069  1.7360
  528MOL0     H69691   1.453   9.903   1.868  0.6831 -1.1811  1.0930
  528MOL0     H69692   1.230   9.979   1.800 -2.0117 -0.1657 -1.1772
  528MOL0     H69693   1.247   9.813   1.749 -2.1161  2.7190 -1.6496
  528MOL0     H69694   0.913   9.846   2.008 -2.5466 -0.4836 -2.3599
  528MOL0     H69695   1.407  10.379   2.268  2.5598  3.1524  3.5346
  528MOL0     H69696   1.561  10.576   2.275  1.7013 -1.0244  1.7524
  529MOL0     O69697   2.015   5.347   4.646  0.5994 -0.4405  0.3463
  529MOL0     C69698   1.906   5.404   4.629  0.1589 -0.6731 -1.3579
  529MOL0     O69699   1.879   5.538   4.587 -0.0970 -0.3480 -0.2456
  529MOL0     C69700   1.979   5.610   4.530  0.5005 -0.6818  0.4093
  529MOL0     C69701   2.103   5.630   4.583  0.0990  0.4479 -0.7856
  529MOL0     C69702   2.201   5.710   4.522  0.7793 -0.2505  0.1276
  529MOL0     C69703   2.160   5.787   4.416 -0.8525 -0.3964  0.1693
  529MOL0     O69704   2.244   5.871   4.345  0.1192  0.4551 -0.7146
  529MOL0     C69705   2.350   5.939   4.410 -0.3758  0.5557 -0.4722
  529MOL0     C69706   2.414   6.051   4.332  0.4502 -1.0121 -0.7936
  529MOL0     C69707   2.326   6.170   4.303  0.2410 -0.3492  0.5204
  529MOL0     C69708   2.397   6.286   4.237  0.4041  0.6087  0.3979
  529MOL0     C69709   2.346   6.420   4.293  0.2368 -0.2320 -0.1690
  529MOL0     C69710   2.372   6.557   4.234  0.6149 -0.3508  1.8289
  529MOL0     C69711   2.350   6.671   4.331  0.6604  0.1401  0.6573
  529MOL0     C69712   2.281   6.784   4.256 -0.5825  0.4011  0.3582
  529MOL0     N69713   2.262   6.901   4.347 -0.1450  0.1558 -0.9155
  529MOL0     C69714   2.145   6.967   4.367 -0.4246 -0.4788 -0.4898
  529MOL0     C69715   2.176   7.060   4.464  0.0376 -0.8194  0.5885
  529MOL0     C69716   2.098   7.173   4.526  0.0373 -0.0555 -0.1196
  529MOL0     C69717   2.036   7.129   4.661 -1.0048  0.3574  1.3115
  529MOL0     C69718   1.969   7.250   4.725 -0.2875  0.3315  0.2325
  529MOL0     C69719   1.858   7.322   4.638 -0.3608  0.0796  0.8561
  529MOL0     O69720   1.811   7.432   4.705 -0.0670 -0.3772  0.7646
  529MOL0     C69721   1.704   7.502   4.644 -0.5018 -0.0058  0.1717
  529MOL0     C69722   1.572   7.497   4.707 -0.5430  0.0765 -0.9439
  529MOL0     C69723   1.466   7.564   4.650  1.1818 -0.0896  0.0487
  529MOL0     C69724   1.482   7.641   4.531  0.8594  0.5869  0.2546
  529MOL0     C69725   1.371   7.709   4.469 -0.2355 -0.3984  0.4083
  529MOL0     O69726   1.251   7.640   4.496 -0.2325 -1.0743  0.2078
  529MOL0     C69727   1.134   7.696   4.466 -0.7485 -1.0369  0.1533
  529MOL0     C69728   1.080   7.768   4.574 -0.2933 -0.8060 -0.0246
  529MOL0     C69729   0.949   7.813   4.562  0.0223  0.3838 -0.6978
  529MOL0     C69730   0.872   7.803   4.450 -0.6601  0.1847  0.1772
  529MOL0     O69731   0.749   7.866   4.442 -0.0778 -0.0144 -0.2800
  529MOL0     C69732   0.667   7.852   4.315  0.3081  0.1816 -0.0480
  529MOL0     C69733   0.533   7.927   4.328  0.2564  0.0216 -0.0430
  529MOL0     C69734   0.535   8.076   4.370  0.4964 -0.3416  0.8252
  529MOL0     C69735   0.423   8.153   4.298 -0.9568 -0.2326 -0.4202
  529MOL0     C69736   0.416   8.295   4.344 -1.1006  0.4466  0.2658
  529MOL0     C69737   0.301   8.370   4.291 -1.4086 -0.4682  0.5720
  529MOL0     C69738   0.301   8.379   4.130  0.0737 -0.3700 -0.0911
  529MOL0     C69739   0.170   8.456   4.108 -0.6854  0.5185 -0.0832
  529MOL0    Cl69740   0.166   8.475   3.929  0.2380  0.2786  0.1579
  529MOL0     C69741   0.917   7.717   4.346  0.3900 -0.4609 -0.2464
  529MOL0     C69742   1.044   7.667   4.356 -0.5015 -0.5047  0.0761
  529MOL0     O69743   1.382   7.814   4.405 -0.2901 -0.2271  0.2434
  529MOL0     C69744   1.612   7.649   4.480 -0.4287 -0.7718  0.3072
  529MOL0     C69745   1.720   7.581   4.531 -0.4002 -0.1091 -0.6177
  529MOL0     N69746   2.306   7.051   4.499 -0.0854  0.8524  0.1934
  529MOL0     N69747   2.360   6.959   4.427 -0.2425  0.1791  0.5873
  529MOL0     C69748   2.039   5.768   4.362 -1.1102  0.7384  0.4116
  529MOL0     C69749   1.946   5.687   4.414  0.7043  0.0980 -0.6400
  529MOL0     C69750   1.790   5.337   4.690 -0.7606  0.6326  0.3545
  529MOL0     C69751   1.662   5.395   4.664 -0.2153 -0.1380 -0.0219
  529MOL0     C69752   1.548   5.362   4.736 -0.5916  0.3798  0.3205
  529MOL0     C69753   1.560   5.259   4.836  0.4498 -1.1423  0.4417
  529MOL0     O69754   1.446   5.229   4.919 -0.4233  0.1925  0.3638
  529MOL0     C69755   1.328   5.312   4.919 -0.4905  0.0075 -0.1119
  529MOL0     C69756   1.227   5.285   5.036 -0.0761 -1.1088  0.8768
  529MOL0     C69757   1.296   5.281   5.182  0.2065 -0.3242 -0.3018
  529MOL0     C69758   1.244   5.183   5.280  0.0418  0.1210 -0.1443
  529MOL0     C69759   1.240   5.045   5.224  0.5213 -0.4198  0.7358
  529MOL0     C69760   1.225   4.923   5.215  0.2107  0.1099  0.2153
  529MOL0     C69761   1.681   5.192   4.855 -0.7479  0.4756 -0.5256
  529MOL0     C69762   1.796   5.232   4.785  0.1565 -0.7195  0.0366
  529MOL0     H69763   2.126   5.576   4.674 -0.8776 -0.5626 -1.1207
  529MOL0     H69764   2.299   5.714   4.568  1.0468  0.5283 -0.4929
  529MOL0     H69765   2.425   5.861   4.423 -1.4421 -1.2612 -3.9710
  529MOL0     H69766   2.312   5.987   4.501 -0.9357 -1.3383  0.3503
  529MOL0     H69767   2.453   6.017   4.235  0.1972  0.7137 -1.5426
  529MOL0     H69768   2.495   6.080   4.400 -1.2853  0.8228  0.6467
  529MOL0     H69769   2.271   6.216   4.386 -0.5505 -1.0017  0.3783
  529MOL0     H69770   2.249   6.135   4.232 -1.2560  2.0899  0.8309
  529MOL0     H69771   2.503   6.287   4.265  1.2266  1.5344 -2.3552
  529MOL0     H69772   2.393   6.264   4.130 -0.5809 -3.3277  1.1061
  529MOL0     H69773   2.386   6.422   4.394  3.3535 -2.0493 -1.2335
  529MOL0     H69774   2.237   6.419   4.283 -0.0858  1.4863  2.2868
  529MOL0     H69775   2.312   6.575   4.144  2.8392  2.7598  0.7965
  529MOL0     H69776   2.474   6.570   4.196  1.5929 -2.1355  3.6648
  529MOL0     H69777   2.293   6.644   4.420  0.1851 -2.1809 -0.2568
  529MOL0     H69778   2.444   6.704   4.375  1.0911 -1.1994  0.8041
  529MOL0     H69779   2.184   6.758   4.213  0.0681 -0.0560 -0.8932
  529MOL0     H69780   2.339   6.818   4.169 -1.2200  1.4182  0.3114
  529MOL0     H69781   2.049   6.953   4.318 -1.5732 -3.1441  2.2250
  529MOL0     H69782   2.017   7.210   4.463  1.9669  0.1530 -2.6086
  529MOL0     H69783   2.173   7.248   4.554 -0.7515  0.1592  1.5712
  529MOL0     H69784   2.119   7.089   4.721 -0.7267  0.8831  1.2853
  529MOL0     H69785   1.965   7.046   4.650 -1.2782  0.8259 -0.7075
  529MOL0     H69786   1.925   7.217   4.820 -1.0782  0.4081 -0.1009
  529MOL0     H69787   2.053   7.316   4.747  0.8967 -1.3484  0.9636
  529MOL0     H69788   1.772   7.262   4.609 -0.1881  0.6534 -1.0446
  529MOL0     H69789   1.909   7.359   4.548  1.2359 -2.8429  0.4398
  529MOL0     H69790   1.561   7.431   4.793 -0.5382  1.2419 -0.0149
  529MOL0     H69791   1.371   7.559   4.703 -0.1184  0.5261 -2.1074
  529MOL0     H69792   1.138   7.775   4.666  0.2660  0.0696 -0.4330
  529MOL0     H69793   0.900   7.872   4.640  2.0589  2.2324 -0.7361
  529MOL0     H69794   0.643   7.747   4.298 -4.8305  1.2962 -1.3099
  529MOL0     H69795   0.717   7.895   4.227 -0.4569 -1.5941 -1.4062
  529MOL0     H69796   0.470   7.870   4.397 -1.6943  2.4038  0.2457
  529MOL0     H69797   0.478   7.925   4.234  0.8728 -2.9105 -0.4460
  529MOL0     H69798   0.634   8.113   4.345  0.2132 -0.2364 -0.1671
  529MOL0     H69799   0.509   8.077   4.477 -0.6592 -1.0317  0.5680
  529MOL0     H69800   0.459   8.144   4.195  0.8851  1.3975  0.0158
  529MOL0     H69801   0.321   8.118   4.279 -1.4661 -1.8696  4.1413
  529MOL0     H69802   0.509   8.346   4.317 -1.1624  0.6104  0.3631
  529MOL0     H69803   0.404   8.300   4.453  2.3416 -0.4472  0.8181
  529MOL0     H69804   0.303   8.473   4.329  1.4411 -0.5192  0.7185
  529MOL0     H69805   0.206   8.324   4.320 -1.6479  0.4848  1.3357
  529MOL0     H69806   0.392   8.426   4.092 -0.9061  0.0382 -2.0517
  529MOL0     H69807   0.284   8.276   4.096 -1.5886 -0.3678  0.6556
  529MOL0     H69808   0.170   8.545   4.172  1.0036 -1.0137  2.2303
  529MOL0     H69809   0.084   8.394   4.134  0.2911  0.5258  3.8677
  529MOL0     H69810   0.863   7.704   4.253 -1.6220  0.5505  0.6938
  529MOL0     H69811   1.093   7.607   4.280 -0.6550 -1.1705  0.4917
  529MOL0     H69812   1.637   7.718   4.400  2.7698 -2.0529  0.0748
  529MOL0     H69813   1.812   7.617   4.487 -1.2047  3.5677  0.3925
  529MOL0     H69814   2.002   5.828   4.279 -0.0907  0.4382 -0.2664
  529MOL0     H69815   1.845   5.677   4.376  0.1224  0.5260  0.7182
  529MOL0     H69816   1.660   5.490   4.611 -2.1126  1.4423  2.6061
  529MOL0     H69817   1.458   5.422   4.725 -2.0112 -1.9475 -1.6422
  529MOL0     H69818   1.271   5.302   4.827  0.0478 -2.3820 -0.2307
  529MOL0     H69819   1.357   5.418   4.924  5.6704 -1.3590  2.9683
  529MOL0     H69820   1.149   5.362   5.035  1.5234  0.6534  2.8260
  529MOL0     H69821   1.182   5.186   5.021  0.4662 -1.1146 -0.9340
  529MOL0     H69822   1.289   5.384   5.218  1.0109 -0.2883 -0.2338
  529MOL0     H69823   1.398   5.246   5.166  0.3961  0.4911 -0.9555
  529MOL0     H69824   1.321   5.180   5.357 -1.7191 -0.8808  1.7047
  529MOL0     H69825   1.152   5.212   5.332 -0.5176  0.3111 -1.2169
  529MOL0     H69826   1.207   4.817   5.219 -2.4637  0.4050 -1.3622
  529MOL0     H69827   1.696   5.123   4.937  0.4491 -0.1274 -1.2301
  529MOL0     H69828   1.894   5.187   4.802  1.9296  3.5164  2.7710
  530MOL0     O69829   7.597   2.240  11.280 -0.7437  0.0378 -0.2364
  530MOL0     C69830   7.604   2.118  11.250 -0.8127 -1.0721  0.2605
  530MOL0     O69831   7.498   2.030  11.250 -0.1615 -0.4240 -0.0378
  530MOL0     C69832   7.380   2.051  11.323 -0.0271  0.5549  0.7147
  530MOL0     C69833   7.320   1.939  11.391  0.0432  0.6114 -0.4544
  530MOL0     C69834   7.200   1.954  11.467  1.4733  0.3467 -0.0022
  530MOL0     C69835   7.135   2.080  11.474  1.1317 -0.3829 -0.1236
  530MOL0     O69836   7.007   2.087  11.520  0.4474  0.2483  0.3781
  530MOL0     C69837   6.932   2.205  11.545  0.5900 -0.8615  0.4526
  530MOL0     C69838   6.804   2.156  11.611  0.1060 -0.6726  0.5813
  530MOL0     C69839   6.841   2.113  11.760  0.0097  0.8739  0.2333
  530MOL0     C69840   6.706   2.066  11.834 -0.9798 -0.0489  0.2793
  530MOL0     C69841   6.740   2.061  11.983  0.1309 -0.1541  0.3499
  530MOL0     C69842   6.614   2.027  12.071 -0.0373 -1.4655 -0.1440
  530MOL0     C69843   6.494   2.125  12.074 -0.6792 -0.2835 -1.5314
  530MOL0     C69844   6.415   2.131  12.210  0.0916  0.4191  0.1273
  530MOL0     N69845   6.393   2.263  12.261 -0.3423 -0.1323 -0.3706
  530MOL0     C69846   6.287   2.300  12.341  0.2297  0.3115  0.8486
  530MOL0     C69847   6.309   2.431  12.363 -0.9501 -0.2501  0.5279
  530MOL0     C69848   6.229   2.521  12.440 -0.0386 -0.3907 -0.5092
  530MOL0     C69849   6.150   2.617  12.348  1.0624  0.5570 -0.0631
  530MOL0     C69850   6.236   2.735  12.312  0.2620 -0.3302  0.7097
  530MOL0     C69851   6.228   2.858  12.400 -0.1114  0.9810 -0.7574
  530MOL0     O69852   6.295   2.829  12.523  0.3298 -0.0084 -0.6223
  530MOL0     C69853   6.309   2.937  12.608  0.0017  0.8476 -0.1946
  530MOL0     C69854   6.370   2.915  12.731 -0.6399 -0.1856  1.2789
  530MOL0     C69855   6.374   3.023  12.829 -0.6305  0.7833 -0.5168
  530MOL0     C69856   6.344   3.156  12.796  0.6655  0.0555  1.0292
  530MOL0     C69857   6.364   3.274  12.876 -0.6321 -0.2927 -0.2189
  530MOL0     O69858   6.309   3.384  12.836 -0.2371 -0.2032 -0.0285
  530MOL0     C69859   6.335   3.493  12.905  0.5628 -0.1460 -0.2735
  530MOL0     C69860   6.228   3.557  12.969 -0.3870 -1.0397 -1.1930
  530MOL0     C69861   6.255   3.671  13.057  0.1656  0.3149 -0.3504
  530MOL0     C69862   6.389   3.719  13.054  0.4346 -0.2410  0.3352
  530MOL0     O69863   6.430   3.822  13.143  0.1741  0.3778  0.0079
  530MOL0     C69864   6.333   3.923  13.162  0.2803  0.0338  0.5836
  530MOL0     C69865   6.392   4.006  13.272  0.0622  0.6132 -0.5520
  530MOL0     C69866   6.488   4.110  13.210  1.4884 -0.0505 -0.4261
  530MOL0     C69867   6.616   4.051  13.159 -0.0407 -0.2212 -0.0651
  530MOL0     C69868   6.723   4.161  13.158 -0.1890 -0.5536 -0.5579
  530MOL0     C69869   6.856   4.120  13.106 -0.0542 -0.2939  0.3867
  530MOL0     C69870   6.912   4.022  13.210 -0.3070 -0.0019 -0.1694
  530MOL0     C69871   6.974   3.904  13.137 -0.3291 -1.6574 -0.7795
  530MOL0    Cl69872   6.839   3.826  13.050 -0.0153 -0.0499  0.2727
  530MOL0     C69873   6.483   3.674  12.970  0.0223 -0.0808  0.1140
  530MOL0     C69874   6.456   3.558  12.897  1.0649 -1.3779 -0.3501
  530MOL0     O69875   6.431   3.258  12.982 -0.5357 -0.3646  0.0568
  530MOL0     C69876   6.285   3.169  12.671  0.7891 -1.1206  0.0408
  530MOL0     C69877   6.261   3.065  12.583  0.1112 -0.8421  0.2964
  530MOL0     N69878   6.437   2.464  12.309  0.4758 -0.3781 -0.2766
  530MOL0     N69879   6.486   2.364  12.250  0.1561  0.8111  0.1147
  530MOL0     C69880   7.204   2.187  11.412  0.5407  0.3761 -0.3448
  530MOL0     C69881   7.320   2.175  11.341  0.0005  0.7651  0.1605
  530MOL0     C69882   7.734   2.066  11.192 -0.0273 -0.0819  0.3186
  530MOL0     C69883   7.835   2.148  11.143  0.6372  0.2386 -0.0489
  530MOL0     C69884   7.951   2.085  11.094  0.8279 -0.1630  0.5643
  530MOL0     C69885   7.954   1.947  11.077 -1.0815 -0.2125  0.7473
  530MOL0     O69886   8.066   1.880  11.025  0.2107  0.3467  0.0465
  530MOL0     C69887   8.163   1.951  10.946  0.1095 -0.2577  0.3417
  530MOL0     C69888   8.212   1.860  10.834 -0.5262 -0.1087 -0.1155
  530MOL0     C69889   8.102   1.806  10.734 -0.6989 -0.4907 -0.8836
  530MOL0     C69890   8.136   1.675  10.659 -0.0487 -0.3172 -0.4796
  530MOL0     C69891   8.026   1.632  10.571  0.3918 -1.3850 -1.8414
  530MOL0     C69892   7.934   1.612  10.494 -0.6853 -0.2784 -0.1336
  530MOL0     C69893   7.851   1.872  11.110 -0.4423 -0.5834 -0.9674
  530MOL0     C69894   7.739   1.930  11.176 -0.5796  0.0908  0.5698
  530MOL0     H69895   7.381   1.852  11.371  1.0408  0.6339  2.0714
  530MOL0     H69896   7.171   1.880  11.541  3.1937  0.5803  0.9555
  530MOL0     H69897   6.905   2.252  11.450 -2.5515 -1.9709  0.6929
  530MOL0     H69898   6.977   2.281  11.610 -1.1551  2.9193 -2.3216
  530MOL0     H69899   6.764   2.066  11.563 -0.2482  0.8403 -2.1740
  530MOL0     H69900   6.734   2.240  11.617  1.3428  0.3149  2.2695
  530MOL0     H69901   6.872   2.210  11.800  3.2795 -0.0590  0.2319
  530MOL0     H69902   6.917   2.034  11.755 -2.6713 -1.8505 -0.3565
  530MOL0     H69903   6.617   2.129  11.826 -2.4739 -1.7784  2.1370
  530MOL0     H69904   6.690   1.964  11.800 -2.6922  0.3463 -0.1957
  530MOL0     H69905   6.783   2.156  12.016 -0.7237  0.4882 -0.3188
  530MOL0     H69906   6.817   1.984  11.992  1.5947  1.4485  2.4105
  530MOL0     H69907   6.650   2.016  12.174  0.4616  1.2714  0.0311
  530MOL0     H69908   6.573   1.938  12.021  0.1508 -0.8651 -1.4041
  530MOL0     H69909   6.535   2.222  12.045  1.0300 -0.2773  0.6589
  530MOL0     H69910   6.426   2.087  11.997 -0.3306  2.9922 -3.6766
  530MOL0     H69911   6.493   2.088  12.273  1.4466 -1.3900 -2.6005
  530MOL0     H69912   6.321   2.075  12.211  0.7541 -0.7139  0.2145
  530MOL0     H69913   6.203   2.231  12.348  2.5258 -3.3885 -3.0412
  530MOL0     H69914   6.290   2.575  12.512 -0.5696 -2.0715  1.3201
  530MOL0     H69915   6.162   2.462  12.504 -0.8268  0.0597 -0.8967
  530MOL0     H69916   6.059   2.638  12.406  0.9325 -3.2491  1.3967
  530MOL0     H69917   6.126   2.564  12.255  1.8521  0.0658  0.0071
  530MOL0     H69918   6.342   2.710  12.308  0.1199 -2.2960  4.5529
  530MOL0     H69919   6.207   2.779  12.216  0.5016  1.9526  1.6152
  530MOL0     H69920   6.126   2.891  12.419 -0.1525 -0.4768  1.9410
  530MOL0     H69921   6.285   2.932  12.342 -0.7168  1.6208 -0.5447
  530MOL0     H69922   6.423   2.825  12.760  1.7230  1.4123  2.2854
  530MOL0     H69923   6.410   3.002  12.930  0.5767  1.1612 -0.8521
  530MOL0     H69924   6.127   3.519  12.973 -0.3838 -1.3043  4.8724
  530MOL0     H69925   6.176   3.708  13.122  1.0692  0.8475  0.4597
  530MOL0     H69926   6.245   3.880  13.213 -0.4827  1.7119  0.7654
  530MOL0     H69927   6.314   3.975  13.068 -1.4117  1.2108  1.5196
  530MOL0     H69928   6.445   3.939  13.340 -0.4550  2.0006  1.3266
  530MOL0     H69929   6.302   4.046  13.321  0.1465  3.2237 -2.3281
  530MOL0     H69930   6.510   4.181  13.290  2.6435 -2.0790  1.1704
  530MOL0     H69931   6.420   4.162  13.142  0.2446  3.0058  2.8352
  530MOL0     H69932   6.647   3.964  13.219  0.6994 -2.2953 -3.2249
  530MOL0     H69933   6.601   4.016  13.057  3.9017 -2.7628  0.0137
  530MOL0     H69934   6.750   4.185  13.261 -0.4154 -0.9970 -0.3943
  530MOL0     H69935   6.693   4.258  13.117 -0.0408 -1.4305 -2.9016
  530MOL0     H69936   6.918   4.211  13.100  1.6680 -1.4353  0.2419
  530MOL0     H69937   6.854   4.081  13.004  0.7048  2.2764 -0.7009
  530MOL0     H69938   7.001   4.063  13.259 -0.3285 -1.0021  0.7502
  530MOL0     H69939   6.846   3.996  13.293 -0.6082  1.9523  0.2606
  530MOL0     H69940   7.033   3.836  13.200  1.4504  1.1882  0.8336
  530MOL0     H69941   7.038   3.937  13.055  0.4390  0.7057  0.6683
  530MOL0     H69942   6.577   3.729  12.962 -0.5675  0.7206 -2.1770
  530MOL0     H69943   6.528   3.501  12.839  0.5138 -2.1791 -0.2514
  530MOL0     H69944   6.229   3.258  12.646 -1.0067 -1.7759  1.5281
  530MOL0     H69945   6.198   3.079  12.495 -0.0435 -0.4278  0.4723
  530MOL0     H69946   7.163   2.287  11.425 -0.6051  0.0161 -1.0800
  530MOL0     H69947   7.362   2.266  11.298  1.7788  0.8602  1.9504
  530MOL0     H69948   7.826   2.255  11.133  1.0846  0.1611 -1.4415
  530MOL0     H69949   8.029   2.148  11.053 -0.3452  2.8423  2.6439
  530MOL0     H69950   8.241   2.003  11.004  0.5415 -0.7098  0.1753
  530MOL0     H69951   8.105   2.032  10.901  2.2258 -0.2871 -2.7208
  530MOL0     H69952   8.282   1.923  10.777  1.1467 -0.2447  1.6835
  530MOL0     H69953   8.262   1.776  10.883  1.7352  0.7558 -0.7749
  530MOL0     H69954   8.079   1.888  10.665  3.6902  1.7742  0.0151
  530MOL0     H69955   8.014   1.774  10.791  0.3390 -3.9990 -1.0474
  530MOL0     H69956   8.222   1.686  10.594 -2.3198  0.7247 -3.5484
  530MOL0     H69957   8.152   1.595  10.732 -2.8387 -1.1174 -0.6082
  530MOL0     H69958   7.850   1.601  10.427  0.1783 -0.5413 -1.2014
  530MOL0     H69959   7.855   1.763  11.115  1.2749 -0.5710 -1.3806
  530MOL0     H69960   7.665   1.863  11.219 -1.9291  1.5053  0.5523
  531MOL0     O69961   5.210   4.084   7.460 -0.6017  0.0995 -0.5946
  531MOL0     C69962   5.189   4.021   7.561  0.6851 -0.7780  0.6400
  531MOL0     O69963   5.133   4.071   7.671 -0.3002  0.0323 -0.6704
  531MOL0     C69964   5.148   4.211   7.674 -0.2436  0.1796 -0.2956
  531MOL0     C69965   5.252   4.276   7.746 -0.4685 -0.4759 -1.2140
  531MOL0     C69966   5.271   4.420   7.763 -0.2956  0.3941 -0.7145
  531MOL0     C69967   5.184   4.504   7.694  0.7490  0.8059 -0.4310
  531MOL0     O69968   5.180   4.636   7.725  0.1839 -0.0210 -0.0173
  531MOL0     C69969   5.149   4.726   7.621 -0.1125  0.6511 -0.1292
  531MOL0     C69970   4.997   4.774   7.627 -0.5056  0.5685  0.5453
  531MOL0     C69971   4.968   4.875   7.523 -0.2499  0.1030 -0.0374
  531MOL0     C69972   4.823   4.941   7.540  0.6733  0.3249 -0.4570
  531MOL0     C69973   4.818   5.060   7.451  1.3086 -0.5556  0.6516
  531MOL0     C69974   4.678   5.116   7.442 -0.5407 -0.0361 -0.3308
  531MOL0     C69975   4.688   5.251   7.355  1.5987  0.3775 -0.9238
  531MOL0     C69976   4.566   5.335   7.395  0.8586  0.0474 -0.4713
  531MOL0     N69977   4.599   5.455   7.475 -0.3147  0.5982  0.8177
  531MOL0     C69978   4.612   5.447   7.614  1.1575  0.0867 -0.1649
  531MOL0     C69979   4.634   5.578   7.644 -0.3851 -0.5003 -0.2553
  531MOL0     C69980   4.670   5.642   7.775  0.8874  0.4075  0.4151
  531MOL0     C69981   4.554   5.627   7.880  0.4919 -1.0229 -0.2173
  531MOL0     C69982   4.594   5.662   8.019 -0.2016  0.6155 -0.7613
  531MOL0     C69983   4.663   5.554   8.094 -0.2356 -0.1915 -1.2500
  531MOL0     O69984   4.581   5.443   8.103 -0.3639 -0.0510  0.4667
  531MOL0     C69985   4.623   5.329   8.050 -0.1864 -0.7062 -0.3744
  531MOL0     C69986   4.543   5.266   7.958 -0.3171  0.3557  0.4128
  531MOL0     C69987   4.566   5.133   7.922  0.9958 -0.1789 -1.0196
  531MOL0     C69988   4.669   5.061   7.992  0.6353  0.7672  0.2193
  531MOL0     C69989   4.704   4.924   7.945  0.0372  0.0222 -0.2575
  531MOL0     O69990   4.599   4.860   7.882 -0.0918  0.2330  0.2017
  531MOL0     C69991   4.620   4.741   7.814 -0.3844 -0.2222  0.4967
  531MOL0     C69992   4.533   4.712   7.703  0.6579  0.0737  0.3124
  531MOL0     C69993   4.535   4.588   7.631 -0.0485  0.4703 -0.2570
  531MOL0     C69994   4.617   4.483   7.672  0.0247  0.2590 -1.3188
  531MOL0     O69995   4.630   4.370   7.599 -0.4596  0.3598  0.5914
  531MOL0     C69996   4.554   4.256   7.641 -0.3617 -0.2366  0.3924
  531MOL0     C69997   4.560   4.141   7.544  1.2890 -0.6485 -0.4020
  531MOL0     C69998   4.660   4.036   7.595  0.6624  0.3883 -0.0844
  531MOL0     C69999   4.577   3.938   7.688  1.0772  0.1007 -0.7364
  531MOL0     C70000   4.647   3.806   7.739  0.2218  0.3962  0.4361
  531MOL0     C70001   4.580   3.760   7.865 -0.8847  0.6344  0.5837
  531MOL0     C70002   4.637   3.628   7.911  0.5512  0.0953  1.2275
  531MOL0     C70003   4.561   3.570   8.028  0.6472 -0.6379 -0.3688
  531MOL0    Cl70004   4.578   3.677   8.159 -0.3477  0.2956 -0.2511
  531MOL0     C70005   4.705   4.505   7.783  1.2494 -0.1951  0.8350
  531MOL0     C70006   4.701   4.627   7.855 -0.8674  0.0452  0.0000
  531MOL0     O70007   4.816   4.879   7.956 -0.5034 -0.6308  0.1031
  531MOL0     C70008   4.747   5.133   8.074  0.2460  0.2443 -0.5638
  531MOL0     C70009   4.730   5.269   8.107 -1.0010  0.8473  0.8982
  531MOL0     N70010   4.606   5.654   7.531 -0.3300 -0.5891 -0.5541
  531MOL0     N70011   4.585   5.584   7.434  0.2072  0.6685 -0.0209
  531MOL0     C70012   5.081   4.442   7.621  0.0730  0.1628  0.3897
  531MOL0     C70013   5.066   4.301   7.609 -0.4114 -0.0294  0.0235
  531MOL0     C70014   5.211   3.879   7.557 -0.0783 -0.3253 -0.2411
  531MOL0     C70015   5.140   3.782   7.624  0.8893  0.4544 -0.8294
  531MOL0     C70016   5.166   3.643   7.599 -0.7228  0.1231 -2.2293
  531MOL0     C70017   5.261   3.607   7.506 -0.5915  0.1849 -0.3118
  531MOL0     O70018   5.271   3.470   7.463 -0.2164  0.4316 -0.4914
  531MOL0     C70019   5.364   3.425   7.360  0.7157  0.5585 -0.1462
  531MOL0     C70020   5.336   3.475   7.219 -0.3200 -0.2931 -1.0716
  531MOL0     C70021   5.210   3.404   7.164  0.0748  0.1574  0.5622
  531MOL0     C70022   5.130   3.479   7.048 -0.6899 -0.8539 -0.3668
  531MOL0     C70023   5.179   3.464   6.907  0.7385 -0.3888 -0.5791
  531MOL0     C70024   5.208   3.444   6.794  0.2207  0.5853  0.0655
  531MOL0     C70025   5.341   3.705   7.451 -0.2957 -0.0055 -0.0791
  531MOL0     C70026   5.306   3.829   7.472 -0.4650  0.3524  0.8439
  531MOL0     H70027   5.312   4.206   7.804 -2.8643 -0.1173  1.9736
  531MOL0     H70028   5.356   4.465   7.814  0.7768 -1.4984 -0.7200
  531MOL0     H70029   5.181   4.686   7.525  2.8646  3.3011 -0.3707
  531MOL0     H70030   5.218   4.807   7.643  0.6874  0.0596 -0.4231
  531MOL0     H70031   4.993   4.813   7.729 -0.4236  0.7084  0.4942
  531MOL0     H70032   4.921   4.695   7.629  0.3427 -0.2498  1.3082
  531MOL0     H70033   4.974   4.827   7.424 -2.3118 -0.1779 -0.0777
  531MOL0     H70034   5.047   4.950   7.526 -0.1746  0.0415 -0.4050
  531MOL0     H70035   4.741   4.875   7.509 -1.1365  2.9457 -1.5737
  531MOL0     H70036   4.785   4.950   7.642  1.7300 -1.1433  0.1033
  531MOL0     H70037   4.853   5.043   7.348  1.6596  3.1834 -0.0073
  531MOL0     H70038   4.877   5.138   7.499 -1.0072  1.5770  0.2695
  531MOL0     H70039   4.637   5.133   7.542 -2.5885 -0.9339 -0.9645
  531MOL0     H70040   4.617   5.043   7.388  1.8387 -1.7099 -0.9339
  531MOL0     H70041   4.779   5.307   7.379  1.2813  0.5762 -0.1773
  531MOL0     H70042   4.687   5.218   7.250  1.7868  0.2455 -0.8830
  531MOL0     H70043   4.494   5.278   7.454 -1.4479  2.9372 -0.2554
  531MOL0     H70044   4.517   5.377   7.307 -2.0501  1.3795  1.6283
  531MOL0     H70045   4.609   5.364   7.683  0.9837  0.8316  0.7540
  531MOL0     H70046   4.686   5.749   7.759  1.8227  0.4845  1.7226
  531MOL0     H70047   4.764   5.598   7.807 -1.0039 -1.4393  4.1197
  531MOL0     H70048   4.520   5.523   7.885  2.5709 -1.7026  1.3560
  531MOL0     H70049   4.471   5.690   7.849  0.6353 -1.3338 -1.2724
  531MOL0     H70050   4.652   5.754   8.005 -3.5194  3.1003  0.2839
  531MOL0     H70051   4.503   5.691   8.073 -0.0014  0.4262 -0.3174
  531MOL0     H70052   4.692   5.586   8.194  0.4180 -0.3659 -1.3761
  531MOL0     H70053   4.751   5.538   8.031 -0.5819  1.6831 -2.2958
  531MOL0     H70054   4.452   5.312   7.923  0.6695  0.8625 -1.6620
  531MOL0     H70055   4.502   5.087   7.848 -0.1589 -1.1046  0.5027
  531MOL0     H70056   4.461   4.787   7.673 -0.8620 -2.4417 -3.1360
  531MOL0     H70057   4.468   4.577   7.547  0.6816 -0.8283 -0.7034
  531MOL0     H70058   4.450   4.288   7.626  0.0163  1.7514  1.7025
  531MOL0     H70059   4.561   4.217   7.743  1.4930  1.7026  1.0666
  531MOL0     H70060   4.580   4.169   7.440 -0.9745 -0.7394 -0.9059
  531MOL0     H70061   4.461   4.097   7.532  0.8560  0.3894 -0.6882
  531MOL0     H70062   4.743   4.080   7.650  1.3684 -2.9189  1.7386
  531MOL0     H70063   4.700   3.976   7.513 -2.6538  1.1674 -2.4900
  531MOL0     H70064   4.565   3.998   7.778  0.9480 -1.4254  0.3027
  531MOL0     H70065   4.476   3.918   7.651  0.9959 -0.8387 -0.0402
  531MOL0     H70066   4.754   3.819   7.758  1.2192 -0.4171 -3.7738
  531MOL0     H70067   4.634   3.724   7.669 -2.3552 -0.0994  1.3419
  531MOL0     H70068   4.478   3.738   7.833 -0.1640 -1.0891 -0.6380
  531MOL0     H70069   4.595   3.833   7.946  3.2054 -2.5798  3.1420
  531MOL0     H70070   4.649   3.564   7.823 -0.8612 -0.1709  1.2126
  531MOL0     H70071   4.743   3.636   7.939  1.3661  0.8718 -1.7514
  531MOL0     H70072   4.600   3.470   8.047  2.1906 -0.8471 -3.9211
  531MOL0     H70073   4.452   3.563   8.017  0.4589  1.5662 -0.2663
  531MOL0     H70074   4.774   4.427   7.814  2.5137 -0.5395 -2.4435
  531MOL0     H70075   4.755   4.628   7.949 -1.1942 -2.2527  0.2822
  531MOL0     H70076   4.824   5.078   8.128 -1.9828 -3.0350 -0.4663
  531MOL0     H70077   4.785   5.325   8.182 -1.8829  1.4858  1.0747
  531MOL0     H70078   5.014   4.500   7.559 -1.5380 -2.5793 -0.5821
  531MOL0     H70079   4.994   4.246   7.550  1.5024 -1.0660 -1.4700
  531MOL0     H70080   5.051   3.810   7.680  0.9310  1.8501 -1.4143
  531MOL0     H70081   5.111   3.565   7.650  0.5646  0.7915  0.3688
  531MOL0     H70082   5.365   3.315   7.360  3.8515  0.4762 -1.7246
  531MOL0     H70083   5.463   3.458   7.392  1.6908  0.3349 -2.6925
  531MOL0     H70084   5.320   3.583   7.211 -2.8318 -0.6884 -2.2074
  531MOL0     H70085   5.420   3.455   7.151 -1.4353  1.2228 -3.0077
  531MOL0     H70086   5.129   3.389   7.236  0.7157  1.0486  1.4928
  531MOL0     H70087   5.228   3.301   7.131  2.2979 -0.0152  2.0225
  531MOL0     H70088   5.023   3.456   7.048 -1.2736  1.5434  0.6141
  531MOL0     H70089   5.127   3.588   7.059  1.9368 -0.2751 -3.6259
  531MOL0     H70090   5.243   3.461   6.694 -1.9108  1.7464 -0.5496
  531MOL0     H70091   5.412   3.673   7.376 -1.6702 -0.1715 -1.3520
  531MOL0     H70092   5.375   3.886   7.412  0.6077 -1.5092  0.2304
  532MOL0     O70093   9.889   5.637   3.186 -0.7480 -0.1620 -0.4696
  532MOL0     C70094   9.845   5.573   3.278  0.2168 -0.9837  0.4708
  532MOL0     O70095   9.793   5.625   3.397 -0.2545 -0.5710  0.4556
  532MOL0     C70096   9.823   5.766   3.417 -0.0592 -0.3620  0.1920
  532MOL0     C70097   9.735   5.866   3.384  0.1505  0.5166 -0.9063
  532MOL0     C70098   9.766   5.999   3.417 -0.5797  0.1195 -0.5559
  532MOL0     C70099   9.868   6.039   3.502  0.5909  0.6631 -0.2296
  532MOL0     O70100   9.886   6.164   3.558  0.6506  0.4197  0.8024
  532MOL0     C70101   9.782   6.268   3.553 -0.4227 -0.5008  0.4613
  532MOL0     C70102   9.813   6.369   3.442  0.4412  0.5054  0.2946
  532MOL0     C70103   9.691   6.464   3.437  0.0544 -0.2674 -0.4189
  532MOL0     C70104   9.740   6.611   3.387  0.4823  0.1434 -0.3648
  532MOL0     C70105   9.615   6.706   3.356  0.3620  0.0283  0.5604
  532MOL0     C70106   9.521   6.663   3.245  0.9577 -0.6484 -0.0028
  532MOL0     C70107   9.389   6.600   3.304 -0.2841 -0.9283  0.4803
  532MOL0     C70108   9.310   6.535   3.193 -0.3208  0.3876  0.6252
  532MOL0     N70109   9.182   6.481   3.246 -0.7408  0.3914 -0.3760
  532MOL0     C70110   9.160   6.347   3.284 -0.4073  0.3105 -0.0861
  532MOL0     C70111   9.036   6.350   3.335  0.7343 -0.0058 -0.2739
  532MOL0     C70112   8.954   6.238   3.396 -0.5967  0.8218 -0.2267
  532MOL0     C70113   8.993   6.184   3.533 -1.0863  0.3124 -0.5983
  532MOL0     C70114   9.106   6.085   3.554  0.1289  0.3520  0.4455
  532MOL0     C70115   9.170   6.072   3.690 -0.1309 -0.2541 -0.4699
  532MOL0     O70116   9.264   5.967   3.706 -0.2981 -0.1253 -0.2465
  532MOL0     C70117   9.382   5.999   3.766  0.8077 -0.2430 -0.7627
  532MOL0     C70118   9.401   6.067   3.896  0.4238  0.5621 -0.4180
  532MOL0     C70119   9.521   6.084   3.959  0.1807 -0.6496  0.2289
  532MOL0     C70120   9.641   6.050   3.890  0.2587 -0.1584  0.6982
  532MOL0     C70121   9.775   6.055   3.958  0.1921  1.2312 -0.1923
  532MOL0     O70122   9.770   6.098   4.082  0.3668 -0.0331 -0.5041
  532MOL0     C70123   9.878   6.111   4.163  0.9360 -0.7255  0.0639
  532MOL0     C70124   9.987   6.178   4.118  0.1632  0.0438 -0.0487
  532MOL0     C70125  10.092   6.206   4.200  0.0166 -0.6239 -0.1806
  532MOL0     C70126  10.092   6.149   4.328  0.0288 -0.3723 -0.3053
  532MOL0     O70127  10.195   6.193   4.407  0.5197 -0.6268  0.1902
  532MOL0     C70128  10.271   6.103   4.487  1.0206 -0.4119  0.1104
  532MOL0     C70129  10.416   6.099   4.428  0.0606 -0.0782 -0.6249
  532MOL0     C70130  10.405   6.041   4.289  0.8229  0.1376  0.8535
  532MOL0     C70131  10.546   6.007   4.253 -0.0058 -0.5142  0.7714
  532MOL0     C70132  10.537   5.902   4.131 -0.6460 -0.3260 -0.6051
  532MOL0     C70133  10.676   5.867   4.073  0.5649 -0.2581 -0.6186
  532MOL0     C70134  10.726   5.986   4.000  0.1674  0.3163  0.1187
  532MOL0     C70135  10.816   5.947   3.879  1.2109 -0.3965  0.6131
  532MOL0    Cl70136  10.969   5.863   3.931 -0.3406  0.1248 -0.0352
  532MOL0     C70137   9.986   6.071   4.374 -0.6609 -0.3544  0.9877
  532MOL0     C70138   9.877   6.057   4.288 -0.7655  0.3228  0.5324
  532MOL0     O70139   9.875   6.002   3.908  1.2155 -0.8692 -0.1682
  532MOL0     C70140   9.624   5.992   3.759  0.7512 -0.5822  0.1011
  532MOL0     C70141   9.503   5.978   3.694  0.4148 -0.0186 -0.1927
  532MOL0     N70142   8.998   6.480   3.363  0.1264  0.5723 -0.1677
  532MOL0     N70143   9.090   6.553   3.310  0.4408 -0.1404  0.0427
  532MOL0     C70144   9.956   5.937   3.535 -0.0486 -0.1086  0.2795
  532MOL0     C70145   9.943   5.811   3.480  0.6082  0.8580  0.9021
  532MOL0     C70146   9.858   5.422   3.268  0.1100 -0.5567  0.2604
  532MOL0     C70147   9.921   5.359   3.155 -0.6701  0.5415  0.8248
  532MOL0     C70148   9.927   5.223   3.151  0.5627 -0.2561  0.7221
  532MOL0     C70149   9.867   5.142   3.255  0.1461  0.6358 -0.9872
  532MOL0     O70150   9.859   5.010   3.249 -0.0248  1.2278 -0.0946
  532MOL0     C70151   9.949   4.939   3.170 -1.0528  0.3345 -0.8500
  532MOL0     C70152   9.936   4.788   3.183 -1.1899  0.4274 -0.6081
  532MOL0     C70153   9.968   4.737   3.315  1.3178 -0.3457 -1.4824
  532MOL0     C70154   9.982   4.585   3.323 -0.0216  0.4342  0.1498
  532MOL0     C70155  10.043   4.537   3.454  0.4394  0.3747  0.1189
  532MOL0     C70156  10.098   4.486   3.547  0.5792  0.7332 -0.0583
  532MOL0     C70157   9.809   5.206   3.361  0.6840 -0.1103  0.0077
  532MOL0     C70158   9.797   5.343   3.368  0.4944 -0.5226 -0.4041
  532MOL0     H70159   9.640   5.845   3.334 -0.2807 -0.4088  0.2273
  532MOL0     H70160   9.694   6.075   3.390  0.7987  1.4133 -0.7079
  532MOL0     H70161   9.784   6.321   3.649 -3.1671 -2.3560  1.6809
  532MOL0     H70162   9.684   6.222   3.536 -2.0510  2.5447  0.8964
  532MOL0     H70163   9.823   6.328   3.341 -0.3414 -0.8806  0.7453
  532MOL0     H70164   9.908   6.413   3.474  2.3707  0.2453 -4.3367
  532MOL0     H70165   9.655   6.473   3.539 -0.0182 -1.8622 -0.2724
  532MOL0     H70166   9.616   6.423   3.369 -0.5639 -1.8206  1.1379
  532MOL0     H70167   9.798   6.657   3.468  0.7266 -0.9679  0.1192
  532MOL0     H70168   9.798   6.610   3.294 -1.3324 -0.3745 -1.5389
  532MOL0     H70169   9.648   6.807   3.332 -1.0546  1.1033  2.7925
  532MOL0     H70170   9.545   6.721   3.438 -0.1655  1.5342 -0.1193
  532MOL0     H70171   9.577   6.584   3.194  2.1359  0.2987 -0.2130
  532MOL0     H70172   9.493   6.742   3.175 -1.0386  2.4122  3.8597
  532MOL0     H70173   9.413   6.522   3.377  3.6827  1.9394  2.6775
  532MOL0     H70174   9.324   6.675   3.350 -1.7087  0.1902 -2.9980
  532MOL0     H70175   9.378   6.465   3.144  0.1200  2.0592 -1.2712
  532MOL0     H70176   9.284   6.607   3.115  2.2973 -0.1260 -0.8350
  532MOL0     H70177   9.230   6.267   3.263 -1.2189 -0.2805 -0.5812
  532MOL0     H70178   8.966   6.162   3.318 -2.1996 -0.2727  0.5468
  532MOL0     H70179   8.849   6.269   3.401 -0.1491  2.2184  1.3595
  532MOL0     H70180   8.903   6.142   3.579 -0.7926  1.1668  0.8110
  532MOL0     H70181   9.022   6.276   3.584  0.8274 -0.2911 -0.5403
  532MOL0     H70182   9.046   5.995   3.546 -3.0354  2.3713 -0.4438
  532MOL0     H70183   9.180   6.092   3.474  2.6615 -1.1018  2.5174
  532MOL0     H70184   9.089   6.067   3.763 -1.2707  1.4327 -1.5427
  532MOL0     H70185   9.218   6.165   3.724 -1.6791  0.1620  0.6707
  532MOL0     H70186   9.313   6.090   3.956  2.5658 -0.4407  3.4063
  532MOL0     H70187   9.527   6.118   4.062 -0.2219 -2.3653  0.8565
  532MOL0     H70188   9.991   6.217   4.017 -2.2993  0.2517 -0.1323
  532MOL0     H70189  10.185   6.256   4.177 -0.9958  1.0992 -0.7441
  532MOL0     H70190  10.226   6.004   4.501  1.2746 -0.1775  3.3344
  532MOL0     H70191  10.277   6.151   4.585  1.6440 -1.3438  0.5437
  532MOL0     H70192  10.471   6.033   4.496 -3.1592 -0.2525  2.0729
  532MOL0     H70193  10.448   6.203   4.421 -3.5530  1.4617  2.4074
  532MOL0     H70194  10.373   6.122   4.223  3.0698 -0.7854 -1.5363
  532MOL0     H70195  10.339   5.953   4.283  2.3990 -1.0924  0.7727
  532MOL0     H70196  10.589   6.101   4.219 -1.4234  0.0110  0.3703
  532MOL0     H70197  10.606   5.971   4.337  2.2868 -1.8653 -1.2952
  532MOL0     H70198  10.474   5.942   4.052 -3.9013  0.2181  2.0245
  532MOL0     H70199  10.492   5.807   4.162  0.8059 -1.1821 -1.0278
  532MOL0     H70200  10.670   5.774   4.015  0.8676 -1.0972  0.6501
  532MOL0     H70201  10.750   5.840   4.148 -1.0832 -1.7095  0.5809
  532MOL0     H70202  10.643   6.040   3.954  0.5840  0.0784 -0.9428
  532MOL0     H70203  10.766   6.049   4.080 -0.9402  1.0956  0.0804
  532MOL0     H70204  10.854   6.031   3.821 -1.1017 -0.0639 -0.5397
  532MOL0     H70205  10.773   5.883   3.801 -0.4101  0.4464  0.7669
  532MOL0     H70206   9.988   6.014   4.467  0.8190 -2.5308 -0.2900
  532MOL0     H70207   9.784   6.013   4.322  0.4034  0.3061  4.0004
  532MOL0     H70208   9.719   5.969   3.710  1.6774  0.0746  1.5288
  532MOL0     H70209   9.507   5.951   3.589  4.7467  0.9780 -0.4758
  532MOL0     H70210  10.028   5.965   3.611 -0.8250 -2.0819  1.8560
  532MOL0     H70211  10.010   5.728   3.499  0.7731 -1.2162 -6.0577
  532MOL0     H70212   9.956   5.413   3.068 -3.4827 -2.6720 -2.6694
  532MOL0     H70213   9.956   5.178   3.056 -2.2017  1.4120 -1.0422
  532MOL0     H70214  10.053   4.967   3.193 -0.7941 -0.1376 -1.4099
  532MOL0     H70215   9.931   4.950   3.063 -0.8899 -2.8664 -1.2967
  532MOL0     H70216   9.835   4.758   3.152 -0.9065 -0.0473 -1.0891
  532MOL0     H70217  10.005   4.737   3.115 -0.0914 -0.4697  1.1040
  532MOL0     H70218   9.908   4.769   3.402  2.1006 -1.5531 -0.4555
  532MOL0     H70219  10.064   4.773   3.354  0.6753 -2.0353  2.1400
  532MOL0     H70220   9.889   4.531   3.304 -0.0732 -0.1245  1.7957
  532MOL0     H70221  10.060   4.563   3.251 -1.7591 -4.8271 -0.4998
  532MOL0     H70222  10.160   4.424   3.609  0.7199 -0.9227 -1.7764
  532MOL0     H70223   9.768   5.147   3.443 -2.1838 -0.9937 -1.9177
  532MOL0     H70224   9.744   5.374   3.457  1.2081  0.6078 -0.3428
  533MOL0     O70225   7.624   6.285   3.925  0.2506 -0.0502 -0.1185
  533MOL0     C70226   7.547   6.375   3.889 -0.3779  0.2553 -0.3116
  533MOL0     O70227   7.406   6.373   3.900  0.3434  0.9265 -0.7781
  533MOL0     C70228   7.332   6.260   3.932  0.7076  1.1934 -0.9030
  533MOL0     C70229   7.340   6.125   3.912 -0.1484  0.1022  1.2002
  533MOL0     C70230   7.240   6.034   3.918 -1.3094  0.8944 -0.5438
  533MOL0     C70231   7.112   6.068   3.972 -0.3995 -0.2914 -0.1537
  533MOL0     O70232   7.006   5.985   3.978  0.0086  0.5412  0.1623
  533MOL0     C70233   7.008   5.845   3.927 -0.8516  0.7902  0.1249
  533MOL0     C70234   6.959   5.843   3.783 -0.0259 -0.3010 -0.1322
  533MOL0     C70235   6.922   5.700   3.732  0.0434  0.2190  0.3297
  533MOL0     C70236   7.028   5.592   3.758 -0.2831  0.2889  0.1405
  533MOL0     C70237   7.012   5.481   3.664  0.6802  0.2023 -0.4350
  533MOL0     C70238   7.048   5.507   3.513  0.3913 -1.0308 -0.5139
  533MOL0     C70239   7.020   5.394   3.411  0.0838  0.3827 -0.6468
  533MOL0     C70240   7.078   5.252   3.456  0.4407  0.2961 -0.0363
  533MOL0     N70241   7.038   5.159   3.354  0.0051  0.6782  0.2810
  533MOL0     C70242   7.092   5.140   3.226  0.4538  0.3643 -0.2481
  533MOL0     C70243   7.029   5.032   3.164  0.2196 -0.6073 -1.6431
  533MOL0     C70244   7.069   4.958   3.043  0.9509  0.3336 -0.0991
  533MOL0     C70245   7.032   5.021   2.906 -0.3524 -0.1935  0.1604
  533MOL0     C70246   7.061   4.928   2.778  0.0998 -0.1272 -0.6980
  533MOL0     C70247   6.988   4.998   2.657 -0.7191  0.2100  0.4048
  533MOL0     O70248   7.090   5.072   2.586 -0.3847  0.0326  0.1797
  533MOL0     C70249   7.059   5.107   2.456 -0.5697  1.4632  0.2286
  533MOL0     C70250   6.934   5.095   2.398 -0.2653  0.7886 -0.4827
  533MOL0     C70251   6.909   5.128   2.264  0.5661 -0.4356  0.8612
  533MOL0     C70252   7.009   5.176   2.181  0.3965 -0.2949 -0.1369
  533MOL0     C70253   6.979   5.199   2.042 -0.7521  1.1512  0.2949
  533MOL0     O70254   6.855   5.206   1.997 -0.7061  0.3282  0.0289
  533MOL0     C70255   6.834   5.245   1.871 -0.1419  0.4889  0.5813
  533MOL0     C70256   6.731   5.177   1.804 -0.3932  0.5272 -0.2169
  533MOL0     C70257   6.675   5.225   1.684 -0.6330  1.2644 -0.0527
  533MOL0     C70258   6.734   5.341   1.619  0.3263  0.7065 -0.0155
  533MOL0     O70259   6.694   5.389   1.496  0.2099  0.5534  0.0425
  533MOL0     C70260   6.578   5.337   1.430 -0.5455  0.1220 -1.3110
  533MOL0     C70261   6.518   5.446   1.342 -0.1087 -0.3435 -0.1466
  533MOL0     C70262   6.373   5.396   1.309 -0.1933 -0.7042  0.4860
  533MOL0     C70263   6.327   5.475   1.182 -0.3782 -0.4358 -0.3268
  533MOL0     C70264   6.196   5.431   1.132 -0.0091 -0.1143  0.6992
  533MOL0     C70265   6.086   5.425   1.236 -0.0868  1.3202  0.7420
  533MOL0     C70266   5.952   5.416   1.156 -0.7850 -0.3366  0.0107
  533MOL0     C70267   5.871   5.308   1.205  0.2486 -0.7714  1.0553
  533MOL0    Cl70268   5.737   5.295   1.079 -0.2234 -0.3627  0.6656
  533MOL0     C70269   6.846   5.404   1.674 -0.0841 -0.2272 -0.2827
  533MOL0     C70270   6.881   5.365   1.800 -0.2717  1.2526 -0.4815
  533MOL0     O70271   7.082   5.223   1.972 -0.7926 -0.7144 -0.2479
  533MOL0     C70272   7.142   5.189   2.244  0.1337 -0.3452  0.2076
  533MOL0     C70273   7.161   5.157   2.378 -0.6564 -0.6804 -0.1601
  533MOL0     N70274   6.936   4.987   3.261 -0.7987  0.3391 -0.2637
  533MOL0     N70275   6.943   5.062   3.364  0.3127 -0.4018 -0.4452
  533MOL0     C70276   7.096   6.207   3.987  0.4957 -0.1466 -0.7100
  533MOL0     C70277   7.199   6.303   3.974 -0.4665 -0.1522  0.0780
  533MOL0     C70278   7.603   6.499   3.842 -0.2970  0.4722  0.0738
  533MOL0     C70279   7.516   6.599   3.806 -0.3165  0.8908  1.3155
  533MOL0     C70280   7.561   6.714   3.754  0.2950 -0.0506 -0.1395
  533MOL0     C70281   7.701   6.748   3.765  0.5565 -0.5041 -0.6332
  533MOL0     O70282   7.752   6.879   3.743  0.1740 -0.5513 -0.8406
  533MOL0     C70283   7.674   6.998   3.724  0.2642  0.4053 -0.7648
  533MOL0     C70284   7.768   7.127   3.750 -0.0372  0.2620 -1.3504
  533MOL0     C70285   7.688   7.252   3.719  0.4403 -0.4316 -0.3750
  533MOL0     C70286   7.696   7.307   3.580  0.9096 -0.0240  0.0548
  533MOL0     C70287   7.619   7.430   3.569  0.4439 -0.2882  0.4274
  533MOL0     C70288   7.572   7.546   3.562  0.2247 -0.1568 -0.3841
  533MOL0     C70289   7.789   6.645   3.791  0.4437 -0.5026  0.2756
  533MOL0     C70290   7.746   6.518   3.818  0.3906 -0.2595  0.1947
  533MOL0     H70291   7.431   6.079   3.874 -0.7024 -1.4114  1.6058
  533MOL0     H70292   7.278   5.937   3.887  0.0645  0.5967  1.8656
  533MOL0     H70293   6.956   5.770   3.987  2.5951 -1.3831  0.7199
  533MOL0     H70294   7.107   5.797   3.930 -1.1172 -0.9452 -5.9664
  533MOL0     H70295   7.028   5.902   3.722 -0.1821  0.5640  0.5129
  533MOL0     H70296   6.862   5.890   3.798  0.1672 -0.1133  0.5614
  533MOL0     H70297   6.899   5.712   3.626 -4.2328  1.6969  1.2506
  533MOL0     H70298   6.823   5.684   3.775 -0.6797  2.2344 -0.4661
  533MOL0     H70299   7.123   5.641   3.734  1.0513 -1.6928  1.1349
  533MOL0     H70300   7.033   5.559   3.862 -0.3697 -1.9715 -0.5163
  533MOL0     H70301   6.910   5.443   3.663  1.5652 -2.5331  1.8855
  533MOL0     H70302   7.069   5.398   3.706 -1.1338 -0.4410  0.8432
  533MOL0     H70303   7.156   5.517   3.518  0.1992  1.5829  3.9405
  533MOL0     H70304   7.010   5.603   3.476  3.0675  1.4991  2.6689
  533MOL0     H70305   6.913   5.381   3.391 -0.0087  0.3807 -0.1639
  533MOL0     H70306   7.077   5.434   3.327  0.4541  0.4793 -0.3545
  533MOL0     H70307   7.030   5.227   3.551 -2.2638  2.1972 -0.7629
  533MOL0     H70308   7.185   5.256   3.477 -0.0683  0.8769  2.9491
  533MOL0     H70309   7.174   5.193   3.179 -1.3876  0.2847 -3.9514
  533MOL0     H70310   7.015   4.863   3.047 -1.1073  1.4920  1.4119
  533MOL0     H70311   7.174   4.930   3.054  0.6648 -0.6812  0.1777
  533MOL0     H70312   7.090   5.113   2.894  2.0369 -1.6896 -0.4405
  533MOL0     H70313   6.923   5.028   2.910 -0.3862 -1.1461  2.2952
  533MOL0     H70314   7.167   4.908   2.765 -0.4990 -3.1944 -1.6027
  533MOL0     H70315   7.026   4.825   2.782  0.4897 -0.2741 -1.0028
  533MOL0     H70316   6.897   5.053   2.686  1.1999  3.2037  1.2561
  533MOL0     H70317   6.943   4.924   2.591 -1.6657  2.3054 -1.4720
  533MOL0     H70318   6.851   5.055   2.456 -0.3824 -0.8342 -1.6937
  533MOL0     H70319   6.810   5.123   2.218  1.0662 -1.8684 -0.1422
  533MOL0     H70320   6.669   5.098   1.847 -0.4343  1.1240  0.8473
  533MOL0     H70321   6.592   5.173   1.637 -2.4300  3.1982  0.7996
  533MOL0     H70322   6.495   5.322   1.500  0.8649 -0.3281  0.3422
  533MOL0     H70323   6.611   5.250   1.372 -0.0494 -2.5718  2.6125
  533MOL0     H70324   6.583   5.456   1.255  1.6405 -0.2309  1.1071
  533MOL0     H70325   6.510   5.548   1.381  1.1186 -0.2484 -0.1215
  533MOL0     H70326   6.313   5.413   1.398  0.4936 -2.5999  1.3565
  533MOL0     H70327   6.368   5.289   1.288 -1.7171 -0.4975 -0.3550
  533MOL0     H70328   6.321   5.582   1.205 -0.3766 -0.8020  1.5474
  533MOL0     H70329   6.394   5.466   1.096 -1.1172  0.0414 -0.9655
  533MOL0     H70330   6.208   5.332   1.088 -0.0388 -0.7942  2.1879
  533MOL0     H70331   6.173   5.493   1.044 -1.6369 -1.0675  0.4082
  533MOL0     H70332   6.094   5.515   1.298  0.9744  0.1760  2.3656
  533MOL0     H70333   6.099   5.336   1.299  0.5432 -0.0567 -1.2566
  533MOL0     H70334   5.900   5.513   1.163  2.1141  1.5568 -2.1964
  533MOL0     H70335   5.965   5.408   1.048  1.6710  0.6772  0.1650
  533MOL0     H70336   5.822   5.329   1.301 -1.7614  0.8661 -0.2459
  533MOL0     H70337   5.924   5.213   1.217 -1.3556 -1.9114 -0.2964
  533MOL0     H70338   6.884   5.494   1.625 -0.0887 -0.6687 -1.1118
  533MOL0     H70339   6.946   5.437   1.848  0.4027  2.1095 -2.5365
  533MOL0     H70340   7.229   5.216   2.186 -0.7427 -2.1921 -2.1540
  533MOL0     H70341   7.265   5.152   2.407 -0.7290  0.2517  0.2787
  533MOL0     H70342   7.001   6.252   4.016  1.8650  0.9869  2.5269
  533MOL0     H70343   7.174   6.408   3.987  0.3582 -0.0808  1.2509
  533MOL0     H70344   7.407   6.602   3.803 -0.3787 -0.4809  1.6348
  533MOL0     H70345   7.484   6.783   3.721 -0.9073 -0.2347  2.1147
  533MOL0     H70346   7.590   6.993   3.794  1.4963 -0.4257  0.7241
  533MOL0     H70347   7.637   7.015   3.623 -1.6357  1.3662  0.0497
  533MOL0     H70348   7.788   7.119   3.857  0.9119 -1.7306 -1.6171
  533MOL0     H70349   7.862   7.128   3.694 -2.0468 -0.1001 -5.0969
  533MOL0     H70350   7.729   7.328   3.787 -2.4304  2.2798 -1.4643
  533MOL0     H70351   7.583   7.249   3.750  0.4505  1.4933 -0.0718
  533MOL0     H70352   7.796   7.329   3.542 -0.3063  2.0928 -2.1844
  533MOL0     H70353   7.648   7.240   3.509 -1.7526  0.5579  1.1569
  533MOL0     H70354   7.540   7.648   3.565 -2.2277 -0.8775  1.9235
  533MOL0     H70355   7.892   6.676   3.785 -0.0120  0.9527 -0.4313
  533MOL0     H70356   7.807   6.431   3.839  0.5261  0.4928  3.3529
  534MOL0     O70357   1.304   7.989  10.945  0.1171 -0.1183  0.4197
  534MOL0     C70358   1.426   8.030  10.933  0.4960  0.3921 -0.6325
  534MOL0     O70359   1.478   8.153  10.924  0.1124  0.1162 -0.3371
  534MOL0     C70360   1.404   8.265  10.948  0.1318  0.7017  0.0055
  534MOL0     C70361   1.474   8.382  10.925  0.4331  0.9707 -0.0704
  534MOL0     C70362   1.429   8.502  10.973 -0.2450  0.4000 -0.3544
  534MOL0     C70363   1.313   8.511  11.056 -0.6190 -0.6170  0.4123
  534MOL0     O70364   1.306   8.630  11.128  0.1002 -0.6724  0.0920
  534MOL0     C70365   1.183   8.665  11.191 -1.2370  0.0770  0.0468
  534MOL0     C70366   1.137   8.806  11.150  0.8908  0.4059  0.2552
  534MOL0     C70367   1.007   8.825  11.225  0.2004  0.1065  0.3392
  534MOL0     C70368   0.945   8.965  11.214  0.0816  0.4389 -0.3596
  534MOL0     C70369   0.796   8.961  11.260 -0.6842 -0.9547 -0.6202
  534MOL0     C70370   0.797   8.924  11.406  0.3105  1.0057  0.6035
  534MOL0     C70371   0.656   8.919  11.462  0.6215 -0.7394 -0.1370
  534MOL0     C70372   0.623   8.790  11.533 -0.1485  0.4046  1.1281
  534MOL0     N70373   0.485   8.784  11.586 -0.0907  0.1068  0.2004
  534MOL0     C70374   0.441   8.886  11.671  0.5893 -0.1196  0.5536
  534MOL0     C70375   0.299   8.876  11.655  0.1473  0.1058  0.3580
  534MOL0     C70376   0.183   8.939  11.729  0.1154 -0.6140  0.0034
  534MOL0     C70377   0.054   8.921  11.639 -0.4546  0.4494  0.8326
  534MOL0     C70378  -0.064   8.988  11.710 -0.2030 -0.9274 -0.1628
  534MOL0     C70379  -0.067   9.150  11.697  0.1474 -0.6080 -0.6911
  534MOL0     O70380  -0.006   9.208  11.578 -0.6168  0.4537 -0.1576
  534MOL0     C70381  -0.084   9.232  11.475 -0.0324  0.0420  0.5455
  534MOL0     C70382  -0.217   9.187  11.440  0.4327 -0.0821 -0.2728
  534MOL0     C70383  -0.278   9.207  11.317 -0.3897  1.1319 -0.5984
  534MOL0     C70384  -0.207   9.265  11.215  0.2212  0.4457 -0.2873
  534MOL0     C70385  -0.264   9.284  11.082 -0.1643 -0.4426 -0.1785
  534MOL0     O70386  -0.172   9.333  10.998  0.0757 -0.5183  0.4610
  534MOL0     C70387  -0.187   9.330  10.867 -0.1334 -0.2761  1.0957
  534MOL0     C70388  -0.309   9.377  10.818 -0.1005 -0.1516 -0.1942
  534MOL0     C70389  -0.322   9.401  10.674 -0.4056 -0.3756 -0.2078
  534MOL0     C70390  -0.222   9.365  10.588  0.5522  0.4942 -0.1294
  534MOL0     O70391  -0.236   9.416  10.459 -0.0913  0.0749  0.2761
  534MOL0     C70392  -0.159   9.343  10.357  0.1727 -0.2472 -0.6502
  534MOL0     C70393  -0.194   9.391  10.215 -0.1257  0.2566  0.8406
  534MOL0     C70394  -0.341   9.376  10.196 -0.1433  0.1522 -1.2777
  534MOL0     C70395  -0.380   9.420  10.055 -0.3987 -0.6731 -0.6664
  534MOL0     C70396  -0.525   9.373  10.025 -0.9557 -0.4402  0.8718
  534MOL0     C70397  -0.566   9.417   9.887  0.3279  0.5438  0.5589
  534MOL0     C70398  -0.525   9.564   9.847  0.7700 -0.0297 -1.1656
  534MOL0     C70399  -0.408   9.578   9.751  0.2162 -0.6482  1.1535
  534MOL0    Cl70400  -0.404   9.736   9.690 -0.1992 -0.1794 -0.4013
  534MOL0     C70401  -0.104   9.317  10.638 -0.1847  0.1496 -0.0678
  534MOL0     C70402  -0.082   9.311  10.782  1.1750 -0.9201  0.7168
  534MOL0     O70403  -0.370   9.232  11.053 -0.3046 -0.2747  0.0790
  534MOL0     C70404  -0.076   9.306  11.241 -0.3706 -0.0898 -0.0853
  534MOL0     C70405  -0.021   9.292  11.363 -0.1656  0.1241 -0.7916
  534MOL0     N70406   0.269   8.774  11.569 -0.0650 -0.0481 -1.4981
  534MOL0     N70407   0.384   8.718  11.530  0.0224  0.0429 -0.1556
  534MOL0     C70408   1.240   8.392  11.075  0.1265 -0.2432  0.4018
  534MOL0     C70409   1.284   8.270  11.025  0.9357 -0.2698  0.2353
  534MOL0     C70410   1.516   7.911  10.901  0.4947 -0.1761 -0.1135
  534MOL0     C70411   1.634   7.934  10.830  0.2772  0.5102  0.8539
  534MOL0     C70412   1.707   7.824  10.780 -0.0621  0.4805 -0.2806
  534MOL0     C70413   1.669   7.691  10.785  0.7709  0.1076  0.0738
  534MOL0     O70414   1.751   7.596  10.735  0.4077  0.8054  0.6197
  534MOL0     C70415   1.699   7.461  10.714  0.0229  0.4478 -0.0945
  534MOL0     C70416   1.787   7.369  10.632  0.7878  0.1879 -0.0708
  534MOL0     C70417   1.926   7.360  10.665 -0.0995  0.5947 -0.1998
  534MOL0     C70418   2.025   7.440  10.573  0.6680  0.1458 -0.0871
  534MOL0     C70419   2.020   7.376  10.444  0.5825  0.5113  0.0020
  534MOL0     C70420   1.997   7.339  10.333  0.8524  0.4228 -0.1248
  534MOL0     C70421   1.556   7.668  10.856  0.9128 -0.2367 -0.3145
  534MOL0     C70422   1.477   7.773  10.918 -0.0648  0.7399 -0.2365
  534MOL0     H70423   1.574   8.389  10.882  1.7116 -2.8043  1.8596
  534MOL0     H70424   1.488   8.592  10.959 -1.3064  0.8701 -2.1918
  534MOL0     H70425   1.196   8.656  11.299 -0.0933 -0.3138 -0.1113
  534MOL0     H70426   1.109   8.593  11.156 -0.9928  0.6544 -1.7658
  534MOL0     H70427   1.120   8.808  11.042  1.5844  0.7719  0.1472
  534MOL0     H70428   1.210   8.884  11.174  1.2097  0.7955 -1.8036
  534MOL0     H70429   1.023   8.799  11.330 -2.4403 -0.5584  0.6639
  534MOL0     H70430   0.938   8.746  11.192  1.1724 -0.0534 -1.4185
  534MOL0     H70431   1.007   9.032  11.274  0.5642 -0.5993  0.3297
  534MOL0     H70432   0.952   9.002  11.111  3.7911  3.6277  0.7783
  534MOL0     H70433   0.731   8.902  11.195 -1.7238  0.6673 -1.1148
  534MOL0     H70434   0.748   9.059  11.259 -0.9667 -1.0298  1.2728
  534MOL0     H70435   0.849   9.004  11.459 -0.2778  1.3078  0.7455
  534MOL0     H70436   0.848   8.831  11.433  0.5999  0.2396 -2.2546
  534MOL0     H70437   0.644   8.998  11.537 -1.4849 -1.7278  0.6492
  534MOL0     H70438   0.573   8.934  11.392  1.7408  2.2905 -0.9921
  534MOL0     H70439   0.691   8.779  11.618  0.5574  2.2908  0.8438
  534MOL0     H70440   0.644   8.710  11.460  1.2104  2.6192 -1.0672
  534MOL0     H70441   0.490   8.942  11.750 -1.4756 -1.1427  2.6941
  534MOL0     H70442   0.204   9.046  11.744 -2.0963 -0.0420 -0.5491
  534MOL0     H70443   0.156   8.882  11.819 -2.8575  1.7803  0.7993
  534MOL0     H70444   0.018   8.821  11.613 -1.8585  0.9238  0.8189
  534MOL0     H70445   0.082   8.969  11.544  0.6814 -1.4709  0.1423
  534MOL0     H70446  -0.145   8.954  11.645  0.1144 -0.4206 -0.8506
  534MOL0     H70447  -0.073   8.959  11.814  3.9958 -0.7867  0.4164
  534MOL0     H70448  -0.013   9.186  11.786 -1.7867 -0.6568  0.5767
  534MOL0     H70449  -0.172   9.176  11.717 -0.0078 -1.1155 -0.8338
  534MOL0     H70450  -0.283   9.143  11.513  2.2329  0.9115  2.1059
  534MOL0     H70451  -0.380   9.178  11.295 -0.7180  0.7969  1.1836
  534MOL0     H70452  -0.384   9.412  10.888  0.3030  0.6621 -0.1597
  534MOL0     H70453  -0.418   9.433  10.636  0.4787  2.0870 -0.5341
  534MOL0     H70454  -0.165   9.235  10.372  1.9390 -0.1908  0.6261
  534MOL0     H70455  -0.054   9.361  10.380  0.2700 -2.7553  1.2326
  534MOL0     H70456  -0.136   9.331  10.144  1.2166  2.3914  0.0325
  534MOL0     H70457  -0.166   9.496  10.216  0.2179  0.1983 -0.4906
  534MOL0     H70458  -0.390   9.444  10.267  0.0638  0.5309 -1.4916
  534MOL0     H70459  -0.376   9.274  10.215  1.9777 -0.7259 -1.8400
  534MOL0     H70460  -0.376   9.529  10.051 -3.4317 -0.2282  2.6909
  534MOL0     H70461  -0.305   9.378   9.988  0.5677 -1.8294  1.0459
  534MOL0     H70462  -0.589   9.422  10.098 -0.1240  1.1128  0.6010
  534MOL0     H70463  -0.530   9.263  10.022  0.9425 -0.5481 -0.0483
  534MOL0     H70464  -0.674   9.411   9.870  0.7497 -0.5168 -2.2854
  534MOL0     H70465  -0.532   9.344   9.813 -1.8090 -0.2144  0.2698
  534MOL0     H70466  -0.608   9.604   9.788  1.8330  1.8577 -1.4676
  534MOL0     H70467  -0.504   9.632   9.931 -0.0301 -1.8221  0.5733
  534MOL0     H70468  -0.406   9.501   9.673 -0.5462 -0.0381  0.5213
  534MOL0     H70469  -0.323   9.558   9.818  0.0150  1.2269  2.0434
  534MOL0     H70470  -0.017   9.289  10.580  0.7229  0.6971  0.9904
  534MOL0     H70471   0.013   9.280  10.824  1.4855  0.1424  0.8377
  534MOL0     H70472  -0.011   9.364  11.176  1.8038 -1.6437  0.5890
  534MOL0     H70473   0.071   9.346  11.385 -1.9939  3.4585 -0.7928
  534MOL0     H70474   1.143   8.386  11.123  0.1383 -1.1802  0.3203
  534MOL0     H70475   1.218   8.188  11.053 -0.7629  2.1501  4.1644
  534MOL0     H70476   1.671   8.035  10.815 -0.1389  0.5372 -0.0377
  534MOL0     H70477   1.804   7.851  10.740  0.5254  0.0168  0.7693
  534MOL0     H70478   1.597   7.469  10.676 -0.2634  0.8035  0.7000
  534MOL0     H70479   1.697   7.411  10.812 -0.2556  1.8041  0.6264
  534MOL0     H70480   1.739   7.271  10.626 -0.7441  0.8276  1.0203
  534MOL0     H70481   1.785   7.410  10.530 -1.7991 -3.0940 -1.5159
  534MOL0     H70482   1.967   7.259  10.669 -0.3361  0.5400  1.4792
  534MOL0     H70483   1.931   7.399  10.767 -0.9512 -3.9967  1.8136
  534MOL0     H70484   1.995   7.546  10.571  2.3521  0.6500 -1.5783
  534MOL0     H70485   2.124   7.439  10.620  1.0820  6.1228 -0.0191
  534MOL0     H70486   1.983   7.307  10.232 -0.4908  1.4654 -0.2999
  534MOL0     H70487   1.524   7.565  10.873 -1.1137  0.4810  0.5441
  534MOL0     H70488   1.385   7.740  10.966 -0.5634  0.2442 -1.4933
  535MOL0     O70489   9.045   7.174   6.110  0.6355  0.5937 -0.5015
  535MOL0     C70490   8.956   7.220   6.035 -0.1436 -0.7692  0.5028
  535MOL0     O70491   8.981   7.310   5.929 -0.4638  0.1340 -0.3067
  535MOL0     C70492   9.115   7.337   5.903  0.2003 -0.0191  0.5123
  535MOL0     C70493   9.167   7.471   5.929  1.2287 -0.7394  0.2093
  535MOL0     C70494   9.303   7.494   5.915  0.4238  0.0806  1.5477
  535MOL0     C70495   9.394   7.405   5.861  0.8291  0.5043  0.5141
  535MOL0     O70496   9.524   7.452   5.828  0.3836  0.8563  0.0427
  535MOL0     C70497   9.627   7.408   5.922 -0.3203  0.0663  1.0789
  535MOL0     C70498   9.645   7.252   5.932 -0.1257 -0.0006  0.7907
  535MOL0     C70499   9.695   7.181   5.813  0.6189 -0.2617  0.3193
  535MOL0     C70500   9.702   7.033   5.828 -0.1387  0.7128  0.7360
  535MOL0     C70501   9.775   6.973   5.703 -0.4921  0.7306  0.2114
  535MOL0     C70502   9.839   6.834   5.715 -0.2195  0.2777  0.1339
  535MOL0     C70503   9.764   6.729   5.795 -0.7089 -0.7355 -0.5205
  535MOL0     C70504   9.800   6.589   5.766 -0.7607 -0.1934 -0.5154
  535MOL0     N70505   9.809   6.560   5.623 -1.5146 -0.1461  0.5999
  535MOL0     C70506   9.712   6.592   5.522 -0.4722 -0.4092  0.3588
  535MOL0     C70507   9.772   6.570   5.407  0.1322 -0.4038 -0.2519
  535MOL0     C70508   9.704   6.598   5.277 -0.0966  0.0957  0.3601
  535MOL0     C70509   9.794   6.683   5.183 -0.7244 -0.5358  0.1805
  535MOL0     C70510   9.743   6.691   5.037 -0.2043  1.0507  0.0790
  535MOL0     C70511   9.846   6.735   4.939  0.2671 -0.7567  0.0778
  535MOL0     O70512   9.841   6.875   4.903  0.1628  0.5319 -0.2133
  535MOL0     C70513   9.900   6.920   4.786  1.2507 -0.3843  0.7510
  535MOL0     C70514   9.845   7.040   4.735 -0.2189 -0.1772 -0.5886
  535MOL0     C70515   9.889   7.083   4.613 -0.4868 -0.5178 -0.3792
  535MOL0     C70516   9.990   7.022   4.542 -0.3892 -0.3651  0.6912
  535MOL0     C70517  10.045   7.086   4.413  0.1146 -0.2397 -0.0890
  535MOL0     O70518  10.136   7.015   4.346 -0.0972 -0.5951 -0.3718
  535MOL0     C70519  10.203   7.057   4.240 -0.4060 -0.1529  0.0064
  535MOL0     C70520  10.351   7.055   4.229  0.0482  0.6386 -0.1365
  535MOL0     C70521  10.409   7.101   4.114  0.6230  0.6764  0.2314
  535MOL0     C70522  10.330   7.136   4.005 -0.7506  0.1364  0.7797
  535MOL0     O70523  10.405   7.168   3.888 -0.1983 -0.2845  0.3523
  535MOL0     C70524  10.345   7.203   3.759  0.1838  0.0184 -0.2651
  535MOL0     C70525  10.452   7.292   3.696  0.2381 -0.6965 -0.2959
  535MOL0     C70526  10.426   7.305   3.545 -0.3014 -0.1664  0.2252
  535MOL0     C70527  10.302   7.389   3.509 -0.6574 -0.3485 -0.2641
  535MOL0     C70528  10.271   7.384   3.355  0.3134  0.3142 -0.8242
  535MOL0     C70529  10.353   7.461   3.255 -0.1062  0.1096 -0.7240
  535MOL0     C70530  10.294   7.460   3.116 -0.6732  0.6230  0.6231
  535MOL0     C70531  10.341   7.338   3.049  0.4007 -0.4658 -0.5784
  535MOL0    Cl70532  10.289   7.354   2.878 -0.1006 -0.7084  0.2518
  535MOL0     C70533  10.189   7.114   4.010  0.5331 -0.1815  0.2697
  535MOL0     C70534  10.132   7.083   4.126  0.2696 -0.2893  0.1601
  535MOL0     O70535   9.995   7.195   4.375 -0.2875  0.1756  0.3990
  535MOL0     C70536  10.035   6.898   4.591 -0.5065  0.0481  0.1757
  535MOL0     C70537   9.988   6.849   4.710  0.8191  0.0917 -0.0983
  535MOL0     N70538   9.898   6.525   5.434  0.9089 -0.4520 -0.4997
  535MOL0     N70539   9.927   6.536   5.561  0.2364  1.3527 -0.5158
  535MOL0     C70540   9.337   7.276   5.826 -0.3840  0.2113 -0.9817
  535MOL0     C70541   9.203   7.238   5.853 -0.1762 -0.2264  0.3307
  535MOL0     C70542   8.813   7.157   6.041 -0.3860 -0.3328  0.2819
  535MOL0     C70543   8.776   7.079   6.147  0.1102  1.1838  0.0299
  535MOL0     C70544   8.649   7.019   6.144  0.4727 -0.2931  0.7871
  535MOL0     C70545   8.553   7.054   6.051  0.1539 -0.0845 -0.3163
  535MOL0     O70546   8.424   7.001   6.054 -0.0462 -0.3650 -0.6948
  535MOL0     C70547   8.321   7.092   6.016 -0.8564  0.8373 -0.8298
  535MOL0     C70548   8.176   7.026   6.044 -0.1067  0.1426 -0.3375
  535MOL0     C70549   8.087   7.156   6.064 -0.7323  0.2535 -0.5108
  535MOL0     C70550   7.941   7.127   6.107 -0.2031 -0.3172 -0.9147
  535MOL0     C70551   7.932   7.083   6.249 -0.1999  0.0638  0.4626
  535MOL0     C70552   7.925   7.054   6.363  0.3516  0.4608  0.0144
  535MOL0     C70553   8.587   7.159   5.967  0.5182 -0.1956 -0.4147
  535MOL0     C70554   8.714   7.210   5.954  0.4557 -0.4418 -0.8279
  535MOL0     H70555   9.097   7.544   5.968 -3.2868 -3.1295 -2.6101
  535MOL0     H70556   9.339   7.595   5.931  0.5785  0.0031  1.7033
  535MOL0     H70557   9.599   7.433   6.025  0.0982 -2.9653  2.0217
  535MOL0     H70558   9.725   7.452   5.900 -0.0256  1.0030  3.9297
  535MOL0     H70559   9.552   7.207   5.968 -1.2462  0.6107 -1.1806
  535MOL0     H70560   9.719   7.238   6.011 -0.2782 -0.5109  0.8424
  535MOL0     H70561   9.799   7.212   5.797  0.8240  0.0709  2.0684
  535MOL0     H70562   9.646   7.209   5.719 -0.0700  1.1348  1.0608
  535MOL0     H70563   9.745   6.994   5.921 -2.9010 -0.0573  1.7719
  535MOL0     H70564   9.597   7.005   5.822 -0.1633  0.4469  2.1411
  535MOL0     H70565   9.852   7.040   5.665 -0.0776 -0.9763 -2.1836
  535MOL0     H70566   9.698   6.949   5.628 -0.8278  3.2669 -0.3400
  535MOL0     H70567   9.941   6.846   5.753 -0.4756 -3.2404  2.4370
  535MOL0     H70568   9.852   6.799   5.612  0.3704  0.1056  0.2644
  535MOL0     H70569   9.764   6.752   5.902  1.1096  0.4097 -0.7163
  535MOL0     H70570   9.659   6.739   5.767  0.2352  1.7119 -3.8559
  535MOL0     H70571   9.728   6.518   5.809  0.2083  0.4293  2.3522
  535MOL0     H70572   9.899   6.573   5.811 -1.0979  2.2094  1.2317
  535MOL0     H70573   9.619   6.647   5.536  1.2053  2.4969  0.7756
  535MOL0     H70574   9.625   6.670   5.300 -1.8805 -1.6239 -0.0941
  535MOL0     H70575   9.665   6.510   5.224 -0.2406  0.1854  0.3151
  535MOL0     H70576   9.889   6.628   5.189  1.8230  3.2006 -1.7163
  535MOL0     H70577   9.799   6.785   5.223 -0.1696 -1.2631  2.0397
  535MOL0     H70578   9.706   6.597   4.996  3.8615  0.2896 -2.3128
  535MOL0     H70579   9.661   6.764   5.030 -0.7243  0.8396  2.8343
  535MOL0     H70580   9.837   6.677   4.846 -1.9772  0.3096 -0.4309
  535MOL0     H70581   9.944   6.718   4.984 -0.3316  0.0971  1.7963
  535MOL0     H70582   9.771   7.093   4.794  0.7581  2.2458 -1.3710
  535MOL0     H70583   9.846   7.170   4.565 -1.6343 -1.6156 -1.4133
  535MOL0     H70584  10.409   7.018   4.313 -1.1366 -1.2495 -0.1041
  535MOL0     H70585  10.511   7.138   4.109  0.5894  0.5966 -2.3893
  535MOL0     H70586  10.255   7.264   3.774  0.3663  0.3547 -0.5114
  535MOL0     H70587  10.306   7.118   3.703 -0.6618 -1.3016  2.1783
  535MOL0     H70588  10.546   7.239   3.712  0.2339 -0.8458 -0.7585
  535MOL0     H70589  10.448   7.386   3.753 -3.5972  0.1271 -1.6060
  535MOL0     H70590  10.422   7.209   3.492 -1.0902  1.4299 -2.8791
  535MOL0     H70591  10.511   7.354   3.496 -1.2183 -1.5401 -3.0513
  535MOL0     H70592  10.219   7.350   3.569  0.5697 -2.2338  0.3132
  535MOL0     H70593  10.315   7.495   3.534 -0.5612 -1.0670  3.3681
  535MOL0     H70594  10.168   7.412   3.333  0.1445  0.4781  0.1123
  535MOL0     H70595  10.289   7.281   3.325  0.6077  0.3007 -0.6178
  535MOL0     H70596  10.454   7.419   3.260  0.6198  1.5716 -2.1223
  535MOL0     H70597  10.348   7.566   3.285  0.9967 -0.1465  0.4553
  535MOL0     H70598  10.186   7.475   3.115 -0.7047  1.1623  3.6013
  535MOL0     H70599  10.331   7.547   3.062 -1.7186  1.6275  1.4768
  535MOL0     H70600  10.300   7.252   3.103  0.1184  1.7403  3.1125
  535MOL0     H70601  10.449   7.325   3.060  0.2559 -1.4267 -0.1751
  535MOL0     H70602  10.132   7.120   3.918  3.8719 -0.2257 -1.9777
  535MOL0     H70603  10.024   7.079   4.129  0.2546  0.4655  0.7441
  535MOL0     H70604  10.110   6.839   4.540 -1.1822 -2.5814  2.0496
  535MOL0     H70605  10.037   6.759   4.746  2.0820  1.9688  3.4293
  535MOL0     H70606   9.394   7.198   5.776  2.3232  1.6535 -0.3107
  535MOL0     H70607   9.173   7.134   5.849  1.7581 -0.9412  2.2727
  535MOL0     H70608   8.841   7.050   6.229 -2.3844 -0.8119  1.4614
  535MOL0     H70609   8.613   6.943   6.212  1.8843 -1.3838  0.3565
  535MOL0     H70610   8.337   7.106   5.909  2.7908 -0.7553 -0.6667
  535MOL0     H70611   8.324   7.184   6.075 -1.9117 -0.6919  1.7913
  535MOL0     H70612   8.140   6.964   5.961 -3.8555 -1.9247  2.5145
  535MOL0     H70613   8.177   6.964   6.134 -0.7565  0.8290  0.1508
  535MOL0     H70614   8.085   7.218   5.974 -1.0523  1.4457  0.2879
  535MOL0     H70615   8.135   7.224   6.135  0.0931  0.2505 -1.0476
  535MOL0     H70616   7.888   7.222   6.092 -3.5002 -2.0334 -1.0900
  535MOL0     H70617   7.901   7.045   6.046 -2.4001  0.5423 -0.7203
  535MOL0     H70618   7.932   7.029   6.467  0.0712 -1.5375 -0.4110
  535MOL0     H70619   8.514   7.203   5.898 -1.2821  0.8501  2.0000
  535MOL0     H70620   8.733   7.296   5.890  2.6367  0.9812  1.5880
  536MOL0     O70621   6.423   8.718   2.354 -0.4752 -0.2457  1.5026
  536MOL0     C70622   6.366   8.615   2.383  1.0229  0.1526 -0.1430
  536MOL0     O70623   6.413   8.485   2.375 -0.1273 -0.1546  0.1486
  536MOL0     C70624   6.548   8.466   2.358  0.6413 -0.4728 -1.0152
  536MOL0     C70625   6.624   8.465   2.480  0.0229  0.3431 -0.2787
  536MOL0     C70626   6.761   8.440   2.488  0.2892  0.1003  0.3663
  536MOL0     C70627   6.818   8.410   2.366 -0.0288  0.0242 -0.3626
  536MOL0     O70628   6.959   8.419   2.373  0.3814  0.3587  0.4779
  536MOL0     C70629   7.041   8.391   2.249  0.1599  0.2831  0.3801
  536MOL0     C70630   7.186   8.398   2.277  0.9687 -0.3695  0.1371
  536MOL0     C70631   7.274   8.356   2.146 -0.5970 -0.0972 -0.6442
  536MOL0     C70632   7.278   8.209   2.127 -0.2934  1.2308 -0.1310
  536MOL0     C70633   7.323   8.173   1.991 -0.1078  0.2631  1.2797
  536MOL0     C70634   7.278   8.034   1.955  0.5430  0.3804  0.0653
  536MOL0     C70635   7.327   7.979   1.808  0.2719 -0.5496  0.6044
  536MOL0     C70636   7.259   8.038   1.681 -1.1668 -0.6754 -0.0220
  536MOL0     N70637   7.236   8.187   1.685 -0.1171  0.6481  0.1898
  536MOL0     C70638   7.347   8.273   1.665  0.1401 -0.5049  0.1598
  536MOL0     C70639   7.283   8.390   1.687 -0.7713 -0.9744  0.0100
  536MOL0     C70640   7.348   8.534   1.694  0.3330 -0.4290 -0.1993
  536MOL0     C70641   7.260   8.651   1.649  1.1415  0.8583 -0.3324
  536MOL0     C70642   7.241   8.685   1.505  0.4185  0.7530  0.1192
  536MOL0     C70643   7.121   8.619   1.442 -0.2619 -0.0875  1.2311
  536MOL0     O70644   7.128   8.660   1.298  1.0456  0.7088 -0.0834
  536MOL0     C70645   7.060   8.582   1.203 -0.2617 -0.7672 -0.3513
  536MOL0     C70646   7.124   8.564   1.085 -0.7135 -0.0175 -0.0497
  536MOL0     C70647   7.079   8.485   0.984 -0.4882 -0.1562  0.2298
  536MOL0     C70648   6.963   8.406   1.003  0.9195  0.0695  0.3153
  536MOL0     C70649   6.919   8.326   0.888  0.5239 -0.0847 -0.8288
  536MOL0     O70650   6.787   8.294   0.885  0.6524 -0.4898  0.2836
  536MOL0     C70651   6.738   8.207   0.790  0.4591  0.6365 -0.4778
  536MOL0     C70652   6.798   8.085   0.743  0.0915 -0.1980  0.0834
  536MOL0     C70653   6.736   8.001   0.649 -0.5536 -0.6956 -1.5223
  536MOL0     C70654   6.609   8.028   0.604 -0.1503 -0.8005  0.0186
  536MOL0     O70655   6.551   7.957   0.514  0.8632  1.2831  1.1702
  536MOL0     C70656   6.629   7.927   0.401  0.2563 -0.7882 -0.4165
  536MOL0     C70657   6.542   7.896   0.277 -0.1084  0.2112  0.6756
  536MOL0     C70658   6.414   7.824   0.307 -0.5839 -0.7719 -0.2274
  536MOL0     C70659   6.346   7.774   0.184  0.2483 -0.1113  0.0332
  536MOL0     C70660   6.270   7.642   0.212 -0.1110  0.0877  0.7943
  536MOL0     C70661   6.170   7.599   0.100 -1.0954 -0.0581  0.4722
  536MOL0     C70662   6.076   7.484   0.150  0.0378  0.1704 -0.1496
  536MOL0     C70663   5.975   7.437   0.042  0.3280  0.0340  0.3104
  536MOL0    Cl70664   5.817   7.484   0.122 -0.2058  0.1089  0.3356
  536MOL0     C70665   6.543   8.149   0.647  0.8980  0.4213  0.0674
  536MOL0     C70666   6.608   8.237   0.733 -1.4301 -0.0484 -0.3386
  536MOL0     O70667   6.995   8.303   0.795  0.0337  0.3319  0.0739
  536MOL0     C70668   6.898   8.402   1.132  0.2949  0.3818 -0.2342
  536MOL0     C70669   6.948   8.494   1.234  0.5840  0.0771 -0.6626
  536MOL0     N70670   7.148   8.373   1.715 -1.1307  0.0372  0.0039
  536MOL0     N70671   7.120   8.250   1.712  0.7061 -1.0105 -0.3762
  536MOL0     C70672   6.740   8.395   2.252  0.4280  1.2639  0.3409
  536MOL0     C70673   6.605   8.415   2.245 -0.3681 -0.0012 -0.6002
  536MOL0     C70674   6.220   8.628   2.423  0.7133 -0.9109  0.3622
  536MOL0     C70675   6.148   8.519   2.479 -0.1605 -0.3899 -0.0091
  536MOL0     C70676   6.010   8.532   2.503  0.4177  0.6127  0.2018
  536MOL0     C70677   5.943   8.653   2.477  0.0908  0.4783  0.2446
  536MOL0     O70678   5.811   8.654   2.496  0.4425 -0.1749 -0.0289
  536MOL0     C70679   5.719   8.762   2.467  0.0188  0.5318 -0.2415
  536MOL0     C70680   5.677   8.868   2.577  0.5165 -0.1204  0.6684
  536MOL0     C70681   5.608   8.997   2.516  1.5244  0.2551 -0.1499
  536MOL0     C70682   5.459   8.966   2.484 -0.0106  0.4773  0.1645
  536MOL0     C70683   5.376   9.086   2.453 -0.8213 -0.4999 -0.0377
  536MOL0     C70684   5.317   9.192   2.427 -0.5997 -0.5153 -0.2093
  536MOL0     C70685   6.016   8.767   2.439 -0.4502  0.4255 -0.9116
  536MOL0     C70686   6.154   8.750   2.405  0.1632 -0.1864  0.0396
  536MOL0     H70687   6.568   8.482   2.572 -3.6996 -1.9910 -1.8467
  536MOL0     H70688   6.806   8.450   2.587  0.2544 -0.5650  0.4547
  536MOL0     H70689   7.012   8.474   2.183 -1.3087  0.7194  1.5203
  536MOL0     H70690   7.004   8.300   2.202 -0.0277 -1.2867  3.3602
  536MOL0     H70691   7.196   8.328   2.360 -2.3296 -1.1902 -0.0129
  536MOL0     H70692   7.210   8.503   2.297  0.4713 -0.1113 -0.5789
  536MOL0     H70693   7.374   8.395   2.168 -1.5360  0.4591  3.4373
  536MOL0     H70694   7.247   8.403   2.051 -0.2768  3.0811  0.7188
  536MOL0     H70695   7.338   8.161   2.205  1.7393  2.5812 -0.7911
  536MOL0     H70696   7.177   8.172   2.143  0.1078 -0.8444 -1.8474
  536MOL0     H70697   7.432   8.163   1.983 -0.4083 -3.0391 -4.4607
  536MOL0     H70698   7.292   8.250   1.920  2.3139  0.5260  0.4018
  536MOL0     H70699   7.170   8.032   1.971  0.4882  1.0172 -0.2141
  536MOL0     H70700   7.315   7.968   2.034 -0.2402  0.8596  0.8387
  536MOL0     H70701   7.435   7.996   1.808  0.8299 -3.5366  0.7404
  536MOL0     H70702   7.310   7.871   1.803  0.3603 -0.6947  2.4699
  536MOL0     H70703   7.170   7.979   1.658 -1.1072 -0.1655 -1.7054
  536MOL0     H70704   7.322   8.014   1.595 -0.7969 -0.0106  0.0490
  536MOL0     H70705   7.453   8.251   1.660  0.3001  0.0372  0.9962
  536MOL0     H70706   7.436   8.543   1.630  0.0095 -0.6186 -0.6727
  536MOL0     H70707   7.379   8.551   1.798  2.2983  0.3198 -0.8727
  536MOL0     H70708   7.293   8.743   1.698  3.0452 -0.7634  1.6487
  536MOL0     H70709   7.160   8.637   1.692  2.1700 -1.3160  1.5961
  536MOL0     H70710   7.222   8.792   1.489 -2.2958  0.1491 -1.5479
  536MOL0     H70711   7.331   8.652   1.452 -1.4479 -0.8905 -2.2565
  536MOL0     H70712   7.032   8.639   1.501  0.8867  1.8385  2.4477
  536MOL0     H70713   7.133   8.511   1.441  1.5687  0.0215 -1.5422
  536MOL0     H70714   7.203   8.631   1.056 -1.0485  0.5633  0.3544
  536MOL0     H70715   7.121   8.477   0.884 -1.4512 -1.7637 -0.0773
  536MOL0     H70716   6.898   8.067   0.782 -0.0666  1.4529  1.3659
  536MOL0     H70717   6.799   7.914   0.633  1.5374  0.5402 -0.4786
  536MOL0     H70718   6.679   7.833   0.424 -2.4198 -2.7381 -2.0023
  536MOL0     H70719   6.703   8.006   0.383  0.3907 -0.9774 -0.7162
  536MOL0     H70720   6.598   7.821   0.219  2.2703 -0.6249  3.7663
  536MOL0     H70721   6.531   7.983   0.211  1.4567  0.7412  1.0707
  536MOL0     H70722   6.352   7.888   0.370  2.6475  2.9351 -0.3986
  536MOL0     H70723   6.450   7.742   0.370 -2.4784 -1.6884 -0.2974
  536MOL0     H70724   6.282   7.850   0.139  0.1181 -0.5673 -0.5666
  536MOL0     H70725   6.432   7.753   0.120 -1.2733 -0.9493 -1.8176
  536MOL0     H70726   6.214   7.665   0.303 -0.3885  3.3465 -0.0587
  536MOL0     H70727   6.345   7.566   0.235 -0.2389 -0.5340 -0.7190
  536MOL0     H70728   6.221   7.555   0.014 -0.0773  0.2919  0.8832
  536MOL0     H70729   6.102   7.682   0.078  0.2549  1.2391  0.9813
  536MOL0     H70730   6.123   7.396   0.196 -4.1852 -1.9404  0.6413
  536MOL0     H70731   6.015   7.529   0.228 -1.7268  0.5918 -1.6924
  536MOL0     H70732   5.977   7.331   0.018  3.5764 -0.2646  1.3748
  536MOL0     H70733   5.983   7.489  -0.054  0.5344 -4.2822 -2.2388
  536MOL0     H70734   6.446   8.177   0.607  1.6336  1.9687 -0.7038
  536MOL0     H70735   6.564   8.327   0.774 -0.7901 -1.1269  3.0730
  536MOL0     H70736   6.818   8.330   1.146  1.2440 -0.8009 -0.7666
  536MOL0     H70737   6.904   8.496   1.333 -0.6591  3.3458 -1.1834
  536MOL0     H70738   6.777   8.369   2.153 -1.3647  1.8577 -0.5257
  536MOL0     H70739   6.550   8.412   2.151 -1.5071  0.1233  0.0483
  536MOL0     H70740   6.206   8.428   2.487  1.8014  0.6888 -1.2411
  536MOL0     H70741   5.974   8.440   2.549  2.9964 -1.0337 -0.7826
  536MOL0     H70742   5.628   8.721   2.423  0.5546 -0.0354 -0.8411
  536MOL0     H70743   5.762   8.815   2.381 -0.0604 -2.0152 -1.9633
  536MOL0     H70744   5.628   8.812   2.657 -0.8502  0.7258  0.4525
  536MOL0     H70745   5.772   8.903   2.618  1.2414 -1.6470  0.3703
  536MOL0     H70746   5.654   9.029   2.422  2.1642 -2.2075 -0.7359
  536MOL0     H70747   5.611   9.070   2.598  3.4657 -0.1622  0.1912
  536MOL0     H70748   5.457   8.901   2.396  0.1711 -1.6552  1.6518
  536MOL0     H70749   5.417   8.914   2.570  0.2798  1.9313  1.2209
  536MOL0     H70750   5.262   9.282   2.407  0.9769  1.0979  2.2970
  536MOL0     H70751   5.977   8.867   2.423  0.9146  1.0877 -0.2471
  536MOL0     H70752   6.197   8.841   2.363  1.0882 -0.9080 -0.6366
  537MOL0     O70753   3.698   7.580   2.710  0.0820  0.3257  0.1662
  537MOL0     C70754   3.795   7.556   2.640  0.0249  0.1270  0.7106
  537MOL0     O70755   3.855   7.640   2.549 -0.6481 -0.0308  0.7608
  537MOL0     C70756   3.815   7.770   2.550 -0.5059 -0.2605 -0.5051
  537MOL0     C70757   3.848   7.845   2.663 -0.3532  0.3318 -0.1055
  537MOL0     C70758   3.799   7.978   2.677 -0.1318 -0.3912 -0.7190
  537MOL0     C70759   3.720   8.026   2.572 -0.1933 -0.5472  0.2443
  537MOL0     O70760   3.669   8.158   2.589  0.3191 -0.0098  0.4855
  537MOL0     C70761   3.756   8.262   2.533 -0.2512  0.6233  0.2260
  537MOL0     C70762   3.682   8.399   2.537 -0.2332  0.6488 -0.3348
  537MOL0     C70763   3.637   8.443   2.681 -0.5907  0.5671  0.6522
  537MOL0     C70764   3.552   8.573   2.680  0.9579 -0.1205  0.4544
  537MOL0     C70765   3.537   8.626   2.825 -0.2717  0.9637  0.5744
  537MOL0     C70766   3.447   8.748   2.839 -1.0637 -0.1738  0.6711
  537MOL0     C70767   3.420   8.791   2.990 -0.4905  0.4478 -0.0786
  537MOL0     C70768   3.326   8.907   3.011 -0.8547 -0.0046  0.6383
  537MOL0     N70769   3.189   8.892   2.979 -0.2208  0.6132 -0.5633
  537MOL0     C70770   3.093   8.816   3.045 -0.3161  1.1474 -0.5780
  537MOL0     C70771   2.979   8.845   2.974 -0.2766 -0.3340 -0.8967
  537MOL0     C70772   2.846   8.774   2.999 -0.2550  0.2132 -0.0939
  537MOL0     C70773   2.805   8.699   2.868  0.3712  0.2852  0.3946
  537MOL0     C70774   2.689   8.599   2.888  0.4517 -0.5083 -0.0929
  537MOL0     C70775   2.733   8.482   2.979 -0.2426  0.0663  0.0284
  537MOL0     O70776   2.643   8.368   2.996 -0.0134  0.1731 -0.0469
  537MOL0     C70777   2.699   8.244   3.030 -0.2135 -0.4840  0.5462
  537MOL0     C70778   2.665   8.116   2.976  0.1395  0.8797  1.0928
  537MOL0     C70779   2.728   8.001   3.013 -1.0563 -0.9011  0.0755
  537MOL0     C70780   2.835   8.009   3.112  0.2024  0.5989  0.3627
  537MOL0     C70781   2.907   7.892   3.152  0.2065 -0.6512 -0.1191
  537MOL0     O70782   2.983   7.899   3.268 -1.0297 -0.2107 -0.0828
  537MOL0     C70783   3.061   7.801   3.312 -0.6010 -0.2724 -0.0146
  537MOL0     C70784   3.009   7.665   3.323  0.0685  0.5719 -0.3108
  537MOL0     C70785   3.092   7.564   3.363 -0.0033  0.4650  0.0556
  537MOL0     C70786   3.226   7.588   3.402  0.5319  0.3916 -0.0979
  537MOL0     O70787   3.288   7.477   3.440 -0.4103 -0.3178  0.2373
  537MOL0     C70788   3.419   7.488   3.506 -0.7159 -0.3014  0.6285
  537MOL0     C70789   3.441   7.362   3.586  0.3952  0.5795 -0.1719
  537MOL0     C70790   3.574   7.381   3.648 -1.0540  0.6749  0.0656
  537MOL0     C70791   3.614   7.253   3.733  0.3007  0.1749  0.3293
  537MOL0     C70792   3.727   7.305   3.810 -0.6934  0.9094 -0.3276
  537MOL0     C70793   3.807   7.195   3.891 -0.4289 -1.1037 -0.5862
  537MOL0     C70794   3.762   7.198   4.040  0.2702  0.4612  0.8556
  537MOL0     C70795   3.616   7.168   4.067 -0.2402  0.2948  0.0247
  537MOL0    Cl70796   3.497   7.298   4.080  0.1114  0.1398  0.4112
  537MOL0     C70797   3.274   7.722   3.397 -1.0075 -0.0753  1.0968
  537MOL0     C70798   3.199   7.832   3.335  0.2749 -0.7797  0.0818
  537MOL0     O70799   2.907   7.796   3.076 -0.5941 -0.0710  0.7901
  537MOL0     C70800   2.869   8.131   3.176 -0.1179 -0.5498  0.8925
  537MOL0     C70801   2.798   8.246   3.129 -0.2113 -0.2253  0.1191
  537MOL0     N70802   3.006   8.945   2.884  1.2304  0.6287  0.4786
  537MOL0     N70803   3.132   8.955   2.873  0.1395 -0.2793 -0.7927
  537MOL0     C70804   3.683   7.947   2.463 -0.3501 -1.0209 -0.4085
  537MOL0     C70805   3.736   7.822   2.450  0.3235 -0.6558  0.2653
  537MOL0     C70806   3.853   7.417   2.647  0.3932 -0.3103  0.4824
  537MOL0     C70807   3.942   7.373   2.554 -0.3747 -0.2646 -0.3181
  537MOL0     C70808   4.003   7.242   2.558  1.5650  0.3755 -0.0050
  537MOL0     C70809   3.974   7.164   2.671 -0.2120 -0.0771 -0.6244
  537MOL0     O70810   4.033   7.044   2.692  0.2451 -0.2608  0.2358
  537MOL0     C70811   4.002   6.966   2.807  0.2106  0.6177  0.5039
  537MOL0     C70812   4.101   6.850   2.806 -0.5007  0.2527 -0.5743
  537MOL0     C70813   4.222   6.863   2.912 -0.4885  0.8804  1.5573
  537MOL0     C70814   4.320   6.752   2.882 -0.2575 -0.1609  0.2008
  537MOL0     C70815   4.267   6.620   2.892  0.3667  0.1705 -0.1074
  537MOL0     C70816   4.229   6.502   2.918  0.3792  0.5902  0.0670
  537MOL0     C70817   3.875   7.207   2.762 -0.5287 -0.4214 -0.3518
  537MOL0     C70818   3.821   7.334   2.745  1.1479  0.5900 -0.2020
  537MOL0     H70819   3.920   7.802   2.732  0.6138 -2.1552 -2.4888
  537MOL0     H70820   3.822   8.043   2.760 -2.5068 -1.8779  1.2414
  537MOL0     H70821   3.799   8.242   2.435  1.6011 -0.7828  1.2661
  537MOL0     H70822   3.840   8.263   2.603 -1.4363 -1.7066  1.7991
  537MOL0     H70823   3.590   8.387   2.479  0.6900 -2.2344 -1.3715
  537MOL0     H70824   3.752   8.473   2.495  2.6568 -1.3786  0.5814
  537MOL0     H70825   3.724   8.466   2.742  0.5104  1.5967 -1.2273
  537MOL0     H70826   3.579   8.375   2.745 -2.1488  0.1522 -1.0819
  537MOL0     H70827   3.609   8.646   2.622 -0.3354  2.3669  2.1395
  537MOL0     H70828   3.460   8.550   2.624 -0.3390  0.7263  2.1514
  537MOL0     H70829   3.638   8.654   2.856  1.1956 -1.0496 -1.9644
  537MOL0     H70830   3.498   8.546   2.889 -1.7251  0.6631 -0.6569
  537MOL0     H70831   3.350   8.715   2.801 -0.7027  1.7267 -2.2243
  537MOL0     H70832   3.480   8.830   2.774 -2.1441  0.4908  0.9285
  537MOL0     H70833   3.391   8.698   3.039  2.3203 -0.1592  0.6288
  537MOL0     H70834   3.507   8.818   3.051 -2.4216 -0.9790  3.6282
  537MOL0     H70835   3.362   8.996   2.958 -0.2095 -0.4953  0.2438
  537MOL0     H70836   3.319   8.936   3.116 -1.7868 -0.5373  0.7273
  537MOL0     H70837   3.106   8.738   3.119 -0.3206  0.7606 -0.9830
  537MOL0     H70838   2.757   8.831   3.027 -0.8974 -2.1483  3.2172
  537MOL0     H70839   2.859   8.701   3.079 -1.8065  0.5515  0.5003
  537MOL0     H70840   2.898   8.651   2.835  0.0159  1.8843 -3.3137
  537MOL0     H70841   2.785   8.775   2.793  1.6491  2.2565  1.9201
  537MOL0     H70842   2.610   8.666   2.924 -0.4451  0.8068 -4.0790
  537MOL0     H70843   2.655   8.562   2.791  3.4363  4.0446 -3.2279
  537MOL0     H70844   2.759   8.513   3.081  2.1974 -0.7888 -0.2664
  537MOL0     H70845   2.829   8.458   2.934 -1.0298 -0.6946 -1.3175
  537MOL0     H70846   2.587   8.100   2.902  0.0037  1.1483  1.1764
  537MOL0     H70847   2.702   7.900   2.985 -1.5417 -1.2784  1.7549
  537MOL0     H70848   2.910   7.649   3.280 -0.5653  1.3563  0.7951
  537MOL0     H70849   3.053   7.462   3.362 -1.2336  0.8308 -3.4059
  537MOL0     H70850   3.418   7.569   3.579 -0.6099 -0.1622  0.4782
  537MOL0     H70851   3.497   7.507   3.432  0.4011 -0.1263  1.8186
  537MOL0     H70852   3.439   7.273   3.522 -0.3710  1.0420 -0.8094
  537MOL0     H70853   3.363   7.338   3.659 -0.0766  0.8691 -0.5787
  537MOL0     H70854   3.593   7.471   3.707  2.3145 -1.7073  3.1126
  537MOL0     H70855   3.648   7.383   3.567 -0.0142 -3.3292  0.6632
  537MOL0     H70856   3.529   7.226   3.797  0.3477  0.8899  0.6991
  537MOL0     H70857   3.642   7.177   3.659 -2.6253 -0.9680  0.2615
  537MOL0     H70858   3.691   7.387   3.871  0.4439  0.2639  1.2714
  537MOL0     H70859   3.799   7.347   3.738 -1.8095 -1.6851 -3.1930
  537MOL0     H70860   3.912   7.226   3.896 -0.0850 -2.0789 -1.4315
  537MOL0     H70861   3.807   7.095   3.848  0.6018 -1.1283 -0.5572
  537MOL0     H70862   3.818   7.126   4.099 -3.2364 -1.2998  2.3785
  537MOL0     H70863   3.785   7.298   4.079  0.3022 -0.1335  2.4417
  537MOL0     H70864   3.619   7.109   4.160  0.2570  2.2586  1.3267
  537MOL0     H70865   3.577   7.092   3.999  2.4118 -2.4015  1.2741
  537MOL0     H70866   3.376   7.741   3.430  0.4282  0.4336 -3.0714
  537MOL0     H70867   3.240   7.931   3.317  5.1928 -2.7887 -1.4061
  537MOL0     H70868   2.947   8.141   3.251 -0.6613 -1.0806  1.5424
  537MOL0     H70869   2.829   8.344   3.165 -2.4595  1.2147 -1.5844
  537MOL0     H70870   3.644   7.990   2.371  0.3328 -1.6089 -0.9809
  537MOL0     H70871   3.728   7.765   2.358 -0.1096  1.5562 -1.1438
  537MOL0     H70872   3.993   7.453   2.503 -0.2875 -0.1262 -0.0148
  537MOL0     H70873   4.077   7.231   2.479 -0.8100  1.1336 -2.5134
  537MOL0     H70874   3.900   6.928   2.794  0.5113 -1.1684  2.6940
  537MOL0     H70875   4.000   7.007   2.908 -1.6903 -1.2673  1.3230
  537MOL0     H70876   4.046   6.763   2.844 -0.6545  0.7733  0.4178
  537MOL0     H70877   4.146   6.835   2.707  0.8871  0.2868  0.0263
  537MOL0     H70878   4.181   6.862   3.014 -4.9802 -0.9675 -0.0038
  537MOL0     H70879   4.273   6.956   2.889  0.4630 -0.5477 -2.9990
  537MOL0     H70880   4.353   6.754   2.778  3.2617  0.8681  1.2019
  537MOL0     H70881   4.406   6.773   2.946  1.4274 -2.3051 -1.2144
  537MOL0     H70882   4.182   6.409   2.943  1.3881  0.4759  1.7185
  537MOL0     H70883   3.851   7.149   2.851  2.2562  2.1066  2.2841
  537MOL0     H70884   3.752   7.363   2.823  1.8318 -3.5405  2.2069
  538MOL0     O70885  10.194   5.514   5.524 -0.1007  0.7241  0.4746
  538MOL0     C70886  10.294   5.541   5.589 -0.3178 -0.1836 -0.4044
  538MOL0     O70887  10.415   5.588   5.528 -0.3913  0.1960 -0.7627
  538MOL0     C70888  10.433   5.577   5.391  1.4880  0.6142 -0.5365
  538MOL0     C70889  10.517   5.476   5.342 -0.1939 -0.2793 -0.4138
  538MOL0     C70890  10.537   5.459   5.202  0.2556 -1.1941 -0.5227
  538MOL0     C70891  10.497   5.563   5.118 -0.2508  0.2604 -0.1276
  538MOL0     O70892  10.499   5.545   4.984 -0.1116  0.5827  0.4313
  538MOL0     C70893  10.625   5.540   4.914 -0.1641 -0.2246  0.6936
  538MOL0     C70894  10.595   5.603   4.780 -0.2351 -0.2933 -0.9099
  538MOL0     C70895  10.728   5.631   4.702  0.3773 -0.7052 -0.5087
  538MOL0     C70896  10.711   5.630   4.548  0.0656 -0.3152  0.2397
  538MOL0     C70897  10.845   5.621   4.474 -0.4312 -0.6513  0.0357
  538MOL0     C70898  10.941   5.751   4.484  0.4882  0.6003  0.4578
  538MOL0     C70899  11.077   5.732   4.422  0.2604  0.3719  0.5503
  538MOL0     C70900  11.178   5.837   4.455 -0.3235 -0.3037  0.2666
  538MOL0     N70901  11.144   5.968   4.392 -0.1904 -0.0548 -0.3875
  538MOL0     C70902  11.123   5.999   4.269  0.4486  0.4254  0.2089
  538MOL0     C70903  11.099   6.142   4.264 -0.9408  0.2874  0.0132
  538MOL0     C70904  11.087   6.219   4.140  0.3792 -0.2677 -0.3290
  538MOL0     C70905  11.208   6.195   4.045  0.4897 -0.3157 -0.0440
  538MOL0     C70906  11.205   6.267   3.921  0.7322 -0.5140 -0.0431
  538MOL0     C70907  11.126   6.202   3.807 -0.4914 -0.3485  0.2250
  538MOL0     O70908  11.194   6.083   3.751 -0.3744 -0.1449 -0.1714
  538MOL0     C70909  11.126   6.043   3.637  0.4466 -0.2669  0.3386
  538MOL0     C70910  11.132   6.129   3.524  0.3225  0.5965 -0.1038
  538MOL0     C70911  11.106   6.089   3.393  0.0724  0.4581 -0.3870
  538MOL0     C70912  11.046   5.964   3.382 -0.2835  0.7589  1.1234
  538MOL0     C70913  11.000   5.907   3.253  0.1094 -0.5857 -0.4648
  538MOL0     O70914  11.032   5.982   3.142 -0.3428 -0.2827 -0.1419
  538MOL0     C70915  11.004   5.915   3.026  0.2475 -0.8393 -0.4437
  538MOL0     C70916  11.115   5.897   2.941 -0.2469 -1.0350 -0.3596
  538MOL0     C70917  11.101   5.855   2.818  0.3707 -0.1823 -0.0024
  538MOL0     C70918  10.979   5.805   2.774 -0.0785  0.3001  0.0380
  538MOL0     O70919  10.960   5.755   2.648 -0.0503 -0.0224 -0.0282
  538MOL0     C70920  11.000   5.847   2.546 -0.5546  0.5192  0.0987
  538MOL0     C70921  10.937   5.799   2.420  0.6115 -0.6481  0.1395
  538MOL0     C70922  10.975   5.877   2.293 -0.2531 -0.2873  1.1140
  538MOL0     C70923  10.900   5.807   2.165 -0.0236 -0.5667 -0.7422
  538MOL0     C70924  10.943   5.851   2.026 -0.1683 -0.7156 -0.2601
  538MOL0     C70925  10.912   6.007   2.018 -0.2998  0.2364 -0.1041
  538MOL0     C70926  10.942   6.066   1.876  0.2583 -0.1500 -0.8277
  538MOL0     C70927  10.862   5.985   1.776 -0.6227 -0.2619 -0.2689
  538MOL0    Cl70928  10.881   6.089   1.611 -0.1266 -0.5654 -0.1711
  538MOL0     C70929  10.857   5.823   2.858 -0.2440 -0.9888 -0.8456
  538MOL0     C70930  10.874   5.882   2.983 -0.5014  0.0514 -0.2483
  538MOL0     O70931  10.954   5.789   3.251  0.7908 -0.2023  0.1370
  538MOL0     C70932  11.036   5.878   3.486  0.3904 -0.1830 -0.1366
  538MOL0     C70933  11.070   5.916   3.614 -0.2113 -0.0677  0.5466
  538MOL0     N70934  11.073   6.179   4.389  0.0236 -0.4106  0.3156
  538MOL0     N70935  11.110   6.078   4.461  0.4626 -0.0942 -0.2134
  538MOL0     C70936  10.419   5.665   5.174 -0.6697  0.1756  0.7786
  538MOL0     C70937  10.380   5.674   5.305  0.9147  0.7906  0.7974
  538MOL0     C70938  10.284   5.503   5.734  0.4954 -0.4331 -0.1866
  538MOL0     C70939  10.172   5.449   5.800 -0.0486 -0.6799  0.1114
  538MOL0     C70940  10.177   5.409   5.934 -0.2689  0.0298 -0.4142
  538MOL0     C70941  10.295   5.405   6.005 -0.4272 -0.6140 -0.2800
  538MOL0     O70942  10.294   5.338   6.131  0.2276 -0.2347 -0.1802
  538MOL0     C70943  10.424   5.292   6.175  0.0108  0.4074  0.3386
  538MOL0     C70944  10.389   5.225   6.319  0.3233 -0.6684  0.7499
  538MOL0     C70945  10.516   5.171   6.393 -0.1830  0.8564 -0.4412
  538MOL0     C70946  10.463   5.130   6.536 -0.6809 -0.6607 -0.2004
  538MOL0     C70947  10.364   5.026   6.525 -0.6139 -0.2163  0.0521
  538MOL0     C70948  10.275   4.944   6.545 -0.1478 -0.1311 -0.9523
  538MOL0     C70949  10.410   5.477   5.944 -0.0227  0.3517 -0.3736
  538MOL0     C70950  10.402   5.517   5.812  0.2080  1.0829 -0.6460
  538MOL0     H70951  10.567   5.417   5.418  0.7325 -1.8529 -2.1520
  538MOL0     H70952  10.595   5.378   5.158  5.6410  0.6689  2.2591
  538MOL0     H70953  10.657   5.436   4.908  0.7020  0.0768 -0.1139
  538MOL0     H70954  10.700   5.604   4.963 -0.2512 -0.1562  0.7403
  538MOL0     H70955  10.539   5.696   4.792 -0.8510 -0.7435 -0.2087
  538MOL0     H70956  10.542   5.528   4.721  1.0375 -1.4858 -0.6049
  538MOL0     H70957  10.804   5.559   4.733  2.5635  2.8082  3.3405
  538MOL0     H70958  10.766   5.730   4.730  2.7304 -1.2135 -1.6440
  538MOL0     H70959  10.654   5.541   4.519  0.9075 -1.5368  2.1364
  538MOL0     H70960  10.655   5.713   4.505 -1.0512 -2.2975 -2.4991
  538MOL0     H70961  10.831   5.612   4.366 -0.8636 -3.7577  0.2629
  538MOL0     H70962  10.887   5.524   4.504  0.3253 -2.1245 -4.8405
  538MOL0     H70963  10.965   5.753   4.591  3.7794 -0.4385 -0.1541
  538MOL0     H70964  10.887   5.841   4.451 -2.6246 -1.6405 -1.0775
  538MOL0     H70965  11.117   5.634   4.449 -0.2344  0.7998  3.0820
  538MOL0     H70966  11.056   5.725   4.315 -2.2976  1.4250  0.9004
  538MOL0     H70967  11.275   5.806   4.416 -0.4765  1.2251 -1.4640
  538MOL0     H70968  11.175   5.847   4.564  1.8040 -3.0444  0.6766
  538MOL0     H70969  11.138   5.932   4.184  1.3765 -1.6817  1.9517
  538MOL0     H70970  11.072   6.326   4.160 -2.1345 -0.2677 -1.7718
  538MOL0     H70971  10.998   6.187   4.085  0.7594  1.2131 -1.8685
  538MOL0     H70972  11.205   6.086   4.029 -0.4458 -0.4962  1.2017
  538MOL0     H70973  11.294   6.225   4.106 -0.4011 -0.8168  1.5279
  538MOL0     H70974  11.166   6.365   3.951 -0.9270 -1.0208 -0.4458
  538MOL0     H70975  11.299   6.299   3.874 -0.2729 -0.5937 -2.1965
  538MOL0     H70976  11.082   6.260   3.725  1.4716 -0.7768 -1.2015
  538MOL0     H70977  11.036   6.170   3.861 -1.7044  2.9889  0.4485
  538MOL0     H70978  11.172   6.227   3.548  3.1202 -0.8782  1.9025
  538MOL0     H70979  11.106   6.152   3.305  0.0396 -0.6161 -1.1767
  538MOL0     H70980  11.212   5.939   2.962 -1.0744 -0.1183  2.0477
  538MOL0     H70981  11.186   5.854   2.751 -0.3358  0.5172 -0.9372
  538MOL0     H70982  11.109   5.846   2.535 -0.4746  1.0109  0.7262
  538MOL0     H70983  10.975   5.951   2.571 -1.5634  0.1906  0.4949
  538MOL0     H70984  10.831   5.810   2.446  0.2621 -2.4175 -0.3735
  538MOL0     H70985  10.960   5.693   2.402  0.3682 -0.3561 -2.3020
  538MOL0     H70986  11.082   5.860   2.279 -0.5732 -3.0843  1.4792
  538MOL0     H70987  10.949   5.983   2.292 -0.5786 -0.3569 -0.4302
  538MOL0     H70988  10.907   5.698   2.167 -3.2343 -0.9003 -2.2706
  538MOL0     H70989  10.794   5.827   2.182 -0.0002 -1.6532  0.8381
  538MOL0     H70990  10.878   5.799   1.954 -0.2672 -3.3610  1.5914
  538MOL0     H70991  11.050   5.834   2.013  0.0238  1.7343 -2.6016
  538MOL0     H70992  10.962   6.061   2.099  0.4726 -2.2498  1.1906
  538MOL0     H70993  10.805   6.023   2.035 -0.3050 -0.8419  1.0524
  538MOL0     H70994  10.888   6.162   1.878 -3.5862 -2.1197  1.6369
  538MOL0     H70995  11.048   6.067   1.850  0.1132  3.2872 -1.8000
  538MOL0     H70996  10.759   5.977   1.812 -1.4361 -0.7283 -2.5380
  538MOL0     H70997  10.901   5.884   1.762  0.9824  0.4469 -1.1318
  538MOL0     H70998  10.762   5.781   2.827 -1.8083  2.2024 -0.8278
  538MOL0     H70999  10.786   5.893   3.045  0.4111  0.9602  0.9455
  538MOL0     H71000  10.992   5.780   3.468  2.1527 -1.1854  0.7489
  538MOL0     H71001  11.071   5.850   3.700  2.0640 -1.3653 -0.3536
  538MOL0     H71002  10.367   5.729   5.104  0.7260 -3.1231 -3.7753
  538MOL0     H71003  10.317   5.747   5.355 -3.8910 -1.0278 -1.8906
  538MOL0     H71004  10.074   5.434   5.755 -0.2914 -1.5437  0.8970
  538MOL0     H71005  10.095   5.354   5.979  0.2461  0.4517  1.0994
  538MOL0     H71006  10.500   5.371   6.181  1.8041 -1.2992  0.8150
  538MOL0     H71007  10.455   5.209   6.111 -1.2449 -1.1853  1.7209
  538MOL0     H71008  10.358   5.309   6.382 -0.9553 -3.5475  4.3163
  538MOL0     H71009  10.309   5.151   6.316 -2.2895  2.0102 -0.8864
  538MOL0     H71010  10.601   5.239   6.383 -0.7020  1.7828  1.1496
  538MOL0     H71011  10.546   5.078   6.345 -2.2001  1.1554 -2.4507
  538MOL0     H71012  10.546   5.101   6.602 -0.0079  2.5781  0.5569
  538MOL0     H71013  10.412   5.211   6.588  1.7261 -0.5015  2.1615
  538MOL0     H71014  10.196   4.873   6.560  2.3178 -2.5938  1.7047
  538MOL0     H71015  10.501   5.492   6.003 -0.0637 -2.0214  0.4378
  538MOL0     H71016  10.487   5.554   5.755  1.3626  0.4322  0.6022
  539MOL0     O71017   7.613   7.511  10.773  0.2529  0.4334 -0.3560
  539MOL0     C71018   7.591   7.538  10.658 -0.2780 -0.1227  0.1982
  539MOL0     O71019   7.605   7.450  10.557  0.0489 -0.3254  0.1073
  539MOL0     C71020   7.632   7.323  10.575 -0.3011  0.4924 -0.5817
  539MOL0     C71021   7.610   7.253  10.691  0.0428  0.4833 -0.2487
  539MOL0     C71022   7.680   7.133  10.717  1.3618  1.0481  0.2751
  539MOL0     C71023   7.743   7.073  10.616  0.5547  0.3502  0.2976
  539MOL0     O71024   7.813   6.954  10.638  0.0019 -0.0043 -0.0947
  539MOL0     C71025   7.746   6.837  10.685  0.8187 -0.3715 -0.7373
  539MOL0     C71026   7.824   6.707  10.659  0.2687  0.3063  0.1710
  539MOL0     C71027   7.747   6.582  10.718 -0.0403  0.3170 -0.9720
  539MOL0     C71028   7.714   6.586  10.867  0.1347  1.2850 -0.1441
  539MOL0     C71029   7.694   6.442  10.926  0.1025 -0.3756  0.4369
  539MOL0     C71030   7.703   6.439  11.083 -0.6423 -0.0653 -0.1652
  539MOL0     C71031   7.662   6.313  11.167 -0.3754 -0.2025  0.1245
  539MOL0     C71032   7.737   6.182  11.127 -0.2898 -0.3915 -0.6238
  539MOL0     N71033   7.790   6.116  11.250  0.3272  0.6107 -0.5999
  539MOL0     C71034   7.901   6.030  11.252  1.0627  0.3592  1.1365
  539MOL0     C71035   7.890   5.959  11.366  0.3509 -0.0001 -0.5162
  539MOL0     C71036   7.977   5.843  11.418  0.0215 -0.5234 -0.1703
  539MOL0     C71037   7.953   5.722  11.315  0.1394 -0.0743 -0.4586
  539MOL0     C71038   8.002   5.597  11.384 -0.0593  1.2589  0.1876
  539MOL0     C71039   8.006   5.478  11.284  0.8745 -0.5466  0.5751
  539MOL0     O71040   7.874   5.444  11.258  0.0755  0.1239  0.5789
  539MOL0     C71041   7.800   5.359  11.338  0.4745 -0.7339  0.4727
  539MOL0     C71042   7.667   5.374  11.327 -1.9690 -0.7803 -1.0962
  539MOL0     C71043   7.575   5.313  11.416  0.4904 -0.0102  0.0203
  539MOL0     C71044   7.618   5.229  11.511 -0.1367  1.2794  0.2606
  539MOL0     C71045   7.521   5.162  11.596 -0.2658  0.1519  0.0233
  539MOL0     O71046   7.387   5.200  11.586 -0.3881 -0.1896 -0.0504
  539MOL0     C71047   7.308   5.195  11.700  0.0605 -0.1008  0.0019
  539MOL0     C71048   7.275   5.067  11.749 -0.7158  1.1347 -0.8868
  539MOL0     C71049   7.217   5.043  11.871  0.0892 -0.2441 -0.2427
  539MOL0     C71050   7.161   5.148  11.941 -0.1170 -0.4130  0.3188
  539MOL0     O71051   7.082   5.139  12.045  0.1238 -0.1377  0.2571
  539MOL0     C71052   6.977   5.040  12.038 -0.8599  1.0607 -1.0612
  539MOL0     C71053   6.874   5.111  12.124 -0.9819 -0.1870 -0.4433
  539MOL0     C71054   6.770   5.194  12.046  0.6027 -0.1055 -0.4500
  539MOL0     C71055   6.825   5.289  11.945 -0.5670  0.5862 -0.5427
  539MOL0     C71056   6.711   5.308  11.848 -0.7492 -0.4170  0.0250
  539MOL0     C71057   6.751   5.405  11.733  0.8713  0.0827  0.6211
  539MOL0     C71058   6.635   5.415  11.633  0.5706  0.3681 -0.1382
  539MOL0     C71059   6.618   5.556  11.581  1.0253 -0.8723  0.7314
  539MOL0    Cl71060   6.525   5.652  11.713  0.2273  0.1050 -0.3508
  539MOL0     C71061   7.184   5.278  11.892  0.2638  0.7286 -0.6613
  539MOL0     C71062   7.265   5.295  11.779 -0.0419 -0.8114  0.0537
  539MOL0     O71063   7.567   5.091  11.679 -0.1623  0.2433 -1.0286
  539MOL0     C71064   7.751   5.211  11.525  0.4067 -0.2635 -0.6794
  539MOL0     C71065   7.847   5.267  11.434  0.2109  0.2347 -0.2754
  539MOL0     N71066   7.765   6.002  11.427 -0.2300 -0.1200  0.0124
  539MOL0     N71067   7.721   6.101  11.363 -0.2656  0.4556 -0.6032
  539MOL0     C71068   7.748   7.134  10.489  0.0424 -0.0713  0.6705
  539MOL0     C71069   7.701   7.264  10.467 -0.3182  0.5190  0.2402
  539MOL0     C71070   7.564   7.680  10.639  0.5950 -0.6044 -0.2740
  539MOL0     C71071   7.566   7.764  10.758 -1.3682  0.5804  0.1107
  539MOL0     C71072   7.556   7.896  10.742  0.0681 -0.1218  0.0492
  539MOL0     C71073   7.529   7.961  10.621 -0.4803 -0.1786  0.0423
  539MOL0     O71074   7.508   8.096  10.618 -0.3027 -0.2577 -0.3169
  539MOL0     C71075   7.594   8.167  10.518  0.1333  0.0178  0.1457
  539MOL0     C71076   7.586   8.321  10.550  0.8840  0.8935 -0.2397
  539MOL0     C71077   7.694   8.397  10.476  0.3457 -0.4049 -0.1030
  539MOL0     C71078   7.633   8.509  10.374 -0.0784  0.2048 -0.1435
  539MOL0     C71079   7.536   8.600  10.423 -1.0520 -0.3895 -0.7620
  539MOL0     C71080   7.458   8.681  10.468 -0.0485 -0.4402 -0.2412
  539MOL0     C71081   7.517   7.884  10.505 -0.3186  0.2972 -0.6216
  539MOL0     C71082   7.535   7.744  10.520  0.3116 -0.8090 -0.9822
  539MOL0     H71083   7.546   7.295  10.769 -0.6517 -1.7840  0.4821
  539MOL0     H71084   7.667   7.081  10.811  1.5077  0.9329  0.2330
  539MOL0     H71085   7.659   6.818  10.623  0.3804 -0.4038 -0.1277
  539MOL0     H71086   7.715   6.856  10.788 -0.0569  1.2439 -1.2709
  539MOL0     H71087   7.923   6.727  10.701  0.2723  3.4351 -1.0919
  539MOL0     H71088   7.828   6.696  10.550 -2.2120 -3.4068  0.2744
  539MOL0     H71089   7.812   6.500  10.686 -0.0513  0.1547 -0.5846
  539MOL0     H71090   7.651   6.574  10.667 -2.7805  0.0470  3.7408
  539MOL0     H71091   7.797   6.643  10.908  1.6109 -2.1912  2.1872
  539MOL0     H71092   7.620   6.639  10.885 -0.8263 -0.8662  1.8002
  539MOL0     H71093   7.768   6.375  10.881  0.1922  1.7156 -2.8086
  539MOL0     H71094   7.593   6.413  10.894 -1.6731  3.3532  2.0944
  539MOL0     H71095   7.632   6.513  11.121  0.3215 -0.8425  3.5190
  539MOL0     H71096   7.803   6.475  11.109  0.1849 -1.5373 -1.1337
  539MOL0     H71097   7.675   6.338  11.273 -2.9622 -2.1996  1.0136
  539MOL0     H71098   7.554   6.301  11.155 -0.9430  2.3740  1.7434
  539MOL0     H71099   7.827   6.199  11.066 -0.8132  1.5368 -0.9322
  539MOL0     H71100   7.669   6.120  11.068 -1.2648  2.1711 -2.4235
  539MOL0     H71101   7.961   6.006  11.165  1.6220  0.8597  1.3717
  539MOL0     H71102   7.945   5.818  11.519 -5.3357  0.8258 -1.1752
  539MOL0     H71103   8.083   5.868  11.418 -0.6762  3.0330  0.8376
  539MOL0     H71104   8.000   5.742  11.218 -1.3863 -0.8021 -1.3645
  539MOL0     H71105   7.846   5.711  11.299  0.1699  1.3426 -1.9230
  539MOL0     H71106   8.105   5.609  11.420 -0.2986 -0.8626  1.7501
  539MOL0     H71107   7.938   5.568  11.467  2.8128 -0.9406  1.8000
  539MOL0     H71108   8.060   5.384  11.297 -2.1994 -2.6660 -0.7811
  539MOL0     H71109   8.060   5.521  11.199  0.3671 -3.3610 -1.2946
  539MOL0     H71110   7.626   5.440  11.250 -0.9740 -2.6850 -3.3818
  539MOL0     H71111   7.469   5.331  11.401 -0.2463 -4.1418 -0.9698
  539MOL0     H71112   7.311   4.985  11.686  0.4216  1.0472 -0.1590
  539MOL0     H71113   7.205   4.938  11.897 -0.2673 -0.6126 -1.8121
  539MOL0     H71114   7.003   4.950  12.096  0.1555  1.2226 -1.2449
  539MOL0     H71115   6.941   5.015  11.938 -2.6383 -0.4688 -0.1073
  539MOL0     H71116   6.924   5.171  12.200  1.5904 -0.1949 -1.9739
  539MOL0     H71117   6.815   5.032  12.171 -2.1749 -0.5783 -2.4780
  539MOL0     H71118   6.715   5.241  12.129 -1.1466 -1.4247 -0.8052
  539MOL0     H71119   6.707   5.121  11.995 -0.0247  0.2884 -0.2510
  539MOL0     H71120   6.867   5.378  11.991  1.1344 -1.3047  1.8089
  539MOL0     H71121   6.914   5.253  11.892 -1.6638 -2.4501 -0.5294
  539MOL0     H71122   6.625   5.344  11.906 -1.7049 -4.2100  1.2803
  539MOL0     H71123   6.690   5.213  11.798 -1.2471  0.3732 -1.3306
  539MOL0     H71124   6.835   5.359  11.680  0.7649  0.1253  0.4142
  539MOL0     H71125   6.774   5.504  11.773 -3.5354  0.8293  1.8659
  539MOL0     H71126   6.664   5.343  11.556  1.6435  1.4539 -0.7792
  539MOL0     H71127   6.539   5.382  11.675  0.7636  1.5940  1.3768
  539MOL0     H71128   6.563   5.560  11.487  1.4101 -0.8300  0.5048
  539MOL0     H71129   6.714   5.603  11.560  1.2898  0.3112  3.9753
  539MOL0     H71130   7.138   5.355  11.953 -1.4213 -1.2009  0.6441
  539MOL0     H71131   7.291   5.393  11.739 -0.7257 -0.9938 -0.8574
  539MOL0     H71132   7.781   5.138  11.600 -1.5620 -0.5466 -0.1149
  539MOL0     H71133   7.952   5.243  11.450  0.3187  1.6301  1.4720
  539MOL0     H71134   7.808   7.095  10.408 -0.3986 -1.1570  0.8460
  539MOL0     H71135   7.716   7.312  10.371  1.0104  0.9109  0.6115
  539MOL0     H71136   7.580   7.721  10.857  1.6644 -2.0053 -1.2621
  539MOL0     H71137   7.580   7.957  10.829  0.1990  1.6381 -1.1761
  539MOL0     H71138   7.571   8.149  10.412  0.2240  1.5992 -0.1606
  539MOL0     H71139   7.696   8.130  10.529  2.0677  4.0908 -1.8518
  539MOL0     H71140   7.491   8.364  10.518  1.3675  2.0889 -0.0983
  539MOL0     H71141   7.600   8.338  10.657 -1.4498 -0.0112  0.2821
  539MOL0     H71142   7.758   8.333  10.414 -0.2221 -2.9415  1.7786
  539MOL0     H71143   7.765   8.450  10.540  3.8120 -2.1577 -2.1677
  539MOL0     H71144   7.720   8.568  10.343  1.2284 -1.3873  0.3214
  539MOL0     H71145   7.594   8.449  10.292 -2.9820  2.5999 -0.6902
  539MOL0     H71146   7.395   8.746  10.526  2.5068 -1.3549  4.0448
  539MOL0     H71147   7.489   7.937  10.415  0.6698  0.6455 -0.7374
  539MOL0     H71148   7.519   7.689  10.429  0.2261  1.3413 -2.3437
  540MOL0     O71149   7.247  10.036   5.964 -0.0940  0.5308  0.8251
  540MOL0     C71150   7.272   9.958   6.048 -0.0922 -0.7126  0.1005
  540MOL0     O71151   7.229   9.963   6.180  0.3640  0.5924  0.2143
  540MOL0     C71152   7.146  10.067   6.203 -0.1719  0.2494 -0.0302
  540MOL0     C71153   7.204  10.194   6.190 -0.9813 -0.0648  0.2713
  540MOL0     C71154   7.132  10.312   6.206  0.3152 -0.9966  0.2029
  540MOL0     C71155   6.995  10.309   6.234 -0.3031  0.1517 -0.4413
  540MOL0     O71156   6.922  10.432   6.252  0.1818  1.1885  0.0844
  540MOL0     C71157   6.952  10.511   6.371 -0.2182 -0.0837  0.0406
  540MOL0     C71158   6.926  10.426   6.496  0.3360 -0.4684  0.1676
  540MOL0     C71159   6.915  10.523   6.617 -0.0739  0.1346  0.6563
  540MOL0     C71160   6.772  10.563   6.649  0.6233  0.3812 -0.4289
  540MOL0     C71161   6.755  10.609   6.790 -0.4877 -0.2214 -0.1303
  540MOL0     C71162   6.849  10.722   6.840 -0.7613  0.3069  0.0543
  540MOL0     C71163   6.820  10.867   6.778 -0.4932 -0.1766 -0.1499
  540MOL0     C71164   6.926  10.976   6.826  0.5274 -0.0781 -0.8298
  540MOL0     N71165   7.059  10.979   6.761  0.0229 -0.2776  0.8622
  540MOL0     C71166   7.084  10.947   6.628 -0.8118  0.5747  0.4131
  540MOL0     C71167   7.222  10.950   6.622  0.4233  0.7059 -0.0888
  540MOL0     C71168   7.299  10.907   6.496  0.7738  0.1849 -0.8015
  540MOL0     C71169   7.308  10.750   6.477 -0.6691 -1.1683  0.9666
  540MOL0     C71170   7.379  10.672   6.585 -0.4943 -0.3340 -0.7954
  540MOL0     C71171   7.532  10.693   6.591 -0.5240 -0.1174  0.2592
  540MOL0     O71172   7.586  10.684   6.462  0.6416  0.1838 -0.3539
  540MOL0     C71173   7.690  10.605   6.433 -0.3873 -0.3674  0.1025
  540MOL0     C71174   7.823  10.653   6.458 -0.5948  0.5164 -0.2361
  540MOL0     C71175   7.934  10.577   6.423 -0.4061  0.0507  0.1800
  540MOL0     C71176   7.917  10.454   6.356 -0.6183  1.3465  0.2700
  540MOL0     C71177   8.028  10.364   6.320  0.7481 -0.5346 -0.0703
  540MOL0     O71178   7.991  10.244   6.262  0.0632 -0.1256  0.6743
  540MOL0     C71179   8.080  10.153   6.207  0.2422 -1.1549  0.5075
  540MOL0     C71180   8.037  10.077   6.100  0.2383  0.5382 -0.7219
  540MOL0     C71181   8.109   9.968   6.046 -0.4426  0.9005  0.3533
  540MOL0     C71182   8.240   9.942   6.086  0.6505  0.3692 -0.3181
  540MOL0     O71183   8.312   9.843   6.025  1.1619 -0.3205  0.2568
  540MOL0     C71184   8.261   9.767   5.914 -0.0113 -0.5320 -0.8163
  540MOL0     C71185   8.378   9.717   5.838 -0.0674 -0.0169 -0.2937
  540MOL0     C71186   8.476   9.818   5.786 -0.7311 -0.2332  0.7644
  540MOL0     C71187   8.604   9.769   5.708  0.6042 -0.5965  0.6817
  540MOL0     C71188   8.570   9.708   5.576 -0.3094  0.1286  0.5889
  540MOL0     C71189   8.693   9.627   5.523  0.3603 -0.4991 -0.5580
  540MOL0     C71190   8.815   9.720   5.484  0.1447 -0.1294 -0.7938
  540MOL0     C71191   8.884   9.656   5.360 -0.4197  0.2402 -0.5317
  540MOL0    Cl71192   9.049   9.728   5.354  0.0204 -0.2882 -0.4888
  540MOL0     C71193   8.294  10.020   6.187 -0.1422  0.5510 -0.4250
  540MOL0     C71194   8.219  10.129   6.236  0.7402 -1.1383 -0.1936
  540MOL0     O71195   8.138  10.408   6.342 -0.2851  0.9574 -0.3708
  540MOL0     C71196   7.791  10.408   6.325  0.1013  0.0103 -0.3665
  540MOL0     C71197   7.678  10.485   6.366 -0.1793  0.5371 -0.0133
  540MOL0     N71198   7.275  10.992   6.740  0.2632  0.6856  0.2161
  540MOL0     N71199   7.180  11.003   6.821 -0.6301 -0.2450 -0.7966
  540MOL0     C71200   6.943  10.179   6.273  0.0922  0.3683  0.3960
  540MOL0     C71201   7.020  10.063   6.259  0.3609  0.5662 -0.7835
  540MOL0     C71202   7.355   9.841   6.008 -0.3169 -0.4062  0.0625
  540MOL0     C71203   7.380   9.743   6.101 -0.2224  0.1371  0.2603
  540MOL0     C71204   7.444   9.620   6.068  0.1258 -0.3652  0.8183
  540MOL0     C71205   7.493   9.594   5.939  0.4400 -0.7591 -0.2737
  540MOL0     O71206   7.552   9.472   5.907  0.1289 -0.2914  0.7070
  540MOL0     C71207   7.655   9.444   5.987 -1.2753 -0.0705 -0.5969
  540MOL0     C71208   7.651   9.308   6.053 -0.1166 -0.2115 -0.1640
  540MOL0     C71209   7.760   9.303   6.169  0.5233  0.2099  0.6674
  540MOL0     C71210   7.890   9.260   6.111 -0.2521 -0.5679  0.6329
  540MOL0     C71211   7.989   9.217   6.203  0.0032 -0.0994 -0.2165
  540MOL0     C71212   8.063   9.162   6.277 -0.0564  0.7778 -0.6127
  540MOL0     C71213   7.465   9.689   5.847 -0.6876 -0.3830 -0.1028
  540MOL0     C71214   7.392   9.808   5.872  0.4893 -0.5078 -1.1393
  540MOL0     H71215   7.303  10.197   6.145 -0.7926 -0.4758  0.6613
  540MOL0     H71216   7.169  10.411   6.179 -1.4295  0.2179  2.0029
  540MOL0     H71217   6.891  10.602   6.370  0.5543  0.4494  0.2196
  540MOL0     H71218   7.052  10.556   6.363 -0.9824  1.9766  1.2347
  540MOL0     H71219   7.012  10.359   6.503  0.2635 -0.6211 -0.3805
  540MOL0     H71220   6.841  10.357   6.488  0.5768 -0.5061 -3.3562
  540MOL0     H71221   6.981  10.610   6.612 -0.0656  0.2291  2.1092
  540MOL0     H71222   6.943  10.477   6.712 -0.8806 -0.7548  0.4712
  540MOL0     H71223   6.738  10.641   6.580 -1.6301 -1.5171 -1.5992
  540MOL0     H71224   6.702  10.481   6.637 -0.7623  1.4740 -0.0397
  540MOL0     H71225   6.798  10.533   6.857  3.9727  1.0086 -1.2436
  540MOL0     H71226   6.650  10.631   6.810 -0.0214  4.2639 -1.5703
  540MOL0     H71227   6.949  10.695   6.806 -1.5361 -1.4667 -0.9654
  540MOL0     H71228   6.835  10.735   6.948 -4.1981  2.8644 -0.4938
  540MOL0     H71229   6.820  10.861   6.668 -1.6191  1.8493 -0.2982
  540MOL0     H71230   6.722  10.896   6.817 -0.8179 -1.7298  0.2382
  540MOL0     H71231   6.929  10.967   6.935  0.1096 -1.8390 -0.9347
  540MOL0     H71232   6.881  11.071   6.797 -0.5099  0.2619  1.7112
  540MOL0     H71233   7.016  10.927   6.546  1.3681  0.6934 -1.5267
  540MOL0     H71234   7.403  10.944   6.499  1.7230 -1.8607 -3.7397
  540MOL0     H71235   7.254  10.948   6.405  1.5665 -1.0755 -1.7909
  540MOL0     H71236   7.343  10.735   6.374  0.6501  1.3624  0.9841
  540MOL0     H71237   7.203  10.721   6.483 -1.0515  0.4029  2.4055
  540MOL0     H71238   7.334  10.691   6.683 -2.5616 -0.2245 -1.7119
  540MOL0     H71239   7.361  10.566   6.565 -0.7845 -0.5834  0.6506
  540MOL0     H71240   7.577  10.617   6.656 -0.3183 -0.1104  0.1254
  540MOL0     H71241   7.553  10.793   6.630  1.4003  0.2562 -1.5370
  540MOL0     H71242   7.829  10.745   6.514 -0.2197  0.5439 -0.3164
  540MOL0     H71243   8.037  10.606   6.439 -0.3988 -0.2437  0.6989
  540MOL0     H71244   7.935  10.096   6.068 -0.2152 -0.0114  0.3754
  540MOL0     H71245   8.060   9.907   5.971 -0.7275  2.7785 -1.0829
  540MOL0     H71246   8.194   9.825   5.849 -0.0830 -1.9423 -2.0742
  540MOL0     H71247   8.198   9.689   5.958 -1.9273  1.4738  0.2114
  540MOL0     H71248   8.343   9.644   5.764  0.6801  0.5124 -1.1889
  540MOL0     H71249   8.430   9.661   5.916  1.2856  1.9875  0.2927
  540MOL0     H71250   8.514   9.878   5.870  1.5076 -1.1383  0.4782
  540MOL0     H71251   8.416   9.879   5.718 -1.7871 -2.5210 -0.4657
  540MOL0     H71252   8.679   9.846   5.692 -1.4644  1.5226  0.6332
  540MOL0     H71253   8.642   9.695   5.779  0.6498 -0.9166  0.3282
  540MOL0     H71254   8.532   9.793   5.519 -3.3876  1.0561  3.6951
  540MOL0     H71255   8.490   9.634   5.585 -2.0177  1.4036 -2.6522
  540MOL0     H71256   8.672   9.589   5.423  1.1488  2.2917 -1.8902
  540MOL0     H71257   8.720   9.545   5.590  2.8990 -0.4455 -1.4034
  540MOL0     H71258   8.777   9.813   5.439  1.7332  0.0620 -1.7979
  540MOL0     H71259   8.874   9.750   5.571  0.9386  2.1151 -2.0413
  540MOL0     H71260   8.831   9.683   5.268 -1.2329  0.4275 -0.0219
  540MOL0     H71261   8.897   9.549   5.376  0.9196 -0.0378 -2.9442
  540MOL0     H71262   8.398  10.008   6.216 -0.5584  2.4315  2.2039
  540MOL0     H71263   8.267  10.202   6.300  1.3680 -0.2258 -1.6536
  540MOL0     H71264   7.776  10.322   6.261  1.6980 -0.6476  0.1138
  540MOL0     H71265   7.586  10.439   6.332  0.6876 -1.7534  0.5820
  540MOL0     H71266   6.843  10.169   6.314  0.0756  1.2931  0.6205
  540MOL0     H71267   6.987   9.961   6.277  0.1134  0.5485 -1.3267
  540MOL0     H71268   7.350   9.751   6.205  1.2375  0.4959  0.6890
  540MOL0     H71269   7.469   9.547   6.144  2.4931  3.0408  3.6989
  540MOL0     H71270   7.667   9.522   6.062 -0.3235  1.7559 -2.5334
  540MOL0     H71271   7.742   9.449   5.920 -0.7263  3.4763  0.1570
  540MOL0     H71272   7.554   9.295   6.102 -1.0706  1.0983 -1.5823
  540MOL0     H71273   7.667   9.231   5.976  2.4525 -1.7755  1.7947
  540MOL0     H71274   7.725   9.226   6.238 -1.5980  0.0203 -0.5334
  540MOL0     H71275   7.764   9.402   6.216 -1.8337 -0.1214  1.7362
  540MOL0     H71276   7.873   9.176   6.043 -2.3543  0.0733  0.2803
  540MOL0     H71277   7.943   9.339   6.057  1.6347 -1.7139  0.6952
  540MOL0     H71278   8.135   9.115   6.341 -1.4869  0.4064  0.7816
  540MOL0     H71279   7.507   9.685   5.747  0.3457  2.2374  0.1384
  540MOL0     H71280   7.369   9.873   5.787 -0.9124  2.0960  1.0535
  541MOL0     O71281   2.249   7.976   3.922 -0.0374  0.4161 -0.9619
  541MOL0     C71282   2.322   7.935   3.835  0.4375  0.7343  0.3414
  541MOL0     O71283   2.387   8.012   3.736  0.1041  1.1461  0.3967
  541MOL0     C71284   2.399   8.143   3.774  0.5120 -0.2919 -0.3148
  541MOL0     C71285   2.321   8.229   3.706  0.3916 -0.4683  0.6972
  541MOL0     C71286   2.321   8.360   3.729 -0.4430 -0.7521  0.2158
  541MOL0     C71287   2.405   8.423   3.817  0.3004 -0.3776 -0.6494
  541MOL0     O71288   2.397   8.554   3.853 -0.3054  0.4347 -0.0929
  541MOL0     C71289   2.272   8.630   3.836  0.5683  0.7856  0.1984
  541MOL0     C71290   2.180   8.622   3.954 -0.7882 -0.4179  0.2457
  541MOL0     C71291   2.230   8.670   4.096 -0.8127 -0.0144  1.0377
  541MOL0     C71292   2.283   8.817   4.101 -0.7319  0.5256 -0.4335
  541MOL0     C71293   2.266   8.879   4.239 -0.7748  0.9752  0.6777
  541MOL0     C71294   2.340   9.008   4.249 -0.0724 -1.0242  0.8646
  541MOL0     C71295   2.323   9.075   4.389  0.0236 -0.3731  0.0881
  541MOL0     C71296   2.186   9.147   4.402  0.2086 -0.1172  0.5408
  541MOL0     N71297   2.199   9.255   4.500  0.3986 -0.5801 -0.5365
  541MOL0     C71298   2.274   9.367   4.471  0.4572  0.2969 -0.0205
  541MOL0     C71299   2.227   9.462   4.562  0.1879  0.0707  0.3478
  541MOL0     C71300   2.299   9.585   4.600  0.1962 -0.6360  0.4099
  541MOL0     C71301   2.273   9.696   4.496 -0.0840 -0.0256 -0.1403
  541MOL0     C71302   2.278   9.823   4.573 -0.8917 -0.0371  0.0360
  541MOL0     C71303   2.417   9.857   4.611  0.8784 -0.2109 -0.6624
  541MOL0     O71304   2.502   9.854   4.492 -0.2432  0.6277  1.1059
  541MOL0     C71305   2.618   9.913   4.493 -0.2123 -0.5371  0.0551
  541MOL0     C71306   2.655  10.008   4.586  0.2084  1.0291  0.3906
  541MOL0     C71307   2.777  10.076   4.575 -0.5732 -1.0902  0.4487
  541MOL0     C71308   2.869  10.057   4.464  1.0533  0.5669 -0.2774
  541MOL0     C71309   2.989  10.137   4.461 -0.5270  0.1907  0.5121
  541MOL0     O71310   3.092  10.086   4.385 -0.3464  0.2063  0.0906
  541MOL0     C71311   3.189  10.169   4.343 -0.3629  0.0594  0.7294
  541MOL0     C71312   3.164  10.299   4.287  1.1580  0.0735 -0.5382
  541MOL0     C71313   3.259  10.396   4.270 -0.2422 -0.8324 -0.6078
  541MOL0     C71314   3.396  10.363   4.302 -0.4637 -0.5052  0.0026
  541MOL0     O71315   3.507  10.437   4.284 -0.1852 -0.6988 -0.5600
  541MOL0     C71316   3.502  10.572   4.350  0.3796  0.6088 -0.0467
  541MOL0     C71317   3.491  10.558   4.499  1.1297  0.2183  0.0128
  541MOL0     C71318   3.629  10.525   4.556  0.4144 -0.2812  0.3000
  541MOL0     C71319   3.658  10.550   4.715  0.7090  0.3697  0.8579
  541MOL0     C71320   3.807  10.597   4.734  0.2768 -0.1252 -0.2299
  541MOL0     C71321   3.839  10.600   4.883  0.3987  0.1242 -0.3447
  541MOL0     C71322   3.839  10.746   4.925  0.4018 -0.9243 -0.4877
  541MOL0     C71323   3.917  10.777   5.055  0.3096 -0.0586  1.1147
  541MOL0    Cl71324   4.080  10.782   5.004 -0.0977 -0.0022  0.1879
  541MOL0     C71325   3.421  10.232   4.350 -0.4733  0.1903  0.3062
  541MOL0     C71326   3.321  10.140   4.372 -0.0691  0.7418  0.3551
  541MOL0     O71327   2.982  10.247   4.515 -0.1457 -0.4291  0.2356
  541MOL0     C71328   2.829   9.964   4.371 -0.7561  0.1046  0.3804
  541MOL0     C71329   2.712   9.888   4.388  0.4259 -0.2159  0.9251
  541MOL0     N71330   2.118   9.405   4.626  0.0295  0.2226 -0.8523
  541MOL0     N71331   2.101   9.282   4.592  0.6379  0.0909  0.1687
  541MOL0     C71332   2.502   8.336   3.875  0.1267 -0.4192  0.1795
  541MOL0     C71333   2.507   8.196   3.852 -0.1661 -0.2935  0.0793
  541MOL0     C71334   2.328   7.789   3.822  0.1563 -0.1774  1.4751
  541MOL0     C71335   2.236   7.699   3.878 -0.3101 -0.4423 -0.1183
  541MOL0     C71336   2.252   7.560   3.858 -0.6498  0.4993  0.0029
  541MOL0     C71337   2.356   7.507   3.777 -0.0302 -0.1778  0.0916
  541MOL0     O71338   2.361   7.374   3.782  0.6798  0.0963  1.0940
  541MOL0     C71339   2.396   7.306   3.660  0.1401 -0.4384 -0.6651
  541MOL0     C71340   2.329   7.170   3.649 -0.4504  0.6836 -0.6894
  541MOL0     C71341   2.187   7.176   3.603 -0.6156 -0.4042  0.2577
  541MOL0     C71342   2.140   7.037   3.583 -0.6435 -0.1187  0.4709
  541MOL0     C71343   2.001   7.035   3.569 -0.2774  0.1247 -0.5605
  541MOL0     C71344   1.877   7.037   3.582  0.4738 -0.3979 -0.1909
  541MOL0     C71345   2.447   7.598   3.712  0.9578 -0.3295  0.8085
  541MOL0     C71346   2.425   7.740   3.722 -0.0932  0.7599  0.6450
  541MOL0     H71347   2.256   8.211   3.621 -0.0858 -0.2290  1.0040
  541MOL0     H71348   2.249   8.415   3.669  0.5595  0.1376 -0.2068
  541MOL0     H71349   2.217   8.602   3.746  1.5830 -0.0803 -0.1678
  541MOL0     H71350   2.276   8.740   3.838 -1.5373  0.9053  0.4906
  541MOL0     H71351   2.150   8.517   3.961 -1.0231 -0.5982 -2.4434
  541MOL0     H71352   2.095   8.688   3.931  0.3185  1.2295  0.7117
  541MOL0     H71353   2.304   8.598   4.132 -1.4010 -0.0215  2.2773
  541MOL0     H71354   2.149   8.662   4.169  1.7570 -1.3112  3.9485
  541MOL0     H71355   2.385   8.827   4.064 -0.3418 -0.4754  0.3366
  541MOL0     H71356   2.208   8.874   4.045 -2.2325 -0.5824  0.3659
  541MOL0     H71357   2.309   8.815   4.316 -1.3521 -2.3376 -1.5166
  541MOL0     H71358   2.164   8.905   4.270 -0.3202  1.4511  1.8362
  541MOL0     H71359   2.299   9.075   4.173 -2.0084 -3.5071 -0.4302
  541MOL0     H71360   2.447   8.997   4.229  0.1461 -2.8112  2.6689
  541MOL0     H71361   2.338   9.002   4.469  1.6335 -0.2372 -0.0515
  541MOL0     H71362   2.396   9.156   4.382  1.3057 -1.6305 -4.5432
  541MOL0     H71363   2.114   9.080   4.450  1.5680  0.1075  3.0860
  541MOL0     H71364   2.137   9.195   4.317  0.9350  0.4747  0.4469
  541MOL0     H71365   2.365   9.376   4.412  3.3019 -2.1368  3.5327
  541MOL0     H71366   2.405   9.563   4.611  0.2408  0.1253  1.7649
  541MOL0     H71367   2.262   9.617   4.698 -3.5741  0.0343 -1.0672
  541MOL0     H71368   2.179   9.688   4.441 -0.3664  0.6953  0.2205
  541MOL0     H71369   2.349   9.695   4.418  0.5230  2.4968  0.3352
  541MOL0     H71370   2.236   9.904   4.512 -2.3838 -1.2041 -0.5690
  541MOL0     H71371   2.212   9.829   4.660 -2.8855 -3.1732 -1.0789
  541MOL0     H71372   2.454   9.780   4.680 -4.2053 -0.8025  1.8589
  541MOL0     H71373   2.412   9.951   4.667 -0.3916  0.6516 -2.1522
  541MOL0     H71374   2.594  10.026   4.674 -1.4616  0.9237 -0.6795
  541MOL0     H71375   2.802  10.140   4.659  0.5376 -1.4392  0.4147
  541MOL0     H71376   3.061  10.330   4.273  1.3592  0.9445 -0.1620
  541MOL0     H71377   3.233  10.487   4.217 -0.4598 -0.4447  0.1574
  541MOL0     H71378   3.419  10.631   4.310  0.8503 -0.3488 -2.6470
  541MOL0     H71379   3.594  10.628   4.330  1.1003 -0.6913 -0.5039
  541MOL0     H71380   3.420  10.483   4.534  1.2383  1.1579  2.4854
  541MOL0     H71381   3.457  10.653   4.542  0.4884  0.7601 -1.6311
  541MOL0     H71382   3.704  10.577   4.496 -0.5162  1.3805  0.5179
  541MOL0     H71383   3.630  10.416   4.543 -2.9371 -0.2123 -1.7288
  541MOL0     H71384   3.589  10.625   4.755 -1.8255 -2.1931  1.6809
  541MOL0     H71385   3.621  10.465   4.774 -2.8522  0.2563 -1.2634
  541MOL0     H71386   3.812  10.697   4.691 -1.1631 -0.1308 -0.4645
  541MOL0     H71387   3.868  10.526   4.677 -1.1050  0.6402 -2.8271
  541MOL0     H71388   3.942  10.561   4.888 -0.0206 -0.9057  1.1158
  541MOL0     H71389   3.773  10.534   4.940 -0.5911  0.1578 -1.4184
  541MOL0     H71390   3.885  10.809   4.848  0.8702 -1.0811 -0.3413
  541MOL0     H71391   3.736  10.776   4.947  0.4335 -0.6747 -0.6759
  541MOL0     H71392   3.902  10.712   5.142  0.7146 -0.8265  0.6211
  541MOL0     H71393   3.873  10.874   5.078  1.1310  0.9778 -1.3786
  541MOL0     H71394   3.524  10.201   4.368 -0.2275 -0.3212 -1.7715
  541MOL0     H71395   3.344  10.042   4.414 -4.5840 -0.3334  0.8434
  541MOL0     H71396   2.905   9.949   4.295 -2.5873  5.5653 -3.0729
  541MOL0     H71397   2.691   9.807   4.320  0.5135  0.7282 -0.2542
  541MOL0     H71398   2.576   8.381   3.942  0.3095 -0.5272  0.0526
  541MOL0     H71399   2.595   8.143   3.888  0.6037  1.2058  0.4722
  541MOL0     H71400   2.171   7.738   3.955 -1.1240  3.4623 -2.5272
  541MOL0     H71401   2.194   7.495   3.922 -0.4626  1.0284  0.7244
  541MOL0     H71402   2.505   7.298   3.660  0.2924  0.8568 -2.7366
  541MOL0     H71403   2.365   7.376   3.581  3.4082  1.8258 -0.1412
  541MOL0     H71404   2.394   7.106   3.588  1.2549  2.0639 -0.4065
  541MOL0     H71405   2.332   7.126   3.750 -0.4154 -0.3261 -1.1178
  541MOL0     H71406   2.181   7.242   3.516 -2.9185 -0.6101  0.1813
  541MOL0     H71407   2.133   7.235   3.678  0.4110  0.7576  0.1173
  541MOL0     H71408   2.174   6.983   3.494 -1.3365 -0.0141  0.1361
  541MOL0     H71409   2.173   6.975   3.666  4.6470 -0.8759 -1.7881
  541MOL0     H71410   1.773   7.027   3.608  0.1103 -1.2740 -1.8548
  541MOL0     H71411   2.532   7.561   3.656  1.3835 -0.1505  1.3222
  541MOL0     H71412   2.494   7.808   3.672 -3.2854  1.3359 -3.4831
  542MOL0     O71413   8.957  11.207   6.668 -0.2346  0.5761 -0.8539
  542MOL0     C71414   8.962  11.094   6.726 -0.6136 -0.9709 -0.0413
  542MOL0     O71415   9.028  10.992   6.677 -0.3505  0.3491  0.4619
  542MOL0     C71416   9.079  11.011   6.548  0.2338 -0.0022 -1.0976
  542MOL0     C71417   9.215  11.011   6.525  0.0223 -0.1431 -0.8367
  542MOL0     C71418   9.276  11.024   6.401  0.2594 -0.8235  0.3386
  542MOL0     C71419   9.192  11.033   6.290  0.2986 -0.3260  0.6934
  542MOL0     O71420   9.250  11.043   6.168  0.6414  0.2897  0.8101
  542MOL0     C71421   9.202  10.941   6.071 -1.1818  0.3460 -0.4259
  542MOL0     C71422   9.312  10.914   5.962 -0.7546  0.3155  0.1279
  542MOL0     C71423   9.274  10.993   5.836  0.2296 -0.1527  1.2250
  542MOL0     C71424   9.360  10.945   5.708  0.8376  0.5681  0.2792
  542MOL0     C71425   9.289  10.976   5.575 -0.8905 -0.4288 -0.5937
  542MOL0     C71426   9.273  11.132   5.542  1.4088  0.1401  0.7453
  542MOL0     C71427   9.182  11.145   5.415 -0.7293  0.5229 -0.7920
  542MOL0     C71428   9.173  11.288   5.366 -0.4144 -1.0365 -0.3041
  542MOL0     N71429   9.107  11.384   5.464 -0.7732 -0.1256  0.3074
  542MOL0     C71430   8.975  11.382   5.487 -0.3976  0.0924 -0.2010
  542MOL0     C71431   8.952  11.490   5.564  0.5832  0.5888  0.6957
  542MOL0     C71432   8.811  11.518   5.617  1.1284 -0.2243  0.8236
  542MOL0     C71433   8.810  11.659   5.677  0.4509 -0.5672 -0.0855
  542MOL0     C71434   8.794  11.655   5.825  0.5285 -0.3607  0.0989
  542MOL0     C71435   8.811  11.789   5.897  0.5726  0.2449 -0.1233
  542MOL0     O71436   8.938  11.846   5.885  0.4722 -0.2132 -0.1265
  542MOL0     C71437   9.027  11.842   5.988 -0.4835  0.8648 -0.8578
  542MOL0     C71438   8.990  11.864   6.120  0.6713 -0.0445  0.5326
  542MOL0     C71439   9.084  11.858   6.215 -0.1858 -0.5077  0.8953
  542MOL0     C71440   9.219  11.843   6.182  0.1775  0.6945  0.4239
  542MOL0     C71441   9.323  11.852   6.282 -0.1228 -0.1322 -0.1016
  542MOL0     O71442   9.436  11.913   6.235  0.0541  0.1509  0.9098
  542MOL0     C71443   9.516  11.959   6.338  1.2570  0.7871 -0.2885
  542MOL0     C71444   9.638  11.897   6.356 -1.0444  0.0931  0.0527
  542MOL0     C71445   9.721  11.928   6.462 -0.5363  0.7191 -0.4688
  542MOL0     C71446   9.686  12.039   6.548 -1.5452  0.3591  1.1965
  542MOL0     O71447   9.768  12.090   6.650  0.1116  1.2751 -0.6727
  542MOL0     C71448   9.905  12.033   6.644 -0.1318 -0.4631 -0.6909
  542MOL0     C71449   9.978  12.094   6.763 -0.6683  0.1135 -0.4557
  542MOL0     C71450  10.119  12.042   6.755 -0.1954 -1.0834 -0.4957
  542MOL0     C71451  10.127  11.900   6.823 -0.1110 -0.2177  0.2428
  542MOL0     C71452  10.277  11.859   6.828 -0.1613 -0.9147  0.2102
  542MOL0     C71453  10.291  11.712   6.867 -0.4291 -0.5331 -0.9985
  542MOL0     C71454  10.438  11.675   6.895  0.1896 -0.3929 -1.0101
  542MOL0     C71455  10.472  11.542   6.857 -0.2874  0.3516 -1.5017
  542MOL0    Cl71456  10.377  11.404   6.929  0.0199  0.1596 -0.8890
  542MOL0     C71457   9.578  12.119   6.517  0.2001  0.1723 -0.1901
  542MOL0     C71458   9.497  12.081   6.410  0.3543 -0.3923 -0.4506
  542MOL0     O71459   9.302  11.811   6.397  0.6010  0.5190  0.0440
  542MOL0     C71460   9.261  11.831   6.051  0.0031 -0.3890  0.3297
  542MOL0     C71461   9.161  11.835   5.952 -0.6872 -1.3222  0.6117
  542MOL0     N71462   9.076  11.547   5.588 -0.9489 -0.6141 -0.0005
  542MOL0     N71463   9.163  11.483   5.520 -0.0580  0.5820 -0.1555
  542MOL0     C71464   9.048  11.036   6.306 -0.1973 -0.9010 -0.4090
  542MOL0     C71465   8.993  11.017   6.433  0.0674 -0.6543  0.6186
  542MOL0     C71466   8.873  11.093   6.853  0.1255  0.2948 -0.0088
  542MOL0     C71467   8.776  11.195   6.874 -0.6374 -0.0415 -1.7609
  542MOL0     C71468   8.692  11.191   6.993 -0.0031 -0.2648 -0.1999
  542MOL0     C71469   8.701  11.079   7.088  0.6805  0.1694  0.5091
  542MOL0     O71470   8.629  11.056   7.202  0.7027 -0.0726  0.0046
  542MOL0     C71471   8.548  11.165   7.247  0.2418  0.2778 -0.6094
  542MOL0     C71472   8.509  11.150   7.399  0.7764  0.2785  0.1913
  542MOL0     C71473   8.385  11.241   7.442 -0.3759  0.5979  0.0954
  542MOL0     C71474   8.361  11.250   7.589 -0.1196 -0.3131  0.3786
  542MOL0     C71475   8.293  11.127   7.635 -0.5387 -0.2496 -0.2762
  542MOL0     C71476   8.234  11.039   7.687 -0.4453  0.2580 -0.4408
  542MOL0     C71477   8.793  10.977   7.057 -0.0133 -0.0070 -0.3141
  542MOL0     C71478   8.874  10.985   6.942 -0.7138  0.1393 -0.0258
  542MOL0     H71479   9.267  11.006   6.620 -1.7205  0.3606  0.1957
  542MOL0     H71480   9.384  11.018   6.394  0.1003 -3.8949 -1.1092
  542MOL0     H71481   9.107  10.966   6.021 -1.0502 -1.2208 -1.5487
  542MOL0     H71482   9.175  10.847   6.120 -1.2659  0.8535  0.5247
  542MOL0     H71483   9.316  10.805   5.950  0.5462  0.2390  1.0755
  542MOL0     H71484   9.409  10.943   6.004 -0.3624 -0.5241 -0.1574
  542MOL0     H71485   9.279  11.102   5.848  1.9434  0.1861 -1.6758
  542MOL0     H71486   9.168  10.972   5.820  0.6260 -1.6491  0.4150
  542MOL0     H71487   9.458  10.992   5.722  0.5545  1.0455  0.6916
  542MOL0     H71488   9.372  10.836   5.718 -0.9198  0.5088  2.5732
  542MOL0     H71489   9.195  10.923   5.593 -2.2856  1.5437 -1.5766
  542MOL0     H71490   9.335  10.927   5.490  0.1776 -1.6856  0.6539
  542MOL0     H71491   9.363  11.193   5.534  2.4390 -1.4574 -0.1154
  542MOL0     H71492   9.215  11.166   5.629  2.1102 -3.5852  2.9027
  542MOL0     H71493   9.233  11.077   5.346 -0.0180 -0.2762  0.4894
  542MOL0     H71494   9.083  11.108   5.439 -0.3827  1.6140  2.9824
  542MOL0     H71495   9.130  11.293   5.265  2.2859 -2.5728 -1.6639
  542MOL0     H71496   9.271  11.335   5.353 -0.0795 -0.2013  4.0100
  542MOL0     H71497   8.911  11.308   5.439  1.5341 -2.1323  0.4590
  542MOL0     H71498   8.774  11.443   5.687  1.8834 -3.2286 -1.7850
  542MOL0     H71499   8.742  11.519   5.532  0.3414  4.1561  1.2894
  542MOL0     H71500   8.721  11.713   5.641  1.1653 -0.0568 -1.1289
  542MOL0     H71501   8.902  11.715   5.662 -0.4173  1.7114  2.2887
  542MOL0     H71502   8.698  11.610   5.853  1.4626 -3.1816 -0.9036
  542MOL0     H71503   8.864  11.578   5.859 -2.2929 -3.3411 -0.2899
  542MOL0     H71504   8.791  11.775   6.004 -0.1729 -2.3030 -0.5200
  542MOL0     H71505   8.729  11.854   5.866  0.2520  1.7451  3.4122
  542MOL0     H71506   8.885  11.886   6.139  0.3866 -3.0473  3.3252
  542MOL0     H71507   9.052  11.878   6.317 -2.5024 -0.5489  0.2353
  542MOL0     H71508   9.663  11.827   6.277 -2.2956  0.5559 -0.7921
  542MOL0     H71509   9.803  11.862   6.491 -0.6783  0.8370  0.2344
  542MOL0     H71510   9.946  12.070   6.550 -1.4976 -1.7268 -1.8396
  542MOL0     H71511   9.898  11.925   6.662  0.9439 -0.5016 -0.4714
  542MOL0     H71512   9.924  12.080   6.857  0.3864  0.0247  0.1512
  542MOL0     H71513   9.981  12.203   6.761  0.2843  0.1214  0.4914
  542MOL0     H71514  10.179  12.100   6.826  0.3868 -2.8059  0.4818
  542MOL0     H71515  10.170  12.047   6.659  1.7869 -2.0500  0.4399
  542MOL0     H71516  10.080  11.903   6.922 -0.6952 -2.2458  0.0851
  542MOL0     H71517  10.070  11.831   6.759  1.9877  0.1142 -2.1498
  542MOL0     H71518  10.327  11.916   6.907  1.4356  2.5625 -2.9956
  542MOL0     H71519  10.333  11.879   6.736  2.3864  1.1602  2.0376
  542MOL0     H71520  10.251  11.656   6.781  0.7750  1.9284 -3.3149
  542MOL0     H71521  10.240  11.687   6.960  2.6284 -2.5122  0.3373
  542MOL0     H71522  10.502  11.752   6.851  0.1664  0.8409  0.9514
  542MOL0     H71523  10.464  11.675   7.002 -1.6798  1.6874 -0.4813
  542MOL0     H71524  10.570  11.525   6.902 -1.6627  0.3092  1.7760
  542MOL0     H71525  10.496  11.536   6.751 -0.1468 -0.8555 -1.4158
  542MOL0     H71526   9.566  12.213   6.570 -2.2040  0.5774 -1.3242
  542MOL0     H71527   9.405  12.138   6.405  0.3250 -0.1184  2.0005
  542MOL0     H71528   9.367  11.824   6.032  0.3789  1.9078  1.2935
  542MOL0     H71529   9.192  11.840   5.848  1.5993  1.0848  1.2904
  542MOL0     H71530   8.987  11.048   6.216 -1.9824 -2.9945  0.4297
  542MOL0     H71531   8.887  11.015   6.457  0.1168 -0.1927  0.8963
  542MOL0     H71532   8.770  11.280   6.806  4.0604 -1.2512 -4.1580
  542MOL0     H71533   8.637  11.284   7.006  0.4633  0.4425 -2.7500
  542MOL0     H71534   8.455  11.179   7.190  1.3762  1.3423 -2.3006
  542MOL0     H71535   8.605  11.258   7.236 -0.6792  0.9424  0.0219
  542MOL0     H71536   8.488  11.045   7.422  0.4599  0.1890 -0.4818
  542MOL0     H71537   8.605  11.175   7.446  0.9690 -1.6272  0.9094
  542MOL0     H71538   8.300  11.190   7.398 -0.5811  0.7722  0.2904
  542MOL0     H71539   8.392  11.337   7.390  2.2137 -0.4331 -1.6970
  542MOL0     H71540   8.462  11.270   7.627  0.7340 -0.3294 -1.7618
  542MOL0     H71541   8.297  11.338   7.598 -0.0873 -0.2401 -0.0739
  542MOL0     H71542   8.188  10.965   7.749 -2.3578  0.9822 -0.9220
  542MOL0     H71543   8.800  10.899   7.131  3.2240  2.5664  2.3883
  542MOL0     H71544   8.943  10.907   6.912  1.5699  0.9963  2.6230
  543MOL0     O71545   3.043  10.980   9.619 -0.3276 -0.4018 -0.0394
  543MOL0     C71546   3.043  10.887   9.544 -0.5657  0.2227  0.0896
  543MOL0     O71547   3.138  10.872   9.445  0.0908  0.1525  0.0695
  543MOL0     C71548   3.222  10.969   9.405 -1.6488 -0.5529  0.5447
  543MOL0     C71549   3.208  10.999   9.268 -0.2402 -0.6395 -0.6233
  543MOL0     C71550   3.287  11.101   9.211 -0.4652  0.7614  0.4514
  543MOL0     C71551   3.381  11.177   9.284  0.0738 -0.0488 -0.1187
  543MOL0     O71552   3.468  11.272   9.232  0.6662 -0.1465 -0.5644
  543MOL0     C71553   3.595  11.291   9.288  0.7105  0.2130 -0.9362
  543MOL0     C71554   3.702  11.315   9.179  0.2991  0.1101 -0.2377
  543MOL0     C71555   3.750  11.183   9.132 -0.1735 -0.8037 -0.4383
  543MOL0     C71556   3.829  11.105   9.239 -0.0409 -0.4263 -0.2952
  543MOL0     C71557   3.969  11.053   9.198  0.2501  0.4924 -0.4233
  543MOL0     C71558   4.057  11.007   9.317  0.7200 -0.3125  0.4254
  543MOL0     C71559   3.992  10.898   9.395  0.1364 -0.1934 -0.5186
  543MOL0     C71560   4.093  10.844   9.505  0.5882  0.3497 -0.0474
  543MOL0     N71561   4.186  10.750   9.449 -0.5253 -0.0888 -0.5852
  543MOL0     C71562   4.323  10.764   9.441  0.7324  0.1072  0.4192
  543MOL0     C71563   4.391  10.650   9.429  0.9004 -0.5086 -0.4252
  543MOL0     C71564   4.535  10.632   9.385  0.3690  0.4151  0.2563
  543MOL0     C71565   4.620  10.541   9.461 -1.1718  0.0156  0.7785
  543MOL0     C71566   4.732  10.463   9.379 -0.2212  0.3009  0.6600
  543MOL0     C71567   4.802  10.340   9.454 -0.3745 -1.0470 -0.4434
  543MOL0     O71568   4.715  10.259   9.526 -0.8498  0.1185  0.4246
  543MOL0     C71569   4.771  10.169   9.614 -0.5147  0.5600 -0.0484
  543MOL0     C71570   4.911  10.144   9.632 -0.1786  0.3074 -0.4334
  543MOL0     C71571   4.956  10.051   9.719  0.8109  0.6036 -0.0945
  543MOL0     C71572   4.864   9.956   9.777  0.1970 -0.1545 -0.3916
  543MOL0     C71573   4.925   9.855   9.866 -0.3821 -0.4176 -0.0316
  543MOL0     O71574   4.834   9.774   9.933  0.0040  0.2137 -0.2745
  543MOL0     C71575   4.893   9.698  10.035 -0.5765 -0.0878 -0.0057
  543MOL0     C71576   4.876   9.557  10.014 -0.1933  0.6344  0.2296
  543MOL0     C71577   4.937   9.470  10.106  0.4851 -0.2568 -1.0992
  543MOL0     C71578   5.009   9.506  10.219 -0.7341 -0.8705  0.2230
  543MOL0     O71579   5.061   9.423  10.310  0.6865  0.1012 -0.5549
  543MOL0     C71580   5.003   9.287  10.304  0.0592 -0.7354  0.3133
  543MOL0     C71581   5.013   9.225  10.443  0.4933 -0.6772 -0.2765
  543MOL0     C71582   5.156   9.190  10.486 -0.9383 -0.6143  0.3476
  543MOL0     C71583   5.173   9.143  10.628  1.3281  1.2160  0.2988
  543MOL0     C71584   5.308   9.092  10.660 -0.3216 -1.1169 -0.4713
  543MOL0     C71585   5.294   8.968  10.743 -0.9801 -0.1103  0.0529
  543MOL0     C71586   5.450   8.925  10.770 -0.2406  0.6019 -0.0073
  543MOL0     C71587   5.450   8.820  10.887 -0.0543 -0.3961  0.3830
  543MOL0    Cl71588   5.413   8.653  10.826 -0.0341  0.2459  0.1388
  543MOL0     C71589   5.028   9.650  10.232  0.0652 -0.2324 -0.1896
  543MOL0     C71590   4.959   9.741  10.150 -0.1763  0.5327 -0.1742
  543MOL0     O71591   5.047   9.862   9.890  0.2705 -1.1266  0.6952
  543MOL0     C71592   4.731   9.982   9.762 -0.1847 -0.4409 -0.2337
  543MOL0     C71593   4.682  10.086   9.687 -0.4036  0.0768 -0.4036
  543MOL0     N71594   4.290  10.556   9.436 -0.3789 -0.1744 -1.3433
  543MOL0     N71595   4.177  10.614   9.459  0.0086  1.0251 -0.4217
  543MOL0     C71596   3.389  11.143   9.417 -0.1806 -0.8008 -0.3299
  543MOL0     C71597   3.310  11.045   9.474 -0.7408 -0.5929  0.6407
  543MOL0     C71598   2.939  10.776   9.559 -0.3023 -0.2701  0.5718
  543MOL0     C71599   2.929  10.684   9.450  0.3063  0.2857 -0.3028
  543MOL0     C71600   2.832  10.583   9.447 -0.7289 -0.6251 -0.0090
  543MOL0     C71601   2.743  10.574   9.553 -0.2084 -0.3154  0.0414
  543MOL0     O71602   2.644  10.483   9.558 -0.4523  0.3661  0.3745
  543MOL0     C71603   2.622  10.396   9.440 -0.5842  0.6951  1.1359
  543MOL0     C71604   2.498  10.299   9.475  0.5111  0.4542 -1.0923
  543MOL0     C71605   2.387  10.378   9.551 -0.4498 -0.5409  0.3518
  543MOL0     C71606   2.288  10.268   9.588  0.3090 -0.3304  0.0969
  543MOL0     C71607   2.178  10.326   9.669 -0.7635  1.6436  0.3331
  543MOL0     C71608   2.096  10.391   9.729 -0.2045 -0.0308  0.0460
  543MOL0     C71609   2.740  10.680   9.648 -0.3619 -0.5209  1.0450
  543MOL0     C71610   2.832  10.785   9.649  0.1454  0.4326  0.2318
  543MOL0     H71611   3.140  10.936   9.212 -0.5402 -1.1519  0.2801
  543MOL0     H71612   3.283  11.118   9.104 -0.0884 -0.0421  0.2978
  543MOL0     H71613   3.623  11.217   9.363 -1.0826  1.1863  0.7669
  543MOL0     H71614   3.580  11.382   9.347 -0.0224  0.4373 -1.4613
  543MOL0     H71615   3.784  11.374   9.221  0.7046 -0.6883  0.1167
  543MOL0     H71616   3.655  11.370   9.097  0.6447 -0.8911 -1.1431
  543MOL0     H71617   3.802  11.196   9.037 -0.1166 -0.2410 -0.3323
  543MOL0     H71618   3.661  11.121   9.116 -2.3331  1.8265  0.6527
  543MOL0     H71619   3.841  11.164   9.330 -0.6713  0.7117 -0.9307
  543MOL0     H71620   3.760  11.022   9.260 -1.0518  0.7465  1.2808
  543MOL0     H71621   4.012  11.138   9.145 -1.1277  0.2728 -1.9921
  543MOL0     H71622   3.943  10.970   9.132  1.0199 -0.1668  0.0831
  543MOL0     H71623   4.064  11.097   9.379  1.3994  0.2415 -0.4372
  543MOL0     H71624   4.151  10.973   9.273  0.9757  1.5564 -0.5986
  543MOL0     H71625   3.903  10.937   9.446  1.0249  1.6424 -0.2910
  543MOL0     H71626   3.949  10.828   9.324 -1.1414  0.1501 -0.1086
  543MOL0     H71627   4.033  10.785   9.576 -2.2593 -1.1923 -3.4507
  543MOL0     H71628   4.144  10.924   9.560  0.1832 -0.0205  0.9059
  543MOL0     H71629   4.365  10.863   9.431 -0.3175  0.4871 -0.4182
  543MOL0     H71630   4.570  10.735   9.379  0.5835  0.4031  1.1986
  543MOL0     H71631   4.536  10.597   9.281 -1.6103 -0.4172  0.4685
  543MOL0     H71632   4.558  10.462   9.504  0.7734 -0.4439  2.9723
  543MOL0     H71633   4.663  10.597   9.545 -2.8373  1.4087  0.7498
  543MOL0     H71634   4.690  10.423   9.287  0.3082  0.9989  0.1006
  543MOL0     H71635   4.819  10.524   9.351 -0.4933  1.0109  1.3465
  543MOL0     H71636   4.873  10.380   9.527 -0.8421 -2.3945  0.7901
  543MOL0     H71637   4.871  10.289   9.386  2.5461 -1.7131  2.7534
  543MOL0     H71638   4.989  10.214   9.602  1.4561 -1.1615  0.2495
  543MOL0     H71639   5.061  10.063   9.745  0.0803  0.5029  3.4085
  543MOL0     H71640   4.832   9.515   9.924  1.4842  0.9904 -0.8139
  543MOL0     H71641   4.913   9.365  10.094  0.7015 -0.3805 -0.4804
  543MOL0     H71642   5.048   9.216  10.235 -2.4245 -2.7818  0.6359
  543MOL0     H71643   4.895   9.299  10.288  0.1510 -0.4658 -0.1207
  543MOL0     H71644   4.946   9.139  10.443 -0.5010  0.0736  0.6621
  543MOL0     H71645   4.958   9.292  10.509 -2.1444 -0.9811 -2.0060
  543MOL0     H71646   5.233   9.266  10.466 -0.3039 -1.7317 -1.6792
  543MOL0     H71647   5.185   9.109  10.419  0.6280  0.2470 -0.0632
  543MOL0     H71648   5.140   9.220  10.699  0.3130 -1.6146  3.1088
  543MOL0     H71649   5.107   9.056  10.627  3.6899 -0.6466  0.2550
  543MOL0     H71650   5.379   9.156  10.714  0.0184 -1.7159 -0.1983
  543MOL0     H71651   5.362   9.067  10.568 -0.8398 -5.4394  0.2027
  543MOL0     H71652   5.234   8.891  10.694 -0.4484 -0.6365  0.2219
  543MOL0     H71653   5.254   8.989  10.842  0.0012 -3.1273  1.1947
  543MOL0     H71654   5.489   8.893  10.673 -1.8056  1.2735 -0.9059
  543MOL0     H71655   5.516   9.008  10.797  1.8120 -2.0521  4.2372
  543MOL0     H71656   5.362   8.844  10.947 -0.6215  0.7772 -0.8465
  543MOL0     H71657   5.540   8.824  10.948  0.0232 -1.1272  0.3169
  543MOL0     H71658   5.090   9.685  10.314 -0.5390 -0.5017  0.3924
  543MOL0     H71659   4.973   9.845  10.174  5.8897 -0.2558  1.3619
  543MOL0     H71660   4.671   9.908   9.815 -0.0599  2.3184  4.3398
  543MOL0     H71661   4.575  10.105   9.677 -0.1454  0.5299 -2.7205
  543MOL0     H71662   3.458  11.194   9.483 -0.4291  0.6351 -1.1520
  543MOL0     H71663   3.318  11.014   9.577  0.1397 -0.3460  0.6533
  543MOL0     H71664   3.003  10.692   9.372  1.3463  1.3836  0.7444
  543MOL0     H71665   2.833  10.521   9.358  1.0300 -1.6966  0.7077
  543MOL0     H71666   2.706  10.327   9.431 -0.6210  0.3317  3.1823
  543MOL0     H71667   2.605  10.451   9.347 -2.7542 -0.2081  0.9221
  543MOL0     H71668   2.462  10.253   9.383 -3.9497  1.7191 -0.2129
  543MOL0     H71669   2.535  10.222   9.544 -0.3370 -0.7730 -1.9654
  543MOL0     H71670   2.342  10.450   9.482 -0.5429  3.3630  4.0801
  543MOL0     H71671   2.423  10.430   9.641  0.6552 -1.3444  0.3945
  543MOL0     H71672   2.244  10.222   9.500  1.6502 -1.1356 -0.1851
  543MOL0     H71673   2.339  10.192   9.649 -1.0383 -0.3953  1.1886
  543MOL0     H71674   2.038  10.465   9.781  0.0258  0.7220 -0.7474
  543MOL0     H71675   2.656  10.686   9.717 -0.6931  1.5027  0.5357
  543MOL0     H71676   2.818  10.865   9.721 -0.5098  0.6817 -0.1582
  544MOL0     O71677   0.536   8.904   3.970 -0.2045  0.5242  0.2936
  544MOL0     C71678   0.429   8.852   3.997  1.1189 -0.8444 -0.5048
  544MOL0     O71679   0.411   8.757   4.100  0.0350 -0.8501  0.4054
  544MOL0     C71680   0.527   8.706   4.161  0.6510 -0.1144  0.0033
  544MOL0     C71681   0.525   8.689   4.302  0.1790 -1.0696 -0.2310
  544MOL0     C71682   0.640   8.639   4.366  0.6031  0.2501 -0.3457
  544MOL0     C71683   0.761   8.604   4.298  0.4702  0.3474  0.4958
  544MOL0     O71684   0.876   8.562   4.358  0.4191  0.0058  0.5427
  544MOL0     C71685   0.999   8.599   4.297  0.0595  0.7933 -0.8890
  544MOL0     C71686   1.128   8.592   4.377  0.4275  0.0637 -0.7811
  544MOL0     C71687   1.203   8.728   4.378 -0.4479  0.4985  0.9150
  544MOL0     C71688   1.295   8.733   4.253  0.5342  0.9553 -0.7373
  544MOL0     C71689   1.385   8.868   4.255 -0.2841  1.4205 -0.3614
  544MOL0     C71690   1.490   8.861   4.144 -0.5319  0.6447 -0.3808
  544MOL0     C71691   1.580   8.990   4.125 -0.0068  0.4850 -0.1457
  544MOL0     C71692   1.679   8.998   4.240 -0.3001  0.4619 -0.0610
  544MOL0     N71693   1.794   9.091   4.218  0.2231 -0.2003 -0.0609
  544MOL0     C71694   1.794   9.227   4.252 -0.7491  1.4892 -0.7479
  544MOL0     C71695   1.908   9.268   4.198 -1.4858 -0.4429  0.2928
  544MOL0     C71696   1.971   9.404   4.200  0.4160  0.6112  0.3555
  544MOL0     C71697   1.903   9.496   4.096  0.1801  0.4605 -0.9186
  544MOL0     C71698   1.952   9.637   4.110  0.8063 -1.5729 -0.3887
  544MOL0     C71699   2.088   9.660   4.047 -0.0908 -0.5312  0.2286
  544MOL0     O71700   2.129   9.792   4.075 -0.0734  0.1648 -0.6936
  544MOL0     C71701   2.262   9.813   4.051  0.1508 -0.0683  0.6346
  544MOL0     C71702   2.351   9.867   4.152 -1.1238  0.7010  0.3208
  544MOL0     C71703   2.476   9.914   4.122 -0.0152 -0.3418 -0.4556
  544MOL0     C71704   2.532   9.890   3.998 -0.5046 -0.0931  0.6073
  544MOL0     C71705   2.664   9.946   3.963 -0.0215 -0.8901 -0.4509
  544MOL0     O71706   2.749   9.996   4.057  0.3125 -0.5449 -0.2698
  544MOL0     C71707   2.850  10.083   4.026  0.6759  0.0088 -0.5823
  544MOL0     C71708   2.834  10.221   4.017  0.4557  0.2789 -0.9159
  544MOL0     C71709   2.940  10.310   3.997  0.5257 -0.1423  0.2988
  544MOL0     C71710   3.070  10.267   3.977 -1.5394  0.7447 -0.2683
  544MOL0     O71711   3.155  10.372   3.948 -0.3987 -0.0494 -0.3464
  544MOL0     C71712   3.265  10.351   3.853  0.1842  0.7183  0.4660
  544MOL0     C71713   3.299  10.485   3.791 -0.2701 -0.8985 -0.0581
  544MOL0     C71714   3.313  10.600   3.894  0.6945 -0.8644  0.4520
  544MOL0     C71715   3.429  10.689   3.839  0.6817  0.0588 -0.3631
  544MOL0     C71716   3.462  10.797   3.941  0.6327 -0.2925 -0.4598
  544MOL0     C71717   3.539  10.922   3.883 -0.5609  0.2615 -0.2287
  544MOL0     C71718   3.556  11.028   3.990  0.9403 -0.2898 -0.6394
  544MOL0     C71719   3.435  11.118   4.011  0.8856  0.5324  0.4718
  544MOL0    Cl71720   3.431  11.251   3.887 -0.5696  0.0247  0.1276
  544MOL0     C71721   3.102  10.127   3.990  1.5426  0.1893  0.1035
  544MOL0     C71722   2.985  10.036   4.013 -1.1134  0.0557  1.1654
  544MOL0     O71723   2.681   9.950   3.845  0.5479  0.3383  0.8261
  544MOL0     C71724   2.445   9.850   3.898  0.3888  0.0274 -0.5072
  544MOL0     C71725   2.308   9.810   3.921  0.2122  0.0439  0.1183
  544MOL0     N71726   1.962   9.169   4.119  0.1727  0.2705  0.5311
  544MOL0     N71727   1.904   9.057   4.144  0.3476  0.9828  1.2903
  544MOL0     C71728   0.764   8.622   4.157  0.2465  0.1798  0.8101
  544MOL0     C71729   0.647   8.669   4.091  0.1510  0.0178  0.1811
  544MOL0     C71730   0.313   8.892   3.923  0.7287  0.0932 -0.3664
  544MOL0     C71731   0.187   8.827   3.944  0.3484 -0.4838  0.4096
  544MOL0     C71732   0.070   8.863   3.878 -0.2108 -0.9271  0.4984
  544MOL0     C71733   0.078   8.975   3.786  0.6660 -0.7809 -0.2549
  544MOL0     O71734  -0.031   9.031   3.722 -0.2763 -0.2471  0.4891
  544MOL0     C71735  -0.150   8.952   3.702 -0.3406  1.0689 -0.1890
  544MOL0     C71736  -0.240   9.013   3.601  0.2106  0.5040 -0.3351
  544MOL0     C71737  -0.178   9.029   3.466  0.7986  0.6860 -0.3139
  544MOL0     C71738  -0.260   9.102   3.359 -0.9662 -0.2605 -0.5655
  544MOL0     C71739  -0.177   9.135   3.245 -0.0097  0.0516 -0.4288
  544MOL0     C71740  -0.097   9.172   3.163 -0.0133  0.1976 -1.4258
  544MOL0     C71741   0.197   9.047   3.781 -0.6183 -1.3265  0.8279
  544MOL0     C71742   0.304   9.014   3.854 -0.1738 -1.4108  0.1329
  544MOL0     H71743   0.432   8.712   4.352  0.9625  1.7543  0.0875
  544MOL0     H71744   0.635   8.625   4.474 -1.3786 -1.8791 -0.6482
  544MOL0     H71745   0.990   8.700   4.256 -1.9575  0.1421 -2.2212
  544MOL0     H71746   1.022   8.532   4.214  3.2593  0.5869  0.0399
  544MOL0     H71747   1.212   8.530   4.341  1.1988  1.2654 -1.0996
  544MOL0     H71748   1.113   8.566   4.482  1.0067  0.2386 -0.6538
  544MOL0     H71749   1.270   8.732   4.464 -1.0512  0.9270  1.3700
  544MOL0     H71750   1.136   8.812   4.399 -1.3601 -0.1836  0.7877
  544MOL0     H71751   1.362   8.647   4.240 -1.3019 -0.5631 -0.6084
  544MOL0     H71752   1.233   8.729   4.163  2.5906  0.1576 -2.2142
  544MOL0     H71753   1.443   8.889   4.345  3.0144 -0.7836 -1.7620
  544MOL0     H71754   1.313   8.949   4.258 -0.5456  1.1780 -0.1128
  544MOL0     H71755   1.448   8.838   4.046  2.2466 -2.7525 -0.9680
  544MOL0     H71756   1.563   8.783   4.168 -0.1887  0.8866 -0.6359
  544MOL0     H71757   1.639   8.985   4.033 -0.1786 -1.2033 -0.1933
  544MOL0     H71758   1.533   9.088   4.112 -0.7184  0.0686 -0.7873
  544MOL0     H71759   1.726   8.899   4.254 -0.1975  0.3139 -1.3577
  544MOL0     H71760   1.630   9.020   4.335 -0.2151  2.8168 -0.5164
  544MOL0     H71761   1.720   9.272   4.317 -1.8685  0.7804 -1.4912
  544MOL0     H71762   2.081   9.404   4.202  0.4791 -2.6590  0.8891
  544MOL0     H71763   1.942   9.460   4.289 -0.2919  1.2307 -0.2491
  544MOL0     H71764   1.797   9.477   4.115  0.7820 -1.0773  1.3485
  544MOL0     H71765   1.919   9.453   3.997  3.6945  0.8700 -0.6732
  544MOL0     H71766   1.886   9.711   4.063  2.2611  0.1539  0.1830
  544MOL0     H71767   1.965   9.663   4.216 -0.1335  0.1793 -0.6549
  544MOL0     H71768   2.083   9.642   3.939 -0.3030 -0.1388  0.1705
  544MOL0     H71769   2.159   9.595   4.099 -0.8477  0.5791  2.7900
  544MOL0     H71770   2.324   9.887   4.255  3.0369  0.4443  1.6646
  544MOL0     H71771   2.529   9.951   4.210  0.0739 -2.0256  0.2450
  544MOL0     H71772   2.731  10.255   4.012 -0.0417 -0.9993  0.1614
  544MOL0     H71773   2.916  10.416   4.004 -0.1756 -0.3254  0.7456
  544MOL0     H71774   3.243  10.269   3.784  1.2798 -0.4997  1.5203
  544MOL0     H71775   3.340  10.305   3.918  0.1688 -3.2305 -1.9523
  544MOL0     H71776   3.233  10.501   3.705  1.8481  1.2873 -1.4052
  544MOL0     H71777   3.401  10.467   3.756  0.6382  2.4161  0.5949
  544MOL0     H71778   3.323  10.563   3.996 -1.0732  0.8709  1.3173
  544MOL0     H71779   3.225  10.663   3.903  0.4771 -1.0986  0.0325
  544MOL0     H71780   3.518  10.629   3.818  0.0178 -0.7427 -0.9629
  544MOL0     H71781   3.401  10.735   3.744  3.8132  0.9953 -0.9375
  544MOL0     H71782   3.516  10.750   4.023  1.3348 -0.4674 -1.0091
  544MOL0     H71783   3.371  10.840   3.983  1.4941  0.2029  0.9756
  544MOL0     H71784   3.485  10.953   3.793  0.3597 -2.0850 -1.7030
  544MOL0     H71785   3.635  10.882   3.848 -0.7743  0.8883 -1.5860
  544MOL0     H71786   3.580  10.971   4.080 -1.9215 -2.6251 -1.2236
  544MOL0     H71787   3.637  11.100   3.973  2.1526 -0.7942  2.3480
  544MOL0     H71788   3.450  11.169   4.107 -0.8254  0.7984  0.6259
  544MOL0     H71789   3.340  11.065   4.014  2.1229 -1.8316  3.2131
  544MOL0     H71790   3.201  10.084   3.978  2.2780  1.9346 -0.3692
  544MOL0     H71791   3.020   9.934   4.025  1.9557  0.7645 -0.6851
  544MOL0     H71792   2.472   9.842   3.793 -1.5096 -0.5161 -0.9790
  544MOL0     H71793   2.240   9.770   3.846 -3.0566 -1.1995  3.3979
  544MOL0     H71794   0.842   8.587   4.091  0.8161  1.3639  0.8391
  544MOL0     H71795   0.655   8.669   3.983  1.8351  4.8646  0.0584
  544MOL0     H71796   0.183   8.739   4.007  3.7377 -0.2932  1.0782
  544MOL0     H71797  -0.024   8.808   3.880  1.7345 -4.5793  0.5508
  544MOL0     H71798  -0.200   8.943   3.799 -0.4849  0.1077 -0.3413
  544MOL0     H71799  -0.128   8.853   3.661 -2.8350  0.9079 -1.3615
  544MOL0     H71800  -0.329   8.951   3.593  0.0965  0.5421  0.5671
  544MOL0     H71801  -0.269   9.113   3.637  3.4862  1.0368  1.1656
  544MOL0     H71802  -0.163   8.924   3.443  0.3959 -0.7351  4.7242
  544MOL0     H71803  -0.080   9.077   3.472  2.2406 -2.0916 -0.0303
  544MOL0     H71804  -0.347   9.043   3.327 -2.9834  0.4331  3.1208
  544MOL0     H71805  -0.302   9.197   3.391 -0.4574 -0.0832 -0.4152
  544MOL0     H71806  -0.027   9.209   3.090  0.5594 -0.5747 -1.2827
  544MOL0     H71807   0.205   9.143   3.730  0.4277 -3.4736 -3.5548
  544MOL0     H71808   0.392   9.076   3.845  0.8194 -2.9904 -1.8473
  545MOL0     O71809   3.290   1.547   1.535 -0.1422 -0.3609  1.0717
  545MOL0     C71810   3.396   1.482   1.543 -0.1193 -0.6632 -1.0085
  545MOL0     O71811   3.480   1.446   1.445 -0.2505 -0.5412  0.4030
  545MOL0     C71812   3.455   1.472   1.310  0.4595  0.5488  0.0804
  545MOL0     C71813   3.454   1.371   1.219 -0.9693  0.5182  0.0727
  545MOL0     C71814   3.467   1.392   1.085  0.3266  0.8627  1.3435
  545MOL0     C71815   3.461   1.526   1.030 -0.8893  0.1826  0.1730
  545MOL0     O71816   3.473   1.553   0.899  0.1016  0.6239 -0.0099
  545MOL0     C71817   3.472   1.447   0.804  0.5933  0.8704 -0.5484
  545MOL0     C71818   3.435   1.491   0.672 -0.1995 -0.3476  1.0311
  545MOL0     C71819   3.317   1.595   0.668 -0.2725 -0.1888  0.1636
  545MOL0     C71820   3.279   1.653   0.537 -0.1543  0.2670  0.7042
  545MOL0     C71821   3.174   1.753   0.552  0.8745 -0.5477 -0.1801
  545MOL0     C71822   3.042   1.689   0.591 -0.4052 -0.0187 -0.5883
  545MOL0     C71823   2.929   1.803   0.581 -0.1835 -1.1165 -0.1882
  545MOL0     C71824   2.792   1.736   0.615  0.4483 -0.2570 -0.2185
  545MOL0     N71825   2.670   1.815   0.609  0.2683  0.3988  0.3705
  545MOL0     C71826   2.567   1.802   0.526 -0.4433  0.6751 -0.1286
  545MOL0     C71827   2.482   1.904   0.556  0.3984  0.4156  0.2190
  545MOL0     C71828   2.346   1.916   0.492 -0.0591 -0.0937  0.8449
  545MOL0     C71829   2.245   1.833   0.577 -0.0631 -0.6232 -0.4600
  545MOL0     C71830   2.114   1.809   0.504 -1.2887  0.7592 -0.4961
  545MOL0     C71831   2.033   1.934   0.501  0.4794  0.5357  0.0437
  545MOL0     O71832   1.895   1.897   0.468  0.8260 -0.3137 -0.8331
  545MOL0     C71833   1.805   1.998   0.448  0.5970 -0.4374 -1.1806
  545MOL0     C71834   1.675   1.956   0.423  1.3224 -0.1844  0.0052
  545MOL0     C71835   1.564   2.046   0.399  0.0801  0.7316  0.6862
  545MOL0     C71836   1.583   2.186   0.421  0.0500 -0.4100  0.2121
  545MOL0     C71837   1.475   2.280   0.395 -0.0717  0.3290  0.8648
  545MOL0     O71838   1.354   2.223   0.373 -0.0050 -0.1347 -0.3382
  545MOL0     C71839   1.244   2.291   0.328 -1.3047  0.5269 -0.7390
  545MOL0     C71840   1.228   2.427   0.286  1.1243 -0.1637 -0.6940
  545MOL0     C71841   1.122   2.466   0.209  0.2622  0.3078  0.3551
  545MOL0     C71842   1.012   2.376   0.185 -0.1823 -0.8701 -0.2653
  545MOL0     O71843   0.890   2.417   0.122 -0.9825  0.2043  0.2244
  545MOL0     C71844   0.771   2.374   0.172  0.4835  0.6286  0.2379
  545MOL0     C71845   0.661   2.470   0.133  1.0023 -0.6370  0.0200
  545MOL0     C71846   0.519   2.430   0.179  0.4127 -0.8980  0.0798
  545MOL0     C71847   0.475   2.298   0.119  1.0272  0.2062  0.2980
  545MOL0     C71848   0.314   2.298   0.106 -0.2068 -1.1412 -0.1088
  545MOL0     C71849   0.260   2.299   0.247  0.6177 -0.0996  1.0657
  545MOL0     C71850   0.108   2.272   0.243 -0.6615  0.4797  0.1578
  545MOL0     C71851   0.056   2.184   0.351 -0.4024  0.0548  0.3320
  545MOL0    Cl71852   0.109   2.257   0.493  0.3492 -0.1655 -0.2476
  545MOL0     C71853   1.034   2.246   0.230  0.4979 -0.3742  0.2583
  545MOL0     C71854   1.142   2.208   0.302  0.7152 -0.1736  0.5380
  545MOL0     O71855   1.499   2.402   0.401  0.1794 -0.2684 -0.1359
  545MOL0     C71856   1.712   2.228   0.455  0.1472  0.7612 -0.3902
  545MOL0     C71857   1.819   2.135   0.470 -0.3766  0.5588  0.1279
  545MOL0     N71858   2.540   1.979   0.653 -0.3772  1.0882  0.1960
  545MOL0     N71859   2.656   1.928   0.684 -0.3068 -0.0817 -0.5089
  545MOL0     C71860   3.446   1.638   1.124  0.7171  0.8868  0.5213
  545MOL0     C71861   3.458   1.604   1.259 -0.4677  0.9884 -0.5608
  545MOL0     C71862   3.434   1.422   1.678 -0.3171 -0.1195 -0.0862
  545MOL0     C71863   3.508   1.302   1.696  0.0312 -0.5133 -0.7804
  545MOL0     C71864   3.568   1.281   1.827  1.4145  0.3684  1.7350
  545MOL0     C71865   3.543   1.365   1.940 -0.7532  0.9394 -0.1914
  545MOL0     O71866   3.593   1.342   2.067 -0.1330  0.4239  0.5967
  545MOL0     C71867   3.671   1.220   2.088  0.1310  0.0407  0.5671
  545MOL0     C71868   3.696   1.173   2.228  0.1184 -0.7353 -0.7731
  545MOL0     C71869   3.571   1.156   2.309 -0.0250  0.0259 -0.1772
  545MOL0     C71870   3.611   1.115   2.455  0.0470 -1.3027  0.4596
  545MOL0     C71871   3.673   1.220   2.530 -0.5411 -0.8830  0.7286
  545MOL0     C71872   3.735   1.303   2.592 -0.5311 -0.2934  0.7300
  545MOL0     C71873   3.454   1.475   1.914  0.0667  0.6720 -0.8616
  545MOL0     C71874   3.395   1.497   1.790 -0.1192 -0.5298  0.5642
  545MOL0     H71875   3.440   1.271   1.258  1.9426  0.7839  2.1782
  545MOL0     H71876   3.479   1.308   1.017  1.5156  2.9565 -1.2180
  545MOL0     H71877   3.390   1.376   0.819  0.1379  1.1383 -1.7091
  545MOL0     H71878   3.564   1.389   0.795  0.3366  0.1196  1.2725
  545MOL0     H71879   3.403   1.401   0.618 -0.0266  1.0439 -1.5601
  545MOL0     H71880   3.521   1.530   0.618 -1.4772 -2.1927 -2.7237
  545MOL0     H71881   3.336   1.681   0.734  0.3294  0.0247 -0.2782
  545MOL0     H71882   3.229   1.537   0.697  0.4645 -0.7212  1.3962
  545MOL0     H71883   3.368   1.705   0.501 -0.9549  2.3995  1.6309
  545MOL0     H71884   3.250   1.577   0.465 -0.6870  0.3722  0.8073
  545MOL0     H71885   3.160   1.788   0.449 -0.1885  2.2963  0.8205
  545MOL0     H71886   3.201   1.837   0.616  0.8058 -2.5211  2.5693
  545MOL0     H71887   3.038   1.657   0.696  4.3660  1.1094  0.1524
  545MOL0     H71888   3.021   1.604   0.525  1.2817 -2.1201  1.4001
  545MOL0     H71889   2.951   1.883   0.652 -0.5537  2.8626 -4.1319
  545MOL0     H71890   2.931   1.849   0.482 -2.9858  0.0231  0.1872
  545MOL0     H71891   2.799   1.698   0.717  0.8736 -1.2630 -0.6001
  545MOL0     H71892   2.776   1.650   0.548 -1.2890 -2.2943  2.6156
  545MOL0     H71893   2.539   1.720   0.460 -0.1650 -0.0314  0.6122
  545MOL0     H71894   2.340   1.873   0.392 -0.9040  1.9356 -0.0469
  545MOL0     H71895   2.327   2.023   0.479  2.3802  0.4656  1.3824
  545MOL0     H71896   2.223   1.885   0.671 -1.6286 -2.2543  0.1373
  545MOL0     H71897   2.292   1.742   0.613  0.1983 -0.3194 -0.0294
  545MOL0     H71898   2.136   1.784   0.400  0.2204  1.1802 -0.3023
  545MOL0     H71899   2.056   1.730   0.553 -0.7743 -2.5743 -4.7010
  545MOL0     H71900   2.078   2.006   0.432  2.0723  0.2743  0.7543
  545MOL0     H71901   2.044   1.981   0.600  3.9942 -0.3479  0.2075
  545MOL0     H71902   1.657   1.849   0.416 -0.0091 -0.0226  0.7535
  545MOL0     H71903   1.465   2.011   0.373 -1.4728  2.5048  3.6533
  545MOL0     H71904   1.308   2.501   0.290  0.7015  0.2505  1.7733
  545MOL0     H71905   1.114   2.573   0.189 -1.0752  0.0558 -0.6039
  545MOL0     H71906   0.775   2.363   0.281 -1.7073 -3.3533  0.1250
  545MOL0     H71907   0.760   2.273   0.133  0.0568 -0.7819  3.6502
  545MOL0     H71908   0.658   2.487   0.025  4.2678  2.3707  0.2391
  545MOL0     H71909   0.688   2.567   0.175  1.7353 -0.9064  0.1880
  545MOL0     H71910   0.455   2.510   0.141 -0.3593 -1.3810  0.3285
  545MOL0     H71911   0.512   2.418   0.288 -1.9006 -0.8597 -0.0098
  545MOL0     H71912   0.504   2.281   0.015  0.8198  0.7809  0.1370
  545MOL0     H71913   0.509   2.211   0.176 -2.8231 -0.5074  1.7788
  545MOL0     H71914   0.281   2.213   0.046 -1.6733  0.2386 -1.3360
  545MOL0     H71915   0.274   2.387   0.057  0.4242  0.0172  1.3773
  545MOL0     H71916   0.271   2.401   0.284 -2.4060  0.5117  0.5684
  545MOL0     H71917   0.316   2.229   0.310 -2.2253 -0.8686  2.9314
  545MOL0     H71918   0.058   2.369   0.235 -0.1635  0.8211  1.0058
  545MOL0     H71919   0.086   2.213   0.153  2.0459  0.2168 -0.4411
  545MOL0     H71920   0.090   2.081   0.337 -3.2416 -0.7745 -1.3325
  545MOL0     H71921  -0.053   2.184   0.344 -0.3447  1.5841 -1.2244
  545MOL0     H71922   0.949   2.178   0.223  0.6639 -0.4569 -1.3598
  545MOL0     H71923   1.147   2.106   0.339 -1.3752  0.5808  3.2738
  545MOL0     H71924   1.720   2.331   0.490 -0.1144  1.3616 -2.0001
  545MOL0     H71925   1.917   2.166   0.506 -0.9449  2.5197  0.1253
  545MOL0     H71926   3.464   1.739   1.088 -1.6142  1.0648 -0.3325
  545MOL0     H71927   3.488   1.675   1.335  2.1613  1.9833 -2.3694
  545MOL0     H71928   3.524   1.231   1.616  2.0175 -2.1449  0.9395
  545MOL0     H71929   3.629   1.192   1.839  4.0334  1.5501 -1.3500
  545MOL0     H71930   3.766   1.245   2.040  0.1570  1.5687  1.3601
  545MOL0     H71931   3.630   1.135   2.033 -0.7843  1.2952 -0.7383
  545MOL0     H71932   3.755   1.082   2.236 -1.5902 -1.9296 -1.2555
  545MOL0     H71933   3.744   1.263   2.267 -0.9092 -1.0820  1.4202
  545MOL0     H71934   3.516   1.075   2.259 -0.3953  0.8209 -1.0917
  545MOL0     H71935   3.516   1.250   2.309  0.8168  0.5249 -0.3638
  545MOL0     H71936   3.529   1.074   2.514  1.0318 -3.7476  0.2220
  545MOL0     H71937   3.679   1.031   2.439  0.6641 -1.1291  2.0043
  545MOL0     H71938   3.780   1.368   2.664  0.7617  1.0686 -1.2072
  545MOL0     H71939   3.434   1.529   2.006  2.2877  0.4733 -0.2218
  545MOL0     H71940   3.331   1.584   1.777  0.1412 -0.5930 -1.4088
  546MOL0     O71941   5.141   7.081   7.461 -0.2151 -0.3213  0.6130
  546MOL0     C71942   5.055   7.162   7.486  0.0312  0.5197 -0.4576
  546MOL0     O71943   4.987   7.180   7.610 -0.1968  0.0034 -0.3847
  546MOL0     C71944   5.032   7.092   7.709 -0.3336 -0.4627 -0.2627
  546MOL0     C71945   4.986   6.958   7.735  0.2972 -0.2152  0.5378
  546MOL0     C71946   5.041   6.868   7.832 -0.5994 -0.8056  0.1995
  546MOL0     C71947   5.154   6.912   7.906  0.3673 -0.8216 -0.1670
  546MOL0     O71948   5.234   6.849   7.997 -0.1963  1.0722  0.0819
  546MOL0     C71949   5.245   6.709   7.993 -0.0117 -0.4479  0.5494
  546MOL0     C71950   5.356   6.652   8.077  0.9929 -0.4975  0.2416
  546MOL0     C71951   5.343   6.509   8.119  0.8507  0.2171 -0.4263
  546MOL0     C71952   5.488   6.450   8.149 -0.2890 -0.3547  0.4592
  546MOL0     C71953   5.481   6.296   8.164 -0.1192  0.3353  0.0292
  546MOL0     C71954   5.610   6.236   8.225  0.3322  0.5831 -0.2830
  546MOL0     C71955   5.611   6.077   8.229  0.2470 -0.1557  0.3574
  546MOL0     C71956   5.743   6.015   8.267  0.2669 -0.4328 -0.3027
  546MOL0     N71957   5.843   6.009   8.158  0.0087  0.9749 -0.1600
  546MOL0     C71958   5.859   5.899   8.072 -0.2002 -0.2818 -0.0261
  546MOL0     C71959   5.974   5.929   8.004 -0.2283  0.6207 -1.2436
  546MOL0     C71960   6.037   5.843   7.898  0.8548  0.4974  0.2323
  546MOL0     C71961   6.173   5.804   7.938 -0.5068 -0.2858 -0.0619
  546MOL0     C71962   6.224   5.676   7.863  0.0271  0.5897  0.0151
  546MOL0     C71963   6.371   5.673   7.887 -0.0091 -0.2788 -0.7202
  546MOL0     O71964   6.415   5.554   7.817  0.1740  0.0960 -0.1747
  546MOL0     C71965   6.431   5.437   7.885 -0.1070  0.2035 -1.1607
  546MOL0     C71966   6.423   5.317   7.809 -0.6916 -1.0322  0.1308
  546MOL0     C71967   6.435   5.196   7.872  0.0997  0.7420  0.7534
  546MOL0     C71968   6.466   5.189   8.007  0.3166 -0.0271  0.1243
  546MOL0     C71969   6.506   5.065   8.069  0.3226 -0.8099  0.5179
  546MOL0     O71970   6.576   5.057   8.193  0.5750  1.0739  0.7268
  546MOL0     C71971   6.584   4.923   8.239  0.2099  0.3649 -0.8175
  546MOL0     C71972   6.477   4.879   8.321  0.5000  0.7143 -0.8552
  546MOL0     C71973   6.467   4.749   8.374  0.9248  1.3445 -0.4048
  546MOL0     C71974   6.566   4.667   8.335 -0.5416 -0.5931  0.0730
  546MOL0     O71975   6.561   4.539   8.375  0.9808 -0.8011  0.2378
  546MOL0     C71976   6.438   4.462   8.375 -1.0942 -1.2649  1.0346
  546MOL0     C71977   6.492   4.339   8.320  1.1781  0.4907 -0.2911
  546MOL0     C71978   6.386   4.237   8.290 -0.1817 -0.3688 -0.0485
  546MOL0     C71979   6.356   4.168   8.420  0.8390  0.7739  1.2067
  546MOL0     C71980   6.255   4.052   8.409 -0.5004 -0.5900  0.8572
  546MOL0     C71981   6.303   3.921   8.464  0.2455 -0.6975 -0.0147
  546MOL0     C71982   6.191   3.816   8.461 -0.4716  0.8515 -0.2873
  546MOL0     C71983   6.229   3.709   8.559  0.0051  0.3136 -0.1547
  546MOL0    Cl71984   6.112   3.577   8.552 -0.1381 -0.0881 -0.4684
  546MOL0     C71985   6.675   4.706   8.257 -1.1526 -0.4756 -0.0531
  546MOL0     C71986   6.689   4.832   8.200 -0.2015  0.2680  0.3640
  546MOL0     O71987   6.478   4.973   7.991 -0.4535  0.2160  0.4322
  546MOL0     C71988   6.470   5.304   8.081 -0.1272 -0.5860 -0.0774
  546MOL0     C71989   6.467   5.428   8.020  0.2684 -0.9751  0.1316
  546MOL0     N71990   6.005   6.059   8.026 -0.0787 -0.3987  0.4528
  546MOL0     N71991   5.934   6.104   8.124 -0.6327  0.9393  0.2394
  546MOL0     C71992   5.184   7.049   7.883 -0.1304 -0.0157 -0.6153
  546MOL0     C71993   5.129   7.135   7.792 -0.0712  0.4370  0.3195
  546MOL0     C71994   5.049   7.274   7.387 -0.1369  0.1877  0.8827
  546MOL0     C71995   5.026   7.409   7.432 -0.0447 -0.8091  0.1456
  546MOL0     C71996   5.027   7.512   7.345 -0.9020 -0.3820  0.6305
  546MOL0     C71997   5.017   7.486   7.208  0.3164  0.2485 -0.1970
  546MOL0     O71998   4.998   7.590   7.119  0.9930 -0.0527  0.4890
  546MOL0     C71999   4.855   7.611   7.096  0.6970  0.1548  0.0285
  546MOL0     C72000   4.839   7.649   6.941 -0.1883 -0.1589 -0.3237
  546MOL0     C72001   4.946   7.753   6.897 -0.4541  0.1718  0.1521
  546MOL0     C72002   4.912   7.803   6.747 -1.3676  0.1693  0.9463
  546MOL0     C72003   4.783   7.856   6.723 -0.1100  0.1231  0.2957
  546MOL0     C72004   4.672   7.897   6.699 -0.6565 -0.3764  0.1364
  546MOL0     C72005   5.022   7.354   7.164 -0.0568  0.6586 -0.0194
  546MOL0     C72006   5.057   7.252   7.252  0.0713 -0.7701  0.1592
  546MOL0     H72007   4.901   6.929   7.673  2.0596  1.5979 -3.0335
  546MOL0     H72008   4.994   6.771   7.844  0.3688 -1.0871  1.9881
  546MOL0     H72009   5.273   6.702   7.888  0.6380  3.0448  0.3817
  546MOL0     H72010   5.153   6.652   8.010 -0.5199  1.2452  4.6857
  546MOL0     H72011   5.357   6.703   8.174  0.0723 -2.0492  1.1136
  546MOL0     H72012   5.455   6.670   8.033  3.1380 -5.4671  2.2368
  546MOL0     H72013   5.301   6.440   8.045  2.3195 -2.0421  0.7017
  546MOL0     H72014   5.278   6.497   8.206  2.0146  0.1088  0.4603
  546MOL0     H72015   5.550   6.459   8.060 -1.9726 -0.3451 -0.7555
  546MOL0     H72016   5.538   6.489   8.239 -1.5120  0.8739  0.6349
  546MOL0     H72017   5.467   6.250   8.065 -2.8742  0.1781  0.4129
  546MOL0     H72018   5.390   6.264   8.215 -0.7605  2.0939  0.0514
  546MOL0     H72019   5.621   6.281   8.324 -0.7118  2.8644 -1.1141
  546MOL0     H72020   5.689   6.262   8.154 -0.0322  0.1294 -0.8648
  546MOL0     H72021   5.532   6.044   8.297 -0.9493  3.1503  0.7957
  546MOL0     H72022   5.579   6.046   8.130  1.4897  2.1574 -0.8556
  546MOL0     H72023   5.706   5.915   8.290 -0.4210  0.5789  4.0277
  546MOL0     H72024   5.775   6.059   8.363  1.8173 -3.7824  0.8769
  546MOL0     H72025   5.806   5.805   8.069  1.2411 -1.2414  2.1898
  546MOL0     H72026   6.055   5.894   7.803  2.2565  2.7026  1.5740
  546MOL0     H72027   5.973   5.757   7.878 -0.9588  1.6190  1.0109
  546MOL0     H72028   6.167   5.765   8.040  0.4625 -1.3019 -0.3769
  546MOL0     H72029   6.243   5.888   7.931 -1.7338  0.9161  1.3348
  546MOL0     H72030   6.182   5.582   7.901  1.5730 -0.1715 -0.0848
  546MOL0     H72031   6.200   5.678   7.757  0.1262 -0.9244 -0.0567
  546MOL0     H72032   6.381   5.670   7.996 -1.6009 -0.5519 -0.5551
  546MOL0     H72033   6.426   5.764   7.861  2.3557 -1.5158 -0.2764
  546MOL0     H72034   6.406   5.335   7.703  1.1933  1.8346  0.1894
  546MOL0     H72035   6.416   5.112   7.807  3.1942 -2.0901  3.1435
  546MOL0     H72036   6.393   4.946   8.330 -1.9932 -1.8393 -3.2131
  546MOL0     H72037   6.380   4.718   8.432 -0.5555 -0.2097 -3.2055
  546MOL0     H72038   6.370   4.516   8.308  3.4175  1.6499 -1.8282
  546MOL0     H72039   6.393   4.445   8.473 -2.1224  0.2502  0.8618
  546MOL0     H72040   6.561   4.299   8.396  0.4387 -2.3055 -0.9836
  546MOL0     H72041   6.558   4.354   8.234  4.6439 -0.3133  2.0225
  546MOL0     H72042   6.406   4.166   8.209 -1.0137 -0.1796 -0.4254
  546MOL0     H72043   6.292   4.283   8.261 -0.3072 -1.0785 -0.8243
  546MOL0     H72044   6.451   4.132   8.460 -0.1840 -1.9506  1.3636
  546MOL0     H72045   6.321   4.246   8.488 -0.6537  1.4285 -0.2455
  546MOL0     H72046   6.235   4.027   8.304 -0.0334 -5.7298  1.7338
  546MOL0     H72047   6.168   4.089   8.463 -2.4342  0.6740 -2.8252
  546MOL0     H72048   6.321   3.929   8.572  3.0803 -0.3534 -0.4382
  546MOL0     H72049   6.391   3.890   8.407  1.0295  3.3927 -1.3955
  546MOL0     H72050   6.088   3.853   8.467 -1.0279  0.0886 -3.3618
  546MOL0     H72051   6.192   3.764   8.365 -2.5645 -1.0226  0.6205
  546MOL0     H72052   6.230   3.735   8.665 -1.5474 -0.3306  0.0321
  546MOL0     H72053   6.328   3.672   8.530 -0.7412 -1.9461 -0.0423
  546MOL0     H72054   6.738   4.627   8.216 -1.9464 -2.1919  1.8773
  546MOL0     H72055   6.759   4.856   8.120 -0.5250 -2.0001 -0.6761
  546MOL0     H72056   6.490   5.305   8.188  2.8298 -0.4553 -0.5326
  546MOL0     H72057   6.480   5.509   8.090 -0.7949  1.7225 -2.5767
  546MOL0     H72058   5.275   7.085   7.931  0.7439 -2.8134  0.0308
  546MOL0     H72059   5.159   7.235   7.762  1.0910  0.0812  0.2482
  546MOL0     H72060   5.007   7.417   7.538 -0.7606 -1.3653  0.0708
  546MOL0     H72061   5.011   7.615   7.374  2.4259  0.5556 -0.4702
  546MOL0     H72062   4.820   7.692   7.161  1.9536 -1.1723  2.5011
  546MOL0     H72063   4.797   7.520   7.114  0.0510  0.7549  1.1129
  546MOL0     H72064   4.845   7.558   6.881 -0.1402 -0.8036  0.6541
  546MOL0     H72065   4.736   7.686   6.928 -0.9977 -2.9864 -3.6471
  546MOL0     H72066   5.045   7.707   6.901 -1.8035 -2.9896  1.1403
  546MOL0     H72067   4.943   7.841   6.962  1.4424  0.6525 -0.3605
  546MOL0     H72068   4.989   7.871   6.709 -0.4593 -1.2203  0.1633
  546MOL0     H72069   4.918   7.713   6.684 -3.2779  0.0050  0.9685
  546MOL0     H72070   4.570   7.930   6.696 -0.3791  0.4942  0.2808
  546MOL0     H72071   5.009   7.317   7.062  0.4340  0.9128 -0.1802
  546MOL0     H72072   5.072   7.147   7.227  2.5391 -0.5139  0.3260
  547MOL0     O72073   0.893   2.155   7.716 -0.1769 -0.6738 -0.2502
  547MOL0     C72074   0.965   2.081   7.655 -0.7064  0.2195 -0.1845
  547MOL0     O72075   1.097   2.096   7.633  0.2536  0.3479 -0.8047
  547MOL0     C72076   1.143   2.223   7.605  0.7084 -0.4415  0.4567
  547MOL0     C72077   1.075   2.297   7.503 -0.9205 -0.5683  0.4950
  547MOL0     C72078   1.129   2.419   7.467  0.1037 -0.9692  0.7604
  547MOL0     C72079   1.247   2.468   7.526 -0.8254  0.5420  0.2917
  547MOL0     O72080   1.303   2.578   7.480  0.6050  0.6486 -0.6522
  547MOL0     C72081   1.416   2.573   7.388 -0.4583  0.3387 -0.3633
  547MOL0     C72082   1.514   2.682   7.423 -0.6308  0.2284 -0.2030
  547MOL0     C72083   1.632   2.683   7.320  0.7809 -0.2533  0.1353
  547MOL0     C72084   1.596   2.761   7.192 -0.1127  0.0657 -0.3851
  547MOL0     C72085   1.715   2.746   7.094 -0.7147 -0.2761  0.1575
  547MOL0     C72086   1.672   2.825   6.965  0.5458 -0.1363  0.4531
  547MOL0     C72087   1.736   2.755   6.849 -0.0772 -0.9573 -0.5630
  547MOL0     C72088   1.887   2.778   6.852  1.3270 -1.0422 -0.2705
  547MOL0     N72089   1.936   2.729   6.724  0.8337  0.7810  0.3657
  547MOL0     C72090   1.924   2.799   6.605 -0.5552 -0.5823 -0.7736
  547MOL0     C72091   1.954   2.718   6.502 -0.0119 -0.8489 -0.3473
  547MOL0     C72092   1.948   2.748   6.362  1.2540 -0.0355  0.2130
  547MOL0     C72093   2.003   2.894   6.315  0.5748 -0.1066  0.1408
  547MOL0     C72094   1.903   3.009   6.342 -0.1642  0.0615 -0.1011
  547MOL0     C72095   1.785   2.996   6.238 -0.2802 -0.2795 -0.0447
  547MOL0     O72096   1.689   3.102   6.271  0.4658  0.1498 -0.2158
  547MOL0     C72097   1.606   3.088   6.374  0.1692 -0.7342 -0.9295
  547MOL0     C72098   1.596   2.986   6.466 -0.3648  0.6863  0.1328
  547MOL0     C72099   1.504   2.984   6.572  0.4610 -0.5100 -0.5732
  547MOL0     C72100   1.443   3.109   6.615  0.0321 -0.1437  0.6765
  547MOL0     C72101   1.388   3.121   6.750  0.2443 -0.8797 -0.1401
  547MOL0     O72102   1.365   3.008   6.825  0.3059  0.2114 -0.5167
  547MOL0     C72103   1.307   3.011   6.950  0.2556  1.1405  1.1426
  547MOL0     C72104   1.272   2.883   6.995  0.3120 -0.3560 -0.6888
  547MOL0     C72105   1.201   2.868   7.111  0.4272  0.7110 -1.2164
  547MOL0     C72106   1.163   2.974   7.191 -0.3968  0.0300  0.6032
  547MOL0     O72107   1.085   2.959   7.300  0.5873 -1.2412  0.2155
  547MOL0     C72108   1.098   2.852   7.389 -0.7192 -0.2625 -0.2629
  547MOL0     C72109   1.004   2.881   7.505  0.1133  0.5682 -1.3186
  547MOL0     C72110   1.049   2.987   7.601  0.0926 -0.1925 -0.4601
  547MOL0     C72111   0.937   2.991   7.710  0.0823  0.1383 -0.9442
  547MOL0     C72112   0.956   3.120   7.790 -0.1330  0.0918  0.1338
  547MOL0     C72113   1.099   3.132   7.851  0.2642  0.6337  0.1916
  547MOL0     C72114   1.125   3.028   7.959 -0.2704 -0.0004 -0.9147
  547MOL0     C72115   1.274   3.016   7.998  1.8681 -0.2512 -0.6899
  547MOL0    Cl72116   1.273   2.925   8.152  0.4565  0.1239 -0.2265
  547MOL0     C72117   1.203   3.103   7.152  0.3518  0.1293 -0.1927
  547MOL0     C72118   1.273   3.126   7.027  0.8400  0.2574 -0.4528
  547MOL0     O72119   1.338   3.231   6.771 -1.2849 -0.5932  1.1357
  547MOL0     C72120   1.468   3.225   6.527 -0.4552 -0.0293 -0.9778
  547MOL0     C72121   1.552   3.210   6.414  0.4116  0.5747  0.2327
  547MOL0     N72122   1.986   2.596   6.556  0.0563 -0.3004 -0.0808
  547MOL0     N72123   1.985   2.605   6.684  0.2117 -0.0221 -0.4945
  547MOL0     C72124   1.314   2.398   7.618 -1.0105  0.1301  0.2923
  547MOL0     C72125   1.255   2.276   7.661  0.2323 -0.0753  0.1604
  547MOL0     C72126   0.919   1.939   7.658 -0.2896 -0.7349  0.8053
  547MOL0     C72127   0.991   1.827   7.603 -0.7266  0.0812 -0.2198
  547MOL0     C72128   0.956   1.691   7.609  0.0927  0.9249 -0.0730
  547MOL0     C72129   0.842   1.667   7.679 -0.7028 -0.0244 -0.3062
  547MOL0     O72130   0.822   1.526   7.682  0.4604  0.4209  0.5050
  547MOL0     C72131   0.698   1.472   7.726  0.2267  0.1193  1.2514
  547MOL0     C72132   0.736   1.324   7.762  0.7462 -1.0801  0.6439
  547MOL0     C72133   0.817   1.314   7.896 -0.3984  0.3594 -0.3021
  547MOL0     C72134   0.884   1.164   7.897 -0.5238 -0.1534  0.3198
  547MOL0     C72135   0.960   1.152   8.014 -0.5207 -0.3585  0.6727
  547MOL0     C72136   1.016   1.142   8.117  0.1131 -0.1374 -1.3456
  547MOL0     C72137   0.765   1.768   7.744  0.0485  0.2822 -0.5503
  547MOL0     C72138   0.801   1.901   7.732 -0.2969 -0.6159 -0.6775
  547MOL0     H72139   0.989   2.253   7.451  2.3244 -3.4272 -3.1045
  547MOL0     H72140   1.086   2.478   7.386  2.6485 -1.2654 -0.9209
  547MOL0     H72141   1.382   2.579   7.284  0.2859 -1.8822 -0.7954
  547MOL0     H72142   1.476   2.483   7.407  2.9524  2.5002 -0.0483
  547MOL0     H72143   1.542   2.658   7.525  1.7256 -1.2470 -1.1080
  547MOL0     H72144   1.454   2.774   7.418 -0.5957  0.2024 -1.9263
  547MOL0     H72145   1.664   2.580   7.302  0.4036 -0.6594  1.6101
  547MOL0     H72146   1.721   2.727   7.366 -1.6030  3.0631  2.0627
  547MOL0     H72147   1.510   2.715   7.143  0.7650 -1.9873 -0.1416
  547MOL0     H72148   1.574   2.866   7.211 -1.5747  0.0608 -1.8900
  547MOL0     H72149   1.724   2.638   7.083 -0.9485 -0.2535 -0.2702
  547MOL0     H72150   1.806   2.794   7.131  0.4467  0.8645 -3.7394
  547MOL0     H72151   1.700   2.931   6.967 -2.6328  0.8141  0.2535
  547MOL0     H72152   1.565   2.815   6.943  1.2357 -3.1879 -2.3318
  547MOL0     H72153   1.721   2.647   6.855  2.6407 -1.3782  0.0473
  547MOL0     H72154   1.684   2.782   6.757 -2.8492  0.7340  1.3594
  547MOL0     H72155   1.937   2.739   6.941  0.4103  2.3737  1.9173
  547MOL0     H72156   1.901   2.886   6.864 -0.3163 -0.9535  1.2814
  547MOL0     H72157   1.884   2.899   6.607 -0.3029 -0.4678 -1.2770
  547MOL0     H72158   1.843   2.738   6.333  1.0485  2.3468 -0.0750
  547MOL0     H72159   2.009   2.671   6.314  0.4596  0.9231 -2.5036
  547MOL0     H72160   2.018   2.897   6.207  1.0393  0.4212  0.2179
  547MOL0     H72161   2.095   2.911   6.372  1.5253 -1.9653 -0.7635
  547MOL0     H72162   1.864   3.011   6.444  1.6261  0.2124  0.6056
  547MOL0     H72163   1.954   3.104   6.322  0.9781 -0.9805 -2.6396
  547MOL0     H72164   1.740   2.897   6.250  1.4095 -1.2773 -1.4449
  547MOL0     H72165   1.836   3.003   6.142 -0.1615 -0.8596 -0.0294
  547MOL0     H72166   1.657   2.896   6.463 -0.7384  0.2938  2.5356
  547MOL0     H72167   1.490   2.896   6.633 -1.9798 -1.4894 -2.4009
  547MOL0     H72168   1.321   2.794   6.956  4.2132  1.1055  0.3496
  547MOL0     H72169   1.187   2.767   7.149  2.4204  0.6830 -0.4600
  547MOL0     H72170   1.199   2.835   7.427 -0.8304 -1.6653 -0.5413
  547MOL0     H72171   1.052   2.767   7.337 -2.4290  1.3958 -1.5875
  547MOL0     H72172   0.996   2.788   7.562  2.6497 -0.0823 -1.8888
  547MOL0     H72173   0.907   2.903   7.460 -0.1251  0.5581 -0.8107
  547MOL0     H72174   1.060   3.086   7.556  0.7331 -0.4141 -0.7959
  547MOL0     H72175   1.144   2.954   7.643 -1.0557 -3.7545 -0.3477
  547MOL0     H72176   0.840   2.998   7.661  0.8985  0.1412 -2.6208
  547MOL0     H72177   0.951   2.902   7.772  1.7339  0.4345 -0.8293
  547MOL0     H72178   0.885   3.122   7.873 -1.4688  2.3826 -0.9679
  547MOL0     H72179   0.954   3.207   7.724  0.5790 -0.1389 -0.2039
  547MOL0     H72180   1.106   3.227   7.906  0.1514  1.1919 -0.7319
  547MOL0     H72181   1.173   3.142   7.771 -0.4428  0.4776 -0.4880
  547MOL0     H72182   1.066   3.041   8.051 -2.0429  0.6458 -2.0928
  547MOL0     H72183   1.101   2.927   7.926  1.3970  0.3215 -3.3933
  547MOL0     H72184   1.317   3.114   8.018  2.1536 -0.4135 -0.4917
  547MOL0     H72185   1.331   2.972   7.916 -1.1414 -1.4369 -2.2982
  547MOL0     H72186   1.169   3.169   7.231  0.0237 -0.2889  0.0193
  547MOL0     H72187   1.269   3.230   6.998  0.6488  0.1835 -0.6900
  547MOL0     H72188   1.417   3.315   6.559 -0.2071 -0.7601  1.7465
  547MOL0     H72189   1.573   3.297   6.353 -0.7656  2.2053  2.0530
  547MOL0     H72190   1.404   2.441   7.661  0.4581 -1.8148 -0.6966
  547MOL0     H72191   1.302   2.212   7.735 -1.6532 -1.1935  0.4487
  547MOL0     H72192   1.082   1.842   7.547 -0.1968 -0.0786  0.5845
  547MOL0     H72193   1.009   1.613   7.555 -3.8399 -0.7261 -1.9922
  547MOL0     H72194   0.613   1.490   7.659 -0.3735  0.3023  2.0414
  547MOL0     H72195   0.675   1.523   7.820 -2.2635 -0.3231  0.9717
  547MOL0     H72196   0.640   1.272   7.763  0.7903 -1.1841  2.7577
  547MOL0     H72197   0.807   1.277   7.692  0.8520  0.1313 -0.0911
  547MOL0     H72198   0.749   1.315   7.982  0.3583 -0.4858  0.3201
  547MOL0     H72199   0.897   1.388   7.901 -1.3035  1.3183  0.8397
  547MOL0     H72200   0.804   1.088   7.896  1.0165 -1.8584 -0.8450
  547MOL0     H72201   0.948   1.155   7.809 -1.6049 -1.7734 -0.3571
  547MOL0     H72202   1.052   1.148   8.218 -1.8756  2.8450 -0.6733
  547MOL0     H72203   0.676   1.733   7.796  0.1948 -1.6093 -1.5141
  547MOL0     H72204   0.737   1.969   7.788  0.7966 -0.7901  0.8584
  548MOL0     O72205   3.054   5.225   0.354 -0.8333 -0.0093  0.6008
  548MOL0     C72206   2.929   5.217   0.356  0.6587 -1.1019  0.5510
  548MOL0     O72207   2.845   5.239   0.259 -0.5786 -0.8250 -0.1284
  548MOL0     C72208   2.881   5.286   0.133 -0.1456  0.0267  0.0137
  548MOL0     C72209   3.005   5.337   0.086 -0.8165 -0.2848 -0.6354
  548MOL0     C72210   3.034   5.377  -0.041 -0.1902 -0.3570  0.2673
  548MOL0     C72211   2.942   5.363  -0.138 -0.6810 -0.0635  0.7583
  548MOL0     O72212   2.956   5.405  -0.275 -0.3147 -0.9088 -0.1410
  548MOL0     C72213   3.088   5.394  -0.336 -0.0886  0.5920  0.2179
  548MOL0     C72214   3.066   5.419  -0.486 -0.4435  0.3067  0.1848
  548MOL0     C72215   3.213   5.401  -0.555 -0.1284 -0.4174 -0.4543
  548MOL0     C72216   3.203   5.417  -0.707  0.6895  0.2033  0.6409
  548MOL0     C72217   3.200   5.562  -0.766  0.3755 -0.0640  0.7398
  548MOL0     C72218   3.168   5.549  -0.915 -0.0707 -0.3845 -0.1372
  548MOL0     C72219   3.179   5.682  -0.998 -0.1289  0.1175  0.1848
  548MOL0     C72220   3.079   5.784  -0.946 -0.1097  0.3035  2.1476
  548MOL0     N72221   3.030   5.876  -1.048  0.2558  0.3097  0.6480
  548MOL0     C72222   3.027   5.857  -1.192  0.1815 -0.6293 -0.5254
  548MOL0     C72223   3.004   5.983  -1.241 -0.2224  1.6459  0.1340
  548MOL0     C72224   3.012   6.011  -1.394  1.2920 -0.2537 -0.7350
  548MOL0     C72225   2.881   6.088  -1.428  0.4927 -0.6928  0.3925
  548MOL0     C72226   2.769   5.989  -1.428 -0.9405 -0.1050 -0.0834
  548MOL0     C72227   2.632   6.047  -1.483 -0.6055  0.6657 -0.3587
  548MOL0     O72228   2.536   5.938  -1.477  0.0214  0.1120 -0.1429
  548MOL0     C72229   2.403   5.973  -1.501 -0.5508  1.1490  0.4916
  548MOL0     C72230   2.304   5.868  -1.492 -0.8661 -0.7785 -0.2980
  548MOL0     C72231   2.168   5.892  -1.499  0.4938 -0.4893 -0.3818
  548MOL0     C72232   2.120   6.019  -1.509  0.6826 -0.1492 -0.2138
  548MOL0     C72233   1.972   6.048  -1.508 -0.1169  0.0537  0.7690
  548MOL0     O72234   1.878   5.952  -1.494 -0.0582 -0.1496 -0.6639
  548MOL0     C72235   1.746   5.986  -1.507 -0.0112  0.3161 -0.9604
  548MOL0     C72236   1.686   6.086  -1.435 -0.6504  0.6393 -0.1997
  548MOL0     C72237   1.554   6.115  -1.457  0.4461 -0.2118 -0.1695
  548MOL0     C72238   1.468   6.023  -1.527 -0.3549 -0.4351 -1.0938
  548MOL0     O72239   1.338   6.032  -1.549  0.3295 -0.6395  0.4118
  548MOL0     C72240   1.269   6.128  -1.470  0.4320  0.6260  1.0821
  548MOL0     C72241   1.123   6.115  -1.506 -0.4100  0.1262 -0.3963
  548MOL0     C72242   1.095   6.167  -1.646  0.2275  0.4117 -0.1226
  548MOL0     C72243   0.945   6.188  -1.685  0.2859  0.7428  0.2724
  548MOL0     C72244   0.913   6.242  -1.827 -0.1083 -0.0313 -0.7838
  548MOL0     C72245   0.955   6.379  -1.859 -0.6836 -1.0211 -0.7952
  548MOL0     C72246   0.889   6.437  -1.987 -0.2327  0.6672 -0.0775
  548MOL0     C72247   0.935   6.575  -2.027 -0.3663 -0.2734  0.4626
  548MOL0    Cl72248   0.818   6.638  -2.149 -0.1523 -0.4242  0.1912
  548MOL0     C72249   1.521   5.914  -1.579  0.3559 -0.2564  1.5632
  548MOL0     C72250   1.660   5.898  -1.576 -0.5665  0.6747  0.4568
  548MOL0     O72251   1.945   6.166  -1.543 -0.6900 -0.3559  0.0649
  548MOL0     C72252   2.216   6.121  -1.512 -0.8828 -0.3480  0.1153
  548MOL0     C72253   2.354   6.099  -1.509 -0.8158 -0.5215 -0.5806
  548MOL0     N72254   2.976   6.059  -1.137 -0.6346  0.1763  0.2151
  548MOL0     N72255   2.990   6.006  -1.028  0.6186 -0.4244  0.1765
  548MOL0     C72256   2.811   5.336  -0.095 -0.5104  0.4929 -0.4038
  548MOL0     C72257   2.783   5.291   0.034 -0.1994  0.2935  0.5667
  548MOL0     C72258   2.869   5.169   0.488  1.0261 -1.2788 -0.7904
  548MOL0     C72259   2.737   5.193   0.515  0.7591  0.1001 -0.5305
  548MOL0     C72260   2.676   5.137   0.630 -0.1500  0.0853 -0.4728
  548MOL0     C72261   2.750   5.078   0.731 -0.5681  0.4979 -0.8046
  548MOL0     O72262   2.675   5.046   0.847  0.1248  0.0881 -0.4828
  548MOL0     C72263   2.708   4.927   0.919  0.0259 -0.1754  0.0454
  548MOL0     C72264   2.657   4.802   0.844 -0.1881 -1.0597  0.6135
  548MOL0     C72265   2.498   4.798   0.841 -0.9422  0.0979  0.5118
  548MOL0     C72266   2.439   4.803   0.978 -0.6844  0.6537  1.1400
  548MOL0     C72267   2.289   4.793   0.976  0.2176 -0.5973  0.4114
  548MOL0     C72268   2.171   4.804   0.979  0.4903  1.0018 -0.3474
  548MOL0     C72269   2.883   5.056   0.712  0.0998  0.4868 -0.5397
  548MOL0     C72270   2.936   5.098   0.588 -0.3246 -0.2459  0.6177
  548MOL0     H72271   3.089   5.358   0.152 -2.2866 -3.7744  2.7715
  548MOL0     H72272   3.140   5.390  -0.064 -0.2592 -1.2852 -0.6853
  548MOL0     H72273   3.132   5.296  -0.318  3.3609  1.6586 -1.5118
  548MOL0     H72274   3.155   5.470  -0.295  1.7400 -1.0910  0.5138
  548MOL0     H72275   3.033   5.522  -0.504  1.6069  0.7927 -1.2503
  548MOL0     H72276   2.994   5.343  -0.516 -1.8956  2.0648 -1.0053
  548MOL0     H72277   3.268   5.309  -0.531  0.4138 -0.9470 -3.4114
  548MOL0     H72278   3.279   5.472  -0.505 -0.4746  0.8928 -1.7958
  548MOL0     H72279   3.291   5.372  -0.753 -0.2061  0.2273 -1.2069
  548MOL0     H72280   3.116   5.366  -0.750  1.3076 -0.6064  0.3281
  548MOL0     H72281   3.294   5.613  -0.744  1.4603 -2.5249  2.3000
  548MOL0     H72282   3.121   5.624  -0.721 -2.0123  0.7163 -3.9379
  548MOL0     H72283   3.060   5.535  -0.909 -0.1201 -0.9357 -1.9258
  548MOL0     H72284   3.213   5.458  -0.956 -2.1044 -1.4217 -0.1744
  548MOL0     H72285   3.284   5.711  -0.986  0.5121 -1.3362 -1.4847
  548MOL0     H72286   3.165   5.653  -1.102  1.5315 -1.5979  0.3839
  548MOL0     H72287   3.128   5.844  -0.868  2.3471  1.6295 -0.2553
  548MOL0     H72288   2.984   5.739  -0.915 -1.9277  1.1119 -1.6759
  548MOL0     H72289   3.060   5.764  -1.236  3.3253  0.4415 -0.6467
  548MOL0     H72290   3.004   5.918  -1.451  0.6684 -1.1310  0.7400
  548MOL0     H72291   3.099   6.076  -1.412 -1.0547  3.2617 -0.3459
  548MOL0     H72292   2.904   6.134  -1.525  1.5050 -1.4155  0.2832
  548MOL0     H72293   2.853   6.168  -1.359 -3.6271 -0.4525 -1.2216
  548MOL0     H72294   2.798   5.913  -1.501  1.7599  2.5086 -1.9252
  548MOL0     H72295   2.754   5.938  -1.332 -1.9052  4.0997  2.2587
  548MOL0     H72296   2.642   6.088  -1.584 -1.0024  3.2828  0.5872
  548MOL0     H72297   2.605   6.134  -1.424  1.3380  1.6676 -0.8662
  548MOL0     H72298   2.332   5.764  -1.475 -0.2795 -0.4389  0.9204
  548MOL0     H72299   2.098   5.810  -1.491 -0.5472  0.3691 -0.6144
  548MOL0     H72300   1.735   6.150  -1.362 -2.1268  0.0751  1.3566
  548MOL0     H72301   1.507   6.204  -1.414  0.1138 -0.7111  0.5222
  548MOL0     H72302   1.304   6.232  -1.470  2.8361  0.0448  4.8310
  548MOL0     H72303   1.276   6.080  -1.372  3.0163 -0.9711  0.2222
  548MOL0     H72304   1.070   6.178  -1.434 -0.3089  0.4056 -0.5612
  548MOL0     H72305   1.091   6.011  -1.501 -1.8050  0.5723  0.5917
  548MOL0     H72306   1.145   6.098  -1.714  2.3963  2.0891 -0.3094
  548MOL0     H72307   1.149   6.261  -1.658 -1.2624  1.4725  1.0295
  548MOL0     H72308   0.885   6.098  -1.670  0.0618  0.2983 -2.6928
  548MOL0     H72309   0.897   6.259  -1.617 -1.8597 -0.6475  0.3294
  548MOL0     H72310   0.805   6.249  -1.839  0.0589  0.7290 -2.0845
  548MOL0     H72311   0.949   6.172  -1.903  0.0586 -0.6000 -0.1869
  548MOL0     H72312   1.061   6.375  -1.884 -0.3935 -0.8016  0.3317
  548MOL0     H72313   0.943   6.453  -1.779  2.6090 -0.1442 -0.9899
  548MOL0     H72314   0.903   6.364  -2.068 -1.8643 -1.2283  1.2409
  548MOL0     H72315   0.781   6.437  -1.971 -0.0708  0.5205  1.1430
  548MOL0     H72316   1.035   6.568  -2.071 -1.7604 -2.7495 -2.6595
  548MOL0     H72317   0.933   6.657  -1.954 -2.4196  1.7388 -1.6734
  548MOL0     H72318   1.469   5.856  -1.654  0.1270  2.3501 -0.4287
  548MOL0     H72319   1.688   5.813  -1.637 -2.1010 -1.9282  3.0845
  548MOL0     H72320   2.178   6.223  -1.520 -2.2413 -0.9520 -1.9802
  548MOL0     H72321   2.416   6.188  -1.514  0.7584 -1.3994  1.8907
  548MOL0     H72322   2.734   5.324  -0.170  0.1685 -1.4677 -0.8359
  548MOL0     H72323   2.675   5.287   0.042 -0.3105  2.8434  0.8887
  548MOL0     H72324   2.679   5.261   0.454  0.1484 -0.6136 -0.7536
  548MOL0     H72325   2.572   5.152   0.656  0.0730  1.0040 -0.0705
  548MOL0     H72326   2.663   4.932   1.018 -0.0935 -1.3291  0.0620
  548MOL0     H72327   2.814   4.912   0.940 -0.1680 -1.0673  0.4215
  548MOL0     H72328   2.711   4.792   0.749  0.6847 -0.3835  1.0216
  548MOL0     H72329   2.693   4.713   0.897  2.9936 -0.2880  0.0118
  548MOL0     H72330   2.467   4.715   0.776 -0.6736  0.5896 -0.2658
  548MOL0     H72331   2.468   4.881   0.776 -0.5072 -0.5698 -0.5811
  548MOL0     H72332   2.473   4.734   1.055 -0.1877 -1.2464 -0.6897
  548MOL0     H72333   2.446   4.909   1.005  2.5093  1.5544 -2.3488
  548MOL0     H72334   2.066   4.820   0.967  0.4064 -0.5050 -2.2599
  548MOL0     H72335   2.943   5.002   0.784 -1.7127  2.9607  3.1361
  548MOL0     H72336   3.033   5.061   0.556 -2.7615 -4.9437 -2.4003
  549MOL0     O72337   8.722   9.322   5.187 -0.6435  0.9845 -0.4931
  549MOL0     C72338   8.844   9.327   5.224 -0.0322 -0.9158  1.5220
  549MOL0     O72339   8.946   9.369   5.142  0.1363 -0.5899 -0.1099
  549MOL0     C72340   8.910   9.381   5.008 -0.1541 -0.1771 -0.4043
  549MOL0     C72341   8.891   9.270   4.933 -0.0626  0.2281  0.2086
  549MOL0     C72342   8.848   9.283   4.799 -0.4482  0.3565 -0.2672
  549MOL0     C72343   8.849   9.413   4.739  0.2786  0.8323 -1.0628
  549MOL0     O72344   8.830   9.429   4.610 -0.3786  0.1704 -0.0782
  549MOL0     C72345   8.838   9.312   4.529 -0.3660 -0.5159 -0.1786
  549MOL0     C72346   8.832   9.338   4.379  0.7579  0.7514  0.3508
  549MOL0     C72347   8.950   9.421   4.333 -0.4415  0.3007  0.1277
  549MOL0     C72348   8.971   9.404   4.183  0.3660  0.1907  0.1779
  549MOL0     C72349   9.053   9.524   4.133 -0.6686  0.7667  0.0559
  549MOL0     C72350   9.186   9.561   4.204  0.1162 -1.1757 -1.3852
  549MOL0     C72351   9.301   9.459   4.206  0.0123 -0.1750 -0.4789
  549MOL0     C72352   9.324   9.404   4.065  0.3250 -0.1345  0.3395
  549MOL0     N72353   9.452   9.331   4.060 -0.1220 -0.9600 -0.3911
  549MOL0     C72354   9.460   9.194   4.068  0.3524  0.3514 -0.7613
  549MOL0     C72355   9.589   9.154   4.062  0.1927  0.1166  0.5759
  549MOL0     C72356   9.658   9.019   4.097  0.9568  0.3304  0.4919
  549MOL0     C72357   9.565   8.894   4.067  0.4048  0.0603 -0.1662
  549MOL0     C72358   9.649   8.771   4.037 -0.0231 -0.6396  1.1627
  549MOL0     C72359   9.589   8.637   4.076 -0.1529  0.1352  0.3809
  549MOL0     O72360   9.678   8.523   4.068  1.1590 -0.2189  0.0800
  549MOL0     C72361   9.624   8.400   4.088 -0.0637 -0.2494 -0.1991
  549MOL0     C72362   9.715   8.293   4.070 -0.0382 -0.1079  0.1122
  549MOL0     C72363   9.670   8.160   4.074  0.3642  0.8679 -0.3896
  549MOL0     C72364   9.539   8.122   4.111 -0.5128 -0.4235 -0.4194
  549MOL0     C72365   9.500   7.972   4.126  0.1375  0.1038  0.6843
  549MOL0     O72366   9.367   7.946   4.102 -0.8477 -0.4084 -0.6362
  549MOL0     C72367   9.322   7.824   4.092  0.0071 -0.0679  0.2010
  549MOL0     C72368   9.238   7.807   3.986 -0.5053  0.7344 -0.1035
  549MOL0     C72369   9.173   7.687   3.963 -0.3488  0.3054  0.1458
  549MOL0     C72370   9.197   7.576   4.053  0.4593 -0.3777  0.0045
  549MOL0     O72371   9.136   7.448   4.038 -0.0593 -1.0220 -0.4206
  549MOL0     C72372   9.084   7.415   3.904  0.5650  0.5472 -0.7519
  549MOL0     C72373   9.006   7.288   3.913  0.5240  0.8318  0.6139
  549MOL0     C72374   8.933   7.241   3.779  0.5913 -0.2182  0.0547
  549MOL0     C72375   9.031   7.209   3.667 -0.7126 -0.5010 -1.4155
  549MOL0     C72376   9.032   7.305   3.540 -1.0002  0.1541  1.0642
  549MOL0     C72377   8.881   7.307   3.486 -0.9478  0.7775  0.9752
  549MOL0     C72378   8.891   7.379   3.350 -0.0445  0.5198 -0.4286
  549MOL0     C72379   8.910   7.535   3.365  0.3153  0.8208  0.7699
  549MOL0    Cl72380   8.952   7.595   3.208  0.4828 -0.5553  0.1693
  549MOL0     C72381   9.297   7.586   4.152 -0.6958 -0.3537  0.2955
  549MOL0     C72382   9.358   7.708   4.167  0.2043 -0.5369 -0.5084
  549MOL0     O72383   9.586   7.891   4.149 -0.6389  0.3300  0.8430
  549MOL0     C72384   9.452   8.231   4.143 -0.4710 -0.2954  0.5539
  549MOL0     C72385   9.493   8.367   4.121  0.3711  0.1437 -0.4374
  549MOL0     N72386   9.654   9.272   4.050 -1.5825 -0.0669  0.4706
  549MOL0     N72387   9.579   9.380   4.050  0.2583 -0.0263 -0.7660
  549MOL0     C72388   8.874   9.524   4.819  0.2220  0.6302 -0.9766
  549MOL0     C72389   8.897   9.516   4.959 -0.4602  0.7530  0.1926
  549MOL0     C72390   8.879   9.265   5.350  0.1847 -0.4239 -0.2326
  549MOL0     C72391   8.788   9.198   5.423  0.2552  0.8263 -0.0152
  549MOL0     C72392   8.826   9.143   5.551 -0.4564  0.3071 -0.5586
  549MOL0     C72393   8.951   9.169   5.610  0.0084 -0.2144  0.7625
  549MOL0     O72394   8.979   9.123   5.739  0.5811  0.1078  0.7200
  549MOL0     C72395   9.047   8.994   5.757 -0.5837  0.8236 -0.7050
  549MOL0     C72396   9.111   8.972   5.892 -0.1730 -0.4566  0.4240
  549MOL0     C72397   9.020   8.982   6.018 -0.2884 -0.2525  0.5494
  549MOL0     C72398   9.077   9.069   6.130  0.4328 -0.2755 -0.3546
  549MOL0     C72399   9.205   9.026   6.191 -0.6824 -0.2605 -1.3417
  549MOL0     C72400   9.310   8.988   6.244 -0.1812  0.8483 -0.0057
  549MOL0     C72401   9.038   9.240   5.525  0.6756 -0.8120 -0.1002
  549MOL0     C72402   9.008   9.277   5.392  0.6567 -0.5466  0.2710
  549MOL0     H72403   8.910   9.172   4.974  2.1520  0.2511 -0.6530
  549MOL0     H72404   8.818   9.188   4.756  0.8815 -0.0049 -0.4399
  549MOL0     H72405   8.748   9.254   4.551  0.7808 -1.3117  2.9312
  549MOL0     H72406   8.926   9.253   4.558 -0.1049 -0.8157 -1.4674
  549MOL0     H72407   8.736   9.386   4.355  0.0334 -0.6515  0.3374
  549MOL0     H72408   8.823   9.243   4.326 -1.6575  1.3948 -0.5733
  549MOL0     H72409   9.042   9.400   4.387 -1.4430 -2.1662  1.0057
  549MOL0     H72410   8.929   9.527   4.353  0.7154  0.4120  0.8434
  549MOL0     H72411   9.011   9.305   4.159 -3.1373 -1.2073 -0.5101
  549MOL0     H72412   8.870   9.405   4.142 -0.5021 -3.9388  1.7373
  549MOL0     H72413   8.986   9.609   4.152 -0.6439  0.9157 -0.5152
  549MOL0     H72414   9.060   9.505   4.026 -1.8833  0.7548 -0.0339
  549MOL0     H72415   9.170   9.593   4.308  0.2586  0.1276 -1.7498
  549MOL0     H72416   9.227   9.656   4.169  1.0501 -1.7831 -1.9824
  549MOL0     H72417   9.396   9.503   4.237 -0.5102 -0.4178  1.6338
  549MOL0     H72418   9.276   9.373   4.269 -2.5395  1.4195  0.8526
  549MOL0     H72419   9.343   9.485   3.995  0.2523 -0.3729  0.0411
  549MOL0     H72420   9.247   9.336   4.028 -0.5805  0.3503  1.2883
  549MOL0     H72421   9.374   9.136   4.100 -0.4834  0.9664 -1.7989
  549MOL0     H72422   9.688   9.027   4.202  1.1344  1.5470  0.3676
  549MOL0     H72423   9.750   8.999   4.042 -0.3457 -1.1924 -1.2396
  549MOL0     H72424   9.505   8.915   3.978 -0.3327  0.4873  0.4199
  549MOL0     H72425   9.495   8.874   4.149  1.0296  0.6661  0.5341
  549MOL0     H72426   9.667   8.763   3.930  1.3016 -2.8662  1.4776
  549MOL0     H72427   9.746   8.780   4.088  1.0267 -0.6682 -0.7467
  549MOL0     H72428   9.505   8.616   4.010 -1.0610  0.1997  1.5018
  549MOL0     H72429   9.542   8.649   4.174 -1.8093  1.7439 -0.5397
  549MOL0     H72430   9.816   8.330   4.056  0.1753 -0.1524  1.4176
  549MOL0     H72431   9.746   8.083   4.065  0.3246  1.0329 -2.5966
  549MOL0     H72432   9.202   7.894   3.932 -4.2521 -2.0912 -2.6608
  549MOL0     H72433   9.084   7.686   3.901  0.5801  0.1839 -1.2291
  549MOL0     H72434   9.163   7.425   3.829 -0.3107  2.0880 -1.5266
  549MOL0     H72435   9.011   7.493   3.878  0.4250  0.8105  0.3526
  549MOL0     H72436   8.930   7.294   3.992 -1.4027  3.6473 -1.2721
  549MOL0     H72437   9.066   7.200   3.939 -2.2959 -2.1072 -1.8925
  549MOL0     H72438   8.867   7.326   3.758  2.2727  1.8380  2.4670
  549MOL0     H72439   8.876   7.151   3.805  0.5431 -0.8580 -2.1031
  549MOL0     H72440   9.127   7.204   3.719 -2.9544 -1.6821  3.1339
  549MOL0     H72441   9.000   7.109   3.634  3.3157 -2.0097 -1.1713
  549MOL0     H72442   9.113   7.281   3.470 -0.1425 -1.4447  2.5117
  549MOL0     H72443   9.046   7.409   3.572 -2.0516  1.2182 -1.6535
  549MOL0     H72444   8.821   7.357   3.562  3.0209  2.6156  3.1936
  549MOL0     H72445   8.855   7.201   3.472 -0.8864  0.9477 -0.6803
  549MOL0     H72446   8.975   7.331   3.298 -1.4247  0.0551 -2.3401
  549MOL0     H72447   8.808   7.363   3.281  0.8488  0.2995 -1.4848
  549MOL0     H72448   8.990   7.567   3.433  0.9686 -0.5036  0.6753
  549MOL0     H72449   8.816   7.579   3.397 -1.7970 -0.3598 -3.1507
  549MOL0     H72450   9.315   7.506   4.224 -0.3342  0.1844  0.8145
  549MOL0     H72451   9.431   7.728   4.244  1.4680 -0.7647 -1.6148
  549MOL0     H72452   9.346   8.215   4.161 -0.4713 -0.4851  0.3917
  549MOL0     H72453   9.419   8.446   4.132 -0.5281 -0.9576  2.4086
  549MOL0     H72454   8.870   9.629   4.789 -0.3526  1.8693  2.9016
  549MOL0     H72455   8.925   9.593   5.031  0.5651 -0.4905  1.1887
  549MOL0     H72456   8.683   9.190   5.396 -0.3311  0.4375  2.2143
  549MOL0     H72457   8.757   9.084   5.612  0.0267  2.1023  1.8743
  549MOL0     H72458   9.124   8.974   5.682 -1.3361 -2.4432 -0.7485
  549MOL0     H72459   8.978   8.911   5.742 -0.1331  0.7958 -2.9598
  549MOL0     H72460   9.151   8.870   5.894  1.1224  0.0376  1.9971
  549MOL0     H72461   9.201   9.034   5.893 -0.8617  0.5690  0.0816
  549MOL0     H72462   9.004   8.881   6.058  0.1897  0.4195  2.5611
  549MOL0     H72463   8.923   9.016   5.982 -0.1277 -0.0792  0.2724
  549MOL0     H72464   9.089   9.167   6.084 -0.8655  0.2745  0.4210
  549MOL0     H72465   8.998   9.068   6.206  0.9059 -1.9939  0.1695
  549MOL0     H72466   9.400   8.961   6.296 -1.7613 -2.3678  1.3382
  549MOL0     H72467   9.144   9.252   5.542  0.9710 -3.2430  0.0558
  549MOL0     H72468   9.090   9.316   5.333  0.8714 -1.7850 -0.2729
  550MOL0     O72469   8.382   2.993   8.943  0.0398  0.1278  1.0833
  550MOL0     C72470   8.455   3.053   8.869 -0.7991  0.4721  0.4808
  550MOL0     O72471   8.558   3.139   8.911  0.1509  0.8369 -0.0278
  550MOL0     C72472   8.562   3.156   9.049  1.1133  0.1099 -0.0826
  550MOL0     C72473   8.504   3.269   9.111  0.6701 -0.5139 -0.4802
  550MOL0     C72474   8.492   3.284   9.248  0.0940 -0.3805 -0.7753
  550MOL0     C72475   8.550   3.191   9.331  0.4365  0.2698 -0.4023
  550MOL0     O72476   8.570   3.214   9.466 -0.0673  0.5344  0.6189
  550MOL0     C72477   8.477   3.168   9.569 -1.3029  0.4089  0.3400
  550MOL0     C72478   8.551   3.088   9.678 -1.2866  0.3390  0.3756
  550MOL0     C72479   8.564   2.949   9.623  0.0620 -0.2132 -0.1805
  550MOL0     C72480   8.651   2.866   9.706 -0.8323 -0.8771 -1.4332
  550MOL0     C72481   8.684   2.732   9.645  0.0083  0.3196 -0.6506
  550MOL0     C72482   8.820   2.670   9.692 -0.0295 -0.3527 -0.3722
  550MOL0     C72483   8.822   2.666   9.847  1.2347  0.2277 -0.1459
  550MOL0     C72484   8.939   2.597   9.915 -0.3736  1.3340  0.4513
  550MOL0     N72485   9.062   2.677   9.905 -0.2267  0.3423 -0.4465
  550MOL0     C72486   9.108   2.773  10.000 -0.6349 -0.2275  0.5356
  550MOL0     C72487   9.229   2.819   9.958 -0.0366  0.2436 -0.3236
  550MOL0     C72488   9.313   2.915  10.026 -0.3315 -0.5292 -0.5229
  550MOL0     C72489   9.470   2.887  10.022 -0.2001 -0.0686 -0.2445
  550MOL0     C72490   9.545   3.008  10.084 -0.2059  0.6175  0.2205
  550MOL0     C72491   9.694   2.991  10.057 -0.0693 -0.0484  0.1582
  550MOL0     O72492   9.767   2.956  10.181  0.4000  0.2753  0.6106
  550MOL0     C72493   9.786   3.045  10.276  0.4416 -1.0500 -0.7772
  550MOL0     C72494   9.745   3.178  10.272 -0.4021  0.6655  0.0523
  550MOL0     C72495   9.774   3.270  10.367  0.6842  0.0488  0.6551
  550MOL0     C72496   9.848   3.226  10.483  0.0896 -0.3297 -0.2133
  550MOL0     C72497   9.884   3.330  10.585  0.5609  0.0293  0.1074
  550MOL0     O72498   9.942   3.284  10.708  0.3703  0.6494  0.0256
  550MOL0     C72499  10.000   3.369  10.805 -0.3639  0.5540  0.4045
  550MOL0     C72500   9.995   3.330  10.940 -0.3045  0.1837  0.3393
  550MOL0     C72501  10.059   3.398  11.041 -0.0506 -0.2716  0.1828
  550MOL0     C72502  10.117   3.526  11.007 -0.2491  0.5804  0.0491
  550MOL0     O72503  10.180   3.606  11.101  0.9167  0.2759 -0.5036
  550MOL0     C72504  10.243   3.732  11.078  0.8786 -0.2895 -0.1291
  550MOL0     C72505  10.252   3.818  11.212  0.0264  1.1586  0.8563
  550MOL0     C72506  10.376   3.785  11.295 -1.2453  0.2384  0.0861
  550MOL0     C72507  10.392   3.852  11.433 -0.0643  0.3264 -0.4945
  550MOL0     C72508  10.509   3.804  11.511  0.8768 -0.9058  0.5074
  550MOL0     C72509  10.650   3.811  11.454 -0.7602 -0.4858 -0.0511
  550MOL0     C72510  10.682   3.956  11.430  0.1002 -0.6177 -0.6778
  550MOL0     C72511  10.823   3.963  11.363 -0.0262 -0.9742 -0.2917
  550MOL0    Cl72512  10.814   3.990  11.187  0.3026  0.6880 -0.0164
  550MOL0     C72513  10.110   3.574  10.875 -0.7832  0.8367 -0.8777
  550MOL0     C72514  10.048   3.491  10.776 -0.6972  0.0230 -0.3508
  550MOL0     O72515   9.877   3.445  10.550 -0.3653 -0.2548 -0.0733
  550MOL0     C72516   9.880   3.089  10.491  0.5277  1.0730  0.2060
  550MOL0     C72517   9.857   3.006  10.396  0.4460  0.4129  0.4609
  550MOL0     N72518   9.255   2.753   9.839  0.4055  0.2409 -0.2431
  550MOL0     N72519   9.164   2.669   9.813  0.0765  0.4720  0.0077
  550MOL0     C72520   8.624   3.085   9.272  0.1669 -0.4868 -0.8369
  550MOL0     C72521   8.614   3.065   9.135  0.3264  0.5672 -0.3263
  550MOL0     C72522   8.435   3.046   8.728 -0.1287 -0.5529  0.7266
  550MOL0     C72523   8.301   3.016   8.678  0.3861 -0.5228  0.8999
  550MOL0     C72524   8.275   3.034   8.545 -0.5736  0.2054 -0.2365
  550MOL0     C72525   8.370   3.087   8.456  0.0104  0.4043 -0.6198
  550MOL0     O72526   8.344   3.098   8.326  0.1227  0.5304  0.6010
  550MOL0     C72527   8.298   2.987   8.249  0.4014  0.4591  0.7131
  550MOL0     C72528   8.419   2.921   8.179 -0.6161  0.6855  0.4711
  550MOL0     C72529   8.482   2.811   8.275  0.5076  0.7080  0.4702
  550MOL0     C72530   8.623   2.753   8.231  0.1044 -0.6056  0.2232
  550MOL0     C72531   8.595   2.692   8.094 -0.4581  0.2481 -0.5961
  550MOL0     C72532   8.594   2.659   7.973 -0.5530  0.3325 -0.2486
  550MOL0     C72533   8.495   3.123   8.506  0.3683 -0.4902  0.5058
  550MOL0     C72534   8.529   3.104   8.642  0.3840  0.0541  0.3716
  550MOL0     H72535   8.480   3.347   9.039  2.9670 -0.4558 -1.2597
  550MOL0     H72536   8.463   3.378   9.294  2.3521  0.0123 -0.0320
  550MOL0     H72537   8.400   3.110   9.517  2.2224 -2.3457 -2.3528
  550MOL0     H72538   8.429   3.253   9.618 -1.2961  2.3376 -2.7088
  550MOL0     H72539   8.484   3.092   9.764 -0.1445  5.4576  1.3887
  550MOL0     H72540   8.646   3.142   9.691 -0.6312 -0.0485 -2.2363
  550MOL0     H72541   8.605   2.956   9.521  2.3923 -2.3864  0.4869
  550MOL0     H72542   8.465   2.905   9.607 -0.0397  0.0739 -0.3482
  550MOL0     H72543   8.739   2.924   9.736 -2.8016  1.7005 -0.2679
  550MOL0     H72544   8.589   2.853   9.796 -2.2918 -0.7321 -2.3895
  550MOL0     H72545   8.675   2.735   9.536  0.4354  0.5355 -0.6836
  550MOL0     H72546   8.606   2.660   9.673 -2.2157  3.1762  1.1763
  550MOL0     H72547   8.905   2.729   9.659  0.2105 -0.2040  0.4809
  550MOL0     H72548   8.838   2.569   9.655 -2.2186 -0.5897 -0.9554
  550MOL0     H72549   8.827   2.770   9.880 -1.8184  2.1055 -4.6908
  550MOL0     H72550   8.724   2.636   9.885 -0.1443  2.4988 -1.7213
  550MOL0     H72551   8.955   2.501   9.864  0.0341  2.2809 -1.2680
  550MOL0     H72552   8.923   2.570  10.019  1.7677  2.3265  1.1031
  550MOL0     H72553   9.058   2.810  10.090  0.1285 -0.5722  1.1063
  550MOL0     H72554   9.279   2.929  10.129 -1.3211 -1.5741 -0.6867
  550MOL0     H72555   9.286   3.008   9.976 -0.0741 -0.9864 -1.5363
  550MOL0     H72556   9.486   2.861   9.917 -0.6552 -1.0277 -0.0798
  550MOL0     H72557   9.485   2.799  10.085  0.0915  0.2423  0.1308
  550MOL0     H72558   9.505   3.093  10.029  1.0207  1.2911  0.3206
  550MOL0     H72559   9.514   3.024  10.187 -1.5623  1.5920 -0.3178
  550MOL0     H72560   9.734   3.080  10.009  0.4347  1.0868  2.5124
  550MOL0     H72561   9.700   2.904   9.991  0.2666  0.6047 -0.6860
  550MOL0     H72562   9.671   3.204  10.197 -2.0778 -1.2990  0.9276
  550MOL0     H72563   9.734   3.369  10.347 -4.8403 -1.7616  0.8901
  550MOL0     H72564   9.945   3.240  10.973 -1.3967  0.8203  0.4560
  550MOL0     H72565  10.053   3.361  11.143 -0.6751 -1.1754 -0.1770
  550MOL0     H72566  10.177   3.797  11.019 -1.1599 -0.5426  1.7324
  550MOL0     H72567  10.342   3.720  11.033 -0.1763 -1.4767 -2.2622
  550MOL0     H72568  10.161   3.802  11.270 -2.5506  1.8542 -2.6381
  550MOL0     H72569  10.261   3.922  11.182  1.3494  0.8975  0.2721
  550MOL0     H72570  10.466   3.806  11.236  0.3765  0.6205  2.5395
  550MOL0     H72571  10.372   3.682  11.330  1.2980 -0.2620 -0.8420
  550MOL0     H72572  10.390   3.961  11.429 -1.0485  0.3323 -0.2890
  550MOL0     H72573  10.310   3.831  11.502  1.5499  0.3617  1.5161
  550MOL0     H72574  10.481   3.703  11.542 -1.0265 -0.7735 -0.6304
  550MOL0     H72575  10.499   3.874  11.594 -0.7762 -0.0787 -0.3405
  550MOL0     H72576  10.643   3.747  11.365 -1.8091  1.8454 -1.7607
  550MOL0     H72577  10.727   3.788  11.527  2.0762  4.0752 -1.2140
  550MOL0     H72578  10.609   4.000  11.362 -0.7918 -0.2483  0.4956
  550MOL0     H72579  10.703   4.009  11.523 -0.6085  0.7322 -1.2587
  550MOL0     H72580  10.890   3.876  11.366 -1.0924 -1.9973 -2.8874
  550MOL0     H72581  10.875   4.051  11.402 -0.3576 -1.4130  1.1987
  550MOL0     H72582  10.133   3.670  10.830  0.8554  0.7382 -0.3003
  550MOL0     H72583  10.047   3.542  10.680 -2.2056 -0.8573 -0.8439
  550MOL0     H72584   9.941   3.057  10.575 -1.5542 -1.3721  0.9361
  550MOL0     H72585   9.892   2.903  10.400 -1.1196 -0.1208  2.2088
  550MOL0     H72586   8.685   3.014   9.328 -1.9137 -0.0976  2.1712
  550MOL0     H72587   8.652   2.978   9.082 -1.8851 -0.7262  0.0695
  550MOL0     H72588   8.220   2.980   8.741  0.4649 -0.0226  1.2940
  550MOL0     H72589   8.177   3.022   8.501 -0.9986  1.2700  0.3839
  550MOL0     H72590   8.225   3.028   8.178  0.2665  0.1893  0.6955
  550MOL0     H72591   8.250   2.909   8.307  1.4903 -1.7489 -1.1786
  550MOL0     H72592   8.377   2.863   8.096  2.9378 -0.2293 -0.8497
  550MOL0     H72593   8.498   2.974   8.126  1.6215 -1.9957  0.8996
  550MOL0     H72594   8.415   2.724   8.274  1.3181  0.0253 -1.8718
  550MOL0     H72595   8.498   2.855   8.374  4.3034 -2.6870  1.6289
  550MOL0     H72596   8.697   2.834   8.232 -0.4656 -0.0440 -0.9845
  550MOL0     H72597   8.652   2.674   8.301 -1.3877 -1.1394  0.2657
  550MOL0     H72598   8.578   2.629   7.872 -3.4297 -1.5744  0.6428
  550MOL0     H72599   8.575   3.170   8.450 -1.1350  2.6785  0.7515
  550MOL0     H72600   8.626   3.136   8.679 -0.9140  1.5448  2.7031
  551MOL0     O72601   3.589   2.507  10.183 -0.1898 -0.4314 -0.1437
  551MOL0     C72602   3.663   2.481  10.087 -0.1768  0.0195  0.8541
  551MOL0     O72603   3.790   2.419  10.105  0.1292  0.0545 -0.2882
  551MOL0     C72604   3.833   2.385  10.233  0.4437 -0.0174  0.6308
  551MOL0     C72605   3.788   2.266  10.293  0.0907 -0.0882  0.6652
  551MOL0     C72606   3.845   2.228  10.416 -0.0440 -0.7731 -0.3720
  551MOL0     C72607   3.948   2.298  10.468  0.0259 -0.3875  0.1430
  551MOL0     O72608   3.999   2.245  10.581  0.1528  0.6510  0.1098
  551MOL0     C72609   4.138   2.242  10.595 -1.1466  0.0440 -0.5258
  551MOL0     C72610   4.177   2.248  10.741  0.0543 -0.2586  0.6005
  551MOL0     C72611   4.117   2.156  10.846  0.3738 -0.0841  0.9333
  551MOL0     C72612   4.158   2.006  10.832 -0.7684 -0.0359 -0.5592
  551MOL0     C72613   4.055   1.914  10.896 -0.8013  0.2151  0.3984
  551MOL0     C72614   4.081   1.764  10.872  0.6712  0.2113  0.1736
  551MOL0     C72615   3.998   1.706  10.752  0.1547  0.2007  0.5162
  551MOL0     C72616   4.031   1.565  10.729 -0.6554  0.0065 -0.7131
  551MOL0     N72617   4.001   1.505  10.607  0.1438  0.1198 -0.2070
  551MOL0     C72618   3.870   1.513  10.559  0.4554 -0.4341  0.8093
  551MOL0     C72619   3.884   1.444  10.439 -0.4952  0.0257  0.2661
  551MOL0     C72620   3.781   1.427  10.345 -0.6478  0.5398 -0.5727
  551MOL0     C72621   3.759   1.273  10.328 -0.1912 -1.0308 -0.3332
  551MOL0     C72622   3.607   1.239  10.307 -0.7650 -0.2151  0.1705
  551MOL0     C72623   3.603   1.085  10.301  0.4079  0.1444 -1.5004
  551MOL0     O72624   3.621   1.034  10.437  0.3426 -0.2422 -0.3434
  551MOL0     C72625   3.510   0.979  10.495  0.7639  0.1972  0.9295
  551MOL0     C72626   3.385   1.038  10.503  0.1023 -0.3449 -0.4870
  551MOL0     C72627   3.276   0.963  10.547 -0.0052 -0.0167 -0.1174
  551MOL0     C72628   3.284   0.838  10.610  0.3254 -1.1703  0.5817
  551MOL0     C72629   3.154   0.782  10.658  0.4130  0.5855 -0.0980
  551MOL0     O72630   3.035   0.846  10.626  0.2390  1.1344 -0.1082
  551MOL0     C72631   2.910   0.815  10.669  0.7726 -0.1604  0.1698
  551MOL0     C72632   2.860   0.695  10.721  0.5371  0.2677  0.0560
  551MOL0     C72633   2.728   0.682  10.763 -0.2249  0.6868 -0.2047
  551MOL0     C72634   2.638   0.786  10.728  0.8987 -0.0534 -0.2761
  551MOL0     O72635   2.515   0.783  10.785  1.0219 -0.7683 -0.1083
  551MOL0     C72636   2.440   0.696  10.692  0.4777 -0.1862 -0.4931
  551MOL0     C72637   2.288   0.702  10.709 -0.4380  0.5771  1.0982
  551MOL0     C72638   2.223   0.792  10.612  0.4361  1.0287 -0.5026
  551MOL0     C72639   2.285   0.936  10.585 -0.3089  0.0139  0.5825
  551MOL0     C72640   2.211   1.003  10.473 -0.1437 -0.3469 -0.4409
  551MOL0     C72641   2.070   1.065  10.523  0.3527 -0.1081 -0.9348
  551MOL0     C72642   1.987   1.107  10.395  0.1821 -0.3013  1.0622
  551MOL0     C72643   1.845   1.167  10.434  0.2592  0.4015  0.3378
  551MOL0    Cl72644   1.763   1.045  10.524 -0.3328  0.2872 -0.0682
  551MOL0     C72645   2.675   0.889  10.652 -0.4714 -0.1121  0.0485
  551MOL0     C72646   2.813   0.910  10.644 -0.5471  1.0945  0.2474
  551MOL0     O72647   3.167   0.696  10.748  0.1032  0.1730 -0.2162
  551MOL0     C72648   3.414   0.780  10.624  0.4459 -0.6935 -0.1143
  551MOL0     C72649   3.520   0.848  10.554 -0.3693  0.2617 -0.4549
  551MOL0     N72650   4.006   1.392  10.423 -0.4087  0.8246  0.7817
  551MOL0     N72651   4.077   1.426  10.530  0.2155 -0.3198  0.4310
  551MOL0     C72652   3.998   2.420  10.407  0.5514  0.8117  0.6245
  551MOL0     C72653   3.932   2.467  10.295 -0.0512 -1.0144 -0.5270
  551MOL0     C72654   3.631   2.488   9.958  0.6478 -0.7879 -0.2804
  551MOL0     C72655   3.684   2.408   9.854 -0.5497 -0.4337  0.0323
  551MOL0     C72656   3.635   2.408   9.723  0.5727  0.2714 -0.6240
  551MOL0     C72657   3.533   2.496   9.691  0.1087  0.9106  0.2959
  551MOL0     O72658   3.479   2.514   9.563 -0.2829  0.2050 -0.2123
  551MOL0     C72659   3.538   2.430   9.466  0.4579  0.2408  1.1109
  551MOL0     C72660   3.491   2.444   9.312 -0.1724 -0.5377 -0.5183
  551MOL0     C72661   3.571   2.347   9.216 -1.2420  1.0334 -0.1827
  551MOL0     C72662   3.517   2.351   9.073 -0.3263  0.2007 -0.2353
  551MOL0     C72663   3.616   2.320   8.975  0.4102 -0.3790  0.3407
  551MOL0     C72664   3.711   2.295   8.903  0.2849  0.0764  0.5385
  551MOL0     C72665   3.481   2.578   9.794 -0.0062 -0.0268  0.8685
  551MOL0     C72666   3.527   2.577   9.928 -1.0856 -1.0343  0.2496
  551MOL0     H72667   3.711   2.200  10.256  0.2872 -0.6446  1.2276
  551MOL0     H72668   3.801   2.150  10.478 -0.3824  1.7704  2.8371
  551MOL0     H72669   4.193   2.320  10.541  1.6119 -1.8654 -0.6829
  551MOL0     H72670   4.177   2.158  10.537 -0.7617 -0.2403  0.1348
  551MOL0     H72671   4.147   2.351  10.764 -1.9253 -0.4634 -0.7888
  551MOL0     H72672   4.286   2.249  10.747  0.1890 -0.2310 -1.3565
  551MOL0     H72673   4.009   2.158  10.826  0.3027  1.8133  1.2668
  551MOL0     H72674   4.137   2.194  10.947 -1.1197  0.2846  1.1247
  551MOL0     H72675   4.174   1.981  10.726 -2.5418  3.0339 -1.6816
  551MOL0     H72676   4.249   2.008  10.892 -2.2690  0.6868  1.8209
  551MOL0     H72677   3.963   1.947  10.847 -0.2775 -1.0674 -1.5814
  551MOL0     H72678   4.063   1.922  11.005  1.1469 -0.9764  0.3994
  551MOL0     H72679   4.057   1.703  10.960 -3.6935 -0.9642 -1.5731
  551MOL0     H72680   4.187   1.747  10.849  0.3650 -4.8568  1.3697
  551MOL0     H72681   3.890   1.712  10.766 -0.6565 -4.9949 -1.2846
  551MOL0     H72682   4.026   1.770  10.667 -0.9378 -2.0313 -1.6664
  551MOL0     H72683   3.973   1.512  10.805 -3.3462  0.3158 -2.4354
  551MOL0     H72684   4.135   1.538  10.751 -1.1564 -0.5641  1.1420
  551MOL0     H72685   3.799   1.583  10.602  1.1859  0.2954  0.8461
  551MOL0     H72686   3.823   1.467  10.252  0.2449 -2.0093 -1.3597
  551MOL0     H72687   3.686   1.472  10.373 -0.4650 -1.0188  3.1649
  551MOL0     H72688   3.792   1.221  10.419 -2.7068  0.0589  1.2943
  551MOL0     H72689   3.816   1.239  10.240 -0.7255  0.2323 -1.1899
  551MOL0     H72690   3.550   1.273  10.394  0.6216 -1.2778  1.5396
  551MOL0     H72691   3.572   1.286  10.214  0.6769  2.7837  1.0060
  551MOL0     H72692   3.687   1.041  10.247  0.1675  0.5184 -2.1894
  551MOL0     H72693   3.502   1.064  10.266 -0.2790 -1.3696  1.0793
  551MOL0     H72694   3.387   1.139  10.462  2.8682  0.2190  0.8332
  551MOL0     H72695   3.181   1.016  10.546 -0.5937 -0.9761 -3.0068
  551MOL0     H72696   2.925   0.609  10.736  0.9379  0.2026 -1.7704
  551MOL0     H72697   2.678   0.595  10.802 -2.7399  2.6111  1.1373
  551MOL0     H72698   2.470   0.596  10.725 -0.7043  0.2677  2.1937
  551MOL0     H72699   2.473   0.722  10.591 -0.2009  3.8164  0.1305
  551MOL0     H72700   2.254   0.730  10.809  0.2803  2.0309  0.9665
  551MOL0     H72701   2.244   0.605  10.682  1.9804 -0.2433 -0.2005
  551MOL0     H72702   2.116   0.790  10.631 -0.0617  1.9347 -2.7888
  551MOL0     H72703   2.237   0.741  10.516 -0.5568  1.0757 -0.6777
  551MOL0     H72704   2.283   1.002  10.672  0.5004  1.6593 -0.6123
  551MOL0     H72705   2.392   0.934  10.565  0.3097 -1.7491  3.4303
  551MOL0     H72706   2.201   0.923  10.399  2.6747 -0.5017 -0.7774
  551MOL0     H72707   2.269   1.085  10.428 -2.3479  0.5780 -1.7352
  551MOL0     H72708   2.085   1.161  10.574 -0.4025 -0.6741  0.4225
  551MOL0     H72709   2.009   0.993  10.579 -0.9029 -0.8439 -3.1412
  551MOL0     H72710   2.049   1.185  10.350  0.2253 -1.6941 -1.4439
  551MOL0     H72711   1.962   1.023  10.330 -1.0549  0.6717  0.2324
  551MOL0     H72712   1.784   1.193  10.346  1.8220  0.5715 -0.7333
  551MOL0     H72713   1.831   1.261  10.489 -3.9270  0.5539 -0.5816
  551MOL0     H72714   2.612   0.977  10.638 -1.8026 -0.7189  1.7869
  551MOL0     H72715   2.864   0.993  10.597  1.1267 -0.1364 -0.2438
  551MOL0     H72716   3.430   0.690  10.681  2.0534  0.2481  1.0015
  551MOL0     H72717   3.614   0.794  10.555  0.2119  1.0810 -2.9176
  551MOL0     H72718   4.073   2.481  10.455  0.9683 -2.1336  4.1258
  551MOL0     H72719   3.959   2.562  10.248 -1.3527 -0.5372 -0.3635
  551MOL0     H72720   3.746   2.322   9.876  0.3503  0.1726 -0.0951
  551MOL0     H72721   3.685   2.351   9.645  1.2800  1.2398 -0.9028
  551MOL0     H72722   3.518   2.324   9.483  3.5482 -1.2025 -2.6420
  551MOL0     H72723   3.647   2.444   9.462  0.2339  1.8342 -0.9868
  551MOL0     H72724   3.383   2.427   9.311 -0.6974  1.7682  2.6531
  551MOL0     H72725   3.511   2.546   9.279 -0.9225 -0.9576 -2.4510
  551MOL0     H72726   3.574   2.244   9.253  2.7187  0.7430 -0.9079
  551MOL0     H72727   3.670   2.392   9.210 -2.0706  2.8196 -1.6402
  551MOL0     H72728   3.440   2.274   9.059 -1.2466  1.2469 -1.1159
  551MOL0     H72729   3.475   2.450   9.052 -0.6792  0.4982  1.6615
  551MOL0     H72730   3.782   2.264   8.829 -1.3090 -0.9945 -0.6131
  551MOL0     H72731   3.397   2.637   9.759  0.9514  1.5372  1.1049
  551MOL0     H72732   3.488   2.644  10.003  1.7893 -0.2803  1.2227
  552MOL0     O72733   7.619  10.847   4.023 -0.1430  0.1216 -0.4070
  552MOL0     C72734   7.700  10.783   4.092 -0.1570  0.1008 -0.4612
  552MOL0     O72735   7.827  10.757   4.056 -0.3433 -0.3952  0.4129
  552MOL0     C72736   7.888  10.831   3.955  1.1245 -0.6834  0.3784
  552MOL0     C72737   7.924  10.779   3.830  0.5163  0.2813  1.7016
  552MOL0     C72738   8.016  10.842   3.756 -0.4965  0.5965  0.9810
  552MOL0     C72739   8.077  10.961   3.797 -0.4503  1.4597  0.1161
  552MOL0     O72740   8.194  11.019   3.741  0.5863  0.0558 -1.1588
  552MOL0     C72741   8.227  11.008   3.605  0.5993  0.3773  0.3434
  552MOL0     C72742   8.383  10.989   3.610  0.6920  0.2973  0.2367
  552MOL0     C72743   8.447  10.973   3.469 -0.1862  0.4116  0.9134
  552MOL0     C72744   8.598  10.931   3.451 -0.0534 -0.1789 -0.7945
  552MOL0     C72745   8.622  10.786   3.485 -0.5372  0.0183  1.4722
  552MOL0     C72746   8.753  10.722   3.429  0.5728 -0.4449 -0.0833
  552MOL0     C72747   8.802  10.604   3.509  1.4827 -0.1385  0.0133
  552MOL0     C72748   8.767  10.481   3.423 -0.4339  0.1088 -0.7251
  552MOL0     N72749   8.629  10.464   3.399  0.4315 -0.5646  0.3146
  552MOL0     C72750   8.530  10.476   3.493  0.5512  0.4789  0.2900
  552MOL0     C72751   8.413  10.456   3.426  0.1086  0.1801 -1.5283
  552MOL0     C72752   8.275  10.491   3.489 -0.0661  0.5997  0.0701
  552MOL0     C72753   8.243  10.379   3.593  1.1101  0.2028 -0.3452
  552MOL0     C72754   8.097  10.379   3.635  0.0663  0.6859 -0.6843
  552MOL0     C72755   8.047  10.263   3.717 -0.5580 -0.5597 -0.9005
  552MOL0     O72756   7.921  10.297   3.782 -0.1833 -0.4622  0.4762
  552MOL0     C72757   7.879  10.213   3.879 -0.8863 -0.2678  0.1993
  552MOL0     C72758   7.777  10.259   3.965  0.1721 -0.0991 -0.4792
  552MOL0     C72759   7.745  10.176   4.080  0.8768 -1.1166 -0.0131
  552MOL0     C72760   7.819  10.065   4.113  0.7645 -0.0183  0.8164
  552MOL0     C72761   7.770   9.971   4.217  0.5149 -0.5702  0.2551
  552MOL0     O72762   7.811   9.841   4.196 -0.1439  0.6838 -0.3466
  552MOL0     C72763   7.770   9.734   4.271 -0.4237 -0.4991 -0.8816
  552MOL0     C72764   7.828   9.614   4.228  0.0611  0.4464 -0.6083
  552MOL0     C72765   7.792   9.495   4.291 -0.2415  0.0664  0.1282
  552MOL0     C72766   7.692   9.482   4.392  0.4960  0.5190 -1.0022
  552MOL0     O72767   7.666   9.360   4.447 -0.5062  0.8721 -0.3029
  552MOL0     C72768   7.535   9.336   4.505 -0.0678  0.4718  0.0459
  552MOL0     C72769   7.528   9.184   4.491 -0.1647 -0.0154  0.2756
  552MOL0     C72770   7.431   9.120   4.585  0.2746  0.0099  0.0292
  552MOL0     C72771   7.286   9.185   4.586 -0.1675 -0.1462 -0.3506
  552MOL0     C72772   7.186   9.095   4.668  0.1933 -0.6483  0.7380
  552MOL0     C72773   7.033   9.128   4.638 -0.6977 -0.6127 -0.1201
  552MOL0     C72774   6.993   9.267   4.676  0.0359 -0.0274  0.5564
  552MOL0     C72775   6.938   9.277   4.810 -0.3158 -0.8520 -0.7364
  552MOL0    Cl72776   7.060   9.313   4.944 -0.3325 -0.3835  0.1039
  552MOL0     C72777   7.622   9.602   4.419  0.1434 -0.1651  0.6499
  552MOL0     C72778   7.667   9.730   4.370 -0.1813  0.4295 -0.2811
  552MOL0     O72779   7.673  10.012   4.292 -0.4148  0.6694  0.1522
  552MOL0     C72780   7.920  10.029   4.034 -0.5383 -0.7004  0.2217
  552MOL0     C72781   7.946  10.093   3.906  0.1388 -0.4145 -0.9079
  552MOL0     N72782   8.443  10.447   3.292  0.6654  0.6147  0.6179
  552MOL0     N72783   8.572  10.441   3.280 -0.9046 -0.1807  0.2529
  552MOL0     C72784   8.021  11.029   3.906  0.6772 -0.0068 -0.0544
  552MOL0     C72785   7.925  10.967   3.990 -0.0252  0.3776  0.6076
  552MOL0     C72786   7.644  10.706   4.209 -0.8120 -0.5436 -0.6617
  552MOL0     C72787   7.703  10.587   4.253 -0.0066  1.2324 -0.0671
  552MOL0     C72788   7.666  10.505   4.363  0.2767 -0.1748  0.2347
  552MOL0     C72789   7.555  10.553   4.427  0.5657  0.4724  0.1546
  552MOL0     O72790   7.504  10.498   4.538 -0.0619 -0.4036 -0.7471
  552MOL0     C72791   7.537  10.371   4.591 -1.0230  0.1549 -1.0206
  552MOL0     C72792   7.422  10.305   4.662  0.3955  1.3135  0.2351
  552MOL0     C72793   7.461  10.154   4.695  0.1484  0.6350  0.5612
  552MOL0     C72794   7.356  10.072   4.760 -0.4245 -0.8105 -0.3485
  552MOL0     C72795   7.376   9.928   4.740  0.0570 -0.0813  0.3611
  552MOL0     C72796   7.412   9.812   4.712 -0.0801  0.1186  0.4696
  552MOL0     C72797   7.490  10.671   4.386  0.6325 -0.2226  0.8062
  552MOL0     C72798   7.521  10.749   4.271 -0.5160  0.0321 -0.0916
  552MOL0     H72799   7.887  10.677   3.819 -1.5279  1.2196 -1.2049
  552MOL0     H72800   8.064  10.795   3.671 -2.5434  1.6017 -0.8537
  552MOL0     H72801   8.192  11.100   3.557 -1.1755 -0.3969  0.0599
  552MOL0     H72802   8.177  10.929   3.548  2.4209  0.8127 -2.0304
  552MOL0     H72803   8.414  10.904   3.673  0.7761  0.4751  0.4394
  552MOL0     H72804   8.422  11.082   3.653 -0.5630  2.0208 -2.1754
  552MOL0     H72805   8.420  11.055   3.402 -0.4525  0.1619  0.7168
  552MOL0     H72806   8.396  10.886   3.426  1.6479 -0.6780  0.8224
  552MOL0     H72807   8.632  10.945   3.348  1.8415  1.2232 -0.0217
  552MOL0     H72808   8.663  10.996   3.510 -1.4946 -0.4780  1.2193
  552MOL0     H72809   8.539  10.725   3.447  1.0261 -0.7267 -0.9896
  552MOL0     H72810   8.625  10.781   3.594  0.3664  0.5750  1.4806
  552MOL0     H72811   8.827  10.803   3.431 -0.9434  1.0144  1.5018
  552MOL0     H72812   8.742  10.688   3.326  0.4664 -0.3419 -0.1064
  552MOL0     H72813   8.911  10.610   3.524  1.6675 -2.2126 -0.2410
  552MOL0     H72814   8.755  10.594   3.608  0.7502 -0.7101 -0.3845
  552MOL0     H72815   8.795  10.394   3.484  1.5409  0.1467 -1.4900
  552MOL0     H72816   8.830  10.476   3.334 -1.5143  0.8491 -1.5505
  552MOL0     H72817   8.535  10.479   3.602  1.4071  0.1399  0.2714
  552MOL0     H72818   8.195  10.493   3.414 -0.5675  1.6482  0.6024
  552MOL0     H72819   8.263  10.586   3.541 -2.4649  1.4901 -1.8908
  552MOL0     H72820   8.320  10.384   3.670  1.6959 -1.4133 -0.7768
  552MOL0     H72821   8.259  10.278   3.552  0.5694 -1.0133  2.2541
  552MOL0     H72822   8.085  10.477   3.682 -2.3362  1.3910 -2.5278
  552MOL0     H72823   8.031  10.379   3.548 -0.6639 -1.5685 -0.1850
  552MOL0     H72824   8.120  10.255   3.798  0.2336  0.1127 -1.5261
  552MOL0     H72825   8.047  10.173   3.654 -0.0129  1.0425 -3.3708
  552MOL0     H72826   7.715  10.347   3.950  1.7050  1.4958  1.9084
  552MOL0     H72827   7.671  10.201   4.155  1.8205 -1.2988  1.0109
  552MOL0     H72828   7.902   9.595   4.151  1.1590 -2.6870  1.0190
  552MOL0     H72829   7.839   9.403   4.259  0.3942  0.6726 -0.6940
  552MOL0     H72830   7.456   9.375   4.440 -1.1233  1.8480  2.0344
  552MOL0     H72831   7.531   9.364   4.611 -0.8003  1.7968 -0.3089
  552MOL0     H72832   7.624   9.132   4.498 -0.2848 -0.7532 -2.3128
  552MOL0     H72833   7.505   9.165   4.386 -0.0916  0.8148  0.0997
  552MOL0     H72834   7.474   9.118   4.686  2.8248 -0.6427 -0.9838
  552MOL0     H72835   7.429   9.015   4.556 -2.9769  0.7455 -3.0908
  552MOL0     H72836   7.287   9.282   4.637 -0.6724  1.4028 -3.1338
  552MOL0     H72837   7.250   9.206   4.485 -1.2882 -1.2913 -0.2093
  552MOL0     H72838   7.201   9.113   4.775  2.4493  0.4874  0.2749
  552MOL0     H72839   7.194   8.986   4.659 -3.9132 -1.1510  1.1372
  552MOL0     H72840   6.965   9.053   4.679 -1.0352 -1.2528 -1.7555
  552MOL0     H72841   7.008   9.115   4.532 -5.1164 -2.1546  0.8750
  552MOL0     H72842   7.082   9.329   4.666 -0.3130  0.4009  0.0531
  552MOL0     H72843   6.921   9.303   4.602  2.2611  1.6492 -0.9446
  552MOL0     H72844   6.892   9.182   4.838 -0.0169 -0.6010  0.6782
  552MOL0     H72845   6.863   9.358   4.811 -2.6158 -2.8467 -1.9790
  552MOL0     H72846   7.536   9.611   4.484 -1.4382 -0.1984 -1.3497
  552MOL0     H72847   7.608   9.818   4.393  0.1216  1.0861 -1.8595
  552MOL0     H72848   7.972   9.937   4.058 -0.4446 -0.9444 -0.8657
  552MOL0     H72849   8.025  10.043   3.851 -0.4220 -1.5669 -0.7028
  552MOL0     H72850   8.067  11.122   3.938  4.0752 -2.3665  2.6615
  552MOL0     H72851   7.894  11.006   4.086  0.4514 -0.9379  1.3163
  552MOL0     H72852   7.775  10.551   4.180  0.1769 -2.8676  1.8791
  552MOL0     H72853   7.737  10.435   4.406  0.6966  0.9240  1.3958
  552MOL0     H72854   7.628  10.392   4.648 -1.0973  0.8486 -1.1565
  552MOL0     H72855   7.557  10.306   4.505  0.1137  0.7596 -1.2271
  552MOL0     H72856   7.395  10.357   4.754  0.0393 -1.3267  1.7181
  552MOL0     H72857   7.334  10.302   4.597 -0.7487  0.0691  1.7620
  552MOL0     H72858   7.541  10.172   4.766  0.2784  2.5409 -0.0094
  552MOL0     H72859   7.477  10.107   4.598 -0.6798  3.0818 -0.8471
  552MOL0     H72860   7.373  10.081   4.868 -0.3143 -2.0611 -0.2452
  552MOL0     H72861   7.250  10.092   4.742 -0.6406 -0.9461  0.7403
  552MOL0     H72862   7.444   9.716   4.676 -0.7125  0.1088 -0.0954
  552MOL0     H72863   7.401  10.699   4.443 -0.6877  0.6303 -1.5384
  552MOL0     H72864   7.476  10.845   4.250  2.9869  1.1920 -3.6396
  553MOL0     O72865   3.484   1.011   1.290  0.6122  0.5148 -0.2032
  553MOL0     C72866   3.381   1.022   1.355 -0.7749 -0.3287 -0.9841
  553MOL0     O72867   3.270   1.089   1.323 -0.0908 -0.5796 -0.2101
  553MOL0     C72868   3.225   1.089   1.192  1.1832  1.2863 -0.5511
  553MOL0     C72869   3.174   1.199   1.139 -0.7462 -0.7058  0.4556
  553MOL0     C72870   3.138   1.215   1.005  0.0854  0.6845  0.1464
  553MOL0     C72871   3.160   1.111   0.916 -0.5189  0.4104  0.0278
  553MOL0     O72872   3.148   1.129   0.780  0.7652  0.3986  0.1330
  553MOL0     C72873   3.142   1.021   0.697  1.2102  0.1992  0.6833
  553MOL0     C72874   3.128   1.076   0.555 -0.1190  0.4559 -0.6720
  553MOL0     C72875   3.028   1.189   0.541 -0.2348  1.0669  0.1041
  553MOL0     C72876   2.880   1.154   0.518 -0.1588 -0.5192  0.3541
  553MOL0     C72877   2.786   1.281   0.497 -0.4634 -0.4671 -0.3458
  553MOL0     C72878   2.639   1.251   0.466  0.3074 -0.8603  0.0701
  553MOL0     C72879   2.600   1.330   0.340  0.3824 -0.0669 -0.2985
  553MOL0     C72880   2.462   1.293   0.288  0.8059 -1.8155 -0.8054
  553MOL0     N72881   2.415   1.404   0.193 -0.0373  0.6273  0.0186
  553MOL0     C72882   2.479   1.436   0.077  0.2765 -0.1421 -0.3642
  553MOL0     C72883   2.444   1.559   0.040  0.1108 -0.9656 -0.5858
  553MOL0     C72884   2.483   1.634  -0.088 -0.6694  0.4863  0.5871
  553MOL0     C72885   2.630   1.658  -0.125  0.2441 -0.1038 -1.2932
  553MOL0     C72886   2.633   1.757  -0.242  0.0886 -1.2951 -0.1299
  553MOL0     C72887   2.776   1.759  -0.302 -0.2322 -0.6172 -0.5471
  553MOL0     O72888   2.774   1.805  -0.437  0.8662 -0.4588  0.3460
  553MOL0     C72889   2.800   1.717  -0.535  0.8919 -0.3740  0.0462
  553MOL0     C72890   2.799   1.577  -0.527  1.3714 -0.1208 -0.1882
  553MOL0     C72891   2.837   1.501  -0.632  0.4020  0.0362  0.3330
  553MOL0     C72892   2.874   1.565  -0.756 -0.0459  0.3483 -0.4015
  553MOL0     C72893   2.941   1.484  -0.860  0.7779 -1.2171  0.2966
  553MOL0     O72894   2.971   1.558  -0.977  0.1323 -0.3329  0.0641
  553MOL0     C72895   3.097   1.535  -1.042 -0.3768  1.1770  0.0978
  553MOL0     C72896   3.212   1.489  -0.977  0.2628  0.9860  0.1623
  553MOL0     C72897   3.342   1.491  -1.037 -0.3098  2.0448  0.1877
  553MOL0     C72898   3.364   1.526  -1.165 -0.7914  0.2584 -0.3369
  553MOL0     O72899   3.499   1.514  -1.209  0.0037  0.1959 -0.0814
  553MOL0     C72900   3.510   1.536  -1.347  0.0982 -0.3551  0.6877
  553MOL0     C72901   3.657   1.543  -1.403  0.4258  1.4481  0.0948
  553MOL0     C72902   3.666   1.560  -1.557 -0.9166  0.0607  0.6630
  553MOL0     C72903   3.796   1.503  -1.616  0.2481  0.3970 -0.2132
  553MOL0     C72904   3.914   1.597  -1.566  0.2300 -0.5093 -0.8393
  553MOL0     C72905   4.054   1.572  -1.637 -0.4459  0.1310  0.2579
  553MOL0     C72906   4.046   1.609  -1.789 -0.4271  0.3659 -0.2406
  553MOL0     C72907   4.189   1.635  -1.849  0.2791  0.3844  0.3909
  553MOL0    Cl72908   4.282   1.494  -1.811  0.1464  0.0568 -0.3629
  553MOL0     C72909   3.249   1.567  -1.234  0.2274  0.7644  0.0780
  553MOL0     C72910   3.124   1.570  -1.178  0.6625 -0.6656  0.2835
  553MOL0     O72911   2.987   1.373  -0.835 -0.3557  0.3021  0.0277
  553MOL0     C72912   2.851   1.701  -0.771  0.0264 -0.2511  0.3438
  553MOL0     C72913   2.815   1.776  -0.660  0.3491 -0.3908  0.6131
  553MOL0     N72914   2.352   1.603   0.137  0.1487  0.7318 -0.3338
  553MOL0     N72915   2.344   1.510   0.237  0.3290 -0.7625 -0.0206
  553MOL0     C72916   3.205   0.990   0.976  0.0379  0.0076 -0.1262
  553MOL0     C72917   3.245   0.986   1.106  0.4008  0.0158  0.5004
  553MOL0     C72918   3.394   0.986   1.501  0.7956  0.2758 -0.3085
  553MOL0     C72919   3.296   1.007   1.593 -0.7111  0.6685 -0.4076
  553MOL0     C72920   3.312   0.984   1.730 -1.6777  1.4450  0.3090
  553MOL0     C72921   3.430   0.936   1.782  0.7959 -0.7541  0.0401
  553MOL0     O72922   3.433   0.914   1.922 -0.9675  0.3585 -0.2097
  553MOL0     C72923   3.538   0.839   1.975 -0.2431 -0.0879  0.2856
  553MOL0     C72924   3.499   0.758   2.091  0.2484  0.0532 -0.5341
  553MOL0     C72925   3.611   0.694   2.154  0.1789  0.1341  0.7574
  553MOL0     C72926   3.565   0.579   2.250  0.5803 -0.2050  0.6215
  553MOL0     C72927   3.453   0.611   2.335  0.2319 -1.6293  1.1921
  553MOL0     C72928   3.370   0.659   2.418  0.1072  0.0530  0.1758
  553MOL0     C72929   3.531   0.911   1.688 -1.1377 -0.0113  0.0623
  553MOL0     C72930   3.513   0.935   1.551 -1.0384  0.3114 -0.5368
  553MOL0     H72931   3.162   1.280   1.210  1.1183 -0.7621  0.9023
  553MOL0     H72932   3.109   1.310   0.961 -1.9604  0.2483  0.4592
  553MOL0     H72933   3.052   0.959   0.707 -0.9579  3.0246  0.0618
  553MOL0     H72934   3.231   0.958   0.693  0.2247 -1.1979 -0.4087
  553MOL0     H72935   3.110   0.996   0.483 -0.8528  0.7387 -0.8121
  553MOL0     H72936   3.228   1.113   0.532  1.1612 -2.2031  0.1521
  553MOL0     H72937   3.066   1.251   0.459  1.8176  1.4971  1.2945
  553MOL0     H72938   3.024   1.255   0.628 -2.7301  0.0263  0.8718
  553MOL0     H72939   2.866   1.087   0.432 -5.4588 -2.3126  2.1785
  553MOL0     H72940   2.850   1.093   0.603  1.7674 -0.2752  1.2421
  553MOL0     H72941   2.829   1.338   0.415 -0.0806  0.0729  0.2170
  553MOL0     H72942   2.794   1.341   0.588  0.5557 -1.2964  0.1366
  553MOL0     H72943   2.575   1.280   0.550 -0.6124 -0.0166 -0.9067
  553MOL0     H72944   2.618   1.144   0.458  0.1126 -0.8138 -0.0336
  553MOL0     H72945   2.602   1.436   0.368 -0.4790 -0.5389  1.7236
  553MOL0     H72946   2.680   1.312   0.268 -0.2101 -5.1725 -0.0723
  553MOL0     H72947   2.397   1.294   0.376  0.2797  2.2224 -1.0385
  553MOL0     H72948   2.457   1.197   0.237 -0.8894 -2.0797 -0.1857
  553MOL0     H72949   2.541   1.372   0.015 -0.6326 -0.7016 -0.7135
  553MOL0     H72950   2.423   1.725  -0.086 -1.1426  0.2672 -1.2952
  553MOL0     H72951   2.438   1.580  -0.173  1.5761 -2.6039  1.1833
  553MOL0     H72952   2.681   1.561  -0.134  1.9197  0.3539  1.9427
  553MOL0     H72953   2.679   1.716  -0.046  1.1664 -0.7135 -1.3956
  553MOL0     H72954   2.564   1.736  -0.324 -0.5878  0.3655 -0.0160
  553MOL0     H72955   2.615   1.858  -0.205 -1.3380 -0.7309 -2.1597
  553MOL0     H72956   2.844   1.677  -0.276 -1.4008 -1.0735  1.2763
  553MOL0     H72957   2.834   1.831  -0.243 -1.1756 -0.3461  0.0789
  553MOL0     H72958   2.788   1.530  -0.430  0.6551 -0.0885 -0.2502
  553MOL0     H72959   2.846   1.393  -0.626  2.6353  0.2247  1.4673
  553MOL0     H72960   3.209   1.453  -0.875  1.8284  1.5141  0.4195
  553MOL0     H72961   3.420   1.456  -0.969 -1.5067  0.2537  0.7036
  553MOL0     H72962   3.459   1.628  -1.378  0.9904 -0.1207 -0.1169
  553MOL0     H72963   3.456   1.457  -1.400  0.7385 -0.2498 -0.1451
  553MOL0     H72964   3.705   1.451  -1.367 -0.0646  1.7316  1.5284
  553MOL0     H72965   3.707   1.622  -1.346  1.9627  0.3286  0.3516
  553MOL0     H72966   3.656   1.668  -1.570 -1.8332  0.2231  2.4237
  553MOL0     H72967   3.578   1.513  -1.601  1.1042 -2.2232 -1.2377
  553MOL0     H72968   3.801   1.397  -1.587 -0.4492 -0.3701 -2.6500
  553MOL0     H72969   3.796   1.500  -1.726  1.1705  3.1275 -0.3569
  553MOL0     H72970   3.921   1.598  -1.457  2.4586  0.0260 -0.9371
  553MOL0     H72971   3.871   1.694  -1.597 -0.5507 -0.2353  1.0025
  553MOL0     H72972   4.074   1.465  -1.622  0.6477  0.4781  1.3722
  553MOL0     H72973   4.142   1.622  -1.597 -0.3919  0.5931 -0.4174
  553MOL0     H72974   4.006   1.516  -1.830  0.0142  0.2437 -0.4038
  553MOL0     H72975   3.972   1.686  -1.806  0.4793  0.9052 -1.9969
  553MOL0     H72976   4.227   1.729  -1.807  0.8495  0.3338 -0.0069
  553MOL0     H72977   4.183   1.652  -1.957  0.4037 -0.5961  0.2206
  553MOL0     H72978   3.256   1.623  -1.327 -1.4722  2.8859  1.1232
  553MOL0     H72979   3.039   1.612  -1.231  1.4176  0.1860 -0.2599
  553MOL0     H72980   2.875   1.748  -0.866  2.0388 -2.1292 -0.1811
  553MOL0     H72981   2.812   1.884  -0.675  0.6938 -0.2844  1.2791
  553MOL0     H72982   3.209   0.903   0.911  0.1934 -0.3490  0.3578
  553MOL0     H72983   3.299   0.896   1.133 -1.9368 -2.3039 -1.9199
  553MOL0     H72984   3.197   1.042   1.567 -0.3340  2.1347  0.0810
  553MOL0     H72985   3.235   1.012   1.801 -1.6061 -1.1287  1.5417
  553MOL0     H72986   3.621   0.903   2.006  3.0786 -2.4639 -2.7703
  553MOL0     H72987   3.590   0.766   1.912  2.2840 -0.9863  3.1356
  553MOL0     H72988   3.440   0.824   2.155 -0.7558 -2.7174  1.5936
  553MOL0     H72989   3.435   0.683   2.044  3.9975 -1.3059 -4.0737
  553MOL0     H72990   3.656   0.770   2.219 -0.9000  2.6177 -1.2057
  553MOL0     H72991   3.680   0.656   2.079 -2.2266  0.6052 -1.8708
  553MOL0     H72992   3.547   0.489   2.191  4.5270 -0.6401 -0.2119
  553MOL0     H72993   3.659   0.568   2.305  1.3475  2.4007 -0.0287
  553MOL0     H72994   3.295   0.705   2.479 -1.6371  0.1895 -1.9679
  553MOL0     H72995   3.614   0.855   1.731 -0.5160 -0.6865 -1.9059
  553MOL0     H72996   3.602   0.910   1.495 -0.6820 -0.1213  0.2059
  554MOL0     O72997   0.412   3.813   5.078  0.3537  0.1075  0.4464
  554MOL0     C72998   0.411   3.706   5.021 -0.2280  0.3722 -0.0087
  554MOL0     O72999   0.346   3.592   5.069 -0.1576 -0.1262  0.0278
  554MOL0     C73000   0.302   3.584   5.198  0.4308  0.0205 -1.1388
  554MOL0     C73001   0.377   3.602   5.314 -0.1520  0.4420  0.7398
  554MOL0     C73002   0.321   3.559   5.437 -0.4691 -0.2714 -0.5726
  554MOL0     C73003   0.190   3.511   5.458  0.1821 -0.4977 -0.2851
  554MOL0     O73004   0.149   3.486   5.589 -0.3663  0.6318 -0.0751
  554MOL0     C73005   0.008   3.486   5.626  0.7022 -0.1163 -0.8529
  554MOL0     C73006  -0.033   3.629   5.647  0.2229  0.1675 -0.7643
  554MOL0     C73007   0.027   3.681   5.776  0.6586 -0.2528 -0.8671
  554MOL0     C73008  -0.014   3.825   5.805  0.0166 -0.2580 -0.6801
  554MOL0     C73009   0.016   3.873   5.947  0.1932 -0.2662 -0.4172
  554MOL0     C73010  -0.019   4.029   5.963 -1.2845  0.2291 -0.2405
  554MOL0     C73011  -0.005   4.076   6.108 -0.5033  0.7181 -0.6903
  554MOL0     C73012  -0.036   4.225   6.134 -0.0046  0.4673 -1.3078
  554MOL0     N73013   0.026   4.313   6.048 -0.5190 -0.1715  0.1609
  554MOL0     C73014   0.140   4.378   6.077 -0.3919 -0.5458  1.2347
  554MOL0     C73015   0.151   4.461   5.972  0.2938 -0.0006 -0.3433
  554MOL0     C73016   0.263   4.553   5.954  0.5770  0.5381  0.3638
  554MOL0     C73017   0.239   4.675   6.042 -0.4428  0.3413  0.0090
  554MOL0     C73018   0.324   4.799   6.012  1.3346 -1.0248 -0.3198
  554MOL0     C73019   0.289   4.849   5.865 -0.4455 -0.4228 -0.6350
  554MOL0     O73020   0.366   4.965   5.827  0.1542  0.8154 -0.2464
  554MOL0     C73021   0.368   4.993   5.689 -0.5453 -0.4912 -0.4965
  554MOL0     C73022   0.277   4.947   5.591  0.5757  0.3432 -0.8711
  554MOL0     C73023   0.284   4.985   5.458  0.5904 -1.3495 -0.3298
  554MOL0     C73024   0.389   5.077   5.426  0.0293 -0.2337 -0.1040
  554MOL0     C73025   0.387   5.132   5.291 -0.4984  0.3412  0.8074
  554MOL0     O73026   0.435   5.259   5.282  0.6673 -0.0559  0.5770
  554MOL0     C73027   0.421   5.317   5.156 -0.7464 -0.1883  0.6501
  554MOL0     C73028   0.513   5.293   5.054  0.1385  0.6968  0.0624
  554MOL0     C73029   0.488   5.351   4.924 -0.6300 -0.9314  0.1970
  554MOL0     C73030   0.373   5.427   4.900  0.2193  0.3862 -0.5105
  554MOL0     O73031   0.350   5.481   4.774  0.7048 -0.6238 -0.7373
  554MOL0     C73032   0.306   5.620   4.775  0.6441  0.0654  0.9114
  554MOL0     C73033   0.330   5.661   4.622  0.2857  0.0146  0.4505
  554MOL0     C73034   0.293   5.812   4.598  0.3000  0.4581 -0.2087
  554MOL0     C73035   0.347   5.872   4.468  0.2535  0.0305 -0.8027
  554MOL0     C73036   0.295   6.006   4.417  0.2730 -0.7624 -0.5259
  554MOL0     C73037   0.361   6.061   4.287 -0.0956 -0.2650  0.1334
  554MOL0     C73038   0.416   6.202   4.306  0.3380  0.2003 -0.5875
  554MOL0     C73039   0.308   6.310   4.296  0.4410  0.0727 -0.0075
  554MOL0    Cl73040   0.376   6.474   4.307  0.4749 -0.4874 -0.1660
  554MOL0     C73041   0.291   5.455   5.009  0.5648 -0.4210  0.1789
  554MOL0     C73042   0.314   5.406   5.139  0.0648  0.2925  0.1196
  554MOL0     O73043   0.361   5.056   5.198 -0.6573 -0.5023 -0.1062
  554MOL0     C73044   0.480   5.129   5.517  0.5048  0.3540 -1.1265
  554MOL0     C73045   0.467   5.084   5.651 -0.4886 -0.0510  0.4255
  554MOL0     N73046   0.045   4.452   5.884 -0.4686  0.5642  0.7976
  554MOL0     N73047  -0.027   4.354   5.931 -0.6748 -0.0297  0.2481
  554MOL0     C73048   0.112   3.503   5.341 -0.1307  0.0596 -0.3493
  554MOL0     C73049   0.169   3.537   5.218 -0.2346  0.0902  0.0405
  554MOL0     C73050   0.443   3.698   4.879  0.8619  0.5437 -0.9761
  554MOL0     C73051   0.480   3.819   4.808  0.2756 -0.7140 -0.6378
  554MOL0     C73052   0.489   3.819   4.667 -0.2555 -0.4216 -0.1626
  554MOL0     C73053   0.457   3.704   4.597 -0.4383  0.2556 -0.0775
  554MOL0     O73054   0.457   3.696   4.461 -0.4430  0.1722  0.5108
  554MOL0     C73055   0.524   3.801   4.380  0.5212  1.2194 -0.3878
  554MOL0     C73056   0.678   3.806   4.398  0.0163 -0.2180 -0.1562
  554MOL0     C73057   0.740   3.670   4.402  0.2984  0.3079 -0.3834
  554MOL0     C73058   0.894   3.671   4.372  0.3131  0.5682  0.2270
  554MOL0     C73059   0.955   3.541   4.430 -0.1577  0.2671 -0.0323
  554MOL0     C73060   0.983   3.447   4.501  0.4956  0.5356  0.1515
  554MOL0     C73061   0.431   3.592   4.668  1.0386 -0.3722  0.3645
  554MOL0     C73062   0.429   3.582   4.805  0.3915 -0.0947  0.1633
  554MOL0     H73063   0.481   3.633   5.309  1.1431 -3.4286 -0.1240
  554MOL0     H73064   0.386   3.573   5.523 -1.6336 -2.2719  0.7230
  554MOL0     H73065  -0.008   3.433   5.721 -0.5705  0.6559 -0.6226
  554MOL0     H73066  -0.041   3.429   5.546  1.2706  0.8101 -1.8833
  554MOL0     H73067  -0.140   3.638   5.666  0.5426  2.6839  0.3697
  554MOL0     H73068  -0.019   3.692   5.558 -0.8232  1.1706 -0.2538
  554MOL0     H73069   0.136   3.684   5.770  0.7644 -1.8182 -0.1864
  554MOL0     H73070  -0.005   3.615   5.857  0.8085 -2.4258 -2.4752
  554MOL0     H73071   0.049   3.888   5.742  0.3741 -0.9566 -1.0294
  554MOL0     H73072  -0.121   3.844   5.788 -0.0824  0.3396  0.5143
  554MOL0     H73073   0.120   3.855   5.975  0.6601  0.6557 -1.4696
  554MOL0     H73074  -0.036   3.813   6.022  1.2861 -0.6219  0.0751
  554MOL0     H73075  -0.108   4.065   5.912 -0.7970  2.5305  0.4128
  554MOL0     H73076   0.058   4.078   5.903 -0.3751 -0.4948  0.3056
  554MOL0     H73077  -0.069   4.016   6.175  2.7509 -1.8187  0.4289
  554MOL0     H73078   0.099   4.050   6.131 -0.5616  2.6679  2.2681
  554MOL0     H73079  -0.016   4.246   6.239 -0.4485  2.3845 -1.5693
  554MOL0     H73080  -0.144   4.228   6.114 -0.1729 -2.9779 -1.6016
  554MOL0     H73081   0.201   4.354   6.164 -1.2802 -2.0331  1.4785
  554MOL0     H73082   0.276   4.581   5.849 -1.0083  0.3504  0.0904
  554MOL0     H73083   0.360   4.507   5.976 -0.6317 -2.8703 -0.7904
  554MOL0     H73084   0.248   4.654   6.149  1.3263 -2.4573 -0.5909
  554MOL0     H73085   0.136   4.702   6.014 -0.2911  1.7201  0.6916
  554MOL0     H73086   0.308   4.877   6.086 -0.3190  0.0381 -1.7078
  554MOL0     H73087   0.428   4.767   6.016  0.4916 -4.0283  2.8268
  554MOL0     H73088   0.183   4.875   5.854 -0.9512 -0.8588  2.3316
  554MOL0     H73089   0.325   4.769   5.800  0.4699  0.5335 -1.3345
  554MOL0     H73090   0.184   4.899   5.621  1.2550 -0.3944  0.1165
  554MOL0     H73091   0.224   4.941   5.378  0.6364  1.3234 -1.9636
  554MOL0     H73092   0.601   5.232   5.063 -1.3298 -1.4738  0.5623
  554MOL0     H73093   0.555   5.341   4.838 -0.9285 -0.8539 -0.0465
  554MOL0     H73094   0.360   5.696   4.832  0.6792  1.4666 -0.9289
  554MOL0     H73095   0.198   5.619   4.794 -0.3145  0.6547 -3.4624
  554MOL0     H73096   0.265   5.592   4.567 -1.2453 -2.3176  4.7083
  554MOL0     H73097   0.433   5.645   4.588  0.6335 -1.6897  2.1533
  554MOL0     H73098   0.326   5.878   4.679 -0.2038  0.5998 -0.1184
  554MOL0     H73099   0.184   5.821   4.590 -0.2964 -3.5053  1.2341
  554MOL0     H73100   0.453   5.893   4.482 -1.0574  6.6078  5.5702
  554MOL0     H73101   0.319   5.803   4.388  0.5583  0.0783 -0.9508
  554MOL0     H73102   0.303   6.081   4.497 -3.6645  1.1041 -1.5958
  554MOL0     H73103   0.188   6.000   4.393 -0.0407  3.2622 -0.9001
  554MOL0     H73104   0.286   6.054   4.208  0.5676 -0.2293 -0.5154
  554MOL0     H73105   0.446   6.004   4.248  2.6926  4.3546 -1.4491
  554MOL0     H73106   0.473   6.217   4.398 -0.8635 -2.6282  0.7316
  554MOL0     H73107   0.485   6.220   4.223  1.4057 -0.9133  0.0354
  554MOL0     H73108   0.249   6.306   4.387 -0.3846 -1.7354 -0.5884
  554MOL0     H73109   0.247   6.310   4.206  1.9318 -0.3522 -1.0574
  554MOL0     H73110   0.195   5.497   4.980  1.2051 -1.0372 -3.2007
  554MOL0     H73111   0.239   5.421   5.216  1.4907  2.2473  1.2140
  554MOL0     H73112   0.551   5.207   5.493  0.5371 -0.3497 -3.6744
  554MOL0     H73113   0.532   5.122   5.729 -1.8001 -3.3741  3.4050
  554MOL0     H73114   0.009   3.470   5.342  0.2312 -1.4315 -2.7706
  554MOL0     H73115   0.105   3.518   5.133  0.3145  3.0855 -1.1779
  554MOL0     H73116   0.489   3.915   4.858  2.0473 -0.9560 -0.4181
  554MOL0     H73117   0.511   3.916   4.624 -2.4887  1.0836  1.8187
  554MOL0     H73118   0.470   3.894   4.403  2.9588  3.4529 -2.9664
  554MOL0     H73119   0.497   3.784   4.276 -1.1504  2.2938 -0.1678
  554MOL0     H73120   0.713   3.874   4.319 -1.6059  1.4776  0.5023
  554MOL0     H73121   0.720   3.852   4.487  0.9400 -4.2041  1.7100
  554MOL0     H73122   0.696   3.614   4.319  2.7811  2.3254 -3.2754
  554MOL0     H73123   0.725   3.622   4.499  1.3382  1.7669  0.5388
  554MOL0     H73124   0.911   3.684   4.265  0.5025 -0.8597  0.0733
  554MOL0     H73125   0.942   3.750   4.431 -0.4370  0.9642  0.3133
  554MOL0     H73126   1.020   3.369   4.564  2.6270  0.3566 -1.2396
  554MOL0     H73127   0.415   3.501   4.611  2.8295 -0.1526 -0.5857
  554MOL0     H73128   0.398   3.489   4.852 -2.4714  1.3757  1.4876
  555MOL0     O73129   7.456   2.151   5.702 -0.3223  0.6231  0.3021
  555MOL0     C73130   7.544   2.070   5.664  1.2704 -0.3373 -0.3098
  555MOL0     O73131   7.523   1.940   5.643 -0.3966  0.0230  0.0127
  555MOL0     C73132   7.388   1.902   5.662  0.1785 -0.6832  0.4305
  555MOL0     C73133   7.345   1.823   5.764 -0.5018  0.2713 -0.0206
  555MOL0     C73134   7.213   1.780   5.776 -0.1147  0.3232 -0.2871
  555MOL0     C73135   7.118   1.808   5.678 -0.9011  0.2485 -0.5420
  555MOL0     O73136   6.996   1.748   5.707 -0.6382  0.0081  0.5592
  555MOL0     C73137   6.883   1.833   5.678 -0.1601  0.5255  0.1621
  555MOL0     C73138   6.778   1.811   5.790 -0.2506  0.0427 -0.4841
  555MOL0     C73139   6.646   1.890   5.745 -0.0496  0.4316  0.0157
  555MOL0     C73140   6.522   1.811   5.785  0.1091  0.9415  0.4383
  555MOL0     C73141   6.394   1.875   5.738 -0.6654 -0.0056  0.1839
  555MOL0     C73142   6.350   2.007   5.814 -0.6711  0.1350  0.3393
  555MOL0     C73143   6.211   2.060   5.784  0.4201 -0.2980  0.0054
  555MOL0     C73144   6.095   1.997   5.867 -0.3156 -1.4107 -0.4622
  555MOL0     N73145   6.088   1.851   5.850  0.3389 -0.6752  0.6506
  555MOL0     C73146   6.111   1.760   5.944 -0.8377  0.5086 -0.8904
  555MOL0     C73147   6.074   1.636   5.899  0.6108 -0.6167  1.0585
  555MOL0     C73148   6.077   1.511   5.987  1.0289 -0.1650  0.7499
  555MOL0     C73149   6.211   1.484   6.037  0.0494  0.4788 -0.9143
  555MOL0     C73150   6.306   1.457   5.922  0.0948 -0.3666  0.4535
  555MOL0     C73151   6.444   1.453   5.965 -1.0135 -0.8572 -0.2057
  555MOL0     O73152   6.538   1.421   5.857 -0.3207 -0.4864 -0.7954
  555MOL0     C73153   6.668   1.407   5.899 -0.2092 -0.2305 -0.2594
  555MOL0     C73154   6.763   1.382   5.802 -0.2522  0.6626 -0.6691
  555MOL0     C73155   6.897   1.386   5.820  0.2813 -0.3306 -0.8623
  555MOL0     C73156   6.946   1.406   5.955  0.1588  0.0315  0.5323
  555MOL0     C73157   7.094   1.421   5.977  0.1213  0.3692  1.4311
  555MOL0     O73158   7.128   1.437   6.104 -0.7052 -0.1848 -0.7725
  555MOL0     C73159   7.254   1.404   6.150 -0.2649 -0.7530  0.8278
  555MOL0     C73160   7.358   1.505   6.159  0.0158  0.2249 -0.9458
  555MOL0     C73161   7.481   1.467   6.220  0.1557 -0.2717  0.4696
  555MOL0     C73162   7.498   1.328   6.261  0.0786 -0.1029  0.1756
  555MOL0     O73163   7.604   1.280   6.340 -0.4914 -0.7713  1.0659
  555MOL0     C73164   7.714   1.372   6.366  0.1727  0.4229 -0.1550
  555MOL0     C73165   7.826   1.297   6.431  0.2967  0.5104  0.2337
  555MOL0     C73166   7.944   1.400   6.471  0.2362 -0.5984  0.1813
  555MOL0     C73167   8.076   1.332   6.479 -0.6010  0.2570 -0.5012
  555MOL0     C73168   8.179   1.422   6.547 -0.0275  0.5520  0.1013
  555MOL0     C73169   8.320   1.349   6.559  0.1794 -0.9556 -0.0821
  555MOL0     C73170   8.407   1.444   6.647  0.5174  0.5664 -0.1551
  555MOL0     C73171   8.539   1.370   6.662 -0.6665 -0.8219  0.0587
  555MOL0    Cl73172   8.513   1.209   6.728  0.1974  0.0929  0.3749
  555MOL0     C73173   7.395   1.230   6.241 -1.3460  0.0678 -0.2688
  555MOL0     C73174   7.279   1.276   6.190 -1.3168 -0.2672  0.4662
  555MOL0     O73175   7.169   1.414   5.876 -0.0400 -0.2809 -0.1260
  555MOL0     C73176   6.858   1.420   6.065 -0.4112  0.8759  0.6788
  555MOL0     C73177   6.721   1.423   6.030 -0.6698  0.3611  0.3810
  555MOL0     N73178   6.022   1.665   5.770  0.2288  0.4145 -0.7902
  555MOL0     N73179   6.034   1.792   5.738 -0.7898  0.4957  0.9883
  555MOL0     C73180   7.155   1.883   5.563 -0.9955 -0.1867 -0.2525
  555MOL0     C73181   7.292   1.927   5.557 -0.3149 -0.3587  0.0055
  555MOL0     C73182   7.667   2.136   5.625 -0.0366 -0.0996  0.2454
  555MOL0     C73183   7.781   2.055   5.579  0.8619 -0.5529  1.0921
  555MOL0     C73184   7.904   2.109   5.554 -0.0295 -0.3358 -0.7404
  555MOL0     C73185   7.925   2.248   5.577 -0.4136  1.4206 -0.6216
  555MOL0     O73186   8.048   2.314   5.573 -0.2073  0.0910 -1.1491
  555MOL0     C73187   8.153   2.240   5.643 -0.7404  0.1541  0.5328
  555MOL0     C73188   8.207   2.300   5.763  0.0307 -0.1096 -0.4785
  555MOL0     C73189   8.258   2.439   5.746  0.5109 -0.5031  0.3021
  555MOL0     C73190   8.248   2.518   5.880 -0.0876 -0.4090 -0.2920
  555MOL0     C73191   8.349   2.479   5.978 -0.3869  0.8435 -0.1676
  555MOL0     C73192   8.436   2.450   6.061 -0.1949 -0.2127  0.0598
  555MOL0     C73193   7.816   2.326   5.605  0.0536 -0.5367  0.5246
  555MOL0     C73194   7.693   2.276   5.637 -0.7326 -0.3988 -0.4434
  555MOL0     H73195   7.423   1.796   5.833  0.3676 -2.0977 -1.7900
  555MOL0     H73196   7.183   1.715   5.857 -0.1057  1.0062  0.2708
  555MOL0     H73197   6.847   1.816   5.577  1.3660  0.0588 -0.3410
  555MOL0     H73198   6.913   1.939   5.680  0.1371  0.5019 -1.4991
  555MOL0     H73199   6.817   1.848   5.885 -0.1179 -0.2874 -0.4102
  555MOL0     H73200   6.759   1.703   5.797  0.0851  0.0622  0.9736
  555MOL0     H73201   6.655   1.907   5.637  0.3029 -0.6097 -0.1310
  555MOL0     H73202   6.656   1.985   5.798  1.8546 -0.0662  0.6113
  555MOL0     H73203   6.513   1.710   5.744 -2.3333  0.1491  2.6773
  555MOL0     H73204   6.525   1.794   5.893  0.0061  0.0019  0.2965
  555MOL0     H73205   6.315   1.801   5.753 -2.1029  1.7237  1.5986
  555MOL0     H73206   6.411   1.877   5.630  0.3394 -2.3004  0.2436
  555MOL0     H73207   6.430   2.077   5.792 -1.3515  1.7182  2.5513
  555MOL0     H73208   6.359   1.984   5.921  4.4698  3.1497  0.8600
  555MOL0     H73209   6.231   2.163   5.814 -0.0396 -0.5307  1.1842
  555MOL0     H73210   6.204   2.051   5.675  2.9772 -0.3511 -0.2149
  555MOL0     H73211   5.993   2.033   5.850  0.3065  0.3100 -0.6966
  555MOL0     H73212   6.121   2.025   5.969  3.0522 -0.2501 -1.5165
  555MOL0     H73213   6.154   1.766   6.044  0.1157  0.4334 -1.2810
  555MOL0     H73214   6.048   1.423   5.929  0.2245  0.8819 -0.5081
  555MOL0     H73215   6.016   1.518   6.077  0.5303  0.8820  0.3448
  555MOL0     H73216   6.198   1.399   6.104 -2.7954  0.7825 -0.9857
  555MOL0     H73217   6.266   1.566   6.085 -1.1537  1.1578 -0.6589
  555MOL0     H73218   6.280   1.359   5.880 -3.3434  0.2104  0.9518
  555MOL0     H73219   6.286   1.527   5.840  0.1580  2.7991  2.9681
  555MOL0     H73220   6.438   1.383   6.049 -1.5696 -1.1888 -0.5183
  555MOL0     H73221   6.479   1.549   6.004  1.4893 -1.6778 -0.2608
  555MOL0     H73222   6.734   1.343   5.705  0.7458  2.1138 -1.5815
  555MOL0     H73223   6.964   1.351   5.742  0.4481  0.4493 -1.0739
  555MOL0     H73224   7.342   1.606   6.123  2.2748  0.5977 -1.0413
  555MOL0     H73225   7.563   1.539   6.224 -0.0180 -0.1001  1.2575
  555MOL0     H73226   7.681   1.453   6.431  1.5845  0.3836  0.6462
  555MOL0     H73227   7.763   1.405   6.274  1.5702 -1.4850 -0.1663
  555MOL0     H73228   7.858   1.210   6.373 -3.3212 -1.3814  0.7725
  555MOL0     H73229   7.786   1.249   6.520 -0.9602  3.1200  1.1653
  555MOL0     H73230   7.927   1.455   6.564  1.9885 -0.8475  0.6796
  555MOL0     H73231   7.959   1.468   6.387  2.1752 -1.8921 -0.5844
  555MOL0     H73232   8.061   1.246   6.545  1.4022  2.2653  2.9097
  555MOL0     H73233   8.102   1.302   6.378  3.1391 -0.4847  0.5389
  555MOL0     H73234   8.144   1.443   6.649 -0.8576 -2.6400  0.5801
  555MOL0     H73235   8.190   1.518   6.497  2.7394  0.3479  0.1524
  555MOL0     H73236   8.359   1.339   6.458  1.3878  1.1560  0.1103
  555MOL0     H73237   8.311   1.248   6.599  0.9117 -2.1558 -2.7769
  555MOL0     H73238   8.423   1.536   6.591  0.3861  0.9349  0.4075
  555MOL0     H73239   8.377   1.459   6.752  3.6158  1.3058  0.7288
  555MOL0     H73240   8.597   1.423   6.739  3.4645 -4.9221  0.2306
  555MOL0     H73241   8.599   1.381   6.571 -2.7424  1.2408 -1.1476
  555MOL0     H73242   7.404   1.126   6.270  2.7568  0.5518  0.8779
  555MOL0     H73243   7.195   1.208   6.183 -1.8660  0.1601  2.3552
  555MOL0     H73244   6.882   1.452   6.166 -3.6745  0.3126  1.7668
  555MOL0     H73245   6.661   1.446   6.118  2.2517 -0.0785  2.6650
  555MOL0     H73246   7.075   1.909   5.494 -2.1803  0.2228  1.2085
  555MOL0     H73247   7.325   1.978   5.467 -3.1503 -4.2652 -3.6319
  555MOL0     H73248   7.760   1.952   5.551  1.3767  0.0348 -1.7785
  555MOL0     H73249   7.989   2.045   5.532  0.9175 -0.3811  2.5616
  555MOL0     H73250   8.241   2.240   5.579 -1.9231  3.9915 -1.3911
  555MOL0     H73251   8.137   2.134   5.664  0.0750  0.2606  1.7988
  555MOL0     H73252   8.136   2.315   5.846  0.7905  0.8119  0.0273
  555MOL0     H73253   8.288   2.233   5.791  0.9342 -0.7521 -4.1139
  555MOL0     H73254   8.205   2.495   5.667  3.2750  0.7665 -0.7964
  555MOL0     H73255   8.365   2.434   5.723  0.4840  0.7564 -0.1943
  555MOL0     H73256   8.261   2.627   5.876  0.2740 -0.3302  1.6532
  555MOL0     H73257   8.149   2.502   5.923  0.1259 -0.2311  0.2925
  555MOL0     H73258   8.490   2.430   6.152 -0.8277 -2.0631  0.0652
  555MOL0     H73259   7.820   2.434   5.605 -2.2533 -0.3865  1.2608
  555MOL0     H73260   7.614   2.340   5.676  0.0139  2.0880 -2.7199
  556MOL0     O73261   2.829  10.366   3.421  0.5069 -0.0587 -0.6795
  556MOL0     C73262   2.879  10.313   3.521 -0.1971 -0.7737 -0.1801
  556MOL0     O73263   2.864  10.358   3.652 -0.4189  0.4097  0.5453
  556MOL0     C73264   2.808  10.484   3.669 -0.4558 -0.8202 -0.0247
  556MOL0     C73265   2.868  10.579   3.760  1.1977  0.6085 -0.7199
  556MOL0     C73266   2.802  10.687   3.817  0.0727 -0.0775  0.2187
  556MOL0     C73267   2.677  10.719   3.767  0.6225 -0.1965 -0.0984
  556MOL0     O73268   2.614  10.826   3.825 -0.6070 -0.7796  0.3992
  556MOL0     C73269   2.470  10.843   3.812 -0.3339  0.3353 -0.7048
  556MOL0     C73270   2.448  10.968   3.889  0.2055 -0.9601  0.5961
  556MOL0     C73271   2.304  11.000   3.910  0.3269  0.4952  0.1220
  556MOL0     C73272   2.298  11.142   3.971 -0.3470  0.1424 -0.4694
  556MOL0     C73273   2.154  11.200   3.985 -0.1914  0.4343 -0.2746
  556MOL0     C73274   2.084  11.166   4.114 -0.2560  1.3774 -0.1842
  556MOL0     C73275   1.938  11.210   4.125 -0.2133 -0.2100  0.5757
  556MOL0     C73276   1.913  11.358   4.080 -0.5807  0.9433  0.3801
  556MOL0     N73277   1.992  11.452   4.167  0.0476  0.0790 -1.0637
  556MOL0     C73278   1.970  11.455   4.307 -0.2584  0.0067  1.1831
  556MOL0     C73279   2.068  11.539   4.355  0.1592 -0.4471  0.9662
  556MOL0     C73280   2.101  11.569   4.492 -0.1026 -0.8941  0.4701
  556MOL0     C73281   2.039  11.696   4.550 -0.0138 -0.8191 -0.0115
  556MOL0     C73282   2.125  11.759   4.665 -0.2077 -0.1676 -0.6015
  556MOL0     C73283   2.082  11.903   4.700 -0.1244  0.4007  0.2561
  556MOL0     O73284   1.979  11.908   4.793  0.2952 -0.1971 -0.4518
  556MOL0     C73285   1.930  12.025   4.846  0.3512  0.2353 -0.5887
  556MOL0     C73286   1.852  12.034   4.961 -0.7158 -0.0361 -0.0903
  556MOL0     C73287   1.806  12.152   5.012 -0.0781 -0.0482  0.8496
  556MOL0     C73288   1.829  12.269   4.940  0.6882 -0.0106  0.4468
  556MOL0     C73289   1.770  12.407   4.985  0.4641  0.2665 -0.3636
  556MOL0     O73290   1.763  12.516   4.894  1.3455  1.0523  0.1875
  556MOL0     C73291   1.728  12.645   4.913 -0.4979  0.4805  0.4309
  556MOL0     C73292   1.701  12.702   5.038  0.2536 -0.4302  0.0437
  556MOL0     C73293   1.664  12.839   5.049  0.5514  0.0199 -0.6980
  556MOL0     C73294   1.652  12.927   4.948 -0.4765 -0.1307 -0.1393
  556MOL0     O73295   1.611  13.059   4.968 -0.2514  0.1979  1.0173
  556MOL0     C73296   1.670  13.167   4.896 -0.5078  0.9234  1.0924
  556MOL0     C73297   1.727  13.266   4.998 -0.7243  0.3175  0.6990
  556MOL0     C73298   1.732  13.395   4.918  0.2691  0.1564 -0.5233
  556MOL0     C73299   1.793  13.526   4.977 -0.0787  1.0803 -0.1309
  556MOL0     C73300   1.689  13.622   5.031 -0.0346 -0.7334  0.1043
  556MOL0     C73301   1.585  13.576   5.141 -0.1596 -0.6307  0.2018
  556MOL0     C73302   1.452  13.660   5.114  0.5159  0.7425 -0.3417
  556MOL0     C73303   1.401  13.698   5.244  0.5128  0.2370  1.1364
  556MOL0    Cl73304   1.323  13.549   5.313 -0.6705 -0.1963  0.3750
  556MOL0     C73305   1.700  12.872   4.822  1.0368 -0.1401  1.0870
  556MOL0     C73306   1.743  12.738   4.808  0.3374 -1.1849  0.3586
  556MOL0     O73307   1.735  12.415   5.103  0.0814 -0.2996  0.6181
  556MOL0     C73308   1.898  12.260   4.819  0.8991  0.3172  0.4146
  556MOL0     C73309   1.948  12.141   4.773  0.6200 -0.3255  0.2201
  556MOL0     N73310   2.129  11.592   4.242  0.2912 -0.0582 -0.0883
  556MOL0     N73311   2.096  11.528   4.133  0.1582  0.0258 -0.0220
  556MOL0     C73312   2.611  10.625   3.680 -0.3296 -0.3547 -0.8604
  556MOL0     C73313   2.675  10.511   3.638 -0.5876  0.2337 -0.4608
  556MOL0     C73314   2.955  10.198   3.494 -0.5388  0.2283  0.3638
  556MOL0     C73315   3.024  10.123   3.599  0.6115 -0.0562 -0.4712
  556MOL0     C73316   3.101  10.013   3.576 -0.5302  0.0113 -0.3636
  556MOL0     C73317   3.095   9.957   3.451 -0.6698 -0.7131 -0.0260
  556MOL0     O73318   3.144   9.834   3.425 -0.7931 -0.7002 -0.2113
  556MOL0     C73319   3.230   9.752   3.508  0.5491  0.3004 -0.6814
  556MOL0     C73320   3.378   9.812   3.497  0.3351  0.2549 -0.0558
  556MOL0     C73321   3.457   9.768   3.368  0.5275  0.0713  0.0354
  556MOL0     C73322   3.399   9.829   3.250  0.1573  0.1595  0.0789
  556MOL0     C73323   3.478   9.791   3.131  0.5758 -0.7885 -0.1162
  556MOL0     C73324   3.550   9.754   3.047 -0.9072  0.0035 -0.7348
  556MOL0     C73325   3.026  10.019   3.343 -1.1287  0.5353 -0.1021
  556MOL0     C73326   2.967  10.144   3.362 -1.0757 -0.7842  0.4330
  556MOL0     H73327   2.972  10.563   3.784  1.4117 -0.7727 -2.4172
  556MOL0     H73328   2.850  10.766   3.875  0.8589  0.0080 -0.5259
  556MOL0     H73329   2.426  10.757   3.864  1.6906  0.1996  0.8932
  556MOL0     H73330   2.437  10.854   3.708  1.5806 -0.2143 -1.4031
  556MOL0     H73331   2.487  11.054   3.833  0.2505 -1.8186 -0.7407
  556MOL0     H73332   2.503  10.955   3.982  0.9554  1.4627  0.5728
  556MOL0     H73333   2.265  10.925   3.979  4.1676 -1.2217  0.7012
  556MOL0     H73334   2.258  10.990   3.811 -2.0308 -1.7862  1.3388
  556MOL0     H73335   2.339  11.135   4.072 -1.1869 -2.6140 -0.2117
  556MOL0     H73336   2.348  11.224   3.919 -1.5683  0.3377 -1.3831
  556MOL0     H73337   2.100  11.160   3.899  2.2180  2.6310 -3.0032
  556MOL0     H73338   2.152  11.309   3.974 -2.2769  0.9688  3.6907
  556MOL0     H73339   2.135  11.211   4.199  0.1128 -1.5515  1.2775
  556MOL0     H73340   2.080  11.059   4.135 -0.5748  2.1199  4.6030
  556MOL0     H73341   1.874  11.148   4.062 -0.7207  0.2646  0.6199
  556MOL0     H73342   1.919  11.194   4.231 -0.7391  1.2030  0.7154
  556MOL0     H73343   1.810  11.395   4.085 -0.7318  0.9153 -1.5665
  556MOL0     H73344   1.945  11.366   3.976  1.0668  0.2335  0.8030
  556MOL0     H73345   1.898  11.402   4.370  0.6687 -1.7700  0.8104
  556MOL0     H73346   2.209  11.579   4.502 -0.2105  2.0079 -0.3532
  556MOL0     H73347   2.072  11.487   4.559  1.7803 -2.9099 -1.0270
  556MOL0     H73348   1.935  11.683   4.581 -0.7146  3.2265 -0.1428
  556MOL0     H73349   2.039  11.761   4.463  0.0003  0.0162  0.6028
  556MOL0     H73350   2.133  11.686   4.746 -3.9611 -0.2537 -0.1390
  556MOL0     H73351   2.229  11.757   4.630  0.5482 -1.4769  1.5374
  556MOL0     H73352   2.048  11.958   4.612 -1.2437 -2.0675 -0.9547
  556MOL0     H73353   2.168  11.952   4.747 -0.7931 -0.4269  2.4762
  556MOL0     H73354   1.839  11.941   5.015  2.3249 -1.6598 -1.8909
  556MOL0     H73355   1.734  12.150   5.094  0.7418  2.4017  1.7319
  556MOL0     H73356   1.708  12.641   5.128 -1.0392 -0.4964  0.1132
  556MOL0     H73357   1.632  12.879   5.145 -4.6540  0.3563 -2.2825
  556MOL0     H73358   1.589  13.212   4.836 -0.0131 -0.3769 -0.6342
  556MOL0     H73359   1.742  13.133   4.821 -1.5035 -2.4124  1.5240
  556MOL0     H73360   1.821  13.221   5.032 -1.1247 -1.6891 -0.6506
  556MOL0     H73361   1.658  13.274   5.083 -2.5965  0.2931 -0.7566
  556MOL0     H73362   1.627  13.414   4.895 -0.5695  0.2639  2.9033
  556MOL0     H73363   1.780  13.372   4.822 -1.0458  2.6610 -1.8846
  556MOL0     H73364   1.861  13.487   5.053 -2.0568 -1.6331  0.4090
  556MOL0     H73365   1.853  13.577   4.902  0.8259  1.6417  0.9364
  556MOL0     H73366   1.637  13.660   4.942  1.2791  1.1929  0.0782
  556MOL0     H73367   1.730  13.715   5.072 -2.9965  0.8229 -0.1463
  556MOL0     H73368   1.626  13.589   5.242 -0.9047  0.1528  0.4132
  556MOL0     H73369   1.558  13.471   5.139 -1.3189 -0.5229  3.3998
  556MOL0     H73370   1.464  13.751   5.055  0.3176  2.1060  1.6374
  556MOL0     H73371   1.380  13.602   5.056  0.6687  2.4333 -2.3594
  556MOL0     H73372   1.317  13.768   5.252 -0.8667 -1.4266  2.0785
  556MOL0     H73373   1.470  13.752   5.309  0.5897 -1.2239  2.3256
  556MOL0     H73374   1.679  12.932   4.734 -0.5151 -0.4218  1.2449
  556MOL0     H73375   1.775  12.694   4.715  1.6022 -0.0800  0.2388
  556MOL0     H73376   1.920  12.347   4.758  0.2804  2.0039  2.4855
  556MOL0     H73377   1.990  12.138   4.673  1.3727 -3.7023  0.4996
  556MOL0     H73378   2.510  10.647   3.647 -0.8092  0.7555  1.1966
  556MOL0     H73379   2.624  10.451   3.563 -0.7399  0.0780 -0.2357
  556MOL0     H73380   3.018  10.155   3.703  1.1187  2.7758 -1.2336
  556MOL0     H73381   3.150   9.967   3.660  2.9361  0.7921 -1.7557
  556MOL0     H73382   3.229   9.645   3.486 -1.2177 -0.6868  3.3125
  556MOL0     H73383   3.191   9.764   3.609 -1.5974 -1.9490 -1.1355
  556MOL0     H73384   3.375   9.921   3.494  0.4420  0.2710  0.2967
  556MOL0     H73385   3.429   9.781   3.589 -0.8410 -1.0807  0.1867
  556MOL0     H73386   3.461   9.659   3.356  4.9967  0.0628 -0.0772
  556MOL0     H73387   3.563   9.792   3.377  1.1529 -2.5119  0.3962
  556MOL0     H73388   3.295   9.798   3.240  0.5324 -1.2061  0.2617
  556MOL0     H73389   3.403   9.938   3.262 -2.0880  0.5182 -1.7415
  556MOL0     H73390   3.637   9.730   2.989  0.6835  0.6232  1.2526
  556MOL0     H73391   3.027   9.972   3.245 -0.7686  1.2656 -0.4501
  556MOL0     H73392   2.930  10.208   3.283  0.5730  2.9051  2.3605
  557MOL0     O73393   3.101   3.117   0.289  0.1316 -0.1231  0.2721
  557MOL0     C73394   3.104   3.060   0.182 -0.1441  0.5403  1.3462
  557MOL0     O73395   3.091   3.119   0.059  0.7539  0.2043  0.0711
  557MOL0     C73396   3.050   3.251   0.054 -0.9089 -0.0482  0.0515
  557MOL0     C73397   3.118   3.337  -0.033 -0.5411  0.8176  0.2123
  557MOL0     C73398   3.076   3.472  -0.054 -0.2498  0.2587  0.0890
  557MOL0     C73399   2.958   3.521   0.013  0.2167 -0.1953  1.0106
  557MOL0     O73400   2.931   3.652  -0.017 -0.1061 -0.3408  1.0389
  557MOL0     C73401   2.809   3.713   0.014  0.1059 -0.3721 -0.5893
  557MOL0     C73402   2.802   3.865  -0.027 -0.2008  0.2132  0.0466
  557MOL0     C73403   2.872   3.907  -0.163 -0.1862 -0.6146  0.0068
  557MOL0     C73404   2.809   3.817  -0.275  0.4723 -0.2275  0.2074
  557MOL0     C73405   2.859   3.878  -0.409  0.5996  0.7652  0.3831
  557MOL0     C73406   2.756   3.841  -0.520 -1.0723  0.1306 -0.4794
  557MOL0     C73407   2.797   3.873  -0.670  0.5139 -0.7034  0.2858
  557MOL0     C73408   2.797   4.023  -0.708  0.2341 -0.8801 -0.5742
  557MOL0     N73409   2.781   4.032  -0.848  0.3946  0.2642 -0.3040
  557MOL0     C73410   2.666   4.049  -0.913  0.4108  0.5493  0.6473
  557MOL0     C73411   2.696   4.060  -1.046  0.7237 -0.4049 -0.1459
  557MOL0     C73412   2.592   4.068  -1.157 -0.3069  0.4314  0.7397
  557MOL0     C73413   2.458   4.134  -1.116  0.1585  0.6380  0.9668
  557MOL0     C73414   2.333   4.070  -1.193 -0.3256 -0.0969 -0.3090
  557MOL0     C73415   2.311   3.915  -1.195 -0.0341  0.3960 -0.1174
  557MOL0     O73416   2.182   3.882  -1.245  0.1755 -0.3371 -0.9531
  557MOL0     C73417   2.067   3.928  -1.178 -1.1103 -0.3346 -0.2166
  557MOL0     C73418   2.066   3.907  -1.042 -0.0218  0.2020  0.7973
  557MOL0     C73419   1.943   3.892  -0.975  0.7098 -0.2778 -0.1036
  557MOL0     C73420   1.824   3.909  -1.047 -0.6956  0.0406 -0.2882
  557MOL0     C73421   1.698   3.919  -0.974  0.2417 -0.7710  0.1963
  557MOL0     O73422   1.695   3.875  -0.839  0.0906  0.8503  0.1605
  557MOL0     C73423   1.587   3.896  -0.763  0.1997  0.1045  0.4080
  557MOL0     C73424   1.453   3.843  -0.797  0.4966  0.2354  0.2006
  557MOL0     C73425   1.343   3.842  -0.700 -1.4158  0.6272  0.6971
  557MOL0     C73426   1.375   3.892  -0.572 -0.3982 -0.2104  0.7916
  557MOL0     O73427   1.280   3.889  -0.471 -0.2923  0.2393  0.0243
  557MOL0     C73428   1.202   4.008  -0.476  0.9674 -0.2609  0.8854
  557MOL0     C73429   1.057   3.961  -0.444 -0.4270 -0.2177  0.9640
  557MOL0     C73430   0.965   4.077  -0.487 -1.2051  0.5216  0.5651
  557MOL0     C73431   0.836   4.069  -0.403  0.2697 -0.7270  1.0723
  557MOL0     C73432   0.704   4.126  -0.453 -0.2307  0.0765 -0.2642
  557MOL0     C73433   0.576   4.102  -0.374  0.4636  0.0170 -0.3722
  557MOL0     C73434   0.579   4.137  -0.226  0.0947  0.3089  0.2707
  557MOL0     C73435   0.440   4.157  -0.159 -0.4876 -0.7500  1.2151
  557MOL0    Cl73436   0.456   4.192   0.016  0.4070  0.0222  0.0749
  557MOL0     C73437   1.499   3.943  -0.542  0.9191 -0.5901 -0.1476
  557MOL0     C73438   1.602   3.945  -0.637 -0.4167 -0.2812 -0.3728
  557MOL0     O73439   1.598   3.962  -1.036 -0.3302 -0.0354 -1.1869
  557MOL0     C73440   1.824   3.932  -1.185  0.1167 -0.1112  1.1986
  557MOL0     C73441   1.947   3.936  -1.250  0.9691  0.3228 -0.2179
  557MOL0     N73442   2.833   4.043  -1.056  1.0026  0.3220 -0.2114
  557MOL0     N73443   2.879   4.022  -0.941 -0.2992 -0.1498 -0.5274
  557MOL0     C73444   2.883   3.431   0.096  1.1053  0.9782  0.2729
  557MOL0     C73445   2.941   3.297   0.123  0.0594 -0.3941  1.3072
  557MOL0     C73446   3.135   2.910   0.186  0.0070  0.7311 -0.1453
  557MOL0     C73447   3.127   2.818   0.077 -0.4536  0.0602 -0.5219
  557MOL0     C73448   3.163   2.685   0.097 -0.0081  0.1690 -0.7957
  557MOL0     C73449   3.186   2.634   0.225 -0.1772 -0.6203  0.8007
  557MOL0     O73450   3.210   2.501   0.237  0.0812  0.3992  0.7323
  557MOL0     C73451   3.185   2.438   0.362 -0.3935 -0.8079 -0.1542
  557MOL0     C73452   3.238   2.296   0.346  0.0029 -1.3029  0.6337
  557MOL0     C73453   3.192   2.212   0.455  0.7592  0.3390 -0.2522
  557MOL0     C73454   3.295   2.097   0.468 -0.5883 -0.4871 -0.2731
  557MOL0     C73455   3.315   2.016   0.350 -0.2424 -0.1212  1.4288
  557MOL0     C73456   3.326   1.959   0.245  0.6547  0.4045  0.2211
  557MOL0     C73457   3.192   2.716   0.338  0.8919 -0.4469  0.8194
  557MOL0     C73458   3.160   2.854   0.317  0.8950  0.1128 -0.1277
  557MOL0     H73459   3.197   3.281  -0.083 -1.9497 -1.1287  0.0537
  557MOL0     H73460   3.133   3.546  -0.109  1.9905  0.1254  2.0691
  557MOL0     H73461   2.789   3.715   0.122  1.6238  1.2424 -0.2810
  557MOL0     H73462   2.727   3.669  -0.042  0.6475  0.2368 -1.9079
  557MOL0     H73463   2.861   3.918   0.049  1.6775  4.9521 -4.1908
  557MOL0     H73464   2.702   3.908  -0.024 -0.4775 -0.1968 -1.8654
  557MOL0     H73465   2.981   3.899  -0.163  0.0283  1.3485 -2.2108
  557MOL0     H73466   2.855   4.014  -0.178 -0.3261 -0.5970  0.2779
  557MOL0     H73467   2.818   3.709  -0.261  1.7612 -0.4881 -2.1309
  557MOL0     H73468   2.702   3.836  -0.278  0.7345  1.4211  0.1887
  557MOL0     H73469   2.957   3.840  -0.437  0.5133 -0.5601  1.7752
  557MOL0     H73470   2.868   3.987  -0.398  0.5651  0.6030  2.3965
  557MOL0     H73471   2.663   3.895  -0.505 -0.4380  1.2416 -0.4638
  557MOL0     H73472   2.741   3.733  -0.524  1.4448 -0.2332 -3.1465
  557MOL0     H73473   2.891   3.818  -0.680 -0.8421 -2.9212 -1.2107
  557MOL0     H73474   2.726   3.817  -0.732  1.2962 -0.1567 -1.1669
  557MOL0     H73475   2.883   4.070  -0.661 -1.7546  0.1656  2.3031
  557MOL0     H73476   2.712   4.075  -0.664 -0.2381 -2.8237  0.9698
  557MOL0     H73477   2.565   4.071  -0.881 -0.2692  1.8365 -2.0826
  557MOL0     H73478   2.569   3.968  -1.194  0.6433  1.0130 -1.6411
  557MOL0     H73479   2.631   4.118  -1.246 -3.1723 -1.9248 -2.0881
  557MOL0     H73480   2.479   4.241  -1.130 -1.9002  1.3556  2.7935
  557MOL0     H73481   2.434   4.127  -1.009  2.4203 -1.0874  1.4439
  557MOL0     H73482   2.250   4.120  -1.142 -1.6106 -3.4864  1.1931
  557MOL0     H73483   2.332   4.103  -1.297  0.4426 -2.7549 -1.2503
  557MOL0     H73484   2.326   3.871  -1.096  1.1525 -4.4742 -2.1795
  557MOL0     H73485   2.387   3.866  -1.256 -0.3475 -1.4644  0.9305
  557MOL0     H73486   2.158   3.888  -0.987 -0.2706 -2.7016  0.3807
  557MOL0     H73487   1.943   3.875  -0.868  2.6208  1.2750  0.1939
  557MOL0     H73488   1.428   3.804  -0.895 -1.6935  1.0715  0.3736
  557MOL0     H73489   1.242   3.807  -0.716 -1.2033  0.5918 -0.7599
  557MOL0     H73490   1.186   4.045  -0.578  0.6582 -4.5595 -0.8417
  557MOL0     H73491   1.242   4.076  -0.401 -2.5695 -0.2456  2.9811
  557MOL0     H73492   1.046   3.942  -0.337 -0.6228  2.4049  1.4729
  557MOL0     H73493   1.037   3.867  -0.497  0.4733 -0.3238  0.8047
  557MOL0     H73494   0.939   4.064  -0.592 -0.0317  0.0240  0.3228
  557MOL0     H73495   1.020   4.171  -0.480  1.7842 -1.1660  1.0436
  557MOL0     H73496   0.817   3.966  -0.369  0.8911 -1.4493 -0.6592
  557MOL0     H73497   0.858   4.112  -0.305 -0.8810 -0.2254  1.1263
  557MOL0     H73498   0.686   4.096  -0.556 -1.5356  3.1299 -1.0574
  557MOL0     H73499   0.718   4.235  -0.459 -0.8376  0.4441  2.9440
  557MOL0     H73500   0.541   3.999  -0.384  1.8844 -0.3893 -1.4396
  557MOL0     H73501   0.493   4.161  -0.415 -1.7965  0.6673  4.3869
  557MOL0     H73502   0.641   4.064  -0.173 -0.2376 -0.0728  0.1391
  557MOL0     H73503   0.626   4.236  -0.220 -0.2497  0.4924 -0.0600
  557MOL0     H73504   0.377   4.069  -0.177  0.9813 -1.5215 -0.4238
  557MOL0     H73505   0.389   4.241  -0.208  1.7624 -0.5373 -0.9634
  557MOL0     H73506   1.523   3.976  -0.442 -0.6157  3.9613 -1.0229
  557MOL0     H73507   1.701   3.984  -0.614  0.6770 -1.7663 -2.2925
  557MOL0     H73508   1.728   3.939  -1.234  0.9502  0.9889 -0.3755
  557MOL0     H73509   1.953   3.938  -1.359  1.2261 -3.5462 -0.4046
  557MOL0     H73510   2.795   3.468   0.146  1.8150 -0.9177  3.1486
  557MOL0     H73511   2.881   3.238   0.192 -2.4903  1.6878  1.0238
  557MOL0     H73512   3.093   2.843  -0.023 -1.8038  1.2578  0.1998
  557MOL0     H73513   3.168   2.608   0.021  0.7543  0.3185 -0.9033
  557MOL0     H73514   3.077   2.444   0.379  0.0496 -1.5921  3.9311
  557MOL0     H73515   3.232   2.485   0.449  2.9400 -2.7786 -0.6872
  557MOL0     H73516   3.188   2.254   0.258 -1.7240 -0.7876  1.3340
  557MOL0     H73517   3.347   2.300   0.339 -0.0788  2.0246 -0.6538
  557MOL0     H73518   3.087   2.180   0.453  1.5638 -2.6707 -3.4107
  557MOL0     H73519   3.201   2.271   0.547  1.0818  0.2382 -0.2201
  557MOL0     H73520   3.384   2.138   0.518 -3.3431  4.9423  0.9296
  557MOL0     H73521   3.258   2.032   0.548 -1.6628  0.8187  0.3333
  557MOL0     H73522   3.326   1.915   0.147  0.3581  0.2266  0.3004
  557MOL0     H73523   3.209   2.681   0.439 -1.2401 -0.0106  1.3797
  557MOL0     H73524   3.171   2.920   0.402  2.1132  1.4550 -1.2935
  558MOL0     O73525   1.687   5.056   1.903  0.0449  0.3222 -0.0503
  558MOL0     C73526   1.607   5.027   1.819 -0.4464  0.1727  0.2406
  558MOL0     O73527   1.492   5.094   1.801 -0.2641  0.1247  1.3980
  558MOL0     C73528   1.440   5.193   1.881  0.4885  0.8480 -0.5351
  558MOL0     C73529   1.374   5.296   1.822 -0.2940  0.5485  0.4206
  558MOL0     C73530   1.294   5.394   1.899  0.3071  0.5860  1.0405
  558MOL0     C73531   1.285   5.374   2.037 -0.1968 -0.3080 -0.4043
  558MOL0     O73532   1.219   5.466   2.109 -0.7334  0.0467 -0.1701
  558MOL0     C73533   1.304   5.535   2.193 -0.5807 -0.4195 -0.0676
  558MOL0     C73534   1.249   5.671   2.202 -0.4227  0.0113 -0.2132
  558MOL0     C73535   1.329   5.768   2.286  0.1341  0.9711  0.3531
  558MOL0     C73536   1.264   5.789   2.432  0.7240 -0.0105  0.4165
  558MOL0     C73537   1.320   5.913   2.495  0.1690  0.6684  0.2552
  558MOL0     C73538   1.233   5.964   2.604  0.6009  0.3630 -0.1900
  558MOL0     C73539   1.295   6.069   2.685 -0.2004  0.1965 -0.0124
  558MOL0     C73540   1.192   6.124   2.782 -0.9348  0.5885  0.2652
  558MOL0     N73541   1.254   6.218   2.882  0.1340  0.3472 -0.1154
  558MOL0     C73542   1.265   6.191   3.015  0.3119  0.5622 -0.4330
  558MOL0     C73543   1.299   6.305   3.078  0.2695 -0.4300  0.1537
  558MOL0     C73544   1.328   6.312   3.228 -0.0555 -0.3522  0.0222
  558MOL0     C73545   1.298   6.443   3.294 -0.7268 -0.5053  0.3435
  558MOL0     C73546   1.407   6.545   3.253  0.5244  0.1277  0.8402
  558MOL0     C73547   1.367   6.694   3.233 -0.2685 -0.2103  0.8747
  558MOL0     O73548   1.295   6.726   3.353  0.3339  0.7304  0.4493
  558MOL0     C73549   1.191   6.805   3.341 -0.0119 -0.4279  0.0093
  558MOL0     C73550   1.140   6.895   3.233 -0.4776 -0.1381 -1.0288
  558MOL0     C73551   1.026   6.974   3.255  0.3355 -0.3069  1.0966
  558MOL0     C73552   0.958   6.987   3.374 -0.7182  0.1958 -0.0760
  558MOL0     C73553   0.841   7.082   3.402  0.0863 -1.1944  0.2851
  558MOL0     O73554   0.751   7.036   3.488  0.4181  0.6894  0.3397
  558MOL0     C73555   0.641   7.103   3.547  0.1832  0.2540  0.7918
  558MOL0     C73556   0.562   7.026   3.626  0.6918 -1.5802 -0.4310
  558MOL0     C73557   0.427   7.068   3.661 -0.3253  0.6930 -0.5239
  558MOL0     C73558   0.383   7.191   3.624  0.1504 -0.8808 -0.9872
  558MOL0     O73559   0.253   7.223   3.659  0.2687 -0.8218 -0.0180
  558MOL0     C73560   0.185   7.294   3.550 -0.0140  0.3618 -0.0523
  558MOL0     C73561   0.035   7.298   3.581  0.3815  0.1137  0.2957
  558MOL0     C73562  -0.029   7.160   3.627  0.4517 -0.4046 -0.3912
  558MOL0     C73563  -0.171   7.153   3.600 -0.6922  0.3060  0.5578
  558MOL0     C73564  -0.248   7.033   3.666 -0.8089  0.2398  0.3093
  558MOL0     C73565  -0.290   6.937   3.556 -0.5719  0.2663  0.7494
  558MOL0     C73566  -0.407   6.853   3.604  0.3495 -0.4842 -1.1074
  558MOL0     C73567  -0.374   6.713   3.647 -0.2924  0.3142  0.4235
  558MOL0    Cl73568  -0.262   6.718   3.807 -0.1192 -0.0223 -0.0023
  558MOL0     C73569   0.476   7.281   3.564  0.5034  0.3732 -0.7470
  558MOL0     C73570   0.596   7.232   3.519  0.3764 -0.0556 -0.2469
  558MOL0     O73571   0.849   7.198   3.356 -0.1198  0.5546  0.8170
  558MOL0     C73572   1.003   6.903   3.475  0.2664 -0.0907 -1.0717
  558MOL0     C73573   1.117   6.822   3.462 -0.9655  1.2067 -0.2873
  558MOL0     N73574   1.289   6.405   2.982  0.4553  0.1533 -0.5580
  558MOL0     N73575   1.259   6.351   2.868 -0.9267 -0.6903 -0.5626
  558MOL0     C73576   1.369   5.279   2.098  1.0294 -0.1373  0.2330
  558MOL0     C73577   1.437   5.185   2.020 -0.8302 -0.0667 -0.2860
  558MOL0     C73578   1.644   4.918   1.716  0.3315  0.1017  0.4669
  558MOL0     C73579   1.773   4.858   1.726  0.1906 -0.3059  1.4904
  558MOL0     C73580   1.811   4.768   1.622  0.2136  0.1404  0.1458
  558MOL0     C73581   1.730   4.738   1.512 -0.6029  0.6962  0.0408
  558MOL0     O73582   1.783   4.641   1.429 -0.0559  0.1701 -0.4241
  558MOL0     C73583   1.705   4.623   1.307  0.2352  0.4562 -0.5717
  558MOL0     C73584   1.768   4.700   1.189  0.4993 -0.3072  1.0635
  558MOL0     C73585   1.678   4.708   1.060 -0.7823 -0.1516 -0.7725
  558MOL0     C73586   1.719   4.842   0.992  0.4029 -0.9382 -0.7564
  558MOL0     C73587   1.715   4.831   0.849 -0.0301 -1.3037 -0.6799
  558MOL0     C73588   1.736   4.859   0.737  0.0045  0.4314 -0.2757
  558MOL0     C73589   1.607   4.809   1.516 -0.5136 -0.4608  0.8985
  558MOL0     C73590   1.561   4.894   1.611 -0.0188 -0.8365  0.7010
  558MOL0     H73591   1.381   5.294   1.714  0.8726 -5.1683  0.2552
  558MOL0     H73592   1.222   5.461   1.853 -1.2215  0.9875  3.7790
  558MOL0     H73593   1.404   5.546   2.150  0.4995  0.6120  2.5300
  558MOL0     H73594   1.310   5.475   2.284  4.6326 -2.8739 -1.6158
  558MOL0     H73595   1.146   5.664   2.236 -0.8626 -0.1216 -1.5450
  558MOL0     H73596   1.236   5.703   2.099  1.2651 -1.9498 -1.1196
  558MOL0     H73597   1.332   5.859   2.224  0.1765 -0.1109 -1.2918
  558MOL0     H73598   1.431   5.732   2.300  0.9747  2.9925 -0.1185
  558MOL0     H73599   1.156   5.796   2.417  0.5834  3.8543  2.0395
  558MOL0     H73600   1.281   5.701   2.495  2.3319 -1.0838 -1.3938
  558MOL0     H73601   1.331   5.996   2.426 -3.5138  0.5926 -0.6397
  558MOL0     H73602   1.417   5.879   2.533  1.2278  1.0263 -1.9758
  558MOL0     H73603   1.189   5.884   2.664 -0.8902 -0.6323 -2.4621
  558MOL0     H73604   1.143   5.994   2.550 -0.5498 -0.7590  1.0157
  558MOL0     H73605   1.370   6.011   2.739 -0.5567  0.4011  0.7248
  558MOL0     H73606   1.339   6.138   2.613 -0.1481  0.7907  0.5768
  558MOL0     H73607   1.150   6.050   2.851 -0.5090  1.0046  0.9868
  558MOL0     H73608   1.109   6.172   2.728 -2.8675 -1.4368  1.2584
  558MOL0     H73609   1.263   6.096   3.066 -0.7613  1.0883  0.5500
  558MOL0     H73610   1.426   6.270   3.256 -0.1833  0.2341  1.4414
  558MOL0     H73611   1.258   6.237   3.267  1.3162 -1.7346 -0.0540
  558MOL0     H73612   1.281   6.432   3.401 -0.9621  1.3012  0.5305
  558MOL0     H73613   1.204   6.485   3.256 -0.6798  0.4817  1.2557
  558MOL0     H73614   1.486   6.538   3.329 -0.1219  1.1767  1.6306
  558MOL0     H73615   1.451   6.509   3.159  0.8543  1.1280  0.5995
  558MOL0     H73616   1.309   6.710   3.142 -1.3931  1.2065  1.8127
  558MOL0     H73617   1.464   6.744   3.225  0.1402 -1.2344 -1.3127
  558MOL0     H73618   1.181   6.894   3.132  1.1804  1.2277 -0.4099
  558MOL0     H73619   0.992   7.038   3.174 -0.2861  2.0175  3.0813
  558MOL0     H73620   0.584   6.932   3.674 -1.1565 -1.5182  0.6268
  558MOL0     H73621   0.378   7.014   3.742  1.7259  1.0645  1.0702
  558MOL0     H73622   0.202   7.248   3.452 -3.2352  3.1056 -2.1455
  558MOL0     H73623   0.224   7.396   3.537  1.5269 -0.2439 -0.3814
  558MOL0     H73624  -0.024   7.317   3.491 -2.9019 -3.1114  1.5235
  558MOL0     H73625   0.010   7.365   3.663 -0.6457  1.0410 -0.7339
  558MOL0     H73626  -0.015   7.143   3.734  2.2534 -2.2943 -0.8598
  558MOL0     H73627   0.014   7.067   3.588  0.8847 -0.3035 -0.1634
  558MOL0     H73628  -0.212   7.242   3.649 -1.4244 -0.5453  1.5213
  558MOL0     H73629  -0.189   7.156   3.492 -0.0582 -0.5512  0.4203
  558MOL0     H73630  -0.334   7.077   3.715  0.1689 -0.0872  2.4556
  558MOL0     H73631  -0.199   6.990   3.754  0.2458  1.6534  0.4482
  558MOL0     H73632  -0.206   6.881   3.515  0.4072  1.5221  0.9613
  558MOL0     H73633  -0.323   6.981   3.461 -1.9960 -1.4217  0.4236
  558MOL0     H73634  -0.470   6.892   3.684  4.0995 -0.6075  2.2446
  558MOL0     H73635  -0.476   6.847   3.519 -1.9667 -1.5800  0.7397
  558MOL0     H73636  -0.325   6.655   3.568  1.5155 -0.0845  1.7478
  558MOL0     H73637  -0.469   6.661   3.662  0.4006 -0.9427  0.6369
  558MOL0     H73638   0.449   7.383   3.538 -1.4447  0.3526  0.9305
  558MOL0     H73639   0.658   7.299   3.461 -1.6322 -0.8167 -3.5339
  558MOL0     H73640   0.958   6.910   3.573 -0.9055 -0.2938 -1.5789
  558MOL0     H73641   1.154   6.755   3.539  3.4591  1.5191 -1.8318
  558MOL0     H73642   1.366   5.284   2.206 -1.0059  0.6440  0.1847
  558MOL0     H73643   1.488   5.109   2.078  0.4729  1.2406  0.3429
  558MOL0     H73644   1.840   4.889   1.805  2.8664 -2.8656  0.3904
  558MOL0     H73645   1.908   4.721   1.637  0.2036  0.5204  1.6469
  558MOL0     H73646   1.596   4.629   1.314  0.1397 -0.2988 -1.2150
  558MOL0     H73647   1.713   4.521   1.268 -0.3820  1.0150 -2.2445
  558MOL0     H73648   1.790   4.801   1.225  2.0680 -0.8130  1.6377
  558MOL0     H73649   1.865   4.664   1.152 -0.2777  0.2204 -1.6396
  558MOL0     H73650   1.577   4.723   1.100 -0.0055  1.2346  0.8048
  558MOL0     H73651   1.696   4.622   0.996  1.2446 -0.5883  0.2835
  558MOL0     H73652   1.660   4.921   1.039 -0.2914 -2.4035  0.9251
  558MOL0     H73653   1.818   4.882   1.016 -0.6930  2.8100 -1.8089
  558MOL0     H73654   1.764   4.876   0.635  1.4725  1.4882  0.2817
  558MOL0     H73655   1.539   4.787   1.435 -2.1329  1.1213  1.7561
  558MOL0     H73656   1.464   4.943   1.606  0.8088  0.9703  1.4661
  559MOL0     O73657   8.152   2.505   6.399 -0.0303  0.3859 -0.3117
  559MOL0     C73658   8.116   2.623   6.388 -0.0627  0.0014  0.3493
  559MOL0     O73659   8.159   2.725   6.462 -0.0696 -0.2829 -0.3375
  559MOL0     C73660   8.266   2.704   6.529  0.7040 -0.4085 -0.7103
  559MOL0     C73661   8.263   2.696   6.666 -0.2570  0.4192 -0.6477
  559MOL0     C73662   8.386   2.681   6.728 -0.6952 -0.2660  0.1963
  559MOL0     C73663   8.508   2.683   6.664 -0.5269 -0.9078 -0.3747
  559MOL0     O73664   8.623   2.680   6.736 -0.2247 -0.0082 -0.2063
  559MOL0     C73665   8.730   2.580   6.716  0.3690 -0.0819  0.2261
  559MOL0     C73666   8.826   2.601   6.832  0.3528  0.0443 -0.3959
  559MOL0     C73667   8.928   2.717   6.837 -0.4410  0.8534 -0.4491
  559MOL0     C73668   8.872   2.840   6.774 -0.0120  0.3417 -1.3217
  559MOL0     C73669   8.968   2.952   6.777  0.7773 -0.4545 -0.8147
  559MOL0     C73670   8.919   3.081   6.695  0.6219  0.1824  0.2349
  559MOL0     C73671   8.969   3.213   6.741  0.4700  0.2362 -0.9430
  559MOL0     C73672   9.121   3.215   6.736  0.3082 -0.5431  0.3075
  559MOL0     N73673   9.198   3.336   6.780  0.7708  0.3560 -1.0276
  559MOL0     C73674   9.194   3.367   6.910  0.3085 -0.2670 -0.2114
  559MOL0     C73675   9.291   3.463   6.910 -0.4918  0.6974 -0.3159
  559MOL0     C73676   9.351   3.529   7.031 -0.4846  0.4886 -0.7380
  559MOL0     C73677   9.468   3.455   7.082 -0.0463  0.4449 -0.4111
  559MOL0     C73678   9.426   3.320   7.141  0.0966 -0.1899 -0.8161
  559MOL0     C73679   9.533   3.279   7.253  0.2512 -0.3037  0.3864
  559MOL0     O73680   9.570   3.388   7.344 -0.0955 -0.3076  1.0525
  559MOL0     C73681   9.506   3.429   7.462  0.2732  0.4516  0.0229
  559MOL0     C73682   9.377   3.381   7.499  0.7162 -0.2513 -0.8611
  559MOL0     C73683   9.325   3.402   7.625  1.3252  0.0562 -0.8218
  559MOL0     C73684   9.390   3.481   7.712 -0.5219 -1.0100  0.4480
  559MOL0     C73685   9.344   3.495   7.844 -0.6472  0.2022 -0.6814
  559MOL0     O73686   9.218   3.440   7.874  0.2374 -1.2715  0.1098
  559MOL0     C73687   9.165   3.445   8.004 -0.6814  0.0728  0.5266
  559MOL0     C73688   9.234   3.424   8.123 -0.6396 -0.6920 -0.6706
  559MOL0     C73689   9.165   3.425   8.241 -0.4363  0.2964  0.6943
  559MOL0     C73690   9.024   3.447   8.247 -0.9917  0.6468 -0.3446
  559MOL0     O73691   8.962   3.426   8.368 -0.4194 -0.3068  0.0730
  559MOL0     C73692   8.818   3.403   8.380  0.6901 -1.3274 -0.7081
  559MOL0     C73693   8.774   3.409   8.529  0.0453 -0.2326  0.1911
  559MOL0     C73694   8.754   3.544   8.601 -0.3639  0.1378 -0.5397
  559MOL0     C73695   8.673   3.539   8.731 -0.5706  0.1226  0.0995
  559MOL0     C73696   8.755   3.627   8.827  0.6890  0.8677 -0.5649
  559MOL0     C73697   8.682   3.626   8.963 -0.1854 -0.3728  0.4795
  559MOL0     C73698   8.752   3.697   9.074  0.3922 -0.3276  0.8256
  559MOL0     C73699   8.673   3.743   9.200  0.0967  0.4263  0.0455
  559MOL0    Cl73700   8.606   3.595   9.260 -0.0482 -0.3065 -0.1642
  559MOL0     C73701   8.960   3.471   8.127 -0.3368 -0.5680  0.2620
  559MOL0     C73702   9.029   3.467   8.009  0.8037  0.0351 -0.2268
  559MOL0     O73703   9.416   3.550   7.933 -0.7144  0.4146  0.0662
  559MOL0     C73704   9.507   3.559   7.662  0.0260  0.7628 -1.1379
  559MOL0     C73705   9.564   3.527   7.540 -0.2986  0.3618  0.0960
  559MOL0     N73706   9.348   3.484   6.788  0.5300 -0.5177  0.8655
  559MOL0     N73707   9.289   3.408   6.698 -0.0891 -1.3304  0.2811
  559MOL0     C73708   8.506   2.686   6.527  0.8082  0.0742  0.9728
  559MOL0     C73709   8.388   2.696   6.457  0.0710  0.2340  0.2030
  559MOL0     C73710   8.030   2.651   6.267 -0.0502  0.7071 -1.0792
  559MOL0     C73711   7.989   2.780   6.229 -0.7868  0.3497 -1.2492
  559MOL0     C73712   7.908   2.797   6.114  1.0381 -0.4730 -0.1495
  559MOL0     C73713   7.856   2.687   6.043  0.0923  0.4139 -0.1615
  559MOL0     O73714   7.769   2.708   5.935 -0.5351  0.4555 -0.1357
  559MOL0     C73715   7.654   2.617   5.943  0.1136  0.0887 -0.4034
  559MOL0     C73716   7.541   2.708   5.991  0.7515 -0.0929  0.0629
  559MOL0     C73717   7.513   2.817   5.893 -0.4519  0.2082 -0.0659
  559MOL0     C73718   7.419   2.924   5.948 -0.7837 -0.5373  0.6053
  559MOL0     C73719   7.363   3.011   5.845  0.9918 -0.1600 -1.0281
  559MOL0     C73720   7.327   3.105   5.771  0.0004  0.6669 -0.5969
  559MOL0     C73721   7.911   2.562   6.078  0.7971 -0.4943  0.1226
  559MOL0     C73722   7.995   2.542   6.185  0.3858  0.5414  0.4396
  559MOL0     H73723   8.184   2.685   6.739  1.1655 -0.9534  0.7720
  559MOL0     H73724   8.394   2.681   6.837 -1.6831 -1.9800  0.3019
  559MOL0     H73725   8.786   2.586   6.622 -1.3266 -3.5203 -1.1529
  559MOL0     H73726   8.692   2.478   6.727  0.4497 -0.7494 -4.0376
  559MOL0     H73727   8.873   2.508   6.865  1.6956  0.8977  0.2026
  559MOL0     H73728   8.758   2.625   6.915  1.1511 -0.7501  0.5237
  559MOL0     H73729   9.014   2.677   6.784 -0.5077  0.2789 -0.1358
  559MOL0     H73730   8.960   2.730   6.941  0.8656 -0.8865 -0.5861
  559MOL0     H73731   8.841   2.832   6.669  1.5477  4.5347 -2.2879
  559MOL0     H73732   8.780   2.867   6.826  1.2757  2.2297  0.1170
  559MOL0     H73733   9.069   2.916   6.754  0.9937 -0.6240  0.3671
  559MOL0     H73734   8.981   2.985   6.880 -0.8114 -3.1908  0.3787
  559MOL0     H73735   8.812   3.083   6.717  0.4223  1.9422 -0.7301
  559MOL0     H73736   8.934   3.061   6.589 -1.1019 -1.8825  0.3150
  559MOL0     H73737   8.932   3.296   6.681  0.3093  1.0636  0.2715
  559MOL0     H73738   8.942   3.227   6.846  1.2354 -0.0991 -0.6876
  559MOL0     H73739   9.152   3.190   6.634 -0.0491  0.0769  0.0408
  559MOL0     H73740   9.151   3.129   6.797  0.7724 -2.3067 -2.2671
  559MOL0     H73741   9.147   3.317   6.994 -0.0228 -0.1576 -0.3334
  559MOL0     H73742   9.281   3.554   7.111  0.9626  2.0864  0.1061
  559MOL0     H73743   9.397   3.625   7.006  2.6953 -0.2651  1.5954
  559MOL0     H73744   9.516   3.521   7.155 -2.2379  1.3341  0.3158
  559MOL0     H73745   9.537   3.436   6.999 -2.9103  0.4921 -2.9971
  559MOL0     H73746   9.325   3.323   7.185  1.4155  1.9762  2.4527
  559MOL0     H73747   9.422   3.241   7.065  1.8339  0.3503 -1.5117
  559MOL0     H73748   9.622   3.235   7.206 -0.3014  0.7575 -1.7706
  559MOL0     H73749   9.489   3.198   7.312 -2.0297  0.0500 -0.7013
  559MOL0     H73750   9.320   3.315   7.434  0.1029 -1.0052  0.4014
  559MOL0     H73751   9.238   3.348   7.660  1.5089 -1.0991 -2.0299
  559MOL0     H73752   9.342   3.414   8.118 -0.2768  1.4092  1.2815
  559MOL0     H73753   9.215   3.425   8.337  0.5503 -0.2202  0.1905
  559MOL0     H73754   8.789   3.302   8.351 -2.1486 -0.7541 -0.1038
  559MOL0     H73755   8.766   3.482   8.324 -1.5919 -3.1135 -1.2349
  559MOL0     H73756   8.833   3.331   8.577 -0.7513 -1.7419 -1.2028
  559MOL0     H73757   8.677   3.360   8.543  0.5103 -0.6837  2.1207
  559MOL0     H73758   8.721   3.625   8.535  1.7751  1.7070  0.1871
  559MOL0     H73759   8.859   3.572   8.615  0.0854 -1.3727 -0.6437
  559MOL0     H73760   8.570   3.577   8.727 -0.3771  0.9782  2.1059
  559MOL0     H73761   8.683   3.439   8.774  3.8081  0.1300 -0.4474
  559MOL0     H73762   8.781   3.724   8.784 -0.9017  1.0381 -1.2420
  559MOL0     H73763   8.846   3.573   8.855 -0.3110 -1.3144 -1.2779
  559MOL0     H73764   8.653   3.528   9.002 -4.5570 -0.3406 -2.0407
  559MOL0     H73765   8.582   3.668   8.949  1.6673  4.4474 -0.3210
  559MOL0     H73766   8.844   3.641   9.092  2.7378  2.3538 -1.7308
  559MOL0     H73767   8.788   3.789   9.028  1.2060 -0.6183  0.8637
  559MOL0     H73768   8.595   3.816   9.173 -2.1204 -1.2949  1.4761
  559MOL0     H73769   8.754   3.780   9.264  1.0263 -3.5706  1.4416
  559MOL0     H73770   8.854   3.494   8.123 -0.3798 -0.9228 -0.8579
  559MOL0     H73771   8.977   3.471   7.914  1.6824  2.3491 -0.6705
  559MOL0     H73772   9.557   3.632   7.724 -1.1255  1.0438 -0.5256
  559MOL0     H73773   9.658   3.573   7.512  0.5210 -1.9331 -1.2206
  559MOL0     H73774   8.599   2.674   6.472 -0.0948 -1.2671 -0.3593
  559MOL0     H73775   8.406   2.703   6.350 -0.5748  2.1179  0.1735
  559MOL0     H73776   8.028   2.859   6.293  2.6553 -1.5696 -0.7510
  559MOL0     H73777   7.866   2.893   6.088 -0.9821 -1.2795 -0.0851
  559MOL0     H73778   7.670   2.527   6.003 -2.8079 -0.9520 -1.0189
  559MOL0     H73779   7.623   2.581   5.845 -0.8117  0.2685 -0.1877
  559MOL0     H73780   7.454   2.642   5.997  0.1477  0.5796 -0.9651
  559MOL0     H73781   7.564   2.747   6.090  0.6771 -0.7935  0.3601
  559MOL0     H73782   7.462   2.755   5.818  0.7761 -2.4394  1.1848
  559MOL0     H73783   7.599   2.870   5.851 -0.6398  2.3465  2.0547
  559MOL0     H73784   7.346   2.872   6.012 -0.7918 -2.7347 -1.0618
  559MOL0     H73785   7.489   2.984   6.007 -0.9296 -1.0498  1.3272
  559MOL0     H73786   7.280   3.178   5.709 -1.5096  1.3252  1.2271
  559MOL0     H73787   7.886   2.476   6.017  2.7811 -0.4662 -0.7978
  559MOL0     H73788   8.016   2.436   6.190 -0.7453  0.2705 -0.0871
  560MOL0     O73789   4.423   9.131   6.188 -0.2477 -0.5533  0.4902
  560MOL0     C73790   4.461   9.232   6.245  0.2410  0.0476  0.1538
  560MOL0     O73791   4.419   9.273   6.369 -0.5470 -0.4364 -0.0581
  560MOL0     C73792   4.325   9.199   6.438 -0.0597 -0.0604 -0.1733
  560MOL0     C73793   4.234   9.258   6.530  1.0172 -0.2804  0.1868
  560MOL0     C73794   4.140   9.190   6.598  0.2327  0.2538  0.1046
  560MOL0     C73795   4.115   9.055   6.569 -0.0821  0.2200  0.0790
  560MOL0     O73796   4.016   8.989   6.630 -0.4950  0.6532 -0.4413
  560MOL0     C73797   4.066   8.880   6.715 -0.3763 -0.6984 -0.1592
  560MOL0     C73798   3.970   8.766   6.722  0.0438  0.3176  0.5152
  560MOL0     C73799   3.826   8.810   6.755 -0.4834 -0.2809 -0.6453
  560MOL0     C73800   3.731   8.692   6.763  0.7471  0.0449  0.2408
  560MOL0     C73801   3.674   8.658   6.622 -0.2912 -0.4845  0.7095
  560MOL0     C73802   3.644   8.500   6.605  0.0586  0.3398 -0.1792
  560MOL0     C73803   3.651   8.448   6.460  0.7815 -0.1447  0.7376
  560MOL0     C73804   3.510   8.469   6.392 -0.7999  0.0790  0.0960
  560MOL0     N73805   3.407   8.394   6.471 -1.0113 -0.0580 -0.6576
  560MOL0     C73806   3.386   8.264   6.476  0.5148 -0.3683  1.2820
  560MOL0     C73807   3.286   8.244   6.559 -0.3537 -0.0625  0.2024
  560MOL0     C73808   3.232   8.106   6.570 -0.6276  0.2823  0.0116
  560MOL0     C73809   3.332   8.012   6.647 -0.6135 -0.3261  0.1467
  560MOL0     C73810   3.466   7.975   6.582  0.2689  0.1642 -0.1954
  560MOL0     C73811   3.562   7.873   6.656  0.1504  0.3704  0.1883
  560MOL0     O73812   3.491   7.738   6.659 -0.0839  0.5683 -0.6170
  560MOL0     C73813   3.507   7.664   6.546  0.2872 -0.3102  0.6922
  560MOL0     C73814   3.621   7.590   6.517 -0.4313 -0.5407  0.4583
  560MOL0     C73815   3.644   7.535   6.385  0.1406 -1.2401  0.7715
  560MOL0     C73816   3.542   7.532   6.288  0.1912 -0.1455  0.0916
  560MOL0     C73817   3.568   7.451   6.168  0.4934 -0.1748  0.5630
  560MOL0     O73818   3.470   7.462   6.077  0.4944  0.1203  0.4950
  560MOL0     C73819   3.504   7.448   5.939  0.3126  1.0379  0.1945
  560MOL0     C73820   3.400   7.429   5.843 -0.4960 -0.0019  0.6992
  560MOL0     C73821   3.429   7.410   5.714 -0.0733 -0.0036  0.6997
  560MOL0     C73822   3.556   7.392   5.662  1.1394  0.1228  0.1199
  560MOL0     O73823   3.581   7.362   5.527  1.2604 -0.4664  0.5925
  560MOL0     C73824   3.582   7.479   5.445  0.2063 -0.7428 -0.4085
  560MOL0     C73825   3.708   7.478   5.356  0.3715  0.0386 -0.5633
  560MOL0     C73826   3.723   7.601   5.264 -0.7391 -0.2127  0.1763
  560MOL0     C73827   3.628   7.596   5.150  0.1958 -0.0686  0.1308
  560MOL0     C73828   3.628   7.703   5.031  0.2986  0.3177 -0.0905
  560MOL0     C73829   3.766   7.725   4.989  0.0482  0.2361 -1.1059
  560MOL0     C73830   3.772   7.833   4.881  0.1299 -0.0292  0.8637
  560MOL0     C73831   3.900   7.835   4.800  0.0100 -0.0954  0.7502
  560MOL0    Cl73832   4.037   7.883   4.910  0.1703 -0.7584 -0.0880
  560MOL0     C73833   3.667   7.415   5.754 -0.3613  0.7355  0.9315
  560MOL0     C73834   3.633   7.444   5.885 -0.9562  0.4502 -0.3506
  560MOL0     O73835   3.662   7.374   6.159 -0.7558  0.8283  0.3181
  560MOL0     C73836   3.420   7.601   6.318 -1.1803  0.0126  0.1608
  560MOL0     C73837   3.401   7.662   6.445  0.0829  0.1936 -0.3165
  560MOL0     N73838   3.230   8.359   6.600  0.5666  0.1037 -0.5845
  560MOL0     N73839   3.304   8.450   6.545 -0.4594  0.0177 -0.2622
  560MOL0     C73840   4.200   8.988   6.486 -0.1637 -0.3286  0.2353
  560MOL0     C73841   4.312   9.056   6.431 -0.2013  0.3988 -0.2419
  560MOL0     C73842   4.575   9.307   6.191  0.0161 -0.1317  0.3108
  560MOL0     C73843   4.638   9.263   6.073 -0.0859 -0.7796  0.3838
  560MOL0     C73844   4.728   9.342   6.014  0.3109 -0.5215 -0.2889
  560MOL0     C73845   4.776   9.456   6.073  0.1903 -0.9508  0.4088
  560MOL0     O73846   4.877   9.507   6.003  0.2200  0.7767  0.1683
  560MOL0     C73847   4.970   9.595   6.068  0.9196  0.2362 -0.4272
  560MOL0     C73848   4.966   9.740   6.007 -0.1748 -0.1707  0.3093
  560MOL0     C73849   4.843   9.825   6.049  0.3984  0.9235 -0.0768
  560MOL0     C73850   4.832   9.854   6.196  0.1912  1.5125  0.9505
  560MOL0     C73851   4.901   9.979   6.242 -0.3786 -0.1087  0.6746
  560MOL0     C73852   4.966  10.077   6.274 -0.2275  0.1203 -0.0228
  560MOL0     C73853   4.717   9.510   6.188 -0.5738  0.3763 -0.7095
  560MOL0     C73854   4.619   9.432   6.247 -0.3367  0.2302 -0.6770
  560MOL0     H73855   4.237   9.363   6.557 -0.7015  0.0426 -0.7871
  560MOL0     H73856   4.073   9.235   6.671 -0.4895 -1.8029  0.8025
  560MOL0     H73857   4.058   8.921   6.816 -2.1284  1.7683 -1.1792
  560MOL0     H73858   4.169   8.857   6.687 -1.6153 -1.0483 -5.7485
  560MOL0     H73859   4.009   8.704   6.803  1.8468 -2.5868 -2.3145
  560MOL0     H73860   3.966   8.700   6.635  1.7748 -0.9582  1.3417
  560MOL0     H73861   3.795   8.896   6.696 -0.4699  1.2911  1.5031
  560MOL0     H73862   3.825   8.849   6.857  0.8015  0.2946 -0.8258
  560MOL0     H73863   3.773   8.600   6.804 -0.3139  0.1593  1.6572
  560MOL0     H73864   3.643   8.720   6.821  0.1187  0.5191 -0.9017
  560MOL0     H73865   3.750   8.680   6.547 -0.0913 -0.0596  1.0352
  560MOL0     H73866   3.589   8.714   6.580 -0.5497 -2.7206 -2.1250
  560MOL0     H73867   3.548   8.475   6.649 -0.3353  1.1248 -0.5628
  560MOL0     H73868   3.730   8.460   6.660  0.1491  0.8987  0.1016
  560MOL0     H73869   3.728   8.494   6.397  0.9808  0.8694  1.6728
  560MOL0     H73870   3.664   8.341   6.473  0.4979  0.0011  2.4276
  560MOL0     H73871   3.509   8.420   6.294  1.0103  0.6609 -0.2505
  560MOL0     H73872   3.495   8.577   6.383 -1.5019 -0.1944 -3.6715
  560MOL0     H73873   3.425   8.190   6.406 -2.5663  1.0810 -2.2929
  560MOL0     H73874   3.226   8.061   6.471 -1.1124 -0.7999  0.5176
  560MOL0     H73875   3.136   8.089   6.621 -0.6116 -1.5046 -0.4940
  560MOL0     H73876   3.277   7.920   6.668 -0.2753 -0.1651  1.9228
  560MOL0     H73877   3.356   8.066   6.740  1.1128 -2.2505  0.8968
  560MOL0     H73878   3.444   7.931   6.484  0.2345 -0.7764  0.2304
  560MOL0     H73879   3.533   8.062   6.584  2.7836 -1.6843  0.2094
  560MOL0     H73880   3.567   7.915   6.758  2.7621  0.4583  0.0861
  560MOL0     H73881   3.662   7.860   6.615  0.2997 -1.6298  1.0743
  560MOL0     H73882   3.709   7.585   6.580  0.8673  0.6568 -1.1710
  560MOL0     H73883   3.741   7.489   6.367  0.5321 -0.1254 -0.0969
  560MOL0     H73884   3.295   7.430   5.871 -1.4537 -4.6599 -1.7319
  560MOL0     H73885   3.349   7.380   5.648  1.5995 -1.4493 -0.7614
  560MOL0     H73886   3.582   7.571   5.504  1.0090 -0.6606 -0.5217
  560MOL0     H73887   3.492   7.479   5.383 -3.0262  3.6904  3.5571
  560MOL0     H73888   3.713   7.388   5.294  0.0238  0.8134 -1.7740
  560MOL0     H73889   3.794   7.470   5.423 -2.5083  0.9231  3.6326
  560MOL0     H73890   3.823   7.583   5.224 -0.3148  1.4214  0.4219
  560MOL0     H73891   3.721   7.702   5.308  0.8664  1.2439 -2.7696
  560MOL0     H73892   3.648   7.504   5.096  1.7075  0.7354 -0.7249
  560MOL0     H73893   3.527   7.586   5.192  0.1747 -1.5156 -0.2302
  560MOL0     H73894   3.578   7.799   5.047 -3.2316 -0.5505 -4.1507
  560MOL0     H73895   3.567   7.668   4.948  1.3415  0.3719 -0.9007
  560MOL0     H73896   3.787   7.624   4.954  0.6129 -0.3835  0.8550
  560MOL0     H73897   3.831   7.753   5.073 -0.0739 -3.1623  0.2865
  560MOL0     H73898   3.695   7.797   4.813  0.8057 -1.0119  0.6005
  560MOL0     H73899   3.739   7.930   4.920 -1.7506 -1.3941  2.8728
  560MOL0     H73900   3.883   7.907   4.720  0.1859 -1.8358 -0.9101
  560MOL0     H73901   3.917   7.743   4.744  0.3859  1.8111 -2.5170
  560MOL0     H73902   3.771   7.423   5.722  0.6905 -2.9309  2.8059
  560MOL0     H73903   3.725   7.461   5.940 -0.6590  3.2156 -1.5077
  560MOL0     H73904   3.338   7.597   6.247 -0.3367  0.0546 -0.8393
  560MOL0     H73905   3.309   7.717   6.460 -0.6120 -0.4847 -1.8647
  560MOL0     H73906   4.196   8.884   6.455 -0.3168  0.1816 -1.5556
  560MOL0     H73907   4.376   8.995   6.368 -0.9608 -0.1266 -0.5252
  560MOL0     H73908   4.616   9.174   6.016 -0.2009  0.1185 -1.0292
  560MOL0     H73909   4.797   9.304   5.939  2.4022 -0.4875  1.5143
  560MOL0     H73910   5.066   9.552   6.040  0.7011 -2.7001  2.7099
  560MOL0     H73911   4.973   9.596   6.177 -0.6859 -1.2059 -0.3212
  560MOL0     H73912   5.057   9.798   6.021  0.7896 -1.5561 -0.0405
  560MOL0     H73913   4.971   9.730   5.898  1.5183 -0.2459  0.3796
  560MOL0     H73914   4.754   9.769   6.022 -0.5307  2.1087  0.4283
  560MOL0     H73915   4.845   9.914   5.986 -0.5226  1.8125  1.1089
  560MOL0     H73916   4.726   9.874   6.215  0.1070 -0.0374  2.3692
  560MOL0     H73917   4.870   9.768   6.252 -2.1897  0.6646  1.4265
  560MOL0     H73918   5.035  10.155   6.296  1.7531 -1.4104 -0.5028
  560MOL0     H73919   4.728   9.615   6.213 -2.7003  1.4305 -3.6324
  560MOL0     H73920   4.561   9.477   6.327 -0.2625 -2.5630  1.1078
  561MOL0     O73921  10.426   4.898   4.527  0.5218 -0.6309  0.2728
  561MOL0     C73922  10.413   4.872   4.409  0.6880 -0.1080  0.6350
  561MOL0     O73923  10.297   4.848   4.341  0.4027  0.5951  0.8164
  561MOL0     C73924  10.169   4.856   4.377  0.6343  0.1569  0.3723
  561MOL0     C73925  10.067   4.825   4.281 -0.0799  0.4266 -1.1944
  561MOL0     C73926   9.927   4.839   4.314  0.4051 -0.6124  0.2679
  561MOL0     C73927   9.891   4.876   4.443  0.1852 -0.0192 -0.1708
  561MOL0     O73928   9.757   4.892   4.474 -0.7858 -0.5647  0.1403
  561MOL0     C73929   9.707   4.994   4.560  0.6723  0.1548  0.5168
  561MOL0     C73930   9.613   4.943   4.689 -0.3043  0.4136  0.3954
  561MOL0     C73931   9.509   5.046   4.726  0.3396 -0.7728  0.7133
  561MOL0     C73932   9.578   5.184   4.753  0.6885  0.1786  0.1420
  561MOL0     C73933   9.499   5.275   4.843 -0.1413 -0.3756 -0.2347
  561MOL0     C73934   9.348   5.273   4.806  0.4501  0.8515 -0.2684
  561MOL0     C73935   9.286   5.409   4.816 -1.1657  0.6408  0.1981
  561MOL0     C73936   9.272   5.455   4.970 -0.3689 -0.9466  0.0927
  561MOL0     N73937   9.391   5.455   5.057  1.2670 -0.0662 -0.6089
  561MOL0     C73938   9.499   5.538   5.044 -0.9182  0.4749 -1.0772
  561MOL0     C73939   9.580   5.497   5.145 -0.4457 -0.2247 -0.2712
  561MOL0     C73940   9.713   5.555   5.184 -0.4851  0.1559 -0.4520
  561MOL0     C73941   9.688   5.680   5.280  0.1660  0.2615  0.0180
  561MOL0     C73942   9.604   5.792   5.223  0.0602  0.3105  0.1934
  561MOL0     C73943   9.598   5.904   5.334 -0.1541  1.2541 -0.1495
  561MOL0     O73944   9.523   6.012   5.280  0.0907  0.6420  0.8153
  561MOL0     C73945   9.501   6.120   5.365  0.5587 -0.3132  0.7438
  561MOL0     C73946   9.473   6.252   5.316 -0.0635  0.1568 -0.3435
  561MOL0     C73947   9.452   6.356   5.397 -0.0363 -0.4586  1.0595
  561MOL0     C73948   9.453   6.348   5.536  0.9202 -0.1893 -0.1418
  561MOL0     C73949   9.396   6.460   5.622 -1.3615 -0.3055  0.3849
  561MOL0     O73950   9.380   6.448   5.758 -0.0678  0.1296  0.5703
  561MOL0     C73951   9.374   6.557   5.850  0.3076 -0.4057  0.2555
  561MOL0     C73952   9.384   6.698   5.817  0.8992  1.3121 -0.0125
  561MOL0     C73953   9.366   6.793   5.917 -0.3223  0.5440 -0.6796
  561MOL0     C73954   9.351   6.760   6.055 -0.2134  0.1266  0.7301
  561MOL0     O73955   9.341   6.852   6.160 -0.7189  0.3343  1.4895
  561MOL0     C73956   9.336   6.992   6.118  0.1287  0.4891 -0.2933
  561MOL0     C73957   9.319   7.078   6.247 -0.2002 -0.3508 -0.0130
  561MOL0     C73958   9.386   7.219   6.223  0.2337  1.1579 -0.1914
  561MOL0     C73959   9.367   7.327   6.322  0.2698 -1.1669 -0.0469
  561MOL0     C73960   9.435   7.458   6.275  0.3128 -0.2225  0.1727
  561MOL0     C73961   9.415   7.560   6.385 -0.2535 -0.4271  0.2317
  561MOL0     C73962   9.439   7.698   6.336 -0.6007  1.0930  0.1108
  561MOL0     C73963   9.587   7.724   6.315 -0.2745  0.2514 -0.3067
  561MOL0    Cl73964   9.630   7.900   6.314 -0.2775 -0.0749 -0.2421
  561MOL0     C73965   9.340   6.625   6.089 -0.0395  0.2920  0.7286
  561MOL0     C73966   9.352   6.525   5.983 -1.3916  0.1044 -0.2254
  561MOL0     O73967   9.381   6.562   5.554 -0.3650 -0.5092 -0.2256
  561MOL0     C73968   9.497   6.227   5.585 -0.7051  0.0002 -0.5975
  561MOL0     C73969   9.508   6.116   5.502 -0.2839  0.0370  0.1720
  561MOL0     N73970   9.519   5.399   5.224 -0.1460 -0.0769 -0.3641
  561MOL0     N73971   9.412   5.368   5.159 -0.6669  0.0632  0.0499
  561MOL0     C73972   9.985   4.905   4.541 -0.0234 -0.0234 -0.0398
  561MOL0     C73973  10.128   4.899   4.509 -0.3725 -1.0574  0.3789
  561MOL0     C73974  10.534   4.885   4.331  0.6635 -0.5421  0.1646
  561MOL0     C73975  10.662   4.927   4.382  0.3288  0.7888  0.3765
  561MOL0     C73976  10.769   4.934   4.302 -0.4567 -0.1699  0.6337
  561MOL0     C73977  10.767   4.907   4.167 -0.2327 -0.4159  0.3296
  561MOL0     O73978  10.874   4.930   4.077 -0.3601  0.5446  0.2154
  561MOL0     C73979  10.855   5.056   4.001 -0.9165  0.1046 -0.0547
  561MOL0     C73980  10.990   5.133   4.024 -0.0610 -0.8940  0.3291
  561MOL0     C73981  10.985   5.268   3.958 -0.1574  0.1275  0.7752
  561MOL0     C73982  11.109   5.344   3.974  0.2476  0.2022  0.3272
  561MOL0     C73983  11.114   5.452   3.879  0.5597 -0.4586  0.8644
  561MOL0     C73984  11.099   5.542   3.795  0.6783  0.1451  0.8432
  561MOL0     C73985  10.647   4.860   4.113 -0.3219 -0.4332 -0.4677
  561MOL0     C73986  10.534   4.849   4.196  0.1467 -0.8180 -0.2023
  561MOL0     H73987  10.095   4.807   4.178  2.3928  0.8433 -0.6574
  561MOL0     H73988   9.847   4.834   4.240 -1.4126  0.7917  2.0089
  561MOL0     H73989   9.636   5.050   4.498 -0.4964  0.0978  1.7446
  561MOL0     H73990   9.778   5.072   4.585 -2.5658  3.2402  0.8656
  561MOL0     H73991   9.680   4.926   4.774  1.2032  2.3995 -0.3060
  561MOL0     H73992   9.568   4.848   4.661  1.0511  0.4320 -2.1685
  561MOL0     H73993   9.460   5.004   4.814 -0.1603  1.3748  1.5225
  561MOL0     H73994   9.435   5.058   4.646 -0.2375  3.5917  1.6311
  561MOL0     H73995   9.680   5.173   4.790  1.5546  3.3682 -0.9820
  561MOL0     H73996   9.609   5.231   4.660  0.1929 -0.1864 -0.2196
  561MOL0     H73997   9.532   5.379   4.837 -0.1494 -0.4611 -3.2610
  561MOL0     H73998   9.497   5.240   4.946 -4.0453  2.0628  0.7181
  561MOL0     H73999   9.297   5.207   4.877  3.4418 -0.2638  1.0397
  561MOL0     H74000   9.333   5.241   4.703  0.1273 -0.6900  0.2207
  561MOL0     H74001   9.342   5.477   4.751 -3.8709  2.5652 -0.2860
  561MOL0     H74002   9.184   5.412   4.776 -0.9813  1.2515 -0.2475
  561MOL0     H74003   9.196   5.387   5.010 -0.7395 -0.6071 -0.0311
  561MOL0     H74004   9.234   5.557   4.976 -1.0448 -0.9203 -2.9845
  561MOL0     H74005   9.512   5.632   4.991  0.7336  1.2374  0.5257
  561MOL0     H74006   9.766   5.582   5.092  0.1877 -3.6083 -1.3664
  561MOL0     H74007   9.765   5.472   5.233 -3.5803 -1.1532  0.8996
  561MOL0     H74008   9.778   5.717   5.329 -1.0413 -1.6340  4.0526
  561MOL0     H74009   9.634   5.638   5.365  0.8551  0.1114  0.3936
  561MOL0     H74010   9.661   5.828   5.137  2.1368 -1.0284  0.9427
  561MOL0     H74011   9.505   5.755   5.197 -0.7020  0.9005  2.0658
  561MOL0     H74012   9.700   5.937   5.354  0.6172 -2.0028  2.2695
  561MOL0     H74013   9.551   5.852   5.419  2.4604 -0.4483  0.3553
  561MOL0     H74014   9.467   6.257   5.207  0.6289 -2.2418 -0.5443
  561MOL0     H74015   9.417   6.447   5.350  2.0831 -0.7643 -1.2974
  561MOL0     H74016   9.386   6.731   5.714  4.1669 -2.2274 -1.3307
  561MOL0     H74017   9.352   6.898   5.894 -0.0147  1.2576  2.1015
  561MOL0     H74018   9.250   7.006   6.050  0.1087  0.6511 -0.2357
  561MOL0     H74019   9.430   7.024   6.072  0.1294  3.6219  1.6154
  561MOL0     H74020   9.382   7.031   6.323  0.6136  0.6190 -0.0538
  561MOL0     H74021   9.223   7.094   6.297  1.0493  1.9094  1.8688
  561MOL0     H74022   9.353   7.249   6.123  0.6320  0.9106 -0.3958
  561MOL0     H74023   9.491   7.193   6.211 -0.6473 -2.2642 -1.5412
  561MOL0     H74024   9.262   7.347   6.346  0.3358  0.6367 -1.0799
  561MOL0     H74025   9.412   7.294   6.417 -0.2369 -0.5003  0.4285
  561MOL0     H74026   9.396   7.489   6.177 -1.8188  2.1540  1.6533
  561MOL0     H74027   9.540   7.435   6.254  0.5426  2.3174 -2.0812
  561MOL0     H74028   9.480   7.525   6.465  0.7100 -1.7998 -1.0875
  561MOL0     H74029   9.317   7.557   6.432  0.5513 -0.9377  1.9672
  561MOL0     H74030   9.391   7.703   6.238 -0.5481  1.4864  0.0998
  561MOL0     H74031   9.404   7.776   6.405 -0.5106  1.9265 -0.7548
  561MOL0     H74032   9.627   7.673   6.227  2.5809  2.0132 -0.1852
  561MOL0     H74033   9.651   7.679   6.392 -2.5451 -2.1371  0.3051
  561MOL0     H74034   9.302   6.585   6.183 -1.3990 -0.4178 -0.0794
  561MOL0     H74035   9.342   6.421   6.012  0.3156 -0.6961 -2.2632
  561MOL0     H74036   9.514   6.217   5.692 -1.7819  2.0169 -0.1903
  561MOL0     H74037   9.526   6.019   5.545  0.1680  0.4842  1.0149
  561MOL0     H74038   9.948   4.941   4.637 -0.8804  1.7703 -1.0091
  561MOL0     H74039  10.210   4.924   4.576  0.5428  0.5157 -1.2598
  561MOL0     H74040  10.677   4.934   4.489 -0.0928 -1.4075  0.6258
  561MOL0     H74041  10.861   4.974   4.343 -1.2415  2.9346 -0.3524
  561MOL0     H74042  10.766   5.105   4.043  1.3278  1.6842  3.3039
  561MOL0     H74043  10.850   5.027   3.896  0.7268 -1.0352  0.1508
  561MOL0     H74044  10.991   5.148   4.133  0.9508  0.2120  0.1864
  561MOL0     H74045  11.067   5.067   3.984 -0.4834 -0.4528 -1.2942
  561MOL0     H74046  10.914   5.325   4.018  0.7303  0.4047  1.5816
  561MOL0     H74047  10.954   5.263   3.853 -0.8654  3.5735  0.7146
  561MOL0     H74048  11.123   5.369   4.080 -1.2145 -2.6897  1.3445
  561MOL0     H74049  11.194   5.287   3.937  0.2149 -0.8063  1.7233
  561MOL0     H74050  11.081   5.621   3.725 -1.7515 -0.6307  0.4879
  561MOL0     H74051  10.634   4.855   4.006 -0.1077 -2.5385 -0.4256
  561MOL0     H74052  10.443   4.820   4.144 -0.3473 -0.8592  0.6681
  562MOL0     O74053   2.873   7.723  10.145 -0.4929 -0.1660  0.1643
  562MOL0     C74054   2.958   7.797  10.202 -0.2131 -0.0917 -0.3371
  562MOL0     O74055   3.062   7.752  10.272 -0.5683  0.0082  0.3364
  562MOL0     C74056   3.086   7.616  10.279  0.0679  0.0146  0.2973
  562MOL0     C74057   3.201   7.569  10.224 -0.7061  0.1578  0.2052
  562MOL0     C74058   3.240   7.436  10.239  0.2324  0.1097  0.2966
  562MOL0     C74059   3.150   7.344  10.300 -0.5833  0.6106  0.4615
  562MOL0     O74060   3.174   7.208  10.322 -0.0612  0.6755 -0.0060
  562MOL0     C74061   3.263   7.142  10.238  0.4024 -0.1472  0.6725
  562MOL0     C74062   3.260   6.999  10.284  0.0549  0.1121  0.6132
  562MOL0     C74063   3.127   6.928  10.252  0.5503  0.1790  0.8041
  562MOL0     C74064   3.140   6.774  10.275  0.2104 -0.0259  1.1950
  562MOL0     C74065   3.016   6.699  10.299 -0.7694  1.6116 -0.3572
  562MOL0     C74066   3.066   6.548  10.317  0.7578  0.3556 -0.0204
  562MOL0     C74067   2.956   6.457  10.267  0.6749 -0.4111  0.2325
  562MOL0     C74068   2.835   6.461  10.361  0.0966 -0.6355 -0.3918
  562MOL0     N74069   2.728   6.387  10.297 -0.0400 -0.5343 -0.1913
  562MOL0     C74070   2.665   6.280  10.353  1.4932  0.5632  0.1091
  562MOL0     C74071   2.582   6.248  10.247 -0.2660  0.7398  0.1372
  562MOL0     C74072   2.479   6.137  10.265  0.0308 -0.4670  0.5045
  562MOL0     C74073   2.341   6.197  10.230 -0.3531  0.1225  0.4384
  562MOL0     C74074   2.296   6.307  10.332  0.1984 -0.5476  0.8895
  562MOL0     C74075   2.325   6.269  10.479 -0.0045  0.0631 -1.1286
  562MOL0     O74076   2.276   6.133  10.504 -0.5451  0.0880 -0.3318
  562MOL0     C74077   2.142   6.095  10.498  0.0341  0.0832  0.5061
  562MOL0     C74078   2.108   5.970  10.442 -0.7830 -0.7675  0.2718
  562MOL0     C74079   1.972   5.936  10.441  0.8332 -0.0254  0.3493
  562MOL0     C74080   1.876   6.024  10.489  1.0928  0.1269 -0.6689
  562MOL0     C74081   1.729   5.980  10.484 -0.2779 -0.5364 -0.3322
  562MOL0     O74082   1.640   6.081  10.467 -0.5013  0.6546 -0.5118
  562MOL0     C74083   1.506   6.048  10.451  0.9802  0.5301  0.0914
  562MOL0     C74084   1.403   6.117  10.531  0.1401 -0.2220 -0.7450
  562MOL0     C74085   1.268   6.125  10.497 -0.2548 -0.3997  0.1302
  562MOL0     C74086   1.230   6.039  10.385  0.6825 -0.2632  0.6837
  562MOL0     O74087   1.103   6.017  10.358  0.8141 -0.2120  0.9238
  562MOL0     C74088   1.004   6.117  10.390  0.1579 -0.5293  0.6207
  562MOL0     C74089   0.871   6.078  10.342  0.0218 -0.1565  0.4657
  562MOL0     C74090   0.866   6.093  10.191 -0.0304 -0.7209 -0.3037
  562MOL0     C74091   0.723   6.080  10.139  0.8486  0.0350 -0.0219
  562MOL0     C74092   0.721   6.051   9.998 -0.0837 -0.3194 -0.9595
  562MOL0     C74093   0.576   6.078   9.952  0.1912  0.1023 -0.5241
  562MOL0     C74094   0.534   6.055   9.807 -0.1678  0.3484  0.3014
  562MOL0     C74095   0.536   5.911   9.787 -0.3305  0.3797  0.4764
  562MOL0    Cl74096   0.388   5.816   9.828 -0.0850  0.3623  0.0294
  562MOL0     C74097   1.329   5.967  10.324  0.0317 -0.5495  0.8811
  562MOL0     C74098   1.466   5.974  10.337 -0.6979 -0.2844 -0.1941
  562MOL0     O74099   1.700   5.864  10.494  0.0130  0.6568 -0.2236
  562MOL0     C74100   1.905   6.142  10.553  0.2905 -0.5237  0.2947
  562MOL0     C74101   2.045   6.175  10.547 -0.0081  0.1002 -0.6333
  562MOL0     N74102   2.595   6.337  10.139 -0.6037 -0.2428  0.4150
  562MOL0     N74103   2.677   6.429  10.174  0.0842  0.4050  0.0874
  562MOL0     C74104   3.024   7.393  10.348  0.4038 -0.1563  0.4022
  562MOL0     C74105   2.989   7.523  10.329  0.2440 -0.7900  0.0055
  562MOL0     C74106   2.941   7.944  10.214  0.0690  0.5987 -0.0998
  562MOL0     C74107   2.826   7.997  10.157  0.4591 -0.8211  0.0802
  562MOL0     C74108   2.808   8.130  10.156  0.2634 -1.4273  0.3304
  562MOL0     C74109   2.901   8.217  10.231 -0.1184  0.2729 -0.3125
  562MOL0     O74110   2.898   8.355  10.238  0.0384  0.6122  0.6426
  562MOL0     C74111   2.773   8.419  10.208  0.2749 -0.8629 -0.1435
  562MOL0     C74112   2.773   8.559  10.275  0.1210  0.3825 -0.0942
  562MOL0     C74113   2.641   8.614  10.328  0.4452 -0.7349  0.6022
  562MOL0     C74114   2.675   8.747  10.407  0.7685  1.1831  0.3423
  562MOL0     C74115   2.546   8.805  10.462  0.3237  0.6097 -0.2433
  562MOL0     C74116   2.437   8.840  10.499  0.6758  0.6229 -0.2996
  562MOL0     C74117   3.019   8.169  10.270  0.2898 -0.2552  0.6313
  562MOL0     C74118   3.045   8.030  10.276  0.1518 -0.4514 -0.4085
  562MOL0     H74119   3.274   7.645  10.197  0.4542 -0.6527  0.9360
  562MOL0     H74120   3.336   7.413  10.194 -0.9469  0.6703 -2.7942
  562MOL0     H74121   3.368   7.170  10.245  0.5685 -0.1409 -1.3356
  562MOL0     H74122   3.224   7.153  10.137  0.7613 -2.1798  0.2781
  562MOL0     H74123   3.287   6.995  10.390  0.1566  2.4317  0.7338
  562MOL0     H74124   3.329   6.936  10.228 -2.0806 -1.6112 -0.2236
  562MOL0     H74125   3.092   6.950  10.151 -0.6524  1.0896  1.3940
  562MOL0     H74126   3.047   6.961  10.320 -3.2665 -5.7771 -0.0539
  562MOL0     H74127   3.190   6.730  10.188  1.8348 -0.1238  2.1424
  562MOL0     H74128   3.210   6.761  10.358  1.4523 -0.1183  0.1579
  562MOL0     H74129   2.944   6.703  10.216  0.1513  0.0667 -1.2644
  562MOL0     H74130   2.964   6.727  10.392 -1.5887 -3.4356  0.9908
  562MOL0     H74131   3.082   6.516  10.420  0.6181  0.9328  0.1804
  562MOL0     H74132   3.152   6.530  10.251 -1.2358 -1.3371 -2.3828
  562MOL0     H74133   2.918   6.485  10.168 -0.1744 -0.5660  0.5093
  562MOL0     H74134   3.004   6.359  10.267 -0.2698 -0.9162  2.0113
  562MOL0     H74135   2.789   6.560  10.366  2.1082  0.3256  4.1689
  562MOL0     H74136   2.869   6.425  10.459  1.4809 -0.1092 -0.6628
  562MOL0     H74137   2.674   6.232  10.450  0.4094  0.4436  0.1628
  562MOL0     H74138   2.492   6.097  10.366 -4.5239  2.3319  2.5412
  562MOL0     H74139   2.504   6.063  10.189  0.5757  0.4373 -0.2066
  562MOL0     H74140   2.267   6.117  10.239  0.7610 -1.0251 -0.4238
  562MOL0     H74141   2.341   6.252  10.135 -1.8335  0.1040  0.4105
  562MOL0     H74142   2.347   6.400  10.307  1.7281 -1.5560  0.0664
  562MOL0     H74143   2.193   6.340  10.319  0.7729  0.1182 -2.9190
  562MOL0     H74144   2.287   6.336  10.557  1.3980  0.1797 -0.5004
  562MOL0     H74145   2.434   6.273  10.492 -0.0309  2.3596 -1.2085
  562MOL0     H74146   2.198   5.918  10.409  0.9619  1.4002  1.3516
  562MOL0     H74147   1.943   5.843  10.394 -1.3278 -0.5475  2.5455
  562MOL0     H74148   1.451   6.170  10.612 -0.2842 -3.5402  1.9479
  562MOL0     H74149   1.209   6.193  10.558 -0.8625 -3.5635  3.3884
  562MOL0     H74150   1.026   6.215  10.347 -2.8408  0.6003  1.4154
  562MOL0     H74151   0.990   6.131  10.497  0.7548 -3.0236  1.0942
  562MOL0     H74152   0.794   6.145  10.382 -0.7540  1.4323 -3.2783
  562MOL0     H74153   0.853   5.976  10.378 -0.6540 -0.4388 -0.6256
  562MOL0     H74154   0.914   6.013  10.135 -1.5847  0.9655 -4.5172
  562MOL0     H74155   0.915   6.188  10.169  4.0062 -1.8735  2.6174
  562MOL0     H74156   0.673   5.993  10.181  2.6029 -1.1339 -0.2539
  562MOL0     H74157   0.664   6.169  10.165  3.1342  1.4438  0.6610
  562MOL0     H74158   0.750   5.946   9.984  5.1796  0.8966 -1.1859
  562MOL0     H74159   0.791   6.119   9.949 -0.0744 -1.4906 -2.6553
  562MOL0     H74160   0.555   6.184   9.966 -0.0793  0.2006 -1.5761
  562MOL0     H74161   0.511   6.018  10.017  1.3440 -1.7322 -0.9703
  562MOL0     H74162   0.432   6.092   9.792 -1.2069 -0.7124  3.8299
  562MOL0     H74163   0.600   6.112   9.742 -1.7133  0.7136 -1.0042
  562MOL0     H74164   0.622   5.854   9.825 -2.2832 -1.8226  1.9384
  562MOL0     H74165   0.550   5.901   9.679 -0.4242  1.4874  0.3523
  562MOL0     H74166   1.292   5.901  10.246 -2.4863 -0.7619  2.1457
  562MOL0     H74167   1.535   5.922  10.271  0.2867 -1.1948  1.4450
  562MOL0     H74168   1.837   6.207  10.606 -0.1061  0.7303 -1.6595
  562MOL0     H74169   2.078   6.269  10.588  0.3336  1.5376 -3.8611
  562MOL0     H74170   2.966   7.334  10.418  2.7642  0.2979  2.9246
  562MOL0     H74171   2.889   7.560  10.350  0.6357  0.5797 -0.4192
  562MOL0     H74172   2.749   7.942  10.105  1.8394 -1.0946 -1.7266
  562MOL0     H74173   2.725   8.174  10.103  0.4760 -0.1303  1.0286
  562MOL0     H74174   2.687   8.365  10.249  0.3798 -1.0731 -0.1974
  562MOL0     H74175   2.752   8.428  10.101  3.8785 -0.4950 -0.9245
  562MOL0     H74176   2.843   8.554  10.360  3.7161  1.3575 -2.7478
  562MOL0     H74177   2.823   8.630  10.209 -2.9921  1.7828 -1.0927
  562MOL0     H74178   2.578   8.543  10.382  1.0577 -0.8357  1.1980
  562MOL0     H74179   2.584   8.632  10.236  3.4443 -0.4745 -1.3520
  562MOL0     H74180   2.734   8.729  10.498 -0.2004 -0.8929  0.5937
  562MOL0     H74181   2.745   8.808  10.349  2.1804 -1.8716 -1.3867
  562MOL0     H74182   2.331   8.854  10.506  0.2445 -1.8080 -1.0093
  562MOL0     H74183   3.076   8.244  10.324  2.9566 -0.7548 -1.2974
  562MOL0     H74184   3.137   7.996  10.322 -1.1543 -0.5037  2.3710
  563MOL0     O74185  10.543   2.855   1.540  0.5457  0.0444  0.4815
  563MOL0     C74186  10.518   2.971   1.503 -0.1091 -0.6710  0.6221
  563MOL0     O74187  10.456   3.013   1.387  0.2088 -0.5509 -0.9782
  563MOL0     C74188  10.462   2.928   1.280 -0.2258 -0.4922  0.1269
  563MOL0     C74189  10.565   2.835   1.256  0.7106  0.7516 -0.0865
  563MOL0     C74190  10.557   2.736   1.153 -0.0322 -0.1155 -0.7376
  563MOL0     C74191  10.464   2.748   1.050  0.1078 -0.1579 -0.8569
  563MOL0     O74192  10.469   2.656   0.948  0.5883 -0.4292 -0.1966
  563MOL0     C74193  10.354   2.647   0.849 -0.1535 -0.5878  0.3362
  563MOL0     C74194  10.385   2.752   0.738 -0.5514 -0.0978 -0.2325
  563MOL0     C74195  10.286   2.740   0.619  0.6912 -0.0243  1.0787
  563MOL0     C74196  10.164   2.820   0.658 -0.0519 -0.0972  0.0310
  563MOL0     C74197  10.061   2.786   0.554 -0.5231  0.3048  0.1298
  563MOL0     C74198  10.058   2.902   0.453  0.3774  0.2575 -0.2520
  563MOL0     C74199   9.978   2.861   0.336  0.0701  0.3261  0.4000
  563MOL0     C74200   9.829   2.852   0.376  0.1524  0.1663  0.4524
  563MOL0     N74201   9.747   2.784   0.277 -0.5331  0.7525 -0.2217
  563MOL0     C74202   9.679   2.665   0.296  0.5552 -1.0730  0.0055
  563MOL0     C74203   9.610   2.644   0.187 -0.3132 -0.2669 -0.3126
  563MOL0     C74204   9.515   2.535   0.161  0.0780 -0.1090 -0.2759
  563MOL0     C74205   9.537   2.425   0.273 -0.1467  0.5860  0.3351
  563MOL0     C74206   9.443   2.299   0.247  0.6150 -0.5016  0.0794
  563MOL0     C74207   9.453   2.202   0.359 -0.2664 -1.1623 -0.3349
  563MOL0     O74208   9.367   2.094   0.333 -0.4381 -0.2877  0.0035
  563MOL0     C74209   9.412   1.975   0.277 -0.8096 -0.2648  1.0934
  563MOL0     C74210   9.320   1.885   0.237 -0.3822 -0.3967 -0.0003
  563MOL0     C74211   9.351   1.763   0.187  0.0241  0.6263  0.6559
  563MOL0     C74212   9.491   1.732   0.157 -0.9578  0.2350  0.1850
  563MOL0     C74213   9.532   1.602   0.092  0.6639  0.8684  0.8097
  563MOL0     O74214   9.462   1.490   0.122 -0.8439  1.3833  0.1937
  563MOL0     C74215   9.493   1.359   0.088 -0.1496 -0.2611 -0.0263
  563MOL0     C74216   9.608   1.312   0.014  1.5279 -0.2571  0.1445
  563MOL0     C74217   9.620   1.174  -0.019 -0.1220  0.4290  0.4562
  563MOL0     C74218   9.518   1.084   0.026  0.1624  0.6658 -0.2087
  563MOL0     O74219   9.521   0.950   0.003 -0.4023 -0.1525  0.3774
  563MOL0     C74220   9.518   0.926  -0.135  0.0178  0.0590  0.2462
  563MOL0     C74221   9.497   0.779  -0.157  0.0470 -0.4220 -0.0628
  563MOL0     C74222   9.499   0.747  -0.305 -0.5685 -0.1941 -0.8446
  563MOL0     C74223   9.395   0.815  -0.393  0.2598 -0.6818  0.5033
  563MOL0     C74224   9.431   0.793  -0.538 -0.5756  0.5584 -0.0721
  563MOL0     C74225   9.317   0.846  -0.635  0.3088  0.4413 -0.1236
  563MOL0     C74226   9.340   0.835  -0.785  0.2587  1.3773 -0.4618
  563MOL0     C74227   9.204   0.838  -0.854 -0.3105  0.5969  0.6613
  563MOL0    Cl74228   9.140   1.003  -0.851 -0.3493 -0.3107 -0.1959
  563MOL0     C74229   9.412   1.124   0.099  0.2559 -0.3497 -0.6922
  563MOL0     C74230   9.395   1.257   0.119 -0.0081  0.3267  0.4705
  563MOL0     O74231   9.631   1.607   0.014  0.6390  0.3866  0.1780
  563MOL0     C74232   9.583   1.829   0.190 -0.9671  0.3706 -0.4498
  563MOL0     C74233   9.549   1.952   0.248 -0.1319 -0.4676 -0.7205
  563MOL0     N74234   9.639   2.751   0.102 -0.8418  0.1416  0.5411
  563MOL0     N74235   9.717   2.835   0.157 -0.3302 -0.4510 -0.2323
  563MOL0     C74236  10.375   2.852   1.068  0.1504 -0.2302  0.4566
  563MOL0     C74237  10.365   2.926   1.181 -0.0703 -0.5564 -0.1280
  563MOL0     C74238  10.573   3.084   1.581  0.7370  0.8526 -1.0048
  563MOL0     C74239  10.635   3.065   1.711 -0.6755 -0.5282 -0.6591
  563MOL0     C74240  10.679   3.175   1.797 -0.2590  0.6777  0.8409
  563MOL0     C74241  10.661   3.307   1.749 -0.3738 -0.1219  0.2195
  563MOL0     O74242  10.712   3.413   1.820 -0.5386 -0.0282  0.4993
  563MOL0     C74243  10.833   3.387   1.911  0.1065  0.2438 -0.0369
  563MOL0     C74244  10.921   3.509   1.899 -0.4427 -0.3779 -0.9661
  563MOL0     C74245  11.067   3.488   1.963  0.8681  0.4232  0.4201
  563MOL0     C74246  11.077   3.484   2.111  0.2914 -0.1455 -0.5382
  563MOL0     C74247  11.067   3.619   2.159 -0.1701 -1.6293 -0.4254
  563MOL0     C74248  11.072   3.738   2.199 -0.0282 -0.5746 -0.6427
  563MOL0     C74249  10.598   3.321   1.627  0.0158  0.8580 -0.1986
  563MOL0     C74250  10.547   3.213   1.544  0.4180 -0.7050  0.5683
  563MOL0     H74251  10.650   2.837   1.324 -0.6527  1.6443  1.6813
  563MOL0     H74252  10.631   2.657   1.151  1.5135  1.2139  0.9427
  563MOL0     H74253  10.261   2.663   0.904  1.2033  1.2754  2.2324
  563MOL0     H74254  10.354   2.549   0.800  1.6292 -0.2829 -0.3484
  563MOL0     H74255  10.486   2.730   0.702  0.3308  1.9197  0.8403
  563MOL0     H74256  10.391   2.857   0.768 -0.8650 -0.0131 -0.4687
  563MOL0     H74257  10.265   2.633   0.613 -3.0563  0.6119  0.6638
  563MOL0     H74258  10.329   2.778   0.526  0.6261 -0.7945  0.7282
  563MOL0     H74259  10.118   2.782   0.750  0.6229  1.2993  0.9772
  563MOL0     H74260  10.181   2.927   0.669 -1.9349  0.0334  2.4088
  563MOL0     H74261   9.966   2.769   0.606 -1.1426 -1.2821 -1.4208
  563MOL0     H74262  10.088   2.693   0.502  0.0471 -1.3326  3.0776
  563MOL0     H74263  10.161   2.926   0.427  0.8400  0.2612  1.4680
  563MOL0     H74264  10.012   2.992   0.496 -3.1173 -1.3164 -0.2994
  563MOL0     H74265   9.983   2.934   0.255  1.3300  3.0188  2.7213
  563MOL0     H74266  10.007   2.759   0.308 -0.2024  0.6200 -0.9699
  563MOL0     H74267   9.789   2.951   0.400  2.5888  0.8807  1.8949
  563MOL0     H74268   9.814   2.795   0.468  1.5728 -0.1040  0.5326
  563MOL0     H74269   9.695   2.609   0.388  3.4041  1.1925  1.0627
  563MOL0     H74270   9.540   2.490   0.065 -2.5338  3.3478 -2.7975
  563MOL0     H74271   9.415   2.577   0.168  0.5110  0.8364  0.5828
  563MOL0     H74272   9.509   2.459   0.373 -0.4556  2.5195 -0.3675
  563MOL0     H74273   9.645   2.407   0.267  0.0497  1.9852 -3.9753
  563MOL0     H74274   9.343   2.343   0.238  1.5568  1.6248 -0.8706
  563MOL0     H74275   9.471   2.254   0.152 -0.2545 -1.9129  0.4616
  563MOL0     H74276   9.416   2.260   0.444  3.0467  1.6635 -0.6092
  563MOL0     H74277   9.556   2.176   0.386 -0.6244 -0.0342  2.3871
  563MOL0     H74278   9.212   1.899   0.239 -0.3139  0.1239  0.0160
  563MOL0     H74279   9.273   1.694   0.158  0.4071  0.3133  0.3650
  563MOL0     H74280   9.689   1.376  -0.021  2.7958 -0.6734  2.1453
  563MOL0     H74281   9.706   1.128  -0.066 -0.9737 -0.3457 -0.3894
  563MOL0     H74282   9.606   0.964  -0.186  1.2051 -1.9939  0.6804
  563MOL0     H74283   9.440   0.985  -0.184 -0.2723 -0.3943  0.1553
  563MOL0     H74284   9.401   0.739  -0.123 -0.1516  0.3695  0.3591
  563MOL0     H74285   9.577   0.723  -0.108 -1.5697 -0.2396  3.0056
  563MOL0     H74286   9.480   0.639  -0.310  2.7957 -1.1734  2.6220
  563MOL0     H74287   9.598   0.759  -0.349  0.9306  1.4684  2.5976
  563MOL0     H74288   9.299   0.767  -0.372 -0.6780  0.8541 -0.1969
  563MOL0     H74289   9.385   0.922  -0.376  0.4660 -0.0249 -2.8977
  563MOL0     H74290   9.461   0.689  -0.557 -0.1639 -0.3153  4.3898
  563MOL0     H74291   9.516   0.853  -0.569 -1.1107  0.9506 -0.8125
  563MOL0     H74292   9.281   0.949  -0.622  2.6867  1.0623  2.2765
  563MOL0     H74293   9.223   0.796  -0.609  0.3856 -0.1041 -0.8506
  563MOL0     H74294   9.397   0.921  -0.823 -2.5522  2.8664 -1.6425
  563MOL0     H74295   9.385   0.738  -0.805 -2.4278 -0.5472  2.1272
  563MOL0     H74296   9.144   0.751  -0.827  0.4054 -0.5499 -1.2427
  563MOL0     H74297   9.231   0.824  -0.959 -2.3886 -1.7231  0.3501
  563MOL0     H74298   9.345   1.057   0.152 -2.7365  1.7304 -1.5249
  563MOL0     H74299   9.299   1.278   0.166 -1.1550 -0.8480 -1.2471
  563MOL0     H74300   9.686   1.797   0.176 -1.5364 -1.5537 -0.6556
  563MOL0     H74301   9.624   2.025   0.277 -2.5123  3.0424 -2.6404
  563MOL0     H74302  10.307   2.879   0.988  3.0645  1.4934 -1.6659
  563MOL0     H74303  10.295   3.009   1.188  1.0380  0.2752  2.9453
  563MOL0     H74304  10.650   2.962   1.742  2.9514 -0.2599 -1.0865
  563MOL0     H74305  10.717   3.179   1.899  0.0013  4.4109  0.7402
  563MOL0     H74306  10.899   3.308   1.874 -1.8900 -0.7155 -1.7695
  563MOL0     H74307  10.813   3.354   2.014  1.5588 -1.7625 -0.3258
  563MOL0     H74308  10.940   3.548   1.799  1.4023  0.3047 -0.3992
  563MOL0     H74309  10.868   3.592   1.949  1.8791  0.2208  0.6925
  563MOL0     H74310  11.138   3.561   1.921  0.8452  0.3664  0.2805
  563MOL0     H74311  11.109   3.393   1.929 -2.1321  0.2272 -3.4964
  563MOL0     H74312  10.992   3.432   2.156  2.8315 -1.2833  3.4985
  563MOL0     H74313  11.177   3.447   2.139 -0.2340 -1.0974  0.1366
  563MOL0     H74314  11.063   3.839   2.236  0.8505  1.5203 -5.3709
  563MOL0     H74315  10.597   3.425   1.596 -1.0864  0.8574 -0.2033
  563MOL0     H74316  10.480   3.239   1.462  1.1718 -2.0615 -0.5252
  564MOL0     O74317   0.216   1.240   2.865  0.3831  1.3892  0.4282
  564MOL0     C74318   0.313   1.191   2.920  1.1112 -0.3715 -0.5135
  564MOL0     O74319   0.301   1.088   2.995 -0.0393 -0.0309 -0.3837
  564MOL0     C74320   0.190   1.021   3.051  0.6447 -0.0083  0.0339
  564MOL0     C74321   0.202   0.910   3.123 -0.8178  0.8449 -0.3821
  564MOL0     C74322   0.103   0.844   3.194  0.6430  0.9523  0.4119
  564MOL0     C74323  -0.022   0.899   3.189 -0.2380  0.6836  1.1288
  564MOL0     O74324  -0.118   0.828   3.264 -1.3515 -0.2789 -0.0772
  564MOL0     C74325  -0.262   0.855   3.258 -1.2059 -0.7615  0.1682
  564MOL0     C74326  -0.315   0.812   3.122 -0.5444  0.2675 -0.2338
  564MOL0     C74327  -0.295   0.665   3.103 -0.2640  0.2789  0.2424
  564MOL0     C74328  -0.333   0.618   2.960  0.1622  0.2717 -0.6847
  564MOL0     C74329  -0.249   0.670   2.847  0.0934  0.1048 -0.4015
  564MOL0     C74330  -0.096   0.683   2.867  0.1933 -0.3897  0.3389
  564MOL0     C74331  -0.024   0.551   2.850  0.3510  0.7348 -0.7261
  564MOL0     C74332   0.013   0.513   2.707  0.2612 -0.5833 -0.0681
  564MOL0     N74333   0.118   0.409   2.702  0.2735 -0.2409  0.4075
  564MOL0     C74334   0.177   0.363   2.585 -0.7540  0.5573  0.0684
  564MOL0     C74335   0.253   0.256   2.623  0.1651 -0.4204  0.0253
  564MOL0     C74336   0.353   0.178   2.548 -0.0406 -0.0538 -0.0608
  564MOL0     C74337   0.291   0.056   2.490 -0.1706 -0.0847  0.6614
  564MOL0     C74338   0.383  -0.063   2.451 -0.1587  0.4210  0.1367
  564MOL0     C74339   0.462  -0.035   2.324  0.5283  0.3278  0.4567
  564MOL0     O74340   0.552   0.077   2.345 -0.0616  0.1113 -0.7094
  564MOL0     C74341   0.630   0.126   2.251  0.4353  0.2075  0.9239
  564MOL0     C74342   0.585   0.139   2.118  0.9053 -0.5028 -0.2887
  564MOL0     C74343   0.658   0.209   2.023  0.1915 -0.2540 -0.2515
  564MOL0     C74344   0.792   0.240   2.046 -0.1438  0.6475  0.0668
  564MOL0     C74345   0.863   0.314   1.946 -1.2162  0.8719  0.2149
  564MOL0     O74346   0.970   0.399   1.990  0.1320 -0.2565 -0.3160
  564MOL0     C74347   1.056   0.453   1.905 -0.0643 -0.5988 -0.8538
  564MOL0     C74348   1.112   0.385   1.800  0.0338  0.2325  0.9861
  564MOL0     C74349   1.225   0.440   1.733  0.1334  0.3763 -0.7437
  564MOL0     C74350   1.260   0.575   1.770 -0.0796 -0.2569 -0.5618
  564MOL0     O74351   1.355   0.638   1.704  0.1953  0.3643 -0.6018
  564MOL0     C74352   1.489   0.587   1.731  0.1888  0.1952  0.1285
  564MOL0     C74353   1.576   0.711   1.712  0.3273 -0.5755  0.6536
  564MOL0     C74354   1.729   0.684   1.707 -0.3324 -0.6631  0.0651
  564MOL0     C74355   1.812   0.807   1.671  0.3051 -0.1419  0.0366
  564MOL0     C74356   1.953   0.773   1.634 -0.1657  0.6299  0.0955
  564MOL0     C74357   2.048   0.892   1.613 -0.4310  0.1052 -0.5121
  564MOL0     C74358   2.197   0.855   1.616  0.1281  0.9253 -0.0088
  564MOL0     C74359   2.294   0.979   1.611  0.3080  1.3850  0.3263
  564MOL0    Cl74360   2.286   1.065   1.449  0.5110 -0.3608  0.4777
  564MOL0     C74361   1.200   0.642   1.870 -0.0783  0.3920 -0.6662
  564MOL0     C74362   1.088   0.588   1.935  0.2661  0.2798  0.0505
  564MOL0     O74363   0.831   0.290   1.831 -0.5666 -0.0605 -0.1864
  564MOL0     C74364   0.846   0.213   2.172  0.1249  0.5372  0.5928
  564MOL0     C74365   0.765   0.163   2.278  0.6965  0.3877  0.8578
  564MOL0     N74366   0.244   0.254   2.762 -0.3415 -0.2607  0.3050
  564MOL0     N74367   0.154   0.325   2.802 -0.1872 -0.0259  0.1163
  564MOL0     C74368  -0.044   1.016   3.126 -0.5026 -0.3818  0.4129
  564MOL0     C74369   0.060   1.082   3.055  0.0300  0.2088 -0.1893
  564MOL0     C74370   0.446   1.260   2.896 -0.2495 -0.0103 -0.0482
  564MOL0     C74371   0.460   1.382   2.823  1.3185 -0.3140  0.2463
  564MOL0     C74372   0.579   1.440   2.807  0.1058 -0.6954 -0.1232
  564MOL0     C74373   0.700   1.388   2.860  0.3673  0.1949 -0.4959
  564MOL0     O74374   0.828   1.431   2.855  0.0269  0.0511  0.0172
  564MOL0     C74375   0.852   1.545   2.770 -0.8755 -0.9736  0.4369
  564MOL0     C74376   0.848   1.509   2.620 -0.2052  0.1699 -1.0363
  564MOL0     C74377   0.877   1.631   2.531 -0.4346 -0.0031  0.2619
  564MOL0     C74378   0.965   1.601   2.407  0.1517  0.8694  0.5438
  564MOL0     C74379   1.107   1.634   2.428 -0.4257  0.1908 -0.1668
  564MOL0     C74380   1.223   1.659   2.462  0.2965 -0.5407  0.2606
  564MOL0     C74381   0.692   1.272   2.933  0.1272  0.9412  0.2576
  564MOL0     C74382   0.566   1.213   2.948  0.0155 -0.2616 -0.8725
  564MOL0     H74383   0.300   0.868   3.141 -0.7451  0.5596 -1.3538
  564MOL0     H74384   0.122   0.748   3.240  3.8019  1.6632  0.8295
  564MOL0     H74385  -0.274   0.963   3.268  1.9247 -0.2979 -0.0885
  564MOL0     H74386  -0.316   0.808   3.341 -1.5922 -0.7641 -0.0816
  564MOL0     H74387  -0.279   0.881   3.045 -0.9966 -0.1206 -0.8051
  564MOL0     H74388  -0.423   0.829   3.123 -0.5489  0.3218 -1.0538
  564MOL0     H74389  -0.361   0.607   3.168 -0.2672  0.3592  0.3114
  564MOL0     H74390  -0.191   0.639   3.125  0.6892  1.1610 -2.7269
  564MOL0     H74391  -0.317   0.510   2.964  0.5535  0.3418 -0.1849
  564MOL0     H74392  -0.439   0.634   2.940  0.5163  2.5686 -1.0241
  564MOL0     H74393  -0.285   0.771   2.825  3.5573  1.4448 -0.5429
  564MOL0     H74394  -0.272   0.610   2.758  0.2644 -0.3922 -0.1132
  564MOL0     H74395  -0.066   0.725   2.963 -1.2951 -0.9233  1.0812
  564MOL0     H74396  -0.053   0.751   2.792  3.4033 -2.1752  0.4002
  564MOL0     H74397   0.070   0.555   2.905 -0.7592 -0.2407  1.3651
  564MOL0     H74398  -0.089   0.476   2.896  0.0009  0.9063 -0.9391
  564MOL0     H74399   0.038   0.602   2.648  2.2909 -0.9597  0.1681
  564MOL0     H74400  -0.071   0.468   2.654  0.3596 -2.2341  1.1091
  564MOL0     H74401   0.164   0.406   2.486  0.2771  1.3963  0.2835
  564MOL0     H74402   0.422   0.147   2.627 -1.1789  4.2504  2.9823
  564MOL0     H74403   0.409   0.238   2.476 -0.5716  0.6875  0.1346
  564MOL0     H74404   0.234   0.081   2.401  0.1660  1.2646  0.8040
  564MOL0     H74405   0.215   0.007   2.551 -3.2374 -1.1033 -3.5561
  564MOL0     H74406   0.459  -0.090   2.525 -1.6647  0.6418  1.8341
  564MOL0     H74407   0.324  -0.153   2.434 -0.7742  0.5697  1.3391
  564MOL0     H74408   0.396  -0.024   2.237 -0.4245 -1.7167  0.8586
  564MOL0     H74409   0.507  -0.131   2.294 -0.3794  1.0524 -3.9793
  564MOL0     H74410   0.478   0.127   2.101  1.3159 -2.7939 -1.5733
  564MOL0     H74411   0.625   0.237   1.923  0.7295  2.6475  0.2958
  564MOL0     H74412   1.075   0.295   1.753 -3.1915  2.6155 -1.4321
  564MOL0     H74413   1.278   0.382   1.659  0.6927 -2.5648  1.7968
  564MOL0     H74414   1.524   0.520   1.652  2.3784 -1.2139  2.1824
  564MOL0     H74415   1.512   0.543   1.828 -1.8684  0.5050  0.8012
  564MOL0     H74416   1.536   0.782   1.786  0.6004  0.2907 -0.0057
  564MOL0     H74417   1.556   0.759   1.615  2.0549  2.5206  1.6610
  564MOL0     H74418   1.757   0.600   1.644 -0.0304 -0.6533  0.1836
  564MOL0     H74419   1.746   0.649   1.810 -1.0937  0.3184  0.5491
  564MOL0     H74420   1.753   0.859   1.595 -0.8728 -0.4837  0.6901
  564MOL0     H74421   1.819   0.862   1.765 -0.9906  0.8762 -0.4449
  564MOL0     H74422   1.950   0.717   1.541  3.6856 -1.3506  0.9259
  564MOL0     H74423   1.997   0.708   1.711  3.4484  3.5451  0.8009
  564MOL0     H74424   2.028   0.975   1.682 -1.1470 -0.8274  0.4293
  564MOL0     H74425   2.021   0.928   1.513  1.6711 -1.5269 -1.7393
  564MOL0     H74426   2.236   0.789   1.695  1.0393 -1.6861 -2.4249
  564MOL0     H74427   2.206   0.812   1.515 -2.5313  1.4575 -0.5310
  564MOL0     H74428   2.400   0.955   1.628  0.7472  2.0346 -1.3399
  564MOL0     H74429   2.255   1.047   1.688 -4.1097 -1.9123  1.4139
  564MOL0     H74430   1.237   0.742   1.892  2.1848 -0.8123  1.4988
  564MOL0     H74431   1.028   0.633   2.013 -0.5066 -3.0162  1.5332
  564MOL0     H74432   0.947   0.242   2.200  0.5251 -1.6062  1.5138
  564MOL0     H74433   0.798   0.141   2.379  0.6671 -0.4030  0.6995
  564MOL0     H74434  -0.145   1.057   3.124 -0.1563  0.8418 -4.0260
  564MOL0     H74435   0.035   1.175   3.006 -1.0510 -0.5642 -1.1419
  564MOL0     H74436   0.376   1.425   2.770 -0.1148 -1.2686  1.6613
  564MOL0     H74437   0.584   1.533   2.752 -0.2705 -1.6101 -1.7734
  564MOL0     H74438   0.956   1.570   2.795 -0.9496  1.1480 -1.1277
  564MOL0     H74439   0.794   1.635   2.791 -2.1636 -0.2125 -4.9773
  564MOL0     H74440   0.924   1.434   2.598 -2.1176 -1.4151 -2.5876
  564MOL0     H74441   0.748   1.469   2.599 -0.2267  0.5158 -1.6299
  564MOL0     H74442   0.932   1.705   2.589  2.2480 -0.9244 -0.9599
  564MOL0     H74443   0.782   1.671   2.494  0.9378  1.0433 -2.3699
  564MOL0     H74444   0.947   1.500   2.369 -1.7189  2.0345 -1.8849
  564MOL0     H74445   0.940   1.668   2.324 -0.2087  1.5596  1.2004
  564MOL0     H74446   1.321   1.700   2.454  0.2879 -0.2141  1.5883
  564MOL0     H74447   0.781   1.220   2.969 -1.1042 -3.4431 -2.3048
  564MOL0     H74448   0.563   1.112   2.988 -2.7640 -0.5824 -1.6651
  565MOL0     O74449   9.845   1.565  10.294 -0.6909 -0.3104 -0.1455
  565MOL0     C74450   9.806   1.519  10.189 -0.6887  0.1302 -0.0192
  565MOL0     O74451   9.732   1.586  10.097 -0.2774  0.7978 -0.3455
  565MOL0     C74452   9.688   1.715  10.124  0.2395  0.1645  0.5358
  565MOL0     C74453   9.556   1.748  10.142 -0.0215  0.0718  0.1723
  565MOL0     C74454   9.509   1.882  10.164 -0.5765  0.3068  0.7789
  565MOL0     C74455   9.606   1.981  10.147  1.1533 -0.3517  0.3864
  565MOL0     O74456   9.591   2.115  10.142  0.6386 -0.5383  0.2910
  565MOL0     C74457   9.459   2.166  10.118 -1.1288 -0.0861 -1.0247
  565MOL0     C74458   9.450   2.314  10.150 -0.4919 -0.9377 -0.3925
  565MOL0     C74459   9.508   2.361  10.285 -0.5402 -0.5943 -0.3612
  565MOL0     C74460   9.458   2.511  10.296 -0.2330  0.4782 -0.0630
  565MOL0     C74461   9.538   2.570  10.417 -0.4219  0.7243  1.0072
  565MOL0     C74462   9.506   2.719  10.428 -0.0525 -0.1179 -0.4701
  565MOL0     C74463   9.569   2.760  10.562  0.3526 -0.0627  0.0698
  565MOL0     C74464   9.564   2.910  10.599 -0.4562 -0.4482 -0.5277
  565MOL0     N74465   9.427   2.954  10.604  0.4637 -0.5404 -0.8952
  565MOL0     C74466   9.370   2.995  10.723  1.1303  1.3479  0.1382
  565MOL0     C74467   9.246   3.040  10.685  0.5848 -0.2448  0.8765
  565MOL0     C74468   9.132   3.089  10.773 -0.5939  0.5392  0.4659
  565MOL0     C74469   9.021   3.167  10.698 -0.7677  0.5399 -0.1312
  565MOL0     C74470   8.879   3.148  10.727  0.2491  0.0034  0.0557
  565MOL0     C74471   8.823   3.020  10.667 -0.4393 -0.9047  0.5736
  565MOL0     O74472   8.697   2.981  10.732 -1.1086  0.2566 -0.7904
  565MOL0     C74473   8.581   3.036  10.706  0.7253  0.7050  0.2145
  565MOL0     C74474   8.564   3.141  10.614  0.1405 -0.6743 -0.0936
  565MOL0     C74475   8.435   3.177  10.575 -0.7004 -0.7031  0.0279
  565MOL0     C74476   8.325   3.107  10.623  0.7434 -0.4144 -0.0906
  565MOL0     C74477   8.192   3.145  10.569  0.9004  0.2513 -0.2960
  565MOL0     O74478   8.183   3.222  10.462  0.4794 -0.4524 -0.1395
  565MOL0     C74479   8.064   3.260  10.412 -0.6824  0.2341 -0.9834
  565MOL0     C74480   8.070   3.378  10.340 -0.2447  0.4472  0.1553
  565MOL0     C74481   7.969   3.434  10.261  0.3148 -0.1999 -0.2040
  565MOL0     C74482   7.843   3.369  10.260  0.1320 -0.5729  0.4711
  565MOL0     O74483   7.743   3.419  10.188 -0.0984 -0.4091  0.1012
  565MOL0     C74484   7.765   3.479  10.057  0.2975 -0.2331 -0.1104
  565MOL0     C74485   7.630   3.466   9.989 -0.6531 -0.2740 -0.1462
  565MOL0     C74486   7.644   3.507   9.841 -0.6077  0.1887 -0.2959
  565MOL0     C74487   7.508   3.494   9.769 -0.2189  0.8619  0.1145
  565MOL0     C74488   7.544   3.481   9.614 -0.1562  0.4048 -0.2562
  565MOL0     C74489   7.439   3.541   9.528  0.0661 -0.0507  0.5250
  565MOL0     C74490   7.429   3.693   9.542  0.7898 -0.0680 -0.2196
  565MOL0     C74491   7.341   3.762   9.441 -0.9737  0.6806 -0.4236
  565MOL0    Cl74492   7.186   3.688   9.416  0.3886  0.4787  0.1812
  565MOL0     C74493   7.826   3.244  10.325  0.6977 -0.3446 -0.4099
  565MOL0     C74494   7.932   3.192  10.397  0.0921  0.7356 -1.5235
  565MOL0     O74495   8.099   3.083  10.616 -0.6532 -0.3214 -0.5243
  565MOL0     C74496   8.342   3.009  10.728 -0.0402  0.2510 -0.3094
  565MOL0     C74497   8.467   2.977  10.778 -0.4921  0.8303  0.4258
  565MOL0     N74498   9.243   3.039  10.545  0.5006 -0.0438  0.4996
  565MOL0     N74499   9.343   2.979  10.503  0.0823 -0.5336  0.2008
  565MOL0     C74500   9.738   1.953  10.125 -0.2127 -0.2117  0.6118
  565MOL0     C74501   9.776   1.821  10.117 -0.4981 -0.3850 -0.0442
  565MOL0     C74502   9.841   1.383  10.159 -0.6000  0.7344  1.0273
  565MOL0     C74503   9.860   1.342  10.026 -0.4368  1.0270  0.8442
  565MOL0     C74504   9.876   1.208   9.996  0.0120 -0.2016 -0.4323
  565MOL0     C74505   9.883   1.109  10.097  0.0582 -0.2917  0.0686
  565MOL0     O74506   9.891   0.983  10.061 -0.3773 -0.1016 -0.0607
  565MOL0     C74507   9.989   0.937   9.968 -0.7571  0.8083  0.2355
  565MOL0     C74508   9.919   0.851   9.863 -0.0766 -0.2573  1.4941
  565MOL0     C74509   9.991   0.832   9.727  0.3060 -0.6725 -0.6308
  565MOL0     C74510   9.972   0.701   9.664  0.1776  0.1220  0.1679
  565MOL0     C74511   9.828   0.666   9.644 -0.6492  0.5878 -1.7928
  565MOL0     C74512   9.712   0.659   9.632  0.3453  0.4298  0.1126
  565MOL0     C74513   9.890   1.156  10.228  0.6328  0.0195  0.3928
  565MOL0     C74514   9.865   1.286  10.262  0.7338  0.8306 -0.1149
  565MOL0     H74515   9.505   1.655  10.165  1.6657 -0.8899  0.2286
  565MOL0     H74516   9.403   1.903  10.179 -0.3414  1.4831  0.8507
  565MOL0     H74517   9.384   2.121  10.184 -0.1837  1.8945  1.5975
  565MOL0     H74518   9.447   2.151  10.010  2.3257  0.8152 -1.6585
  565MOL0     H74519   9.344   2.338  10.137 -0.0698  0.3266 -1.7882
  565MOL0     H74520   9.506   2.372  10.076  1.0881 -1.1940  0.5615
  565MOL0     H74521   9.617   2.356  10.293 -0.6032  0.7458  3.6472
  565MOL0     H74522   9.456   2.303  10.361 -1.6999  1.8008  0.8023
  565MOL0     H74523   9.466   2.565  10.201 -1.8648  0.7461 -0.0757
  565MOL0     H74524   9.354   2.509  10.330  0.7436 -0.7062  3.2716
  565MOL0     H74525   9.644   2.554  10.396 -0.6860 -2.2447  1.4401
  565MOL0     H74526   9.500   2.527  10.510 -0.9031  0.2225  0.5932
  565MOL0     H74527   9.398   2.732  10.427  0.0651  1.1440 -2.1705
  565MOL0     H74528   9.546   2.774  10.342  1.3026 -2.8292 -1.7037
  565MOL0     H74529   9.534   2.701  10.647  3.5862 -0.8715  1.0004
  565MOL0     H74530   9.677   2.739  10.557  0.0938 -1.1715 -2.6118
  565MOL0     H74531   9.616   2.962  10.519 -3.0518  0.0250 -2.0125
  565MOL0     H74532   9.623   2.926  10.690 -0.7715 -0.1926 -0.3680
  565MOL0     H74533   9.409   2.972  10.821  0.9225 -1.4423 -0.3677
  565MOL0     H74534   9.182   3.152  10.847  1.0165  1.1471 -1.0820
  565MOL0     H74535   9.097   2.995  10.816 -0.0705  0.5627  0.9538
  565MOL0     H74536   9.031   3.158  10.590  1.5874 -1.5702  0.1877
  565MOL0     H74537   9.049   3.270  10.721  1.4705 -0.0994  0.2125
  565MOL0     H74538   8.858   3.140  10.834 -2.0113 -3.5126 -0.4708
  565MOL0     H74539   8.826   3.233  10.684  1.5418  1.1496  0.6767
  565MOL0     H74540   8.895   2.940  10.688 -0.5560 -0.9887  0.6549
  565MOL0     H74541   8.812   3.020  10.558  2.7017 -4.1984  0.0390
  565MOL0     H74542   8.637   3.203  10.563  0.3632  1.3992  2.5023
  565MOL0     H74543   8.412   3.249  10.498 -0.8395  2.0442  2.4729
  565MOL0     H74544   8.168   3.424  10.344  0.0572 -0.0106 -1.4725
  565MOL0     H74545   7.973   3.532  10.214 -2.9572 -1.1321 -2.8354
  565MOL0     H74546   7.845   3.425  10.006 -0.4424 -1.1489 -0.3209
  565MOL0     H74547   7.791   3.585  10.067 -0.3164 -0.2718  2.6514
  565MOL0     H74548   7.563   3.533  10.044 -2.9304 -0.7537 -2.1329
  565MOL0     H74549   7.591   3.365   9.999  0.4011 -0.7639 -0.8489
  565MOL0     H74550   7.724   3.449   9.794  0.5169  1.5311 -0.0949
  565MOL0     H74551   7.686   3.607   9.832 -0.1245  0.0603  0.5388
  565MOL0     H74552   7.462   3.400   9.798  0.6983  1.0923  2.4993
  565MOL0     H74553   7.437   3.572   9.796  0.3987  1.3042  0.5113
  565MOL0     H74554   7.565   3.377   9.585 -0.4534 -0.2092  1.6064
  565MOL0     H74555   7.635   3.534   9.583 -0.3032  0.9023  0.1549
  565MOL0     H74556   7.345   3.494   9.558  0.0928  1.3054  3.0026
  565MOL0     H74557   7.457   3.517   9.423  1.3580  1.6910  0.3051
  565MOL0     H74558   7.399   3.730   9.640  3.1991  1.8541 -0.1124
  565MOL0     H74559   7.527   3.736   9.519  1.3864 -1.8960 -1.3789
  565MOL0     H74560   7.395   3.753   9.346  2.4357 -1.6959  1.4804
  565MOL0     H74561   7.323   3.865   9.473 -1.8907  0.8776 -1.5223
  565MOL0     H74562   7.728   3.197  10.328  0.9187 -0.7931  1.6711
  565MOL0     H74563   7.900   3.104  10.452 -0.6082  0.1917 -2.7639
  565MOL0     H74564   8.263   2.950  10.773  2.7643 -3.9240 -0.2954
  565MOL0     H74565   8.479   2.898  10.851  0.0408  0.8775  0.3938
  565MOL0     H74566   9.806   2.036  10.106 -0.7555 -0.1354 -1.1056
  565MOL0     H74567   9.880   1.809  10.090  0.8286  3.9520  2.2175
  565MOL0     H74568   9.866   1.417   9.948  4.0453  0.8201  0.6942
  565MOL0     H74569   9.881   1.167   9.896  0.5087 -4.0414  0.9991
  565MOL0     H74570  10.054   0.867  10.020  0.2724  1.3896 -0.2353
  565MOL0     H74571  10.039   1.020   9.917  0.3061 -0.3087 -0.5931
  565MOL0     H74572   9.912   0.750   9.903 -0.6102 -0.6953  0.3604
  565MOL0     H74573   9.816   0.884   9.846  0.7527  2.1112  0.6701
  565MOL0     H74574  10.097   0.836   9.754 -0.5623  2.5433  3.2918
  565MOL0     H74575   9.973   0.913   9.656  0.9799  0.8782  0.9096
  565MOL0     H74576  10.031   0.714   9.573  2.2354 -1.2101  1.2309
  565MOL0     H74577  10.021   0.632   9.733 -0.4484 -0.6975 -0.1954
  565MOL0     H74578   9.607   0.649   9.614  0.1979  2.1428 -0.1609
  565MOL0     H74579   9.900   1.097  10.319 -2.2680 -0.0347  0.7943
  565MOL0     H74580   9.854   1.315  10.367 -1.5535 -0.2939  0.0329
  566MOL0     O74581   8.061   0.118   1.740 -0.8994 -0.3973  0.0560
  566MOL0     C74582   8.018   0.043   1.652  0.5308 -0.3700 -0.1688
  566MOL0     O74583   7.968  -0.080   1.665  0.0413  0.5181 -0.2744
  566MOL0     C74584   7.945  -0.119   1.796  0.2692  0.9327  0.4715
  566MOL0     C74585   7.832  -0.069   1.869 -0.8639  0.0962  0.2306
  566MOL0     C74586   7.802  -0.132   1.981  0.1061 -0.1218  0.6179
  566MOL0     C74587   7.883  -0.233   2.036  1.0373  0.3066 -0.4310
  566MOL0     O74588   7.844  -0.292   2.153 -0.2319  1.1030 -0.1891
  566MOL0     C74589   7.729  -0.368   2.156  1.4266  0.1430 -0.5509
  566MOL0     C74590   7.738  -0.458   2.282  0.5767  1.0396 -0.0739
  566MOL0     C74591   7.871  -0.531   2.308 -0.0953  0.0477 -0.0983
  566MOL0     C74592   7.884  -0.650   2.208 -0.6895  0.7520 -0.3292
  566MOL0     C74593   8.006  -0.742   2.231  0.1083  0.3368  0.2916
  566MOL0     C74594   8.159  -0.694   2.220 -0.8640  0.3792 -0.7981
  566MOL0     C74595   8.200  -0.630   2.081 -0.1742  0.7698 -0.1222
  566MOL0     C74596   8.302  -0.516   2.096 -0.0713 -0.3164  1.6571
  566MOL0     N74597   8.343  -0.476   1.954  0.4393  0.1485 -0.5499
  566MOL0     C74598   8.460  -0.397   1.930  0.8288 -1.0424 -0.5100
  566MOL0     C74599   8.461  -0.375   1.796 -0.8222 -0.1958 -0.4827
  566MOL0     C74600   8.576  -0.301   1.723  0.6090  0.7511  1.1931
  566MOL0     C74601   8.555  -0.167   1.676  0.2906  0.0309  0.7220
  566MOL0     C74602   8.580  -0.061   1.783 -0.8452 -0.0146  0.1580
  566MOL0     C74603   8.604   0.082   1.722  0.0381 -0.0672 -0.1741
  566MOL0     O74604   8.481   0.146   1.678 -0.3737  0.3323 -0.3418
  566MOL0     C74605   8.470   0.278   1.663  0.4219 -0.1205 -0.1286
  566MOL0     C74606   8.579   0.377   1.641 -0.7799 -0.1725 -1.0340
  566MOL0     C74607   8.555   0.515   1.625 -0.2384  0.4755  0.6205
  566MOL0     C74608   8.424   0.570   1.607 -0.4907  0.1085  0.4117
  566MOL0     C74609   8.389   0.706   1.588 -0.1000 -0.1506 -0.1421
  566MOL0     O74610   8.481   0.803   1.629  0.7809 -0.2242 -0.5295
  566MOL0     C74611   8.466   0.939   1.629 -0.8439  0.3057  0.6568
  566MOL0     C74612   8.370   1.005   1.549 -0.2876  0.1195  0.4583
  566MOL0     C74613   8.352   1.142   1.568 -0.4681 -0.5638 -0.0428
  566MOL0     C74614   8.439   1.222   1.651  0.0384 -0.2865  0.2887
  566MOL0     O74615   8.413   1.356   1.646  0.2398 -0.2700  0.0380
  566MOL0     C74616   8.522   1.453   1.688 -0.2431  1.0943 -0.3875
  566MOL0     C74617   8.480   1.596   1.662 -0.0719 -0.4283 -0.0110
  566MOL0     C74618   8.394   1.645   1.785  0.1928 -0.4713 -0.1238
  566MOL0     C74619   8.361   1.788   1.762 -0.4778 -0.2645 -1.0624
  566MOL0     C74620   8.263   1.836   1.878 -0.2975 -1.1253 -0.0468
  566MOL0     C74621   8.186   1.959   1.842 -1.1419 -0.4091  0.3755
  566MOL0     C74622   8.076   1.991   1.948  0.0573  0.5748  0.0338
  566MOL0     C74623   7.986   2.102   1.884 -0.4566 -0.0440  0.1486
  566MOL0    Cl74624   8.078   2.257   1.841  0.3547 -0.4553  0.0385
  566MOL0     C74625   8.543   1.152   1.725  0.6317  0.1171  0.4668
  566MOL0     C74626   8.559   1.018   1.715  0.2454  0.5500  0.6886
  566MOL0     O74627   8.268   0.728   1.552 -0.3449 -0.3770 -0.2959
  566MOL0     C74628   8.323   0.477   1.611 -0.5429  0.6129  0.4498
  566MOL0     C74629   8.341   0.334   1.636 -0.6859 -0.3027 -0.8614
  566MOL0     N74630   8.354  -0.440   1.745  0.7299  0.1982 -0.7515
  566MOL0     N74631   8.281  -0.500   1.835 -0.5398  0.5585  0.3299
  566MOL0     C74632   8.001  -0.260   1.973  0.4771  0.2032  0.0632
  566MOL0     C74633   8.035  -0.211   1.854  0.3404 -0.0476  0.5578
  566MOL0     C74634   7.997   0.101   1.517  0.1590 -0.2006 -0.1200
  566MOL0     C74635   7.930   0.028   1.415 -0.8285  0.8121 -0.0325
  566MOL0     C74636   7.896   0.091   1.301 -0.1420 -0.7433  0.1076
  566MOL0     C74637   7.910   0.228   1.280 -0.9312  0.3118 -0.2482
  566MOL0     O74638   7.876   0.305   1.172 -0.2167  0.3098 -0.3741
  566MOL0     C74639   7.796   0.250   1.067 -0.5181  0.8593 -0.7105
  566MOL0     C74640   7.812   0.345   0.948  0.1483 -0.1588 -0.2096
  566MOL0     C74641   7.793   0.495   0.974  0.0003  0.2461 -0.2642
  566MOL0     C74642   7.920   0.578   0.965 -0.0997  0.3748 -0.4968
  566MOL0     C74643   7.959   0.593   0.823 -0.2159  1.1838  1.3979
  566MOL0     C74644   7.969   0.593   0.694  1.0723 -0.0941 -0.8927
  566MOL0     C74645   7.978   0.300   1.381 -0.5439 -0.3377  0.6923
  566MOL0     C74646   8.017   0.239   1.498 -0.3831 -0.0765 -0.7868
  566MOL0     H74647   7.757  -0.004   1.824 -0.5590 -0.0381 -0.4728
  566MOL0     H74648   7.722  -0.101   2.048  0.8457 -2.0659  2.5435
  566MOL0     H74649   7.726  -0.429   2.065  0.0905  2.9831 -2.5784
  566MOL0     H74650   7.640  -0.307   2.170  1.7900  1.5139 -3.4869
  566MOL0     H74651   7.654  -0.528   2.278 -1.1791  3.0788 -2.6642
  566MOL0     H74652   7.722  -0.392   2.368  2.1579  1.1580  0.1521
  566MOL0     H74653   7.883  -0.577   2.406 -2.0085 -1.7406 -0.6225
  566MOL0     H74654   7.962  -0.471   2.298 -0.5446  0.5001 -1.8218
  566MOL0     H74655   7.798  -0.713   2.232  0.1518 -0.0456  0.6443
  566MOL0     H74656   7.896  -0.622   2.103 -0.8777 -2.2812 -1.2515
  566MOL0     H74657   8.008  -0.818   2.153 -1.3351  0.3885  0.1829
  566MOL0     H74658   7.991  -0.797   2.325  1.6360 -1.7297 -0.6127
  566MOL0     H74659   8.232  -0.773   2.238  1.3301  1.3049 -4.4693
  566MOL0     H74660   8.180  -0.625   2.302  0.7066  1.9777 -2.4506
  566MOL0     H74661   8.233  -0.703   2.007  1.4589  0.0187  1.2823
  566MOL0     H74662   8.112  -0.590   2.029 -0.0461  0.6477 -0.4377
  566MOL0     H74663   8.395  -0.540   2.149 -0.0551  1.0389  2.2814
  566MOL0     H74664   8.257  -0.437   2.157 -0.3433 -1.6379  3.2443
  566MOL0     H74665   8.526  -0.354   2.004  1.1975  0.4202 -1.6304
  566MOL0     H74666   8.588  -0.363   1.634  2.4339  1.9005  0.5894
  566MOL0     H74667   8.672  -0.313   1.773  1.1948  1.3183  0.2478
  566MOL0     H74668   8.449  -0.160   1.650 -0.2287  1.1231  2.8628
  566MOL0     H74669   8.623  -0.144   1.595  1.1249 -0.5173  1.2522
  566MOL0     H74670   8.487  -0.063   1.841 -2.4083 -0.1939 -2.2543
  566MOL0     H74671   8.669  -0.078   1.844 -1.2222  0.5355  0.8882
  566MOL0     H74672   8.679   0.082   1.643  0.7676 -2.8561  0.4064
  566MOL0     H74673   8.655   0.136   1.802 -2.6634 -0.4353  1.9583
  566MOL0     H74674   8.683   0.349   1.654 -0.8177 -0.5822 -1.5806
  566MOL0     H74675   8.638   0.584   1.620 -1.0102  1.3335 -1.6243
  566MOL0     H74676   8.286   0.959   1.499 -3.1069  3.7759  1.4108
  566MOL0     H74677   8.277   1.204   1.520 -1.4304 -1.8619 -0.2611
  566MOL0     H74678   8.616   1.436   1.635 -0.6252 -0.5276 -0.6109
  566MOL0     H74679   8.551   1.441   1.793  1.3612 -3.3243 -1.1378
  566MOL0     H74680   8.417   1.610   1.573  0.4307 -1.6630 -0.5934
  566MOL0     H74681   8.574   1.652   1.659 -0.3953  0.1072 -1.8969
  566MOL0     H74682   8.444   1.640   1.882 -3.0291  3.5256  2.0319
  566MOL0     H74683   8.308   1.578   1.784 -1.5443  1.6454 -1.8034
  566MOL0     H74684   8.444   1.859   1.768 -1.4516  0.8615 -0.2773
  566MOL0     H74685   8.325   1.811   1.662  1.5605  3.4118 -1.1199
  566MOL0     H74686   8.306   1.850   1.978 -3.9429  1.2420  1.3826
  566MOL0     H74687   8.201   1.746   1.885  1.2930 -2.3449 -0.7587
  566MOL0     H74688   8.144   1.945   1.742  0.8163 -0.3344 -0.5017
  566MOL0     H74689   8.253   2.046   1.839 -1.8994  0.1924  0.5780
  566MOL0     H74690   8.023   1.896   1.961  0.7199  0.2320  0.2979
  566MOL0     H74691   8.108   2.019   2.049  2.1295 -4.7103  1.1933
  566MOL0     H74692   7.910   2.137   1.955 -2.3444 -0.5532 -1.5271
  566MOL0     H74693   7.925   2.058   1.805 -1.7022 -1.7653  1.9565
  566MOL0     H74694   8.595   1.224   1.786  0.5790  3.6064 -3.1696
  566MOL0     H74695   8.629   0.963   1.777  1.2468 -1.3921 -1.9863
  566MOL0     H74696   8.216   0.495   1.603 -0.4746  1.2986  1.0769
  566MOL0     H74697   8.257   0.266   1.633 -0.7871 -0.1903 -0.5836
  566MOL0     H74698   8.069  -0.331   2.017  1.6687  0.6611 -0.9669
  566MOL0     H74699   8.122  -0.242   1.797 -1.0564 -2.0725 -0.5816
  566MOL0     H74700   7.889  -0.072   1.425  2.1209 -0.6495 -1.3026
  566MOL0     H74701   7.834   0.038   1.230  1.3838 -3.1007  0.4222
  566MOL0     H74702   7.693   0.249   1.104 -1.1545 -1.8111 -2.2198
  566MOL0     H74703   7.835   0.152   1.037  2.1593  0.9543  2.0303
  566MOL0     H74704   7.911   0.331   0.904 -0.2525  0.9295 -1.5421
  566MOL0     H74705   7.734   0.320   0.876 -2.9677 -1.1261  3.2019
  566MOL0     H74706   7.736   0.499   1.067 -2.6204  0.1503 -1.7856
  566MOL0     H74707   7.723   0.533   0.900 -2.6463  0.0914  2.0020
  566MOL0     H74708   7.903   0.677   1.009  0.2451 -0.3780  1.4394
  566MOL0     H74709   7.997   0.539   1.032  3.2608  5.4125 -0.9667
  566MOL0     H74710   7.981   0.598   0.588 -2.7953 -0.1927 -1.4760
  566MOL0     H74711   7.979   0.409   1.377  0.2909 -0.3694 -0.1294
  566MOL0     H74712   8.057   0.304   1.575 -2.1179 -0.0403  0.1360
  567MOL0     O74713   0.771  10.056   0.851  0.2950 -0.0438  0.2713
  567MOL0     C74714   0.880  10.111   0.882  0.0214  0.7548 -0.0270
  567MOL0     O74715   1.004  10.054   0.894  0.3125  0.4864  0.3111
  567MOL0     C74716   1.028   9.925   0.839  0.0577  0.0623 -0.9166
  567MOL0     C74717   0.945   9.820   0.876 -0.0524 -1.3804 -0.2492
  567MOL0     C74718   0.952   9.694   0.814 -0.9562  0.2795 -0.3430
  567MOL0     C74719   1.051   9.674   0.712  0.6690 -0.0132  0.2130
  567MOL0     O74720   1.046   9.562   0.641  0.3836  0.6343  0.1747
  567MOL0     C74721   1.116   9.445   0.687 -0.9309 -0.3532 -0.1756
  567MOL0     C74722   1.032   9.322   0.674  0.5077  0.0789 -0.4119
  567MOL0     C74723   1.102   9.185   0.700  1.0673  0.4942  0.2471
  567MOL0     C74724   1.008   9.063   0.673  0.4399 -0.4573 -0.0044
  567MOL0     C74725   1.030   9.015   0.520  0.0680  0.4676 -1.3513
  567MOL0     C74726   0.941   8.901   0.506 -0.2166 -0.2665  1.1287
  567MOL0     C74727   0.790   8.934   0.493  0.2192 -0.1638 -0.5751
  567MOL0     C74728   0.703   8.912   0.617 -0.9018  1.1394 -0.1176
  567MOL0     N74729   0.559   8.913   0.613  0.0769 -0.3814  0.0866
  567MOL0     C74730   0.466   8.823   0.665  0.2251  1.0753 -0.1190
  567MOL0     C74731   0.336   8.864   0.644 -0.6433  0.2628 -0.9747
  567MOL0     C74732   0.219   8.778   0.685  0.3696 -0.0718 -0.1450
  567MOL0     C74733   0.126   8.834   0.785 -0.4874  0.1110 -0.5198
  567MOL0     C74734   0.001   8.753   0.796  1.3096  0.2933  0.5483
  567MOL0     C74735  -0.112   8.800   0.896 -0.0091  0.3172  1.0923
  567MOL0     O74736  -0.065   8.802   1.026 -0.1070 -0.0627 -0.3867
  567MOL0     C74737  -0.162   8.841   1.119 -0.1320  0.0030  0.5857
  567MOL0     C74738  -0.288   8.893   1.084  0.0111  0.0211  0.8126
  567MOL0     C74739  -0.371   8.933   1.191  0.1553  0.4816 -0.6968
  567MOL0     C74740  -0.345   8.909   1.328 -0.1659 -0.6233  0.7622
  567MOL0     C74741  -0.431   8.957   1.436 -0.6030  0.0951  0.2483
  567MOL0     O74742  -0.379   8.949   1.567  0.1219 -0.3328 -0.0403
  567MOL0     C74743  -0.447   8.928   1.679  0.5995  0.4873  0.2466
  567MOL0     C74744  -0.393   8.979   1.793 -0.1616 -0.8300 -0.1010
  567MOL0     C74745  -0.456   8.962   1.917  0.1125 -0.2714  0.9492
  567MOL0     C74746  -0.577   8.890   1.931 -0.9310  0.3392 -0.2327
  567MOL0     O74747  -0.632   8.884   2.058 -0.5597  0.1371  0.1812
  567MOL0     C74748  -0.551   8.859   2.168 -0.1582 -0.3238 -0.0926
  567MOL0     C74749  -0.629   8.812   2.282 -0.6184  0.4097 -0.0979
  567MOL0     C74750  -0.705   8.676   2.243  0.3466  1.1945  0.2161
  567MOL0     C74751  -0.809   8.629   2.347 -1.1658 -0.5693 -0.3158
  567MOL0     C74752  -0.836   8.478   2.349  0.4548 -0.1291 -0.2305
  567MOL0     C74753  -0.971   8.456   2.419  0.1149 -0.1274  0.6802
  567MOL0     C74754  -1.019   8.307   2.435 -0.8255 -0.9903 -0.0846
  567MOL0     C74755  -1.167   8.305   2.422  0.0263 -0.2343  0.5850
  567MOL0    Cl74756  -1.256   8.423   2.535  0.4486 -0.3316 -0.4170
  567MOL0     C74757  -0.641   8.842   1.810 -0.3770  0.0577  1.2851
  567MOL0     C74758  -0.568   8.856   1.679  0.6716 -0.4285 -0.1120
  567MOL0     O74759  -0.551   8.984   1.414 -0.4263 -0.1436  0.3826
  567MOL0     C74760  -0.222   8.846   1.354  1.7151  0.1065 -0.7724
  567MOL0     C74761  -0.130   8.821   1.258  1.1645  0.1690  0.6766
  567MOL0     N74762   0.346   8.981   0.565  0.5000  0.5514 -0.7322
  567MOL0     N74763   0.477   9.013   0.559  0.2749  0.4729  0.1650
  567MOL0     C74764   1.124   9.782   0.669  0.6295 -0.1273 -0.0765
  567MOL0     C74765   1.116   9.905   0.734  0.8334  1.0795  0.1997
  567MOL0     C74766   0.874  10.251   0.933 -0.3906  0.0672  0.3998
  567MOL0     C74767   0.991  10.327   0.962 -0.1094 -0.4965  0.1726
  567MOL0     C74768   0.988  10.465   0.981  0.2366  0.1909  0.3646
  567MOL0     C74769   0.871  10.538   0.977 -0.8106  0.5368 -0.2604
  567MOL0     O74770   0.872  10.670   1.040 -0.0687 -0.4461  0.2206
  567MOL0     C74771   0.764  10.759   1.001 -0.4249 -0.3513 -0.7551
  567MOL0     C74772   0.795  10.898   1.049  0.0266 -0.5415 -0.8635
  567MOL0     C74773   0.768  10.916   1.203 -0.8426 -0.0140  0.0274
  567MOL0     C74774   0.806  11.060   1.241  0.0476  0.0072 -0.8762
  567MOL0     C74775   0.757  11.080   1.378  0.2816  0.1547  0.1426
  567MOL0     C74776   0.699  11.084   1.484 -0.5784 -0.2866  0.4282
  567MOL0     C74777   0.762  10.467   0.936  1.3410 -0.7316 -0.0803
  567MOL0     C74778   0.762  10.329   0.912  0.3167 -0.1386 -0.0434
  567MOL0     H74779   0.878   9.829   0.961  1.2782  1.4636  0.5780
  567MOL0     H74780   0.889   9.607   0.829 -0.4130 -0.9201 -4.0257
  567MOL0     H74781   1.146   9.450   0.792  0.4624  0.6559 -0.5939
  567MOL0     H74782   1.205   9.443   0.624 -0.8646  1.0211 -0.1660
  567MOL0     H74783   0.990   9.321   0.573  0.1140  1.9039 -0.3055
  567MOL0     H74784   0.956   9.339   0.751 -1.2777  1.6649 -2.3993
  567MOL0     H74785   1.143   9.182   0.802 -0.9434  1.1637  1.1174
  567MOL0     H74786   1.195   9.173   0.643  3.0388 -1.7805  3.5950
  567MOL0     H74787   1.039   8.981   0.739  1.7740 -0.3457 -0.4771
  567MOL0     H74788   0.907   9.102   0.687  0.1615  0.3083 -3.2870
  567MOL0     H74789   1.131   8.978   0.502  0.6839  1.3475  0.1560
  567MOL0     H74790   1.006   9.098   0.454 -0.7694  2.0506  0.8253
  567MOL0     H74791   0.964   8.834   0.589  1.3756  0.6317  1.4453
  567MOL0     H74792   0.972   8.867   0.407 -1.0426  1.8352  0.0658
  567MOL0     H74793   0.779   9.040   0.467 -2.2597  0.0020  0.8182
  567MOL0     H74794   0.756   8.874   0.408  1.6047  1.4329 -2.3413
  567MOL0     H74795   0.729   8.992   0.688 -0.6878  0.0723  1.0349
  567MOL0     H74796   0.734   8.818   0.664 -2.2220  1.4304  1.3969
  567MOL0     H74797   0.490   8.734   0.722  3.0312  1.5800 -0.3311
  567MOL0     H74798   0.258   8.677   0.704  1.4150  0.1240 -1.1605
  567MOL0     H74799   0.165   8.777   0.590  1.5934  4.3930 -1.1391
  567MOL0     H74800   0.105   8.937   0.757  1.6438  1.0503  1.1158
  567MOL0     H74801   0.170   8.826   0.885 -1.2320  0.5431 -0.1440
  567MOL0     H74802  -0.042   8.738   0.696  1.8103  0.9515  0.2307
  567MOL0     H74803   0.033   8.658   0.839 -3.6259 -1.6909  0.5799
  567MOL0     H74804  -0.197   8.735   0.872 -0.2517  1.2748 -0.7981
  567MOL0     H74805  -0.145   8.901   0.869 -2.3047 -0.4255  0.8994
  567MOL0     H74806  -0.329   8.918   0.987 -1.8485 -2.4863  0.8508
  567MOL0     H74807  -0.458   8.989   1.158  0.0755  0.4481 -0.5455
  567MOL0     H74808  -0.298   9.029   1.780  0.0205 -0.1103  3.2195
  567MOL0     H74809  -0.392   8.990   2.000  3.9032 -3.7704 -0.4287
  567MOL0     H74810  -0.503   8.953   2.196 -2.6165  0.0131  3.7675
  567MOL0     H74811  -0.479   8.780   2.147  1.8188  1.6945 -1.4364
  567MOL0     H74812  -0.699   8.892   2.305  1.3507  3.0651 -2.6392
  567MOL0     H74813  -0.564   8.790   2.367  2.3833  0.4206 -2.2074
  567MOL0     H74814  -0.637   8.591   2.236  0.2952  1.1573  0.1657
  567MOL0     H74815  -0.742   8.681   2.140  1.5844 -1.8844 -0.4834
  567MOL0     H74816  -0.790   8.672   2.445 -2.9493  1.1811 -0.6777
  567MOL0     H74817  -0.899   8.676   2.305  0.5564  0.1229 -3.6239
  567MOL0     H74818  -0.757   8.437   2.412 -1.0168 -2.8659 -0.0175
  567MOL0     H74819  -0.838   8.423   2.254 -2.2958 -2.1239  0.8893
  567MOL0     H74820  -1.041   8.508   2.353  1.2752 -1.6524 -1.9026
  567MOL0     H74821  -0.977   8.508   2.515 -0.1452 -3.2475  2.4875
  567MOL0     H74822  -0.979   8.234   2.365  2.0697  0.3215  0.0709
  567MOL0     H74823  -0.978   8.287   2.534 -0.7947 -0.2794  0.0552
  567MOL0     H74824  -1.199   8.202   2.441 -5.5557  0.0707 -4.3098
  567MOL0     H74825  -1.200   8.329   2.321 -2.3615 -3.1159  0.5576
  567MOL0     H74826  -0.726   8.776   1.823  2.0032 -3.1684  1.7394
  567MOL0     H74827  -0.604   8.828   1.581  2.5996  0.2508 -1.0786
  567MOL0     H74828  -0.195   8.829   1.458  0.4206  1.6571 -0.1315
  567MOL0     H74829  -0.037   8.783   1.300  0.6543  1.0316  2.7390
  567MOL0     H74830   1.183   9.779   0.578  1.8104  1.6903  0.5811
  567MOL0     H74831   1.168   9.990   0.691  0.1878  0.6040 -1.5882
  567MOL0     H74832   1.086  10.275   0.970 -1.0229 -2.4055 -0.8068
  567MOL0     H74833   1.073  10.522   1.018  1.3085 -0.2890 -1.2410
  567MOL0     H74834   0.675  10.730   1.058  1.4968  0.6175  3.1487
  567MOL0     H74835   0.750  10.754   0.893  2.4376 -4.0686 -1.1402
  567MOL0     H74836   0.901  10.912   1.030  0.0710 -0.6684 -0.7146
  567MOL0     H74837   0.736  10.964   0.984  0.9201  0.5629 -0.5756
  567MOL0     H74838   0.826  10.841   1.257 -0.5327 -2.1052 -2.9249
  567MOL0     H74839   0.661  10.899   1.216 -1.2533 -2.2862 -4.3119
  567MOL0     H74840   0.911  11.092   1.236  0.4310 -0.0324  3.3784
  567MOL0     H74841   0.741  11.117   1.174 -4.4124 -2.0599  1.2283
  567MOL0     H74842   0.655  11.106   1.579 -0.0398 -1.5325  0.9945
  567MOL0     H74843   0.671  10.525   0.928  0.8598 -1.1206  1.9845
  567MOL0     H74844   0.671  10.284   0.874  0.4211 -1.4843  1.2057
  568MOL0     O74845   1.289   1.821   8.138  0.8402  0.4343 -0.1017
  568MOL0     C74846   1.238   1.875   8.035  0.2762  0.5203 -0.3916
  568MOL0     O74847   1.215   1.820   7.915  0.3406  0.4519  0.4200
  568MOL0     C74848   1.276   1.696   7.877  0.5366 -0.5912 -0.4345
  568MOL0     C74849   1.416   1.691   7.861 -0.3673 -0.1938 -0.1933
  568MOL0     C74850   1.474   1.569   7.827 -0.1685  0.4596  0.9344
  568MOL0     C74851   1.400   1.448   7.815 -0.1354  0.0295  0.2818
  568MOL0     O74852   1.470   1.331   7.800  0.1760 -0.2481 -0.1380
  568MOL0     C74853   1.408   1.207   7.825  0.1062  0.5751 -0.1075
  568MOL0     C74854   1.505   1.094   7.809 -1.3803  0.0282  1.0739
  568MOL0     C74855   1.510   1.043   7.657 -0.1578  0.7980  0.7902
  568MOL0     C74856   1.507   1.159   7.537  0.0737 -0.8512  0.0356
  568MOL0     C74857   1.494   1.110   7.395 -0.5279 -0.6735 -0.0574
  568MOL0     C74858   1.464   1.226   7.296  0.8941 -0.2138  0.5393
  568MOL0     C74859   1.310   1.250   7.304  0.3414 -0.7820 -0.0118
  568MOL0     C74860   1.277   1.386   7.245  0.5969 -0.0255  0.9629
  568MOL0     N74861   1.138   1.431   7.264 -0.0896  0.7319  0.3433
  568MOL0     C74862   1.041   1.362   7.326 -0.6300 -0.3023 -0.2356
  568MOL0     C74863   0.925   1.426   7.305 -0.4485 -0.1320 -0.1879
  568MOL0     C74864   0.784   1.376   7.332  0.2325 -0.3919 -0.9678
  568MOL0     C74865   0.700   1.374   7.197  0.0186  0.9320 -0.1057
  568MOL0     C74866   0.721   1.252   7.110 -0.7734 -0.4276  0.1754
  568MOL0     C74867   0.854   1.273   7.027 -0.2877 -0.4360 -0.2286
  568MOL0     O74868   0.956   1.185   7.077 -0.2477 -0.0870  0.1327
  568MOL0     C74869   1.081   1.187   7.015  0.4484  0.1235  0.0583
  568MOL0     C74870   1.164   1.075   7.014  0.2215  0.0115  0.8895
  568MOL0     C74871   1.288   1.086   6.964 -0.8494 -0.1919  0.5663
  568MOL0     C74872   1.339   1.205   6.900 -0.0880  0.0750  0.9349
  568MOL0     C74873   1.467   1.216   6.829 -0.8677  0.4454 -0.7506
  568MOL0     O74874   1.540   1.102   6.833  0.2392 -0.1302  0.2138
  568MOL0     C74875   1.667   1.083   6.778 -0.5754 -0.3193 -0.2282
  568MOL0     C74876   1.698   0.964   6.709 -0.7037  0.3898 -0.0305
  568MOL0     C74877   1.832   0.940   6.674 -1.0411  0.3876 -0.1328
  568MOL0     C74878   1.934   1.037   6.693  1.1913 -0.5950  1.3548
  568MOL0     O74879   2.061   1.013   6.652 -0.3194 -0.6681  0.1420
  568MOL0     C74880   2.168   1.094   6.702 -0.3354  0.2153  0.2889
  568MOL0     C74881   2.283   0.996   6.718  1.1308 -0.4645  0.6753
  568MOL0     C74882   2.242   0.887   6.815 -0.5936  0.5206  0.1041
  568MOL0     C74883   2.357   0.788   6.827 -0.5695 -0.4082 -0.8875
  568MOL0     C74884   2.316   0.659   6.892 -0.1995 -0.3427 -0.0313
  568MOL0     C74885   2.308   0.651   7.045  0.4137  0.5893 -0.5808
  568MOL0     C74886   2.326   0.503   7.105  0.2992 -0.4311  0.8437
  568MOL0     C74887   2.351   0.503   7.252  0.3572  0.1597  0.2479
  568MOL0    Cl74888   2.228   0.601   7.338 -0.1772  0.2726 -0.2215
  568MOL0     C74889   1.892   1.158   6.747 -0.1357 -1.1289 -0.3228
  568MOL0     C74890   1.765   1.185   6.802 -0.6163  0.8661  0.0010
  568MOL0     O74891   1.498   1.316   6.761 -0.3600 -1.1571  0.1825
  568MOL0     C74892   1.253   1.314   6.880  0.5112  0.1000 -0.2505
  568MOL0     C74893   1.122   1.298   6.936  0.5799  0.0647  0.9188
  568MOL0     N74894   0.965   1.541   7.246 -0.5682 -1.0861  0.1864
  568MOL0     N74895   1.088   1.544   7.215  0.3170  0.1707  0.3126
  568MOL0     C74896   1.259   1.465   7.814 -0.0359 -0.4062 -0.2543
  568MOL0     C74897   1.199   1.586   7.844 -0.4776 -0.7493 -0.0434
  568MOL0     C74898   1.209   2.026   8.045 -0.3732  0.4718 -0.2925
  568MOL0     C74899   1.299   2.119   8.110 -0.4263 -0.0354  0.1756
  568MOL0     C74900   1.276   2.256   8.104 -0.0356 -0.5225 -0.4053
  568MOL0     C74901   1.160   2.300   8.034 -0.8809 -0.6579 -0.0880
  568MOL0     O74902   1.147   2.441   8.041 -0.2014 -0.5032 -0.2941
  568MOL0     C74903   1.041   2.495   7.962  0.0276 -0.9653  0.2166
  568MOL0     C74904   0.918   2.518   8.055 -0.1202 -1.0779 -0.6347
  568MOL0     C74905   0.947   2.625   8.172 -0.3774  0.7393 -0.1512
  568MOL0     C74906   0.833   2.647   8.276 -0.8107 -0.3124 -0.1112
  568MOL0     C74907   0.853   2.524   8.362  0.3732  0.4757  0.5348
  568MOL0     C74908   0.863   2.425   8.423 -0.2449 -0.3706  0.9103
  568MOL0     C74909   1.074   2.208   7.970 -0.2299  0.0754  0.0106
  568MOL0     C74910   1.090   2.070   7.982 -1.1836 -0.5195 -0.0789
  568MOL0     H74911   1.477   1.781   7.867 -0.5121  0.1463 -2.8058
  568MOL0     H74912   1.583   1.565   7.830 -0.1878 -1.3659  0.6501
  568MOL0     H74913   1.313   1.191   7.773 -0.0938 -1.2228  0.7284
  568MOL0     H74914   1.386   1.205   7.932 -3.6971 -0.2227 -0.7759
  568MOL0     H74915   1.480   1.012   7.877  0.8179 -2.5996 -1.0971
  568MOL0     H74916   1.608   1.126   7.828 -1.1723  1.2900 -1.6503
  568MOL0     H74917   1.422   0.981   7.637  1.7737 -1.0045 -3.5279
  568MOL0     H74918   1.591   0.971   7.643  0.0783  0.6145  2.8047
  568MOL0     H74919   1.422   1.225   7.557 -1.3063 -2.2093 -1.0780
  568MOL0     H74920   1.597   1.220   7.550  1.1187 -2.9423  5.0263
  568MOL0     H74921   1.407   1.043   7.403 -1.9699  1.2071  0.8379
  568MOL0     H74922   1.588   1.064   7.364  0.8198  2.4300 -1.0081
  568MOL0     H74923   1.492   1.189   7.197  0.0731 -0.5578  0.4279
  568MOL0     H74924   1.521   1.316   7.323 -1.3326  0.4752  3.4445
  568MOL0     H74925   1.260   1.167   7.254  1.3997 -1.6056  0.2655
  568MOL0     H74926   1.278   1.244   7.408 -2.3763 -1.3510 -0.8143
  568MOL0     H74927   1.314   1.386   7.143  1.4462  4.3697  1.0774
  568MOL0     H74928   1.332   1.471   7.286 -0.0615  1.2664 -0.7183
  568MOL0     H74929   1.062   1.267   7.374  0.8684  1.9792  4.2103
  568MOL0     H74930   0.741   1.444   7.407  2.0079 -2.4316  2.1072
  568MOL0     H74931   0.810   1.279   7.374  1.0969  0.0340 -0.4811
  568MOL0     H74932   0.709   1.469   7.143  3.9521  0.6738 -0.1635
  568MOL0     H74933   0.595   1.364   7.227  0.4640 -2.5608  0.7285
  568MOL0     H74934   0.714   1.160   7.170 -2.7010 -0.2666  0.2484
  568MOL0     H74935   0.642   1.256   7.035  1.9757 -0.1043 -2.8958
  568MOL0     H74936   0.882   1.379   7.029  3.2001 -1.1698 -2.5056
  568MOL0     H74937   0.842   1.240   6.924 -0.9268 -1.4694  0.1587
  568MOL0     H74938   1.134   0.979   7.054  1.9073  0.1497  2.6177
  568MOL0     H74939   1.343   0.994   6.953  0.0262  0.5919 -2.5357
  568MOL0     H74940   1.621   0.890   6.687  0.1777 -1.1482  1.7815
  568MOL0     H74941   1.855   0.842   6.633  3.9095  0.3600  1.9532
  568MOL0     H74942   2.146   1.131   6.802 -2.2306  1.8439 -0.6549
  568MOL0     H74943   2.185   1.180   6.637  0.9138 -0.6274 -0.5362
  568MOL0     H74944   2.372   1.051   6.748  0.8455  0.3703  0.0246
  568MOL0     H74945   2.315   0.960   6.620  4.5490  0.6671  1.2590
  568MOL0     H74946   2.153   0.830   6.788 -0.8014 -0.0601  1.8876
  568MOL0     H74947   2.210   0.930   6.910 -0.5730 -2.1096  1.3900
  568MOL0     H74948   2.412   0.759   6.736  2.8548 -0.0928  0.9023
  568MOL0     H74949   2.434   0.838   6.887 -2.8883  0.0578  1.9098
  568MOL0     H74950   2.398   0.589   6.875  1.8405  1.4036  2.0315
  568MOL0     H74951   2.230   0.616   6.839 -0.7194 -0.1080  0.6026
  568MOL0     H74952   2.210   0.688   7.077  0.7535  1.9434 -1.0542
  568MOL0     H74953   2.390   0.713   7.083  0.6863  0.5739 -1.1373
  568MOL0     H74954   2.233   0.453   7.074 -0.2075  1.0592 -0.1353
  568MOL0     H74955   2.408   0.450   7.056  2.2822  0.9513  2.5009
  568MOL0     H74956   2.446   0.554   7.266 -0.0489  1.5052 -1.4964
  568MOL0     H74957   2.353   0.404   7.298 -0.9504  0.1151  0.2548
  568MOL0     H74958   1.974   1.229   6.743  0.0524 -1.4170 -3.1682
  568MOL0     H74959   1.750   1.282   6.849  0.4697  0.8851  0.3469
  568MOL0     H74960   1.280   1.406   6.829  3.3554 -0.1863  0.5650
  568MOL0     H74961   1.058   1.386   6.931 -2.0108 -1.7776 -1.1408
  568MOL0     H74962   1.197   1.377   7.805 -3.4696  1.5488  2.0425
  568MOL0     H74963   1.092   1.587   7.864  0.0211 -2.7374  3.5297
  568MOL0     H74964   1.392   2.082   8.151 -0.0942  1.2734  0.6469
  568MOL0     H74965   1.342   2.326   8.153  0.5064 -0.7494 -0.8044
  568MOL0     H74966   1.025   2.443   7.867  2.4056  3.4805 -2.9666
  568MOL0     H74967   1.076   2.591   7.923  2.3721 -3.3042 -4.1877
  568MOL0     H74968   0.841   2.570   7.997 -0.7936  1.9472  2.6478
  568MOL0     H74969   0.880   2.423   8.093  0.4915 -1.3335 -0.6550
  568MOL0     H74970   0.971   2.728   8.142  0.5335  0.7496  0.5803
  568MOL0     H74971   1.037   2.594   8.225 -1.3138 -0.3554  0.8502
  568MOL0     H74972   0.846   2.737   8.336 -0.7555 -1.5947  1.9060
  568MOL0     H74973   0.740   2.646   8.219 -1.4847 -0.5834  0.9457
  568MOL0     H74974   0.873   2.340   8.488  1.7321  0.3335  1.5872
  568MOL0     H74975   0.986   2.237   7.913  1.0648  3.2118 -0.6449
  568MOL0     H74976   1.022   2.000   7.933 -1.7794 -1.4814  2.0003
  569MOL0     O74977   4.045   2.793   3.993 -0.4764 -0.0835 -0.3406
  569MOL0     C74978   4.143   2.862   3.978  0.3485 -1.0290 -0.5458
  569MOL0     O74979   4.145   3.001   3.984 -0.1312  0.6656 -0.9036
  569MOL0     C74980   4.099   3.035   4.111 -1.0361 -0.1817 -0.6374
  569MOL0     C74981   4.162   2.983   4.225 -0.6657 -0.4277  0.1728
  569MOL0     C74982   4.111   3.026   4.353 -1.1160  0.2561 -0.6969
  569MOL0     C74983   4.003   3.113   4.367  1.0106  0.4529  1.0232
  569MOL0     O74984   3.965   3.167   4.478 -0.2393  0.7384 -0.4708
  569MOL0     C74985   3.990   3.095   4.602  0.7744 -0.3639  0.8692
  569MOL0     C74986   3.887   3.146   4.718 -0.1386 -0.4256  0.7213
  569MOL0     C74987   3.973   3.216   4.821  0.2743 -0.4397  0.0660
  569MOL0     C74988   3.886   3.295   4.919 -1.7300  0.0391 -0.1748
  569MOL0     C74989   3.969   3.359   5.029  0.3539 -0.2492  0.3578
  569MOL0     C74990   3.882   3.399   5.153 -0.2541 -1.0919 -0.5296
  569MOL0     C74991   3.775   3.510   5.126 -0.0669 -0.1326 -0.5527
  569MOL0     C74992   3.686   3.526   5.247  1.2251  0.7985 -0.4728
  569MOL0     N74993   3.589   3.412   5.238  0.3408  0.4116 -0.0912
  569MOL0     C74994   3.555   3.321   5.332 -0.8530 -0.9507 -0.5071
  569MOL0     C74995   3.441   3.259   5.286 -0.9933  0.0764  0.3562
  569MOL0     C74996   3.360   3.154   5.365 -0.5909  0.0316  0.6288
  569MOL0     C74997   3.276   3.197   5.478  0.1587 -0.7682  0.7220
  569MOL0     C74998   3.354   3.221   5.607 -0.1434  0.7995  0.0454
  569MOL0     C74999   3.257   3.254   5.722  0.1738 -0.2927  0.7031
  569MOL0     O75000   3.337   3.261   5.835 -0.1505  0.2626 -0.1036
  569MOL0     C75001   3.257   3.286   5.943 -0.2239  0.3652 -0.3173
  569MOL0     C75002   3.130   3.342   5.948 -0.7493  1.7808 -0.5138
  569MOL0     C75003   3.082   3.357   6.073  0.7345  1.0146  0.3228
  569MOL0     C75004   3.149   3.328   6.198  0.2769 -0.0986  0.2810
  569MOL0     C75005   3.073   3.333   6.320  0.5747  0.7094 -0.4705
  569MOL0     O75006   2.940   3.352   6.322  0.4456 -0.4760  0.3753
  569MOL0     C75007   2.870   3.336   6.442 -0.1445  0.4892 -0.3244
  569MOL0     C75008   2.854   3.431   6.529  1.4408 -1.3911  0.9214
  569MOL0     C75009   2.765   3.411   6.645  0.1557 -0.1175  0.2815
  569MOL0     C75010   2.733   3.284   6.680  0.3529 -0.7141 -0.1296
  569MOL0     O75011   2.676   3.247   6.803 -0.0787 -0.1361  0.1100
  569MOL0     C75012   2.564   3.149   6.801 -0.4344  0.4963  0.4950
  569MOL0     C75013   2.613   3.021   6.866 -0.3864  0.3432  0.0582
  569MOL0     C75014   2.652   3.030   7.018 -0.7758  0.6386 -0.9522
  569MOL0     C75015   2.535   3.034   7.116 -0.7026 -0.0217  0.1469
  569MOL0     C75016   2.573   3.100   7.253  0.1152 -0.2965 -0.3614
  569MOL0     C75017   2.664   3.022   7.346  0.0707 -0.8372 -0.6216
  569MOL0     C75018   2.697   3.090   7.480 -0.0599 -0.7838 -0.3403
  569MOL0     C75019   2.782   3.005   7.571 -0.0725  0.5380  0.6417
  569MOL0    Cl75020   2.879   3.088   7.686 -0.1629  0.3645 -0.2755
  569MOL0     C75021   2.757   3.184   6.586  0.3223 -0.1865 -0.7764
  569MOL0     C75022   2.820   3.205   6.468 -0.3519 -0.6835 -0.3092
  569MOL0     O75023   3.142   3.320   6.415 -0.7031  0.3183  0.1941
  569MOL0     C75024   3.282   3.268   6.183  1.1970 -0.1791 -0.0372
  569MOL0     C75025   3.338   3.249   6.060 -0.0395 -0.2569  0.2965
  569MOL0     N75026   3.410   3.315   5.162  0.5514  0.1760 -0.4489
  569MOL0     N75027   3.492   3.413   5.140  0.2979 -0.3053  0.3096
  569MOL0     C75028   3.939   3.158   4.253  0.4513  0.1765  0.0208
  569MOL0     C75029   3.981   3.108   4.124  0.5694 -0.3447  0.0488
  569MOL0     C75030   4.254   2.788   3.907  0.1585  0.8772  0.7492
  569MOL0     C75031   4.234   2.654   3.859 -1.0553 -0.1569 -0.1782
  569MOL0     C75032   4.344   2.597   3.793  0.9628 -0.0904  0.2872
  569MOL0     C75033   4.463   2.667   3.756  0.3093  0.4004  0.4830
  569MOL0     O75034   4.553   2.600   3.677  0.0811  0.4509  0.6115
  569MOL0     C75035   4.675   2.662   3.641 -0.7356  1.0641  0.1178
  569MOL0     C75036   4.737   2.585   3.519  0.0724  0.0438 -0.1641
  569MOL0     C75037   4.848   2.675   3.445  0.1677  0.9394 -0.1095
  569MOL0     C75038   4.975   2.597   3.401  0.3349  0.1069 -0.0857
  569MOL0     C75039   5.046   2.574   3.527  0.0204 -0.2106 -0.0033
  569MOL0     C75040   5.098   2.556   3.632 -0.4064  0.6497 -0.1741
  569MOL0     C75041   4.475   2.798   3.801 -0.3605 -0.6660 -0.1663
  569MOL0     C75042   4.369   2.857   3.861  0.1993  0.5397  0.5118
  569MOL0     H75043   4.241   2.910   4.208 -1.6785 -1.4102 -0.4749
  569MOL0     H75044   4.162   2.998   4.445 -0.7035  1.5399 -0.5057
  569MOL0     H75045   4.094   3.110   4.630  0.7045  0.5438  0.6509
  569MOL0     H75046   3.970   2.988   4.590  0.4544 -0.4769  2.2570
  569MOL0     H75047   3.834   3.065   4.769  0.4826 -1.9528 -0.9397
  569MOL0     H75048   3.807   3.207   4.674 -0.0468 -0.7239  0.1238
  569MOL0     H75049   4.043   3.290   4.780  0.5331  0.8221  2.5531
  569MOL0     H75050   4.030   3.142   4.878 -0.6214 -0.1991  1.3090
  569MOL0     H75051   3.829   3.380   4.881 -0.5979  1.7574  1.7353
  569MOL0     H75052   3.819   3.218   4.960 -1.7195  1.2118  2.2194
  569MOL0     H75053   4.036   3.438   4.995  0.6385 -0.6721 -0.0725
  569MOL0     H75054   4.029   3.274   5.063 -1.8248 -1.6024  1.0602
  569MOL0     H75055   3.945   3.443   5.231 -0.4797  0.3563 -1.1337
  569MOL0     H75056   3.826   3.311   5.185  1.3508 -1.2874  2.0439
  569MOL0     H75057   3.843   3.595   5.111  0.8062 -0.8465 -0.6789
  569MOL0     H75058   3.720   3.500   5.032  1.3023  0.8615 -1.5082
  569MOL0     H75059   3.639   3.624   5.231 -1.4408 -0.3164 -0.1165
  569MOL0     H75060   3.730   3.519   5.346 -1.2462 -1.3763  0.6051
  569MOL0     H75061   3.617   3.318   5.421 -1.6703 -0.5947  0.0884
  569MOL0     H75062   3.411   3.062   5.395 -0.1895  0.3454  0.9135
  569MOL0     H75063   3.277   3.120   5.302 -0.4679 -0.1978  0.5885
  569MOL0     H75064   3.206   3.115   5.498  0.4276 -0.5694  2.6965
  569MOL0     H75065   3.213   3.284   5.457  0.4496 -0.9196 -0.8438
  569MOL0     H75066   3.396   3.121   5.620 -2.9399 -0.4745 -0.1146
  569MOL0     H75067   3.438   3.292   5.612 -0.4918  1.1392  3.4007
  569MOL0     H75068   3.174   3.184   5.733 -1.2957  0.9032 -1.8059
  569MOL0     H75069   3.211   3.352   5.703 -0.7449 -0.5491  1.5132
  569MOL0     H75070   3.079   3.370   5.856  0.0796  2.4051 -0.7942
  569MOL0     H75071   2.978   3.384   6.082  0.3740 -0.4082  0.6610
  569MOL0     H75072   2.899   3.524   6.496 -1.7687  0.7110  1.9703
  569MOL0     H75073   2.742   3.492   6.713  1.4437  2.8609 -2.6105
  569MOL0     H75074   2.521   3.131   6.703 -1.1181  1.6763  0.5536
  569MOL0     H75075   2.476   3.194   6.848  0.3099  4.3080 -1.3672
  569MOL0     H75076   2.694   2.980   6.805  0.1656  0.5578  0.6339
  569MOL0     H75077   2.532   2.947   6.857 -1.8768  2.0464 -1.2763
  569MOL0     H75078   2.722   3.110   7.041  1.3385 -1.0403 -1.1862
  569MOL0     H75079   2.708   2.941   7.048  2.8409  3.6540  2.2955
  569MOL0     H75080   2.451   3.085   7.066 -0.0455  2.5207  1.4947
  569MOL0     H75081   2.501   2.933   7.139  0.1976 -0.4039 -0.1619
  569MOL0     H75082   2.478   3.100   7.306  0.6817 -1.3128  0.6847
  569MOL0     H75083   2.607   3.202   7.231  2.2332 -0.9718 -0.5121
  569MOL0     H75084   2.756   3.002   7.290 -0.3003 -1.7942 -0.8962
  569MOL0     H75085   2.616   2.927   7.371  0.4143 -0.4762  1.6358
  569MOL0     H75086   2.764   3.175   7.464  1.2037 -0.5476  4.7429
  569MOL0     H75087   2.604   3.118   7.530 -0.5600  0.8112 -2.0230
  569MOL0     H75088   2.851   2.943   7.512  0.4534  1.1875  0.5622
  569MOL0     H75089   2.715   2.928   7.611  1.8543 -1.4455  0.2577
  569MOL0     H75090   2.733   3.078   6.588 -0.5109  0.0089  0.5033
  569MOL0     H75091   2.838   3.119   6.404 -0.4626 -0.5363 -0.5396
  569MOL0     H75092   3.345   3.258   6.271  4.4742  0.1096 -2.1826
  569MOL0     H75093   3.436   3.204   6.053 -0.1658 -0.7501  1.4409
  569MOL0     H75094   3.857   3.229   4.244  1.8734  2.6976  4.0274
  569MOL0     H75095   3.942   3.136   4.027  1.1632 -0.9507 -0.3676
  569MOL0     H75096   4.148   2.589   3.876 -1.0336  0.5054  3.1907
  569MOL0     H75097   4.331   2.492   3.766  1.5581 -0.0839 -0.0357
  569MOL0     H75098   4.748   2.661   3.722 -0.8442  2.0748  0.2400
  569MOL0     H75099   4.675   2.763   3.599  0.5788  0.8383 -0.4886
  569MOL0     H75100   4.763   2.480   3.536 -1.9260 -0.2139  1.6386
  569MOL0     H75101   4.651   2.565   3.455  0.0357 -1.5057  0.3224
  569MOL0     H75102   4.858   2.757   3.516 -3.0737  0.3188  1.2516
  569MOL0     H75103   4.810   2.715   3.350  2.3996  1.9673 -0.6454
  569MOL0     H75104   4.957   2.508   3.340 -0.4228  0.6436 -0.6638
  569MOL0     H75105   5.040   2.652   3.331  0.6060 -1.3568 -1.0187
  569MOL0     H75106   5.149   2.538   3.725  2.4613 -0.5442 -1.8420
  569MOL0     H75107   4.559   2.858   3.767 -1.9638  1.5270 -0.4912
  569MOL0     H75108   4.386   2.963   3.881 -0.4264  0.1796  3.3037
  570MOL0     O75109   7.437   0.165   0.706 -0.0291  0.1422  1.0715
  570MOL0     C75110   7.437   0.245   0.802  0.7778  0.7932 -0.2797
  570MOL0     O75111   7.471   0.376   0.809  0.3171  0.5058  0.1035
  570MOL0     C75112   7.543   0.439   0.710  0.7732  0.0212  0.5067
  570MOL0     C75113   7.633   0.382   0.616 -0.2632  1.1309 -0.5766
  570MOL0     C75114   7.697   0.463   0.527  0.1597 -0.3844 -0.0981
  570MOL0     C75115   7.680   0.605   0.529  0.9458 -0.5001  0.5668
  570MOL0     O75116   7.750   0.686   0.437  0.0869 -0.1794 -0.5468
  570MOL0     C75117   7.661   0.756   0.354  0.4091  0.2610 -0.5972
  570MOL0     C75118   7.731   0.878   0.289 -0.7654  0.6109 -0.1145
  570MOL0     C75119   7.876   0.843   0.234 -0.5087 -0.4575  0.2600
  570MOL0     C75120   7.876   0.745   0.121  0.4084 -0.1536  0.8079
  570MOL0     C75121   8.001   0.769   0.029 -0.6948 -0.0009  0.4021
  570MOL0     C75122   7.998   0.675  -0.099 -0.1403  0.3235  0.4544
  570MOL0     C75123   8.017   0.525  -0.055  0.8702  0.9635  0.3033
  570MOL0     C75124   8.001   0.427  -0.180  0.2196 -0.0891  0.1490
  570MOL0     N75125   8.004   0.280  -0.133  0.8552 -0.5152 -0.6097
  570MOL0     C75126   7.914   0.221  -0.054  0.1121 -0.8678  0.0137
  570MOL0     C75127   7.972   0.105  -0.002 -0.1215  0.0903 -0.0545
  570MOL0     C75128   7.908   0.016   0.104 -0.4709  0.0603  0.4562
  570MOL0     C75129   7.938   0.064   0.248  0.1677  0.0687  0.1061
  570MOL0     C75130   7.823   0.143   0.318  0.4692  0.1660  0.1200
  570MOL0     C75131   7.693   0.072   0.372 -0.3722  0.1293 -0.2270
  570MOL0     O75132   7.608   0.042   0.261  0.3009  0.6603 -0.7143
  570MOL0     C75133   7.478   0.050   0.295 -0.2338 -0.5099  0.9940
  570MOL0     C75134   7.431   0.179   0.319  0.2450 -0.0528 -0.1213
  570MOL0     C75135   7.288   0.195   0.327  0.5471 -0.0927 -0.4933
  570MOL0     C75136   7.200   0.091   0.318  0.0457 -0.6047  0.2415
  570MOL0     C75137   7.060   0.095   0.324  0.1338 -0.6324  0.2494
  570MOL0     O75138   6.974  -0.013   0.338  0.0032 -0.2878 -0.0488
  570MOL0     C75139   6.843   0.012   0.357  0.5363  0.3357  0.1743
  570MOL0     C75140   6.796   0.099   0.453  0.0838  0.1238  0.3585
  570MOL0     C75141   6.660   0.117   0.481  0.2078 -0.8443 -0.3705
  570MOL0     C75142   6.562   0.058   0.402 -0.6443  0.3979 -1.2289
  570MOL0     O75143   6.422   0.088   0.414 -0.0598  0.0544  0.3762
  570MOL0     C75144   6.345   0.097   0.294  0.5358  0.7052  0.1286
  570MOL0     C75145   6.393   0.207   0.185 -0.0233 -0.0842  0.6409
  570MOL0     C75146   6.446   0.337   0.246  0.2438 -1.0713  1.3219
  570MOL0     C75147   6.375   0.391   0.355 -0.7117 -0.5237  0.5599
  570MOL0     C75148   6.428   0.525   0.427  1.0466  0.6205 -0.1555
  570MOL0     C75149   6.526   0.500   0.539 -0.5262  0.2067  0.2304
  570MOL0     C75150   6.578   0.634   0.586 -0.2375  1.1462  1.0762
  570MOL0     C75151   6.656   0.623   0.718 -0.5832  0.9356  0.1803
  570MOL0    Cl75152   6.751   0.764   0.751 -0.1754  0.4707 -0.3187
  570MOL0     C75153   6.609  -0.033   0.311 -0.3150  0.0083  0.0363
  570MOL0     C75154   6.743  -0.076   0.305 -0.4810 -0.4229 -0.1836
  570MOL0     O75155   7.018   0.213   0.324  0.2243  0.1044  0.5681
  570MOL0     C75156   7.254  -0.040   0.286  0.4045  0.2305 -0.3300
  570MOL0     C75157   7.395  -0.060   0.275  1.3406  0.2904 -0.7555
  570MOL0     N75158   8.101   0.100  -0.061  0.5540  0.6310 -1.0785
  570MOL0     N75159   8.111   0.203  -0.136  0.8249 -0.5645  0.3044
  570MOL0     C75160   7.583   0.647   0.622  0.7384  0.2002  0.3957
  570MOL0     C75161   7.515   0.572   0.715 -0.2229  0.8253  0.1974
  570MOL0     C75162   7.415   0.171   0.928 -0.2270  0.6547  0.1926
  570MOL0     C75163   7.425   0.238   1.047 -0.6138 -0.0071 -0.6836
  570MOL0     C75164   7.403   0.167   1.164 -0.5789 -0.5840 -0.5652
  570MOL0     C75165   7.381   0.029   1.180 -0.2073  0.3187  0.7440
  570MOL0     O75166   7.351  -0.034   1.295  0.1953  0.4812  0.2668
  570MOL0     C75167   7.414   0.017   1.409 -0.6942  0.3868  0.1701
  570MOL0     C75168   7.393  -0.084   1.522 -0.7072 -0.8493  0.1618
  570MOL0     C75169   7.455  -0.050   1.662 -0.4990  0.6944 -0.1007
  570MOL0     C75170   7.528  -0.175   1.726 -0.3269  0.3057 -0.4578
  570MOL0     C75171   7.511  -0.177   1.877  0.6043  0.7687 -0.2154
  570MOL0     C75172   7.476  -0.177   1.999  0.4417 -0.7664 -0.7583
  570MOL0     C75173   7.375  -0.045   1.059 -0.3745  0.4788  0.2753
  570MOL0     C75174   7.382   0.031   0.942  0.1667 -0.0865  0.2215
  570MOL0     H75175   7.652   0.275   0.615 -1.2654  0.8902  1.2751
  570MOL0     H75176   7.767   0.418   0.458 -0.6109 -2.8659  0.6166
  570MOL0     H75177   7.578   0.796   0.412 -1.4263 -0.7843 -2.3566
  570MOL0     H75178   7.627   0.690   0.273 -0.6584  3.3635 -2.8643
  570MOL0     H75179   7.743   0.963   0.357 -0.7801  0.6143 -0.1163
  570MOL0     H75180   7.669   0.916   0.208  0.1089  1.8468 -0.2280
  570MOL0     H75181   7.927   0.780   0.307 -0.2819 -0.0235  0.4749
  570MOL0     H75182   7.930   0.934   0.206 -0.8223 -0.6466 -1.0134
  570MOL0     H75183   7.884   0.651   0.177  1.5059  0.0712  1.0433
  570MOL0     H75184   7.779   0.755   0.072 -1.5865  3.5760  4.8262
  570MOL0     H75185   8.085   0.738   0.092 -1.5292 -2.8128  0.2859
  570MOL0     H75186   8.008   0.874   0.000 -1.9562 -0.0046 -0.0022
  570MOL0     H75187   8.072   0.694  -0.176 -1.8237  1.0143 -1.0662
  570MOL0     H75188   7.899   0.688  -0.143  0.2864  2.0856 -0.0551
  570MOL0     H75189   8.114   0.536  -0.005  0.5196 -1.7849  1.7589
  570MOL0     H75190   7.940   0.500   0.019  1.8967 -2.1151  0.4810
  570MOL0     H75191   8.074   0.441  -0.260 -1.2923 -0.3245 -1.3357
  570MOL0     H75192   7.905   0.442  -0.230  0.1938 -0.3876  0.1086
  570MOL0     H75193   7.814   0.251  -0.024  0.9320  0.1192  1.9545
  570MOL0     H75194   7.963  -0.078   0.102 -0.8806 -0.5641  5.5398
  570MOL0     H75195   7.803  -0.012   0.093  0.4759 -2.8111 -3.0399
  570MOL0     H75196   8.034   0.116   0.248  0.8225 -0.8815 -3.3653
  570MOL0     H75197   7.946  -0.034   0.297 -0.9205 -0.7141 -1.2101
  570MOL0     H75198   7.876   0.187   0.402  0.3308  3.8200 -1.4918
  570MOL0     H75199   7.791   0.231   0.260 -0.5016  0.5752  1.2480
  570MOL0     H75200   7.641   0.134   0.445  0.9966  2.5407 -1.2167
  570MOL0     H75201   7.712  -0.027   0.417  1.6992  0.4052 -0.4082
  570MOL0     H75202   7.495   0.266   0.331  0.3532  0.2109 -2.2841
  570MOL0     H75203   7.258   0.295   0.359  0.4125 -0.7894  1.7445
  570MOL0     H75204   6.870   0.159   0.504 -0.8157  0.5696  1.1580
  570MOL0     H75205   6.616   0.173   0.563  0.0040  1.8573 -2.2190
  570MOL0     H75206   6.250   0.141   0.326  2.0903  2.2107  3.0781
  570MOL0     H75207   6.325   0.005   0.237 -0.8885  0.9421  0.2067
  570MOL0     H75208   6.313   0.241   0.119  2.3841  0.4152 -2.2031
  570MOL0     H75209   6.464   0.161   0.115  1.0690 -0.3383  1.8685
  570MOL0     H75210   6.467   0.407   0.165  1.0822 -0.2578  2.2145
  570MOL0     H75211   6.546   0.319   0.285  0.4573  1.0502  1.8883
  570MOL0     H75212   6.275   0.409   0.313 -0.3720 -0.1448 -0.1027
  570MOL0     H75213   6.360   0.314   0.431 -0.0939 -2.1610 -0.9075
  570MOL0     H75214   6.342   0.577   0.471  1.6533  3.5189 -2.0841
  570MOL0     H75215   6.471   0.574   0.339 -3.2685  1.2488 -2.1515
  570MOL0     H75216   6.613   0.440   0.511 -1.3760 -0.3667 -1.3736
  570MOL0     H75217   6.476   0.448   0.621 -1.4928  1.0289  0.1806
  570MOL0     H75218   6.653   0.675   0.517 -0.3299 -0.8686 -0.3233
  570MOL0     H75219   6.496   0.705   0.595 -1.2817 -0.0012  0.8710
  570MOL0     H75220   6.723   0.537   0.715 -0.6099  0.9372 -2.1365
  570MOL0     H75221   6.589   0.605   0.802 -0.4298  0.6152  0.2333
  570MOL0     H75222   6.541  -0.095   0.255 -1.1448  0.1015  0.9126
  570MOL0     H75223   6.770  -0.160   0.241 -1.8190 -2.1072  1.3631
  570MOL0     H75224   7.187  -0.125   0.272 -1.8900  2.0510 -1.0726
  570MOL0     H75225   7.418  -0.159   0.240  0.1784 -0.4628  0.4787
  570MOL0     H75226   7.568   0.754   0.633 -2.4190  0.0391 -1.1434
  570MOL0     H75227   7.470   0.613   0.805 -4.3535 -1.0061 -0.7584
  570MOL0     H75228   7.458   0.341   1.051 -1.7727  0.3438  0.4148
  570MOL0     H75229   7.413   0.231   1.251 -0.1401  2.3790 -2.6460
  570MOL0     H75230   7.370   0.113   1.439  1.8082  1.7149 -0.0899
  570MOL0     H75231   7.522   0.018   1.393 -0.7244 -0.6151 -0.1782
  570MOL0     H75232   7.286  -0.102   1.534 -0.9651  1.2276  1.7625
  570MOL0     H75233   7.443  -0.175   1.491  1.4709 -0.7814  3.0333
  570MOL0     H75234   7.374  -0.013   1.726  0.8206  2.3177  0.7033
  570MOL0     H75235   7.534   0.024   1.650  0.2661  0.2071  1.6803
  570MOL0     H75236   7.468  -0.260   1.692  0.2406  0.6326 -2.3768
  570MOL0     H75237   7.630  -0.189   1.690  0.4633  1.4040  1.2359
  570MOL0     H75238   7.451  -0.197   2.101  1.5698 -2.1133 -0.7195
  570MOL0     H75239   7.356  -0.152   1.051 -1.4462  0.5352  1.6557
  570MOL0     H75240   7.362  -0.027   0.853  2.7015 -1.1287  0.2459
  571MOL0     O75241  10.019   0.535   8.537  0.2438 -0.1832  0.2875
  571MOL0     C75242   9.900   0.499   8.517  0.2809 -0.2992  1.1421
  571MOL0     O75243   9.856   0.457   8.390  0.5823 -0.5086 -0.1203
  571MOL0     C75244   9.933   0.497   8.285 -0.2035 -0.3282  0.2997
  571MOL0     C75245  10.033   0.411   8.235  0.3500  0.5751 -0.2794
  571MOL0     C75246  10.087   0.440   8.112 -0.4000 -0.4267 -0.4973
  571MOL0     C75247  10.058   0.556   8.043  0.3033  0.0950 -0.1363
  571MOL0     O75248  10.131   0.578   7.922  0.9564 -0.3651 -1.3434
  571MOL0     C75249  10.077   0.667   7.822  0.7813 -0.5453  0.3518
  571MOL0     C75250  10.164   0.635   7.694  0.5662 -0.8650 -0.0942
  571MOL0     C75251  10.118   0.708   7.564  0.5676  0.0051 -0.0914
  571MOL0     C75252  10.206   0.687   7.441  0.6693 -0.3362  0.3318
  571MOL0     C75253  10.168   0.782   7.319  0.1216 -0.0125  0.0264
  571MOL0     C75254  10.035   0.750   7.252 -0.5934 -0.5212 -0.5977
  571MOL0     C75255  10.022   0.850   7.136 -0.1599 -0.0894  0.4399
  571MOL0     C75256   9.955   0.979   7.178  0.4160  0.9907 -0.3080
  571MOL0     N75257   9.887   1.045   7.065 -0.3953  0.7885  0.4463
  571MOL0     C75258   9.795   0.981   6.982  0.6812 -0.5861  0.7785
  571MOL0     C75259   9.807   1.038   6.864 -0.7368 -1.5976  0.6915
  571MOL0     C75260   9.743   1.011   6.734 -0.7697  0.4356 -0.3843
  571MOL0     C75261   9.819   1.055   6.606  0.0799 -0.6316 -1.1700
  571MOL0     C75262   9.728   1.031   6.482  0.3801 -1.0642 -0.1029
  571MOL0     C75263   9.760   1.125   6.363 -0.7449 -0.1894 -0.5772
  571MOL0     O75264   9.780   1.265   6.395  0.5254  0.1109 -0.5221
  571MOL0     C75265   9.668   1.338   6.431 -0.0684 -0.8563 -0.8596
  571MOL0     C75266   9.529   1.310   6.396  0.3063  0.6950 -0.7159
  571MOL0     C75267   9.427   1.401   6.417 -0.2362 -0.0576 -0.1680
  571MOL0     C75268   9.457   1.518   6.486  0.0393 -0.2969 -0.3374
  571MOL0     C75269   9.361   1.620   6.521  0.0056  0.4547  0.1040
  571MOL0     O75270   9.392   1.702   6.617 -0.1757 -0.6904 -0.1284
  571MOL0     C75271   9.306   1.799   6.655  0.8499 -0.4092 -1.0189
  571MOL0     C75272   9.292   1.824   6.794 -1.3012  0.5758  0.5434
  571MOL0     C75273   9.192   1.910   6.846  0.9263 -0.1225 -0.4677
  571MOL0     C75274   9.111   1.990   6.756  1.3350  0.0209 -0.8630
  571MOL0     O75275   9.015   2.081   6.806  1.5514 -0.0858  0.3821
  571MOL0     C75276   8.986   2.086   6.946 -0.0478 -0.3077 -0.4520
  571MOL0     C75277   9.074   2.179   7.031 -0.0725 -0.2663 -0.0886
  571MOL0     C75278   9.202   2.225   6.945  0.2671  0.2408 -0.7363
  571MOL0     C75279   9.233   2.355   7.013 -0.3103 -0.1359 -0.6455
  571MOL0     C75280   9.351   2.433   6.958 -0.3805  0.1474  0.8858
  571MOL0     C75281   9.387   2.574   7.012 -0.6119  0.0082 -0.4492
  571MOL0     C75282   9.263   2.675   7.004  0.6381  0.0843 -0.9872
  571MOL0     C75283   9.301   2.812   7.055  0.7560 -0.0664 -0.5665
  571MOL0    Cl75284   9.144   2.907   7.082 -0.3663 -0.1623 -0.0560
  571MOL0     C75285   9.123   1.963   6.619 -0.6959 -1.2047  0.1195
  571MOL0     C75286   9.219   1.875   6.572 -0.3912 -1.1022 -0.6587
  571MOL0     O75287   9.254   1.614   6.459  0.3711 -0.3589  0.4467
  571MOL0     C75288   9.592   1.546   6.533 -0.1583  0.9221 -0.3721
  571MOL0     C75289   9.693   1.445   6.505 -0.6458 -0.9366 -0.1800
  571MOL0     N75290   9.895   1.146   6.880  0.6660 -0.8226 -0.4505
  571MOL0     N75291   9.940   1.156   6.996 -1.2320 -0.0004  0.3091
  571MOL0     C75292   9.961   0.641   8.091  0.0491  0.1614  0.0068
  571MOL0     C75293   9.899   0.615   8.215 -0.7766  0.0914  0.7621
  571MOL0     C75294   9.815   0.476   8.630  0.4620  0.7103  0.3944
  571MOL0     C75295   9.710   0.381   8.618 -0.2795  0.8373  1.1738
  571MOL0     C75296   9.624   0.360   8.722  0.5198 -0.2388 -0.0610
  571MOL0     C75297   9.647   0.425   8.845 -0.5975  0.3381 -0.0510
  571MOL0     O75298   9.576   0.380   8.950 -0.2185  0.4363 -0.1161
  571MOL0     C75299   9.640   0.301   9.048 -0.2272 -1.5345  0.4172
  571MOL0     C75300   9.691   0.168   8.986 -0.5191  0.5261 -1.1392
  571MOL0     C75301   9.727   0.056   9.089  0.2541  0.5843  0.5480
  571MOL0     C75302   9.779  -0.076   9.029  0.1033 -0.3548 -0.8690
  571MOL0     C75303   9.787  -0.188   9.134  0.1151 -0.3269  0.0618
  571MOL0     C75304   9.795  -0.281   9.213 -0.7633  0.5072  0.0275
  571MOL0     C75305   9.743   0.525   8.860 -1.4106 -0.5591  0.0596
  571MOL0     C75306   9.831   0.555   8.745 -0.5156  0.2930 -0.8968
  571MOL0     H75307  10.065   0.322   8.289 -0.6595  1.0016  1.0965
  571MOL0     H75308  10.160   0.369   8.075 -0.1115 -1.5414  1.9850
  571MOL0     H75309  10.074   0.775   7.838 -0.3906  0.1002 -3.1823
  571MOL0     H75310   9.976   0.632   7.798 -0.6114  3.9149 -1.3675
  571MOL0     H75311  10.152   0.527   7.680  1.8130 -1.0900  0.3938
  571MOL0     H75312  10.265   0.665   7.723  0.6768 -0.5316 -0.8059
  571MOL0     H75313  10.089   0.812   7.584  0.8048 -0.4772  3.3324
  571MOL0     H75314  10.020   0.668   7.536  0.7409 -2.0343  1.9779
  571MOL0     H75315  10.312   0.705   7.462  1.4967 -1.4665 -2.3127
  571MOL0     H75316  10.206   0.582   7.409  2.4390 -0.3642  0.3171
  571MOL0     H75317  10.248   0.773   7.245  1.0399  1.2304  0.8305
  571MOL0     H75318  10.172   0.888   7.345  0.7378  0.9109 -3.3496
  571MOL0     H75319   9.951   0.755   7.322  0.3547 -0.9037  0.5984
  571MOL0     H75320  10.044   0.647   7.217 -1.8096 -1.2350  1.0662
  571MOL0     H75321  10.107   0.880   7.073 -0.7129  2.4513  0.7980
  571MOL0     H75322   9.961   0.800   7.059 -0.9516  0.9306  0.3724
  571MOL0     H75323  10.018   1.046   7.237 -1.7896  3.6322 -0.7755
  571MOL0     H75324   9.881   0.945   7.252 -0.1336 -1.9233 -2.0270
  571MOL0     H75325   9.729   0.896   6.997 -0.2754  0.3936  2.4753
  571MOL0     H75326   9.640   1.048   6.736 -1.2054 -0.7049 -0.5961
  571MOL0     H75327   9.732   0.902   6.732  0.7471  0.2323  0.8847
  571MOL0     H75328   9.910   0.994   6.603  1.5785  1.4721 -1.0016
  571MOL0     H75329   9.846   1.159   6.625 -0.2230 -0.4405 -1.7493
  571MOL0     H75330   9.742   0.928   6.450 -1.0314 -1.1203 -0.5723
  571MOL0     H75331   9.621   1.045   6.494  0.5235  3.8088 -2.0710
  571MOL0     H75332   9.687   1.109   6.283 -1.1393 -1.6101  0.0289
  571MOL0     H75333   9.858   1.092   6.328 -0.4228  0.1864 -0.0442
  571MOL0     H75334   9.500   1.219   6.345 -0.4497  0.6627 -0.2354
  571MOL0     H75335   9.325   1.378   6.389 -1.1820  1.7914  1.4787
  571MOL0     H75336   9.361   1.766   6.855 -1.1129  0.9629  0.7040
  571MOL0     H75337   9.189   1.942   6.950 -2.9155  4.1331 -1.5534
  571MOL0     H75338   8.994   1.991   7.000 -0.5174  0.1587  0.4646
  571MOL0     H75339   8.884   2.123   6.956 -0.3184  0.1693 -3.9115
  571MOL0     H75340   9.108   2.122   7.119  0.6886 -0.8347 -0.7310
  571MOL0     H75341   9.011   2.262   7.065  2.8504  3.5460 -3.0368
  571MOL0     H75342   9.180   2.252   6.842 -0.9263  0.2972 -0.4741
  571MOL0     H75343   9.287   2.155   6.949 -0.2110 -0.4052  3.5935
  571MOL0     H75344   9.149   2.425   7.004  0.9250  1.7403  1.3123
  571MOL0     H75345   9.256   2.345   7.120  1.7065 -0.5236 -1.0771
  571MOL0     H75346   9.335   2.442   6.850  5.1969  0.4011 -0.2076
  571MOL0     H75347   9.438   2.369   6.977  1.2071  2.2172  0.8604
  571MOL0     H75348   9.469   2.609   6.949  0.2436  0.9509  1.1324
  571MOL0     H75349   9.425   2.564   7.114 -3.6083 -1.5834  0.6318
  571MOL0     H75350   9.220   2.667   6.904 -1.6320  1.2322 -0.1724
  571MOL0     H75351   9.193   2.641   7.080  1.1737  2.4444  0.6553
  571MOL0     H75352   9.354   2.854   6.968 -0.8370  0.0850 -1.5016
  571MOL0     H75353   9.368   2.815   7.142  0.6784  1.5984 -0.5366
  571MOL0     H75354   9.048   2.009   6.556 -0.2817  2.3753  2.0118
  571MOL0     H75355   9.224   1.859   6.464  1.6087 -1.0520 -0.6138
  571MOL0     H75356   9.605   1.637   6.590 -0.9754  1.6158 -1.2638
  571MOL0     H75357   9.795   1.475   6.526 -0.7414  1.3297 -2.3556
  571MOL0     H75358   9.933   0.723   8.024  2.8839  2.0809  0.9738
  571MOL0     H75359   9.823   0.685   8.248 -0.8632  2.3689 -3.5938
  571MOL0     H75360   9.688   0.326   8.527 -2.1197  5.1739 -1.3095
  571MOL0     H75361   9.535   0.298   8.708 -0.9580  1.1083  2.5254
  571MOL0     H75362   9.554   0.285   9.115  0.7332 -3.1119  1.3449
  571MOL0     H75363   9.715   0.359   9.102 -1.0919 -0.9238  1.0027
  571MOL0     H75364   9.630   0.131   8.903 -0.9755  0.3536 -0.7328
  571MOL0     H75365   9.781   0.193   8.930  0.1232 -0.5337 -0.6139
  571MOL0     H75366   9.635   0.043   9.146 -3.1015 -4.5742 -4.8207
  571MOL0     H75367   9.803   0.095   9.157 -0.7214  2.7942  0.4304
  571MOL0     H75368   9.705  -0.114   8.958  0.6026 -4.8146  0.6734
  571MOL0     H75369   9.873  -0.061   8.975  0.5409 -1.1731 -0.3533
  571MOL0     H75370   9.795  -0.349   9.296  1.3174  0.0003 -0.3377
  571MOL0     H75371   9.761   0.584   8.949  2.4184 -0.1173 -0.8639
  571MOL0     H75372   9.902   0.637   8.748 -1.0943  0.8174 -1.3137
  572MOL0     O75373   9.084   6.237   6.492 -0.0688 -0.2506  0.4683
  572MOL0     C75374   9.204   6.258   6.510  0.2069 -0.0920 -0.4962
  572MOL0     O75375   9.270   6.308   6.621  0.3743  1.0914  0.0201
  572MOL0     C75376   9.198   6.363   6.725  0.6474 -0.4246  0.6873
  572MOL0     C75377   9.271   6.384   6.844  0.3034 -0.8630 -0.8908
  572MOL0     C75378   9.210   6.448   6.957  0.4299 -0.7289  1.6480
  572MOL0     C75379   9.078   6.492   6.957  0.8440 -0.1985 -0.3012
  572MOL0     O75380   9.032   6.555   7.067  0.0894 -0.3902  0.1363
  572MOL0     C75381   8.979   6.460   7.165 -0.3740 -0.4983 -0.2391
  572MOL0     C75382   8.868   6.522   7.241 -0.7698  0.4910 -0.2179
  572MOL0     C75383   8.892   6.646   7.329  0.6563  0.0301  0.5203
  572MOL0     C75384   8.998   6.618   7.426 -0.1242 -0.7680 -0.6574
  572MOL0     C75385   8.972   6.494   7.508  0.3777  0.0336  0.0737
  572MOL0     C75386   9.046   6.495   7.642 -0.1153  0.1332 -0.0550
  572MOL0     C75387   9.002   6.604   7.737 -0.5530  0.5486 -0.1931
  572MOL0     C75388   9.116   6.637   7.831  0.1349 -0.6445 -0.9008
  572MOL0     N75389   9.218   6.714   7.759  0.4693 -0.5358  0.0421
  572MOL0     C75390   9.335   6.752   7.819  0.1218  0.4526  0.8367
  572MOL0     C75391   9.409   6.819   7.723  0.3576 -0.8931 -0.4942
  572MOL0     C75392   9.552   6.872   7.749 -0.8232  1.2620  0.0060
  572MOL0     C75393   9.560   6.969   7.872 -0.6603  0.3504  0.8420
  572MOL0     C75394   9.700   7.035   7.894  0.0779 -0.0004  0.6317
  572MOL0     C75395   9.690   7.140   8.004 -0.1552  0.3646  0.4110
  572MOL0     O75396   9.828   7.179   8.014  0.4311  0.3413  0.4330
  572MOL0     C75397   9.910   7.116   8.102 -0.7278 -0.1095  0.0664
  572MOL0     C75398  10.043   7.164   8.099  0.0941  0.7196  0.7676
  572MOL0     C75399  10.140   7.102   8.173  0.8058  0.3699  0.3574
  572MOL0     C75400  10.114   6.985   8.240  0.3655  0.4323 -0.6716
  572MOL0     C75401  10.211   6.895   8.318  0.5594 -0.5852 -0.4240
  572MOL0     O75402  10.179   6.760   8.338 -0.0413 -0.3944 -0.5219
  572MOL0     C75403  10.272   6.685   8.394 -0.1860  0.6243 -0.2515
  572MOL0     C75404  10.251   6.649   8.531 -0.3131 -0.5353  0.3520
  572MOL0     C75405  10.348   6.562   8.593  0.5608 -0.4519  0.2883
  572MOL0     C75406  10.468   6.517   8.520 -0.2159  0.0921  0.9763
  572MOL0     O75407  10.567   6.444   8.576 -0.6398 -0.2821 -0.2662
  572MOL0     C75408  10.568   6.389   8.710  0.4925  0.3441 -0.3281
  572MOL0     C75409  10.614   6.492   8.813  0.5298 -0.3740  0.5869
  572MOL0     C75410  10.767   6.528   8.793 -0.0732 -0.1261 -0.3947
  572MOL0     C75411  10.847   6.444   8.890 -0.8239 -0.2465 -0.7717
  572MOL0     C75412  10.997   6.475   8.896  0.2560 -1.0517  0.3263
  572MOL0     C75413  11.032   6.597   8.983  0.0511  0.0479  0.9266
  572MOL0     C75414  11.176   6.628   8.988 -0.7916  0.6575 -0.1078
  572MOL0     C75415  11.198   6.762   9.058 -0.4124 -0.7422 -0.0563
  572MOL0    Cl75416  11.109   6.787   9.205  0.3126 -0.0288 -0.3429
  572MOL0     C75417  10.480   6.558   8.385 -0.1331 -0.5146 -0.3793
  572MOL0     C75418  10.381   6.639   8.326  0.4262  0.0736 -0.9289
  572MOL0     O75419  10.309   6.952   8.364  0.3155  0.1923  0.0767
  572MOL0     C75420   9.977   6.937   8.229  0.0493  0.7515  0.6643
  572MOL0     C75421   9.870   7.001   8.167 -1.0577 -0.2947 -0.5845
  572MOL0     N75422   9.323   6.829   7.609 -0.4942  0.1599 -0.4769
  572MOL0     N75423   9.216   6.763   7.629  0.7202 -0.6349 -0.2727
  572MOL0     C75424   9.003   6.472   6.838 -0.1448  0.8402 -0.4839
  572MOL0     C75425   9.063   6.412   6.729 -0.2210  0.6840  0.3332
  572MOL0     C75426   9.296   6.235   6.394 -0.5173  1.1962 -0.0131
  572MOL0     C75427   9.426   6.277   6.395 -0.2684  0.0756  0.1696
  572MOL0     C75428   9.519   6.258   6.295  0.7553  0.4170 -1.3236
  572MOL0     C75429   9.474   6.208   6.173 -0.1162  0.3107  0.5358
  572MOL0     O75430   9.548   6.193   6.055 -0.3107  0.2104 -0.0451
  572MOL0     C75431   9.679   6.250   6.047 -0.2903  0.3386 -0.4267
  572MOL0     C75432   9.736   6.225   5.909  0.4563  0.1886  0.0435
  572MOL0     C75433   9.781   6.075   5.887  0.4762 -0.4689 -1.1246
  572MOL0     C75434   9.818   6.057   5.738 -0.0102  0.0257 -0.2144
  572MOL0     C75435   9.877   5.930   5.719  0.0205  0.2968  0.2463
  572MOL0     C75436   9.919   5.825   5.682  0.6781  0.9921 -0.4242
  572MOL0     C75437   9.337   6.168   6.170  0.1566 -0.3964  0.9123
  572MOL0     C75438   9.250   6.172   6.281  0.2285  0.5078  0.6060
  572MOL0     H75439   9.375   6.356   6.858  0.4622  0.8017  2.0302
  572MOL0     H75440   9.273   6.462   7.044  0.1295  1.3253  1.5931
  572MOL0     H75441   9.063   6.436   7.231  2.2508 -0.2848 -3.2798
  572MOL0     H75442   8.939   6.373   7.113 -2.9883  0.4074  0.1216
  572MOL0     H75443   8.819   6.442   7.297 -0.8757  1.5433  1.2546
  572MOL0     H75444   8.791   6.552   7.170 -2.5069  1.4460  1.9559
  572MOL0     H75445   8.792   6.668   7.366  0.8805  0.1934  1.0341
  572MOL0     H75446   8.912   6.738   7.273  0.5597 -0.7652 -0.8802
  572MOL0     H75447   9.099   6.610   7.384 -0.0697 -3.5367 -0.1522
  572MOL0     H75448   8.995   6.701   7.497 -1.9545 -1.1017 -0.3124
  572MOL0     H75449   9.008   6.406   7.453 -1.7423 -0.1476 -1.1134
  572MOL0     H75450   8.868   6.463   7.518  0.3673 -1.2855 -3.1469
  572MOL0     H75451   9.150   6.516   7.614 -0.4025  2.3012  0.3750
  572MOL0     H75452   9.050   6.393   7.680 -1.2477 -0.1641 -0.6634
  572MOL0     H75453   8.963   6.699   7.699  2.2429  2.3162  0.9971
  572MOL0     H75454   8.932   6.549   7.800  1.3383 -2.4404 -0.4906
  572MOL0     H75455   9.173   6.545   7.849 -0.1680 -1.2812 -2.9192
  572MOL0     H75456   9.093   6.690   7.924 -0.5625  1.6402 -2.2784
  572MOL0     H75457   9.384   6.743   7.916  3.1046  0.3156 -0.5886
  572MOL0     H75458   9.581   6.918   7.654 -1.1252 -0.2979 -0.8580
  572MOL0     H75459   9.623   6.792   7.771  0.2450  1.1674 -3.2291
  572MOL0     H75460   9.538   6.919   7.967 -0.9915  1.0589  1.1359
  572MOL0     H75461   9.488   7.048   7.854 -0.1920  1.3186  2.8747
  572MOL0     H75462   9.766   6.953   7.927  1.2723 -0.7236 -3.0618
  572MOL0     H75463   9.731   7.074   7.797 -1.7238  0.0026  0.0272
  572MOL0     H75464   9.652   7.097   8.097  4.9992 -2.3519  1.6831
  572MOL0     H75465   9.622   7.215   7.963 -0.0999  0.7248  0.9745
  572MOL0     H75466  10.060   7.258   8.047 -1.2829 -1.0651 -3.3297
  572MOL0     H75467  10.243   7.136   8.172  1.2124 -0.0509  5.4228
  572MOL0     H75468  10.165   6.678   8.591  0.8410 -1.3010  2.4917
  572MOL0     H75469  10.336   6.534   8.697 -0.3030  2.8151  1.1701
  572MOL0     H75470  10.643   6.310   8.714  0.5702  0.4621  1.1661
  572MOL0     H75471  10.478   6.330   8.730 -1.1069  1.5621 -3.3243
  572MOL0     H75472  10.596   6.435   8.905 -1.8597 -2.8278 -1.2263
  572MOL0     H75473  10.558   6.585   8.805  0.0153 -0.6912  0.4735
  572MOL0     H75474  10.776   6.633   8.824  2.2034  0.5817 -3.0389
  572MOL0     H75475  10.804   6.518   8.691 -1.2038 -0.6564 -0.7615
  572MOL0     H75476  10.809   6.456   8.991 -4.5803  0.6239 -2.1331
  572MOL0     H75477  10.830   6.342   8.853 -1.1452  0.2640 -2.1122
  572MOL0     H75478  11.035   6.489   8.794  3.8713 -4.0196  1.0532
  572MOL0     H75479  11.044   6.388   8.943  0.4016 -0.3857  1.4570
  572MOL0     H75480  10.997   6.568   9.083  2.4995  3.6305  3.0831
  572MOL0     H75481  10.976   6.689   8.962 -2.7792 -1.4281  1.5233
  572MOL0     H75482  11.228   6.540   9.028 -4.1650 -2.1862 -1.4028
  572MOL0     H75483  11.211   6.631   8.884  0.4161  0.4870  0.2810
  572MOL0     H75484  11.142   6.823   8.986 -1.2565 -1.8330 -0.3433
  572MOL0     H75485  11.298   6.805   9.062 -0.9858  0.5981  0.9521
  572MOL0     H75486  10.565   6.525   8.326 -0.0273 -0.2988 -0.3487
  572MOL0     H75487  10.390   6.677   8.225 -0.8008  0.2342 -1.0030
  572MOL0     H75488   9.951   6.846   8.280 -0.9436 -0.3706 -1.6730
  572MOL0     H75489   9.770   6.958   8.166  0.0166 -2.9565 -1.1747
  572MOL0     H75490   8.904   6.516   6.829  0.6436  2.5358 -1.0799
  572MOL0     H75491   9.007   6.420   6.637 -1.5300  1.7725  1.1941
  572MOL0     H75492   9.477   6.305   6.487  0.9559  0.5003 -0.6170
  572MOL0     H75493   9.620   6.287   6.322  0.4047 -0.7578  1.6080
  572MOL0     H75494   9.750   6.201   6.115  2.0386 -1.1822 -3.6994
  572MOL0     H75495   9.658   6.356   6.065 -1.1787 -0.0558  1.0408
  572MOL0     H75496   9.661   6.264   5.839 -0.8427 -1.0594  0.6913
  572MOL0     H75497   9.818   6.296   5.894  0.4312  0.1385 -0.3473
  572MOL0     H75498   9.700   6.009   5.922  2.5617 -1.7125  1.7841
  572MOL0     H75499   9.864   6.051   5.953  0.3651  1.6497 -0.1246
  572MOL0     H75500   9.724   6.067   5.683 -0.5276 -0.1751  0.6193
  572MOL0     H75501   9.889   6.134   5.705 -2.8980  1.8394 -2.6801
  572MOL0     H75502   9.945   5.728   5.645  0.6885 -0.5990  3.2715
  572MOL0     H75503   9.283   6.132   6.082 -0.1435 -0.4787  1.1292
  572MOL0     H75504   9.152   6.126   6.274  0.8705 -0.6439 -3.0889
  573MOL0     O75505   5.777   2.681   0.191 -0.0837 -0.7002 -0.0588
  573MOL0     C75506   5.805   2.561   0.169  1.5382 -0.8859  0.8883
  573MOL0     O75507   5.923   2.495   0.203  0.3629  0.1307 -0.6373
  573MOL0     C75508   6.013   2.563   0.278  0.3611 -0.2409  0.9233
  573MOL0     C75509   6.143   2.582   0.227 -1.0678 -1.0016  0.3776
  573MOL0     C75510   6.250   2.633   0.306 -0.2655 -0.0955  0.5739
  573MOL0     C75511   6.225   2.670   0.442  0.2571 -0.1789  0.4635
  573MOL0     O75512   6.321   2.726   0.526 -0.1782 -0.4449  0.1661
  573MOL0     C75513   6.462   2.698   0.500 -0.1309 -0.1482 -0.4611
  573MOL0     C75514   6.539   2.746   0.627 -0.0651  0.0793  0.6864
  573MOL0     C75515   6.546   2.896   0.660 -0.4980 -0.0505  0.5870
  573MOL0     C75516   6.606   2.919   0.804  0.3076 -0.4485  0.2813
  573MOL0     C75517   6.599   3.069   0.847  0.9956  0.2981 -0.0799
  573MOL0     C75518   6.648   3.111   0.985 -0.6790  0.4675 -0.2881
  573MOL0     C75519   6.686   3.254   1.012  0.0067 -0.0277  0.8905
  573MOL0     C75520   6.748   3.259   1.161  0.1352  0.6148  0.7130
  573MOL0     N75521   6.892   3.266   1.154 -0.7529 -0.0162 -0.5469
  573MOL0     C75522   6.973   3.167   1.171  0.3314  0.7894 -0.2350
  573MOL0     C75523   7.092   3.191   1.123  0.4377 -0.8174 -0.0492
  573MOL0     C75524   7.215   3.099   1.123  0.2862  1.1337  0.8346
  573MOL0     C75525   7.304   3.132   1.233 -0.1136 -0.7921 -0.7518
  573MOL0     C75526   7.386   3.268   1.207  0.1367  0.2860  0.0182
  573MOL0     C75527   7.389   3.341   1.341  0.0060  0.0676 -0.6852
  573MOL0     O75528   7.454   3.470   1.315  0.7540  0.5568 -0.0936
  573MOL0     C75529   7.443   3.559   1.422  0.1231  0.7012 -0.0872
  573MOL0     C75530   7.308   3.595   1.452 -0.3666 -1.2430 -0.7875
  573MOL0     C75531   7.296   3.692   1.559  1.6309 -0.3053 -0.5094
  573MOL0     C75532   7.410   3.731   1.630  0.0703 -0.7352 -0.5031
  573MOL0     C75533   7.392   3.820   1.754 -0.4767  0.6438 -0.1477
  573MOL0     O75534   7.269   3.840   1.802  0.5939  0.4651 -0.0781
  573MOL0     C75535   7.254   3.930   1.905 -0.0228 -0.4896  0.8877
  573MOL0     C75536   7.218   3.880   2.037  0.7452 -0.8159 -0.1290
  573MOL0     C75537   7.156   3.965   2.134 -0.3171 -0.5520  0.7935
  573MOL0     C75538   7.138   4.105   2.102  0.6082 -0.0567 -0.3776
  573MOL0     O75539   7.122   4.215   2.184 -0.0835  0.2052  1.2673
  573MOL0     C75540   6.999   4.189   2.252  1.0389  0.1734 -0.6101
  573MOL0     C75541   6.880   4.243   2.172  0.1499  1.4513  0.0472
  573MOL0     C75542   6.898   4.390   2.135  0.8451 -0.0791 -0.4834
  573MOL0     C75543   6.856   4.488   2.244  0.1970 -0.8565 -0.2238
  573MOL0     C75544   6.926   4.624   2.215  0.4801  0.4721  0.7154
  573MOL0     C75545   7.055   4.630   2.294 -0.0002 -1.1336  0.5577
  573MOL0     C75546   7.112   4.775   2.283  0.0802 -0.0380 -0.0530
  573MOL0     C75547   7.265   4.780   2.296  0.6137 -0.4406  0.1957
  573MOL0    Cl75548   7.337   4.655   2.405  0.5512 -0.3046  0.4696
  573MOL0     C75549   7.191   4.143   1.976  0.1821  0.2295  0.2982
  573MOL0     C75550   7.252   4.066   1.882 -0.0402  0.2490  0.7835
  573MOL0     O75551   7.496   3.864   1.804  0.5208 -0.5343  0.1876
  573MOL0     C75552   7.541   3.685   1.597  0.2338 -0.4474 -0.1128
  573MOL0     C75553   7.556   3.597   1.492  0.3881 -0.9481  0.6195
  573MOL0     N75554   7.081   3.317   1.063 -0.1908  0.4580 -0.8258
  573MOL0     N75555   6.962   3.357   1.078  0.5999  0.4338 -0.2113
  573MOL0     C75556   6.090   2.655   0.497  0.4855 -0.6810  0.2963
  573MOL0     C75557   5.988   2.605   0.416 -0.3494  0.2378 -0.7557
  573MOL0     C75558   5.692   2.491   0.109  0.0592  0.7950 -0.4949
  573MOL0     C75559   5.557   2.524   0.137 -0.6814  0.9070 -0.8581
  573MOL0     C75560   5.449   2.443   0.096 -0.6276 -0.1154 -0.0857
  573MOL0     C75561   5.484   2.317   0.040  1.1794 -0.2776  0.6613
  573MOL0     O75562   5.381   2.223   0.012  0.0487  0.5560 -0.3075
  573MOL0     C75563   5.274   2.263  -0.080 -0.4505 -0.1825 -0.8945
  573MOL0     C75564   5.318   2.238  -0.222  0.6306 -0.2054  0.4811
  573MOL0     C75565   5.392   2.097  -0.247  0.6691 -0.0848 -0.4446
  573MOL0     C75566   5.406   2.071  -0.399  0.7654  0.2411 -0.3447
  573MOL0     C75567   5.488   2.168  -0.461  0.3724  0.3239 -0.5093
  573MOL0     C75568   5.539   2.268  -0.504  0.1683 -0.2809 -0.1312
  573MOL0     C75569   5.605   2.291   0.003 -0.0762  0.4359 -0.5835
  573MOL0     C75570   5.710   2.371   0.040 -0.4566  0.5882 -0.4826
  573MOL0     H75571   6.171   2.559   0.124  2.5867 -2.4355  1.5145
  573MOL0     H75572   6.349   2.652   0.264 -0.1837 -1.9793 -0.1909
  573MOL0     H75573   6.498   2.757   0.416 -4.5783 -0.2878 -2.7469
  573MOL0     H75574   6.483   2.591   0.488  0.0483 -0.0245 -1.2835
  573MOL0     H75575   6.644   2.718   0.630 -0.2671 -1.0159 -1.0791
  573MOL0     H75576   6.497   2.697   0.716  2.5940  1.9101  3.1519
  573MOL0     H75577   6.445   2.937   0.665  0.1733  1.6334  5.0425
  573MOL0     H75578   6.600   2.944   0.578  0.1293 -0.4880  0.7383
  573MOL0     H75579   6.562   2.852   0.879 -1.4528 -1.0266 -1.1946
  573MOL0     H75580   6.713   2.904   0.794  0.0907 -1.0850 -1.3884
  573MOL0     H75581   6.497   3.104   0.834  0.3041  0.0547  3.6293
  573MOL0     H75582   6.659   3.124   0.774 -0.4452  0.9914 -0.7645
  573MOL0     H75583   6.741   3.057   1.002 -2.1200 -2.2800 -0.4787
  573MOL0     H75584   6.575   3.079   1.060 -0.3394  0.7935  0.1885
  573MOL0     H75585   6.751   3.293   0.933  0.1736  1.3945  1.6974
  573MOL0     H75586   6.603   3.323   0.997  1.3581  1.2130 -1.5384
  573MOL0     H75587   6.712   3.168   1.210 -3.4147  0.9651 -0.9180
  573MOL0     H75588   6.703   3.346   1.209 -5.0013 -0.8729 -0.6748
  573MOL0     H75589   6.937   3.073   1.213 -0.8202  0.7935 -1.1660
  573MOL0     H75590   7.266   3.102   1.026 -2.2866 -0.0757 -0.6630
  573MOL0     H75591   7.181   2.995   1.131 -0.7419  1.4955  1.3724
  573MOL0     H75592   7.362   3.040   1.243 -2.5872 -2.2309  1.9407
  573MOL0     H75593   7.247   3.135   1.326 -0.3997 -2.6287 -0.8257
  573MOL0     H75594   7.484   3.248   1.163 -0.1787 -2.7523  0.4726
  573MOL0     H75595   7.337   3.326   1.128 -2.1971  0.9790  1.8751
  573MOL0     H75596   7.446   3.287   1.417 -2.1084 -1.7319 -0.2804
  573MOL0     H75597   7.284   3.344   1.369 -0.1276  0.3231 -1.2161
  573MOL0     H75598   7.219   3.572   1.395 -2.1742  1.4414  0.7374
  573MOL0     H75599   7.192   3.724   1.569  2.3497  2.5173 -1.1659
  573MOL0     H75600   7.227   3.773   2.056  4.0360 -1.0621 -2.3187
  573MOL0     H75601   7.121   3.922   2.227 -1.1748 -0.9728  0.2891
  573MOL0     H75602   6.998   4.243   2.347  0.8541 -0.5343 -0.2042
  573MOL0     H75603   6.993   4.089   2.296  1.0445 -0.4207 -1.9296
  573MOL0     H75604   6.782   4.236   2.220  0.9904  2.6671  2.0947
  573MOL0     H75605   6.878   4.170   2.091 -0.4932  0.2028  1.1350
  573MOL0     H75606   6.822   4.407   2.058 -1.8481 -0.7620  1.8063
  573MOL0     H75607   6.999   4.404   2.096  1.2745 -0.5284  0.4303
  573MOL0     H75608   6.747   4.483   2.243  0.1983 -1.6447  1.3498
  573MOL0     H75609   6.895   4.456   2.341 -0.1340  0.9543  0.5311
  573MOL0     H75610   6.860   4.708   2.239 -0.6931 -0.1956 -0.0854
  573MOL0     H75611   6.933   4.640   2.107 -1.5108 -2.7793 -0.0633
  573MOL0     H75612   7.129   4.571   2.240  0.0990  0.2482 -0.8679
  573MOL0     H75613   7.038   4.604   2.399 -2.1655  1.2662  0.8896
  573MOL0     H75614   7.093   4.839   2.196  1.6956  0.9802  0.3084
  573MOL0     H75615   7.070   4.842   2.359  1.0709 -1.2625  1.6285
  573MOL0     H75616   7.301   4.881   2.323 -2.3360  0.4116  1.2986
  573MOL0     H75617   7.309   4.762   2.198 -0.2562  0.9594 -0.4863
  573MOL0     H75618   7.199   4.242   1.932  2.0162 -1.2468 -3.0236
  573MOL0     H75619   7.277   4.099   1.782 -1.8063  3.5837  1.3078
  573MOL0     H75620   7.619   3.732   1.655 -2.4705  1.7135  2.0856
  573MOL0     H75621   7.654   3.552   1.476  0.7437  0.3070 -0.9926
  573MOL0     H75622   6.069   2.682   0.600  1.1611  0.5875  0.1246
  573MOL0     H75623   5.898   2.590   0.475  1.1321 -0.8975  1.3665
  573MOL0     H75624   5.524   2.616   0.184 -0.6469 -0.0345  1.1104
  573MOL0     H75625   5.346   2.469   0.116 -0.1079  0.9012  1.4759
  573MOL0     H75626   5.241   2.366  -0.063  1.0126 -0.1990  2.7980
  573MOL0     H75627   5.181   2.206  -0.065 -0.7766  0.8332  1.2709
  573MOL0     H75628   5.229   2.246  -0.286  0.7971  1.9083  0.4437
  573MOL0     H75629   5.391   2.313  -0.253 -0.0876  0.1801 -0.3454
  573MOL0     H75630   5.326   2.014  -0.221 -1.8057  1.4593 -1.4566
  573MOL0     H75631   5.487   2.082  -0.195  0.2634 -0.9854  0.0685
  573MOL0     H75632   5.454   1.972  -0.403  1.1303  0.3868  0.1621
  573MOL0     H75633   5.303   2.076  -0.435  0.3224  2.6295  1.0105
  573MOL0     H75634   5.568   2.361  -0.550  1.0444 -0.1962  0.5806
  573MOL0     H75635   5.624   2.196  -0.047 -0.2012 -0.0013  0.1800
  573MOL0     H75636   5.811   2.346   0.007  0.9754  1.2913  2.9236
  574MOL0     O75637   9.053   3.031   7.671  0.7627  0.8164 -0.1047
  574MOL0     C75638   8.992   3.010   7.570 -0.5508  0.0297  0.6797
  574MOL0     O75639   8.929   2.896   7.531 -1.0568  0.3239 -1.1162
  574MOL0     C75640   8.916   2.781   7.618 -0.4227 -0.5882  0.1305
  574MOL0     C75641   8.856   2.663   7.555 -0.0612  0.7438 -0.3979
  574MOL0     C75642   8.833   2.542   7.619 -1.0363 -0.0594  0.6985
  574MOL0     C75643   8.877   2.530   7.751  0.6232  0.1732 -0.8398
  574MOL0     O75644   8.856   2.415   7.829  0.0732  0.0107 -0.0313
  574MOL0     C75645   8.752   2.315   7.796 -0.6980 -0.5699  1.9264
  574MOL0     C75646   8.798   2.195   7.696  0.6133 -0.0637  0.9203
  574MOL0     C75647   8.675   2.116   7.631 -0.4569 -0.5389  1.6014
  574MOL0     C75648   8.596   2.054   7.738  0.1281 -0.0451 -0.4064
  574MOL0     C75649   8.496   1.939   7.711 -0.2594  0.3277  0.1141
  574MOL0     C75650   8.368   1.926   7.802 -0.1065  1.8257 -0.3619
  574MOL0     C75651   8.266   1.823   7.758 -0.1589 -0.0679  0.2866
  574MOL0     C75652   8.180   1.877   7.656 -0.8075  0.3382  0.9473
  574MOL0     N75653   8.055   1.925   7.713  0.1379 -0.4879  0.0268
  574MOL0     C75654   7.951   1.838   7.730  0.3287  0.4056  0.8755
  574MOL0     C75655   7.851   1.918   7.794 -0.3455  0.4452 -0.1327
  574MOL0     C75656   7.732   1.859   7.857 -1.0054 -0.3796 -0.4096
  574MOL0     C75657   7.745   1.843   8.010  0.3191  0.3365  0.6685
  574MOL0     C75658   7.614   1.816   8.084 -0.2658  0.0505  0.2207
  574MOL0     C75659   7.536   1.944   8.111 -0.5991 -0.5865 -0.2169
  574MOL0     O75660   7.601   2.027   8.213  0.3837  0.8514 -0.4140
  574MOL0     C75661   7.572   2.153   8.229 -0.1938 -0.1801  0.3046
  574MOL0     C75662   7.442   2.191   8.206 -0.2789  0.0266  0.4316
  574MOL0     C75663   7.401   2.323   8.216  0.1167  0.0866  0.1430
  574MOL0     C75664   7.488   2.429   8.254  0.1320 -0.2246  0.1647
  574MOL0     C75665   7.443   2.570   8.245  0.9040  0.4790 -0.2152
  574MOL0     O75666   7.536   2.667   8.220 -0.1092  0.4745  0.4538
  574MOL0     C75667   7.482   2.785   8.174  1.0803 -1.1506  0.5318
  574MOL0     C75668   7.495   2.809   8.035  0.5091 -0.3228  0.0275
  574MOL0     C75669   7.445   2.927   7.972 -0.0059 -0.6542 -0.5103
  574MOL0     C75670   7.388   3.028   8.051 -0.0125  0.2751  1.3341
  574MOL0     O75671   7.355   3.150   7.999  0.0605 -0.0729  0.7511
  574MOL0     C75672   7.469   3.225   7.946  0.5795  0.1938  0.5745
  574MOL0     C75673   7.426   3.372   7.931 -0.1056  0.1367  0.1189
  574MOL0     C75674   7.547   3.463   7.903  0.5696  0.5326  0.7945
  574MOL0     C75675   7.493   3.605   7.884  0.7411 -0.5017  0.4949
  574MOL0     C75676   7.589   3.720   7.865 -1.2740  0.2891  0.3961
  574MOL0     C75677   7.522   3.856   7.832  0.4118  0.2776  0.3425
  574MOL0     C75678   7.606   3.967   7.892  0.5851  0.3573 -0.6744
  574MOL0     C75679   7.577   4.094   7.815 -0.2759 -0.1363  0.1294
  574MOL0    Cl75680   7.406   4.151   7.855 -0.4414  0.5755 -0.7248
  574MOL0     C75681   7.357   2.995   8.185 -0.5470  0.2226 -0.8104
  574MOL0     C75682   7.408   2.881   8.248 -1.1892  0.2173 -0.5424
  574MOL0     O75683   7.325   2.582   8.234 -0.4924  0.5638  0.8564
  574MOL0     C75684   7.623   2.392   8.276  0.1249 -0.0769 -0.6109
  574MOL0     C75685   7.658   2.259   8.270 -0.2031  0.4343 -0.7167
  574MOL0     N75686   7.900   2.050   7.801  0.4275  0.3357 -0.1028
  574MOL0     N75687   8.008   2.054   7.735 -1.6963 -0.3115 -0.3447
  574MOL0     C75688   8.948   2.641   7.817  0.5680 -0.1999 -0.0573
  574MOL0     C75689   8.975   2.769   7.746  0.1325 -0.1114 -0.7908
  574MOL0     C75690   8.985   3.132   7.470  0.4556 -1.0139 -0.0657
  574MOL0     C75691   8.978   3.112   7.334 -0.4646 -0.1654  0.8055
  574MOL0     C75692   8.988   3.226   7.247  0.1805 -0.1333  0.8061
  574MOL0     C75693   9.013   3.356   7.297  0.4863  0.6097 -0.0657
  574MOL0     O75694   9.018   3.459   7.213 -0.1069 -0.3284  0.1376
  574MOL0     C75695   8.925   3.570   7.235 -0.2181  0.5518 -0.1448
  574MOL0     C75696   8.922   3.646   7.106  0.7245 -0.5094  0.0709
  574MOL0     C75697   8.830   3.574   7.013 -0.4624  0.4272 -0.5742
  574MOL0     C75698   8.761   3.668   6.906 -0.6160  0.7448 -0.4306
  574MOL0     C75699   8.664   3.588   6.834 -0.1085  1.0344  0.9065
  574MOL0     C75700   8.587   3.515   6.771  0.4636 -0.0771  1.0014
  574MOL0     C75701   9.015   3.372   7.436 -0.3692 -0.0705  0.1957
  574MOL0     C75702   8.999   3.267   7.527  0.2951  0.1959 -0.1333
  574MOL0     H75703   8.826   2.678   7.451  1.1954 -2.2246 -1.2897
  574MOL0     H75704   8.781   2.462   7.567 -0.9329 -0.0995  0.6553
  574MOL0     H75705   8.663   2.360   7.750  0.6389  0.5785  0.3452
  574MOL0     H75706   8.716   2.272   7.890 -2.8189 -2.7296  0.2315
  574MOL0     H75707   8.856   2.126   7.759  0.3039  0.9645  2.3994
  574MOL0     H75708   8.850   2.240   7.612  0.1526 -2.4438 -0.7440
  574MOL0     H75709   8.711   2.045   7.555 -0.2630  0.3773  0.8187
  574MOL0     H75710   8.611   2.192   7.586  0.3580  0.3818  1.9879
  574MOL0     H75711   8.661   2.040   7.825 -3.0187  0.7168  2.2767
  574MOL0     H75712   8.539   2.142   7.770  0.0135 -0.4842  0.6585
  574MOL0     H75713   8.553   1.846   7.699 -2.4625 -0.8028 -2.7969
  574MOL0     H75714   8.464   1.949   7.607 -2.2568  5.2542  0.9237
  574MOL0     H75715   8.324   2.022   7.828  1.1981  2.6712 -1.1575
  574MOL0     H75716   8.395   1.879   7.897 -0.2672  1.3347 -0.5543
  574MOL0     H75717   8.318   1.731   7.731 -1.1125 -0.6197  0.3047
  574MOL0     H75718   8.197   1.800   7.839 -1.8287  0.3390 -0.9640
  574MOL0     H75719   8.167   1.801   7.578 -0.2474  1.0652  0.1313
  574MOL0     H75720   8.228   1.962   7.607 -0.2086  0.0227  0.9800
  574MOL0     H75721   7.964   1.732   7.716  3.3039  0.9048 -0.9971
  574MOL0     H75722   7.725   1.762   7.807 -1.2216 -2.4659  3.3208
  574MOL0     H75723   7.641   1.912   7.829 -1.1143 -0.7200 -0.7114
  574MOL0     H75724   7.791   1.931   8.055  0.5530  0.4547  0.1978
  574MOL0     H75725   7.820   1.766   8.033  0.9565  1.0248  0.9258
  574MOL0     H75726   7.561   1.755   8.010  1.1277 -0.8865 -0.0362
  574MOL0     H75727   7.635   1.765   8.178 -0.7315  2.5695  1.7777
  574MOL0     H75728   7.434   1.919   8.140 -0.8887 -1.0494 -1.5647
  574MOL0     H75729   7.546   1.998   8.016  2.9726 -0.1538  0.2814
  574MOL0     H75730   7.364   2.131   8.160 -1.2120  1.3289  0.2527
  574MOL0     H75731   7.293   2.333   8.203  0.2319  2.8404  0.7175
  574MOL0     H75732   7.536   2.738   7.964 -1.3977 -0.4674 -0.9941
  574MOL0     H75733   7.455   2.945   7.865  0.3606  0.1999 -0.3454
  574MOL0     H75734   7.489   3.194   7.843 -2.3361  1.8128 -0.6079
  574MOL0     H75735   7.555   3.212   8.012  0.5417  0.3265  0.6499
  574MOL0     H75736   7.368   3.403   8.019  1.3292  1.0545  0.7839
  574MOL0     H75737   7.365   3.373   7.840 -0.3541  0.5934  0.2903
  574MOL0     H75738   7.595   3.439   7.808  1.0505  0.0428  1.1579
  574MOL0     H75739   7.625   3.447   7.977  0.2954 -1.1977  0.7540
  574MOL0     H75740   7.423   3.602   7.801  2.3351  0.9434 -0.9886
  574MOL0     H75741   7.437   3.630   7.974  0.3551 -0.9518  0.3791
  574MOL0     H75742   7.667   3.688   7.795 -3.9141 -2.4834 -1.4848
  574MOL0     H75743   7.643   3.733   7.959  0.4241 -4.8482  0.4510
  574MOL0     H75744   7.416   3.853   7.857  0.1402 -0.1419 -0.7894
  574MOL0     H75745   7.525   3.861   7.723  2.0840 -2.0436  0.1894
  574MOL0     H75746   7.577   3.980   7.997 -0.6101  0.8726 -1.0399
  574MOL0     H75747   7.712   3.945   7.878  0.9225  1.2376  0.2952
  574MOL0     H75748   7.583   4.081   7.707  1.8502 -0.9236  0.2984
  574MOL0     H75749   7.645   4.174   7.842 -0.1023 -0.1550 -0.2434
  574MOL0     H75750   7.309   3.074   8.243  0.7814 -0.7846  1.8664
  574MOL0     H75751   7.398   2.882   8.356  1.1083  1.1685 -0.2940
  574MOL0     H75752   7.699   2.469   8.286 -0.3375  0.4131 -0.8352
  574MOL0     H75753   7.760   2.225   8.284 -0.7763 -0.8262  0.5695
  574MOL0     H75754   8.987   2.623   7.916  3.5642 -2.7266 -1.5204
  574MOL0     H75755   9.009   2.854   7.804 -1.1308 -0.1807  0.1047
  574MOL0     H75756   8.969   3.016   7.284  1.7394 -0.4353  0.8480
  574MOL0     H75757   8.969   3.224   7.141  0.6791 -1.7208  0.7214
  574MOL0     H75758   8.979   3.639   7.301 -0.2298 -0.3997  0.8896
  574MOL0     H75759   8.833   3.536   7.283  1.6356  0.2810  3.6103
  574MOL0     H75760   8.895   3.751   7.125 -1.5892 -1.2206  0.9798
  574MOL0     H75761   9.016   3.656   7.050 -0.2680  1.1556 -1.4049
  574MOL0     H75762   8.755   3.522   7.074  0.0093  0.4304  0.0189
  574MOL0     H75763   8.878   3.494   6.956 -1.1363 -1.8899  1.8795
  574MOL0     H75764   8.711   3.752   6.955 -0.9596 -0.5394  1.5433
  574MOL0     H75765   8.831   3.698   6.827 -2.7772  0.3169 -2.6424
  574MOL0     H75766   8.522   3.456   6.710  1.9262 -1.7160  0.9321
  574MOL0     H75767   9.039   3.471   7.474 -1.1221 -0.0647  0.6859
  574MOL0     H75768   8.996   3.282   7.634  0.0807  1.5206 -0.3062
  575MOL0     O75769   5.299   6.287   7.020  0.3895 -0.2895 -0.6464
  575MOL0     C75770   5.398   6.250   6.964 -0.5276 -0.7432 -0.1240
  575MOL0     O75771   5.471   6.134   7.002  0.4011  0.8429  0.0217
  575MOL0     C75772   5.428   6.079   7.120 -0.2698  0.2353  0.5665
  575MOL0     C75773   5.421   6.150   7.240 -1.1108 -0.7927 -0.0345
  575MOL0     C75774   5.351   6.097   7.349 -0.2800  0.4338  0.1032
  575MOL0     C75775   5.291   5.968   7.340  0.5652 -0.7808  0.0535
  575MOL0     O75776   5.211   5.904   7.431  1.4320  0.7302  0.0186
  575MOL0     C75777   5.140   5.999   7.522  0.3445  0.2602  0.5580
  575MOL0     C75778   5.055   5.918   7.615  0.1086  0.1772 -0.1379
  575MOL0     C75779   5.143   5.861   7.732 -0.7884  0.1789 -1.1595
  575MOL0     C75780   5.065   5.776   7.822 -0.1657  0.3336  0.1744
  575MOL0     C75781   5.155   5.684   7.915  0.2483 -1.1667 -0.6150
  575MOL0     C75782   5.075   5.600   8.015 -0.6616  0.4358 -0.2159
  575MOL0     C75783   5.078   5.450   7.978  0.0383 -0.0878 -0.8045
  575MOL0     C75784   5.196   5.374   8.050  0.2778 -0.2069 -0.0364
  575MOL0     N75785   5.317   5.449   8.031  0.8318 -0.3235  0.2442
  575MOL0     C75786   5.402   5.428   7.933  0.6639 -0.7503 -0.1036
  575MOL0     C75787   5.511   5.498   7.976  0.2170  0.5139 -0.1568
  575MOL0     C75788   5.643   5.487   7.899 -0.8253 -1.0540  0.5734
  575MOL0     C75789   5.774   5.468   7.967 -0.3637 -0.6163  0.0212
  575MOL0     C75790   5.884   5.450   7.857  0.3651  0.1662 -0.6317
  575MOL0     C75791   5.991   5.350   7.906 -0.8372  0.8325 -0.3772
  575MOL0     O75792   5.921   5.222   7.914  0.3657 -0.6092 -0.7174
  575MOL0     C75793   5.963   5.115   7.997  0.5495 -0.2459 -0.1356
  575MOL0     C75794   5.873   5.012   8.021 -0.7185 -0.6089 -0.9038
  575MOL0     C75795   5.895   4.893   8.105  0.2732 -0.1135 -1.7195
  575MOL0     C75796   6.020   4.893   8.166  0.0633  0.6342 -0.2241
  575MOL0     C75797   6.056   4.782   8.254  0.4515 -0.5255 -0.6067
  575MOL0     O75798   5.963   4.676   8.251 -0.1840  0.0000 -0.2439
  575MOL0     C75799   5.978   4.590   8.350 -0.6094  1.4846 -0.2585
  575MOL0     C75800   5.918   4.607   8.467 -0.5284  0.0646 -0.8950
  575MOL0     C75801   5.913   4.503   8.565 -0.1463 -0.0609 -0.5412
  575MOL0     C75802   5.996   4.388   8.543  1.7283 -0.3137  0.2488
  575MOL0     O75803   6.016   4.287   8.636 -0.6803  0.4068  0.0760
  575MOL0     C75804   6.046   4.330   8.770  0.8269 -0.8766 -0.2048
  575MOL0     C75805   6.190   4.370   8.776 -0.3620  0.7678  0.3975
  575MOL0     C75806   6.244   4.365   8.923 -0.2405  0.3131 -0.0586
  575MOL0     C75807   6.408   4.377   8.933 -0.2498 -0.6191  0.4259
  575MOL0     C75808   6.463   4.493   8.838  0.1611  0.4446  0.0190
  575MOL0     C75809   6.426   4.638   8.883 -1.2732  0.7469 -0.2752
  575MOL0     C75810   6.475   4.758   8.795 -0.3249  0.5755  0.2204
  575MOL0     C75811   6.627   4.783   8.795  0.8224 -0.9215 -0.0780
  575MOL0    Cl75812   6.713   4.673   8.683 -0.2130  0.3986 -0.1232
  575MOL0     C75813   6.057   4.377   8.415 -0.2265  1.6440 -0.6099
  575MOL0     C75814   6.045   4.473   8.311  0.6559 -0.0466 -0.1527
  575MOL0     O75815   6.156   4.787   8.328  0.3107  0.5508  0.6562
  575MOL0     C75816   6.112   4.993   8.142 -0.3468 -0.0466 -0.4423
  575MOL0     C75817   6.088   5.102   8.055 -0.5372  0.2880 -0.2854
  575MOL0     N75818   5.487   5.569   8.099  0.2030  0.0600  0.1577
  575MOL0     N75819   5.369   5.541   8.124  0.3709  0.6398 -0.9512
  575MOL0     C75820   5.307   5.891   7.226 -0.6970 -0.5452 -1.2197
  575MOL0     C75821   5.371   5.946   7.111  0.3150  0.1657  0.1965
  575MOL0     C75822   5.445   6.331   6.850  0.9205  0.1037  0.9613
  575MOL0     C75823   5.369   6.439   6.805  0.4045  0.6674  0.2453
  575MOL0     C75824   5.385   6.491   6.678  0.2434  0.4295 -0.0930
  575MOL0     C75825   5.489   6.462   6.597  0.3633  0.2847 -0.2095
  575MOL0     O75826   5.495   6.523   6.478 -0.4503  0.2480 -0.0519
  575MOL0     C75827   5.610   6.502   6.391 -0.3057  0.0874 -0.3637
  575MOL0     C75828   5.595   6.609   6.277 -0.5618 -0.5718  0.2747
  575MOL0     C75829   5.697   6.572   6.167  0.3053  0.1361 -0.1718
  575MOL0     C75830   5.642   6.452   6.086 -0.0391 -0.1041 -0.0333
  575MOL0     C75831   5.715   6.436   5.960 -1.1011  0.5859  0.3910
  575MOL0     C75832   5.782   6.392   5.866 -0.4117  0.6965 -1.0072
  575MOL0     C75833   5.573   6.360   6.651  0.8225  0.2728  0.1929
  575MOL0     C75834   5.549   6.294   6.768 -0.1535  0.2568 -0.1508
  575MOL0     H75835   5.463   6.250   7.243  1.8659 -1.9265 -0.8088
  575MOL0     H75836   5.359   6.155   7.440  0.8167  3.0875 -1.5615
  575MOL0     H75837   5.077   6.059   7.456  1.6879  0.2881 -0.7605
  575MOL0     H75838   5.207   6.059   7.584  0.0227  0.1030  1.0642
  575MOL0     H75839   5.001   5.839   7.561  2.9650 -0.2929 -2.5869
  575MOL0     H75840   4.975   5.984   7.650 -3.0310 -2.3914 -1.9130
  575MOL0     H75841   5.189   5.940   7.792  2.0895 -0.4642 -2.3630
  575MOL0     H75842   5.232   5.802   7.706  2.3227  2.3159  3.2499
  575MOL0     H75843   5.005   5.848   7.880  0.6327  1.9330 -0.8893
  575MOL0     H75844   4.996   5.719   7.760  3.4790 -2.1191 -1.9787
  575MOL0     H75845   5.223   5.742   7.978 -1.7465  0.6060  0.0482
  575MOL0     H75846   5.210   5.620   7.845  0.1958  1.9001 -3.7708
  575MOL0     H75847   4.973   5.640   8.011 -1.1237 -0.6889 -0.3182
  575MOL0     H75848   5.110   5.615   8.118 -1.6542  2.6772 -0.1616
  575MOL0     H75849   4.977   5.413   7.998 -0.5619  0.7506 -2.1232
  575MOL0     H75850   5.081   5.431   7.870  2.0486 -2.3087 -0.4247
  575MOL0     H75851   5.187   5.282   7.990 -0.8592 -1.2215  1.6172
  575MOL0     H75852   5.174   5.353   8.155 -0.2687  2.6908  0.4949
  575MOL0     H75853   5.389   5.349   7.859 -0.5435  1.6427 -2.6589
  575MOL0     H75854   5.650   5.573   7.832 -0.8937 -0.7500  0.9536
  575MOL0     H75855   5.628   5.397   7.838  1.7542  0.8872 -3.3759
  575MOL0     H75856   5.780   5.387   8.039  1.3027 -1.8638 -1.4166
  575MOL0     H75857   5.792   5.569   8.006  0.9413 -0.6202 -0.4963
  575MOL0     H75858   5.833   5.399   7.775  2.7059 -2.0319 -0.8597
  575MOL0     H75859   5.919   5.544   7.813 -0.9719  1.7726  1.5203
  575MOL0     H75860   6.032   5.377   8.003  1.6686 -1.1908 -0.7594
  575MOL0     H75861   6.081   5.340   7.844  1.8143 -0.3417  3.3195
  575MOL0     H75862   5.774   5.018   7.977 -1.9952  2.9101  1.9393
  575MOL0     H75863   5.820   4.817   8.123 -1.4573  1.9124  0.2970
  575MOL0     H75864   5.865   4.699   8.488  2.2080  1.3543  1.0074
  575MOL0     H75865   5.865   4.523   8.661 -0.2076 -1.2852 -0.3112
  575MOL0     H75866   6.040   4.245   8.838  0.0796 -0.3805  0.3643
  575MOL0     H75867   5.978   4.408   8.807 -0.4374 -2.1995  0.3275
  575MOL0     H75868   6.205   4.468   8.730  1.2099  0.9439  1.2164
  575MOL0     H75869   6.241   4.302   8.708 -1.3702 -0.3138  0.6925
  575MOL0     H75870   6.216   4.279   8.984  0.4416  0.1282  0.0038
  575MOL0     H75871   6.193   4.444   8.978 -4.7861 -0.7163 -2.3117
  575MOL0     H75872   6.433   4.398   9.038  5.0723 -2.0197 -0.2733
  575MOL0     H75873   6.455   4.280   8.914 -0.0445 -0.8442  1.9032
  575MOL0     H75874   6.411   4.475   8.743  1.8694  0.7439 -1.0211
  575MOL0     H75875   6.570   4.493   8.816  0.3408  1.9983  0.7524
  575MOL0     H75876   6.471   4.640   8.983 -3.3911 -2.8517  0.9852
  575MOL0     H75877   6.320   4.643   8.910 -0.6787 -0.4029  2.6802
  575MOL0     H75878   6.435   4.743   8.694  2.9984 -3.4719 -0.7925
  575MOL0     H75879   6.431   4.852   8.829  3.1346  2.1017  0.9659
  575MOL0     H75880   6.668   4.770   8.896 -3.3565 -1.4816  1.7580
  575MOL0     H75881   6.650   4.886   8.764 -1.2689  0.7357  3.2378
  575MOL0     H75882   6.120   4.289   8.412 -0.2871  1.6214 -1.2404
  575MOL0     H75883   6.096   4.461   8.216  3.4999 -1.8865  1.4647
  575MOL0     H75884   6.213   4.984   8.179  1.1125  1.8719 -3.5353
  575MOL0     H75885   6.158   5.183   8.034  0.3244 -0.5666 -0.7915
  575MOL0     H75886   5.256   5.798   7.205  2.1591 -2.0670 -2.0171
  575MOL0     H75887   5.378   5.882   7.023 -0.7681 -0.6314  0.6765
  575MOL0     H75888   5.282   6.473   6.861 -1.6692 -1.5192 -1.4634
  575MOL0     H75889   5.310   6.558   6.640 -1.8921 -1.2554  0.9159
  575MOL0     H75890   5.610   6.403   6.346  1.7606  0.4329 -1.2210
  575MOL0     H75891   5.703   6.516   6.447 -2.2530 -1.2605  3.5938
  575MOL0     H75892   5.501   6.604   6.220  0.6924  0.0638 -1.9542
  575MOL0     H75893   5.603   6.716   6.300  3.1239 -0.7777  0.5344
  575MOL0     H75894   5.790   6.547   6.219  1.3740  2.2038 -0.9504
  575MOL0     H75895   5.720   6.664   6.112  0.1710  0.2009 -0.1212
  575MOL0     H75896   5.629   6.357   6.137 -1.0575  0.5458  0.9444
  575MOL0     H75897   5.544   6.486   6.051 -1.2229 -1.1834  2.0920
  575MOL0     H75898   5.857   6.374   5.791 -1.6403 -0.1914 -2.0661
  575MOL0     H75899   5.663   6.325   6.601  1.9638  1.5510  1.2883
  575MOL0     H75900   5.612   6.211   6.798  0.9031  0.5448 -1.4365
  576MOL0     O75901   3.701   7.387  10.356  0.2169 -0.1156 -0.0062
  576MOL0     C75902   3.662   7.349  10.248 -0.3555 -0.1816  0.5636
  576MOL0     O75903   3.628   7.431  10.151  0.0612  0.1815 -0.6131
  576MOL0     C75904   3.609   7.571  10.159  0.2527  1.0694 -1.1705
  576MOL0     C75905   3.643   7.645  10.047  0.3691  0.1680 -0.3244
  576MOL0     C75906   3.648   7.788  10.046 -0.7495  0.6173  0.6278
  576MOL0     C75907   3.599   7.857  10.157 -0.5090  0.0897  0.2893
  576MOL0     O75908   3.586   7.994  10.162  0.1058  0.0745 -0.1189
  576MOL0     C75909   3.690   8.066  10.107 -0.4652 -1.5786  0.3971
  576MOL0     C75910   3.664   8.219  10.151 -0.2332  0.8395 -0.1837
  576MOL0     C75911   3.524   8.248  10.202 -0.4336 -0.6221  0.1402
  576MOL0     C75912   3.508   8.405  10.215  0.0799 -0.4686  0.0317
  576MOL0     C75913   3.358   8.425  10.255  0.3860 -0.0866  0.4408
  576MOL0     C75914   3.324   8.569  10.288 -0.2984  0.2600 -0.5785
  576MOL0     C75915   3.190   8.590  10.351 -0.0825 -0.6058 -0.1598
  576MOL0     C75916   3.152   8.508  10.479 -0.8889 -0.7265  0.0168
  576MOL0     N75917   3.250   8.550  10.580 -0.2078  0.7024 -0.0193
  576MOL0     C75918   3.346   8.465  10.628 -0.2496  0.7424  0.2184
  576MOL0     C75919   3.411   8.533  10.731 -0.1891 -0.9054  0.2790
  576MOL0     C75920   3.532   8.497  10.813 -0.2704  0.4681 -0.4642
  576MOL0     C75921   3.648   8.447  10.723 -0.1984 -0.2176  0.6035
  576MOL0     C75922   3.687   8.546  10.604  0.1649  0.1144  0.1299
  576MOL0     C75923   3.729   8.685  10.653 -0.1377 -1.3261 -0.1526
  576MOL0     O75924   3.802   8.769  10.548 -0.5715 -0.1052 -0.6196
  576MOL0     C75925   3.851   8.901  10.563  1.0052 -0.1992 -0.1180
  576MOL0     C75926   3.802   8.992  10.660  0.5144  0.3843  0.3360
  576MOL0     C75927   3.862   9.119  10.683  0.0550  0.2128 -0.0541
  576MOL0     C75928   3.950   9.175  10.591 -0.1971 -0.0338 -0.1081
  576MOL0     C75929   4.013   9.311  10.601  0.5265  0.0995  0.7020
  576MOL0     O75930   4.002   9.375  10.719 -0.1001 -0.8475  0.5463
  576MOL0     C75931   4.061   9.493  10.754  0.3566 -0.0845 -0.5538
  576MOL0     C75932   4.186   9.541  10.710 -0.2127 -0.1925  0.5498
  576MOL0     C75933   4.240   9.655  10.756 -0.5733  0.3903 -0.8687
  576MOL0     C75934   4.163   9.732  10.847 -0.5688  0.1919 -0.0030
  576MOL0     O75935   4.231   9.836  10.884 -0.1585 -0.4534 -0.0489
  576MOL0     C75936   4.222   9.859  11.026 -0.0427  0.3722  0.4426
  576MOL0     C75937   4.108   9.965  11.048 -0.4961 -0.3559  0.7003
  576MOL0     C75938   4.161  10.101  11.093  0.5501 -0.7140  0.3846
  576MOL0     C75939   4.220  10.089  11.231 -0.7677  0.9160  0.7478
  576MOL0     C75940   4.207  10.228  11.286  0.2063 -0.5968 -0.2079
  576MOL0     C75941   4.235  10.235  11.432 -0.0760  0.4949  0.6179
  576MOL0     C75942   4.288  10.375  11.471 -0.6004  0.3798  0.5063
  576MOL0     C75943   4.315  10.376  11.624  0.9536  0.5019 -0.3148
  576MOL0    Cl75944   4.316  10.537  11.691  0.4213 -0.2441 -0.4483
  576MOL0     C75945   4.043   9.682  10.900  0.0367  0.2331  0.1049
  576MOL0     C75946   3.994   9.563  10.852  0.1111 -0.0659 -0.0040
  576MOL0     O75947   4.056   9.362  10.501 -0.3954 -0.4557 -0.0388
  576MOL0     C75948   3.988   9.081  10.487 -0.2519 -0.2881 -0.1546
  576MOL0     C75949   3.937   8.953  10.475  0.3354  0.0195  0.0304
  576MOL0     N75950   3.340   8.648  10.751  0.2922 -0.3892  0.4183
  576MOL0     N75951   3.245   8.658  10.666  0.4570  0.2832 -0.1751
  576MOL0     C75952   3.550   7.779  10.263  0.7526 -0.5973 -0.1622
  576MOL0     C75953   3.562   7.638  10.277 -0.1435 -0.3775 -0.6950
  576MOL0     C75954   3.645   7.202  10.232 -0.6479  0.4575  0.5964
  576MOL0     C75955   3.628   7.117  10.340  0.4465 -0.2841 -0.2572
  576MOL0     C75956   3.614   6.987  10.325  0.5883  1.0991  0.5891
  576MOL0     C75957   3.601   6.926  10.196 -0.2418 -0.0639 -0.0425
  576MOL0     O75958   3.577   6.780  10.190 -0.5036 -0.0981 -0.6503
  576MOL0     C75959   3.527   6.723  10.074  0.0973 -0.3191  0.6208
  576MOL0     C75960   3.505   6.576  10.081 -0.2385  0.6217 -0.3305
  576MOL0     C75961   3.394   6.509   9.994  0.1261 -0.2322 -0.0076
  576MOL0     C75962   3.393   6.361  10.007  0.7729  0.3346 -0.5088
  576MOL0     C75963   3.326   6.308  10.129 -0.0034 -0.5988  1.1126
  576MOL0     C75964   3.295   6.260  10.240  0.5102  0.6916  0.6500
  576MOL0     C75965   3.612   7.012  10.088  0.6426 -0.6065 -0.5098
  576MOL0     C75966   3.636   7.151  10.105  1.0769 -0.4512  0.4045
  576MOL0     H75967   3.679   7.605   9.953 -1.6613  2.8271 -2.3806
  576MOL0     H75968   3.690   7.850   9.968 -0.0129  3.4766  3.1239
  576MOL0     H75969   3.693   8.065   9.997  1.0359  0.1393  0.3797
  576MOL0     H75970   3.789   8.037  10.143  0.1464 -0.1291 -0.0575
  576MOL0     H75971   3.685   8.276  10.060 -1.6620 -1.8661 -2.3656
  576MOL0     H75972   3.729   8.247  10.234 -0.4461 -2.8372  1.3958
  576MOL0     H75973   3.509   8.193  10.295 -1.5998 -0.5910 -0.0152
  576MOL0     H75974   3.456   8.219  10.121 -0.2917  0.8908 -0.5659
  576MOL0     H75975   3.580   8.433  10.292  0.4372  3.9430 -1.6605
  576MOL0     H75976   3.533   8.455  10.121 -1.2176 -0.8195 -0.5251
  576MOL0     H75977   3.339   8.347  10.330  2.7355 -3.3624 -2.0420
  576MOL0     H75978   3.297   8.405  10.167 -3.5978  0.1798  2.9069
  576MOL0     H75979   3.353   8.634  10.204  1.8832 -1.1816 -1.0170
  576MOL0     H75980   3.397   8.598  10.364 -0.5338 -0.5765 -0.0243
  576MOL0     H75981   3.190   8.695  10.379  4.5152 -1.2087  3.0762
  576MOL0     H75982   3.121   8.568  10.269  0.1550 -1.2168 -0.2000
  576MOL0     H75983   3.177   8.404  10.457  1.7078 -0.3458  0.9031
  576MOL0     H75984   3.046   8.534  10.490 -0.0391  2.1854  3.2468
  576MOL0     H75985   3.354   8.360  10.603  0.3217  0.5946  0.9859
  576MOL0     H75986   3.504   8.411  10.873  0.4303  1.3579  1.1833
  576MOL0     H75987   3.566   8.579  10.877 -1.0236  1.2751 -1.0526
  576MOL0     H75988   3.614   8.354  10.677  2.0481 -1.2216  0.8335
  576MOL0     H75989   3.736   8.429  10.785  0.6483  0.1475 -0.4646
  576MOL0     H75990   3.769   8.510  10.540 -0.1718  3.2354 -2.2995
  576MOL0     H75991   3.604   8.550  10.533  0.3712 -0.5304 -0.1588
  576MOL0     H75992   3.797   8.673  10.739  0.6801 -1.1961 -0.7653
  576MOL0     H75993   3.636   8.733  10.682  0.9098  0.3384  0.6461
  576MOL0     H75994   3.716   8.974  10.724  0.5779 -2.6320 -0.2829
  576MOL0     H75995   3.832   9.179  10.769  2.1899 -1.9543  2.3826
  576MOL0     H75996   4.251   9.490  10.639 -0.8783  1.8064 -1.6409
  576MOL0     H75997   4.337   9.694  10.727  0.1693  0.4811  1.5874
  576MOL0     H75998   4.319   9.890  11.065 -0.0818  1.8032 -0.4939
  576MOL0     H75999   4.185   9.774  11.084  0.6844  0.1789  0.6270
  576MOL0     H76000   4.029   9.928  11.115 -1.6474 -0.5142 -0.6852
  576MOL0     H76001   4.051   9.985  10.957  0.1858  2.8146  0.8601
  576MOL0     H76002   4.074  10.167  11.088  0.3474 -0.5243  3.8335
  576MOL0     H76003   4.236  10.143  11.026  1.2620  0.5261  1.8969
  576MOL0     H76004   4.160  10.019  11.289  0.2510 -1.8604 -1.3260
  576MOL0     H76005   4.326  10.064  11.216 -0.6643  2.2449 -1.1476
  576MOL0     H76006   4.105  10.264  11.274 -0.4177 -1.8796  0.9311
  576MOL0     H76007   4.285  10.287  11.237 -0.3623 -0.4799 -0.9746
  576MOL0     H76008   4.315  10.163  11.447 -0.7686  0.2318  3.6976
  576MOL0     H76009   4.138  10.215  11.478 -1.7069  1.4186 -2.1440
  576MOL0     H76010   4.378  10.395  11.412 -1.7353  0.0606 -1.4515
  576MOL0     H76011   4.224  10.455  11.432  1.0960  1.8942  0.6981
  576MOL0     H76012   4.414  10.332  11.635  0.4421 -1.7776 -3.5252
  576MOL0     H76013   4.250  10.303  11.672  0.3250  1.4036  0.2386
  576MOL0     H76014   3.983   9.735  10.973  1.0812 -0.2516  1.3457
  576MOL0     H76015   3.906   9.514  10.894  0.8057 -0.4601  1.0178
  576MOL0     H76016   4.061   9.114  10.413 -1.1905 -0.5221 -1.2104
  576MOL0     H76017   3.970   8.893  10.391  0.6494 -1.9330  1.4657
  576MOL0     H76018   3.498   7.835  10.340 -0.4882  1.1838 -2.1764
  576MOL0     H76019   3.539   7.579  10.366 -0.2560 -3.3498 -2.5471
  576MOL0     H76020   3.633   7.147  10.444  0.3395 -0.3400 -0.2361
  576MOL0     H76021   3.608   6.922  10.412 -1.3701  1.2630  0.6160
  576MOL0     H76022   3.591   6.746   9.988 -0.5599 -2.7125 -0.5944
  576MOL0     H76023   3.425   6.759  10.055  1.3983  2.8579 -1.3341
  576MOL0     H76024   3.600   6.531  10.050 -1.3239 -2.0834 -0.0515
  576MOL0     H76025   3.497   6.548  10.187  1.2103  0.3007 -0.2800
  576MOL0     H76026   3.408   6.551   9.894 -2.0802  0.3490 -0.1086
  576MOL0     H76027   3.297   6.544  10.029 -0.9287 -1.3657 -1.6616
  576MOL0     H76028   3.334   6.332   9.919 -1.4760  2.7372  0.0764
  576MOL0     H76029   3.491   6.313  10.007 -1.0053 -3.9547  2.6602
  576MOL0     H76030   3.266   6.204  10.327  0.1522 -0.7384 -0.3492
  576MOL0     H76031   3.605   6.982   9.984 -0.9438 -0.1886 -0.5475
  576MOL0     H76032   3.645   7.218  10.020  3.1864  0.8377  1.5379
  577MOL0     O76033   3.839   8.391   9.871  0.7897  0.0634 -0.0056
  577MOL0     C76034   3.918   8.490   9.871  0.3557  0.4228  0.1812
  577MOL0     O76035   3.996   8.527   9.975 -0.5969 -0.1500 -0.0393
  577MOL0     C76036   3.979   8.474  10.100  0.5016 -0.6047 -0.2957
  577MOL0     C76037   4.004   8.339  10.114 -0.0063  0.7618 -0.2956
  577MOL0     C76038   4.003   8.286  10.240  0.6820  0.0377 -0.3140
  577MOL0     C76039   3.966   8.356  10.364  0.1847  0.0336  0.6735
  577MOL0     O76040   3.983   8.284  10.480 -0.4990 -0.0127 -0.7454
  577MOL0     C76041   4.037   8.364  10.591 -0.4477  0.0926  0.4062
  577MOL0     C76042   4.116   8.268  10.679 -0.5888 -0.8100 -0.1165
  577MOL0     C76043   4.045   8.149  10.742  0.0862 -0.4793 -0.0927
  577MOL0     C76044   3.915   8.191  10.825 -0.6828 -0.1328  0.3062
  577MOL0     C76045   3.874   8.081  10.923  0.5826 -1.2554  0.0319
  577MOL0     C76046   3.750   8.142  10.991 -0.9826 -0.4071 -0.0783
  577MOL0     C76047   3.717   8.035  11.094  0.4386 -0.5872 -0.1307
  577MOL0     C76048   3.566   8.028  11.123 -0.3064 -0.9273  0.5697
  577MOL0     N76049   3.510   8.156  11.170 -0.0899  0.8575  0.5746
  577MOL0     C76050   3.531   8.205  11.294  0.6270 -0.3038 -0.0732
  577MOL0     C76051   3.473   8.321  11.302 -0.0809 -0.8359  0.3832
  577MOL0     C76052   3.475   8.419  11.415  0.5346  0.6406 -0.0775
  577MOL0     C76053   3.393   8.372  11.540  0.6849 -0.1231 -0.8436
  577MOL0     C76054   3.477   8.344  11.667  0.7313  0.3976 -0.0400
  577MOL0     C76055   3.470   8.448  11.769 -0.2472  0.2916 -0.9624
  577MOL0     O76056   3.520   8.422  11.903  0.3500  0.2121  0.3014
  577MOL0     C76057   3.653   8.417  11.934 -0.1940 -0.5736  0.3582
  577MOL0     C76058   3.733   8.521  11.895 -0.4317 -0.5939  0.0443
  577MOL0     C76059   3.874   8.507  11.925 -0.4257  0.4014  0.3030
  577MOL0     C76060   3.920   8.388  11.977  0.5928 -0.1422 -0.5491
  577MOL0     C76061   4.063   8.366  12.014  0.7531  0.4425  0.2222
  577MOL0     O76062   4.157   8.460  11.971  0.0262 -0.1805 -0.0049
  577MOL0     C76063   4.291   8.440  12.004  0.4210 -0.1928  0.1689
  577MOL0     C76064   4.367   8.553  12.033 -0.9584 -0.0751 -0.1457
  577MOL0     C76065   4.510   8.535  12.071  0.0323 -0.5667  0.0291
  577MOL0     C76066   4.574   8.410  12.070  1.2970 -0.5350  0.9499
  577MOL0     O76067   4.714   8.406  12.080  0.5245 -0.0661 -0.2638
  577MOL0     C76068   4.776   8.295  12.143  0.0202 -0.1684 -1.4389
  577MOL0     C76069   4.926   8.341  12.181 -0.3681 -1.1520 -0.1052
  577MOL0     C76070   5.000   8.401  12.045  0.2397  0.3901  0.0865
  577MOL0     C76071   5.145   8.427  12.078  0.6126  0.9431  0.0854
  577MOL0     C76072   5.201   8.523  11.981  0.1787 -0.0409 -0.3874
  577MOL0     C76073   5.352   8.524  11.979 -0.2814  0.1722  0.9330
  577MOL0     C76074   5.395   8.586  11.849 -0.6615 -0.3675 -0.0905
  577MOL0     C76075   5.542   8.575  11.822  0.8913  0.3245 -0.8069
  577MOL0    Cl76076   5.639   8.662  11.942  0.3697  0.0768  0.1846
  577MOL0     C76077   4.494   8.298  12.040 -0.5779  0.8059 -0.7456
  577MOL0     C76078   4.364   8.316  12.004 -0.5514  0.3322 -0.9945
  577MOL0     O76079   4.088   8.266  12.075 -1.0918  0.2004 -0.3439
  577MOL0     C76080   3.827   8.288  12.002 -0.0664  0.0281  0.0571
  577MOL0     C76081   3.692   8.293  11.982 -0.3811  0.1824 -0.2160
  577MOL0     N76082   3.446   8.361  11.174 -0.4420  0.2373  0.2916
  577MOL0     N76083   3.450   8.254  11.098  0.4524 -0.1502  0.4165
  577MOL0     C76084   3.954   8.492  10.339 -0.0463 -0.7736 -0.1740
  577MOL0     C76085   3.956   8.557  10.215  0.6739  0.0227  0.0854
  577MOL0     C76086   3.955   8.550   9.744  0.6146 -0.4254  0.5935
  577MOL0     C76087   4.060   8.635   9.738 -0.2634 -0.2676  0.5033
  577MOL0     C76088   4.113   8.679   9.618 -0.5650 -0.2133  0.4428
  577MOL0     C76089   4.053   8.631   9.493 -0.7250  1.3646  0.4321
  577MOL0     O76090   4.086   8.670   9.366 -0.2674 -0.7752 -0.2423
  577MOL0     C76091   4.175   8.783   9.364  0.7933  0.1974  0.0363
  577MOL0     C76092   4.109   8.908   9.319 -0.1539 -0.3860 -1.0110
  577MOL0     C76093   4.018   8.954   9.443  0.2811 -0.6566  0.9400
  577MOL0     C76094   3.931   9.074   9.412  0.9168 -0.2889  0.7874
  577MOL0     C76095   3.864   9.115   9.536 -0.9592 -0.6089 -0.4678
  577MOL0     C76096   3.811   9.161   9.635  0.7277 -0.7197  1.0789
  577MOL0     C76097   3.940   8.543   9.502  0.3011 -0.2138 -1.3020
  577MOL0     C76098   3.887   8.505   9.626 -0.8493 -0.4762 -0.3890
  577MOL0     H76099   4.015   8.279  10.023 -2.9573  1.7841 -1.4402
  577MOL0     H76100   4.025   8.179  10.240  0.7264  0.0107 -2.3935
  577MOL0     H76101   3.959   8.421  10.643 -1.2824 -0.1356 -0.5638
  577MOL0     H76102   4.117   8.427  10.551  1.2153 -1.5485  1.0117
  577MOL0     H76103   4.166   8.323  10.760 -1.4377 -1.6999  1.0417
  577MOL0     H76104   4.203   8.223  10.630 -1.2836 -0.1729 -2.0334
  577MOL0     H76105   4.122   8.111  10.809  0.4653  3.3254  1.9117
  577MOL0     H76106   4.029   8.078  10.661  0.8035  0.1138 -0.7652
  577MOL0     H76107   3.946   8.284  10.874  1.3334  0.0229 -1.1424
  577MOL0     H76108   3.831   8.197  10.755 -0.7711 -4.4997 -0.2999
  577MOL0     H76109   3.948   8.064  11.001 -1.4755 -0.8076  2.2304
  577MOL0     H76110   3.857   7.987  10.870 -0.0377 -0.8101 -0.5886
  577MOL0     H76111   3.673   8.153  10.914  1.0376  0.5032 -2.0643
  577MOL0     H76112   3.762   8.242  11.034  1.8122 -1.3337  1.5533
  577MOL0     H76113   3.751   7.937  11.060  1.7195 -0.2328  0.0979
  577MOL0     H76114   3.763   8.042  11.193 -2.1989  0.1158  1.1423
  577MOL0     H76115   3.539   7.949  11.194 -0.3494 -0.2831  1.2714
  577MOL0     H76116   3.517   8.014  11.026  1.9474 -0.1222 -0.7539
  577MOL0     H76117   3.576   8.155  11.379 -1.1317  1.6336  2.1380
  577MOL0     H76118   3.449   8.517  11.375  2.0066  0.5924 -1.2445
  577MOL0     H76119   3.579   8.439  11.444 -0.0035  1.7945  1.1292
  577MOL0     H76120   3.348   8.273  11.526 -2.3054  0.9743  0.2284
  577MOL0     H76121   3.314   8.444  11.561  1.7113  0.8067 -0.0543
  577MOL0     H76122   3.450   8.249  11.714  2.7067 -0.6085 -0.8308
  577MOL0     H76123   3.582   8.335  11.638  0.1127 -1.1286 -2.0399
  577MOL0     H76124   3.374   8.494  11.791  0.3625  0.3022  2.0741
  577MOL0     H76125   3.531   8.528  11.725  1.7481  0.6221  2.0561
  577MOL0     H76126   3.690   8.611  11.854 -1.2603 -0.7919  0.4667
  577MOL0     H76127   3.939   8.590  11.896 -0.8475  0.3773 -0.7249
  577MOL0     H76128   4.341   8.654  12.002 -0.1001  0.0340 -0.5461
  577MOL0     H76129   4.561   8.627  12.097 -0.9788  0.5499 -1.8010
  577MOL0     H76130   4.791   8.206  12.081  4.6543 -0.7410  0.0942
  577MOL0     H76131   4.733   8.268  12.240 -1.4556  1.0970 -1.7197
  577MOL0     H76132   4.969   8.249  12.221 -0.1912 -0.8791  0.3493
  577MOL0     H76133   4.934   8.411  12.265  3.0731 -4.2425  2.4433
  577MOL0     H76134   4.947   8.493  12.019 -1.3705 -1.0353 -1.9764
  577MOL0     H76135   4.989   8.332  11.961  0.1699  0.5731 -0.0541
  577MOL0     H76136   5.147   8.473  12.177 -1.5375  4.5582 -1.3503
  577MOL0     H76137   5.200   8.332  12.070 -1.2744 -0.2645  0.6921
  577MOL0     H76138   5.158   8.621  12.005  2.3685  0.7061  0.6884
  577MOL0     H76139   5.171   8.487  11.882  2.3210 -0.5515 -0.8975
  577MOL0     H76140   5.393   8.422  11.973  1.0515  0.7712 -1.9100
  577MOL0     H76141   5.385   8.583  12.064  0.2869  4.2874 -1.8601
  577MOL0     H76142   5.351   8.539  11.761 -0.2290  0.3715 -0.7184
  577MOL0     H76143   5.374   8.693  11.836  2.7255  0.1484 -3.0187
  577MOL0     H76144   5.559   8.609  11.719 -1.0101  0.2854 -1.1863
  577MOL0     H76145   5.549   8.466  11.815 -2.4765  0.0312 -1.8054
  577MOL0     H76146   4.540   8.202  12.021 -2.2458 -0.0707 -0.5465
  577MOL0     H76147   4.322   8.216  11.996  0.2438  0.0694 -2.0405
  577MOL0     H76148   3.871   8.190  12.016  1.7242  0.5199 -1.7230
  577MOL0     H76149   3.633   8.202  11.982 -0.5884  0.2650 -2.5618
  577MOL0     H76150   3.940   8.555  10.426 -3.9604 -1.9992  0.2366
  577MOL0     H76151   3.939   8.664  10.208  1.9543  0.3189  1.0724
  577MOL0     H76152   4.122   8.671   9.821  3.2467  3.2938 -3.1614
  577MOL0     H76153   4.192   8.752   9.635 -1.2738 -0.1238  4.2330
  577MOL0     H76154   4.237   8.767   9.275 -0.1463  1.0740 -0.8115
  577MOL0     H76155   4.251   8.799   9.441 -0.1617 -0.8971  1.2462
  577MOL0     H76156   4.183   8.985   9.294  2.0143 -1.8092  0.5694
  577MOL0     H76157   4.045   8.902   9.231 -0.0083  1.9296 -1.3229
  577MOL0     H76158   4.077   8.981   9.531 -0.2384  0.3595  0.9889
  577MOL0     H76159   3.935   8.888   9.471 -3.6075  2.4607 -2.1291
  577MOL0     H76160   3.991   9.160   9.378 -0.5280 -0.4232 -2.4738
  577MOL0     H76161   3.861   9.059   9.330  1.5667 -1.5818  0.4509
  577MOL0     H76162   3.763   9.197   9.724  1.3644 -0.0480  1.1611
  577MOL0     H76163   3.885   8.510   9.415 -2.8393 -1.3972  0.9259
  577MOL0     H76164   3.800   8.443   9.647 -1.1749 -0.9774 -2.9521
  578MOL0     O76165   4.180   6.747   0.735 -0.7524  0.1114  0.0829
  578MOL0     C76166   4.094   6.737   0.646 -0.6605 -0.9298 -1.1167
  578MOL0     O76167   4.025   6.842   0.601 -0.5479 -0.0835 -0.1757
  578MOL0     C76168   4.046   6.968   0.645  0.3391 -0.1312 -0.2806
  578MOL0     C76169   4.171   7.025   0.682  0.3885 -0.6057 -0.5300
  578MOL0     C76170   4.167   7.162   0.704 -0.4950  0.0677 -0.6407
  578MOL0     C76171   4.047   7.240   0.710 -0.5801 -0.2908 -0.1976
  578MOL0     O76172   4.061   7.374   0.750 -0.1639 -0.1038 -0.0350
  578MOL0     C76173   3.949   7.464   0.758 -0.5105  0.1584 -0.6071
  578MOL0     C76174   4.010   7.601   0.816 -0.6800 -0.7876 -0.1325
  578MOL0     C76175   3.882   7.680   0.845  0.6309  0.6260 -0.4177
  578MOL0     C76176   3.918   7.826   0.896 -0.2107 -0.3151 -0.6290
  578MOL0     C76177   3.802   7.900   0.960  0.9289  0.9749 -0.4716
  578MOL0     C76178   3.846   8.030   1.042  0.5464 -0.2695 -0.3003
  578MOL0     C76179   3.740   8.135   1.066 -0.1752  1.0734  0.0319
  578MOL0     C76180   3.696   8.224   0.943 -0.1159  0.8055  0.4781
  578MOL0     N76181   3.765   8.345   0.938  0.0760 -0.3796  0.9522
  578MOL0     C76182   3.886   8.378   0.874 -0.4935  0.9883  0.3681
  578MOL0     C76183   3.917   8.502   0.919 -0.4174  0.2347  0.1921
  578MOL0     C76184   4.050   8.575   0.900 -0.5328  0.7561  0.2224
  578MOL0     C76185   4.175   8.506   0.970  0.4098  0.3835 -0.6713
  578MOL0     C76186   4.166   8.480   1.121  0.2617 -0.0065 -0.1304
  578MOL0     C76187   4.065   8.373   1.170  0.8419 -0.2449  0.5932
  578MOL0     O76188   4.077   8.360   1.315 -0.1617 -0.7803 -0.1587
  578MOL0     C76189   4.025   8.468   1.376 -0.6785 -0.2991 -0.8054
  578MOL0     C76190   3.909   8.540   1.354  0.0810 -0.7213 -0.5568
  578MOL0     C76191   3.863   8.646   1.434  1.0854 -0.0200 -0.2088
  578MOL0     C76192   3.948   8.668   1.550  0.2554 -0.7927 -0.0339
  578MOL0     C76193   3.908   8.769   1.646 -0.9372  0.2129 -0.3314
  578MOL0     O76194   3.802   8.848   1.608  0.9927 -0.6956 -0.4668
  578MOL0     C76195   3.751   8.938   1.703  0.4796 -0.3714  0.0384
  578MOL0     C76196   3.814   9.054   1.755 -0.7956  0.2787  0.6375
  578MOL0     C76197   3.751   9.153   1.831  1.2313  0.3768 -0.6383
  578MOL0     C76198   3.620   9.116   1.869  1.3685  0.4037  0.9212
  578MOL0     O76199   3.562   9.202   1.952 -0.0172  1.0748 -0.1547
  578MOL0     C76200   3.489   9.155   2.057  0.0701  0.8727 -0.3872
  578MOL0     C76201   3.585   9.105   2.165  0.2437  0.2038  0.5586
  578MOL0     C76202   3.526   9.089   2.293  0.0758 -0.6074 -0.1001
  578MOL0     C76203   3.420   8.988   2.316  0.5217  0.7522  0.1930
  578MOL0     C76204   3.325   9.021   2.444  0.9641  0.1082 -1.4072
  578MOL0     C76205   3.401   9.095   2.556 -0.7151 -0.2622 -0.6799
  578MOL0     C76206   3.313   9.093   2.675  0.1731  0.7722 -0.3456
  578MOL0     C76207   3.355   9.190   2.782  0.6415  0.2133  0.1491
  578MOL0    Cl76208   3.513   9.163   2.846  0.0212  0.4013 -0.2617
  578MOL0     C76209   3.549   9.007   1.820 -0.8813  1.0063 -0.5918
  578MOL0     C76210   3.620   8.918   1.740  0.8877 -0.2570 -0.5679
  578MOL0     O76211   3.959   8.783   1.755  0.1856  0.1249 -0.0375
  578MOL0     C76212   4.068   8.602   1.573  0.0229  0.0415 -1.0713
  578MOL0     C76213   4.110   8.504   1.479  0.6390 -0.2610  1.1091
  578MOL0     N76214   3.794   8.546   0.986  0.1446 -0.6742 -0.0614
  578MOL0     N76215   3.719   8.449   1.005  0.3565  0.8124 -0.6533
  578MOL0     C76216   3.927   7.173   0.687  0.1601  0.7661  0.6134
  578MOL0     C76217   3.928   7.043   0.648 -0.1514  0.5133 -0.4573
  578MOL0     C76218   4.059   6.606   0.595  0.6786  0.3894  0.0930
  578MOL0     C76219   4.121   6.484   0.627 -0.6047  0.3356  0.0489
  578MOL0     C76220   4.080   6.373   0.554  0.4206 -0.0996  0.3112
  578MOL0     C76221   3.961   6.379   0.464 -0.2094 -0.7109 -0.5130
  578MOL0     O76222   3.940   6.258   0.400 -0.0166  0.1809  0.2325
  578MOL0     C76223   3.817   6.230   0.337 -0.0402 -0.1884  0.1525
  578MOL0     C76224   3.799   6.258   0.179 -0.5471  0.8342 -0.8732
  578MOL0     C76225   3.691   6.171   0.112  0.3970 -0.4234 -0.3069
  578MOL0     C76226   3.763   6.034   0.074 -0.4144 -0.5642  0.5846
  578MOL0     C76227   3.659   5.936   0.036 -0.5353 -0.2194  0.1412
  578MOL0     C76228   3.585   5.842   0.007 -0.6089 -0.4077  0.3289
  578MOL0     C76229   3.896   6.502   0.449 -0.2829  0.3818  1.0227
  578MOL0     C76230   3.951   6.616   0.507  0.7496  0.2877  0.0775
  578MOL0     H76231   4.270   6.980   0.678 -0.2785 -2.0640 -2.3881
  578MOL0     H76232   4.258   7.212   0.733 -1.4663  1.3900  0.2527
  578MOL0     H76233   3.870   7.427   0.825 -0.7488  0.7412 -0.5634
  578MOL0     H76234   3.905   7.476   0.659 -1.0881 -0.8179 -0.4900
  578MOL0     H76235   4.079   7.657   0.752 -1.4883 -1.0255 -1.2415
  578MOL0     H76236   4.062   7.563   0.904  2.3021 -1.8367 -2.1987
  578MOL0     H76237   3.812   7.636   0.917  1.5816 -0.7545 -0.2954
  578MOL0     H76238   3.824   7.695   0.752 -1.0606  2.3822  0.8359
  578MOL0     H76239   4.003   7.817   0.965 -0.2359 -1.4219 -0.7122
  578MOL0     H76240   3.945   7.893   0.814 -0.3217  1.2056  0.5390
  578MOL0     H76241   3.741   7.831   1.019  2.3856 -1.3128 -1.4814
  578MOL0     H76242   3.727   7.939   0.891  0.7877  2.1650  0.3299
  578MOL0     H76243   3.929   8.077   0.989  1.0653 -0.5342  0.2578
  578MOL0     H76244   3.879   7.999   1.142  0.3881  2.6272  0.7272
  578MOL0     H76245   3.656   8.078   1.106  1.7798 -0.0073  2.9884
  578MOL0     H76246   3.779   8.204   1.142 -1.9582  2.1770 -0.0007
  578MOL0     H76247   3.588   8.237   0.933 -0.9963 -4.4329  0.1059
  578MOL0     H76248   3.728   8.167   0.855  0.7583 -0.3424  1.5014
  578MOL0     H76249   3.948   8.307   0.820  0.6820  2.4781 -0.3376
  578MOL0     H76250   4.044   8.675   0.943  2.9523  0.2585  2.2804
  578MOL0     H76251   4.066   8.579   0.792  2.1435  1.4562  0.5835
  578MOL0     H76252   4.255   8.579   0.953 -0.1634  1.6134  1.4408
  578MOL0     H76253   4.184   8.408   0.923 -5.5154 -1.5560  1.2612
  578MOL0     H76254   4.263   8.453   1.164 -0.8710  0.2206  2.7719
  578MOL0     H76255   4.157   8.575   1.175 -1.3170 -1.0494  1.5271
  578MOL0     H76256   4.088   8.278   1.121 -0.9179 -1.0443  1.2117
  578MOL0     H76257   3.962   8.393   1.138  1.2639  1.3469  0.1576
  578MOL0     H76258   3.848   8.511   1.269  1.4861  2.2214 -2.7363
  578MOL0     H76259   3.772   8.698   1.404  0.2847 -2.7225 -3.0445
  578MOL0     H76260   3.918   9.071   1.731 -0.4123 -1.2851  1.0787
  578MOL0     H76261   3.808   9.244   1.843  2.3960  0.0513 -3.0428
  578MOL0     H76262   3.410   9.083   2.039  0.0524  0.7790  0.0633
  578MOL0     H76263   3.437   9.240   2.102  1.0948  0.5664  1.4774
  578MOL0     H76264   3.675   9.167   2.153  1.8763 -2.3361 -1.5978
  578MOL0     H76265   3.610   9.006   2.124 -2.7660 -0.5172  0.2508
  578MOL0     H76266   3.483   9.185   2.325 -1.2995 -1.4639  0.7401
  578MOL0     H76267   3.618   9.070   2.349  0.2311 -0.0100 -0.1433
  578MOL0     H76268   3.351   8.978   2.232 -0.3067  0.4113  0.8977
  578MOL0     H76269   3.477   8.894   2.317  0.2303  0.5411 -1.0323
  578MOL0     H76270   3.292   8.925   2.485 -0.9557  0.9111 -0.9505
  578MOL0     H76271   3.236   9.081   2.421  0.0698 -0.8030 -0.4572
  578MOL0     H76272   3.424   9.198   2.528  0.6720 -0.9702 -2.3611
  578MOL0     H76273   3.495   9.042   2.576 -0.8423 -0.4047 -0.4506
  578MOL0     H76274   3.209   9.120   2.651  1.1707  3.2065 -2.4111
  578MOL0     H76275   3.314   8.997   2.726  1.9790  2.0180  2.1524
  578MOL0     H76276   3.286   9.189   2.867 -0.0078 -1.2201 -0.3553
  578MOL0     H76277   3.347   9.293   2.746  2.9487  1.2801  2.3416
  578MOL0     H76278   3.447   8.984   1.853  0.7121 -1.3743  3.4721
  578MOL0     H76279   3.553   8.846   1.694 -0.9170  1.5429 -0.9099
  578MOL0     H76280   4.128   8.613   1.663 -1.7660 -2.1918  0.5355
  578MOL0     H76281   4.194   8.439   1.500 -1.1098 -2.1502  2.6642
  578MOL0     H76282   3.825   7.204   0.706  0.1475  0.1794  1.5736
  578MOL0     H76283   3.831   6.997   0.636 -1.9100  3.9262 -0.7265
  578MOL0     H76284   4.202   6.468   0.698 -1.0730 -0.1584  0.4787
  578MOL0     H76285   4.148   6.288   0.552  0.1489 -0.4510  2.6022
  578MOL0     H76286   3.738   6.275   0.397 -0.8081  0.4738 -1.3213
  578MOL0     H76287   3.795   6.123   0.343  0.7046 -0.7201 -3.9988
  578MOL0     H76288   3.793   6.366   0.163 -0.2766  0.7437 -1.6423
  578MOL0     H76289   3.898   6.245   0.135  0.5767  3.8145  0.4940
  578MOL0     H76290   3.657   6.218   0.019 -0.6870 -1.5475 -0.4954
  578MOL0     H76291   3.612   6.155   0.185  0.0718 -1.3649 -0.8399
  578MOL0     H76292   3.841   6.051  -0.000 -0.9323  0.3199  0.2269
  578MOL0     H76293   3.798   5.998   0.171  0.4308 -1.0762  0.0906
  578MOL0     H76294   3.532   5.757  -0.031 -1.6923  0.2182  0.3933
  578MOL0     H76295   3.816   6.520   0.379  2.1779  0.3363 -2.0252
  578MOL0     H76296   3.906   6.709   0.474  0.2028 -0.4599 -1.4341
  579MOL0     O76297   3.770   4.857  10.390 -0.2253  0.0185 -0.3474
  579MOL0     C76298   3.827   4.959  10.348  0.5652 -0.6339 -0.5974
  579MOL0     O76299   3.768   5.078  10.310 -0.7535  0.7446 -0.6234
  579MOL0     C76300   3.633   5.081  10.330  0.3829 -0.1562 -0.5619
  579MOL0     C76301   3.533   5.084  10.232 -1.0607 -1.3317 -1.1984
  579MOL0     C76302   3.397   5.126  10.267  0.1439 -0.2336 -0.8650
  579MOL0     C76303   3.357   5.142  10.404  0.0229 -0.6375 -0.1154
  579MOL0     O76304   3.232   5.184  10.441 -0.0300  0.2340  0.1680
  579MOL0     C76305   3.115   5.109  10.397 -0.2935  0.4778 -0.1708
  579MOL0     C76306   2.998   5.165  10.476  0.1468  0.0345 -0.4010
  579MOL0     C76307   2.856   5.123  10.439 -1.0634  0.4386  0.3052
  579MOL0     C76308   2.765   5.125  10.549 -0.0661 -0.1103 -0.6607
  579MOL0     C76309   2.719   5.260  10.603  0.8151 -0.1989  0.3289
  579MOL0     C76310   2.606   5.249  10.713 -0.8023 -0.4115  0.2780
  579MOL0     C76311   2.594   5.386  10.789  0.5886 -1.0696 -0.7034
  579MOL0     C76312   2.524   5.500  10.726  0.2562  0.6918 -0.0536
  579MOL0     N76313   2.381   5.469  10.690 -0.1562  0.3824 -1.2571
  579MOL0     C76314   2.271   5.505  10.771  0.5021  1.2782  0.0105
  579MOL0     C76315   2.164   5.509  10.681  0.2072  0.7780 -0.1274
  579MOL0     C76316   2.031   5.553  10.715  0.2387 -0.8342  0.7429
  579MOL0     C76317   1.924   5.464  10.647  0.6168  0.1607  0.2780
  579MOL0     C76318   1.914   5.324  10.713 -0.1709 -0.0005  0.3776
  579MOL0     C76319   1.788   5.246  10.659 -0.3565 -0.7699  0.3883
  579MOL0     O76320   1.665   5.307  10.710 -0.3616  0.3076  0.7038
  579MOL0     C76321   1.631   5.272  10.838 -0.1896 -0.0507  0.2321
  579MOL0     C76322   1.678   5.153  10.895 -0.2176 -0.8480 -0.4981
  579MOL0     C76323   1.636   5.128  11.027 -0.4318  0.0146  0.9189
  579MOL0     C76324   1.544   5.213  11.091 -0.0952 -0.2647 -1.0910
  579MOL0     C76325   1.500   5.177  11.224  0.5821  0.3794  0.1552
  579MOL0     O76326   1.544   5.063  11.291 -0.0325 -0.8783 -0.5665
  579MOL0     C76327   1.485   5.025  11.404 -0.0657 -0.1077 -0.3271
  579MOL0     C76328   1.358   5.034  11.448 -0.4440  0.7157  0.4655
  579MOL0     C76329   1.322   4.970  11.560  0.6967 -0.1156  0.2106
  579MOL0     C76330   1.405   4.883  11.632 -0.8524  0.3372 -0.7492
  579MOL0     O76331   1.350   4.811  11.730  0.8849 -0.0429 -0.2393
  579MOL0     C76332   1.441   4.755  11.833  0.3976 -0.1868  0.3208
  579MOL0     C76333   1.384   4.653  11.934  1.2997  0.5192  0.1176
  579MOL0     C76334   1.311   4.526  11.871  0.6625  0.5231  0.7971
  579MOL0     C76335   1.311   4.399  11.964 -0.1653  0.2836 -0.0519
  579MOL0     C76336   1.275   4.277  11.873  0.1837  0.0453 -0.1006
  579MOL0     C76337   1.401   4.223  11.799 -0.3053  0.0182  0.9035
  579MOL0     C76338   1.514   4.164  11.895 -0.9341 -0.1133  0.9858
  579MOL0     C76339   1.479   4.058  12.006  0.4875 -0.4275  1.1994
  579MOL0    Cl76340   1.628   4.014  12.092 -0.3121  0.2769  0.0243
  579MOL0     C76341   1.542   4.891  11.591 -0.4234  0.2057  0.0580
  579MOL0     C76342   1.579   4.959  11.475 -0.1385  0.2935 -0.7526
  579MOL0     O76343   1.432   5.263  11.275 -0.0061  0.1899  0.2008
  579MOL0     C76344   1.492   5.330  11.029  0.1825  0.2519  0.1143
  579MOL0     C76345   1.533   5.356  10.898 -0.1675 -0.1340 -0.7753
  579MOL0     N76346   2.212   5.471  10.556  0.0845 -0.2163 -0.5515
  579MOL0     N76347   2.338   5.452  10.563 -0.2795 -0.1384 -0.3710
  579MOL0     C76348   3.457   5.126  10.496 -0.0228 -0.9175  0.2485
  579MOL0     C76349   3.590   5.105  10.461 -0.8531  0.7925  0.4487
  579MOL0     C76350   3.972   4.969  10.362  0.1975 -0.0707  0.3518
  579MOL0     C76351   4.039   5.072  10.287  0.7420  0.8861  0.5779
  579MOL0     C76352   4.171   5.087  10.292 -0.1183  0.3907 -0.3721
  579MOL0     C76353   4.249   4.995  10.378  0.3300 -0.1256  0.1850
  579MOL0     O76354   4.382   5.023  10.394 -0.4292 -0.2967  0.4463
  579MOL0     C76355   4.492   4.928  10.389 -0.3652  0.3732 -0.7674
  579MOL0     C76356   4.612   4.995  10.430 -0.4634  0.0585  0.2946
  579MOL0     C76357   4.740   4.901  10.417  1.0886 -0.0644 -0.1280
  579MOL0     C76358   4.866   4.986  10.446  0.2134  0.7788 -0.5515
  579MOL0     C76359   4.994   4.919  10.462  0.1501  0.0921  0.0373
  579MOL0     C76360   5.091   4.846  10.480 -0.6186 -0.4362  0.1265
  579MOL0     C76361   4.189   4.885  10.429 -0.3830  1.1044  0.8417
  579MOL0     C76362   4.060   4.875  10.427  0.2871  0.4658 -1.0408
  579MOL0     H76363   3.577   5.077  10.134 -0.0684  0.1037 -0.8927
  579MOL0     H76364   3.324   5.152  10.192 -0.0099  0.0720 -0.6122
  579MOL0     H76365   3.117   5.001  10.417 -3.8617  0.1492 -0.9030
  579MOL0     H76366   3.088   5.133  10.294  0.9152  3.9070  0.1765
  579MOL0     H76367   3.002   5.268  10.439  0.2156  0.6319  1.1850
  579MOL0     H76368   3.010   5.154  10.584  0.4111 -2.9318 -0.6679
  579MOL0     H76369   2.859   5.026  10.389 -0.7296  0.0928  0.9692
  579MOL0     H76370   2.820   5.191  10.362 -0.9149 -1.7743 -1.8489
  579MOL0     H76371   2.667   5.079  10.532 -0.7371 -0.4539  3.2299
  579MOL0     H76372   2.806   5.066  10.632  0.5764 -0.6042 -1.3155
  579MOL0     H76373   2.683   5.323  10.521 -0.1018 -0.0930  0.8097
  579MOL0     H76374   2.807   5.302  10.653  1.5976 -2.2411  0.7719
  579MOL0     H76375   2.642   5.168  10.778  0.8705  0.7914  0.9195
  579MOL0     H76376   2.515   5.219  10.661 -0.8120 -2.5056  1.3990
  579MOL0     H76377   2.535   5.362  10.878  1.6433  2.2056  1.0332
  579MOL0     H76378   2.692   5.416  10.828 -0.4465 -0.0378  1.2545
  579MOL0     H76379   2.567   5.521  10.628 -1.9318 -2.7722 -1.9608
  579MOL0     H76380   2.535   5.590  10.787  0.9344  0.6729 -0.1468
  579MOL0     H76381   2.268   5.531  10.876  0.9025 -1.9242  0.9191
  579MOL0     H76382   2.028   5.657  10.681  3.4559 -0.5739  0.9834
  579MOL0     H76383   2.020   5.541  10.823 -0.9472 -0.4260  0.6865
  579MOL0     H76384   1.936   5.456  10.538  4.7060  2.3746  0.3679
  579MOL0     H76385   1.827   5.515  10.652  1.9083  2.6649  1.2663
  579MOL0     H76386   2.009   5.271  10.698 -0.4700 -0.5059  0.2447
  579MOL0     H76387   1.899   5.340  10.820 -0.7985  4.7295 -0.1835
  579MOL0     H76388   1.803   5.139  10.676 -0.7122 -1.1947 -1.7201
  579MOL0     H76389   1.791   5.257  10.550 -2.7333  1.8369  0.4866
  579MOL0     H76390   1.746   5.079  10.856 -0.5554 -1.2618 -0.3084
  579MOL0     H76391   1.688   5.045  11.074 -0.5147  1.3993  3.6563
  579MOL0     H76392   1.291   5.094  11.387  0.1755  0.8952 -0.0508
  579MOL0     H76393   1.218   4.978  11.592 -0.5801 -3.1066 -2.5510
  579MOL0     H76394   1.501   4.833  11.880 -0.3731  2.0829 -2.2146
  579MOL0     H76395   1.511   4.695  11.774 -0.0143 -1.0204  0.6592
  579MOL0     H76396   1.310   4.707  11.994 -0.4790  0.9136 -2.3027
  579MOL0     H76397   1.471   4.629  11.996 -0.2855 -1.7432  1.6188
  579MOL0     H76398   1.369   4.502  11.782  1.1070 -0.0822  1.2443
  579MOL0     H76399   1.210   4.551  11.837  1.1412  3.7048  1.3780
  579MOL0     H76400   1.408   4.385  12.012 -0.7138  1.2752  1.3967
  579MOL0     H76401   1.238   4.409  12.045 -2.9153  0.6887 -2.4111
  579MOL0     H76402   1.202   4.301  11.795 -1.0062 -0.0200  0.9667
  579MOL0     H76403   1.237   4.200  11.941  3.3476 -2.3379 -0.7843
  579MOL0     H76404   1.446   4.302  11.738 -0.8089 -0.8480 -0.6369
  579MOL0     H76405   1.361   4.149  11.728  1.3190 -0.1718  0.1215
  579MOL0     H76406   1.589   4.110  11.836 -0.8653 -0.5772  1.4837
  579MOL0     H76407   1.573   4.242  11.943 -1.9185  1.1842  0.1563
  579MOL0     H76408   1.431   3.968  11.967  3.6285 -2.7126  2.2924
  579MOL0     H76409   1.407   4.116  12.065 -3.0660 -1.5166 -1.6647
  579MOL0     H76410   1.619   4.840  11.648  2.5072  1.6025 -2.4142
  579MOL0     H76411   1.685   4.955  11.454  0.4161 -0.2173  1.7646
  579MOL0     H76412   1.425   5.396  11.083  0.5622 -0.1936  1.1453
  579MOL0     H76413   1.516   5.456  10.860 -1.4002 -0.5052 -1.2447
  579MOL0     H76414   3.441   5.145  10.602 -0.7658  0.3554 -0.0672
  579MOL0     H76415   3.666   5.094  10.538  0.6805  5.3749 -0.1027
  579MOL0     H76416   3.982   5.145  10.231 -0.8704 -0.8215 -0.0977
  579MOL0     H76417   4.218   5.170  10.239 -1.3628 -0.4561 -2.9932
  579MOL0     H76418   4.507   4.883  10.290  0.3177  0.2834 -0.6284
  579MOL0     H76419   4.467   4.839  10.449 -1.9715 -0.1037 -2.0682
  579MOL0     H76420   4.627   5.079  10.362  0.4132 -0.7595 -0.5566
  579MOL0     H76421   4.596   5.014  10.537 -0.2084 -0.4488  0.4250
  579MOL0     H76422   4.745   4.857  10.318 -0.0065 -0.2989 -0.0892
  579MOL0     H76423   4.733   4.823  10.493 -0.4056 -1.3621 -1.5380
  579MOL0     H76424   4.871   5.056  10.361 -0.8229 -0.3175 -1.5502
  579MOL0     H76425   4.853   5.051  10.533  0.8469  1.3493 -0.8687
  579MOL0     H76426   5.180   4.795  10.509 -1.1195 -1.3939 -0.0109
  579MOL0     H76427   4.258   4.814  10.475  1.7606  1.0592 -2.1385
  579MOL0     H76428   4.017   4.805  10.497 -2.9656  2.1274 -1.1962
  580MOL0     O76429  10.916   5.829   7.985 -0.2293  0.1467  0.2942
  580MOL0     C76430  10.924   5.948   7.957 -0.3133  0.4084 -0.5221
  580MOL0     O76431  10.859   6.020   7.856  0.2413 -0.4307 -0.3118
  580MOL0     C76432  10.746   5.970   7.797  0.1600  0.3279  0.4477
  580MOL0     C76433  10.626   5.940   7.860  0.3632  0.8210 -0.3285
  580MOL0     C76434  10.511   5.894   7.791  0.6880 -0.0461 -1.4495
  580MOL0     C76435  10.510   5.884   7.656 -0.5916  0.3538 -0.4477
  580MOL0     O76436  10.405   5.817   7.593 -0.0836 -0.8842  0.1341
  580MOL0     C76437  10.275   5.896   7.595 -0.4491 -0.3719  0.2187
  580MOL0     C76438  10.165   5.830   7.525  0.6733  0.3237 -0.4748
  580MOL0     C76439  10.098   5.726   7.620  0.0871 -0.2978 -0.2362
  580MOL0     C76440  10.008   5.627   7.540  0.0974 -0.2011 -0.0428
  580MOL0     C76441   9.951   5.513   7.639 -0.1753 -0.1949  0.0707
  580MOL0     C76442   9.846   5.437   7.565 -0.4900 -1.0763 -0.7663
  580MOL0     C76443   9.770   5.345   7.662 -0.1530 -0.0267 -0.7657
  580MOL0     C76444   9.729   5.217   7.602  0.3966  0.5587 -0.2717
  580MOL0     N76445   9.651   5.143   7.709 -0.1610 -0.0691 -0.1999
  580MOL0     C76446   9.706   5.068   7.811  0.0366 -0.1554 -0.3482
  580MOL0     C76447   9.603   4.990   7.862  0.0824 -0.0186  0.5183
  580MOL0     C76448   9.585   4.891   7.966  0.0251 -0.1435  0.1745
  580MOL0     C76449   9.652   4.947   8.097  0.7349 -0.0582 -0.1858
  580MOL0     C76450   9.590   4.892   8.228 -0.0373 -0.2022  0.4025
  580MOL0     C76451   9.665   4.942   8.350  0.3500  0.8885 -0.2910
  580MOL0     O76452   9.802   4.886   8.357  0.1766 -0.3593 -0.0934
  580MOL0     C76453   9.908   4.971   8.326  0.0924  0.0767 -0.9705
  580MOL0     C76454  10.021   4.897   8.267 -0.2189  0.1747 -1.2839
  580MOL0     C76455  10.140   4.961   8.255 -0.3989  1.2734  0.1878
  580MOL0     C76456  10.156   5.100   8.281 -0.1307  0.0848 -0.5094
  580MOL0     C76457  10.288   5.171   8.247 -0.6377 -0.1074  0.0561
  580MOL0     O76458  10.372   5.102   8.162 -0.2096 -0.1375 -0.0382
  580MOL0     C76459  10.508   5.136   8.160  0.0318 -0.8766 -0.1730
  580MOL0     C76460  10.584   5.143   8.283  0.8214  0.7339 -0.0678
  580MOL0     C76461  10.719   5.176   8.281  0.5209  0.2121  0.2244
  580MOL0     C76462  10.787   5.177   8.165  0.4314 -0.1551  0.3492
  580MOL0     O76463  10.926   5.185   8.156  0.2019  0.6987 -0.5993
  580MOL0     C76464  10.976   5.301   8.094  1.0363 -0.6973 -0.2429
  580MOL0     C76465  11.095   5.357   8.167  0.1848  0.1901 -0.4461
  580MOL0     C76466  11.138   5.486   8.109  0.5269  0.1674 -0.9061
  580MOL0     C76467  11.268   5.522   8.187  0.5871 -0.3495  0.5128
  580MOL0     C76468  11.298   5.669   8.180 -0.0013  0.2873  0.7454
  580MOL0     C76469  11.353   5.717   8.047 -0.3794 -0.0471  0.5938
  580MOL0     C76470  11.504   5.686   8.027  0.4667  0.2596 -0.6997
  580MOL0     C76471  11.555   5.655   7.885  0.7053  0.4947 -0.4459
  580MOL0    Cl76472  11.531   5.802   7.794  0.0707 -0.2790  0.6721
  580MOL0     C76473  10.717   5.163   8.048 -0.8559 -0.3758  0.9167
  580MOL0     C76474  10.574   5.157   8.040 -0.6126  0.2401  0.0599
  580MOL0     O76475  10.304   5.281   8.305  0.3889 -0.2420  0.4223
  580MOL0     C76476  10.052   5.170   8.332  0.4087  0.1263 -0.3734
  580MOL0     C76477   9.929   5.101   8.364 -0.4474 -0.0678  0.6906
  580MOL0     N76478   9.494   5.012   7.787 -0.1621  0.2113  0.2560
  580MOL0     N76479   9.523   5.094   7.692  0.5513 -0.0346 -0.3761
  580MOL0     C76480  10.637   5.897   7.593  1.8181  1.1277  0.2105
  580MOL0     C76481  10.751   5.940   7.663 -0.1244 -0.2607  0.2959
  580MOL0     C76482  11.022   6.034   8.021  0.4309  0.7925  0.1162
  580MOL0     C76483  11.039   6.166   7.979 -0.5329  0.1315  0.1738
  580MOL0     C76484  11.146   6.243   8.037  0.8096  0.4905  0.1438
  580MOL0     C76485  11.231   6.185   8.132  0.2003  0.5495 -0.5757
  580MOL0     O76486  11.346   6.238   8.184 -0.2960  0.1608  0.1540
  580MOL0     C76487  11.447   6.259   8.093  0.0082  0.4554  0.3896
  580MOL0     C76488  11.461   6.159   7.977  0.9034 -0.2237 -0.8428
  580MOL0     C76489  11.580   6.177   7.882  0.5003  0.1279 -0.3343
  580MOL0     C76490  11.579   6.303   7.799  0.5472 -0.7063 -0.3300
  580MOL0     C76491  11.462   6.310   7.705 -0.4081 -0.4020 -0.3850
  580MOL0     C76492  11.382   6.311   7.615 -0.2164 -0.0455  0.8178
  580MOL0     C76493  11.201   6.056   8.178  0.0558 -0.5415  0.4193
  580MOL0     C76494  11.092   5.984   8.127 -0.5544  0.7926  0.4911
  580MOL0     H76495  10.627   5.949   7.968  2.4260  0.7055 -0.2872
  580MOL0     H76496  10.416   5.873   7.839  0.9213  0.2745 -0.8308
  580MOL0     H76497  10.280   5.991   7.541 -1.0631  1.2897  2.8870
  580MOL0     H76498  10.251   5.926   7.698 -1.9448 -0.1040 -0.1902
  580MOL0     H76499  10.200   5.774   7.438 -1.3675 -1.2687 -0.3789
  580MOL0     H76500  10.078   5.888   7.494 -1.2124 -1.6521  0.8106
  580MOL0     H76501  10.056   5.780   7.705  0.0396  4.0149 -2.7323
  580MOL0     H76502  10.174   5.657   7.660 -2.2007 -3.0693 -0.3266
  580MOL0     H76503   9.930   5.692   7.498 -0.5887 -0.5026  0.7392
  580MOL0     H76504  10.071   5.583   7.461 -0.5435 -0.4867 -0.4009
  580MOL0     H76505   9.913   5.561   7.729  2.2431 -0.1539  1.1506
  580MOL0     H76506  10.033   5.452   7.678 -0.6232 -0.4815  0.5588
  580MOL0     H76507   9.906   5.376   7.497  0.7574 -1.5310  0.6795
  580MOL0     H76508   9.778   5.493   7.501 -1.4672 -3.0046 -1.4974
  580MOL0     H76509   9.833   5.332   7.750 -0.3894  2.1163 -0.2251
  580MOL0     H76510   9.678   5.396   7.695 -1.0983 -1.3567 -1.2556
  580MOL0     H76511   9.814   5.157   7.570 -0.3861 -0.5775 -0.2823
  580MOL0     H76512   9.671   5.248   7.515 -1.2850  0.7765  0.8697
  580MOL0     H76513   9.807   5.075   7.849 -0.9064  0.8638  2.1433
  580MOL0     H76514   9.631   4.797   7.937 -0.7058 -0.6994  0.7883
  580MOL0     H76515   9.479   4.872   7.982  0.0479 -0.9627 -0.5891
  580MOL0     H76516   9.641   5.055   8.105  0.9273  0.0165 -0.8359
  580MOL0     H76517   9.759   4.924   8.099  0.9881  1.0393  2.2430
  580MOL0     H76518   9.491   4.938   8.219  0.5615  0.6704 -2.9437
  580MOL0     H76519   9.568   4.785   8.234 -2.2934  0.2280  1.0385
  580MOL0     H76520   9.609   4.896   8.432 -1.3492 -1.9682 -2.8218
  580MOL0     H76521   9.656   5.050   8.359  0.8089  0.7405  3.2779
  580MOL0     H76522  10.024   4.791   8.241  2.7952 -0.5565  1.3980
  580MOL0     H76523  10.218   4.907   8.202 -0.5672  1.8235 -0.6354
  580MOL0     H76524  10.526   5.128   8.373  0.3718 -3.4407 -0.8506
  580MOL0     H76525  10.773   5.185   8.375 -1.4025  0.6042  1.3439
  580MOL0     H76526  10.895   5.374   8.092 -1.5818 -3.3654  1.2318
  580MOL0     H76527  11.022   5.277   7.998 -0.8397  0.4349 -1.4804
  580MOL0     H76528  11.171   5.279   8.165  1.2321  0.8576  3.6833
  580MOL0     H76529  11.067   5.363   8.273  1.4458  0.8457 -0.1280
  580MOL0     H76530  11.058   5.560   8.121  0.2911  0.1427 -2.2695
  580MOL0     H76531  11.153   5.485   8.001 -2.2262  0.5275 -1.3624
  580MOL0     H76532  11.252   5.496   8.293  2.2204  3.1455  1.7786
  580MOL0     H76533  11.357   5.464   8.161  2.7105  2.2259  1.6028
  580MOL0     H76534  11.379   5.688   8.251  1.6197 -1.2750 -0.5914
  580MOL0     H76535  11.212   5.728   8.213 -0.2163  0.6658 -0.4363
  580MOL0     H76536  11.336   5.825   8.049 -1.3391 -0.1323  4.8713
  580MOL0     H76537  11.290   5.670   7.970 -0.5310  1.1333 -0.0353
  580MOL0     H76538  11.555   5.770   8.076 -0.4822  1.3239 -1.4871
  580MOL0     H76539  11.526   5.595   8.084  5.4933  0.1662 -2.2717
  580MOL0     H76540  11.484   5.582   7.844 -0.6006 -0.2680  2.8477
  580MOL0     H76541  11.656   5.614   7.878  0.8012  0.5218  0.6022
  580MOL0     H76542  10.761   5.172   7.950 -2.4492 -2.0919 -0.0230
  580MOL0     H76543  10.523   5.134   7.947 -3.3063  1.4667  1.1182
  580MOL0     H76544  10.052   5.279   8.337  0.8695  0.0912  0.4932
  580MOL0     H76545   9.855   5.161   8.417  1.6008 -0.1075  3.8716
  580MOL0     H76546  10.645   5.877   7.486 -1.4646  1.6068 -0.2172
  580MOL0     H76547  10.840   5.959   7.603  1.8022 -2.2557  2.2964
  580MOL0     H76548  10.973   6.221   7.913 -2.4959  0.9472  2.6696
  580MOL0     H76549  11.163   6.342   7.997 -1.6552  0.7097 -0.5172
  580MOL0     H76550  11.544   6.273   8.142  0.8743  3.9902 -1.8743
  580MOL0     H76551  11.429   6.347   8.030 -0.0426 -1.6110 -2.7301
  580MOL0     H76552  11.458   6.057   8.016 -2.4526 -0.7970 -2.2718
  580MOL0     H76553  11.370   6.170   7.918 -0.7265  0.1171  1.5692
  580MOL0     H76554  11.574   6.101   7.804  1.9740  2.9806 -3.4585
  580MOL0     H76555  11.674   6.177   7.938  0.3930  2.2583 -0.0483
  580MOL0     H76556  11.565   6.388   7.867  0.3435 -0.4582 -0.6809
  580MOL0     H76557  11.670   6.311   7.738  3.1161 -1.2993  3.0669
  580MOL0     H76558  11.318   6.322   7.530 -1.6307  0.6495  1.9282
  580MOL0     H76559  11.269   6.009   8.248 -0.1906 -1.6316 -0.0648
  580MOL0     H76560  11.077   5.883   8.163 -2.4898 -0.0264 -2.2096
  581MOL0     O76561   0.993   1.382   0.085 -0.1805  0.2559  0.5225
  581MOL0     C76562   0.909   1.340   0.163  0.0106 -0.6374  0.2099
  581MOL0     O76563   0.942   1.301   0.290  1.3590 -0.4076  0.2195
  581MOL0     C76564   1.071   1.299   0.334 -0.2799 -0.2644  0.1455
  581MOL0     C76565   1.082   1.281   0.472  1.0785 -0.8914 -0.0550
  581MOL0     C76566   1.209   1.271   0.531  0.2644  0.6801 -0.2056
  581MOL0     C76567   1.327   1.271   0.456  0.7807 -0.6838  0.0626
  581MOL0     O76568   1.454   1.266   0.508  0.2283  0.2952  0.0373
  581MOL0     C76569   1.465   1.241   0.653 -0.9960  0.1581  0.3483
  581MOL0     C76570   1.614   1.205   0.670 -0.1443  1.1023  0.5301
  581MOL0     C76571   1.636   1.070   0.604 -0.2414  0.0612  0.4258
  581MOL0     C76572   1.777   1.019   0.640  0.1065  0.0996 -0.2996
  581MOL0     C76573   1.775   0.901   0.748  0.5570  0.4599  0.1325
  581MOL0     C76574   1.735   0.951   0.882  0.0556 -0.6137  0.1807
  581MOL0     C76575   1.754   0.838   0.977  0.1242  0.9339  0.2113
  581MOL0     C76576   1.898   0.840   1.030  0.2974  0.3644 -0.8413
  581MOL0     N76577   1.918   0.746   1.145  0.4650  0.0944 -0.3915
  581MOL0     C76578   2.028   0.670   1.176  0.8119  1.3215 -0.6000
  581MOL0     C76579   1.984   0.587   1.270 -0.6447 -0.2552 -0.6731
  581MOL0     C76580   2.061   0.481   1.332  0.4714  0.2765  0.3668
  581MOL0     C76581   1.977   0.403   1.434 -0.5426 -1.2973 -0.5573
  581MOL0     C76582   2.056   0.293   1.501  0.0042  0.4107 -0.3260
  581MOL0     C76583   2.170   0.326   1.596  0.3167  0.0472  0.1688
  581MOL0     O76584   2.227   0.217   1.665 -0.1395  0.3229  0.2114
  581MOL0     C76585   2.171   0.179   1.788  0.3573 -0.8621  1.2155
  581MOL0     C76586   2.234   0.228   1.904 -0.3367  0.8560  0.2349
  581MOL0     C76587   2.190   0.213   2.034  0.1831 -0.0885  0.4992
  581MOL0     C76588   2.064   0.149   2.045 -0.0554  0.5908  0.2958
  581MOL0     C76589   2.011   0.148   2.182  0.4999  0.5882  1.3957
  581MOL0     O76590   2.062   0.241   2.270  0.2917 -0.9274  0.5258
  581MOL0     C76591   1.987   0.323   2.355 -0.3771  0.0547  0.3468
  581MOL0     C76592   1.855   0.343   2.346  0.2508 -0.3325 -0.9927
  581MOL0     C76593   1.789   0.442   2.430  0.1520  0.4443  0.0696
  581MOL0     C76594   1.854   0.504   2.535  0.6881 -0.4195  0.5743
  581MOL0     O76595   1.795   0.600   2.617  0.9692 -0.2266 -0.0414
  581MOL0     C76596   1.880   0.715   2.662 -0.1821 -0.4307 -0.5141
  581MOL0     C76597   1.808   0.805   2.764  1.3772  0.2031 -0.3527
  581MOL0     C76598   1.680   0.883   2.703 -0.8728  0.4957  0.0649
  581MOL0     C76599   1.614   0.951   2.829  1.4293  0.0419 -0.2811
  581MOL0     C76600   1.509   1.061   2.808 -0.3000  0.4109  0.8583
  581MOL0     C76601   1.468   1.143   2.936  0.2908  0.8559  0.8042
  581MOL0     C76602   1.391   1.268   2.909 -0.7440 -0.5726  0.0857
  581MOL0     C76603   1.269   1.273   2.816  0.7088  0.6141 -0.1548
  581MOL0    Cl76604   1.203   1.440   2.784 -0.2805  0.4977  0.0927
  581MOL0     C76605   1.988   0.473   2.551  0.6439 -1.0288 -0.2905
  581MOL0     C76606   2.050   0.394   2.453 -0.2414  0.4687 -0.4030
  581MOL0     O76607   1.908   0.085   2.205 -0.6160  0.0547  0.0023
  581MOL0     C76608   2.005   0.084   1.935  0.3502 -1.6624 -0.4286
  581MOL0     C76609   2.049   0.106   1.804  0.1944  0.2765  0.8298
  581MOL0     N76610   1.851   0.615   1.294  0.7216 -0.0293  1.3212
  581MOL0     N76611   1.822   0.724   1.233  0.4956  0.5365  0.8390
  581MOL0     C76612   1.316   1.288   0.315  0.2939 -0.1351 -0.8012
  581MOL0     C76613   1.193   1.287   0.250 -0.3939 -0.2693  0.4262
  581MOL0     C76614   0.780   1.312   0.112  0.3404 -0.3915  0.4279
  581MOL0     C76615   0.742   1.364  -0.005  1.1259 -0.8416  0.8273
  581MOL0     C76616   0.614   1.346  -0.056 -0.0860 -0.3082  0.8859
  581MOL0     C76617   0.517   1.272   0.014 -0.2428 -1.1764  0.5859
  581MOL0     O76618   0.392   1.244  -0.036  0.2346 -0.3927 -0.5379
  581MOL0     C76619   0.349   1.318  -0.151 -1.0239  0.3156  0.8088
  581MOL0     C76620   0.216   1.261  -0.203 -0.4061 -0.0590  0.1781
  581MOL0     C76621   0.210   1.103  -0.219 -0.3542 -0.7289  0.5351
  581MOL0     C76622   0.070   1.067  -0.262  0.1529  0.2677 -0.3628
  581MOL0     C76623   0.055   0.928  -0.252  0.2309  0.3339 -0.8198
  581MOL0     C76624   0.051   0.808  -0.242 -0.1064  0.6230 -0.4298
  581MOL0     C76625   0.551   1.221   0.138 -0.2476 -0.2995  0.2279
  581MOL0     C76626   0.686   1.240   0.189 -0.0739 -0.1966 -0.4372
  581MOL0     H76627   0.991   1.292   0.530  1.3130  4.4490 -0.2092
  581MOL0     H76628   1.202   1.248   0.637 -1.3576 -3.4515 -1.0002
  581MOL0     H76629   1.398   1.164   0.693 -0.4352 -1.1080 -1.0579
  581MOL0     H76630   1.450   1.333   0.710 -1.5866 -0.7942  1.7696
  581MOL0     H76631   1.642   1.211   0.775 -1.5836  0.0160  1.0043
  581MOL0     H76632   1.678   1.280   0.623  1.1879  1.1052  2.2732
  581MOL0     H76633   1.635   1.075   0.494  0.3721  4.8076  0.4251
  581MOL0     H76634   1.573   0.989   0.641 -0.3219  1.5907  4.0198
  581MOL0     H76635   1.828   0.974   0.554  1.2768 -0.1271  0.4856
  581MOL0     H76636   1.844   1.101   0.667  1.4132  0.4428 -3.9292
  581MOL0     H76637   1.877   0.860   0.750  0.8194  0.9969 -0.9827
  581MOL0     H76638   1.715   0.815   0.718  1.5969 -0.3017  0.1623
  581MOL0     H76639   1.628   0.970   0.871 -0.2030 -1.5739  0.8340
  581MOL0     H76640   1.790   1.041   0.910 -0.3473 -0.0668 -0.7740
  581MOL0     H76641   1.683   0.853   1.060  0.1127 -2.9838  1.0963
  581MOL0     H76642   1.730   0.743   0.928 -1.6035  0.9379  0.9647
  581MOL0     H76643   1.937   0.940   1.053  3.0564 -0.6910 -0.4809
  581MOL0     H76644   1.969   0.805   0.955 -1.3148  1.3628 -2.9191
  581MOL0     H76645   2.124   0.678   1.126  1.2836  2.2423  0.4142
  581MOL0     H76646   2.145   0.537   1.373 -0.4124  0.9682  1.2668
  581MOL0     H76647   2.102   0.412   1.257  1.6633  0.9897  0.3296
  581MOL0     H76648   1.891   0.357   1.383 -1.0245 -3.1825  1.7449
  581MOL0     H76649   1.943   0.472   1.512  1.4149  1.5164 -2.0528
  581MOL0     H76650   1.983   0.245   1.567  0.7996  2.8883  2.5936
  581MOL0     H76651   2.091   0.226   1.422 -2.4955 -0.9380 -0.3838
  581MOL0     H76652   2.142   0.398   1.673  1.6177  0.3459  0.3948
  581MOL0     H76653   2.248   0.378   1.540  2.2337 -0.6567  2.0266
  581MOL0     H76654   2.331   0.278   1.897  2.2742 -3.3950  1.9806
  581MOL0     H76655   2.244   0.258   2.116  1.7395  2.7020 -1.8487
  581MOL0     H76656   1.793   0.289   2.275  0.2652  1.4049 -2.4130
  581MOL0     H76657   1.681   0.456   2.422  0.3109  2.0342  0.4309
  581MOL0     H76658   1.903   0.770   2.571  0.6242 -2.0594 -1.3319
  581MOL0     H76659   1.967   0.675   2.714 -2.9140 -1.3560  3.8906
  581MOL0     H76660   1.884   0.876   2.800  1.8636 -0.6364  0.2969
  581MOL0     H76661   1.772   0.740   2.843  0.3008  2.9594  1.5903
  581MOL0     H76662   1.619   0.808   2.653  1.1164 -2.4345  1.6787
  581MOL0     H76663   1.701   0.961   2.630 -0.0110  0.8020  0.6151
  581MOL0     H76664   1.587   0.871   2.898 -0.7643 -0.2166 -1.3308
  581MOL0     H76665   1.688   1.011   2.882 -1.4860  3.4770  0.2436
  581MOL0     H76666   1.425   1.014   2.757  0.2738  0.2473  0.0441
  581MOL0     H76667   1.541   1.132   2.731  0.3571 -2.2089 -1.4460
  581MOL0     H76668   1.564   1.171   2.981  1.6564  1.6737 -2.2963
  581MOL0     H76669   1.405   1.083   3.002  0.1676  0.3297  0.2182
  581MOL0     H76670   1.375   1.287   3.015  0.9798 -2.2242  0.6988
  581MOL0     H76671   1.466   1.334   2.864 -0.1311 -1.7318 -0.6201
  581MOL0     H76672   1.193   1.214   2.869  2.0958 -3.1047 -1.9789
  581MOL0     H76673   1.302   1.219   2.727 -1.2586 -1.0448  0.0527
  581MOL0     H76674   2.045   0.513   2.634 -1.2151 -0.6288  0.8488
  581MOL0     H76675   2.157   0.382   2.469 -0.9577 -2.5875  3.6113
  581MOL0     H76676   1.913   0.034   1.964  0.0709 -0.7646  0.2872
  581MOL0     H76677   2.010   0.054   1.717 -1.0310  2.5037 -0.0353
  581MOL0     H76678   1.410   1.310   0.266  0.9752 -0.0452  0.5005
  581MOL0     H76679   1.195   1.295   0.142  1.2830  1.4470  0.5289
  581MOL0     H76680   0.806   1.423  -0.070  0.2166  0.6749  1.2629
  581MOL0     H76681   0.604   1.399  -0.151  2.8619 -0.7728  0.2258
  581MOL0     H76682   0.421   1.309  -0.233  0.7234  1.2553  2.1743
  581MOL0     H76683   0.323   1.422  -0.130 -3.0747 -0.2956  1.5692
  581MOL0     H76684   0.154   1.297  -0.121 -0.8922 -1.7255  0.5963
  581MOL0     H76685   0.190   1.298  -0.303  1.0038 -0.0530 -0.2158
  581MOL0     H76686   0.233   1.055  -0.123  1.3351  0.0165  0.5264
  581MOL0     H76687   0.287   1.064  -0.285  0.3127  5.0232 -2.6865
  581MOL0     H76688  -0.008   1.113  -0.199  1.4466  0.9115  0.8336
  581MOL0     H76689   0.042   1.099  -0.362 -1.1702  4.0300  1.0260
  581MOL0     H76690   0.061   0.703  -0.222 -1.1814  0.6167  0.1535
  581MOL0     H76691   0.483   1.167   0.204 -1.9405  0.2121 -1.0094
  581MOL0     H76692   0.710   1.198   0.286 -1.5975 -0.8284 -0.2977
  582MOL0     O76693   3.491   8.342   1.254 -0.1412 -0.2304 -0.4051
  582MOL0     C76694   3.376   8.372   1.290 -0.2603 -0.9361  0.0964
  582MOL0     O76695   3.264   8.292   1.285  0.8065  0.0186  0.4270
  582MOL0     C76696   3.290   8.172   1.233 -0.6245  1.3769 -1.3499
  582MOL0     C76697   3.350   8.076   1.318 -0.4008  0.2852 -0.4176
  582MOL0     C76698   3.366   7.944   1.271 -0.5594  0.9578  0.1889
  582MOL0     C76699   3.318   7.913   1.144 -0.1374 -0.6135 -0.6653
  582MOL0     O76700   3.329   7.786   1.081  0.3125 -0.9809 -0.3834
  582MOL0     C76701   3.308   7.672   1.164 -0.4067  0.1637 -0.3410
  582MOL0     C76702   3.323   7.538   1.090  1.4008  0.4208  0.3794
  582MOL0     C76703   3.469   7.486   1.072  0.2376  0.1751 -0.1513
  582MOL0     C76704   3.477   7.374   0.964 -0.3363 -0.2648  1.2711
  582MOL0     C76705   3.458   7.237   1.033 -0.0434  0.2122 -0.2256
  582MOL0     C76706   3.473   7.128   0.926 -0.0475 -0.7740  0.3452
  582MOL0     C76707   3.523   6.995   0.973 -0.0440 -0.8954  0.4793
  582MOL0     C76708   3.534   6.894   0.855 -0.1032 -0.8159  1.3726
  582MOL0     N76709   3.441   6.920   0.745 -0.7892 -0.2461  0.4157
  582MOL0     C76710   3.451   7.008   0.638  0.4751  0.4753  0.5913
  582MOL0     C76711   3.331   7.001   0.574  0.0677 -0.3265  0.1056
  582MOL0     C76712   3.284   7.099   0.463  0.0120 -0.3235  0.4237
  582MOL0     C76713   3.160   7.182   0.508 -0.0812 -0.0785  0.7093
  582MOL0     C76714   3.191   7.246   0.648 -0.5571  1.1900 -0.8491
  582MOL0     C76715   3.100   7.369   0.658  0.1919 -0.7913 -0.0546
  582MOL0     O76716   3.157   7.490   0.607 -0.5929  0.7319  0.3742
  582MOL0     C76717   3.071   7.595   0.610 -0.6038 -0.0430  0.1141
  582MOL0     C76718   3.034   7.665   0.722  0.2507 -0.4240  0.0975
  582MOL0     C76719   2.972   7.792   0.730  0.8752  0.6406  0.3370
  582MOL0     C76720   2.941   7.857   0.615  0.0092  0.5034  0.3485
  582MOL0     C76721   2.877   7.988   0.632 -0.4923  0.4911  0.6813
  582MOL0     O76722   2.796   8.019   0.536 -0.4012 -0.2163  0.6406
  582MOL0     C76723   2.747   8.147   0.537  0.1253  0.2535 -0.1514
  582MOL0     C76724   2.610   8.153   0.519 -0.8933 -0.2020  0.0499
  582MOL0     C76725   2.549   8.271   0.547  0.2688  0.0617  0.1538
  582MOL0     C76726   2.625   8.386   0.581 -0.3050 -0.1200  0.1449
  582MOL0     O76727   2.572   8.509   0.613  0.0832 -0.2675 -0.2123
  582MOL0     C76728   2.445   8.521   0.676 -0.9857  0.4821  0.7923
  582MOL0     C76729   2.405   8.662   0.705  0.1598  0.7944 -0.6678
  582MOL0     C76730   2.329   8.730   0.584  0.1314  1.0101  0.4421
  582MOL0     C76731   2.430   8.786   0.474 -0.5550  0.1509  0.1585
  582MOL0     C76732   2.495   8.912   0.530 -0.4441 -0.0863 -0.3404
  582MOL0     C76733   2.437   9.047   0.474 -0.8841  0.4609  0.4502
  582MOL0     C76734   2.488   9.177   0.542 -0.0662 -0.0329 -0.3502
  582MOL0     C76735   2.442   9.189   0.690  0.2848  0.7212  0.1885
  582MOL0    Cl76736   2.282   9.130   0.730 -0.5998  0.2630  0.2232
  582MOL0     C76737   2.770   8.381   0.578  0.2148 -1.2578 -0.6762
  582MOL0     C76738   2.833   8.261   0.554  0.2026  0.3758 -0.1269
  582MOL0     O76739   2.913   8.054   0.728 -0.1096  0.5955 -0.7814
  582MOL0     C76740   2.960   7.781   0.498 -0.5315 -0.7374 -0.6869
  582MOL0     C76741   3.032   7.659   0.502  0.7154 -0.9926  0.4549
  582MOL0     N76742   3.256   6.912   0.640  0.3704 -0.1034 -0.2739
  582MOL0     N76743   3.323   6.855   0.735  0.3233  0.4293 -0.1261
  582MOL0     C76744   3.261   8.020   1.062 -0.7956  0.2995  0.2286
  582MOL0     C76745   3.257   8.150   1.102 -0.2741 -0.6435 -0.4928
  582MOL0     C76746   3.357   8.502   1.339 -0.1091  0.5841  0.5710
  582MOL0     C76747   3.464   8.592   1.358 -0.6975  0.8023 -0.2820
  582MOL0     C76748   3.442   8.718   1.406  1.0813  0.3109  0.5534
  582MOL0     C76749   3.316   8.763   1.428  0.1327 -0.4317  0.5333
  582MOL0     O76750   3.287   8.896   1.454 -0.1702  0.1616 -0.1763
  582MOL0     C76751   3.171   8.939   1.531 -1.0460 -1.1896  0.1636
  582MOL0     C76752   3.161   9.087   1.558  0.2454 -0.1987  0.2720
  582MOL0     C76753   3.274   9.133   1.646 -0.1708  0.4098  0.2016
  582MOL0     C76754   3.265   9.274   1.682 -0.0014 -0.2725 -0.5383
  582MOL0     C76755   3.234   9.364   1.569 -0.2428  0.5384 -0.8564
  582MOL0     C76756   3.238   9.442   1.482  0.0657  0.3274 -1.4993
  582MOL0     C76757   3.211   8.668   1.413  0.2026  0.2034  0.4766
  582MOL0     C76758   3.227   8.540   1.372  0.3642  0.2077 -0.6082
  582MOL0     H76759   3.374   8.090   1.423  2.2898  0.2571 -0.9837
  582MOL0     H76760   3.405   7.867   1.338  0.9742  3.9148  2.9662
  582MOL0     H76761   3.209   7.687   1.209  0.0727 -0.2847  0.8964
  582MOL0     H76762   3.373   7.662   1.252 -2.1418 -2.0410  0.7994
  582MOL0     H76763   3.277   7.555   0.992  1.1318 -1.7575  0.0676
  582MOL0     H76764   3.268   7.464   1.149  1.8221  1.4678  2.1686
  582MOL0     H76765   3.515   7.441   1.161  0.9019 -0.4245 -0.7777
  582MOL0     H76766   3.530   7.572   1.043  1.6632 -1.0046 -0.8272
  582MOL0     H76767   3.410   7.390   0.879  0.7319 -1.9229  0.0464
  582MOL0     H76768   3.578   7.359   0.926 -1.5389  0.2887 -2.6488
  582MOL0     H76769   3.355   7.231   1.071 -1.1250  5.1303 -1.6843
  582MOL0     H76770   3.525   7.211   1.115 -0.3186 -0.6897 -0.2663
  582MOL0     H76771   3.546   7.152   0.848 -0.4504  3.5884  1.0801
  582MOL0     H76772   3.373   7.117   0.884  0.1735  0.1476 -0.4496
  582MOL0     H76773   3.614   7.012   1.031 -1.9793 -0.1490  3.5462
  582MOL0     H76774   3.455   6.949   1.046 -0.5124  0.3726  0.8638
  582MOL0     H76775   3.533   6.789   0.886  2.9347 -0.3951  3.3018
  582MOL0     H76776   3.634   6.910   0.814 -1.5748 -0.0368 -2.2836
  582MOL0     H76777   3.524   7.088   0.625  1.0619  0.1486  1.7076
  582MOL0     H76778   3.264   7.046   0.370  0.5474 -4.5190  2.4607
  582MOL0     H76779   3.372   7.164   0.459  1.7819 -2.2861  3.3011
  582MOL0     H76780   3.066   7.126   0.509  0.6203 -1.3082 -0.4239
  582MOL0     H76781   3.159   7.256   0.428  2.8407 -1.8408 -1.1595
  582MOL0     H76782   3.159   7.172   0.721 -0.0159  0.0554 -1.7359
  582MOL0     H76783   3.295   7.269   0.672  0.2535 -3.0917  0.4734
  582MOL0     H76784   3.087   7.386   0.766 -2.4069  1.3581 -0.5791
  582MOL0     H76785   2.998   7.346   0.624  0.0486 -1.0642  0.5362
  582MOL0     H76786   3.064   7.621   0.817  1.1379  3.0221  1.5478
  582MOL0     H76787   2.960   7.827   0.833  1.0885 -1.6797  1.2111
  582MOL0     H76788   2.572   8.054   0.496  0.7715 -0.9683  0.4368
  582MOL0     H76789   2.442   8.279   0.530  0.2093  0.0199  0.5036
  582MOL0     H76790   2.435   8.456   0.763  0.2507 -2.2473 -0.9645
  582MOL0     H76791   2.368   8.481   0.609 -0.9503  1.9704 -0.1952
  582MOL0     H76792   2.497   8.713   0.733  0.4824  0.0438 -0.3430
  582MOL0     H76793   2.344   8.668   0.796  0.7756 -0.3687 -0.1609
  582MOL0     H76794   2.260   8.809   0.616  0.3945  3.0092 -3.3741
  582MOL0     H76795   2.266   8.654   0.538  0.1186  2.1351 -1.4968
  582MOL0     H76796   2.502   8.706   0.460 -0.6333  0.2183 -0.6458
  582MOL0     H76797   2.382   8.809   0.379  0.6343 -2.5391 -1.1756
  582MOL0     H76798   2.602   8.908   0.509  0.7313 -3.6925  4.5234
  582MOL0     H76799   2.484   8.914   0.639  0.9818 -1.1465 -0.1512
  582MOL0     H76800   2.327   9.046   0.472 -0.9305  1.4454 -2.7720
  582MOL0     H76801   2.465   9.052   0.368 -0.3573  2.8696  0.6419
  582MOL0     H76802   2.598   9.183   0.537  0.0086  0.1792  1.0389
  582MOL0     H76803   2.456   9.262   0.482  0.0491 -0.1973 -0.6455
  582MOL0     H76804   2.448   9.298   0.705  1.5538  1.1660 -2.8044
  582MOL0     H76805   2.514   9.128   0.745 -1.9307 -2.3441 -0.1192
  582MOL0     H76806   2.826   8.473   0.593 -0.0589 -1.2217  0.2005
  582MOL0     H76807   2.940   8.244   0.554  0.2482  0.6418  0.4526
  582MOL0     H76808   2.939   7.833   0.404 -3.2159  1.8183  1.1348
  582MOL0     H76809   3.055   7.619   0.403  0.0553  0.1901 -0.2086
  582MOL0     H76810   3.230   8.003   0.959 -1.9860 -0.0749  0.6250
  582MOL0     H76811   3.219   8.223   1.030 -0.8560  0.0356  0.4720
  582MOL0     H76812   3.563   8.553   1.338 -1.5102  0.3479 -4.4106
  582MOL0     H76813   3.530   8.782   1.413  1.1082  0.3878 -0.3323
  582MOL0     H76814   3.186   8.890   1.627 -1.9659 -0.4395  0.7024
  582MOL0     H76815   3.077   8.907   1.485 -1.9636  1.9113 -0.3593
  582MOL0     H76816   3.158   9.145   1.466  1.2347  0.0940  0.4165
  582MOL0     H76817   3.071   9.102   1.619  0.7717 -1.3251  1.4026
  582MOL0     H76818   3.375   9.119   1.608 -0.0908 -3.9017  1.4351
  582MOL0     H76819   3.260   9.083   1.743  1.5898  1.2058  0.8996
  582MOL0     H76820   3.197   9.292   1.766  0.4215  4.7871 -0.9332
  582MOL0     H76821   3.369   9.292   1.710  0.8066 -1.0204 -2.9040
  582MOL0     H76822   3.259   9.492   1.389 -0.4240  2.3340 -0.5988
  582MOL0     H76823   3.112   8.701   1.442  1.3510  4.4024  0.2670
  582MOL0     H76824   3.144   8.472   1.359 -0.1057  0.3879  1.2065
  583MOL0     O76825   3.471   0.834  10.056  0.8163 -1.1930 -0.3882
  583MOL0     C76826   3.592   0.819  10.044  0.2345 -0.8969 -1.2114
  583MOL0     O76827   3.676   0.882   9.960 -0.1713 -0.5121 -0.4829
  583MOL0     C76828   3.629   0.987   9.885 -0.2542 -0.3406  0.1582
  583MOL0     C76829   3.669   0.997   9.750  0.8112  0.3408  0.3615
  583MOL0     C76830   3.630   1.104   9.670  0.1634 -0.3866  0.6961
  583MOL0     C76831   3.556   1.215   9.717 -0.3662 -0.4656 -1.3464
  583MOL0     O76832   3.531   1.335   9.656  1.1100  0.6922  0.4692
  583MOL0     C76833   3.570   1.346   9.521  0.8831  0.5310 -0.1630
  583MOL0     C76834   3.485   1.456   9.468  0.2273 -0.0258 -0.2250
  583MOL0     C76835   3.529   1.589   9.525 -0.2859  0.1748  1.0145
  583MOL0     C76836   3.656   1.644   9.458 -0.0168  0.7616  0.8323
  583MOL0     C76837   3.628   1.728   9.325 -0.0843 -0.2321 -0.2540
  583MOL0     C76838   3.751   1.808   9.293  0.7282 -0.2605  0.5784
  583MOL0     C76839   3.742   1.888   9.164  1.0061  1.0189  0.0381
  583MOL0     C76840   3.848   1.994   9.122 -0.3795  0.0486 -0.0116
  583MOL0     N76841   3.877   2.095   9.226 -0.4894  0.0154 -0.2228
  583MOL0     C76842   3.968   2.199   9.233 -0.5699  1.4820 -0.4611
  583MOL0     C76843   3.927   2.283   9.333 -0.1794 -0.6423  0.2642
  583MOL0     C76844   3.995   2.416   9.375  0.0370  0.0023  0.8037
  583MOL0     C76845   3.966   2.530   9.285  0.2961 -0.4673  0.1721
  583MOL0     C76846   4.051   2.651   9.312 -0.6664  0.1903  0.6799
  583MOL0     C76847   4.019   2.728   9.447 -0.1764 -0.0445 -0.2083
  583MOL0     O76848   3.899   2.706   9.503 -0.0441  0.3176  0.1916
  583MOL0     C76849   3.826   2.802   9.575 -0.9825 -0.1924 -0.9338
  583MOL0     C76850   3.690   2.793   9.599 -0.7885 -0.3162  0.0674
  583MOL0     C76851   3.613   2.880   9.678  0.1719  0.5574 -0.0686
  583MOL0     C76852   3.679   2.995   9.725  0.3829 -0.2634 -1.2716
  583MOL0     C76853   3.601   3.106   9.788 -0.4943 -0.1530 -0.7210
  583MOL0     O76854   3.670   3.202   9.856  0.1786 -0.7284 -0.2676
  583MOL0     C76855   3.606   3.305   9.931  0.0543  0.5901 -0.0534
  583MOL0     C76856   3.604   3.322  10.069  0.8349  0.7611 -0.1250
  583MOL0     C76857   3.535   3.429  10.131 -0.2665  0.2038  0.2142
  583MOL0     C76858   3.464   3.515  10.054  1.1363 -0.7534  0.0658
  583MOL0     O76859   3.391   3.618  10.097  0.7249 -0.2784 -0.5065
  583MOL0     C76860   3.405   3.648  10.237  0.5309 -1.1024  0.4858
  583MOL0     C76861   3.305   3.756  10.275  0.4831 -0.4826  0.3176
  583MOL0     C76862   3.161   3.700  10.265 -0.6949  0.6349 -1.2914
  583MOL0     C76863   3.126   3.576  10.364 -0.1475 -0.0796 -0.4208
  583MOL0     C76864   2.988   3.596  10.432  1.2810 -0.8989  0.4069
  583MOL0     C76865   2.884   3.621  10.321 -0.4080 -0.3969 -0.2590
  583MOL0     C76866   2.743   3.612  10.383 -0.9209 -0.7610  0.0018
  583MOL0     C76867   2.654   3.684  10.296 -0.2059  0.0783 -0.0185
  583MOL0    Cl76868   2.483   3.644  10.324 -0.1090 -0.1337 -0.4221
  583MOL0     C76869   3.472   3.504   9.914 -0.0662 -0.2451 -0.0329
  583MOL0     C76870   3.543   3.395   9.852 -0.1015 -0.3998  0.0939
  583MOL0     O76871   3.480   3.105   9.772  0.7733 -0.5325 -0.0524
  583MOL0     C76872   3.813   3.015   9.700  0.5242  0.1463  0.2377
  583MOL0     C76873   3.886   2.921   9.629  0.4799 -0.2370 -0.0465
  583MOL0     N76874   3.816   2.224   9.392 -0.3780  0.7362 -0.2079
  583MOL0     N76875   3.789   2.119   9.322  0.5554 -0.6805  0.9526
  583MOL0     C76876   3.528   1.218   9.853 -0.1663 -0.7847  0.1706
  583MOL0     C76877   3.559   1.108   9.938  0.4259  0.0051  0.0389
  583MOL0     C76878   3.656   0.734  10.149  1.0020  0.7896  0.2365
  583MOL0     C76879   3.585   0.664  10.244  0.0789  0.1617 -0.8659
  583MOL0     C76880   3.651   0.579  10.343  0.2168 -0.7356 -0.0608
  583MOL0     C76881   3.791   0.595  10.366 -0.1729  0.2752  0.0741
  583MOL0     O76882   3.870   0.522  10.457  0.5136 -0.4395 -0.1137
  583MOL0     C76883   3.802   0.446  10.554 -0.2613  1.1576 -0.5296
  583MOL0     C76884   3.912   0.366  10.624  0.4726  0.6098  0.5759
  583MOL0     C76885   3.990   0.421  10.739  0.2766  0.3666  0.2324
  583MOL0     C76886   3.904   0.489  10.837 -0.5567 -0.8393 -0.4599
  583MOL0     C76887   3.999   0.553  10.930  0.2992  0.2297  0.6146
  583MOL0     C76888   4.065   0.630  10.989 -0.1416 -0.8655  0.8992
  583MOL0     C76889   3.864   0.668  10.267 -0.3828  0.1297 -1.1329
  583MOL0     C76890   3.793   0.732  10.158 -0.4906  0.0349 -0.5127
  583MOL0     H76891   3.741   0.923   9.718  1.5520  0.0962  2.4601
  583MOL0     H76892   3.679   1.114   9.574 -1.8918  1.9846 -0.2154
  583MOL0     H76893   3.555   1.262   9.452 -0.6150  1.0699 -0.5308
  583MOL0     H76894   3.679   1.361   9.525  0.5666  3.0060  0.9146
  583MOL0     H76895   3.383   1.426   9.490 -0.1932  3.5293  3.9450
  583MOL0     H76896   3.497   1.482   9.362  4.6673 -0.8751 -0.1607
  583MOL0     H76897   3.540   1.589   9.634 -1.2930 -0.6329  1.1283
  583MOL0     H76898   3.452   1.667   9.519  0.5676  0.9164 -1.3523
  583MOL0     H76899   3.699   1.725   9.517 -0.5941  2.4192 -0.9235
  583MOL0     H76900   3.721   1.560   9.432 -1.6582 -0.0657 -0.8107
  583MOL0     H76901   3.538   1.789   9.340  0.0741 -0.0174 -0.1698
  583MOL0     H76902   3.601   1.663   9.241 -0.2498 -0.8991  0.3083
  583MOL0     H76903   3.832   1.736   9.279 -2.1655 -3.0432 -4.6701
  583MOL0     H76904   3.760   1.879   9.377  1.6156  2.8606 -1.9467
  583MOL0     H76905   3.730   1.811   9.087 -2.6546 -1.1197  2.4220
  583MOL0     H76906   3.647   1.943   9.159  1.0639  1.5044  2.6866
  583MOL0     H76907   3.817   2.053   9.036  1.5975  0.5696 -0.4156
  583MOL0     H76908   3.936   1.933   9.099 -1.2140 -1.3027  0.2515
  583MOL0     H76909   4.041   2.227   9.159 -1.8036  0.1907 -2.2662
  583MOL0     H76910   4.104   2.419   9.382  0.1103  1.4788 -0.4060
  583MOL0     H76911   3.954   2.441   9.473  2.0548  2.5144  1.1222
  583MOL0     H76912   3.861   2.560   9.291 -0.1120 -1.9723  0.9848
  583MOL0     H76913   3.987   2.508   9.180 -3.2603  0.9772 -1.0030
  583MOL0     H76914   4.157   2.625   9.302 -0.5119  1.4341 -1.6734
  583MOL0     H76915   4.022   2.721   9.234  1.8327  0.1352 -0.3959
  583MOL0     H76916   4.021   2.834   9.419  0.3682 -0.2788 -1.1254
  583MOL0     H76917   4.092   2.710   9.526 -2.3689 -2.8523  1.3489
  583MOL0     H76918   3.650   2.708   9.545  0.6722 -0.0858 -1.4886
  583MOL0     H76919   3.505   2.882   9.687 -0.1175  4.7886 -1.7649
  583MOL0     H76920   3.667   3.253  10.124 -0.1851 -0.4678 -0.4668
  583MOL0     H76921   3.565   3.422  10.235  0.4146 -1.8374 -0.0908
  583MOL0     H76922   3.502   3.696  10.255  0.6308 -1.0048 -0.2873
  583MOL0     H76923   3.392   3.559  10.300  1.3003 -0.3289  1.7806
  583MOL0     H76924   3.319   3.844  10.212  1.3501  0.8744  2.2811
  583MOL0     H76925   3.332   3.784  10.378  2.9930  2.6526 -1.0273
  583MOL0     H76926   3.122   3.680  10.165 -3.7712 -0.4818  0.0093
  583MOL0     H76927   3.104   3.783  10.307 -0.0071  1.4737 -1.9845
  583MOL0     H76928   3.120   3.484  10.305  3.5804  0.4116 -1.8485
  583MOL0     H76929   3.205   3.570  10.439  0.9170  4.5754 -0.8937
  583MOL0     H76930   3.004   3.680  10.501 -1.3757  0.1763 -0.1595
  583MOL0     H76931   2.966   3.502  10.483 -1.4316  0.0741  1.2146
  583MOL0     H76932   2.895   3.543  10.245  0.1456 -1.5918  0.9991
  583MOL0     H76933   2.903   3.721  10.280 -1.9372  0.5701  1.2744
  583MOL0     H76934   2.710   3.511  10.410 -0.6524 -1.4359 -2.0174
  583MOL0     H76935   2.746   3.663  10.480 -0.8700  0.4122 -0.6007
  583MOL0     H76936   2.670   3.665  10.190  2.2447 -0.5060  0.4063
  583MOL0     H76937   2.679   3.787  10.323 -0.8135 -0.3932  2.7283
  583MOL0     H76938   3.414   3.572   9.852  0.9814  0.1947 -0.5505
  583MOL0     H76939   3.539   3.391   9.743 -0.1151  0.1962  0.0680
  583MOL0     H76940   3.870   3.096   9.746  1.4258 -1.0067  1.2076
  583MOL0     H76941   3.994   2.924   9.613  0.2133  0.4969 -2.0055
  583MOL0     H76942   3.498   1.312   9.900 -0.3645 -0.9691  0.4150
  583MOL0     H76943   3.527   1.113  10.041  2.5138  1.8423  0.6702
  583MOL0     H76944   3.477   0.674  10.248 -0.0360 -0.6042 -1.6978
  583MOL0     H76945   3.581   0.522  10.403  0.3556 -1.2052 -0.3386
  583MOL0     H76946   3.716   0.391  10.517 -2.2991  3.2767  0.7431
  583MOL0     H76947   3.759   0.525  10.617 -1.7879 -0.2828  0.3012
  583MOL0     H76948   3.865   0.270  10.648  0.5507  0.4631  0.1543
  583MOL0     H76949   3.978   0.325  10.547 -0.0508 -1.3446  1.1045
  583MOL0     H76950   4.061   0.490  10.693 -2.9083  3.9089  0.0794
  583MOL0     H76951   4.024   0.327  10.782 -1.6869 -0.3411  0.3379
  583MOL0     H76952   3.860   0.577  10.790 -0.0438 -1.0544 -1.3750
  583MOL0     H76953   3.831   0.431  10.894  0.0063 -0.3149  0.8133
  583MOL0     H76954   4.138   0.693  11.034 -0.2829 -0.4432  0.5475
  583MOL0     H76955   3.973   0.667  10.270 -0.3691  0.8443  1.1921
  583MOL0     H76956   3.857   0.778  10.084  0.5572 -0.6974 -0.0925
  584MOL0     O76957   8.230   0.345   3.481  0.5179 -0.0889 -0.0306
  584MOL0     C76958   8.323   0.430   3.479  0.4429 -0.2284  0.1749
  584MOL0     O76959   8.394   0.467   3.582  0.2857  0.4148  0.8102
  584MOL0     C76960   8.386   0.407   3.700  0.1217  0.5317 -0.3094
  584MOL0     C76961   8.266   0.417   3.777 -0.8696  0.4055 -1.0172
  584MOL0     C76962   8.245   0.348   3.894  0.1775 -0.0136 -0.1157
  584MOL0     C76963   8.351   0.281   3.955  0.8426 -0.2932 -0.1035
  584MOL0     O76964   8.355   0.210   4.071 -0.1154  0.0794 -0.0435
  584MOL0     C76965   8.241   0.215   4.167 -0.5395 -0.6373 -0.7628
  584MOL0     C76966   8.239   0.352   4.236  0.5496  0.4380 -0.4412
  584MOL0     C76967   8.106   0.380   4.320  0.3121  0.6683  0.2633
  584MOL0     C76968   8.142   0.473   4.440 -0.2443 -0.4134  0.2845
  584MOL0     C76969   8.015   0.501   4.524 -0.0826  0.1325 -0.8954
  584MOL0     C76970   7.960   0.377   4.601  0.2896 -0.0927  0.0802
  584MOL0     C76971   7.837   0.405   4.680 -0.1609  0.6722 -0.2074
  584MOL0     C76972   7.861   0.458   4.822 -0.1191 -0.2798  0.3515
  584MOL0     N76973   7.753   0.433   4.917 -0.3500  0.2030  0.3139
  584MOL0     C76974   7.617   0.454   4.884 -0.1416  0.2266 -0.2334
  584MOL0     C76975   7.551   0.384   4.977  0.9199  0.2431  1.1636
  584MOL0     C76976   7.405   0.362   4.985 -0.1231  0.7243  0.1223
  584MOL0     C76977   7.368   0.246   4.890  0.0981  0.4428 -1.2622
  584MOL0     C76978   7.213   0.233   4.885  0.9597  0.6049  0.9685
  584MOL0     C76979   7.163   0.120   4.776  0.1757 -0.1433 -0.6553
  584MOL0     O76980   7.183   0.166   4.639 -0.4155 -0.5129 -0.8334
  584MOL0     C76981   7.296   0.123   4.572  0.3700 -0.3368 -0.3695
  584MOL0     C76982   7.411   0.063   4.629  1.0377  0.2433  0.1153
  584MOL0     C76983   7.520   0.028   4.551 -0.5723 -0.7764  0.4127
  584MOL0     C76984   7.519   0.064   4.409 -0.2809  0.6980 -0.6467
  584MOL0     C76985   7.646   0.044   4.333  0.4696  0.7724 -0.2445
  584MOL0     O76986   7.757   0.023   4.401  0.3374 -0.1073 -0.4684
  584MOL0     C76987   7.876  -0.025   4.350  1.1309 -0.1345  0.5207
  584MOL0     C76988   7.988  -0.004   4.432 -0.2804 -0.4534  0.0717
  584MOL0     C76989   8.117  -0.055   4.400  0.1533 -0.6327 -1.1341
  584MOL0     C76990   8.134  -0.128   4.285  0.3605  0.3624  0.2739
  584MOL0     O76991   8.247  -0.195   4.248 -0.0835  0.6799 -0.8605
  584MOL0     C76992   8.331  -0.261   4.347  0.2106  0.7268 -0.1261
  584MOL0     C76993   8.335  -0.410   4.298 -1.0057 -0.7457  0.5405
  584MOL0     C76994   8.208  -0.496   4.271 -0.3628  0.6332 -1.0796
  584MOL0     C76995   8.114  -0.493   4.392  0.7490 -0.0841  0.0613
  584MOL0     C76996   7.970  -0.553   4.366  0.2066 -0.6078  0.6568
  584MOL0     C76997   7.885  -0.560   4.497  0.2981  0.0274 -0.1701
  584MOL0     C76998   7.836  -0.416   4.532  1.6022  0.2203 -0.1754
  584MOL0     C76999   7.702  -0.366   4.492 -0.6779  0.1990 -0.8725
  584MOL0    Cl77000   7.584  -0.457   4.591  0.1798  0.3565 -0.3670
  584MOL0     C77001   8.026  -0.146   4.197  0.1182 -0.2073 -0.6224
  584MOL0     C77002   7.899  -0.096   4.239  0.3265  0.0838  1.0695
  584MOL0     O77003   7.636   0.063   4.214  0.1116 -0.3528 -0.0779
  584MOL0     C77004   7.408   0.121   4.357  0.6092 -0.7136  0.5462
  584MOL0     C77005   7.303   0.159   4.442  0.5901 -0.8088  0.0454
  584MOL0     N77006   7.639   0.326   5.069  0.8327  0.8636  0.6010
  584MOL0     N77007   7.757   0.366   5.036 -0.0996 -0.4534 -0.7272
  584MOL0     C77008   8.484   0.295   3.894 -0.2434 -0.9267  1.3581
  584MOL0     C77009   8.493   0.355   3.773 -0.1673 -0.7817  0.4955
  584MOL0     C77010   8.341   0.502   3.356 -0.5179 -0.1420  1.2004
  584MOL0     C77011   8.322   0.641   3.355  0.4885 -0.2847  0.2213
  584MOL0     C77012   8.352   0.699   3.230 -0.4142 -0.5751 -0.2388
  584MOL0     C77013   8.392   0.631   3.110 -0.0208  0.1961  0.1829
  584MOL0     O77014   8.409   0.687   2.985  0.3234 -0.0931  0.1960
  584MOL0     C77015   8.410   0.831   2.971 -0.0227 -1.0018 -0.2017
  584MOL0     C77016   8.476   0.864   2.839  0.1133  0.1669  0.7238
  584MOL0     C77017   8.374   0.911   2.727  0.4841  0.1587 -0.1817
  584MOL0     C77018   8.438   0.997   2.624  0.6970 -1.1721 -0.3771
  584MOL0     C77019   8.542   0.941   2.540  0.4283  0.7400 -0.7186
  584MOL0     C77020   8.641   0.887   2.491  0.2134 -0.1541  0.5371
  584MOL0     C77021   8.408   0.494   3.118 -0.0065  0.4640 -0.2728
  584MOL0     C77022   8.379   0.432   3.236  0.3640  0.2698 -0.2890
  584MOL0     H77023   8.191   0.482   3.733  1.0456  0.8169 -3.9864
  584MOL0     H77024   8.143   0.343   3.931 -1.2144 -1.5389 -3.6775
  584MOL0     H77025   8.258   0.140   4.245 -1.1451  1.3894  1.4421
  584MOL0     H77026   8.143   0.205   4.120 -0.7966 -0.0449 -0.3768
  584MOL0     H77027   8.241   0.423   4.154  1.1572  2.9457  1.6063
  584MOL0     H77028   8.327   0.350   4.302  1.8087 -0.7868 -2.0610
  584MOL0     H77029   8.053   0.289   4.351 -1.2965  0.9016 -1.6538
  584MOL0     H77030   8.035   0.430   4.255 -1.2141 -1.5888  0.0667
  584MOL0     H77031   8.229   0.440   4.498 -1.8506 -2.5326  1.6447
  584MOL0     H77032   8.172   0.570   4.400  1.5467 -1.2237 -0.4384
  584MOL0     H77033   7.941   0.541   4.453 -2.1057 -1.1849  0.3641
  584MOL0     H77034   8.032   0.586   4.591  1.4579 -0.8624  0.0079
  584MOL0     H77035   8.034   0.346   4.675 -2.1999  2.2136  3.8404
  584MOL0     H77036   7.936   0.304   4.523  0.4533  0.3460 -0.3911
  584MOL0     H77037   7.757   0.466   4.639 -2.9142 -3.0979 -1.0135
  584MOL0     H77038   7.792   0.305   4.688  0.1684  0.5838  0.7612
  584MOL0     H77039   7.878   0.565   4.810  2.4806 -0.5942  0.5421
  584MOL0     H77040   7.951   0.412   4.865  1.8529 -0.2581 -3.2719
  584MOL0     H77041   7.588   0.518   4.801  2.4555  1.4742 -0.2846
  584MOL0     H77042   7.355   0.456   4.961  2.6521  2.1516 -0.5882
  584MOL0     H77043   7.384   0.340   5.090  2.1580  1.2652  0.7530
  584MOL0     H77044   7.418   0.153   4.916  0.4692  1.0246  0.1610
  584MOL0     H77045   7.407   0.273   4.791  1.4577 -0.7333 -1.0749
  584MOL0     H77046   7.178   0.207   4.985  0.8099  2.3502  1.3921
  584MOL0     H77047   7.160   0.324   4.855  4.0797  1.3151 -3.5232
  584MOL0     H77048   7.056   0.105   4.787  0.3210 -0.5498  0.3434
  584MOL0     H77049   7.223   0.028   4.780  2.3183  1.1818 -0.3154
  584MOL0     H77050   7.428   0.064   4.736 -2.4355  1.3755  0.7876
  584MOL0     H77051   7.595  -0.032   4.602 -1.2578 -1.0941  1.0636
  584MOL0     H77052   7.978   0.054   4.523  3.0101  2.6595 -1.3297
  584MOL0     H77053   8.202  -0.041   4.467 -0.4866 -0.6031 -0.3154
  584MOL0     H77054   8.294  -0.245   4.448 -0.6723  1.7744 -0.5896
  584MOL0     H77055   8.425  -0.205   4.348  0.2425  0.6639  0.7978
  584MOL0     H77056   8.405  -0.462   4.364 -0.1674  2.1136  2.0778
  584MOL0     H77057   8.383  -0.413   4.200 -0.4636  0.4272  0.7538
  584MOL0     H77058   8.239  -0.600   4.261  1.7504  0.5975  3.3296
  584MOL0     H77059   8.146  -0.458   4.190 -3.3091 -5.2606 -2.1114
  584MOL0     H77060   8.158  -0.559   4.467 -1.2663  1.3704  2.7053
  584MOL0     H77061   8.104  -0.394   4.438  1.7701 -0.7868  1.9165
  584MOL0     H77062   7.986  -0.649   4.316  2.0876  0.0884 -0.1639
  584MOL0     H77063   7.924  -0.486   4.293  0.7444  1.1134  1.8276
  584MOL0     H77064   7.943  -0.601   4.580  0.4397  2.6381  1.1313
  584MOL0     H77065   7.802  -0.630   4.487 -0.3240  0.8744 -1.1358
  584MOL0     H77066   7.868  -0.396   4.635  0.8272  3.1190 -0.3891
  584MOL0     H77067   7.904  -0.349   4.479  0.0843  1.2969 -0.8363
  584MOL0     H77068   7.686  -0.380   4.384  3.4332 -0.2900 -1.5698
  584MOL0     H77069   7.697  -0.260   4.519 -0.2865 -0.7174  3.5477
  584MOL0     H77070   8.046  -0.201   4.105 -0.4476  1.3643 -1.7215
  584MOL0     H77071   7.834  -0.124   4.157  0.5348  2.4919  0.0069
  584MOL0     H77072   7.408   0.138   4.250  0.4827 -0.3723  0.5986
  584MOL0     H77073   7.215   0.210   4.402  0.8081 -1.9655 -2.0399
  584MOL0     H77074   8.572   0.248   3.937  0.8515 -0.1948 -0.0036
  584MOL0     H77075   8.592   0.372   3.730 -0.9963 -0.6806 -1.4887
  584MOL0     H77076   8.295   0.696   3.445 -1.7725  1.3104 -1.3419
  584MOL0     H77077   8.341   0.807   3.224  0.7613 -0.5309 -2.1869
  584MOL0     H77078   8.473   0.884   3.043 -0.5837 -0.4673 -0.0996
  584MOL0     H77079   8.310   0.873   2.978  0.5594  0.0786  2.5980
  584MOL0     H77080   8.556   0.937   2.855 -2.0614  3.3899 -1.7656
  584MOL0     H77081   8.533   0.781   2.797 -1.8678 -0.8950  0.0023
  584MOL0     H77082   8.308   0.974   2.787  2.1238  1.8042 -0.0316
  584MOL0     H77083   8.314   0.832   2.681  4.0612 -1.9329 -1.7566
  584MOL0     H77084   8.354   1.036   2.566  0.8504 -2.1325 -1.2754
  584MOL0     H77085   8.496   1.074   2.677  1.7376 -1.4762 -1.0339
  584MOL0     H77086   8.726   0.840   2.447  1.4356 -0.2599  2.8632
  584MOL0     H77087   8.436   0.446   3.025  1.2760 -0.2572  0.4561
  584MOL0     H77088   8.374   0.324   3.229 -0.9825  0.3713 -1.2738
  585MOL0     O77089   6.325   2.339   4.576  0.3395  0.1602 -0.0381
  585MOL0     C77090   6.245   2.262   4.520  0.0399 -0.6022  0.5869
  585MOL0     O77091   6.226   2.249   4.384  0.5597 -0.3760  0.2305
  585MOL0     C77092   6.295   2.323   4.282 -0.7680 -0.7602 -0.6174
  585MOL0     C77093   6.293   2.283   4.148 -0.1319 -0.0116  0.6576
  585MOL0     C77094   6.346   2.349   4.037 -0.8078 -0.7823 -0.2965
  585MOL0     C77095   6.416   2.474   4.067 -0.3264  0.3519 -0.0166
  585MOL0     O77096   6.469   2.567   3.976 -0.0094 -0.5592  0.9723
  585MOL0     C77097   6.453   2.534   3.834  0.7002  1.0566 -1.0246
  585MOL0     C77098   6.543   2.423   3.792 -0.1175  0.0725 -0.6503
  585MOL0     C77099   6.557   2.414   3.640 -0.1975 -0.5033 -0.1388
  585MOL0     C77100   6.683   2.348   3.588 -0.1642 -0.3564 -0.2123
  585MOL0     C77101   6.698   2.355   3.440  0.3022  0.4946  0.8077
  585MOL0     C77102   6.823   2.274   3.401 -0.0435  0.5330  0.1252
  585MOL0     C77103   6.825   2.228   3.258 -0.9631 -0.0129  0.5803
  585MOL0     C77104   6.815   2.343   3.163  0.3997 -0.8027  0.2949
  585MOL0     N77105   6.817   2.295   3.026  0.9946 -0.6618  0.8040
  585MOL0     C77106   6.926   2.276   2.938 -0.2848  0.3084  0.1900
  585MOL0     C77107   6.871   2.230   2.826 -0.3140  0.2442  0.6242
  585MOL0     C77108   6.963   2.197   2.705  0.1473  0.3986  0.6371
  585MOL0     C77109   7.021   2.063   2.687 -0.5709  0.3131 -0.4195
  585MOL0     C77110   6.913   1.945   2.692  0.5143 -0.4548 -0.6213
  585MOL0     C77111   6.982   1.809   2.680  1.1057 -0.0142  0.7045
  585MOL0     O77112   6.888   1.726   2.622 -0.1499  0.3058  0.3901
  585MOL0     C77113   6.924   1.593   2.593 -0.9144  0.1246 -0.5571
  585MOL0     C77114   6.893   1.537   2.475  0.6226 -0.0624  1.0385
  585MOL0     C77115   6.919   1.407   2.432 -0.1605  0.1294  0.4153
  585MOL0     C77116   6.976   1.315   2.523  0.0722  1.1422 -0.1043
  585MOL0     C77117   6.998   1.170   2.494 -0.4944  0.8646  0.3310
  585MOL0     O77118   6.917   1.102   2.419  0.4109 -0.3136 -0.1272
  585MOL0     C77119   6.782   1.118   2.445  0.8571 -1.0743 -0.6041
  585MOL0     C77120   6.693   1.124   2.337  0.4886  0.0986 -0.3674
  585MOL0     C77121   6.556   1.115   2.357  0.4328  0.1357  0.0959
  585MOL0     C77122   6.502   1.106   2.488 -1.0131 -0.4368  0.6133
  585MOL0     O77123   6.374   1.122   2.525  0.6593  0.1598  0.0702
  585MOL0     C77124   6.269   1.082   2.435 -0.5152  0.0246 -0.8595
  585MOL0     C77125   6.136   1.090   2.496  0.2713  0.7872  0.4968
  585MOL0     C77126   6.124   1.018   2.629  0.3087  0.5645  0.0154
  585MOL0     C77127   6.010   1.070   2.726  0.0355 -0.0923 -0.2885
  585MOL0     C77128   5.982   0.965   2.838  0.1937  0.2499  0.3535
  585MOL0     C77129   6.087   0.955   2.944  0.7660 -0.0976  0.0924
  585MOL0     C77130   6.060   0.836   3.042  0.4178 -0.4726 -0.0558
  585MOL0     C77131   6.111   0.863   3.186  0.4534 -0.2642 -0.4797
  585MOL0    Cl77132   6.282   0.844   3.199 -0.1357  0.4083 -0.1947
  585MOL0     C77133   6.593   1.115   2.593  0.8780 -0.2078  0.2879
  585MOL0     C77134   6.734   1.118   2.576 -0.2377  0.0877 -0.1675
  585MOL0     O77135   7.106   1.126   2.538  0.0557  0.8656  1.0189
  585MOL0     C77136   7.016   1.374   2.651 -0.8036 -0.2722  0.1835
  585MOL0     C77137   7.000   1.511   2.680  0.0270 -0.0805 -0.1742
  585MOL0     N77138   6.733   2.217   2.838  0.1110 -0.0328  0.0550
  585MOL0     N77139   6.706   2.267   2.958 -0.3859 -0.0424  0.2475
  585MOL0     C77140   6.421   2.515   4.197  0.3779  0.2616 -0.3077
  585MOL0     C77141   6.365   2.440   4.304 -0.0778 -0.6524 -0.0419
  585MOL0     C77142   6.173   2.164   4.609  1.3409 -0.0130 -0.0101
  585MOL0     C77143   6.211   2.129   4.741 -0.6928 -1.2468  0.2002
  585MOL0     C77144   6.145   2.022   4.808 -0.4681 -1.3057 -0.6495
  585MOL0     C77145   6.037   1.955   4.747  0.9123  0.0441  0.3167
  585MOL0     O77146   5.993   1.840   4.810 -0.0618  0.1177  0.2061
  585MOL0     C77147   5.866   1.787   4.770 -0.1586  0.2337 -0.3091
  585MOL0     C77148   5.834   1.657   4.849 -0.2339  0.7334 -0.4205
  585MOL0     C77149   5.912   1.532   4.809  0.1499 -0.0662 -0.5767
  585MOL0     C77150   5.873   1.472   4.669 -0.2036  0.1469  0.1973
  585MOL0     C77151   5.950   1.356   4.632  0.4080 -0.3452  0.0139
  585MOL0     C77152   6.013   1.263   4.591  1.0406  0.9177  0.0980
  585MOL0     C77153   5.994   1.991   4.616 -0.6854  0.7079 -0.7641
  585MOL0     C77154   6.055   2.101   4.557  0.4819  0.6738  0.8971
  585MOL0     H77155   6.239   2.192   4.120 -1.0591  0.2690  1.4607
  585MOL0     H77156   6.324   2.315   3.936 -2.2190  1.0394 -0.6514
  585MOL0     H77157   6.480   2.621   3.775  4.6960 -0.0284 -1.1419
  585MOL0     H77158   6.347   2.507   3.834  0.9283 -0.0861  1.1216
  585MOL0     H77159   6.524   2.322   3.828  0.3496 -0.4088 -1.7033
  585MOL0     H77160   6.641   2.453   3.831  0.9719 -1.0909 -2.3811
  585MOL0     H77161   6.574   2.513   3.597 -1.5884 -0.9938 -1.9403
  585MOL0     H77162   6.464   2.370   3.602 -0.6159 -0.7283  1.1003
  585MOL0     H77163   6.766   2.397   3.639 -1.2255 -0.1968  1.4898
  585MOL0     H77164   6.679   2.241   3.613 -0.4297 -0.0827  0.9774
  585MOL0     H77165   6.704   2.461   3.415  0.9955  0.9466  2.7231
  585MOL0     H77166   6.615   2.308   3.387  0.7239  0.1362  0.4574
  585MOL0     H77167   6.843   2.185   3.462 -2.4045 -0.5024 -0.5007
  585MOL0     H77168   6.909   2.340   3.413 -0.2524  0.9235 -0.4697
  585MOL0     H77169   6.928   2.195   3.243  0.1166  3.0866  0.4705
  585MOL0     H77170   6.754   2.148   3.236  0.6324 -1.7860  1.6414
  585MOL0     H77171   6.891   2.420   3.176  0.8730 -1.1989 -0.0901
  585MOL0     H77172   6.715   2.386   3.172 -0.3580 -1.5378 -3.1323
  585MOL0     H77173   7.029   2.286   2.972 -0.6306 -1.3828  1.8640
  585MOL0     H77174   7.046   2.268   2.711  1.4460 -1.1423  1.5808
  585MOL0     H77175   6.904   2.216   2.615  0.7007 -1.5183 -0.1715
  585MOL0     H77176   7.098   2.041   2.761  0.6481 -1.4627 -2.1116
  585MOL0     H77177   7.075   2.067   2.592  1.7272 -1.2318  0.7438
  585MOL0     H77178   6.872   1.945   2.794  0.4785 -2.4209 -0.5920
  585MOL0     H77179   6.831   1.963   2.622 -0.4492 -0.0329  0.5688
  585MOL0     H77180   7.008   1.771   2.779 -1.4582 -1.1221  1.0195
  585MOL0     H77181   7.068   1.820   2.613  0.1766 -2.0146 -0.9169
  585MOL0     H77182   6.840   1.607   2.411 -0.9279 -1.8175  0.3131
  585MOL0     H77183   6.898   1.374   2.331  4.0884 -0.4542 -0.4619
  585MOL0     H77184   6.735   1.131   2.237 -0.1286  0.9819 -0.5720
  585MOL0     H77185   6.496   1.125   2.266  2.6088 -2.0354 -1.7316
  585MOL0     H77186   6.295   0.981   2.402  1.8729  1.0465 -2.3607
  585MOL0     H77187   6.277   1.154   2.354  3.6034 -1.2749 -1.8525
  585MOL0     H77188   6.060   1.063   2.422  1.9267  3.0116 -2.2244
  585MOL0     H77189   6.125   1.193   2.529  1.1177  0.5904  1.4515
  585MOL0     H77190   6.212   1.026   2.694 -0.0352 -1.8659  0.9029
  585MOL0     H77191   6.125   0.911   2.605 -0.0288  1.2977 -3.8730
  585MOL0     H77192   6.038   1.167   2.768 -1.2621  0.8915 -1.5893
  585MOL0     H77193   5.918   1.098   2.674 -0.2195  0.0076  0.2070
  585MOL0     H77194   5.946   0.871   2.797 -5.4355  0.6337  3.3946
  585MOL0     H77195   5.893   0.995   2.893 -0.3405  0.8404 -0.8037
  585MOL0     H77196   6.100   1.052   2.993 -1.4129  1.7925 -2.7156
  585MOL0     H77197   6.184   0.937   2.897  0.9302  0.5559  0.1690
  585MOL0     H77198   5.953   0.815   3.047  0.2769 -0.5905 -2.4343
  585MOL0     H77199   6.117   0.750   3.005 -2.1302 -2.0364 -0.6006
  585MOL0     H77200   6.053   0.808   3.261 -1.7316  2.2630 -0.1806
  585MOL0     H77201   6.090   0.969   3.200 -0.3417 -0.4819  0.0842
  585MOL0     H77202   6.546   1.107   2.691 -1.4113 -1.3484 -0.8255
  585MOL0     H77203   6.798   1.114   2.664  0.7973  5.0288 -0.4447
  585MOL0     H77204   7.077   1.310   2.714  1.3294  1.4943  0.0438
  585MOL0     H77205   7.038   1.540   2.778  0.2018 -2.0447  0.3926
  585MOL0     H77206   6.475   2.603   4.230 -2.3708  1.7867  0.3938
  585MOL0     H77207   6.359   2.484   4.403 -3.0910 -1.4481  0.2408
  585MOL0     H77208   6.293   2.184   4.785 -2.3696  3.1819 -1.6242
  585MOL0     H77209   6.175   2.009   4.911  0.4970 -0.6036 -0.8216
  585MOL0     H77210   5.858   1.754   4.666  1.9384 -0.6117 -0.2634
  585MOL0     H77211   5.786   1.860   4.783  1.3919  1.5486  2.7530
  585MOL0     H77212   5.850   1.665   4.957 -1.8999 -2.2172  0.1506
  585MOL0     H77213   5.726   1.643   4.842 -0.3607  1.8946 -1.1368
  585MOL0     H77214   5.879   1.466   4.889 -2.9667  4.3303  2.2179
  585MOL0     H77215   6.021   1.547   4.810  0.4110 -0.9998  3.8585
  585MOL0     H77216   5.765   1.452   4.671 -0.2739 -0.2670 -2.5772
  585MOL0     H77217   5.883   1.539   4.583 -3.0724 -1.5739 -1.6698
  585MOL0     H77218   6.083   1.189   4.558 -0.8637 -0.3458 -1.2847
  585MOL0     H77219   5.918   1.935   4.563 -2.2181  0.3384  1.6365
  585MOL0     H77220   6.007   2.124   4.462 -2.4359  0.9099  2.3080
  586MOL0     O77221   4.957   3.991   6.153 -0.1476 -0.1635 -0.1802
  586MOL0     C77222   4.942   3.893   6.224 -0.0117  0.8080 -0.8348
  586MOL0     O77223   4.921   3.769   6.173 -0.4522  0.1294 -0.4132
  586MOL0     C77224   4.872   3.750   6.052 -0.5645 -0.4047 -0.0431
  586MOL0     C77225   4.770   3.828   5.991 -1.1982  0.4406 -0.1801
  586MOL0     C77226   4.739   3.805   5.857  0.5225 -1.2482 -0.8052
  586MOL0     C77227   4.792   3.693   5.782 -0.4652 -0.0635 -0.1613
  586MOL0     O77228   4.753   3.664   5.655  0.3629  0.2256 -0.7166
  586MOL0     C77229   4.854   3.608   5.563 -0.2727 -0.7666 -0.5931
  586MOL0     C77230   4.853   3.466   5.524 -0.8726  0.1226 -0.2322
  586MOL0     C77231   4.952   3.438   5.407  0.3354  0.1721  0.4821
  586MOL0     C77232   4.884   3.332   5.318 -0.5911 -0.1803 -0.1803
  586MOL0     C77233   4.975   3.268   5.201  0.4776  0.2186  0.2941
  586MOL0     C77234   4.887   3.173   5.119 -0.7961 -0.4590 -0.2353
  586MOL0     C77235   4.958   3.094   5.019 -0.2366  0.3443  0.2091
  586MOL0     C77236   4.855   3.014   4.929 -0.7960  0.6749  0.0214
  586MOL0     N77237   4.903   2.936   4.816 -0.2029  0.2157 -0.7444
  586MOL0     C77238   4.942   2.809   4.827 -0.2264 -0.0949  1.0102
  586MOL0     C77239   4.983   2.767   4.699 -0.0958  0.2001 -0.1265
  586MOL0     C77240   5.013   2.618   4.658 -0.1696 -0.8753  0.6109
  586MOL0     C77241   5.018   2.600   4.502  1.1352 -0.2868  0.4294
  586MOL0     C77242   4.884   2.582   4.427  0.3541  0.6844  1.3645
  586MOL0     C77243   4.919   2.572   4.274 -0.0143 -0.2176  0.0074
  586MOL0     O77244   4.796   2.585   4.196 -0.2384 -0.3207  0.0050
  586MOL0     C77245   4.791   2.510   4.075 -0.2540 -0.2546 -0.6253
  586MOL0     C77246   4.675   2.460   4.020 -0.0427  1.0537 -0.0784
  586MOL0     C77247   4.680   2.378   3.907  0.4251 -0.1268  0.0584
  586MOL0     C77248   4.801   2.346   3.836 -1.0363 -0.9559  0.7759
  586MOL0     C77249   4.805   2.261   3.715 -0.3540  0.4849 -0.3081
  586MOL0     O77250   4.924   2.236   3.665  0.0271 -0.9402 -0.3536
  586MOL0     C77251   4.940   2.185   3.537  0.0862 -0.1738  0.7851
  586MOL0     C77252   4.857   2.195   3.425  0.4939  0.3382 -0.3060
  586MOL0     C77253   4.883   2.124   3.308  0.1324  1.1710 -0.2964
  586MOL0     C77254   4.987   2.029   3.307 -0.2995 -0.0388  0.2458
  586MOL0     O77255   5.017   1.958   3.195 -0.9178  0.1313 -0.0562
  586MOL0     C77256   5.151   1.933   3.138 -0.5785  0.1163  0.4852
  586MOL0     C77257   5.167   1.913   2.988 -1.0148 -0.3828  0.0926
  586MOL0     C77258   5.102   2.025   2.904 -0.0424  0.1925  0.6789
  586MOL0     C77259   5.105   1.981   2.754 -0.2189 -0.6067 -0.4933
  586MOL0     C77260   5.036   2.082   2.665  0.2805 -0.5800 -0.8085
  586MOL0     C77261   4.909   2.019   2.609 -0.3587 -0.2265 -0.2747
  586MOL0     C77262   4.835   2.129   2.520 -0.2057  0.4331  0.0982
  586MOL0     C77263   4.799   2.268   2.575  0.1042 -0.1647  1.0515
  586MOL0    Cl77264   4.719   2.366   2.462 -0.5942 -0.0305  0.2087
  586MOL0     C77265   5.065   2.014   3.414 -0.3945  0.5214 -0.2325
  586MOL0     C77266   5.047   2.094   3.526  0.4137  0.1210 -0.4026
  586MOL0     O77267   4.699   2.228   3.667 -0.4516  0.4466 -0.3687
  586MOL0     C77268   4.916   2.407   3.882  0.4548 -0.2244  1.0188
  586MOL0     C77269   4.914   2.483   3.997 -0.0743  1.0305 -0.1360
  586MOL0     N77270   4.970   2.882   4.618  0.1773  0.2285 -0.0401
  586MOL0     N77271   4.918   2.983   4.684  0.4744  0.7561  0.1517
  586MOL0     C77272   4.893   3.622   5.847 -0.0795 -0.8660 -0.4193
  586MOL0     C77273   4.933   3.648   5.985 -0.2192 -0.0260 -0.8248
  586MOL0     C77274   4.953   3.896   6.372 -0.2666  0.7099  0.2775
  586MOL0     C77275   4.963   4.022   6.442  0.6577  0.4436 -0.7329
  586MOL0     C77276   4.984   4.021   6.574 -0.8091  0.5193 -0.5004
  586MOL0     C77277   5.030   3.905   6.644  0.7986 -0.6287  0.0587
  586MOL0     O77278   5.059   3.896   6.776 -0.0016 -0.1728  0.1920
  586MOL0     C77279   5.019   4.012   6.855  0.2305 -0.1322 -0.4400
  586MOL0     C77280   5.062   3.995   7.000  1.2747  0.2296 -0.0710
  586MOL0     C77281   4.951   3.938   7.074  0.7137  0.2797  0.7841
  586MOL0     C77282   4.982   3.936   7.217  0.0492 -0.0981  0.1586
  586MOL0     C77283   4.918   3.834   7.297 -0.4421  0.1338 -0.5792
  586MOL0     C77284   4.867   3.745   7.360  0.7176  0.3127  0.4780
  586MOL0     C77285   5.017   3.787   6.574 -0.4206  0.0670 -0.1904
  586MOL0     C77286   4.964   3.780   6.446 -0.1705  0.2935  0.2583
  586MOL0     H77287   4.740   3.914   6.051  1.4694  0.9992  0.4875
  586MOL0     H77288   4.671   3.874   5.808  3.1247  4.0833  2.1859
  586MOL0     H77289   4.957   3.634   5.590  0.5711 -1.2716 -3.0937
  586MOL0     H77290   4.848   3.677   5.479 -1.2629 -0.1102 -0.0010
  586MOL0     H77291   4.753   3.450   5.482 -0.4600 -1.2165 -0.7429
  586MOL0     H77292   4.864   3.398   5.609  1.1935  1.0496  0.3222
  586MOL0     H77293   5.051   3.417   5.449  0.8653 -1.1871 -1.3230
  586MOL0     H77294   4.974   3.525   5.344 -0.4908 -0.4318 -0.6753
  586MOL0     H77295   4.849   3.250   5.382  0.6480 -2.1050 -1.8639
  586MOL0     H77296   4.797   3.380   5.272  0.6855 -0.3938 -2.9966
  586MOL0     H77297   5.055   3.205   5.239  1.7665  2.5626  1.7065
  586MOL0     H77298   5.018   3.350   5.142  1.1401 -2.2463 -2.9692
  586MOL0     H77299   4.810   3.236   5.074 -1.9223 -1.6568 -0.0228
  586MOL0     H77300   4.829   3.111   5.188 -0.6912 -1.1200 -0.7297
  586MOL0     H77301   5.016   3.162   4.956  1.2589 -2.9152 -2.2738
  586MOL0     H77302   5.032   3.031   5.069  1.2680 -0.0085 -2.2807
  586MOL0     H77303   4.779   3.077   4.881 -1.7517 -0.0525  0.5430
  586MOL0     H77304   4.808   2.936   4.990 -1.3426  2.3815  1.9065
  586MOL0     H77305   4.949   2.732   4.903 -1.1870 -0.5800  0.6308
  586MOL0     H77306   4.942   2.544   4.697 -5.0752  3.2469  0.4857
  586MOL0     H77307   5.108   2.587   4.703  0.0364 -4.1900 -1.7999
  586MOL0     H77308   5.076   2.510   4.482 -0.1397 -0.7086 -1.6311
  586MOL0     H77309   5.065   2.688   4.458 -2.1906  0.5093 -1.9831
  586MOL0     H77310   4.836   2.498   4.476  1.3491 -0.0862  1.0583
  586MOL0     H77311   4.816   2.667   4.436 -0.3629  0.3382 -0.3934
  586MOL0     H77312   4.962   2.472   4.267  0.3523 -0.0458 -0.2144
  586MOL0     H77313   4.992   2.651   4.251 -2.0311  1.9750  0.7304
  586MOL0     H77314   4.583   2.472   4.076 -1.5034  1.7822 -2.4757
  586MOL0     H77315   4.585   2.335   3.877 -0.9989  2.4601  0.5793
  586MOL0     H77316   4.764   2.251   3.432  0.2897  0.0641 -0.8492
  586MOL0     H77317   4.825   2.129   3.216 -4.2362 -0.9913  2.0383
  586MOL0     H77318   5.192   1.847   3.193 -2.4360 -2.4645 -1.8623
  586MOL0     H77319   5.215   2.021   3.150  1.7248 -0.7252 -3.7571
  586MOL0     H77320   5.112   1.823   2.958  0.9692 -0.8262 -2.5743
  586MOL0     H77321   5.272   1.906   2.957 -1.0232 -1.1103  0.2200
  586MOL0     H77322   5.140   2.128   2.911 -0.2212  0.2749  0.4249
  586MOL0     H77323   4.997   2.024   2.933 -1.0558 -2.5579 -2.5152
  586MOL0     H77324   5.212   1.982   2.733  0.1822  2.0717  1.1891
  586MOL0     H77325   5.070   1.878   2.746  2.0088 -1.6157  1.5345
  586MOL0     H77326   5.098   2.113   2.580  1.5419 -2.8361 -0.7934
  586MOL0     H77327   5.000   2.167   2.723 -2.3135 -1.8779 -0.3635
  586MOL0     H77328   4.852   2.005   2.700 -4.1954  7.1286 -0.7931
  586MOL0     H77329   4.917   1.923   2.556  3.0004  0.5182 -1.3906
  586MOL0     H77330   4.893   2.139   2.428  1.1830  3.9128  1.1821
  586MOL0     H77331   4.734   2.090   2.504  0.0998 -0.5032  0.3495
  586MOL0     H77332   4.889   2.320   2.609  0.2653  0.6790 -0.5777
  586MOL0     H77333   4.734   2.259   2.662 -1.2160  0.5342  0.1718
  586MOL0     H77334   5.139   1.935   3.426  0.5191  1.5514  1.2542
  586MOL0     H77335   5.107   2.097   3.616 -1.5763 -0.0840  0.9768
  586MOL0     H77336   5.010   2.387   3.831 -1.7794 -0.7393 -3.4098
  586MOL0     H77337   5.008   2.499   4.049 -0.0774 -0.7678  0.4764
  586MOL0     H77338   4.940   3.543   5.789  2.2847 -1.2479  1.8618
  586MOL0     H77339   5.014   3.603   6.041 -0.1890  0.1323 -0.7400
  586MOL0     H77340   4.944   4.113   6.385  3.2164  1.8429  0.4670
  586MOL0     H77341   4.987   4.121   6.616  1.7757  0.8722 -1.3416
  586MOL0     H77342   4.910   4.009   6.852  0.2379 -0.0053 -2.4916
  586MOL0     H77343   5.062   4.103   6.811 -1.0955  0.4236 -0.6102
  586MOL0     H77344   5.146   3.925   6.998  0.6198 -0.5765  0.0358
  586MOL0     H77345   5.087   4.089   7.050 -0.5872  1.0162 -0.5304
  586MOL0     H77346   4.939   3.837   7.033  1.8142  1.2315 -2.1608
  586MOL0     H77347   4.861   3.997   7.052  0.1826  0.0135  2.1171
  586MOL0     H77348   5.090   3.920   7.224  0.3512  1.6411  0.1133
  586MOL0     H77349   4.965   4.026   7.278 -1.1989 -3.3347  5.2372
  586MOL0     H77350   4.818   3.662   7.406  2.6323 -0.1963  1.7286
  586MOL0     H77351   5.042   3.687   6.608  2.1839  0.2389 -1.4400
  586MOL0     H77352   4.959   3.682   6.398 -0.0360 -0.5800  1.9662
  587MOL0     O77353   3.535   8.979   9.619 -0.5716 -0.5344  0.6477
  587MOL0     C77354   3.603   8.888   9.577  1.0834 -0.4100 -0.5632
  587MOL0     O77355   3.686   8.811   9.661 -0.8131  0.2958 -0.0189
  587MOL0     C77356   3.698   8.850   9.790  0.5691  0.7100 -0.4963
  587MOL0     C77357   3.812   8.906   9.841  0.0403  0.0646  0.4991
  587MOL0     C77358   3.824   8.936   9.977 -0.7181 -0.9027  0.6918
  587MOL0     C77359   3.735   8.879  10.064 -0.1438 -0.5701 -0.8518
  587MOL0     O77360   3.751   8.906  10.197  0.4640  0.0299 -0.6102
  587MOL0     C77361   3.657   8.999  10.265 -0.4701  0.3319  0.0630
  587MOL0     C77362   3.725   9.139  10.240  0.2147  0.3540 -0.8295
  587MOL0     C77363   3.662   9.264  10.306 -0.0110 -1.0627  0.4489
  587MOL0     C77364   3.745   9.396  10.267  0.5417  0.2534  0.0334
  587MOL0     C77365   3.671   9.537  10.289 -0.3084  1.5657 -0.1694
  587MOL0     C77366   3.564   9.564  10.182  0.3961 -0.1189 -0.0252
  587MOL0     C77367   3.463   9.676  10.224 -0.2009  0.0027 -0.8300
  587MOL0     C77368   3.336   9.614  10.281 -0.8551  0.2165  0.2858
  587MOL0     N77369   3.237   9.566  10.183 -1.2598  0.1669  0.4773
  587MOL0     C77370   3.189   9.632  10.068 -1.1314  0.1426 -0.7498
  587MOL0     C77371   3.103   9.542  10.012 -0.2570  0.2011  0.3373
  587MOL0     C77372   2.998   9.568   9.901 -0.1259  0.3813 -0.6298
  587MOL0     C77373   3.003   9.461   9.797 -0.3412  0.1782 -0.0886
  587MOL0     C77374   2.908   9.477   9.679 -0.1954  0.3406 -0.0010
  587MOL0     C77375   2.938   9.579   9.571  0.1401  0.0896 -0.6252
  587MOL0     O77376   3.074   9.590   9.528 -0.3334 -0.0052  0.2157
  587MOL0     C77377   3.117   9.503   9.425 -0.1062  0.3610  0.1919
  587MOL0     C77378   3.213   9.405   9.448 -0.3341  0.9201 -0.0788
  587MOL0     C77379   3.260   9.327   9.347 -0.2448 -0.5279 -0.2338
  587MOL0     C77380   3.215   9.342   9.217 -0.1657  0.5382  0.0755
  587MOL0     C77381   3.283   9.276   9.105  0.6170  0.1549  0.3310
  587MOL0     O77382   3.309   9.357   9.000  0.1157  0.5254  0.1477
  587MOL0     C77383   3.371   9.328   8.887 -0.4463 -0.1344 -0.3325
  587MOL0     C77384   3.392   9.196   8.837  0.4197  0.1268  0.1350
  587MOL0     C77385   3.445   9.175   8.711  0.1704  0.3243 -0.2691
  587MOL0     C77386   3.495   9.287   8.640 -1.6027  0.0037  0.3719
  587MOL0     O77387   3.520   9.283   8.503 -0.0746  0.0061  0.0430
  587MOL0     C77388   3.604   9.181   8.451  1.4818 -0.3234 -1.0623
  587MOL0     C77389   3.705   9.236   8.363 -0.7067 -0.2499 -0.5514
  587MOL0     C77390   3.796   9.140   8.280 -0.3705 -0.1365  0.5153
  587MOL0     C77391   3.857   9.024   8.354  0.7005 -0.2674  0.8170
  587MOL0     C77392   3.921   8.922   8.260 -0.2901  0.1498 -0.7341
  587MOL0     C77393   3.825   8.834   8.181 -0.1460  0.1341 -0.1392
  587MOL0     C77394   3.901   8.747   8.075  0.2838 -1.0416 -0.3465
  587MOL0     C77395   3.815   8.631   8.026  0.1379 -0.0535 -0.1462
  587MOL0    Cl77396   3.695   8.713   7.915  0.2268  0.4058 -0.3492
  587MOL0     C77397   3.485   9.414   8.691 -1.2378  1.5973 -0.9460
  587MOL0     C77398   3.419   9.437   8.811  0.0518  0.1776 -0.1454
  587MOL0     O77399   3.322   9.155   9.121  0.5193 -0.0968  0.1254
  587MOL0     C77400   3.111   9.432   9.199  0.0655  0.3480  0.6649
  587MOL0     C77401   3.061   9.517   9.297 -0.2199  0.9324  0.3459
  587MOL0     N77402   3.100   9.433  10.099 -0.3681 -0.0114  0.3428
  587MOL0     N77403   3.170   9.450  10.199  0.8849 -0.1779  0.2325
  587MOL0     C77404   3.619   8.823  10.017  0.4908  0.7317  0.7002
  587MOL0     C77405   3.593   8.814   9.880 -0.4046  0.3293 -0.3793
  587MOL0     C77406   3.578   8.849   9.435 -0.4065 -0.6575 -0.2229
  587MOL0     C77407   3.636   8.729   9.391 -0.5528  0.8359  0.0517
  587MOL0     C77408   3.612   8.676   9.263 -0.6189 -0.4447  0.8896
  587MOL0     C77409   3.551   8.756   9.165  0.0596 -0.2050 -0.9183
  587MOL0     O77410   3.533   8.691   9.048  0.2298  0.5697 -0.5696
  587MOL0     C77411   3.441   8.728   8.947  0.0441  0.5238  0.1573
  587MOL0     C77412   3.293   8.724   8.996 -0.3349  0.4140  0.1864
  587MOL0     C77413   3.196   8.789   8.894 -0.6196 -0.3320  0.0344
  587MOL0     C77414   3.058   8.820   8.948 -0.2396  0.0844  0.2300
  587MOL0     C77415   2.957   8.795   8.846  0.7365 -0.6475 -0.0830
  587MOL0     C77416   2.870   8.786   8.759 -0.2911  0.1700 -0.3969
  587MOL0     C77417   3.510   8.884   9.208 -0.0277  0.2589 -0.5106
  587MOL0     C77418   3.514   8.927   9.341  0.5342  0.1947  0.1008
  587MOL0     H77419   3.896   8.923   9.775  1.3705 -2.4484  1.4512
  587MOL0     H77420   3.916   8.985  10.007 -1.2326 -1.7270  3.9334
  587MOL0     H77421   3.668   8.969  10.369  1.6478  0.8135  0.0230
  587MOL0     H77422   3.551   8.997  10.238 -0.3638 -0.2697 -0.3460
  587MOL0     H77423   3.715   9.153  10.132 -2.2156 -4.2672 -1.4559
  587MOL0     H77424   3.831   9.133  10.266  0.6372 -1.4308 -2.7170
  587MOL0     H77425   3.666   9.261  10.415  3.3473 -1.0084  0.4190
  587MOL0     H77426   3.557   9.266  10.276  0.2670 -1.4568 -0.6157
  587MOL0     H77427   3.834   9.390  10.330  1.6057  0.7198 -1.3769
  587MOL0     H77428   3.791   9.395  10.168  1.8874 -1.7725  0.6281
  587MOL0     H77429   3.746   9.615  10.273 -0.8756  2.3570  0.8377
  587MOL0     H77430   3.635   9.542  10.393  0.8629  1.5518  0.2497
  587MOL0     H77431   3.499   9.482  10.148  1.0052  0.1933 -2.1072
  587MOL0     H77432   3.622   9.597  10.095 -3.2653  3.7571 -1.3526
  587MOL0     H77433   3.506   9.735  10.305 -1.9836 -0.1387  0.2736
  587MOL0     H77434   3.438   9.742  10.140 -2.6356  1.0959  0.6258
  587MOL0     H77435   3.280   9.672  10.354  0.7878  1.2630  0.7530
  587MOL0     H77436   3.358   9.525  10.342 -2.6642  0.4907  1.4178
  587MOL0     H77437   3.222   9.729  10.032 -1.7849  0.0164 -1.7172
  587MOL0     H77438   3.021   9.667   9.860 -1.2915  1.5130  1.2967
  587MOL0     H77439   2.894   9.563   9.934 -1.4350 -0.9787 -4.3570
  587MOL0     H77440   2.970   9.370   9.848 -0.4281 -0.2301 -0.8569
  587MOL0     H77441   3.106   9.441   9.768 -0.4974  0.0773 -0.5783
  587MOL0     H77442   2.901   9.375   9.641 -1.4416 -0.2802  1.7842
  587MOL0     H77443   2.808   9.503   9.717 -0.3284 -0.8822  0.5506
  587MOL0     H77444   2.892   9.676   9.593  1.7287  0.1341  3.3267
  587MOL0     H77445   2.870   9.553   9.489 -3.6608  0.3812  2.1678
  587MOL0     H77446   3.268   9.410   9.542  1.6382  0.0877 -1.1487
  587MOL0     H77447   3.352   9.270   9.358  2.8621  3.5890 -2.1647
  587MOL0     H77448   3.351   9.117   8.899 -2.2770  1.3192  0.0060
  587MOL0     H77449   3.447   9.080   8.659 -0.3108  1.6725 -2.9122
  587MOL0     H77450   3.540   9.110   8.398 -1.5301  1.3562  0.0735
  587MOL0     H77451   3.655   9.124   8.529 -0.9141 -0.6068  0.3947
  587MOL0     H77452   3.767   9.305   8.421 -0.2511  0.8226 -2.2445
  587MOL0     H77453   3.653   9.297   8.289 -1.8321 -0.5229 -0.0159
  587MOL0     H77454   3.879   9.200   8.241  0.1390 -1.7652 -1.0665
  587MOL0     H77455   3.736   9.092   8.202  1.5556 -2.4801  0.3768
  587MOL0     H77456   3.937   9.071   8.414  3.5330  0.0434 -2.8498
  587MOL0     H77457   3.789   8.977   8.425  0.3692 -1.2425 -0.1304
  587MOL0     H77458   3.994   8.866   8.318 -0.1235  2.2410  1.2149
  587MOL0     H77459   3.980   8.984   8.192 -0.4173  2.4761  1.1706
  587MOL0     H77460   3.763   8.904   8.125 -1.4912 -0.3774  0.6819
  587MOL0     H77461   3.753   8.772   8.234 -0.1339 -1.0337 -1.3984
  587MOL0     H77462   3.921   8.818   7.995 -1.6258  0.0908  0.1113
  587MOL0     H77463   3.987   8.703   8.126 -0.5947  0.7829  2.9910
  587MOL0     H77464   3.766   8.582   8.111 -1.1863  2.9151  0.9099
  587MOL0     H77465   3.872   8.553   7.973  2.1068  0.9995  0.3288
  587MOL0     H77466   3.541   9.486   8.632  0.2059  0.3240 -1.2007
  587MOL0     H77467   3.425   9.534   8.858  0.1397 -0.5172  1.3411
  587MOL0     H77468   3.057   9.430   9.105 -0.5829 -0.1486  1.0360
  587MOL0     H77469   2.988   9.590   9.264  0.0679  0.5220 -1.3112
  587MOL0     H77470   3.547   8.783  10.087  2.0153 -1.1953  1.2772
  587MOL0     H77471   3.495   8.773   9.861 -0.2074 -0.1592 -0.3557
  587MOL0     H77472   3.695   8.669   9.459  0.0331 -1.1440 -2.0917
  587MOL0     H77473   3.647   8.576   9.241  0.6501 -0.6140  3.3190
  587MOL0     H77474   3.440   8.661   8.861 -1.2987 -1.0468  1.3368
  587MOL0     H77475   3.467   8.827   8.907 -1.4819  0.3101 -1.4830
  587MOL0     H77476   3.264   8.624   9.028  3.6725 -0.3588  2.0617
  587MOL0     H77477   3.276   8.780   9.089  1.2125 -0.2891  0.9221
  587MOL0     H77478   3.182   8.719   8.811 -0.8604 -1.2762  0.8542
  587MOL0     H77479   3.237   8.885   8.862 -0.9406  0.3501  1.5798
  587MOL0     H77480   3.038   8.751   9.031 -2.2024 -0.4397 -0.6254
  587MOL0     H77481   3.054   8.919   8.994  2.4111  0.8047 -0.9093
  587MOL0     H77482   2.797   8.813   8.685 -1.4790  2.1679  1.3827
  587MOL0     H77483   3.484   8.963   9.138  0.1670  0.8641  0.0866
  587MOL0     H77484   3.471   9.026   9.350 -1.1751 -0.6667  2.3587
  588MOL0     O77485  10.437   0.229   5.725 -0.2624 -0.2899  0.1148
  588MOL0     C77486  10.522   0.158   5.775 -1.0312  0.6372 -0.1080
  588MOL0     O77487  10.650   0.127   5.709 -0.0794  0.3060 -0.1347
  588MOL0     C77488  10.676   0.193   5.589  0.0753  0.4332 -0.4709
  588MOL0     C77489  10.741   0.320   5.593 -0.0011  0.0208 -0.5851
  588MOL0     C77490  10.775   0.387   5.473  0.1780  0.6460  0.2170
  588MOL0     C77491  10.757   0.325   5.351 -0.4193  0.2847 -0.3856
  588MOL0     O77492  10.801   0.370   5.230  0.5992 -0.2325 -0.7795
  588MOL0     C77493  10.934   0.421   5.224  0.7005 -0.3760 -0.2504
  588MOL0     C77494  10.998   0.459   5.085 -0.0632  0.3412 -0.0369
  588MOL0     C77495  11.003   0.347   4.980 -0.1855  0.4590  0.0887
  588MOL0     C77496  10.874   0.312   4.915 -0.5835 -0.1174  0.8593
  588MOL0     C77497  10.903   0.224   4.794  0.2074  1.0578  1.1486
  588MOL0     C77498  10.941   0.083   4.824 -0.2552  0.6390  0.2259
  588MOL0     C77499  10.951  -0.020   4.709  0.4934 -0.0084  0.0043
  588MOL0     C77500  11.038   0.019   4.599  0.1745 -0.5690 -0.3203
  588MOL0     N77501  11.178   0.038   4.655  0.1150  0.2565  0.5342
  588MOL0     C77502  11.270  -0.061   4.684 -0.3028 -0.0615  0.7945
  588MOL0     C77503  11.363   0.013   4.752 -0.3233 -0.4788 -0.5894
  588MOL0     C77504  11.496  -0.032   4.801 -0.3827 -0.1636  0.3356
  588MOL0     C77505  11.505  -0.053   4.952  1.1582 -0.5140  0.3609
  588MOL0     C77506  11.511   0.081   5.035 -1.4078  1.3627  0.2296
  588MOL0     C77507  11.520   0.044   5.181  0.6518 -0.1576  0.0807
  588MOL0     O77508  11.518   0.167   5.250 -0.0203 -0.1017 -0.4338
  588MOL0     C77509  11.505   0.167   5.385 -0.2888  0.0077 -0.2348
  588MOL0     C77510  11.506   0.054   5.469 -0.7118 -0.5031  0.6228
  588MOL0     C77511  11.510   0.063   5.608  0.5455 -1.0321  0.4724
  588MOL0     C77512  11.496   0.189   5.669  0.4202  0.4507  0.8575
  588MOL0     C77513  11.492   0.206   5.816 -0.3601 -0.7755  0.7993
  588MOL0     O77514  11.431   0.315   5.874  0.3221 -0.1395 -0.3721
  588MOL0     C77515  11.404   0.334   6.008 -0.4602  0.4998  0.5544
  588MOL0     C77516  11.399   0.468   6.054  0.4637  0.0489  0.5714
  588MOL0     C77517  11.370   0.490   6.191  0.1749 -0.5798  0.7615
  588MOL0     C77518  11.334   0.390   6.285 -0.2742 -0.5039  1.8453
  588MOL0     O77519  11.285   0.438   6.410  0.1884 -0.3758 -0.5032
  588MOL0     C77520  11.297   0.357   6.521 -0.4144  0.3061  0.6535
  588MOL0     C77521  11.255   0.431   6.645 -0.7383 -0.1258 -0.3487
  588MOL0     C77522  11.265   0.329   6.763 -0.0096  0.6346  0.3264
  588MOL0     C77523  11.265   0.390   6.913 -0.8360 -0.7355  0.5724
  588MOL0     C77524  11.279   0.295   7.024  0.4303  0.0788 -0.7937
  588MOL0     C77525  11.311   0.360   7.152  0.1091 -0.1943  0.2268
  588MOL0     C77526  11.327   0.256   7.262 -0.1868 -0.5682 -0.3953
  588MOL0     C77527  11.409   0.320   7.377 -0.3596  0.2754  0.7263
  588MOL0    Cl77528  11.300   0.440   7.461  0.2734 -0.0946 -0.1310
  588MOL0     C77529  11.317   0.264   6.228 -0.7308  0.7075  0.0677
  588MOL0     C77530  11.365   0.235   6.096 -0.4121 -0.1311  0.6059
  588MOL0     O77531  11.566   0.125   5.878 -0.1759 -0.4739  0.4679
  588MOL0     C77532  11.490   0.301   5.582 -0.4900  0.6557 -0.2058
  588MOL0     C77533  11.499   0.294   5.443 -1.4500  0.0828 -0.1805
  588MOL0     N77534  11.326   0.143   4.772  0.0572 -0.1230  0.0405
  588MOL0     N77535  11.217   0.156   4.711  0.4211 -0.5488 -0.5431
  588MOL0     C77536  10.713   0.193   5.356  0.1181 -0.0499  1.6779
  588MOL0     C77537  10.666   0.129   5.466  0.2585  0.3517 -0.6635
  588MOL0     C77538  10.508   0.101   5.918 -0.4129 -0.0738  0.1975
  588MOL0     C77539  10.600   0.012   5.970 -0.2134 -0.7200 -1.0176
  588MOL0     C77540  10.599  -0.026   6.105 -0.2035  0.1335 -0.7507
  588MOL0     C77541  10.508   0.027   6.187  1.2776 -0.9844  0.5016
  588MOL0     O77542  10.484  -0.008   6.309  0.5307  0.5519 -0.5004
  588MOL0     C77543  10.560  -0.113   6.381  0.1925  0.4112 -0.8298
  588MOL0     C77544  10.522  -0.108   6.531 -0.8222 -0.2180  0.3362
  588MOL0     C77545  10.481  -0.239   6.592  0.6116 -0.3685  0.0123
  588MOL0     C77546  10.592  -0.347   6.595  0.5230  0.2501  0.0317
  588MOL0     C77547  10.683  -0.330   6.705  0.6162  0.6525  0.7649
  588MOL0     C77548  10.772  -0.334   6.778 -0.8747 -0.1728  0.0373
  588MOL0     C77549  10.411   0.114   6.140  0.9447 -0.2219  0.1797
  588MOL0     C77550  10.412   0.151   6.006  0.3717 -0.0739  1.8098
  588MOL0     H77551  10.750   0.367   5.690 -2.5400 -1.9206  0.7013
  588MOL0     H77552  10.829   0.481   5.476  3.9016 -1.2911  0.7252
  588MOL0     H77553  10.998   0.343   5.266  2.6620  1.7272  0.8409
  588MOL0     H77554  10.943   0.516   5.277  0.6488 -0.1008 -0.7233
  588MOL0     H77555  11.094   0.510   5.095 -1.6793  3.5032  0.7053
  588MOL0     H77556  10.934   0.540   5.048  1.3535  1.7101  0.4102
  588MOL0     H77557  11.045   0.262   5.036  1.6729  0.0089 -1.8624
  588MOL0     H77558  11.076   0.375   4.904 -1.1887  3.4595  0.1018
  588MOL0     H77559  10.797   0.284   4.988 -1.9011 -0.3474 -0.5692
  588MOL0     H77560  10.843   0.406   4.869 -0.5920  0.9179  2.8797
  588MOL0     H77561  10.979   0.275   4.734  1.3034  0.6422  2.1556
  588MOL0     H77562  10.810   0.207   4.738  1.0915 -5.6848  0.9610
  588MOL0     H77563  10.882   0.024   4.895  0.1710 -1.9219 -1.3849
  588MOL0     H77564  11.037   0.095   4.875 -2.4324  4.0213  4.1645
  588MOL0     H77565  10.987  -0.114   4.753 -2.6720 -1.1427  0.4326
  588MOL0     H77566  10.852  -0.037   4.667  0.5998 -2.6667  0.6593
  588MOL0     H77567  11.000   0.116   4.565  0.8654 -0.5655 -1.1028
  588MOL0     H77568  11.036  -0.042   4.509  0.4144 -0.5245 -0.3580
  588MOL0     H77569  11.281  -0.161   4.644 -0.2129  0.8321 -1.5521
  588MOL0     H77570  11.566   0.047   4.770  0.4281 -1.3199 -0.9310
  588MOL0     H77571  11.537  -0.120   4.750  1.6368  0.8657  0.0805
  588MOL0     H77572  11.597  -0.105   4.983  1.4166 -0.4308 -0.2583
  588MOL0     H77573  11.421  -0.120   4.970  0.6633  0.2737  1.0908
  588MOL0     H77574  11.601   0.133   5.003 -0.7369  0.7939  1.1343
  588MOL0     H77575  11.430   0.152   5.014  1.1847  4.1580 -0.9025
  588MOL0     H77576  11.619   0.000   5.191  1.6589  1.5691 -1.7443
  588MOL0     H77577  11.427  -0.012   5.193 -0.8983  1.9146 -1.5550
  588MOL0     H77578  11.528  -0.043   5.424  0.9161 -0.9929  2.3602
  588MOL0     H77579  11.513  -0.031   5.663 -1.4723  0.0064  2.5119
  588MOL0     H77580  11.410   0.553   5.987  1.7188  0.0529  0.7600
  588MOL0     H77581  11.348   0.590   6.226 -1.0030 -0.7786  0.6507
  588MOL0     H77582  11.402   0.334   6.540 -1.0680 -3.5450  0.5986
  588MOL0     H77583  11.247   0.261   6.501 -0.5782  0.5320 -0.0533
  588MOL0     H77584  11.151   0.462   6.638 -0.3178  2.1936  2.1965
  588MOL0     H77585  11.307   0.522   6.678 -1.6248  0.4809 -0.6081
  588MOL0     H77586  11.349   0.262   6.746 -2.6777 -2.2858 -2.6671
  588MOL0     H77587  11.178   0.264   6.762  0.1425  0.4228  0.8211
  588MOL0     H77588  11.354   0.455   6.912 -0.6997 -0.8853  1.6731
  588MOL0     H77589  11.182   0.461   6.918  2.0722  2.9660  1.7752
  588MOL0     H77590  11.363   0.234   6.990 -0.2600 -0.3808 -1.7340
  588MOL0     H77591  11.194   0.226   7.031  0.1820  0.1912 -2.3435
  588MOL0     H77592  11.242   0.443   7.173  2.7603  2.3650 -0.4288
  588MOL0     H77593  11.398   0.426   7.142  1.7014 -2.0590  1.2455
  588MOL0     H77594  11.233   0.228   7.311  0.6830  0.3933  1.9968
  588MOL0     H77595  11.378   0.165   7.229 -0.7943 -1.5194  1.1592
  588MOL0     H77596  11.501   0.374   7.350 -2.0568  2.8403 -0.3809
  588MOL0     H77597  11.433   0.242   7.449 -0.4658 -0.0026  0.4632
  588MOL0     H77598  11.269   0.180   6.276  0.0459  0.9468  1.3168
  588MOL0     H77599  11.351   0.134   6.059 -0.0378 -0.0266  0.1721
  588MOL0     H77600  11.473   0.400   5.624 -1.4128 -0.3556  1.9191
  588MOL0     H77601  11.509   0.378   5.375  0.0388  1.1597  1.2943
  588MOL0     H77602  10.700   0.155   5.255  2.1138  0.2469  1.2678
  588MOL0     H77603  10.618   0.031   5.459  2.3343 -0.6379 -2.2841
  588MOL0     H77604  10.673  -0.035   5.904  0.5376  0.0787 -0.7751
  588MOL0     H77605  10.663  -0.111   6.127  0.1451  0.5943  0.0941
  588MOL0     H77606  10.668  -0.094   6.381  0.0797  1.1081 -0.3412
  588MOL0     H77607  10.543  -0.214   6.343  0.1622 -0.0672  0.4105
  588MOL0     H77608  10.619  -0.085   6.577  0.2725 -2.3982 -0.6877
  588MOL0     H77609  10.458  -0.022   6.547  0.0280  0.9136 -1.8410
  588MOL0     H77610  10.406  -0.280   6.523 -1.8752 -3.7010  4.2111
  588MOL0     H77611  10.438  -0.219   6.691 -0.9106 -0.1689 -0.6504
  588MOL0     H77612  10.565  -0.453   6.590  3.5937 -0.5664 -2.2498
  588MOL0     H77613  10.649  -0.319   6.506  0.6958  1.8794  0.6266
  588MOL0     H77614  10.841  -0.340   6.859 -0.1697  0.3709 -0.5169
  588MOL0     H77615  10.344   0.150   6.218 -1.3407 -0.6251 -1.5036
  588MOL0     H77616  10.342   0.207   5.945  1.3297 -0.1852  0.5630
  589MOL0     O77617   4.265   5.274   7.738  0.7863  0.2069  0.3057
  589MOL0     C77618   4.185   5.348   7.808 -0.0714  0.0035  0.6357
  589MOL0     O77619   4.095   5.305   7.896  0.0010 -0.2448 -0.5124
  589MOL0     C77620   4.098   5.169   7.913  0.5624 -0.2783  0.0212
  589MOL0     C77621   4.206   5.104   7.976 -0.0740 -1.1948  0.0576
  589MOL0     C77622   4.222   4.971   7.951  0.2044 -0.6579  0.0589
  589MOL0     C77623   4.127   4.886   7.892 -0.4136  0.4071 -0.1189
  589MOL0     O77624   4.136   4.744   7.891  0.0309  0.0543  0.9626
  589MOL0     C77625   4.242   4.683   7.960  0.5003  0.6276 -0.0023
  589MOL0     C77626   4.234   4.534   7.929 -0.1745 -0.3076 -0.1029
  589MOL0     C77627   4.337   4.460   8.006 -0.3754 -0.5431  0.1917
  589MOL0     C77628   4.319   4.304   7.990  0.0262  0.4698 -0.1799
  589MOL0     C77629   4.448   4.224   8.016 -0.9209  0.3992  0.1357
  589MOL0     C77630   4.486   4.211   8.160  0.1984 -0.3251 -0.6874
  589MOL0     C77631   4.617   4.137   8.186 -0.2196  0.9171  0.6380
  589MOL0     C77632   4.621   4.064   8.317 -1.3612 -1.0617 -0.7152
  589MOL0     N77633   4.755   4.006   8.342  0.2362  0.5772 -0.3923
  589MOL0     C77634   4.806   3.898   8.276  0.6998  0.3801 -0.5664
  589MOL0     C77635   4.933   3.885   8.324  0.9301  0.3104 -1.3538
  589MOL0     C77636   5.022   3.782   8.283  0.6338 -0.5213  1.1604
  589MOL0     C77637   4.947   3.649   8.308 -0.3260  0.4649  0.9750
  589MOL0     C77638   5.026   3.514   8.256 -0.2128 -1.1131 -0.1715
  589MOL0     C77639   4.940   3.395   8.286 -0.0448  0.5054  0.5099
  589MOL0     O77640   4.955   3.374   8.432 -0.4896  0.2743  0.7727
  589MOL0     C77641   4.836   3.333   8.493  0.3259 -0.3738  0.3305
  589MOL0     C77642   4.783   3.204   8.452 -0.2067 -0.3176 -0.1719
  589MOL0     C77643   4.662   3.150   8.515 -0.6115  0.5801 -0.2491
  589MOL0     C77644   4.592   3.231   8.608 -0.8981  0.4808  0.3018
  589MOL0     C77645   4.469   3.180   8.670 -0.3121 -0.2063 -0.1921
  589MOL0     O77646   4.397   3.267   8.751 -0.0099  0.5365  0.1843
  589MOL0     C77647   4.275   3.246   8.814 -0.4632  0.2157 -0.2321
  589MOL0     C77648   4.176   3.162   8.764  0.0791 -0.2910  0.6448
  589MOL0     C77649   4.051   3.145   8.832  0.2320 -0.3398  0.2974
  589MOL0     C77650   4.025   3.224   8.955  0.9005 -0.3596  0.4113
  589MOL0     O77651   3.911   3.200   9.033  0.4688 -0.0201  0.5227
  589MOL0     C77652   3.793   3.250   8.978 -1.0366  0.2175 -0.5232
  589MOL0     C77653   3.785   3.402   8.975 -0.3621 -0.0977 -1.0298
  589MOL0     C77654   3.652   3.443   8.921  0.5994  0.0281  0.5438
  589MOL0     C77655   3.555   3.472   9.032  0.4599 -0.6913 -0.6955
  589MOL0     C77656   3.416   3.461   8.972  0.8766  0.2371  0.9395
  589MOL0     C77657   3.377   3.588   8.890  0.1317 -0.2032 -1.0905
  589MOL0     C77658   3.373   3.713   8.978 -0.0153 -0.0536 -0.1845
  589MOL0     C77659   3.277   3.810   8.949 -0.3594 -1.1953  0.6275
  589MOL0    Cl77660   3.310   3.889   8.783  0.4689  0.0656 -0.0816
  589MOL0     C77661   4.125   3.309   9.004  0.9396  0.0704  0.8537
  589MOL0     C77662   4.252   3.318   8.929 -0.4360 -0.0615 -0.9281
  589MOL0     O77663   4.434   3.064   8.643 -0.3816  0.2780 -1.0955
  589MOL0     C77664   4.642   3.363   8.639 -0.2895 -0.8194  0.4713
  589MOL0     C77665   4.760   3.410   8.581 -0.5081  0.1305 -0.1516
  589MOL0     N77666   4.957   3.994   8.415  0.3167  0.0249 -0.0802
  589MOL0     N77667   4.848   4.064   8.423  0.1410 -0.7739  0.9065
  589MOL0     C77668   4.008   4.950   7.832 -0.3270 -0.0348 -0.4422
  589MOL0     C77669   4.001   5.092   7.844  0.4512 -0.4320 -0.2137
  589MOL0     C77670   4.177   5.492   7.786 -0.5163  0.1928  0.5289
  589MOL0     C77671   4.103   5.577   7.877 -0.5895 -0.4086  0.6623
  589MOL0     C77672   4.105   5.713   7.850 -0.5137 -0.3574  0.4041
  589MOL0     C77673   4.186   5.771   7.755  0.2508  0.8170  0.1076
  589MOL0     O77674   4.192   5.907   7.750 -0.7847 -0.7137  0.7129
  589MOL0     C77675   4.094   6.001   7.793  0.3993 -0.2709 -0.6629
  589MOL0     C77676   3.973   6.017   7.690 -0.2152 -0.3045  0.2285
  589MOL0     C77677   3.894   5.900   7.697 -1.4367 -1.2413 -0.1512
  589MOL0     C77678   3.770   5.918   7.605  0.2553  0.4570  0.5193
  589MOL0     C77679   3.679   6.008   7.669  0.8615 -0.0754 -0.3157
  589MOL0     C77680   3.612   6.090   7.728  0.7810  0.4666  1.0673
  589MOL0     C77681   4.278   5.688   7.694  0.3794 -0.2905  0.1244
  589MOL0     C77682   4.280   5.549   7.701  0.4041 -0.0300  0.1384
  589MOL0     H77683   4.280   5.170   8.021 -1.4425 -1.0440  2.2274
  589MOL0     H77684   4.308   4.924   7.997 -0.5808  0.2294  2.5653
  589MOL0     H77685   4.229   4.701   8.067 -1.5815 -1.1042  0.1036
  589MOL0     H77686   4.339   4.725   7.931 -0.0687  1.8736 -0.1809
  589MOL0     H77687   4.236   4.518   7.821  1.4613 -0.6276 -0.0451
  589MOL0     H77688   4.143   4.490   7.971 -1.1759 -0.5632 -2.3985
  589MOL0     H77689   4.338   4.482   8.114 -0.2277 -0.9198  0.2683
  589MOL0     H77690   4.431   4.494   7.960 -0.7740  1.5294  0.7804
  589MOL0     H77691   4.232   4.258   8.037  0.8527 -1.7273 -0.6732
  589MOL0     H77692   4.307   4.286   7.882 -0.1045 -0.6053 -0.0016
  589MOL0     H77693   4.522   4.279   7.958 -1.0979  0.7012  0.1942
  589MOL0     H77694   4.435   4.124   7.973  5.0882 -0.9912  0.6147
  589MOL0     H77695   4.398   4.159   8.200  1.5519 -3.9905 -2.0156
  589MOL0     H77696   4.493   4.315   8.192 -1.6027  0.2702 -2.0756
  589MOL0     H77697   4.626   4.064   8.105 -0.2200  3.1960 -1.5403
  589MOL0     H77698   4.703   4.205   8.183  1.8204 -1.5077 -2.1805
  589MOL0     H77699   4.539   3.992   8.326 -2.3441 -0.2841 -2.8039
  589MOL0     H77700   4.606   4.148   8.387  0.7555 -0.6736 -0.6467
  589MOL0     H77701   4.759   3.838   8.199 -0.7132  0.0686  0.4984
  589MOL0     H77702   5.120   3.778   8.331  0.0956 -0.2219  2.3456
  589MOL0     H77703   5.034   3.795   8.176  3.0100  3.3579  1.7157
  589MOL0     H77704   4.851   3.647   8.255 -1.5028  1.1263  2.9879
  589MOL0     H77705   4.931   3.638   8.415 -0.0517 -0.8080  0.9006
  589MOL0     H77706   5.034   3.522   8.147  2.0925  2.3785  0.0779
  589MOL0     H77707   5.129   3.500   8.292 -0.7238 -2.5157  0.8240
  589MOL0     H77708   4.993   3.317   8.230  0.3071  0.5727  0.7453
  589MOL0     H77709   4.835   3.406   8.257 -0.4074  0.3376  1.6625
  589MOL0     H77710   4.832   3.130   8.390 -2.1315 -4.8375  3.1208
  589MOL0     H77711   4.638   3.049   8.484  1.9959  0.6084 -2.8382
  589MOL0     H77712   4.193   3.098   8.678 -2.6411  2.5817 -2.3307
  589MOL0     H77713   3.984   3.063   8.806  1.9596 -1.6512 -0.2002
  589MOL0     H77714   3.710   3.198   9.026 -2.3481 -0.4133 -3.2568
  589MOL0     H77715   3.796   3.215   8.874  4.7910 -1.5935 -0.1317
  589MOL0     H77716   3.869   3.438   8.914  1.1685  1.4303  1.7581
  589MOL0     H77717   3.813   3.445   9.072 -1.8738 -2.7424  0.6946
  589MOL0     H77718   3.619   3.372   8.845 -0.9530  0.3272  0.9031
  589MOL0     H77719   3.674   3.539   8.874 -2.2998  0.5751  0.0986
  589MOL0     H77720   3.563   3.392   9.106  0.3692  1.3066  1.5869
  589MOL0     H77721   3.581   3.557   9.095 -1.9428 -1.0925  0.9661
  589MOL0     H77722   3.337   3.449   9.047 -0.0342  3.1290  0.5622
  589MOL0     H77723   3.418   3.373   8.907 -0.7318  1.8544 -1.4416
  589MOL0     H77724   3.281   3.584   8.839 -0.3185 -0.5000 -0.2455
  589MOL0     H77725   3.451   3.613   8.814  0.1258 -1.4738 -1.5303
  589MOL0     H77726   3.356   3.687   9.083  4.5627  1.3366  1.1749
  589MOL0     H77727   3.473   3.757   8.980 -0.2575  0.5054  1.8484
  589MOL0     H77728   3.291   3.896   9.015 -0.0775  1.1861 -2.3245
  589MOL0     H77729   3.173   3.779   8.958  0.2759 -4.4651 -1.7851
  589MOL0     H77730   4.118   3.367   9.096  1.9483 -3.3807  3.3062
  589MOL0     H77731   4.336   3.379   8.960 -3.2962  3.0980  1.3343
  589MOL0     H77732   4.593   3.414   8.721 -0.1336 -0.0378  0.0828
  589MOL0     H77733   4.784   3.512   8.608 -3.3565  1.4944 -2.2069
  589MOL0     H77734   3.928   4.904   7.775 -1.1088  0.1694  0.4638
  589MOL0     H77735   3.918   5.135   7.790  0.4054  0.9040  0.8903
  589MOL0     H77736   4.032   5.549   7.955  0.4898  0.0251  1.8372
  589MOL0     H77737   4.045   5.774   7.916  0.9330  0.0937  1.3569
  589MOL0     H77738   4.133   6.103   7.787 -3.4168  1.5329  1.1414
  589MOL0     H77739   4.056   5.986   7.894 -0.9356 -0.3640 -1.1558
  589MOL0     H77740   3.918   6.092   7.747  1.1226  0.4031  0.6436
  589MOL0     H77741   3.993   6.048   7.588 -3.9273  1.2716 -0.1648
  589MOL0     H77742   3.874   5.875   7.801  2.4678 -0.7210  0.8571
  589MOL0     H77743   3.954   5.813   7.666  0.8156  0.0184  0.4914
  589MOL0     H77744   3.805   5.950   7.506 -0.2574  0.7952  0.4427
  589MOL0     H77745   3.719   5.821   7.595 -0.5218  0.8310  0.8525
  589MOL0     H77746   3.545   6.168   7.759 -2.3897 -0.9849 -1.6074
  589MOL0     H77747   4.360   5.731   7.636 -0.1196  1.5173  0.6938
  589MOL0     H77748   4.362   5.490   7.662  1.5828  0.4039  1.8440
  590MOL0     O77749   4.228   3.234   6.298 -0.6932 -0.2564 -0.4017
  590MOL0     C77750   4.115   3.273   6.278 -0.3514  0.7501  0.4873
  590MOL0     O77751   4.048   3.361   6.346 -0.2295  0.6152 -0.2891
  590MOL0     C77752   4.100   3.420   6.457  0.1132 -0.4107 -0.1183
  590MOL0     C77753   4.116   3.347   6.567 -0.8263  0.0049 -0.0286
  590MOL0     C77754   4.144   3.410   6.688  0.7427 -0.5475 -0.4864
  590MOL0     C77755   4.166   3.551   6.698 -0.7165  0.5502 -0.1537
  590MOL0     O77756   4.190   3.626   6.812  0.1951  0.0223 -0.6560
  590MOL0     C77757   4.171   3.548   6.929 -0.4338  0.3309  1.3205
  590MOL0     C77758   4.139   3.645   7.044  0.0005 -0.5565 -0.1890
  590MOL0     C77759   4.080   3.567   7.159  0.3260  0.2470  0.0533
  590MOL0     C77760   3.930   3.536   7.147  0.5638  0.3753  0.2868
  590MOL0     C77761   3.886   3.443   7.258 -0.1826 -0.4903 -0.0592
  590MOL0     C77762   3.739   3.398   7.249 -0.0501 -0.6259 -0.0063
  590MOL0     C77763   3.698   3.298   7.139  0.1747  0.2149 -0.1126
  590MOL0     C77764   3.545   3.271   7.153 -0.7263  0.2470 -0.0950
  590MOL0     N77765   3.496   3.146   7.082 -0.2145  0.0544 -0.0958
  590MOL0     C77766   3.522   3.118   6.945  0.4037 -0.7217 -0.5045
  590MOL0     C77767   3.510   2.990   6.928 -0.8476  0.4648  0.2036
  590MOL0     C77768   3.538   2.895   6.817 -0.3438  0.8504  0.3373
  590MOL0     C77769   3.541   2.748   6.866  0.4477  0.3493  0.3855
  590MOL0     C77770   3.574   2.658   6.759 -0.4290 -0.6598  0.6068
  590MOL0     C77771   3.610   2.512   6.802  0.7534 -0.0425 -0.8722
  590MOL0     O77772   3.748   2.511   6.837  0.4157 -0.7111  0.2583
  590MOL0     C77773   3.843   2.428   6.777  0.3642  0.0549  0.1888
  590MOL0     C77774   3.971   2.491   6.780  0.6605 -0.7168 -0.0214
  590MOL0     C77775   4.085   2.418   6.751  0.1402  0.3856  0.3249
  590MOL0     C77776   4.067   2.288   6.705 -0.7341  0.3609  0.0003
  590MOL0     C77777   4.195   2.216   6.668  0.3407 -0.1934  0.0441
  590MOL0     O77778   4.182   2.083   6.637 -0.2051  0.0700 -0.3374
  590MOL0     C77779   4.289   2.004   6.616  0.1076  0.9015 -0.1327
  590MOL0     C77780   4.299   1.890   6.698  0.6204  1.1102  0.3950
  590MOL0     C77781   4.397   1.792   6.667  0.1250  0.4063 -1.5815
  590MOL0     C77782   4.496   1.812   6.576  0.0218 -0.4431 -0.9256
  590MOL0     O77783   4.599   1.716   6.573  0.7164 -0.3391  0.9798
  590MOL0     C77784   4.714   1.782   6.525 -0.2475  0.4790 -0.1320
  590MOL0     C77785   4.849   1.713   6.549  0.1601  0.4710  0.2278
  590MOL0     C77786   4.965   1.790   6.482  0.4327 -0.3471 -0.3685
  590MOL0     C77787   5.096   1.710   6.490 -0.0143 -0.4746  0.0161
  590MOL0     C77788   5.214   1.770   6.414 -0.0979  0.5782  0.2191
  590MOL0     C77789   5.248   1.909   6.468  0.2457 -0.5525 -0.0432
  590MOL0     C77790   5.375   1.974   6.408  1.1960  0.4666  0.3809
  590MOL0     C77791   5.414   2.089   6.495  0.1221  0.1041  0.1337
  590MOL0    Cl77792   5.568   2.181   6.439  0.0830 -0.1695 -0.6133
  590MOL0     C77793   4.476   1.917   6.492  0.3775  0.3251  0.8095
  590MOL0     C77794   4.373   2.016   6.512  0.3603 -0.5401  0.1987
  590MOL0     O77795   4.301   2.274   6.690 -0.0753 -0.3532  0.0308
  590MOL0     C77796   3.948   2.232   6.683  0.2366 -1.1533 -0.1766
  590MOL0     C77797   3.832   2.304   6.721 -0.3775 -0.1495 -0.2956
  590MOL0     N77798   3.465   2.943   7.052  0.6347 -0.3323 -0.1178
  590MOL0     N77799   3.456   3.029   7.143 -0.3695 -1.0580 -0.1019
  590MOL0     C77800   4.161   3.620   6.574  0.2148 -0.4859 -0.5128
  590MOL0     C77801   4.115   3.558   6.457 -0.1200  0.3656 -0.9329
  590MOL0     C77802   4.041   3.194   6.188  0.4921 -0.9201  1.0371
  590MOL0     C77803   3.898   3.207   6.181  0.2465  0.1103 -0.2259
  590MOL0     C77804   3.833   3.142   6.072  0.0493  0.0844  0.7911
  590MOL0     C77805   3.897   3.070   5.970  0.0540 -0.3545 -0.4208
  590MOL0     O77806   3.836   3.001   5.864  0.5129  1.0141 -0.1219
  590MOL0     C77807   3.710   3.044   5.806 -1.1318  0.5719  0.9727
  590MOL0     C77808   3.632   2.938   5.728  0.7483  0.6240 -0.3835
  590MOL0     C77809   3.715   2.890   5.601 -0.3056  0.0272  0.3564
  590MOL0     C77810   3.661   2.757   5.541 -0.1098  0.1502  0.0019
  590MOL0     C77811   3.744   2.713   5.428 -0.3244  0.1592  0.4615
  590MOL0     C77812   3.830   2.672   5.349 -0.0097  0.8339  1.0368
  590MOL0     C77813   4.032   3.053   5.990 -0.3918  0.8152 -0.0373
  590MOL0     C77814   4.108   3.117   6.092  0.4870  0.4528  0.0288
  590MOL0     H77815   4.082   3.246   6.546 -0.5958  0.2651 -1.7618
  590MOL0     H77816   4.132   3.349   6.776  0.5134  0.6800  0.3573
  590MOL0     H77817   4.263   3.496   6.956  0.3201  0.4201 -0.9181
  590MOL0     H77818   4.087   3.478   6.933 -1.5728  1.3777 -1.5010
  590MOL0     H77819   4.071   3.721   7.004  0.2692 -0.2079  0.0105
  590MOL0     H77820   4.232   3.697   7.069 -0.1469 -0.2843 -0.2113
  590MOL0     H77821   4.097   3.633   7.245 -0.7061  2.4273 -1.3187
  590MOL0     H77822   4.138   3.475   7.162  4.6614  2.6724 -1.1524
  590MOL0     H77823   3.863   3.623   7.140 -1.9826 -1.5356 -0.7962
  590MOL0     H77824   3.920   3.491   7.048 -2.8486  1.5371 -0.0321
  590MOL0     H77825   3.905   3.504   7.347  0.3396  0.9297 -1.1078
  590MOL0     H77826   3.952   3.358   7.277  0.9321  0.7484  1.8343
  590MOL0     H77827   3.669   3.482   7.245 -0.3479 -0.7510  1.7884
  590MOL0     H77828   3.716   3.354   7.346 -0.9996 -1.9325 -0.7882
  590MOL0     H77829   3.715   3.340   7.039  1.1926 -0.8112 -0.4010
  590MOL0     H77830   3.752   3.203   7.141 -0.5825 -0.2189  0.1797
  590MOL0     H77831   3.491   3.360   7.120 -1.8714 -1.2824 -2.6607
  590MOL0     H77832   3.519   3.261   7.259 -1.4828  2.9180  0.0361
  590MOL0     H77833   3.558   3.190   6.872  0.2970  2.1444  2.0653
  590MOL0     H77834   3.627   2.924   6.760 -2.4119  0.3990 -3.3931
  590MOL0     H77835   3.452   2.905   6.751  1.6471 -0.7786 -2.7215
  590MOL0     H77836   3.438   2.731   6.898 -0.8230  0.6021 -3.1911
  590MOL0     H77837   3.627   2.722   6.929  3.6890 -0.2544 -3.7987
  590MOL0     H77838   3.497   2.666   6.681 -0.2182  1.7088  0.5529
  590MOL0     H77839   3.664   2.703   6.715  1.3173 -3.7248  0.8049
  590MOL0     H77840   3.605   2.436   6.724 -0.2487 -1.5940  0.6202
  590MOL0     H77841   3.558   2.475   6.891  0.6082  0.6631 -0.6597
  590MOL0     H77842   3.978   2.596   6.807  1.1288 -1.1545  1.6858
  590MOL0     H77843   4.178   2.472   6.767 -1.0703  2.7156 -0.1143
  590MOL0     H77844   4.226   1.867   6.775 -0.7152  0.3805 -1.0356
  590MOL0     H77845   4.391   1.699   6.722 -1.7142  1.5771  0.3788
  590MOL0     H77846   4.723   1.881   6.571  3.8244 -0.5866  1.8132
  590MOL0     H77847   4.698   1.786   6.417  0.1474 -2.4584 -0.3758
  590MOL0     H77848   4.851   1.617   6.498 -2.1100  0.3959  0.1612
  590MOL0     H77849   4.869   1.704   6.656 -2.3425  2.7129  1.0104
  590MOL0     H77850   4.966   1.882   6.542 -0.3471 -1.0961  0.8513
  590MOL0     H77851   4.948   1.809   6.376 -2.5489 -3.3836 -0.5809
  590MOL0     H77852   5.128   1.692   6.593  0.0761 -1.6321 -0.1971
  590MOL0     H77853   5.077   1.607   6.457 -0.0462 -1.0476  1.7371
  590MOL0     H77854   5.203   1.758   6.306  2.7064  1.6941 -0.2859
  590MOL0     H77855   5.300   1.703   6.423 -1.6607 -1.6713 -0.6419
  590MOL0     H77856   5.263   1.894   6.575  0.2767 -0.4487 -0.0327
  590MOL0     H77857   5.163   1.974   6.449  0.2185 -1.2191 -2.5308
  590MOL0     H77858   5.457   1.902   6.410 -0.3694 -1.6903 -3.3084
  590MOL0     H77859   5.363   2.014   6.307  0.6258  0.0560  0.2832
  590MOL0     H77860   5.423   2.065   6.601 -0.1355  0.7374  0.3023
  590MOL0     H77861   5.334   2.162   6.481 -0.9234 -1.2307 -1.1745
  590MOL0     H77862   4.551   1.921   6.414 -0.8079 -1.8387 -0.5632
  590MOL0     H77863   4.365   2.105   6.450 -1.4980  1.2678  2.8264
  590MOL0     H77864   3.931   2.136   6.635 -1.7361 -0.5517 -0.7463
  590MOL0     H77865   3.734   2.257   6.712  0.5100 -2.0796 -0.4708
  590MOL0     H77866   4.180   3.726   6.567 -4.3378  0.3957 -2.7351
  590MOL0     H77867   4.105   3.615   6.365 -2.7197  1.1884 -0.2240
  590MOL0     H77868   3.828   3.270   6.235 -2.3531 -1.0231 -2.0958
  590MOL0     H77869   3.724   3.150   6.075 -0.1942 -2.2103 -0.2290
  590MOL0     H77870   3.728   3.133   5.745 -1.7489  0.7361  1.0259
  590MOL0     H77871   3.650   3.088   5.886 -1.1918  2.0589  0.1370
  590MOL0     H77872   3.595   2.860   5.796 -1.0221  1.5464 -0.2472
  590MOL0     H77873   3.542   2.988   5.691  1.6798  2.0937 -0.7147
  590MOL0     H77874   3.814   2.860   5.636 -0.6459 -3.0355 -1.0036
  590MOL0     H77875   3.728   2.975   5.532  2.3616  1.0514  1.9832
  590MOL0     H77876   3.666   2.682   5.620  3.1704 -0.5424 -0.7299
  590MOL0     H77877   3.558   2.768   5.506  0.4511  2.0785 -1.1938
  590MOL0     H77878   3.888   2.628   5.271 -2.9263  2.0452 -2.0684
  590MOL0     H77879   4.087   3.000   5.913  2.3461  1.2242  1.5202
  590MOL0     H77880   4.216   3.105   6.087  0.2226 -2.3290 -1.2824
  591MOL0     O77881   2.351   6.598   7.883  0.9420  1.0591  1.8430
  591MOL0     C77882   2.265   6.641   7.805 -0.0551  0.1036 -0.1875
  591MOL0     O77883   2.180   6.570   7.735 -0.1056  0.5567  0.7192
  591MOL0     C77884   2.192   6.432   7.732 -0.0698  0.4896 -0.4861
  591MOL0     C77885   2.314   6.357   7.726 -1.0714 -0.3189 -0.4776
  591MOL0     C77886   2.310   6.215   7.696 -0.6598 -0.6813 -0.1446
  591MOL0     C77887   2.187   6.155   7.685 -0.5686  0.1396 -0.3666
  591MOL0     O77888   2.202   6.020   7.668  0.7969 -0.0741  0.7843
  591MOL0     C77889   2.090   5.951   7.615 -0.4393  0.2400  0.5640
  591MOL0     C77890   2.132   5.810   7.576 -0.2640 -0.2723 -0.3570
  591MOL0     C77891   2.162   5.719   7.699 -0.3124 -0.0931  0.0445
  591MOL0     C77892   2.040   5.674   7.778  0.3264  0.1451 -0.1960
  591MOL0     C77893   2.058   5.540   7.849  0.4846  0.4795  0.5415
  591MOL0     C77894   1.926   5.467   7.877 -0.3597 -0.0954  0.1212
  591MOL0     C77895   1.939   5.351   7.982  0.7984  0.7320 -0.7770
  591MOL0     C77896   1.794   5.289   8.002 -0.7258  0.6957  0.5796
  591MOL0     N77897   1.781   5.178   8.099  0.7095 -0.2187  0.5948
  591MOL0     C77898   1.774   5.204   8.233 -0.1595  0.4447 -0.3187
  591MOL0     C77899   1.793   5.090   8.298  0.2239  1.1190 -0.1913
  591MOL0     C77900   1.805   5.071   8.441  0.7012  0.4687 -0.1458
  591MOL0     C77901   1.741   4.937   8.497 -0.4152 -1.0232 -0.8769
  591MOL0     C77902   1.803   4.807   8.427  0.1007  0.0375 -0.3480
  591MOL0     C77903   1.765   4.688   8.517  0.5045  0.7083  0.3284
  591MOL0     O77904   1.625   4.670   8.534 -0.6422  0.3483  0.3729
  591MOL0     C77905   1.592   4.605   8.653 -0.4449 -0.4176  0.4148
  591MOL0     C77906   1.479   4.655   8.714  0.5201 -0.1385  0.1547
  591MOL0     C77907   1.432   4.603   8.836  0.2990  0.9091 -0.2484
  591MOL0     C77908   1.495   4.500   8.899  0.7312  0.6720  0.2628
  591MOL0     C77909   1.452   4.461   9.027  0.2582  0.6011 -0.0817
  591MOL0     O77910   1.426   4.562   9.112  0.3808 -0.4430 -0.8856
  591MOL0     C77911   1.410   4.532   9.247 -0.1572 -0.4321  0.9151
  591MOL0     C77912   1.284   4.478   9.289 -0.2610 -0.1969 -0.4627
  591MOL0     C77913   1.262   4.446   9.421  0.0334  0.2543  0.3110
  591MOL0     C77914   1.358   4.470   9.509 -0.1790  0.4108 -0.0669
  591MOL0     O77915   1.326   4.434   9.640  0.7148  0.3290  0.2273
  591MOL0     C77916   1.280   4.539   9.731  0.5159 -0.5105  0.1513
  591MOL0     C77917   1.263   4.476   9.867  0.0334 -0.3950 -0.6230
  591MOL0     C77918   1.137   4.532   9.935  0.4361  0.4880 -0.0982
  591MOL0     C77919   1.126   4.493  10.078  0.0707  0.0084  0.1171
  591MOL0     C77920   1.006   4.565  10.142  0.7498  0.2044  0.2137
  591MOL0     C77921   0.987   4.548  10.294  0.0137  0.0417 -0.2768
  591MOL0     C77922   1.113   4.586  10.384 -0.1710  0.0133  0.5260
  591MOL0     C77923   1.106   4.658  10.513  0.0855 -0.0633 -0.9921
  591MOL0    Cl77924   1.006   4.821  10.504 -0.0077 -0.0496 -0.3087
  591MOL0     C77925   1.486   4.532   9.479  0.2225  0.2307  0.0089
  591MOL0     C77926   1.510   4.550   9.342 -0.4672 -0.2429 -0.0673
  591MOL0     O77927   1.456   4.343   9.052 -1.2916 -0.1962 -0.2581
  591MOL0     C77928   1.598   4.448   8.833 -0.4822 -0.4321 -0.0707
  591MOL0     C77929   1.650   4.489   8.706 -0.7595  0.3694 -0.4663
  591MOL0     N77930   1.794   4.992   8.206 -0.0000 -0.3637 -0.2561
  591MOL0     N77931   1.786   5.042   8.088 -0.0510  0.4198 -0.0421
  591MOL0     C77932   2.069   6.223   7.699 -0.5380 -0.2458 -1.3446
  591MOL0     C77933   2.068   6.362   7.722  0.4101  0.5798  0.6861
  591MOL0     C77934   2.251   6.787   7.802  0.1264  0.0848 -0.5267
  591MOL0     C77935   2.147   6.855   7.750  0.2305 -0.6982 -0.4043
  591MOL0     C77936   2.138   7.000   7.757  0.6294  0.4746 -0.2293
  591MOL0     C77937   2.224   7.076   7.833 -0.4473 -0.1959 -0.1704
  591MOL0     O77938   2.195   7.212   7.862 -0.0763  0.6553  0.4609
  591MOL0     C77939   2.076   7.272   7.797 -0.1478  0.0416  0.6423
  591MOL0     C77940   2.111   7.315   7.663  0.1628 -0.2509  0.3017
  591MOL0     C77941   2.216   7.428   7.653 -0.4384  0.0591 -0.5262
  591MOL0     C77942   2.250   7.482   7.519  0.6036 -1.5434 -0.2454
  591MOL0     C77943   2.272   7.622   7.522  0.6424 -0.6274  0.5297
  591MOL0     C77944   2.291   7.742   7.534  0.0954 -0.1776 -1.2360
  591MOL0     C77945   2.334   7.000   7.882  0.3545  0.7259 -0.5404
  591MOL0     C77946   2.346   6.859   7.873 -0.3171 -0.2077 -0.2730
  591MOL0     H77947   2.411   6.403   7.741 -1.1641 -1.0814  3.4615
  591MOL0     H77948   2.407   6.168   7.681 -0.5727 -0.6079  0.1819
  591MOL0     H77949   2.065   6.008   7.525 -0.8237 -0.5029  0.1872
  591MOL0     H77950   2.008   5.949   7.687  0.5579 -2.0396  1.7745
  591MOL0     H77951   2.215   5.816   7.505 -1.2993 -0.5616 -1.6379
  591MOL0     H77952   2.056   5.765   7.510  0.2580 -0.7043 -0.6726
  591MOL0     H77953   2.233   5.772   7.763 -0.2059  1.9425 -1.6703
  591MOL0     H77954   2.206   5.626   7.662  0.8943 -1.1373  3.7019
  591MOL0     H77955   2.027   5.755   7.851  3.8941 -0.4012  1.2886
  591MOL0     H77956   1.967   5.663   7.698 -1.2319 -3.3840  1.5088
  591MOL0     H77957   2.119   5.547   7.939  2.2053 -0.7019 -0.4649
  591MOL0     H77958   2.112   5.472   7.782 -0.5821  1.6057 -1.5870
  591MOL0     H77959   1.876   5.449   7.781 -3.1069  5.8461 -0.0537
  591MOL0     H77960   1.855   5.534   7.926 -1.4621 -1.8786  1.0513
  591MOL0     H77961   2.004   5.270   7.948 -0.2488  0.0131 -1.1089
  591MOL0     H77962   1.974   5.377   8.083 -0.5499 -2.8044  0.7712
  591MOL0     H77963   1.778   5.230   7.911  2.0573 -0.0088  0.4599
  591MOL0     H77964   1.730   5.377   8.011  0.2010  1.4052  0.3183
  591MOL0     H77965   1.783   5.301   8.281  1.5035  1.1122 -1.8634
  591MOL0     H77966   1.766   5.154   8.501  3.4423 -0.1358  2.7992
  591MOL0     H77967   1.914   5.062   8.456  0.7748 -0.4945 -1.1238
  591MOL0     H77968   1.634   4.944   8.476 -0.3462  0.2078 -0.9070
  591MOL0     H77969   1.768   4.941   8.603  3.2442 -1.4132 -1.6837
  591MOL0     H77970   1.751   4.799   8.332  3.2619  0.5954 -2.2631
  591MOL0     H77971   1.911   4.818   8.414  0.0671  0.8570  0.0390
  591MOL0     H77972   1.816   4.708   8.612  0.9046  1.5825 -0.0616
  591MOL0     H77973   1.805   4.603   8.460  0.8295  2.1618 -1.7402
  591MOL0     H77974   1.431   4.741   8.669 -1.1110 -0.4375  1.2165
  591MOL0     H77975   1.345   4.644   8.885 -0.5289 -2.1992  1.1018
  591MOL0     H77976   1.209   4.467   9.212  1.1838  2.0388 -2.3327
  591MOL0     H77977   1.157   4.422   9.432 -0.8232  2.6759 -1.5522
  591MOL0     H77978   1.184   4.585   9.704  1.6360  2.5945  0.9477
  591MOL0     H77979   1.356   4.618   9.738 -1.2898  1.2996  0.5010
  591MOL0     H77980   1.353   4.487   9.928 -0.2824  1.3727 -0.4113
  591MOL0     H77981   1.247   4.369   9.856 -1.7066 -0.3356  0.8749
  591MOL0     H77982   1.057   4.490   9.874  2.8547 -1.8309 -1.8925
  591MOL0     H77983   1.152   4.639   9.919 -1.6254  0.6144 -1.6577
  591MOL0     H77984   1.113   4.385  10.091  0.5004 -0.0613 -0.0302
  591MOL0     H77985   1.221   4.524  10.122  1.9706 -0.2377 -3.4852
  591MOL0     H77986   0.916   4.520  10.098  1.3944 -2.6523  1.5571
  591MOL0     H77987   1.019   4.670  10.115 -1.8214  0.6690  0.5350
  591MOL0     H77988   0.960   4.443  10.292  0.9857 -0.2452 -3.0404
  591MOL0     H77989   0.905   4.609  10.332 -0.9550  2.4408 -5.3407
  591MOL0     H77990   1.167   4.491  10.379 -0.8366 -0.3983  0.9683
  591MOL0     H77991   1.175   4.655  10.326  0.8265 -1.1776  0.1242
  591MOL0     H77992   1.206   4.688  10.549 -0.3084 -1.0361  1.0536
  591MOL0     H77993   1.063   4.586  10.583 -0.3268  1.3615  0.2721
  591MOL0     H77994   1.562   4.545   9.555 -1.3365 -2.7333  2.2897
  591MOL0     H77995   1.607   4.575   9.301  2.7228 -3.3000  4.5802
  591MOL0     H77996   1.642   4.361   8.879 -1.0810 -1.0757 -0.7001
  591MOL0     H77997   1.724   4.448   8.639 -4.4967 -3.3890 -2.8249
  591MOL0     H77998   1.975   6.176   7.670 -1.7789  2.6682 -2.4492
  591MOL0     H77999   1.973   6.414   7.729  0.2808  0.4263  0.0975
  591MOL0     H78000   2.072   6.806   7.690 -1.4974 -0.6328  1.5852
  591MOL0     H78001   2.052   7.038   7.703  0.0991  0.9101  0.9064
  591MOL0     H78002   2.045   7.347   7.871 -0.5030  0.3952  0.1352
  591MOL0     H78003   1.989   7.206   7.793 -0.2635  0.2633 -0.8227
  591MOL0     H78004   2.150   7.224   7.616 -1.9111 -2.3260  2.3465
  591MOL0     H78005   2.023   7.344   7.605  0.5552  0.4019  0.0100
  591MOL0     H78006   2.304   7.409   7.714  0.5156 -1.1449 -2.2026
  591MOL0     H78007   2.162   7.511   7.700  1.4005  0.5082  0.9022
  591MOL0     H78008   2.342   7.437   7.481  2.8605  1.6139  1.0256
  591MOL0     H78009   2.161   7.465   7.458 -1.3508  2.7942  0.9693
  591MOL0     H78010   2.307   7.846   7.558  1.9756 -0.7148  0.0585
  591MOL0     H78011   2.412   7.051   7.939 -0.0473  0.5343  0.1888
  591MOL0     H78012   2.418   6.806   7.934 -3.5729 -1.1592  3.0925
  592MOL0     O78013   8.398   7.666   6.865 -0.6752  0.1907 -0.2918
  592MOL0     C78014   8.516   7.701   6.857 -1.0762 -0.3255 -0.9062
  592MOL0     O78015   8.600   7.733   6.968 -0.1331  0.0041 -0.5851
  592MOL0     C78016   8.564   7.702   7.098 -0.3969  0.3890 -0.3441
  592MOL0     C78017   8.442   7.654   7.152  0.3917 -0.0052 -0.6619
  592MOL0     C78018   8.422   7.629   7.286  0.0275 -1.0964 -0.2049
  592MOL0     C78019   8.531   7.648   7.375 -0.1393 -0.6408 -0.2697
  592MOL0     O78020   8.502   7.594   7.505  0.1439 -0.2566  0.4439
  592MOL0     C78021   8.616   7.589   7.592  0.0674  0.6226 -1.1058
  592MOL0     C78022   8.682   7.451   7.598  0.3577  0.3141  1.5411
  592MOL0     C78023   8.804   7.428   7.684 -0.7898 -0.6484  0.4558
  592MOL0     C78024   8.902   7.326   7.627  1.0394  0.1699 -1.0578
  592MOL0     C78025   8.850   7.186   7.613 -0.3586 -0.0316  1.1138
  592MOL0     C78026   8.936   7.112   7.506  0.9539  0.2436  1.3945
  592MOL0     C78027   9.085   7.077   7.533 -0.0042  1.1279  0.0387
  592MOL0     C78028   9.197   7.152   7.457 -0.1734 -0.2666  1.1960
  592MOL0     N78029   9.211   7.111   7.316  0.4576  0.1267 -1.0739
  592MOL0     C78030   9.258   6.982   7.286 -0.0963 -0.0128  0.1158
  592MOL0     C78031   9.244   6.978   7.154  0.5500  0.7783  0.3097
  592MOL0     C78032   9.305   6.876   7.065 -0.1366  0.6474  0.7787
  592MOL0     C78033   9.407   6.789   7.135 -0.0325 -0.2953 -0.0623
  592MOL0     C78034   9.495   6.730   7.022 -0.3671  0.2477 -0.6158
  592MOL0     C78035   9.637   6.674   7.064 -0.4899 -0.8092 -0.4147
  592MOL0     O78036   9.723   6.694   6.943 -0.3711  0.5855 -0.2940
  592MOL0     C78037   9.736   6.594   6.850 -0.3785  0.1351 -0.2834
  592MOL0     C78038   9.679   6.468   6.862  0.5806 -0.0540 -0.0628
  592MOL0     C78039   9.702   6.372   6.766  0.0762  0.0051 -0.5465
  592MOL0     C78040   9.767   6.399   6.653 -0.0284 -0.3919 -0.3696
  592MOL0     C78041   9.790   6.298   6.553 -0.9581  0.8141  0.2381
  592MOL0     O78042   9.879   6.321   6.450  0.1829  0.0267 -0.1492
  592MOL0     C78043   9.934   6.238   6.354 -0.1116 -0.1335 -0.1916
  592MOL0     C78044   9.971   6.281   6.221  0.4307  0.2507 -0.3384
  592MOL0     C78045  10.028   6.196   6.128  0.9190 -0.8478 -0.8184
  592MOL0     C78046  10.038   6.059   6.156 -0.5897  1.0721 -0.2696
  592MOL0     O78047  10.077   5.974   6.053  0.3978  0.3309 -0.1368
  592MOL0     C78048  10.222   5.969   6.048  1.4207 -0.0686 -0.4042
  592MOL0     C78049  10.289   5.866   5.948 -0.7435  0.3533 -0.0419
  592MOL0     C78050  10.428   5.895   5.901 -0.2921  0.0128 -0.0068
  592MOL0     C78051  10.522   5.897   6.028 -0.7968  0.6098 -0.1554
  592MOL0     C78052  10.671   5.929   5.990 -0.2517  0.6327  1.8375
  592MOL0     C78053  10.686   6.067   5.939 -0.6517 -0.5624  0.4593
  592MOL0     C78054  10.838   6.090   5.918  0.3272  0.0687  0.2839
  592MOL0     C78055  10.877   6.231   5.891  0.0525 -0.7398 -0.1690
  592MOL0    Cl78056  10.798   6.297   5.747  0.0030  0.9848 -0.2030
  592MOL0     C78057   9.991   6.006   6.274 -0.2484 -0.0176 -0.2660
  592MOL0     C78058   9.936   6.100   6.371 -0.6229 -0.2869 -0.2341
  592MOL0     O78059   9.734   6.190   6.571 -0.1586 -0.3772 -0.6713
  592MOL0     C78060   9.835   6.531   6.644 -0.6786  0.4698 -0.0249
  592MOL0     C78061   9.809   6.636   6.738  0.1746  0.5387  1.0738
  592MOL0     N78062   9.163   7.087   7.114 -0.0615 -0.1814  0.3385
  592MOL0     N78063   9.151   7.169   7.210  0.4831 -0.1616  0.2296
  592MOL0     C78064   8.653   7.687   7.322 -0.8490 -0.0596  0.5165
  592MOL0     C78065   8.667   7.715   7.186  0.8257 -0.6465  0.6342
  592MOL0     C78066   8.576   7.729   6.721  0.4305  1.0522  0.3177
  592MOL0     C78067   8.493   7.747   6.616  0.4064 -0.1446  0.5565
  592MOL0     C78068   8.543   7.781   6.488 -1.1543 -0.0970 -0.4115
  592MOL0     C78069   8.683   7.805   6.469 -0.4278  0.2216 -0.8063
  592MOL0     O78070   8.726   7.855   6.349  0.7022 -0.7812 -0.0845
  592MOL0     C78071   8.647   7.981   6.307 -0.1838  0.2706 -0.6655
  592MOL0     C78072   8.718   8.064   6.205  0.2514  0.1914  0.1695
  592MOL0     C78073   8.628   8.190   6.179 -0.2076 -0.0874  0.0427
  592MOL0     C78074   8.697   8.288   6.074  0.4151  0.4589 -0.0968
  592MOL0     C78075   8.594   8.378   6.012  0.8311  0.7855 -0.1649
  592MOL0     C78076   8.497   8.439   5.968  0.3965  0.1257  0.3110
  592MOL0     C78077   8.768   7.786   6.580  1.0795 -0.0189 -0.0198
  592MOL0     C78078   8.714   7.737   6.702 -0.8573 -0.9584  0.2934
  592MOL0     H78079   8.359   7.625   7.089 -1.8871  2.3375  1.0798
  592MOL0     H78080   8.328   7.585   7.317 -2.2802  0.7108 -3.9355
  592MOL0     H78081   8.588   7.600   7.698  1.5866 -1.2132 -0.4428
  592MOL0     H78082   8.702   7.653   7.574 -0.3502  1.5692  0.0982
  592MOL0     H78083   8.706   7.433   7.493  1.1991  1.2738  1.5549
  592MOL0     H78084   8.609   7.378   7.635  0.7476 -0.3432  1.0302
  592MOL0     H78085   8.758   7.399   7.778 -0.7925  1.9872  1.3439
  592MOL0     H78086   8.850   7.525   7.706  1.7980 -2.0515  1.6875
  592MOL0     H78087   8.945   7.371   7.537  1.3367  0.2631 -0.8722
  592MOL0     H78088   8.987   7.319   7.696  2.0152 -0.0464 -2.2384
  592MOL0     H78089   8.744   7.180   7.588 -0.9423 -1.1956  3.5543
  592MOL0     H78090   8.848   7.139   7.712  3.2429  1.0651  1.8563
  592MOL0     H78091   8.946   7.176   7.418  1.0217 -2.1813 -0.4565
  592MOL0     H78092   8.888   7.019   7.474  2.8483  0.2512 -1.9831
  592MOL0     H78093   9.089   7.093   7.641  0.4944  1.8935 -0.0846
  592MOL0     H78094   9.083   6.971   7.504  1.1061  1.1335 -0.1345
  592MOL0     H78095   9.291   7.112   7.496 -0.6671 -0.3672  2.3354
  592MOL0     H78096   9.197   7.261   7.464  1.3491 -0.0470 -1.1630
  592MOL0     H78097   9.314   6.914   7.350  2.3119  0.4007 -1.4000
  592MOL0     H78098   9.352   6.927   6.980  0.0934 -0.6589  0.0975
  592MOL0     H78099   9.226   6.824   7.010  0.3652  2.1577 -1.4961
  592MOL0     H78100   9.353   6.706   7.183 -3.2590  2.7322  2.0120
  592MOL0     H78101   9.463   6.845   7.210  0.0389  2.1140 -1.8021
  592MOL0     H78102   9.437   6.650   6.973 -0.2170 -0.6905  0.6947
  592MOL0     H78103   9.512   6.801   6.940  1.3742 -0.7098 -1.1332
  592MOL0     H78104   9.618   6.578   7.114 -0.8844 -0.8541 -0.6521
  592MOL0     H78105   9.675   6.744   7.139 -1.7546  0.2201 -0.7119
  592MOL0     H78106   9.628   6.438   6.953 -2.7223 -1.2888 -2.1525
  592MOL0     H78107   9.669   6.269   6.775 -0.3752  0.1767 -0.1537
  592MOL0     H78108   9.940   6.380   6.189 -2.4235 -0.6380 -0.6002
  592MOL0     H78109  10.052   6.249   6.037  0.3744  2.4862  0.8472
  592MOL0     H78110  10.252   5.942   6.149  0.4932  0.9487  0.1649
  592MOL0     H78111  10.259   6.069   6.026  0.6441  0.4569  0.6495
  592MOL0     H78112  10.227   5.862   5.857 -2.1208  0.2758  0.8595
  592MOL0     H78113  10.282   5.767   5.994  2.6964  0.2152  0.3771
  592MOL0     H78114  10.437   5.995   5.857  0.4863  1.1107  2.4584
  592MOL0     H78115  10.455   5.821   5.825  0.1795  3.0949 -3.0830
  592MOL0     H78116  10.488   5.963   6.108  0.2831  1.1388 -0.1122
  592MOL0     H78117  10.516   5.793   6.061 -3.1724  0.1294 -1.8994
  592MOL0     H78118  10.716   5.859   5.918 -0.3230  1.9961  0.4036
  592MOL0     H78119  10.718   5.912   6.087  0.4078 -2.1731  1.1386
  592MOL0     H78120  10.643   6.145   6.002  0.0171  0.5139 -0.3892
  592MOL0     H78121  10.642   6.073   5.839 -2.1574  1.6424  1.1789
  592MOL0     H78122  10.900   6.060   6.002  0.1249 -4.2150 -0.8496
  592MOL0     H78123  10.875   6.032   5.833  0.5430  1.5901 -0.7104
  592MOL0     H78124  10.983   6.223   5.864 -0.2448  2.0362 -2.6655
  592MOL0     H78125  10.869   6.301   5.974 -0.4517  3.1810 -3.2186
  592MOL0     H78126  10.000   5.899   6.290  0.3685 -0.1137 -1.2306
  592MOL0     H78127   9.887   6.065   6.462 -4.2406  0.6422 -1.6720
  592MOL0     H78128   9.904   6.549   6.562  1.2673 -1.2330  1.1507
  592MOL0     H78129   9.846   6.734   6.710  0.5931  0.1986  0.4097
  592MOL0     H78130   8.746   7.703   7.376  0.6949  2.4889 -2.5428
  592MOL0     H78131   8.758   7.759   7.147  0.5602  0.7168  1.4877
  592MOL0     H78132   8.387   7.723   6.619 -0.1509  2.1495  0.7220
  592MOL0     H78133   8.474   7.805   6.407 -0.6163 -0.0560 -0.8624
  592MOL0     H78134   8.630   8.040   6.397  0.6310  0.8200 -0.8718
  592MOL0     H78135   8.548   7.954   6.268 -0.0250 -0.0759 -0.8336
  592MOL0     H78136   8.815   8.102   6.240  0.3972  0.5822 -0.6431
  592MOL0     H78137   8.732   8.006   6.114  0.8729  1.1954 -0.3885
  592MOL0     H78138   8.615   8.246   6.272 -2.8653 -3.1991  1.7624
  592MOL0     H78139   8.530   8.156   6.144 -0.6688  1.4845 -0.2815
  592MOL0     H78140   8.762   8.356   6.129 -2.2342  2.1339  1.1634
  592MOL0     H78141   8.750   8.232   5.996  0.0336 -2.0560  1.3495
  592MOL0     H78142   8.412   8.488   5.925 -0.5850 -1.5768  0.2378
  592MOL0     H78143   8.875   7.795   6.563  1.1054 -0.7352 -0.2764
  592MOL0     H78144   8.779   7.722   6.788 -0.4218  2.5580  0.7378
  593MOL0     O78145   7.359   3.251  10.690 -0.4495  1.0765 -0.0218
  593MOL0     C78146   7.437   3.262  10.789  0.4114  0.0002  0.1485
  593MOL0     O78147   7.544   3.345  10.788 -0.1756  0.3927 -0.6435
  593MOL0     C78148   7.524   3.464  10.718 -0.4037  0.8599  0.6189
  593MOL0     C78149   7.581   3.481  10.592  0.6083 -0.3361  0.0859
  593MOL0     C78150   7.574   3.605  10.520  0.6932  0.6089  0.0784
  593MOL0     C78151   7.507   3.712  10.584  0.0578  0.2562 -0.0342
  593MOL0     O78152   7.518   3.828  10.519 -0.7036  0.5729  0.1850
  593MOL0     C78153   7.401   3.891  10.478 -0.8210 -0.0007 -0.0729
  593MOL0     C78154   7.390   3.911  10.329  0.1308 -0.9951 -0.4993
  593MOL0     C78155   7.395   3.766  10.262  0.3507  0.1943  0.3674
  593MOL0     C78156   7.257   3.699  10.259  0.2927 -0.1812  0.3170
  593MOL0     C78157   7.272   3.551  10.255 -0.4534  0.4578 -0.5467
  593MOL0     C78158   7.144   3.484  10.198 -0.2359  0.4194  1.1075
  593MOL0     C78159   7.171   3.336  10.148  0.6898 -0.2569 -0.0955
  593MOL0     C78160   7.038   3.273  10.102  0.3527 -0.4355 -0.5804
  593MOL0     N78161   7.013   3.294   9.954 -0.3333 -0.1255 -0.0250
  593MOL0     C78162   7.051   3.400   9.875 -0.2685 -0.1756 -0.6058
  593MOL0     C78163   7.005   3.367   9.748 -0.9276  0.2675  0.1162
  593MOL0     C78164   7.048   3.428   9.616  0.0101  0.3533 -0.3764
  593MOL0     C78165   6.928   3.443   9.521 -0.1516 -1.2498  0.4714
  593MOL0     C78166   6.826   3.536   9.595  0.9301 -0.1891  0.2921
  593MOL0     C78167   6.738   3.617   9.498 -0.2445  0.2081 -1.0452
  593MOL0     O78168   6.667   3.716   9.574  0.0994  0.2654 -0.3547
  593MOL0     C78169   6.554   3.684   9.638 -1.4434  0.7475 -0.3073
  593MOL0     C78170   6.514   3.767   9.736  0.1405  0.3348  0.3657
  593MOL0     C78171   6.392   3.755   9.801 -0.5832  0.1155 -0.3206
  593MOL0     C78172   6.305   3.641   9.775  0.4951  0.3062  0.0042
  593MOL0     C78173   6.169   3.630   9.840 -0.1317 -0.4591 -0.8832
  593MOL0     O78174   6.092   3.529   9.801 -0.2583  0.1074  0.0161
  593MOL0     C78175   5.952   3.509   9.828 -0.0677 -0.5397  0.4884
  593MOL0     C78176   5.894   3.400   9.753  0.0877  0.1770  0.7794
  593MOL0     C78177   5.748   3.379   9.747 -0.8806  0.0852 -1.2433
  593MOL0     C78178   5.673   3.463   9.828 -0.2991 -0.5311 -0.1925
  593MOL0     O78179   5.541   3.447   9.854 -0.6396 -0.5330 -0.4527
  593MOL0     C78180   5.486   3.324   9.892  0.7741 -0.0021 -0.2475
  593MOL0     C78181   5.342   3.357   9.931  1.1969 -0.1979  1.1281
  593MOL0     C78182   5.237   3.245   9.935  0.3452 -0.7894 -0.4278
  593MOL0     C78183   5.279   3.145  10.031 -0.6712 -0.4054  0.8045
  593MOL0     C78184   5.166   3.062  10.087 -0.4086  0.7005  0.4481
  593MOL0     C78185   5.059   3.017   9.983 -0.7363 -0.0394 -0.2592
  593MOL0     C78186   4.972   2.920  10.042 -0.1672 -0.1203  0.2890
  593MOL0     C78187   4.836   2.890   9.985  0.2847  0.5054 -0.4190
  593MOL0    Cl78188   4.858   2.850   9.817 -0.3328 -0.1955 -0.3976
  593MOL0     C78189   5.725   3.572   9.892 -0.5940 -0.6703 -0.5601
  593MOL0     C78190   5.866   3.598   9.896 -0.4499  0.1658 -0.6645
  593MOL0     O78191   6.143   3.700   9.937 -0.4822 -0.3921  0.8908
  593MOL0     C78192   6.345   3.544   9.676  0.6399 -0.4122 -0.8706
  593MOL0     C78193   6.468   3.571   9.613  0.1272  0.6511 -0.0251
  593MOL0     N78194   6.940   3.241   9.761 -0.4518 -0.3261 -0.3508
  593MOL0     N78195   6.943   3.209   9.884  0.5167  0.4756 -0.6018
  593MOL0     C78196   7.440   3.696  10.702  0.0913  1.4701  0.2437
  593MOL0     C78197   7.457   3.572  10.770  0.2747 -0.3290  0.5071
  593MOL0     C78198   7.425   3.154  10.897 -0.5970 -0.2336  1.6275
  593MOL0     C78199   7.505   3.146  11.011 -0.4364  0.6892  0.1808
  593MOL0     C78200   7.489   3.029  11.095  0.8690 -0.1160 -0.4155
  593MOL0     C78201   7.393   2.929  11.071 -0.1044 -0.1766  0.3256
  593MOL0     O78202   7.374   2.828  11.158  0.6834  0.0231  0.8878
  593MOL0     C78203   7.403   2.698  11.116  0.2019  0.6224 -0.1721
  593MOL0     C78204   7.428   2.615  11.245  0.6975 -0.3448  0.1638
  593MOL0     C78205   7.551   2.649  11.324 -0.3244 -0.2550 -0.4757
  593MOL0     C78206   7.679   2.610  11.262 -0.3883  0.1552 -0.4022
  593MOL0     C78207   7.780   2.633  11.361 -0.1733 -0.4605  0.3108
  593MOL0     C78208   7.862   2.664  11.447  0.0947  0.0522 -0.0113
  593MOL0     C78209   7.303   2.947  10.961 -0.0061 -0.3288  0.4559
  593MOL0     C78210   7.328   3.051  10.870 -0.1369  0.2354 -0.1752
  593MOL0     H78211   7.639   3.397  10.555 -2.3489 -1.9773 -1.1782
  593MOL0     H78212   7.621   3.609  10.422 -1.2075 -0.6699 -0.9446
  593MOL0     H78213   7.401   3.994  10.515  2.2733 -0.3134  1.1455
  593MOL0     H78214   7.314   3.836  10.513  0.6330 -3.1043 -1.0236
  593MOL0     H78215   7.476   3.973  10.300 -0.2623  0.0451  0.5040
  593MOL0     H78216   7.296   3.964  10.313  1.4191  3.2418  3.6230
  593MOL0     H78217   7.463   3.695  10.311 -0.8653 -0.3109  1.3981
  593MOL0     H78218   7.411   3.777  10.155 -4.4766 -0.1555 -0.6101
  593MOL0     H78219   7.204   3.742  10.345  2.2701 -1.1632  2.1094
  593MOL0     H78220   7.211   3.716  10.161 -0.1129 -0.9311  0.3696
  593MOL0     H78221   7.288   3.507  10.354 -2.1589  2.7987  0.8775
  593MOL0     H78222   7.351   3.527  10.184 -0.3530 -2.3929  0.3963
  593MOL0     H78223   7.085   3.542  10.127 -2.9806 -2.5004  0.7713
  593MOL0     H78224   7.069   3.482  10.278 -2.1970  0.3411 -0.6484
  593MOL0     H78225   7.250   3.311  10.076  2.0898 -3.8150  2.4060
  593MOL0     H78226   7.198   3.279  10.237 -1.2583  3.4245  3.1122
  593MOL0     H78227   6.958   3.331  10.151  0.4091 -1.1968  0.4538
  593MOL0     H78228   7.019   3.168  10.124  2.6930 -0.9639 -0.8681
  593MOL0     H78229   7.103   3.489   9.908 -2.2736  0.0469  2.3112
  593MOL0     H78230   7.119   3.362   9.565  2.3889  2.1063  0.4471
  593MOL0     H78231   7.116   3.510   9.643 -1.4714  1.4681  0.0812
  593MOL0     H78232   6.888   3.344   9.499 -0.7753 -0.3525 -2.9157
  593MOL0     H78233   6.975   3.484   9.431 -1.1374  3.4220  1.7631
  593MOL0     H78234   6.756   3.488   9.665 -2.1584  3.6185  0.1069
  593MOL0     H78235   6.882   3.598   9.666 -0.9307 -2.0086  3.6343
  593MOL0     H78236   6.676   3.550   9.438  0.8352 -0.0045 -1.9693
  593MOL0     H78237   6.808   3.665   9.429  3.0188  1.1843  2.6146
  593MOL0     H78238   6.576   3.854   9.752 -0.8319  1.1898 -0.3960
  593MOL0     H78239   6.378   3.827   9.881  4.1964 -0.9217  1.8051
  593MOL0     H78240   5.957   3.325   9.707 -0.6965  0.6122 -1.0938
  593MOL0     H78241   5.703   3.295   9.695 -0.0438 -1.9777  1.1924
  593MOL0     H78242   5.543   3.296   9.981  0.7512  5.6454  1.9842
  593MOL0     H78243   5.491   3.256   9.807 -0.1683  0.0739 -0.3802
  593MOL0     H78244   5.313   3.428   9.853 -0.1312 -3.6620 -1.8159
  593MOL0     H78245   5.339   3.399  10.032 -0.2022 -2.0711  1.9372
  593MOL0     H78246   5.217   3.205   9.834 -0.3253  1.8006 -1.4013
  593MOL0     H78247   5.148   3.296   9.973  0.6989 -0.1098 -0.5008
  593MOL0     H78248   5.356   3.088   9.978 -2.0977  0.5874 -2.6781
  593MOL0     H78249   5.329   3.193  10.115 -2.2488  3.1674 -0.0931
  593MOL0     H78250   5.118   3.116  10.169 -0.0808  2.0629 -0.2269
  593MOL0     H78251   5.220   2.972  10.120  1.7375  0.9126 -2.1126
  593MOL0     H78252   5.118   2.977   9.899  1.5979  2.7479 -0.1371
  593MOL0     H78253   5.001   3.105   9.955  0.4433  0.6338 -0.6993
  593MOL0     H78254   5.020   2.822  10.044  0.1754  0.0458  1.7903
  593MOL0     H78255   4.947   2.959  10.142 -3.0792  1.2824 -0.8625
  593MOL0     H78256   4.768   2.975   9.997 -2.5789 -1.8492  1.8260
  593MOL0     H78257   4.783   2.805  10.031  0.4160  1.7526  2.1809
  593MOL0     H78258   5.658   3.633   9.951  2.1332 -0.0734  2.1953
  593MOL0     H78259   5.896   3.687   9.951 -0.3741  0.3532 -1.0040
  593MOL0     H78260   6.280   3.459   9.654 -1.9951 -0.8650  6.1039
  593MOL0     H78261   6.488   3.501   9.532  0.5307 -0.1377  0.7482
  593MOL0     H78262   7.393   3.784  10.743  0.2092  1.7520 -0.2200
  593MOL0     H78263   7.411   3.552  10.866  0.3470 -0.5667  0.4925
  593MOL0     H78264   7.591   3.212  11.022  1.5748 -1.9644  1.4669
  593MOL0     H78265   7.556   3.000  11.175  2.2384  1.6603 -0.8498
  593MOL0     H78266   7.484   2.700  11.042 -1.1858  0.0552 -1.7818
  593MOL0     H78267   7.317   2.655  11.065  0.6974  0.2846 -0.7487
  593MOL0     H78268   7.338   2.636  11.304 -0.3162  0.0396 -1.4204
  593MOL0     H78269   7.447   2.508  11.231 -1.6528 -0.7976  0.0124
  593MOL0     H78270   7.549   2.587  11.414 -0.7712 -0.7553 -0.8185
  593MOL0     H78271   7.542   2.750  11.363 -0.7634  0.5323 -2.4927
  593MOL0     H78272   7.676   2.506  11.226 -0.0887 -0.2468  0.6962
  593MOL0     H78273   7.699   2.672  11.174  2.4070 -1.3266 -0.9607
  593MOL0     H78274   7.934   2.709  11.513 -1.7851  4.3928 -0.5132
  593MOL0     H78275   7.236   2.866  10.932 -1.0115  0.0293  1.7143
  593MOL0     H78276   7.268   3.037  10.780  0.1806 -1.6096 -0.1423
  594MOL0     O78277   4.698   7.646   6.477  0.6529  0.4026  0.4429
  594MOL0     C78278   4.725   7.538   6.532  0.5182 -0.7093  0.3627
  594MOL0     O78279   4.637   7.469   6.597 -0.7839  0.0358  0.3694
  594MOL0     C78280   4.520   7.527   6.650 -0.4817  0.1256 -0.6292
  594MOL0     C78281   4.507   7.540   6.789 -0.3538 -0.0101  0.6779
  594MOL0     C78282   4.401   7.603   6.844  0.8876 -0.2064  0.0575
  594MOL0     C78283   4.283   7.632   6.763 -0.5704  0.2170 -0.2783
  594MOL0     O78284   4.162   7.660   6.836 -0.8112 -0.5894 -0.2185
  594MOL0     C78285   4.051   7.718   6.755  0.0588  0.0544  0.7279
  594MOL0     C78286   3.946   7.767   6.848  0.5736  0.0186 -0.2740
  594MOL0     C78287   3.873   7.646   6.921 -0.0168 -0.1202 -0.3493
  594MOL0     C78288   3.850   7.679   7.070  0.0924  0.0761 -0.2583
  594MOL0     C78289   3.980   7.682   7.147  0.8518 -1.0572  0.8713
  594MOL0     C78290   4.034   7.543   7.168  0.3477 -0.3834 -0.0937
  594MOL0     C78291   4.170   7.546   7.226 -0.0986  0.5719  0.4950
  594MOL0     C78292   4.203   7.400   7.249 -0.5781 -0.7830  0.3678
  594MOL0     N78293   4.337   7.381   7.306  0.6993 -0.9173  0.0656
  594MOL0     C78294   4.382   7.418   7.427  0.7878  0.1862  0.3527
  594MOL0     C78295   4.517   7.437   7.416 -0.9204  0.6203  0.0883
  594MOL0     C78296   4.605   7.475   7.518 -0.8978  0.4929 -0.2125
  594MOL0     C78297   4.691   7.373   7.595  0.2051  0.4002  1.0274
  594MOL0     C78298   4.600   7.282   7.678 -0.2459  0.1094  0.2013
  594MOL0     C78299   4.668   7.199   7.774  0.9986  0.4924  0.5823
  594MOL0     O78300   4.744   7.268   7.872 -0.2280  0.2498 -0.2856
  594MOL0     C78301   4.788   7.193   7.976 -0.6437 -1.1409  0.0484
  594MOL0     C78302   4.715   7.107   8.056  1.1407 -0.2530 -0.0885
  594MOL0     C78303   4.767   7.029   8.162  0.9609 -0.5419 -0.2194
  594MOL0     C78304   4.897   7.058   8.195 -0.6949 -0.2443 -0.4927
  594MOL0     C78305   4.946   6.993   8.321 -0.8760  0.0616  1.0925
  594MOL0     O78306   4.872   6.902   8.389  0.4529 -0.4970 -0.1998
  594MOL0     C78307   4.902   6.836   8.515 -0.0211  0.3385  0.0802
  594MOL0     C78308   5.027   6.830   8.590 -0.7491  0.0174 -0.9436
  594MOL0     C78309   5.038   6.771   8.714  0.4033  0.1911 -0.3427
  594MOL0     C78310   4.919   6.732   8.776 -0.1041 -0.1673  0.0471
  594MOL0     O78311   4.932   6.691   8.908  0.0004 -0.9694  0.1728
  594MOL0     C78312   4.835   6.604   8.959 -0.3916  0.4955 -0.1292
  594MOL0     C78313   4.886   6.545   9.096 -1.2140 -0.2927 -0.1719
  594MOL0     C78314   4.985   6.621   9.188  0.4792  0.5853  0.7608
  594MOL0     C78315   4.990   6.560   9.324 -0.1440 -0.0538  0.7993
  594MOL0     C78316   5.091   6.456   9.336 -0.3192  0.2316 -0.2287
  594MOL0     C78317   5.143   6.437   9.475  0.6298  0.6618  0.9044
  594MOL0     C78318   5.031   6.442   9.581  0.7434 -0.0889  0.7606
  594MOL0     C78319   5.090   6.411   9.716 -0.1911 -0.3607 -0.4903
  594MOL0    Cl78320   4.951   6.421   9.827 -0.0318 -0.2094  0.4896
  594MOL0     C78321   4.799   6.740   8.708  0.6912 -0.7868  0.7278
  594MOL0     C78322   4.786   6.792   8.575  0.0111 -0.0294 -0.4088
  594MOL0     O78323   5.060   7.030   8.350  0.3943 -0.4433 -0.2540
  594MOL0     C78324   4.973   7.145   8.115  0.8186  0.5719 -0.2287
  594MOL0     C78325   4.922   7.217   8.008  0.6848 -0.8213 -0.0922
  594MOL0     N78326   4.552   7.392   7.290 -0.3320 -1.1410 -0.3537
  594MOL0     N78327   4.448   7.375   7.229  0.7237  0.0601  0.2163
  594MOL0     C78328   4.298   7.614   6.620 -0.0059 -0.0203 -0.4445
  594MOL0     C78329   4.419   7.564   6.564  0.5899  0.0917 -0.7330
  594MOL0     C78330   4.870   7.481   6.537 -0.0536 -1.0397  0.6604
  594MOL0     C78331   4.978   7.553   6.479  0.2072 -0.1147  0.6189
  594MOL0     C78332   5.111   7.497   6.483 -1.0234  0.5216  0.1244
  594MOL0     C78333   5.140   7.384   6.546 -0.4074  0.2082  0.5777
  594MOL0     O78334   5.271   7.342   6.540 -0.0391 -0.5144 -0.0612
  594MOL0     C78335   5.324   7.235   6.633  0.4797  0.1326 -0.6650
  594MOL0     C78336   5.343   7.292   6.776  0.2966 -0.2247  0.3974
  594MOL0     C78337   5.409   7.209   6.879 -0.4512  0.4343  0.7735
  594MOL0     C78338   5.555   7.230   6.895  0.0152  0.6072 -0.2828
  594MOL0     C78339   5.645   7.226   6.775  0.1066 -0.3983 -0.3937
  594MOL0     C78340   5.707   7.211   6.667 -0.3827 -1.1464 -0.3773
  594MOL0     C78341   5.038   7.314   6.609 -0.0657  0.1596  0.5227
  594MOL0     C78342   4.906   7.365   6.602  1.1764 -0.4673  0.7346
  594MOL0     H78343   4.586   7.505   6.853  1.8955  3.0710 -0.1940
  594MOL0     H78344   4.382   7.614   6.950 -0.6637  1.8766 -0.3764
  594MOL0     H78345   3.999   7.654   6.684  0.7745  1.4776 -1.1779
  594MOL0     H78346   4.083   7.814   6.714  2.0313 -0.1219  1.7385
  594MOL0     H78347   3.872   7.821   6.789  1.6951 -0.3922 -2.1090
  594MOL0     H78348   3.995   7.833   6.921  1.6529 -1.4147  0.3464
  594MOL0     H78349   3.931   7.554   6.909  0.2311 -0.0300  0.1040
  594MOL0     H78350   3.781   7.631   6.865 -0.3232 -0.1476  0.1529
  594MOL0     H78351   3.811   7.782   7.062  2.7679  1.3655  1.8080
  594MOL0     H78352   3.773   7.615   7.113  1.3988 -0.7791  0.8781
  594MOL0     H78353   3.961   7.728   7.245  1.4393  0.1666  0.4322
  594MOL0     H78354   4.052   7.750   7.100 -0.5791 -0.4823 -0.6021
  594MOL0     H78355   4.033   7.482   7.077  1.8098 -0.0182 -0.3788
  594MOL0     H78356   3.968   7.493   7.240 -0.4317  2.0317  0.9995
  594MOL0     H78357   4.239   7.597   7.158  0.5260  3.6040  3.1791
  594MOL0     H78358   4.180   7.595   7.323 -2.6007  1.8545  0.1937
  594MOL0     H78359   4.187   7.344   7.156  3.2872 -0.6263 -0.5510
  594MOL0     H78360   4.138   7.358   7.326 -1.7662  0.1135 -0.1161
  594MOL0     H78361   4.321   7.423   7.516 -0.7038  1.7932 -0.6800
  594MOL0     H78362   4.555   7.532   7.597 -0.9718  0.9775 -0.6032
  594MOL0     H78363   4.677   7.543   7.471  1.4976 -0.8491  1.2567
  594MOL0     H78364   4.748   7.427   7.671  0.5289  1.4700  0.0542
  594MOL0     H78365   4.756   7.318   7.526 -1.1824  0.1664 -0.1523
  594MOL0     H78366   4.534   7.347   7.737 -1.4816  0.9202 -1.9832
  594MOL0     H78367   4.522   7.236   7.616 -0.8888 -0.5045  1.4166
  594MOL0     H78368   4.735   7.132   7.719 -1.4696 -2.3566  0.7748
  594MOL0     H78369   4.592   7.131   7.814 -0.2511 -1.7480 -4.7056
  594MOL0     H78370   4.611   7.095   8.028  0.7475 -0.6760  1.4608
  594MOL0     H78371   4.703   6.956   8.209 -1.2063 -0.1277 -2.3210
  594MOL0     H78372   5.114   6.884   8.555 -0.1122  1.9992  3.1253
  594MOL0     H78373   5.133   6.769   8.766  0.2093 -2.3183  0.0582
  594MOL0     H78374   4.821   6.525   8.885 -3.1302  1.2067 -0.4562
  594MOL0     H78375   4.746   6.666   8.972  0.4661  1.6580  0.3520
  594MOL0     H78376   4.923   6.444   9.078 -3.6172 -1.3724  0.4623
  594MOL0     H78377   4.796   6.544   9.158  0.4703  2.4670  2.5563
  594MOL0     H78378   4.942   6.719   9.210 -0.4298  0.3885 -0.0832
  594MOL0     H78379   5.081   6.620   9.135  0.2002 -1.4323  0.2205
  594MOL0     H78380   5.023   6.640   9.391  0.4901 -0.0463  0.4867
  594MOL0     H78381   4.890   6.526   9.354  0.8205 -2.0691  1.8834
  594MOL0     H78382   5.182   6.476   9.278  2.1603  1.7325  3.7395
  594MOL0     H78383   5.040   6.368   9.297 -0.0242  0.3538 -0.9141
  594MOL0     H78384   5.236   6.490   9.496  3.0736 -1.3441 -3.5880
  594MOL0     H78385   5.187   6.336   9.477  0.2937  0.4511 -0.9144
  594MOL0     H78386   4.985   6.540   9.597  1.7034  0.4877  0.0753
  594MOL0     H78387   4.945   6.381   9.552  0.1571  0.8807  0.4287
  594MOL0     H78388   5.162   6.487   9.747 -1.7525  0.5840  1.0482
  594MOL0     H78389   5.135   6.311   9.718 -1.8680 -1.1993 -1.5913
  594MOL0     H78390   4.708   6.729   8.766  1.2921  3.3349  2.8081
  594MOL0     H78391   4.689   6.794   8.528 -1.0504  2.4692  1.6245
  594MOL0     H78392   5.076   7.163   8.144  0.8605 -2.6604  2.2659
  594MOL0     H78393   4.991   7.273   7.946 -0.6536  0.1711 -0.7559
  594MOL0     H78394   4.226   7.665   6.557  0.9426  0.9034 -0.8043
  594MOL0     H78395   4.426   7.542   6.458  3.6335  1.5064 -0.9200
  594MOL0     H78396   4.960   7.645   6.425  1.1895  0.5314  1.3414
  594MOL0     H78397   5.184   7.542   6.417 -0.7700  1.6814  1.1631
  594MOL0     H78398   5.419   7.200   6.593 -1.3728 -1.6685 -3.8347
  594MOL0     H78399   5.262   7.145   6.638  2.2164 -1.0508  1.6041
  594MOL0     H78400   5.401   7.385   6.779 -0.0506  0.0424  4.6959
  594MOL0     H78401   5.246   7.324   6.813 -1.3545 -1.5787 -2.3983
  594MOL0     H78402   5.397   7.101   6.878  1.2414  0.1815  2.1811
  594MOL0     H78403   5.357   7.226   6.974  0.1145  0.6408  1.0559
  594MOL0     H78404   5.564   7.334   6.928 -4.0589  0.4816  1.9096
  594MOL0     H78405   5.589   7.163   6.975 -1.3400 -2.0633 -1.8022
  594MOL0     H78406   5.777   7.194   6.588  0.3184 -2.8928  0.5641
  594MOL0     H78407   5.049   7.214   6.650 -2.9631 -0.4411  0.0105
  594MOL0     H78408   4.823   7.315   6.651  2.0735  0.5344  3.4585
  595MOL0     O78409   1.017   3.123   0.099 -0.5014  0.2059 -0.3296
  595MOL0     C78410   1.021   3.243   0.100 -0.3686 -0.4327  0.1181
  595MOL0     O78411   1.136   3.317   0.094 -0.7675 -0.0104  0.1168
  595MOL0     C78412   1.264   3.258   0.081 -0.3697 -1.1083  0.5905
  595MOL0     C78413   1.363   3.311  -0.004 -0.9007 -0.3503  0.7681
  595MOL0     C78414   1.502   3.269  -0.004 -0.1563 -0.7696 -0.0649
  595MOL0     C78415   1.538   3.169   0.088 -0.2101 -0.2053  0.0689
  595MOL0     O78416   1.669   3.134   0.092  0.8482 -0.1085  0.2371
  595MOL0     C78417   1.737   3.120   0.216 -0.2391  0.8154 -0.4626
  595MOL0     C78418   1.816   3.257   0.230 -0.2549 -0.4536 -0.4760
  595MOL0     C78419   1.913   3.265   0.108  0.7213 -0.3569 -0.1761
  595MOL0     C78420   1.997   3.387   0.112 -0.0336  0.4806  0.0828
  595MOL0     C78421   2.087   3.368  -0.005  0.5049 -0.2610  0.5529
  595MOL0     C78422   2.159   3.495  -0.052 -0.8478 -0.4284 -0.0977
  595MOL0     C78423   2.058   3.596  -0.113 -0.1600  0.8258 -1.5315
  595MOL0     C78424   2.113   3.677  -0.234  0.3273 -0.7304 -0.2684
  595MOL0     N78425   2.060   3.643  -0.366 -0.7198 -0.4841 -0.8478
  595MOL0     C78426   1.924   3.644  -0.389  0.2994 -0.8215 -0.7461
  595MOL0     C78427   1.914   3.632  -0.523  0.0366  0.6289  0.8675
  595MOL0     C78428   1.776   3.639  -0.593 -1.0962 -0.2330  0.3181
  595MOL0     C78429   1.783   3.541  -0.702  0.0009  0.8162  0.7672
  595MOL0     C78430   1.793   3.387  -0.663 -0.1817 -0.2840  0.9364
  595MOL0     C78431   1.686   3.361  -0.559 -0.1454 -1.2596  0.1215
  595MOL0     O78432   1.567   3.406  -0.613 -0.0099  0.0349  0.2569
  595MOL0     C78433   1.469   3.435  -0.530  0.2356 -0.1734 -0.4411
  595MOL0     C78434   1.381   3.540  -0.562 -0.3984  0.2605  0.6866
  595MOL0     C78435   1.259   3.561  -0.495  0.2433  0.2953  0.4051
  595MOL0     C78436   1.235   3.487  -0.378 -0.1054  0.1652  0.8205
  595MOL0     C78437   1.106   3.506  -0.309 -0.1167  0.3999  0.3764
  595MOL0     O78438   1.009   3.571  -0.381 -0.4213  0.8113  0.9056
  595MOL0     C78439   0.872   3.557  -0.367  0.9245  0.4105 -0.2372
  595MOL0     C78440   0.794   3.642  -0.452  0.9063 -0.6675  0.2844
  595MOL0     C78441   0.652   3.640  -0.445 -0.0827 -0.9608 -0.4476
  595MOL0     C78442   0.591   3.557  -0.353 -0.0105  0.0320  0.0242
  595MOL0     O78443   0.458   3.555  -0.315 -0.2318  0.7347 -0.2159
  595MOL0     C78444   0.381   3.618  -0.418 -0.1199 -0.6762  0.0666
  595MOL0     C78445   0.232   3.582  -0.420 -1.1945  0.3248  0.1033
  595MOL0     C78446   0.170   3.576  -0.272  0.6144 -0.1880 -0.5399
  595MOL0     C78447   0.089   3.704  -0.234  0.6522 -0.0768  0.0430
  595MOL0     C78448   0.012   3.706  -0.100 -0.1755  0.5997 -0.0078
  595MOL0     C78449  -0.104   3.604  -0.097  0.1531 -0.0781 -0.7383
  595MOL0     C78450  -0.204   3.632   0.019 -0.2587  0.5559  0.3824
  595MOL0     C78451  -0.321   3.529   0.013 -0.5038  0.1783 -0.7516
  595MOL0    Cl78452  -0.419   3.568  -0.127 -0.1177  0.0090  0.1072
  595MOL0     C78453   0.670   3.478  -0.272  0.4053  0.9114  0.2455
  595MOL0     C78454   0.809   3.478  -0.274 -0.0483  0.0403 -0.6087
  595MOL0     O78455   1.090   3.466  -0.193  0.1208 -0.2141  0.2800
  595MOL0     C78456   1.331   3.388  -0.339 -0.3879  0.9180  0.3203
  595MOL0     C78457   1.445   3.366  -0.403 -0.3185 -0.6294 -0.6153
  595MOL0     N78458   2.040   3.615  -0.575  0.0304 -0.9697 -0.1589
  595MOL0     N78459   2.127   3.622  -0.480 -0.2220 -1.3005 -0.6439
  595MOL0     C78460   1.433   3.118   0.169 -0.4771 -0.5975 -0.8255
  595MOL0     C78461   1.304   3.157   0.170  0.4831 -0.2144  0.3820
  595MOL0     C78462   0.884   3.304   0.096  0.3932  0.2677 -0.1418
  595MOL0     C78463   0.880   3.444   0.088 -0.7182  0.0663  0.0157
  595MOL0     C78464   0.758   3.507   0.099 -0.4044  0.6032 -1.0843
  595MOL0     C78465   0.634   3.437   0.114 -0.4503 -0.0283 -0.4868
  595MOL0     O78466   0.527   3.527   0.126 -0.4038  0.1226  0.5076
  595MOL0     C78467   0.405   3.457   0.134  0.6221 -0.4070 -0.1354
  595MOL0     C78468   0.364   3.402   0.001 -0.6621  0.5191 -0.6274
  595MOL0     C78469   0.213   3.364  -0.011  0.4745  0.1988 -0.5711
  595MOL0     C78470   0.180   3.235   0.060  0.1153 -0.0946  0.6357
  595MOL0     C78471   0.033   3.220   0.056 -1.0298 -1.0617 -0.3154
  595MOL0     C78472  -0.085   3.213   0.058 -0.2731 -0.1513 -0.7404
  595MOL0     C78473   0.642   3.293   0.112 -0.1712 -0.3416  0.5396
  595MOL0     C78474   0.767   3.223   0.105 -0.7117 -0.5382 -0.7174
  595MOL0     H78475   1.326   3.391  -0.067 -0.1216 -0.7766 -0.2477
  595MOL0     H78476   1.577   3.310  -0.071  0.1769 -3.6577 -1.6335
  595MOL0     H78477   1.809   3.038   0.216  0.4348  1.3900 -1.1909
  595MOL0     H78478   1.672   3.108   0.303  0.8594  1.4154  0.4625
  595MOL0     H78479   1.868   3.247   0.325  1.4526 -0.5666 -1.3809
  595MOL0     H78480   1.744   3.338   0.216  1.0766  1.0432  0.8767
  595MOL0     H78481   1.853   3.258   0.017  0.9585 -1.4449 -0.2664
  595MOL0     H78482   1.975   3.175   0.119 -0.5714 -1.2743 -0.0990
  595MOL0     H78483   1.928   3.470   0.095  2.6847  2.4784 -2.2998
  595MOL0     H78484   2.051   3.389   0.207 -1.8044 -1.3821  1.2275
  595MOL0     H78485   2.045   3.313  -0.089 -1.5774 -2.8558  3.0900
  595MOL0     H78486   2.169   3.299   0.020  0.2009 -2.0082 -2.7956
  595MOL0     H78487   2.241   3.469  -0.119  0.3846  0.9360  0.8326
  595MOL0     H78488   2.211   3.532   0.036 -3.3875 -2.2321  2.3369
  595MOL0     H78489   1.954   3.563  -0.122 -0.8614  1.0634  3.0301
  595MOL0     H78490   2.043   3.665  -0.030  1.1290 -2.4264  1.6974
  595MOL0     H78491   2.222   3.673  -0.235  0.3525 -1.8137  1.8498
  595MOL0     H78492   2.093   3.783  -0.211 -2.6044 -0.8036 -1.9301
  595MOL0     H78493   1.847   3.665  -0.315 -0.4175  0.1342 -1.7313
  595MOL0     H78494   1.760   3.732  -0.648 -4.8007 -2.0426 -2.0407
  595MOL0     H78495   1.695   3.624  -0.521  2.9164 -0.6935  5.3356
  595MOL0     H78496   1.876   3.563  -0.756 -0.5166  1.8965  0.2968
  595MOL0     H78497   1.708   3.572  -0.775 -0.4717  2.8906  2.0583
  595MOL0     H78498   1.782   3.318  -0.748 -0.6934 -0.4780  1.1598
  595MOL0     H78499   1.888   3.371  -0.610  0.7832  1.0740 -0.2810
  595MOL0     H78500   1.704   3.414  -0.465 -0.7264  0.0601 -0.4797
  595MOL0     H78501   1.683   3.254  -0.536 -0.3851 -2.5100 -4.7244
  595MOL0     H78502   1.418   3.601  -0.643 -2.0212  0.1048 -0.2214
  595MOL0     H78503   1.185   3.637  -0.519 -1.7020 -0.8616  2.4220
  595MOL0     H78504   0.840   3.707  -0.526  1.0688 -0.4848  0.5426
  595MOL0     H78505   0.595   3.710  -0.505  1.0126 -0.3634 -0.8150
  595MOL0     H78506   0.409   3.582  -0.518  1.7869 -2.3079  1.1196
  595MOL0     H78507   0.392   3.726  -0.422 -0.9037 -0.5034  1.7554
  595MOL0     H78508   0.234   3.480  -0.459 -1.0418  0.2251  0.3717
  595MOL0     H78509   0.187   3.647  -0.496  1.4764  1.9765 -0.2234
  595MOL0     H78510   0.245   3.568  -0.193  1.7525  0.4913 -1.5284
  595MOL0     H78511   0.095   3.496  -0.269 -2.9681  2.8798 -1.3026
  595MOL0     H78512   0.148   3.795  -0.242  0.0680  0.5500  2.1714
  595MOL0     H78513   0.008   3.712  -0.307 -0.8028  1.7017  1.7485
  595MOL0     H78514  -0.013   3.810  -0.078 -0.5630  0.4169  0.4468
  595MOL0     H78515   0.087   3.679  -0.024  1.0732  0.9267 -1.0847
  595MOL0     H78516  -0.075   3.499  -0.105 -0.4718 -0.2800 -0.4191
  595MOL0     H78517  -0.164   3.637  -0.182 -0.3359  2.8593  0.6427
  595MOL0     H78518  -0.150   3.618   0.113 -0.5296  0.6970  0.5585
  595MOL0     H78519  -0.233   3.737   0.010  2.2785  1.2627 -0.2359
  595MOL0     H78520  -0.385   3.531   0.102 -0.4703 -2.1360 -0.6119
  595MOL0     H78521  -0.288   3.425   0.016 -0.6677  0.1489  0.7266
  595MOL0     H78522   0.606   3.407  -0.223 -1.5491 -0.5949 -4.0284
  595MOL0     H78523   0.868   3.403  -0.223  1.0325  0.3862 -1.3165
  595MOL0     H78524   1.327   3.330  -0.247 -0.9171  0.5428  0.0660
  595MOL0     H78525   1.512   3.293  -0.358  0.8221  0.8965  0.2626
  595MOL0     H78526   1.464   3.050   0.247  0.2664  1.8689  1.1963
  595MOL0     H78527   1.237   3.116   0.245 -0.9629 -0.8515 -1.1923
  595MOL0     H78528   0.970   3.505   0.091 -0.0169 -0.7398 -2.3957
  595MOL0     H78529   0.762   3.614   0.117  1.2970  0.2479  1.0377
  595MOL0     H78530   0.328   3.527   0.170  0.6910 -1.1936  1.6717
  595MOL0     H78531   0.407   3.374   0.205  0.3780 -3.0440 -2.9988
  595MOL0     H78532   0.392   3.484  -0.066  0.1449 -0.2910 -1.3058
  595MOL0     H78533   0.430   3.325  -0.039  2.5462  1.1679  2.8779
  595MOL0     H78534   0.184   3.361  -0.116 -1.3845 -0.9969 -0.0709
  595MOL0     H78535   0.147   3.433   0.043 -0.6962 -2.4548  1.5796
  595MOL0     H78536   0.233   3.144   0.030  0.4402 -1.3307  4.4220
  595MOL0     H78537   0.201   3.236   0.167 -3.0992  0.1423  1.3451
  595MOL0     H78538  -0.190   3.198   0.072  0.0468 -1.3995  0.5722
  595MOL0     H78539   0.558   3.224   0.116 -1.4790  1.1892  0.9046
  595MOL0     H78540   0.772   3.115   0.117  0.9577 -0.4739 -0.5522
  596MOL0     O78541   4.206   7.136   7.482  0.3200  0.1649  0.1238
  596MOL0     C78542   4.311   7.073   7.495  0.3833  0.6525  0.0981
  596MOL0     O78543   4.384   7.016   7.396  0.6936 -0.4574 -0.1126
  596MOL0     C78544   4.334   6.967   7.278 -0.2516  0.1207  0.2242
  596MOL0     C78545   4.212   6.989   7.228  0.4188 -0.9856  0.4769
  596MOL0     C78546   4.161   6.911   7.119  0.4534 -0.3418 -0.2781
  596MOL0     C78547   4.232   6.808   7.063  0.1113  0.4331  0.1448
  596MOL0     O78548   4.196   6.741   6.948 -0.0304  0.4476 -1.3284
  596MOL0     C78549   4.137   6.609   6.979 -0.0907 -0.2694  0.5392
  596MOL0     C78550   4.141   6.539   6.853 -0.5829 -0.4873 -0.0226
  596MOL0     C78551   4.084   6.393   6.860 -0.1232  0.6893  0.6597
  596MOL0     C78552   3.938   6.390   6.902  0.3758  0.2039  0.0945
  596MOL0     C78553   3.876   6.260   6.855 -0.3966 -0.4616 -0.6250
  596MOL0     C78554   3.723   6.263   6.861  0.4686  1.1612 -0.5011
  596MOL0     C78555   3.660   6.121   6.852  0.0230 -0.2727  0.5334
  596MOL0     C78556   3.521   6.124   6.804 -0.0601  0.1814 -0.1794
  596MOL0     N78557   3.438   6.216   6.879  0.1493 -0.1427 -0.3180
  596MOL0     C78558   3.393   6.335   6.837 -0.0096 -0.8473  0.0550
  596MOL0     C78559   3.329   6.396   6.943 -0.1249  0.3397  0.2011
  596MOL0     C78560   3.232   6.517   6.945  0.0215 -0.8676 -0.2851
  596MOL0     C78561   3.177   6.556   7.085  0.5369  1.7515 -0.5811
  596MOL0     C78562   3.154   6.709   7.090 -0.2000  0.0150 -0.4022
  596MOL0     C78563   3.102   6.757   7.229  0.7505 -1.1598  0.2002
  596MOL0     O78564   3.200   6.858   7.276  0.0222 -0.8165 -0.5127
  596MOL0     C78565   3.162   6.925   7.385 -0.1093 -0.3748  0.4884
  596MOL0     C78566   3.058   6.900   7.470 -1.1769 -0.0613  0.1620
  596MOL0     C78567   3.044   6.982   7.591  0.9423 -0.0529 -0.4234
  596MOL0     C78568   3.123   7.099   7.609 -0.1573 -0.1598  0.5892
  596MOL0     C78569   3.103   7.180   7.729 -0.0235 -0.1396  0.6710
  596MOL0     O78570   3.181   7.297   7.745  0.5756 -1.0058  0.0544
  596MOL0     C78571   3.189   7.368   7.868  0.6805  0.3179  1.4519
  596MOL0     C78572   3.132   7.492   7.898 -0.0501  0.0111  0.8823
  596MOL0     C78573   3.155   7.566   8.015  0.3237  0.1507 -0.3842
  596MOL0     C78574   3.234   7.504   8.112  0.7466 -0.6399 -0.4993
  596MOL0     O78575   3.262   7.577   8.223  0.1201 -0.0045 -0.0287
  596MOL0     C78576   3.358   7.678   8.203  0.1969  0.7829  0.0531
  596MOL0     C78577   3.313   7.799   8.281 -0.7225 -0.2023  0.5666
  596MOL0     C78578   3.399   7.917   8.264 -0.2209 -0.8350 -0.6830
  596MOL0     C78579   3.351   8.039   8.356  0.0884  0.6653  0.4952
  596MOL0     C78580   3.461   8.150   8.364 -1.4072  0.4363 -0.3331
  596MOL0     C78581   3.506   8.217   8.235 -1.0332 -0.7091  0.3561
  596MOL0     C78582   3.629   8.158   8.172 -0.6256  0.2048 -0.4105
  596MOL0     C78583   3.752   8.204   8.263 -0.0462  0.0520  0.1975
  596MOL0    Cl78584   3.881   8.153   8.160  0.0134 -0.0228 -0.1028
  596MOL0     C78585   3.277   7.370   8.092  0.0933 -0.1213  0.5816
  596MOL0     C78586   3.262   7.316   7.962 -1.1333  0.3766 -0.7671
  596MOL0     O78587   3.012   7.142   7.805 -0.1146 -0.0350  1.0014
  596MOL0     C78588   3.225   7.112   7.516  0.0804  0.3761 -0.6402
  596MOL0     C78589   3.244   7.026   7.410 -0.8517  0.0327 -0.0767
  596MOL0     N78590   3.338   6.297   7.037 -0.1451 -0.1670 -1.0589
  596MOL0     N78591   3.412   6.185   7.004 -0.0108  0.3524  0.5829
  596MOL0     C78592   4.362   6.792   7.110  0.5271  0.2916 -0.7102
  596MOL0     C78593   4.411   6.862   7.222 -0.1374  0.4642  0.3245
  596MOL0     C78594   4.343   7.024   7.630  0.5404 -0.3653  0.6285
  596MOL0     C78595   4.411   6.907   7.653  0.1314 -0.7272 -0.7800
  596MOL0     C78596   4.439   6.863   7.786  0.2771 -0.4681  0.0734
  596MOL0     C78597   4.403   6.943   7.893  0.4249 -0.2780  0.3116
  596MOL0     O78598   4.414   6.913   8.034  0.3728  0.1657 -0.4886
  596MOL0     C78599   4.382   6.773   8.060  0.0495  0.1187  0.6192
  596MOL0     C78600   4.331   6.733   8.202  0.0543 -0.2431  0.1573
  596MOL0     C78601   4.446   6.736   8.303 -0.3563 -0.0047 -0.1622
  596MOL0     C78602   4.404   6.660   8.439  0.9099 -0.6736  0.2554
  596MOL0     C78603   4.297   6.724   8.520 -0.2213  0.5389  0.2127
  596MOL0     C78604   4.220   6.793   8.583 -1.2860  0.3475  0.2409
  596MOL0     C78605   4.327   7.056   7.871  0.5586 -0.8740  0.7375
  596MOL0     C78606   4.288   7.092   7.744  0.9858 -0.2958  0.1086
  596MOL0     H78607   4.142   7.066   7.259 -0.1034 -0.4241 -1.8888
  596MOL0     H78608   4.070   6.942   7.068  2.2640  0.6026 -3.1483
  596MOL0     H78609   4.031   6.607   7.005 -0.1759 -1.5845  0.1403
  596MOL0     H78610   4.195   6.554   7.054 -1.6062  1.3129  3.0389
  596MOL0     H78611   4.247   6.535   6.825  0.5506 -0.9777  3.7644
  596MOL0     H78612   4.080   6.595   6.782  1.5644  2.2746  0.1314
  596MOL0     H78613   4.149   6.321   6.909  0.2013 -0.5919 -1.5094
  596MOL0     H78614   4.087   6.362   6.755 -3.1039  1.0014  0.3995
  596MOL0     H78615   3.919   6.417   7.007 -2.1386  0.6027 -0.3851
  596MOL0     H78616   3.891   6.470   6.844  1.0760  3.7507  3.9010
  596MOL0     H78617   3.914   6.180   6.921  0.0828  0.0262 -0.2990
  596MOL0     H78618   3.902   6.235   6.752 -1.0391  0.8101 -1.1054
  596MOL0     H78619   3.699   6.317   6.769  3.1643 -1.2357 -2.8158
  596MOL0     H78620   3.696   6.307   6.957  0.8879  0.6023 -0.1230
  596MOL0     H78621   3.715   6.049   6.791 -1.4881 -0.8407 -0.2195
  596MOL0     H78622   3.657   6.074   6.951  5.0649 -0.3170  0.9358
  596MOL0     H78623   3.482   6.022   6.808 -1.7418  0.8589  1.5494
  596MOL0     H78624   3.521   6.147   6.697 -0.5209  1.2253  0.0326
  596MOL0     H78625   3.394   6.379   6.737 -1.2395 -1.6626 -0.3449
  596MOL0     H78626   3.154   6.502   6.869 -1.5399 -3.2218  1.6233
  596MOL0     H78627   3.290   6.598   6.900 -1.0050 -0.1628 -0.3705
  596MOL0     H78628   3.251   6.536   7.163 -1.8402 -1.5343  1.1197
  596MOL0     H78629   3.083   6.501   7.099  0.0721  1.7466 -3.3161
  596MOL0     H78630   3.247   6.759   7.060  0.3552 -2.6366 -3.7674
  596MOL0     H78631   3.082   6.730   7.010  1.6873 -0.9390 -2.4746
  596MOL0     H78632   3.088   6.673   7.298 -0.4968 -2.9363 -2.0891
  596MOL0     H78633   3.005   6.802   7.206  1.9080  1.6509  0.3931
  596MOL0     H78634   2.987   6.818   7.457 -1.8936  0.8198 -1.7946
  596MOL0     H78635   2.972   6.952   7.667  2.1443  0.8375  1.1254
  596MOL0     H78636   3.073   7.535   7.818  0.1862 -3.3973 -1.3231
  596MOL0     H78637   3.111   7.663   8.034  0.6620 -0.1448  2.2049
  596MOL0     H78638   3.371   7.699   8.096  0.0694 -1.7068 -0.5201
  596MOL0     H78639   3.453   7.644   8.246  0.7455  0.2557 -1.4735
  596MOL0     H78640   3.296   7.773   8.386 -6.0281 -0.1373  0.0192
  596MOL0     H78641   3.216   7.829   8.238 -0.2669  0.7379  0.1683
  596MOL0     H78642   3.406   7.959   8.163  1.9429  0.8788  0.1043
  596MOL0     H78643   3.499   7.890   8.296 -0.7467 -1.4855  0.4717
  596MOL0     H78644   3.261   8.081   8.310 -0.8389 -0.1231  1.5431
  596MOL0     H78645   3.324   8.009   8.458  0.5391  1.1935  0.7802
  596MOL0     H78646   3.549   8.114   8.419 -1.8359  3.7706  3.0081
  596MOL0     H78647   3.419   8.233   8.423 -0.6033  0.6464 -0.0357
  596MOL0     H78648   3.525   8.321   8.265  1.3012 -0.3111 -2.1732
  596MOL0     H78649   3.422   8.215   8.165 -2.3094  0.5540  1.7752
  596MOL0     H78650   3.629   8.049   8.162 -0.2957 -0.3455  3.8320
  596MOL0     H78651   3.655   8.216   8.082 -1.4972  1.5815  0.1844
  596MOL0     H78652   3.762   8.162   8.364  6.2064 -0.8665 -0.4164
  596MOL0     H78653   3.755   8.313   8.273 -1.5960  0.1424 -0.1223
  596MOL0     H78654   3.327   7.311   8.168  1.0799  0.1059  0.1245
  596MOL0     H78655   3.310   7.220   7.946 -1.4691  0.0319  0.1985
  596MOL0     H78656   3.273   7.208   7.496 -2.6710  1.9812 -0.1265
  596MOL0     H78657   3.317   7.049   7.333 -3.3071  0.1623 -2.5235
  596MOL0     H78658   4.423   6.707   7.078  0.7015  0.0029  0.3555
  596MOL0     H78659   4.507   6.838   7.266  0.5844 -0.3092 -1.5612
  596MOL0     H78660   4.437   6.843   7.569  0.3502 -1.6493 -0.0318
  596MOL0     H78661   4.503   6.777   7.801 -0.6100 -2.1771 -4.4646
  596MOL0     H78662   4.462   6.707   8.027  0.4720  0.3376  1.1828
  596MOL0     H78663   4.297   6.750   7.995 -0.3506  0.8821  0.8554
  596MOL0     H78664   4.247   6.792   8.241 -0.6879  0.0027 -1.7033
  596MOL0     H78665   4.290   6.631   8.195  0.2767 -0.2930 -0.5776
  596MOL0     H78666   4.470   6.838   8.335 -1.0269  0.2394 -0.4199
  596MOL0     H78667   4.525   6.670   8.267  0.1479  0.1093  0.7053
  596MOL0     H78668   4.365   6.558   8.425  1.6760 -1.0328  0.6585
  596MOL0     H78669   4.492   6.659   8.503 -0.2089 -1.9320  1.8747
  596MOL0     H78670   4.152   6.849   8.644 -0.5559 -0.1417  1.5478
  596MOL0     H78671   4.282   7.107   7.956 -3.0214 -1.9040 -0.3466
  596MOL0     H78672   4.242   7.188   7.723  2.5282  0.2565 -0.9535
  597MOL0     O78673   9.864   4.072   8.938  0.2799 -1.1587 -0.2185
  597MOL0     C78674   9.765   4.135   8.985 -0.0461  0.2971 -0.3226
  597MOL0     O78675   9.641   4.140   8.927 -0.0769 -0.5074  0.3100
  597MOL0     C78676   9.624   4.079   8.810 -1.0315  1.0689  0.6015
  597MOL0     C78677   9.572   3.952   8.792  0.9022  0.7986  0.0452
  597MOL0     C78678   9.539   3.902   8.659 -0.5650 -0.4400 -0.3479
  597MOL0     C78679   9.581   3.984   8.548 -0.6874 -0.6745  0.3369
  597MOL0     O78680   9.540   3.962   8.415 -0.0519  0.0054  0.1208
  597MOL0     C78681   9.424   3.886   8.389 -0.2807 -0.8982  0.8957
  597MOL0     C78682   9.454   3.752   8.322  0.2935 -0.9647 -0.2255
  597MOL0     C78683   9.543   3.649   8.403 -0.5679 -1.4787  0.6682
  597MOL0     C78684   9.567   3.520   8.334  0.6136 -0.0795  0.7846
  597MOL0     C78685   9.578   3.392   8.419  1.1354 -0.3709 -0.8368
  597MOL0     C78686   9.630   3.264   8.355  0.1095  1.1463  1.1254
  597MOL0     C78687   9.776   3.277   8.303 -0.0759  0.5666  0.8581
  597MOL0     C78688   9.821   3.144   8.235  0.7552 -0.2148  0.4159
  597MOL0     N78689   9.967   3.141   8.201 -0.5653 -0.6241  0.3173
  597MOL0     C78690  10.060   3.086   8.283  0.5919 -0.1214  0.3468
  597MOL0     C78691  10.184   3.133   8.249 -0.0766 -0.1509 -0.6784
  597MOL0     C78692  10.326   3.098   8.309  0.6851  0.4025  0.0454
  597MOL0     C78693  10.418   3.036   8.195  0.0277  0.2846  0.6177
  597MOL0     C78694  10.358   2.903   8.130 -0.7544  0.2880  0.0642
  597MOL0     C78695  10.449   2.824   8.035 -0.1730  0.0199  0.9589
  597MOL0     O78696  10.552   2.763   8.113 -0.2751  0.5471 -0.5302
  597MOL0     C78697  10.627   2.671   8.050 -0.5497  1.0505  0.0202
  597MOL0     C78698  10.636   2.669   7.907 -0.9541  0.4976  0.5243
  597MOL0     C78699  10.708   2.560   7.853  0.4037 -0.4211  0.2865
  597MOL0     C78700  10.771   2.458   7.935 -0.0336 -0.4507 -0.4176
  597MOL0     C78701  10.854   2.351   7.872  0.1942 -0.0602 -1.0320
  597MOL0     O78702  10.825   2.319   7.739  0.1107 -0.2295 -1.5853
  597MOL0     C78703  10.871   2.197   7.688 -0.1208 -0.0940 -0.5228
  597MOL0     C78704  10.938   2.189   7.561 -0.2134 -1.1470 -1.0649
  597MOL0     C78705  10.980   2.063   7.501  0.6179 -1.0139 -0.7542
  597MOL0     C78706  10.942   1.946   7.566 -0.9041  0.4713  0.1490
  597MOL0     O78707  10.948   1.818   7.516  0.3069 -0.7640  0.5053
  597MOL0     C78708  10.903   1.816   7.375 -0.1025 -0.2654 -0.7384
  597MOL0     C78709  10.933   1.670   7.346  0.6063  0.3034 -0.6711
  597MOL0     C78710  10.870   1.626   7.214  0.5518  0.9278  0.3551
  597MOL0     C78711  10.928   1.704   7.093 -0.1329 -0.3802 -0.4985
  597MOL0     C78712  10.841   1.707   6.967 -0.3005 -0.0753 -0.6867
  597MOL0     C78713  10.750   1.597   6.940  0.2384 -0.1391 -0.3724
  597MOL0     C78714  10.680   1.616   6.806  0.3945  0.9442 -0.2052
  597MOL0     C78715  10.597   1.736   6.796  0.6061 -0.9474  0.3446
  597MOL0    Cl78716  10.534   1.759   6.635  0.3988  0.1406  0.2826
  597MOL0     C78717  10.872   1.955   7.694  0.9447 -0.0399  0.2666
  597MOL0     C78718  10.858   2.075   7.756  0.8793 -0.2028  0.7645
  597MOL0     O78719  10.920   2.284   7.954 -0.4936 -0.4612 -0.5648
  597MOL0     C78720  10.758   2.467   8.073  0.0128 -0.4965 -0.1641
  597MOL0     C78721  10.687   2.572   8.127 -0.5789 -0.4860  0.5293
  597MOL0     N78722  10.162   3.236   8.149 -0.5344 -0.2797  0.1141
  597MOL0     N78723  10.035   3.234   8.128 -0.0897  0.2504  0.2900
  597MOL0     C78724   9.650   4.098   8.570 -0.2047  0.1505  0.9165
  597MOL0     C78725   9.670   4.148   8.698  0.2973  0.1201  0.7460
  597MOL0     C78726   9.789   4.217   9.109  0.0869  0.4274 -0.4183
  597MOL0     C78727   9.914   4.212   9.181 -0.6858 -0.2244 -0.4686
  597MOL0     C78728   9.941   4.297   9.292  0.9605 -0.7904  0.3420
  597MOL0     C78729   9.850   4.399   9.338 -0.0265 -0.1800  0.0064
  597MOL0     O78730   9.891   4.479   9.444 -0.1041 -0.5245  0.7825
  597MOL0     C78731   9.805   4.599   9.470  0.2170  0.4916 -0.6158
  597MOL0     C78732   9.841   4.711   9.363  0.0868 -1.7192 -0.4333
  597MOL0     C78733   9.758   4.834   9.399  0.0561  0.3412  0.7873
  597MOL0     C78734   9.784   4.950   9.296 -0.0637 -0.9059  0.3344
  597MOL0     C78735   9.655   5.021   9.257  0.6536 -0.5052  0.1876
  597MOL0     C78736   9.541   5.061   9.235 -0.3707 -0.5277 -0.5944
  597MOL0     C78737   9.734   4.405   9.264 -0.5436 -0.9926 -0.2317
  597MOL0     C78738   9.708   4.312   9.157  0.7248  0.7066 -0.5151
  597MOL0     H78739   9.557   3.897   8.884 -2.6214 -0.1876 -0.9665
  597MOL0     H78740   9.490   3.806   8.641 -1.1528 -0.1403 -0.3812
  597MOL0     H78741   9.360   3.941   8.319  0.4898  1.1604  1.7622
  597MOL0     H78742   9.361   3.877   8.477  0.2801 -2.0266  1.2130
  597MOL0     H78743   9.495   3.776   8.223  1.3589 -0.2040  0.3801
  597MOL0     H78744   9.354   3.713   8.303 -0.4515  0.2405  1.0244
  597MOL0     H78745   9.494   3.631   8.499 -1.7977 -1.5779  0.0390
  597MOL0     H78746   9.634   3.709   8.409 -2.1325  0.9842  1.2667
  597MOL0     H78747   9.473   3.503   8.280 -0.1738 -3.2705  2.8984
  597MOL0     H78748   9.640   3.521   8.253 -1.6338  0.2076 -1.3889
  597MOL0     H78749   9.481   3.375   8.465  1.0080 -2.9286 -1.8965
  597MOL0     H78750   9.645   3.422   8.500  0.7845  0.9587 -1.0059
  597MOL0     H78751   9.564   3.233   8.273  1.6471  0.1097  0.2182
  597MOL0     H78752   9.621   3.175   8.418  0.7351  0.7191  0.6282
  597MOL0     H78753   9.779   3.351   8.223 -3.1972 -2.7969 -2.7909
  597MOL0     H78754   9.860   3.293   8.372  0.7364  1.3083 -0.2688
  597MOL0     H78755   9.765   3.145   8.140 -1.3989  2.9773  1.5363
  597MOL0     H78756   9.782   3.058   8.290 -0.3942  0.8097  1.2576
  597MOL0     H78757  10.037   3.033   8.374  0.8854 -1.0701 -0.1224
  597MOL0     H78758  10.306   3.031   8.393  2.2766  0.1018  0.2140
  597MOL0     H78759  10.361   3.197   8.339 -3.2309  1.4653  1.7767
  597MOL0     H78760  10.516   3.020   8.241  0.2672  1.7771  0.6862
  597MOL0     H78761  10.440   3.104   8.112 -2.7694 -1.9362 -2.1529
  597MOL0     H78762  10.323   2.837   8.211 -0.9359  3.3545  2.6790
  597MOL0     H78763  10.260   2.923   8.087 -1.1994 -1.9005 -0.0832
  597MOL0     H78764  10.481   2.892   7.956  1.6152 -0.6979  1.0069
  597MOL0     H78765  10.402   2.735   7.992  0.3286 -0.3157  1.0875
  597MOL0     H78766  10.592   2.727   7.826  2.4896 -0.0167 -1.9687
  597MOL0     H78767  10.721   2.550   7.746  2.2614 -2.9496  0.6343
  597MOL0     H78768  10.976   2.285   7.526 -0.0009 -0.2944  1.3434
  597MOL0     H78769  11.038   2.058   7.409  1.8809 -0.8423  0.0120
  597MOL0     H78770  10.954   1.884   7.306  0.1978 -0.8669 -1.1165
  597MOL0     H78771  10.801   1.854   7.369  0.9917  2.7051 -3.7586
  597MOL0     H78772  10.895   1.612   7.431  0.9818 -0.5012 -1.0424
  597MOL0     H78773  11.037   1.642   7.365 -0.5418 -2.3742  2.7979
  597MOL0     H78774  10.763   1.648   7.225  0.1853 -0.5545 -0.0585
  597MOL0     H78775  10.879   1.519   7.194 -2.4740  0.7501 -0.6228
  597MOL0     H78776  10.963   1.805   7.119 -4.2633  1.0503  0.2317
  597MOL0     H78777  11.009   1.640   7.056 -0.0479  0.4269 -1.7892
  597MOL0     H78778  10.907   1.724   6.881 -1.2369  1.0402 -1.2020
  597MOL0     H78779  10.781   1.796   6.984  3.3750  2.4077  0.6774
  597MOL0     H78780  10.666   1.582   7.009  0.6384 -2.4078 -0.2871
  597MOL0     H78781  10.813   1.507   6.936  1.8306  0.8360  1.4859
  597MOL0     H78782  10.754   1.597   6.728  1.7337 -0.6178  1.3603
  597MOL0     H78783  10.615   1.530   6.785 -0.5959  1.7186 -0.4031
  597MOL0     H78784  10.651   1.829   6.820 -2.1698  0.8038  0.3251
  597MOL0     H78785  10.519   1.729   6.873 -0.7297  0.1967 -0.8347
  597MOL0     H78786  10.854   1.867   7.754  0.4369  1.3325  2.2126
  597MOL0     H78787  10.815   2.069   7.856  2.1368  0.3260  1.3559
  597MOL0     H78788  10.804   2.393   8.139 -0.8463 -1.5235 -0.6781
  597MOL0     H78789  10.671   2.578   8.234 -0.2787  0.1310  0.5413
  597MOL0     H78790   9.681   4.154   8.482 -1.5047 -1.0342 -0.3508
  597MOL0     H78791   9.721   4.244   8.707 -1.0875  1.2811 -2.2294
  597MOL0     H78792   9.994   4.143   9.154 -0.6358 -1.2349  1.9831
  597MOL0     H78793  10.029   4.292   9.355  1.8043 -2.7180 -0.9077
  597MOL0     H78794   9.832   4.630   9.571  1.4090 -2.7052  0.1727
  597MOL0     H78795   9.697   4.581   9.471  0.0591  1.3235 -1.5785
  597MOL0     H78796   9.948   4.729   9.379 -0.7118  1.1392  2.9910
  597MOL0     H78797   9.835   4.671   9.262  3.3117 -3.0312 -0.2377
  597MOL0     H78798   9.781   4.863   9.502 -1.7952  1.7996  0.8338
  597MOL0     H78799   9.654   4.801   9.396 -0.2618  1.2284  1.6167
  597MOL0     H78800   9.851   5.019   9.348 -1.6021  0.2380  0.8965
  597MOL0     H78801   9.841   4.918   9.208 -0.3633 -0.8331  0.1119
  597MOL0     H78802   9.439   5.089   9.215 -0.1601  0.2800 -0.5592
  597MOL0     H78803   9.658   4.482   9.272 -1.8771 -1.7108 -3.9944
  597MOL0     H78804   9.625   4.332   9.090 -1.2407 -2.7706  0.6849
  598MOL0     O78805   6.763   8.407   8.291  1.0211  0.7703  0.2273
  598MOL0     C78806   6.836   8.393   8.385  0.0890  0.4732 -0.7121
  598MOL0     O78807   6.936   8.479   8.414 -0.1778  0.9305  0.0447
  598MOL0     C78808   6.969   8.593   8.342  0.0826 -0.0557 -0.0858
  598MOL0     C78809   6.880   8.702   8.365  0.1118  0.7001  0.1580
  598MOL0     C78810   6.910   8.821   8.298  0.6698  0.2273 -0.6561
  598MOL0     C78811   7.027   8.845   8.225  0.1923  0.7517  1.2124
  598MOL0     O78812   7.051   8.970   8.175 -0.2791  0.2556  0.4176
  598MOL0     C78813   7.077   8.969   8.030 -0.3975 -0.5081 -0.5144
  598MOL0     C78814   7.027   9.107   7.984  0.9834 -0.5873  0.3896
  598MOL0     C78815   6.873   9.102   7.970 -0.2561 -0.6228 -0.5527
  598MOL0     C78816   6.807   9.239   7.926  0.1939 -0.0226  0.5373
  598MOL0     C78817   6.651   9.218   7.903  0.1376 -0.9556  0.3759
  598MOL0     C78818   6.607   9.144   7.776 -0.1748  0.6707 -0.2022
  598MOL0     C78819   6.613   9.226   7.638  1.0350 -0.2128 -0.0312
  598MOL0     C78820   6.576   9.154   7.507  0.6131 -0.1079  0.4147
  598MOL0     N78821   6.605   9.234   7.392 -0.7647  0.4644  0.2914
  598MOL0     C78822   6.737   9.264   7.347  0.2293  0.5663  0.3640
  598MOL0     C78823   6.714   9.328   7.229  0.3120 -0.1643 -0.9104
  598MOL0     C78824   6.832   9.371   7.137 -1.1543  0.7117  0.6958
  598MOL0     C78825   6.909   9.252   7.105 -0.5260  0.6735 -0.3615
  598MOL0     C78826   7.047   9.277   7.045 -0.6725  1.0171  0.6506
  598MOL0     C78827   7.157   9.162   7.050  0.9504  0.2321  0.0279
  598MOL0     O78828   7.181   9.120   7.182 -0.5357  0.0518 -0.5411
  598MOL0     C78829   7.276   9.026   7.214 -0.3011 -0.7877 -1.1703
  598MOL0     C78830   7.333   9.016   7.339  0.4014 -0.5397  0.2442
  598MOL0     C78831   7.416   8.913   7.379 -0.1239  0.4280  0.4678
  598MOL0     C78832   7.454   8.814   7.281  0.1238  0.4143 -0.4546
  598MOL0     C78833   7.532   8.685   7.316 -0.3966  0.3479  0.6770
  598MOL0     O78834   7.626   8.700   7.413 -0.0542  0.0374 -0.6376
  598MOL0     C78835   7.698   8.597   7.469  0.0240 -0.6721  1.2155
  598MOL0     C78836   7.734   8.608   7.604  0.0612  0.2025 -0.3187
  598MOL0     C78837   7.801   8.503   7.667  0.2499 -0.8061  0.3549
  598MOL0     C78838   7.837   8.394   7.599  0.3522  0.6538  0.4432
  598MOL0     O78839   7.876   8.281   7.665 -0.2675  0.0707 -0.4090
  598MOL0     C78840   7.959   8.181   7.608 -0.6365  0.1745 -0.0703
  598MOL0     C78841   8.067   8.176   7.712 -0.3128 -0.1383  1.0186
  598MOL0     C78842   8.183   8.096   7.677 -0.5809  0.2737 -0.3877
  598MOL0     C78843   8.298   8.081   7.778 -1.2779 -0.0266  1.0978
  598MOL0     C78844   8.386   7.956   7.761  1.1962  0.1053  1.0211
  598MOL0     C78845   8.462   7.946   7.904  0.7540  0.1105  0.5144
  598MOL0     C78846   8.539   7.817   7.919 -0.4034  0.0809 -0.5789
  598MOL0     C78847   8.599   7.806   8.054 -0.3711  0.1577 -0.1269
  598MOL0    Cl78848   8.625   7.640   8.106 -0.2763  0.7486  0.2050
  598MOL0     C78849   7.813   8.382   7.458 -0.6024 -0.2899 -0.3995
  598MOL0     C78850   7.742   8.485   7.395 -0.3462 -0.0377 -0.2273
  598MOL0     O78851   7.518   8.585   7.250  0.0791 -0.6278  0.0395
  598MOL0     C78852   7.397   8.813   7.157  0.7737 -0.9230 -0.7795
  598MOL0     C78853   7.312   8.921   7.126 -0.0772 -0.1208  0.2583
  598MOL0     N78854   6.571   9.349   7.216  0.2089  0.1434  0.3324
  598MOL0     N78855   6.512   9.292   7.311 -0.1769  0.0246 -0.6769
  598MOL0     C78856   7.110   8.733   8.217 -0.2802  0.3669 -0.0140
  598MOL0     C78857   7.085   8.612   8.272  0.7969  0.0473 -0.0261
  598MOL0     C78858   6.788   8.292   8.480  0.0050 -0.2085  0.7930
  598MOL0     C78859   6.671   8.205   8.460  0.0778  0.3180 -0.2357
  598MOL0     C78860   6.629   8.112   8.560 -0.4093 -0.6555  0.5405
  598MOL0     C78861   6.713   8.095   8.672  0.3126  0.7700  0.3441
  598MOL0     O78862   6.679   7.986   8.744 -0.1624 -0.4491 -0.5440
  598MOL0     C78863   6.780   7.909   8.818  0.2356 -0.5725 -0.2134
  598MOL0     C78864   6.806   7.959   8.956 -0.3221 -0.0727  1.1052
  598MOL0     C78865   6.844   7.860   9.061  0.3051 -0.1084  0.4774
  598MOL0     C78866   6.994   7.831   9.079  0.5440  0.4360 -0.1361
  598MOL0     C78867   7.033   7.701   9.011  0.4724  0.1185 -0.0825
  598MOL0     C78868   7.064   7.595   8.957 -1.0588 -0.0148  0.8005
  598MOL0     C78869   6.826   8.169   8.680 -0.7565  0.2650 -0.2441
  598MOL0     C78870   6.867   8.269   8.587  0.1875  0.6610 -0.2766
  598MOL0     H78871   6.786   8.686   8.417  1.0313 -0.5867  1.5280
  598MOL0     H78872   6.837   8.902   8.288  0.9729  0.5227 -0.5063
  598MOL0     H78873   7.020   8.892   7.977 -2.5874  0.1067  0.8534
  598MOL0     H78874   7.184   8.958   8.010  0.1523  2.6143  0.2513
  598MOL0     H78875   7.071   9.149   7.893  1.9787 -0.5719  0.8601
  598MOL0     H78876   7.061   9.172   8.064  1.6309  0.7023 -0.8919
  598MOL0     H78877   6.832   9.077   8.068 -0.0674 -3.0576 -1.0399
  598MOL0     H78878   6.845   9.021   7.903  1.1298 -1.2569 -0.3958
  598MOL0     H78879   6.811   9.304   8.014 -0.9271  0.9221 -0.0744
  598MOL0     H78880   6.870   9.292   7.854  2.3618  2.0672  3.6928
  598MOL0     H78881   6.603   9.317   7.904 -0.5029 -1.2142 -1.3139
  598MOL0     H78882   6.602   9.177   7.991 -1.7102 -0.0206 -0.1624
  598MOL0     H78883   6.503   9.111   7.786 -0.6333  1.4555 -2.0859
  598MOL0     H78884   6.654   9.046   7.765 -0.0914  0.5463  1.0469
  598MOL0     H78885   6.536   9.302   7.650 -1.7702 -2.5082 -1.8291
  598MOL0     H78886   6.715   9.264   7.641  1.0290 -0.2675  1.0035
  598MOL0     H78887   6.472   9.119   7.507  0.2668  0.7542 -1.6398
  598MOL0     H78888   6.642   9.067   7.498  1.8352  0.6490  1.6844
  598MOL0     H78889   6.835   9.238   7.388  0.3456  0.3483 -0.0493
  598MOL0     H78890   6.895   9.444   7.188  1.2804 -0.5245 -0.3887
  598MOL0     H78891   6.799   9.413   7.041 -2.6228 -0.4153  0.6824
  598MOL0     H78892   6.850   9.186   7.041  3.8612 -2.4088 -1.6645
  598MOL0     H78893   6.922   9.186   7.191 -4.3496  0.2529  0.0865
  598MOL0     H78894   7.033   9.322   6.946 -0.5315 -3.3399 -1.6064
  598MOL0     H78895   7.089   9.358   7.105  4.7567  1.9974 -3.6903
  598MOL0     H78896   7.254   9.199   7.016  0.5463 -0.9766 -2.6704
  598MOL0     H78897   7.115   9.089   6.981 -2.1843  1.5560  0.3852
  598MOL0     H78898   7.312   9.090   7.416 -0.4337 -1.8226  1.2926
  598MOL0     H78899   7.453   8.901   7.480  1.4923 -0.0923 -0.1622
  598MOL0     H78900   7.711   8.695   7.665 -0.4933  0.0728 -0.3417
  598MOL0     H78901   7.837   8.508   7.769  4.3307  0.7322 -0.9431
  598MOL0     H78902   8.007   8.217   7.517  2.0025  0.3417  1.2941
  598MOL0     H78903   7.902   8.088   7.600  0.1827 -0.1819 -2.3826
  598MOL0     H78904   8.026   8.144   7.808  1.1049 -3.8602  0.5205
  598MOL0     H78905   8.104   8.279   7.723  0.2313 -0.0454 -1.2331
  598MOL0     H78906   8.231   8.139   7.588  3.0572  0.3954  1.4527
  598MOL0     H78907   8.146   7.998   7.647 -1.9673 -0.0435  2.0982
  598MOL0     H78908   8.368   8.162   7.758  4.3942 -4.4906  0.1213
  598MOL0     H78909   8.259   8.103   7.878  1.8414  0.7374  2.2605
  598MOL0     H78910   8.445   7.957   7.669  0.5739  0.1895  0.6237
  598MOL0     H78911   8.314   7.874   7.759  1.4945 -0.1569 -0.6799
  598MOL0     H78912   8.393   7.947   7.988  2.0167  4.1393  1.7038
  598MOL0     H78913   8.523   8.035   7.924  2.2304  0.2019 -3.3862
  598MOL0     H78914   8.461   7.741   7.911  0.3390 -0.6461 -1.0259
  598MOL0     H78915   8.611   7.811   7.836 -2.3452 -1.5192 -2.2636
  598MOL0     H78916   8.530   7.851   8.126 -1.2897  2.1861 -2.1732
  598MOL0     H78917   8.684   7.875   8.044 -1.5571  2.3664  3.1953
  598MOL0     H78918   7.840   8.294   7.400  2.2852 -0.9417  1.7068
  598MOL0     H78919   7.722   8.487   7.289 -3.4904  1.4647  0.2735
  598MOL0     H78920   7.423   8.740   7.081  1.0310 -0.1776 -1.4277
  598MOL0     H78921   7.277   8.911   7.023 -2.5622  0.1271  1.0214
  598MOL0     H78922   7.201   8.746   8.161  1.8257 -3.5364  2.0356
  598MOL0     H78923   7.148   8.523   8.278 -1.2074 -1.4591 -0.3364
  598MOL0     H78924   6.609   8.215   8.372  0.4272  0.3231 -0.4838
  598MOL0     H78925   6.529   8.070   8.559 -0.8455  0.3622  0.7983
  598MOL0     H78926   6.873   7.888   8.764  0.4503 -3.8208  1.2408
  598MOL0     H78927   6.737   7.810   8.833  1.5839 -1.3889 -1.4612
  598MOL0     H78928   6.890   8.028   8.946  0.6214 -1.4255 -1.0316
  598MOL0     H78929   6.718   8.018   8.985 -0.7991  0.3777 -1.0715
  598MOL0     H78930   6.782   7.770   9.063  0.8405 -0.5084 -0.3443
  598MOL0     H78931   6.820   7.914   9.153 -2.7807  1.7015 -1.2119
  598MOL0     H78932   7.060   7.912   9.047  4.4973 -1.6279  2.0650
  598MOL0     H78933   7.024   7.808   9.181  2.4536  0.3333 -0.6797
  598MOL0     H78934   7.100   7.502   8.919 -0.3005  0.6765 -0.2305
  598MOL0     H78935   6.901   8.154   8.757 -0.4324  5.0669  0.6572
  598MOL0     H78936   6.965   8.314   8.602 -0.4697  2.0967 -0.1209
  599MOL0     O78937   7.081   3.100   2.207 -0.4957  0.5542 -0.5086
  599MOL0     C78938   7.129   2.987   2.216 -0.0474 -0.7460 -1.2498
  599MOL0     O78939   7.212   2.943   2.316  0.2710 -0.3220 -0.5616
  599MOL0     C78940   7.251   3.023   2.423 -0.5191  1.0492 -0.4274
  599MOL0     C78941   7.312   3.145   2.401  0.8552  0.3117  0.5704
  599MOL0     C78942   7.380   3.208   2.499  0.2277  0.5379  0.2865
  599MOL0     C78943   7.381   3.152   2.629  0.9726  0.2149 -0.2014
  599MOL0     O78944   7.459   3.234   2.716 -0.4902  0.1113 -0.2809
  599MOL0     C78945   7.386   3.295   2.833  0.1366 -0.7402  1.0287
  599MOL0     C78946   7.354   3.435   2.790 -0.5905 -0.1020 -0.4865
  599MOL0     C78947   7.273   3.535   2.888  0.0969  0.2505  0.8282
  599MOL0     C78948   7.124   3.509   2.872  0.1914  0.8423 -0.9343
  599MOL0     C78949   7.040   3.552   2.987 -0.2918  1.6291 -0.2427
  599MOL0     C78950   6.887   3.518   2.969 -0.5593 -0.2555  0.7185
  599MOL0     C78951   6.813   3.580   3.078 -0.1600 -0.4255 -0.4091
  599MOL0     C78952   6.663   3.538   3.075  0.2772 -0.9939 -0.0923
  599MOL0     N78953   6.611   3.591   3.204  0.4395 -0.3534 -0.2148
  599MOL0     C78954   6.652   3.532   3.322  0.0608 -0.1801  1.0916
  599MOL0     C78955   6.578   3.599   3.417 -0.3843 -0.5994  0.2267
  599MOL0     C78956   6.607   3.595   3.568 -0.1311 -0.4044 -0.7302
  599MOL0     C78957   6.512   3.479   3.620  0.7492 -0.7337  0.1297
  599MOL0     C78958   6.357   3.501   3.599 -1.1764 -0.3806  0.0326
  599MOL0     C78959   6.299   3.620   3.668  0.3767  0.4280 -0.5118
  599MOL0     O78960   6.148   3.613   3.664  0.3237 -0.3286  0.1020
  599MOL0     C78961   6.079   3.734   3.686 -0.4462 -0.1150  0.2817
  599MOL0     C78962   5.958   3.731   3.624  0.3081 -0.5440 -0.3453
  599MOL0     C78963   5.891   3.853   3.594 -0.0012 -0.2993  0.1767
  599MOL0     C78964   5.933   3.968   3.649  0.6492 -0.8641  0.3898
  599MOL0     C78965   5.862   4.109   3.636  0.1506  0.5649 -0.5840
  599MOL0     O78966   5.728   4.108   3.620 -0.0554 -0.5086 -0.3337
  599MOL0     C78967   5.648   4.210   3.578 -0.5680  0.1001  0.2002
  599MOL0     C78968   5.518   4.212   3.622 -0.9890  0.7392 -0.1053
  599MOL0     C78969   5.431   4.307   3.581  0.3856 -0.2353 -1.0927
  599MOL0     C78970   5.476   4.413   3.496 -0.9414  0.3271 -0.1735
  599MOL0     O78971   5.390   4.507   3.450 -0.3376  0.3135  0.1865
  599MOL0     C78972   5.426   4.610   3.355 -0.0088  0.7231  0.8123
  599MOL0     C78973   5.304   4.690   3.303  0.5807  0.8979 -0.5339
  599MOL0     C78974   5.350   4.782   3.195 -0.0578 -0.0978  0.4326
  599MOL0     C78975   5.230   4.853   3.119 -0.8429  0.4360 -0.2516
  599MOL0     C78976   5.293   4.942   3.006 -0.1134  0.3496 -0.2335
  599MOL0     C78977   5.339   4.855   2.893 -1.2884  0.7248  0.2979
  599MOL0     C78978   5.431   4.937   2.795 -0.7730 -0.8642  0.7896
  599MOL0     C78979   5.510   4.859   2.684 -0.5523 -0.5969 -0.0743
  599MOL0    Cl78980   5.567   4.977   2.560 -0.2862  0.0596 -0.0768
  599MOL0     C78981   5.615   4.420   3.460  0.2177 -0.0985 -0.2949
  599MOL0     C78982   5.699   4.316   3.502  0.3147 -1.2418  1.0748
  599MOL0     O78983   5.934   4.206   3.666 -0.3329 -0.4289  1.1575
  599MOL0     C78984   6.051   3.965   3.732 -0.0552  0.1873  1.0021
  599MOL0     C78985   6.131   3.850   3.739  0.3425 -0.0740 -0.1739
  599MOL0     N78986   6.493   3.690   3.350 -0.4652  0.1137 -0.2777
  599MOL0     N78987   6.521   3.695   3.224  1.1172  0.5396 -1.0510
  599MOL0     C78988   7.308   3.031   2.659 -0.4692 -0.3700 -0.4080
  599MOL0     C78989   7.248   2.973   2.554 -0.0971  0.5922 -0.0746
  599MOL0     C78990   7.086   2.875   2.123 -0.0349 -0.2155 -0.5976
  599MOL0     C78991   7.002   2.896   2.006  0.3350  0.3048 -0.1842
  599MOL0     C78992   6.968   2.789   1.926 -0.5724 -0.3078  0.4012
  599MOL0     C78993   7.018   2.655   1.952 -0.0218 -0.7068 -0.3027
  599MOL0     O78994   6.992   2.557   1.858  0.2857  0.3375  0.4068
  599MOL0     C78995   6.915   2.566   1.729  0.5062 -0.2945  0.0510
  599MOL0     C78996   6.997   2.530   1.608 -0.2242  0.2769  0.2134
  599MOL0     C78997   6.925   2.571   1.476 -0.2789 -0.7450 -0.1235
  599MOL0     C78998   6.912   2.717   1.451 -0.7302  0.9098  0.3033
  599MOL0     C78999   7.028   2.782   1.393 -0.1052  0.1355  0.5943
  599MOL0     C79000   7.136   2.830   1.370 -1.0211  0.2357 -1.1113
  599MOL0     C79001   7.096   2.633   2.064  1.2715 -0.1689  0.1132
  599MOL0     C79002   7.136   2.742   2.149 -0.6739 -0.2340 -0.3596
  599MOL0     H79003   7.305   3.191   2.303  3.5058  0.0911  0.2077
  599MOL0     H79004   7.434   3.301   2.482  3.9397 -1.2665  1.1282
  599MOL0     H79005   7.453   3.289   2.919  5.7246 -1.5250 -2.8268
  599MOL0     H79006   7.291   3.246   2.859  0.0634 -0.2375  1.7088
  599MOL0     H79007   7.306   3.432   2.692 -3.4535 -0.6254  0.8012
  599MOL0     H79008   7.452   3.482   2.783 -0.0413 -1.2216 -0.5809
  599MOL0     H79009   7.295   3.639   2.864  2.4853 -0.2851  0.4616
  599MOL0     H79010   7.292   3.505   2.991 -1.6164 -2.4006  0.4794
  599MOL0     H79011   7.086   3.572   2.791  0.8744  2.9261  0.2806
  599MOL0     H79012   7.110   3.404   2.842  0.5073  1.0650 -1.8838
  599MOL0     H79013   7.053   3.661   2.982  0.0489  1.6034  0.0834
  599MOL0     H79014   7.071   3.510   3.083  1.0792  1.6049 -0.6819
  599MOL0     H79015   6.882   3.409   2.977  2.1245 -0.6436 -1.2313
  599MOL0     H79016   6.848   3.560   2.876 -1.4922 -1.1692  0.6819
  599MOL0     H79017   6.853   3.540   3.172 -0.9715  0.1925  0.2175
  599MOL0     H79018   6.833   3.687   3.083  0.0131 -0.5089  2.6421
  599MOL0     H79019   6.646   3.430   3.074  1.3085 -1.1704  0.0283
  599MOL0     H79020   6.613   3.597   2.997 -1.0997  0.3487  1.7200
  599MOL0     H79021   6.728   3.456   3.342  2.3866  1.4683 -0.9536
  599MOL0     H79022   6.585   3.694   3.610  1.0970 -1.0390  1.5922
  599MOL0     H79023   6.714   3.582   3.586 -0.0896  3.0290  3.0060
  599MOL0     H79024   6.526   3.475   3.728  3.2482 -1.5893 -0.1661
  599MOL0     H79025   6.553   3.387   3.577  1.4109 -0.9227  1.1313
  599MOL0     H79026   6.339   3.511   3.492  1.7923 -0.4888 -0.5546
  599MOL0     H79027   6.306   3.409   3.630 -1.2441 -0.7560 -1.1648
  599MOL0     H79028   6.314   3.707   3.603 -1.5392  0.6235 -0.7605
  599MOL0     H79029   6.340   3.627   3.769 -0.0007  2.3697 -0.4454
  599MOL0     H79030   5.922   3.631   3.600  1.3888 -1.1469  0.4257
  599MOL0     H79031   5.804   3.860   3.530 -0.3033 -1.2249  0.4654
  599MOL0     H79032   5.480   4.132   3.685  0.4902  1.2267  1.5012
  599MOL0     H79033   5.325   4.299   3.600  0.0424  0.7182 -2.4613
  599MOL0     H79034   5.466   4.565   3.264  0.5143  2.1680  0.2919
  599MOL0     H79035   5.504   4.670   3.403  0.3140 -0.3035  1.6157
  599MOL0     H79036   5.266   4.741   3.392  1.8999 -0.5846  0.9569
  599MOL0     H79037   5.227   4.623   3.266  1.0278  0.3594 -0.5044
  599MOL0     H79038   5.414   4.734   3.121 -1.2887  4.5877 -4.3165
  599MOL0     H79039   5.411   4.855   3.248 -1.0952 -0.5241  2.2845
  599MOL0     H79040   5.169   4.777   3.070  1.8328 -0.9189 -1.6325
  599MOL0     H79041   5.177   4.918   3.189  2.5369  2.3553  0.7465
  599MOL0     H79042   5.381   4.996   3.042  2.9200 -3.6223 -0.8569
  599MOL0     H79043   5.210   5.005   2.973  0.5564  1.8105  0.7717
  599MOL0     H79044   5.252   4.814   2.841 -1.1933 -0.1480  0.8099
  599MOL0     H79045   5.404   4.774   2.927  0.0917  2.4636  2.0169
  599MOL0     H79046   5.376   5.016   2.745 -1.0540  0.9775  3.7201
  599MOL0     H79047   5.507   4.987   2.857 -3.1131 -0.5794  3.6902
  599MOL0     H79048   5.443   4.782   2.644 -0.2753 -1.2783  0.7375
  599MOL0     H79049   5.591   4.813   2.741  0.1885  0.1909 -0.4629
  599MOL0     H79050   5.658   4.504   3.406  1.5294 -0.2020  0.5606
  599MOL0     H79051   5.804   4.318   3.475 -0.1124  3.5928 -1.1841
  599MOL0     H79052   6.091   4.060   3.767 -1.2467  1.6898 -1.4322
  599MOL0     H79053   6.229   3.851   3.786  0.1460 -0.5419  0.2501
  599MOL0     H79054   7.314   2.984   2.757 -1.9995 -1.1350 -0.6597
  599MOL0     H79055   7.205   2.876   2.577  2.9132 -0.6243  1.0017
  599MOL0     H79056   6.970   2.991   1.962  1.6331 -0.8512 -4.0804
  599MOL0     H79057   6.906   2.815   1.840  1.7002 -2.0964 -1.9216
  599MOL0     H79058   6.860   2.660   1.728 -1.0560 -1.0344  3.2628
  599MOL0     H79059   6.831   2.499   1.749  0.0684  0.7155  1.8593
  599MOL0     H79060   7.093   2.582   1.601 -0.0767  0.0135  0.2647
  599MOL0     H79061   7.006   2.421   1.613 -2.7675  0.0074  0.3635
  599MOL0     H79062   6.822   2.538   1.494 -0.9448  0.8909 -0.7460
  599MOL0     H79063   6.981   2.520   1.398  1.5907  0.9496  0.0200
  599MOL0     H79064   6.824   2.740   1.391 -1.1887 -1.4902 -0.0551
  599MOL0     H79065   6.888   2.766   1.546 -1.3300  0.1095  0.5794
  599MOL0     H79066   7.234   2.868   1.350 -1.0395  0.7573 -0.2555
  599MOL0     H79067   7.133   2.533   2.082 -2.5562 -2.3231 -2.4960
  599MOL0     H79068   7.202   2.723   2.234 -2.3713  0.5993  1.2226
  600MOL0     O79069   8.435   8.966   8.923  0.0994  0.4290 -0.5080
  600MOL0     C79070   8.402   9.079   8.951  0.9985 -0.0443  0.0070
  600MOL0     O79071   8.489   9.176   8.992  0.5018 -0.8164 -0.1286
  600MOL0     C79072   8.627   9.147   8.999 -0.3487 -1.1386  0.6087
  600MOL0     C79073   8.718   9.228   8.920 -0.4642  0.0650 -0.4498
  600MOL0     C79074   8.854   9.208   8.921 -0.1284  0.8609 -0.3741
  600MOL0     C79075   8.905   9.097   9.000 -0.1815 -0.1769 -0.0189
  600MOL0     O79076   9.045   9.075   8.987  0.6450 -0.4579  0.7973
  600MOL0     C79077   9.134   9.173   9.051  0.1254 -0.0729  0.5210
  600MOL0     C79078   9.146   9.141   9.201  0.8630  0.4416 -0.3529
  600MOL0     C79079   9.276   9.197   9.261 -0.5657 -0.0449  0.0837
  600MOL0     C79080   9.295   9.155   9.409  0.6076  0.1823  0.2735
  600MOL0     C79081   9.427   9.211   9.476 -0.8712  0.6373  0.7063
  600MOL0     C79082   9.478   9.117   9.583  0.2193  0.0751 -0.1873
  600MOL0     C79083   9.617   9.154   9.632 -0.7189  0.9756 -0.3700
  600MOL0     C79084   9.652   9.040   9.734  0.4385  0.3889  0.2352
  600MOL0     N79085   9.746   8.946   9.673  0.3920 -0.0221  0.8361
  600MOL0     C79086   9.711   8.832   9.615  0.6592 -0.9736 -0.0865
  600MOL0     C79087   9.826   8.790   9.559 -0.1887 -0.7901  0.4329
  600MOL0     C79088   9.845   8.658   9.495  0.6055 -0.2713 -1.2029
  600MOL0     C79089   9.881   8.560   9.610  0.4677 -1.0829 -0.5225
  600MOL0     C79090   9.938   8.436   9.544  0.0450  0.0119  0.8425
  600MOL0     C79091   9.942   8.323   9.655  0.1895 -0.2669  0.5252
  600MOL0     O79092  10.017   8.208   9.604 -0.3852 -0.4993  0.0943
  600MOL0     C79093  10.003   8.084   9.668 -0.3600  0.1324 -0.9133
  600MOL0     C79094  10.057   7.973   9.598  0.1746  0.1073  0.7929
  600MOL0     C79095  10.035   7.841   9.640 -0.3747 -0.0805  0.4854
  600MOL0     C79096   9.960   7.815   9.762 -0.1239 -0.4539  0.3326
  600MOL0     C79097   9.937   7.678   9.810 -0.0061 -0.0241 -0.8501
  600MOL0     O79098   9.943   7.657   9.954 -0.1503 -0.6277  0.1865
  600MOL0     C79099   9.896   7.537  10.002 -0.7433 -0.0943  0.6715
  600MOL0     C79100   9.962   7.498  10.122  0.7308 -0.4628  0.6509
  600MOL0     C79101   9.928   7.381  10.187 -0.5345 -0.5480  0.2144
  600MOL0     C79102   9.813   7.309  10.143  1.3556 -0.2897  0.9429
  600MOL0     O79103   9.751   7.210  10.221  0.0091 -0.0525  0.4147
  600MOL0     C79104   9.833   7.141  10.317  0.1809  0.4300 -0.1477
  600MOL0     C79105   9.786   6.990  10.328 -0.6081 -0.5325  0.1198
  600MOL0     C79106   9.647   6.978  10.406 -0.4668 -0.0661  0.3812
  600MOL0     C79107   9.584   6.848  10.402  0.0569  0.4372  1.0893
  600MOL0     C79108   9.552   6.791  10.538 -0.0190  0.9933  0.3206
  600MOL0     C79109   9.469   6.657  10.534 -0.8115 -0.1674  0.4884
  600MOL0     C79110   9.552   6.544  10.467  0.4577  0.3350  0.4959
  600MOL0     C79111   9.638   6.472  10.569 -1.1913 -0.7753 -0.5697
  600MOL0    Cl79112   9.747   6.343  10.494 -0.2122  0.3682  0.3561
  600MOL0     C79113   9.752   7.344  10.021 -0.2966  0.1722 -0.0156
  600MOL0     C79114   9.787   7.460   9.953 -0.1173 -0.6371  0.2042
  600MOL0     O79115   9.948   7.587   9.728 -0.7028 -0.9806 -0.8487
  600MOL0     C79116   9.904   7.927   9.833 -1.2469  0.1879 -0.5446
  600MOL0     C79117   9.931   8.053   9.784 -0.1169  0.3366 -0.2263
  600MOL0     N79118   9.928   8.881   9.577 -0.1321 -1.0718 -0.4019
  600MOL0     N79119   9.877   8.969   9.657 -0.7119  0.7262  0.3229
  600MOL0     C79120   8.818   9.013   9.079  0.6815 -0.0259 -0.3383
  600MOL0     C79121   8.676   9.037   9.073 -0.0537  0.8563  0.4473
  600MOL0     C79122   8.258   9.108   8.941 -0.3742 -1.0550 -0.8496
  600MOL0     C79123   8.165   9.022   8.883 -0.7779 -0.0121  0.5292
  600MOL0     C79124   8.028   9.052   8.877  0.1479  0.5004 -1.3236
  600MOL0     C79125   7.980   9.169   8.943  0.2498 -0.2343 -0.6848
  600MOL0     O79126   7.851   9.205   8.959  0.0265 -0.3216 -0.4118
  600MOL0     C79127   7.752   9.149   8.880 -0.4142 -0.3886 -0.5184
  600MOL0     C79128   7.677   9.035   8.956 -0.6613  0.7183 -0.4490
  600MOL0     C79129   7.616   9.107   9.082  0.0072 -1.3291 -0.1079
  600MOL0     C79130   7.498   9.205   9.055 -0.1285 -0.1361 -0.4645
  600MOL0     C79131   7.413   9.151   8.953 -0.3483  0.8661 -0.7296
  600MOL0     C79132   7.345   9.109   8.864  0.4817  0.2982  0.1939
  600MOL0     C79133   8.077   9.259   8.984 -0.1124  0.2918  0.3640
  600MOL0     C79134   8.207   9.235   8.987 -0.6041  0.6322  0.8340
  600MOL0     H79135   8.673   9.309   8.865  1.0709  0.2218 -1.5390
  600MOL0     H79136   8.917   9.267   8.857  0.9391  1.6118  1.3027
  600MOL0     H79137   9.089   9.272   9.040  0.6073  0.0670 -0.2289
  600MOL0     H79138   9.232   9.177   9.002  0.2750  0.4572  0.8542
  600MOL0     H79139   9.148   9.035   9.228  0.7870  0.2793 -0.9755
  600MOL0     H79140   9.066   9.188   9.259  2.5810  1.3295  1.4291
  600MOL0     H79141   9.277   9.305   9.248  4.0611 -0.0738 -1.8347
  600MOL0     H79142   9.356   9.175   9.190 -1.0828  1.9483 -1.2059
  600MOL0     H79143   9.205   9.181   9.466 -0.9916 -4.2678  0.1836
  600MOL0     H79144   9.295   9.046   9.420 -0.7414 -0.0128 -1.2561
  600MOL0     H79145   9.414   9.315   9.506  5.4004  2.6368 -1.8702
  600MOL0     H79146   9.499   9.210   9.393 -1.0318 -2.2340  0.4737
  600MOL0     H79147   9.480   9.018   9.536  1.0868  1.3528 -3.1273
  600MOL0     H79148   9.416   9.118   9.673 -0.2743  0.7323 -0.5290
  600MOL0     H79149   9.679   9.153   9.542 -0.9816  1.1926 -0.5592
  600MOL0     H79150   9.613   9.256   9.672  2.1844  0.9871  0.1030
  600MOL0     H79151   9.565   8.994   9.782  3.2879 -2.6261  3.0309
  600MOL0     H79152   9.702   9.087   9.820 -1.3124  0.6941  1.1296
  600MOL0     H79153   9.607   8.803   9.618 -0.5883  2.7287 -2.0203
  600MOL0     H79154   9.928   8.666   9.424  1.3462 -3.1472 -0.7940
  600MOL0     H79155   9.755   8.630   9.439 -1.2832 -1.6758  2.2568
  600MOL0     H79156   9.790   8.544   9.668  0.0548  0.1868 -0.7748
  600MOL0     H79157   9.959   8.595   9.678  0.5845  0.1829 -1.2732
  600MOL0     H79158   9.898   8.398   9.449  2.1553 -1.3065  0.4161
  600MOL0     H79159  10.037   8.468   9.510 -1.4301  1.5752 -2.4414
  600MOL0     H79160   9.840   8.300   9.687 -0.5168 -0.6838 -1.8055
  600MOL0     H79161  10.009   8.364   9.730  3.7651 -0.2755 -2.3813
  600MOL0     H79162  10.106   7.988   9.503  0.9991 -2.1959  0.7936
  600MOL0     H79163  10.082   7.758   9.589 -0.9277 -0.7854  1.0907
  600MOL0     H79164  10.030   7.560  10.180  0.7246 -0.2226  0.4039
  600MOL0     H79165   9.972   7.356  10.283  0.5119  1.8207  0.4080
  600MOL0     H79166   9.840   7.182  10.418  0.6273  1.5746 -0.6220
  600MOL0     H79167   9.934   7.150  10.276 -0.1537  1.3348 -0.8150
  600MOL0     H79168   9.862   6.926  10.374  2.1835  1.5010 -1.3411
  600MOL0     H79169   9.778   6.955  10.225  1.0190  3.5944 -1.6509
  600MOL0     H79170   9.581   7.057  10.371 -0.8804 -0.6536 -0.1866
  600MOL0     H79171   9.672   7.002  10.510  2.3081  0.9976 -0.4522
  600MOL0     H79172   9.494   6.863  10.342  1.0716  0.6123 -0.4649
  600MOL0     H79173   9.657   6.786  10.349 -0.2551  2.0214 -1.3783
  600MOL0     H79174   9.488   6.855  10.600 -1.7068 -1.2031  1.0283
  600MOL0     H79175   9.648   6.783  10.590 -0.6427  2.5996  1.8011
  600MOL0     H79176   9.379   6.670  10.473  0.0361 -2.8298 -1.5295
  600MOL0     H79177   9.450   6.616  10.633 -2.7952 -0.3251  0.0829
  600MOL0     H79178   9.482   6.475  10.418  0.6066  0.3428  0.2703
  600MOL0     H79179   9.615   6.588  10.389 -1.8143  1.0960 -1.0108
  600MOL0     H79180   9.573   6.416  10.638  1.1422 -5.3450 -1.6964
  600MOL0     H79181   9.703   6.549  10.613  1.3860 -3.0490 -0.1500
  600MOL0     H79182   9.663   7.291   9.990 -0.4473  0.1545  0.4370
  600MOL0     H79183   9.734   7.488   9.862  1.0928 -1.0582 -0.6528
  600MOL0     H79184   9.848   7.922   9.927  0.5002 -1.8404  0.4809
  600MOL0     H79185   9.882   8.135   9.836  1.6331  2.5530 -1.8445
  600MOL0     H79186   8.854   8.929   9.137 -2.2574  0.0089  1.7712
  600MOL0     H79187   8.612   8.972   9.132  2.4170 -3.8098 -1.4304
  600MOL0     H79188   8.197   8.936   8.824 -0.4598 -0.3673  1.2054
  600MOL0     H79189   7.954   8.981   8.843 -0.7885  0.0389  1.4421
  600MOL0     H79190   7.794   9.111   8.786  1.9490 -0.6280  0.5720
  600MOL0     H79191   7.675   9.224   8.862 -0.8266 -0.0270  2.3149
  600MOL0     H79192   7.599   8.990   8.894 -1.6870  2.5252 -0.5503
  600MOL0     H79193   7.742   8.951   8.983 -1.1689  0.9247  1.6017
  600MOL0     H79194   7.702   9.147   9.137  1.2000 -1.5038 -1.7703
  600MOL0     H79195   7.568   9.031   9.144 -0.0872 -0.7396  0.5637
  600MOL0     H79196   7.441   9.223   9.146  1.1649 -1.2830  0.6212
  600MOL0     H79197   7.535   9.300   9.015 -1.5766  0.5739 -0.1695
  600MOL0     H79198   7.306   9.073   8.770  1.7040  2.8324 -1.4035
  600MOL0     H79199   8.045   9.350   9.033 -0.0064 -0.1767  1.3093
  600MOL0     H79200   8.262   9.319   9.029  0.5778  0.5708 -0.5215
  601MOL0     O79201   0.468   1.080   5.830 -0.2908  0.4808  0.2493
  601MOL0     C79202   0.490   0.988   5.755 -0.0963 -0.5243 -0.5753
  601MOL0     O79203   0.568   0.886   5.791  0.2912 -0.0533  0.4390
  601MOL0     C79204   0.590   0.865   5.922  0.0048  0.3555 -1.1352
  601MOL0     C79205   0.485   0.885   6.026  0.9964 -0.4536  0.1947
  601MOL0     C79206   0.514   0.865   6.154  0.6798 -0.3960 -0.5656
  601MOL0     C79207   0.640   0.818   6.189 -0.3464 -0.0078 -0.4980
  601MOL0     O79208   0.673   0.794   6.315 -0.1225 -1.1185  0.0028
  601MOL0     C79209   0.662   0.663   6.354  0.1290 -0.7012 -0.1455
  601MOL0     C79210   0.769   0.618   6.454 -0.4792  0.0361 -0.0470
  601MOL0     C79211   0.917   0.621   6.413  1.2709  0.1450  0.0180
  601MOL0     C79212   1.002   0.517   6.490 -0.3314  0.3482 -0.0874
  601MOL0     C79213   1.151   0.526   6.425 -0.3189 -0.9859 -0.0642
  601MOL0     C79214   1.251   0.485   6.530  0.4367 -0.3335 -0.8172
  601MOL0     C79215   1.260   0.328   6.541 -0.2621 -0.0499  0.6844
  601MOL0     C79216   1.136   0.243   6.567  0.4465 -0.0024 -0.4095
  601MOL0     N79217   1.168   0.105   6.591  0.3787  0.3680  0.4110
  601MOL0     C79218   1.282   0.061   6.664  0.6346  0.2099 -0.4793
  601MOL0     C79219   1.282  -0.068   6.661  0.3517  1.0468  0.4291
  601MOL0     C79220   1.385  -0.156   6.723  1.4003 -0.1985  0.1036
  601MOL0     C79221   1.327  -0.277   6.796 -0.4860 -0.3789  0.2438
  601MOL0     C79222   1.445  -0.361   6.837 -0.1728  0.2719 -0.5223
  601MOL0     C79223   1.497  -0.315   6.978  0.7755  0.4083  0.5867
  601MOL0     O79224   1.580  -0.204   6.993 -0.6645 -0.4285 -0.7194
  601MOL0     C79225   1.659  -0.175   6.891  0.2529 -0.4553  0.5281
  601MOL0     C79226   1.751  -0.247   6.816 -0.0577 -0.3571 -0.3719
  601MOL0     C79227   1.851  -0.195   6.734  1.1894 -0.5724 -0.1714
  601MOL0     C79228   1.862  -0.061   6.720  0.2695 -0.1750  0.3106
  601MOL0     C79229   1.969   0.002   6.645 -0.6117  0.0200  0.1297
  601MOL0     O79230   2.004   0.123   6.672 -0.3225  0.2465  0.2730
  601MOL0     C79231   2.093   0.211   6.612 -0.7517  1.4131  0.2970
  601MOL0     C79232   2.222   0.170   6.573 -0.3055 -0.1545  0.4079
  601MOL0     C79233   2.320   0.252   6.516 -0.1090 -0.0109 -0.8189
  601MOL0     C79234   2.289   0.388   6.502  0.0821 -0.5380  0.0591
  601MOL0     O79235   2.389   0.467   6.448 -1.2527 -0.0830  0.5114
  601MOL0     C79236   2.388   0.609   6.455 -1.1006  0.1775  0.5501
  601MOL0     C79237   2.528   0.642   6.443 -0.6219 -0.0439 -0.0009
  601MOL0     C79238   2.552   0.790   6.436  0.1141  0.5989  0.2978
  601MOL0     C79239   2.690   0.839   6.410 -1.1609 -0.6245 -0.5674
  601MOL0     C79240   2.688   0.985   6.369 -0.1518  0.8819 -0.1408
  601MOL0     C79241   2.827   1.044   6.366 -0.4183 -0.4053  0.3950
  601MOL0     C79242   2.918   0.975   6.261 -0.0720 -0.0140  0.5885
  601MOL0     C79243   3.052   1.052   6.226 -0.1990  0.1366  0.4707
  601MOL0    Cl79244   3.120   0.971   6.086  0.6374  0.6637 -0.5097
  601MOL0     C79245   2.156   0.437   6.531 -0.3200 -0.3625 -0.1693
  601MOL0     C79246   2.066   0.346   6.592 -0.1618 -0.4256  1.3953
  601MOL0     O79247   2.016  -0.066   6.554  0.3773  0.5855 -0.3355
  601MOL0     C79248   1.757   0.020   6.781  0.2775  0.1592 -0.3043
  601MOL0     C79249   1.663  -0.041   6.874 -1.0540  1.1522  0.6030
  601MOL0     N79250   1.173  -0.111   6.588 -0.1803  0.9026 -0.6370
  601MOL0     N79251   1.109  -0.006   6.540  0.2462  0.4435 -1.1178
  601MOL0     C79252   0.736   0.798   6.093  1.4416  0.1408  0.4893
  601MOL0     C79253   0.707   0.811   5.959 -0.7529  0.0668  0.2656
  601MOL0     C79254   0.457   0.999   5.608 -0.2044 -0.5322 -1.2969
  601MOL0     C79255   0.513   0.909   5.514 -0.2015 -0.1484 -0.9646
  601MOL0     C79256   0.488   0.937   5.382  0.3321  0.4185  1.4763
  601MOL0     C79257   0.381   1.027   5.343 -0.3882  0.8323 -0.1004
  601MOL0     O79258   0.345   1.050   5.213  0.6443  0.0856 -1.2869
  601MOL0     C79259   0.422   0.999   5.108 -0.0641  0.5243  0.4401
  601MOL0     C79260   0.373   1.045   4.970  1.1850  0.5728  0.1993
  601MOL0     C79261   0.315   1.191   4.979  0.6148 -0.6167 -0.4171
  601MOL0     C79262   0.289   1.262   4.844 -0.3142  1.1790  0.5383
  601MOL0     C79263   0.146   1.244   4.810 -0.7256  0.2784 -0.7880
  601MOL0     C79264   0.030   1.210   4.816 -0.4837 -0.0206  0.2195
  601MOL0     C79265   0.321   1.109   5.439  0.6312  0.2300  0.5118
  601MOL0     C79266   0.363   1.097   5.568  0.0348  0.1219 -0.1052
  601MOL0     H79267   0.383   0.918   6.010  1.6553  0.5628 -2.3744
  601MOL0     H79268   0.447   0.890   6.235 -0.5889  0.1717 -1.7387
  601MOL0     H79269   0.659   0.598   6.265  0.6838  2.0514 -2.3032
  601MOL0     H79270   0.559   0.655   6.391 -0.3226 -0.7166 -1.3503
  601MOL0     H79271   0.748   0.512   6.469  0.2213 -0.8063 -3.9533
  601MOL0     H79272   0.756   0.669   6.550  1.2976  0.9873 -0.2867
  601MOL0     H79273   0.957   0.721   6.433  2.1815 -0.4389  1.2909
  601MOL0     H79274   0.928   0.601   6.306  0.1586 -1.5686  0.1903
  601MOL0     H79275   1.008   0.563   6.589 -0.1269  1.5541 -0.6438
  601MOL0     H79276   0.956   0.419   6.499 -4.8755  2.3182  0.5320
  601MOL0     H79277   1.179   0.628   6.401  3.0165 -1.3068  1.8824
  601MOL0     H79278   1.162   0.472   6.331  0.1141 -0.8295 -0.1021
  601MOL0     H79279   1.226   0.534   6.625  0.1510 -2.1387  0.0729
  601MOL0     H79280   1.351   0.512   6.496  0.7826 -2.6616 -1.8337
  601MOL0     H79281   1.301   0.293   6.446  0.0010  2.7905 -0.3396
  601MOL0     H79282   1.328   0.305   6.623  0.1877  0.1630  0.3746
  601MOL0     H79283   1.071   0.245   6.479  0.7354 -1.7196 -0.6940
  601MOL0     H79284   1.083   0.289   6.651  0.6297  1.9960 -1.3515
  601MOL0     H79285   1.361   0.118   6.711  0.1038  0.1962  0.4451
  601MOL0     H79286   1.430  -0.098   6.804 -1.4658  2.3449  0.0373
  601MOL0     H79287   1.469  -0.187   6.659  1.4588 -2.2045  1.0651
  601MOL0     H79288   1.284  -0.339   6.716  0.9600 -0.2618 -0.6646
  601MOL0     H79289   1.252  -0.262   6.873 -0.2165  2.9291 -0.0167
  601MOL0     H79290   1.415  -0.465   6.851  3.1321 -1.1293 -2.6684
  601MOL0     H79291   1.527  -0.361   6.766 -0.0189  0.8738 -0.3539
  601MOL0     H79292   1.553  -0.406   7.003  1.1168  0.8044  1.2880
  601MOL0     H79293   1.412  -0.318   7.046 -0.8741  1.0286 -1.3487
  601MOL0     H79294   1.731  -0.350   6.844 -4.6585  0.1004 -1.1110
  601MOL0     H79295   1.924  -0.259   6.685  1.3885  1.0123 -2.0858
  601MOL0     H79296   2.248   0.064   6.574 -0.5255 -0.2200 -0.1817
  601MOL0     H79297   2.414   0.206   6.488 -0.4805 -2.0066  0.9456
  601MOL0     H79298   2.364   0.641   6.557 -0.3627  2.4167  0.0895
  601MOL0     H79299   2.329   0.659   6.378  0.7114  0.1836 -0.9318
  601MOL0     H79300   2.558   0.585   6.355 -4.1811 -0.1610 -1.3222
  601MOL0     H79301   2.590   0.605   6.525  1.0104  2.8257  0.1841
  601MOL0     H79302   2.514   0.839   6.526  1.2715 -0.9260  1.6676
  601MOL0     H79303   2.491   0.828   6.353  1.2975  0.7138 -0.5272
  601MOL0     H79304   2.753   0.823   6.498 -3.2544  0.2335  1.1652
  601MOL0     H79305   2.736   0.787   6.326  3.3247  1.4401  0.2925
  601MOL0     H79306   2.643   1.040   6.452 -1.3665 -1.5018  0.8664
  601MOL0     H79307   2.644   0.987   6.269  0.7895 -0.1716 -0.6008
  601MOL0     H79308   2.867   1.022   6.466 -1.5511 -0.8734  0.7606
  601MOL0     H79309   2.823   1.150   6.339  0.6825 -0.3073  0.5545
  601MOL0     H79310   2.945   0.875   6.297  2.5830  0.0292 -1.0362
  601MOL0     H79311   2.865   0.968   6.166 -0.2471  0.3891  0.6547
  601MOL0     H79312   3.136   1.045   6.296  0.9316  2.6920 -0.5208
  601MOL0     H79313   3.034   1.159   6.214  0.6246  0.2775  0.4974
  601MOL0     H79314   2.125   0.537   6.502  0.5535  0.5645  1.8585
  601MOL0     H79315   1.970   0.388   6.621  0.0018 -0.6472  2.2720
  601MOL0     H79316   1.767   0.126   6.761  3.3378 -0.5474 -3.5467
  601MOL0     H79317   1.603   0.027   6.933 -2.4549 -0.4123  1.0639
  601MOL0     H79318   0.835   0.771   6.129  1.6250  1.5665  1.1294
  601MOL0     H79319   0.773   0.776   5.880  1.4950 -1.5141  2.6917
  601MOL0     H79320   0.593   0.843   5.545  1.2713  1.7516 -0.5003
  601MOL0     H79321   0.531   0.878   5.302 -2.9210 -0.0489 -0.0896
  601MOL0     H79322   0.415   0.890   5.105 -0.2051  0.5361  0.3716
  601MOL0     H79323   0.522   1.040   5.126 -0.0832  0.1312  1.5715
  601MOL0     H79324   0.466   1.045   4.911  1.6705 -1.9289  0.8722
  601MOL0     H79325   0.303   0.972   4.929  1.3428  0.5633 -0.0557
  601MOL0     H79326   0.373   1.248   5.052  1.8691 -1.8828 -0.3658
  601MOL0     H79327   0.226   1.170   5.038 -0.6752 -0.0589 -2.0879
  601MOL0     H79328   0.316   1.368   4.846  0.6131  1.1244 -3.1079
  601MOL0     H79329   0.358   1.219   4.771 -2.6144  0.4076 -1.3073
  601MOL0     H79330  -0.070   1.175   4.833 -1.1232  1.3520 -0.5892
  601MOL0     H79331   0.239   1.171   5.407 -1.6083 -1.4608  2.6003
  601MOL0     H79332   0.328   1.165   5.645  2.5940 -1.5186  2.7306
  602MOL0     O79333   0.067   9.973   7.924 -0.5222 -0.2195 -0.2353
  602MOL0     C79334   0.158   9.897   7.952 -0.4487  0.5461 -0.2597
  602MOL0     O79335   0.183   9.773   7.896 -0.2957 -0.5835 -0.5091
  602MOL0     C79336   0.081   9.722   7.819 -0.5970  0.4094 -0.3772
  602MOL0     C79337  -0.041   9.675   7.856  0.6575 -1.0357 -0.1215
  602MOL0     C79338  -0.130   9.618   7.767  0.0673 -0.7280  0.7601
  602MOL0     C79339  -0.094   9.602   7.631 -0.0346 -0.3009 -0.1317
  602MOL0     O79340  -0.181   9.545   7.539 -0.2863  0.2736  0.5825
  602MOL0     C79341  -0.159   9.525   7.403  0.0900  0.3793 -0.5458
  602MOL0     C79342  -0.272   9.428   7.356 -0.2560 -0.3467  0.7141
  602MOL0     C79343  -0.413   9.488   7.361  0.0231 -0.7092 -0.5623
  602MOL0     C79344  -0.527   9.391   7.378  0.5925  0.8412 -0.4923
  602MOL0     C79345  -0.645   9.477   7.400  0.2633 -0.8472  0.5507
  602MOL0     C79346  -0.780   9.417   7.366  1.3871 -0.4421  0.4140
  602MOL0     C79347  -0.805   9.277   7.433 -0.4874 -0.1414 -0.2417
  602MOL0     C79348  -0.939   9.211   7.390  0.5569 -0.3971  0.0543
  602MOL0     N79349  -1.061   9.293   7.395 -0.1510  1.0878  0.2763
  602MOL0     C79350  -1.081   9.396   7.476 -0.9594  0.6640 -0.3770
  602MOL0     C79351  -1.214   9.427   7.466  0.9323  1.1530  0.3527
  602MOL0     C79352  -1.294   9.543   7.511 -0.7438  0.3621 -1.0815
  602MOL0     C79353  -1.372   9.516   7.652  0.2618  0.3522 -1.1932
  602MOL0     C79354  -1.482   9.406   7.646  1.0187  0.1277 -0.6279
  602MOL0     C79355  -1.585   9.442   7.534 -0.8165 -0.4852 -0.2064
  602MOL0     O79356  -1.707   9.369   7.547 -0.0086  0.0923  0.6567
  602MOL0     C79357  -1.707   9.232   7.569 -1.3804 -0.6721  0.4168
  602MOL0     C79358  -1.604   9.146   7.524 -0.5258  0.8737  0.4494
  602MOL0     C79359  -1.612   9.013   7.563  0.8031  0.2623 -0.1191
  602MOL0     C79360  -1.724   8.968   7.630 -0.5626 -0.1216 -0.9308
  602MOL0     C79361  -1.719   8.824   7.676  0.5593 -0.3452  0.0153
  602MOL0     O79362  -1.832   8.790   7.748  0.0976 -0.4232  0.0976
  602MOL0     C79363  -1.854   8.654   7.761  0.8573  0.8770 -0.1665
  602MOL0     C79364  -1.929   8.606   7.867 -0.7297  0.2252 -0.7041
  602MOL0     C79365  -1.955   8.471   7.880  0.1044 -0.5536  0.8313
  602MOL0     C79366  -1.906   8.378   7.787 -0.2066 -0.6752 -0.8667
  602MOL0     O79367  -1.908   8.244   7.801  0.5085  0.3375 -0.9756
  602MOL0     C79368  -1.940   8.170   7.683  0.9495  0.3547 -0.8526
  602MOL0     C79369  -2.037   8.054   7.735  0.9263  0.2090  0.1926
  602MOL0     C79370  -2.141   8.028   7.630  0.0429  0.0728  0.1541
  602MOL0     C79371  -2.224   7.900   7.659 -0.6616 -0.1321  0.1947
  602MOL0     C79372  -2.350   7.875   7.574 -0.1033 -0.5908 -0.6153
  602MOL0     C79373  -2.438   7.995   7.589  0.7850  0.0688  0.2763
  602MOL0     C79374  -2.584   7.960   7.523 -0.0873 -0.2327  0.6563
  602MOL0     C79375  -2.686   8.074   7.538 -0.0856 -0.2659  1.3516
  602MOL0    Cl79376  -2.705   8.114   7.707  0.8257  0.2601 -0.4745
  602MOL0     C79377  -1.859   8.436   7.665 -0.1999 -0.3961  0.9792
  602MOL0     C79378  -1.837   8.567   7.652  0.2470  0.3153  0.4305
  602MOL0     O79379  -1.632   8.754   7.632 -0.0986 -0.1716  0.2401
  602MOL0     C79380  -1.833   9.056   7.666  0.8278 -0.1107  0.4916
  602MOL0     C79381  -1.823   9.187   7.635 -0.0454  0.9170  1.2559
  602MOL0     N79382  -1.273   9.325   7.384  0.6660  0.4207  0.0244
  602MOL0     N79383  -1.178   9.240   7.350  0.8561 -0.0881 -0.1399
  602MOL0     C79384   0.037   9.639   7.592  0.2718 -0.5471 -0.6104
  602MOL0     C79385   0.120   9.700   7.697  0.3988  0.2897  0.3743
  602MOL0     C79386   0.271   9.937   8.035 -0.4331  0.2701  0.6790
  602MOL0     C79387   0.386   9.856   8.050  0.2465 -1.2211  0.1100
  602MOL0     C79388   0.489   9.886   8.147  0.3606 -0.1436 -0.2031
  602MOL0     C79389   0.481   9.996   8.236 -0.5968 -0.1117  0.1513
  602MOL0     O79390   0.580  10.024   8.321 -0.1340  0.2365 -0.3596
  602MOL0     C79391   0.571   9.969   8.457  1.0399 -0.7307  0.6187
  602MOL0     C79392   0.664   9.851   8.488 -0.9242 -1.2587 -0.4969
  602MOL0     C79393   0.595   9.715   8.462 -0.5932  1.1008 -0.0591
  602MOL0     C79394   0.676   9.584   8.504  0.7129  0.3806 -0.0738
  602MOL0     C79395   0.749   9.516   8.399  0.9049  0.4709  0.7461
  602MOL0     C79396   0.801   9.469   8.304 -0.2237  0.4577 -0.6281
  602MOL0     C79397   0.359  10.065   8.223  0.1375 -0.8568 -0.5242
  602MOL0     C79398   0.260  10.044   8.128 -0.3033 -0.5172  0.3889
  602MOL0     H79399  -0.082   9.698   7.954 -1.0681  2.4781 -1.5299
  602MOL0     H79400  -0.228   9.577   7.787 -0.1408 -0.8459 -0.4093
  602MOL0     H79401  -0.058   9.484   7.395 -0.5965 -1.4745 -0.1411
  602MOL0     H79402  -0.164   9.620   7.349 -1.5762  0.1672 -0.8425
  602MOL0     H79403  -0.287   9.341   7.422 -2.4761 -1.6312 -1.3028
  602MOL0     H79404  -0.258   9.386   7.256  0.2896  0.3105  0.5107
  602MOL0     H79405  -0.421   9.530   7.260  2.9818 -1.0066 -1.0166
  602MOL0     H79406  -0.425   9.565   7.438 -0.0575  0.1649 -1.4229
  602MOL0     H79407  -0.538   9.321   7.295 -0.7727 -2.3728  2.1598
  602MOL0     H79408  -0.514   9.342   7.475 -4.1633 -0.1169 -0.0845
  602MOL0     H79409  -0.645   9.567   7.337 -0.8803 -0.4024  1.1664
  602MOL0     H79410  -0.644   9.503   7.506  0.4555 -0.8138  0.5405
  602MOL0     H79411  -0.790   9.415   7.257  1.6258 -1.5689  0.4015
  602MOL0     H79412  -0.852   9.488   7.408 -0.0103 -2.7944  2.2131
  602MOL0     H79413  -0.735   9.200   7.400 -0.9341 -1.5468  1.9259
  602MOL0     H79414  -0.791   9.290   7.541 -0.8799 -3.0943  0.2358
  602MOL0     H79415  -0.960   9.122   7.449  1.7656  0.3526  1.7001
  602MOL0     H79416  -0.941   9.193   7.282  1.3414 -2.9770  0.4099
  602MOL0     H79417  -1.000   9.448   7.524  0.1168 -0.9892 -0.3286
  602MOL0     H79418  -1.365   9.560   7.429 -1.3215 -1.8533 -1.1174
  602MOL0     H79419  -1.227   9.629   7.512 -0.9095  0.5031 -1.6462
  602MOL0     H79420  -1.420   9.611   7.677  0.4771  0.6622 -1.9124
  602MOL0     H79421  -1.308   9.492   7.738 -0.0629 -1.5908 -1.4528
  602MOL0     H79422  -1.443   9.306   7.628 -1.6816 -1.1258  0.0108
  602MOL0     H79423  -1.536   9.403   7.740  1.5198  0.7030 -0.3092
  602MOL0     H79424  -1.544   9.423   7.434 -2.2998 -1.6497 -0.6317
  602MOL0     H79425  -1.622   9.543   7.554 -0.0267 -0.2065 -0.0981
  602MOL0     H79426  -1.522   9.178   7.460 -0.0386 -0.4459  0.3947
  602MOL0     H79427  -1.538   8.936   7.541 -0.6373 -1.6746  1.4770
  602MOL0     H79428  -1.946   8.672   7.952 -0.2634  1.2430 -1.3819
  602MOL0     H79429  -2.009   8.431   7.965 -0.1459 -0.3987  0.7480
  602MOL0     H79430  -1.844   8.131   7.649  3.2821 -1.5043  6.1914
  602MOL0     H79431  -1.995   8.238   7.617  1.5629  2.0387  0.2884
  602MOL0     H79432  -2.091   8.066   7.829  0.7872 -0.2955  0.1755
  602MOL0     H79433  -1.964   7.973   7.743  3.7009  2.6702  2.4696
  602MOL0     H79434  -2.107   8.009   7.528 -0.4548 -1.3716  0.2302
  602MOL0     H79435  -2.202   8.117   7.617  3.4132  2.2370 -3.1363
  602MOL0     H79436  -2.160   7.812   7.649 -2.5864 -1.2877 -5.8639
  602MOL0     H79437  -2.268   7.916   7.758  1.9422  0.6121  1.3095
  602MOL0     H79438  -2.392   7.779   7.605  2.9229 -1.9326 -0.3042
  602MOL0     H79439  -2.325   7.854   7.470  0.8404 -2.5303 -0.0512
  602MOL0     H79440  -2.395   8.080   7.536  2.6032 -0.5819  0.6510
  602MOL0     H79441  -2.444   8.032   7.692 -2.3641  0.8149 -0.0702
  602MOL0     H79442  -2.564   7.916   7.425  2.7277 -0.6754  1.3590
  602MOL0     H79443  -2.633   7.878   7.576  1.4023 -1.1392  0.6736
  602MOL0     H79444  -2.778   8.040   7.490  2.0702 -4.1623 -0.4900
  602MOL0     H79445  -2.656   8.163   7.483  0.2186  0.1041  2.0941
  602MOL0     H79446  -1.839   8.378   7.576 -0.1079 -0.9991  1.3879
  602MOL0     H79447  -1.793   8.596   7.558  0.4138  0.1499  0.4563
  602MOL0     H79448  -1.924   9.011   7.705 -1.0621  2.4786 -0.6241
  602MOL0     H79449  -1.896   9.266   7.652 -1.7108 -0.5941  1.5155
  602MOL0     H79450   0.073   9.632   7.490  0.6329  0.4895 -0.5677
  602MOL0     H79451   0.218   9.730   7.660  0.7751 -0.1650  0.9774
  602MOL0     H79452   0.419   9.769   7.995  0.7495 -2.1558  1.8009
  602MOL0     H79453   0.581   9.832   8.128  1.0718  1.5474 -1.9356
  602MOL0     H79454   0.466   9.952   8.480  0.4532  0.2662 -1.0860
  602MOL0     H79455   0.594  10.050   8.527 -3.0330  0.3586  0.9306
  602MOL0     H79456   0.747   9.861   8.418 -3.0183 -0.6175 -3.0494
  602MOL0     H79457   0.686   9.868   8.594 -3.3628 -0.0753 -0.1032
  602MOL0     H79458   0.563   9.692   8.360  0.9747 -2.3947  0.1015
  602MOL0     H79459   0.503   9.707   8.522  0.2913 -1.3511  1.0995
  602MOL0     H79460   0.742   9.602   8.590  2.0733 -1.0803 -0.7622
  602MOL0     H79461   0.611   9.501   8.535  0.5230  1.0446  1.3978
  602MOL0     H79462   0.866   9.431   8.227  0.7100 -0.7260  0.6917
  602MOL0     H79463   0.356  10.132   8.308  0.6120 -0.9197 -0.4566
  602MOL0     H79464   0.175  10.110   8.116  1.3788  1.4964 -1.4791
  603MOL0     O79465   9.259   4.461   1.294  0.2974  0.5941 -0.1610
  603MOL0     C79466   9.260   4.380   1.388  0.4765  1.1954  0.6528
  603MOL0     O79467   9.363   4.305   1.417  0.2043  0.5725 -1.1371
  603MOL0     C79468   9.478   4.317   1.351  0.2329 -1.2699  0.9927
  603MOL0     C79469   9.548   4.436   1.343  0.3669 -0.0841 -0.4654
  603MOL0     C79470   9.665   4.440   1.262 -0.1480 -0.6065  0.2819
  603MOL0     C79471   9.723   4.326   1.216  0.1508  0.1038  0.2891
  603MOL0     O79472   9.850   4.325   1.158 -0.2532  0.0320  0.3247
  603MOL0     C79473   9.971   4.343   1.236  0.8171 -0.3024 -0.5897
  603MOL0     C79474  10.092   4.308   1.145 -0.4390 -0.1569 -0.4241
  603MOL0     C79475  10.223   4.343   1.206 -0.1967  0.0229  0.4268
  603MOL0     C79476  10.350   4.374   1.118 -0.2638 -0.8188  0.0278
  603MOL0     C79477  10.465   4.415   1.205 -0.3837  0.0374 -0.1125
  603MOL0     C79478  10.446   4.544   1.285  0.0383  0.6865 -0.5121
  603MOL0     C79479  10.569   4.579   1.368  0.9876 -1.1490  0.3709
  603MOL0     C79480  10.557   4.723   1.435  0.3676  0.4768  1.1481
  603MOL0     N79481  10.551   4.852   1.355  0.3549 -0.3486 -0.0054
  603MOL0     C79482  10.435   4.939   1.363 -0.0547  1.1975 -0.3305
  603MOL0     C79483  10.462   5.049   1.287 -0.4411 -0.6776  0.0241
  603MOL0     C79484  10.374   5.160   1.257 -0.5019  0.4755  0.6283
  603MOL0     C79485  10.355   5.176   1.104 -0.2871  0.8833 -1.1138
  603MOL0     C79486  10.277   5.306   1.084 -0.5524  0.5467 -0.5626
  603MOL0     C79487  10.244   5.318   0.930  0.5686  0.2280 -0.6307
  603MOL0     O79488  10.150   5.427   0.940 -0.4032  0.2435 -0.3548
  603MOL0     C79489  10.070   5.447   0.835 -1.2158  0.3681  0.6378
  603MOL0     C79490   9.974   5.548   0.856 -0.8366  0.0900 -0.1617
  603MOL0     C79491   9.896   5.593   0.752 -0.4082 -0.1846  0.2587
  603MOL0     C79492   9.904   5.533   0.630  0.1179  1.0960  0.1394
  603MOL0     C79493   9.816   5.568   0.522 -0.0146  0.1541 -0.5310
  603MOL0     O79494   9.829   5.516   0.396  0.0937  0.4194  0.1676
  603MOL0     C79495   9.715   5.535   0.306  0.0149 -0.1178 -0.0331
  603MOL0     C79496   9.696   5.433   0.215 -0.1319 -0.0340  0.6459
  603MOL0     C79497   9.599   5.439   0.114 -0.1729  0.2764  0.3917
  603MOL0     C79498   9.526   5.558   0.091 -0.1813  0.5306  0.4183
  603MOL0     O79499   9.451   5.569  -0.016  0.1553 -0.4075  0.3430
  603MOL0     C79500   9.404   5.456  -0.092 -1.0473 -0.1554  0.5285
  603MOL0     C79501   9.263   5.481  -0.141  0.1630 -0.2149  0.7349
  603MOL0     C79502   9.224   5.341  -0.198  0.9388 -0.6770  1.0062
  603MOL0     C79503   9.088   5.336  -0.272 -0.2617 -0.2357 -0.6402
  603MOL0     C79504   8.960   5.346  -0.180 -0.2469  0.5821 -0.1200
  603MOL0     C79505   8.835   5.354  -0.283  0.1683  0.4293  0.2134
  603MOL0     C79506   8.704   5.335  -0.209  0.2247  0.2748  0.4777
  603MOL0     C79507   8.582   5.357  -0.305  0.3254  0.1545 -0.7158
  603MOL0    Cl79508   8.448   5.419  -0.214  0.2399 -0.4156 -0.0677
  603MOL0     C79509   9.548   5.658   0.186 -0.3222 -0.0982 -1.0897
  603MOL0     C79510   9.649   5.655   0.287 -0.7920 -0.2230  0.6486
  603MOL0     O79511   9.727   5.645   0.555 -0.4526  0.9889  0.4771
  603MOL0     C79512   9.993   5.443   0.604  0.2511 -0.0809 -1.2394
  603MOL0     C79513  10.082   5.395   0.704 -0.4261  0.3163  0.1166
  603MOL0     N79514  10.596   5.031   1.252  0.4072 -0.1837  0.7185
  603MOL0     N79515  10.646   4.920   1.283  0.3566  0.0506  0.4357
  603MOL0     C79516   9.662   4.206   1.238  0.3934 -0.8720  0.6645
  603MOL0     C79517   9.532   4.203   1.302  0.1744  0.4986  0.3964
  603MOL0     C79518   9.132   4.371   1.468  0.4174 -1.0168  0.6949
  603MOL0     C79519   9.001   4.402   1.418 -1.0895  0.0698 -0.5161
  603MOL0     C79520   8.892   4.378   1.509 -0.1722 -0.2375  0.4108
  603MOL0     C79521   8.910   4.335   1.644  0.5770  1.1660 -0.4850
  603MOL0     O79522   8.791   4.319   1.713  0.0737 -0.6880 -0.4899
  603MOL0     C79523   8.794   4.224   1.824  1.4155 -0.1467  0.3298
  603MOL0     C79524   8.659   4.176   1.862  0.3891 -0.6664 -0.0782
  603MOL0     C79525   8.658   4.135   2.009 -0.0037  0.4649  0.3707
  603MOL0     C79526   8.642   4.242   2.116 -0.2181  0.3029  0.2421
  603MOL0     C79527   8.498   4.282   2.109  0.8111 -0.0476  1.0458
  603MOL0     C79528   8.373   4.296   2.116 -0.6297 -0.6993 -0.6598
  603MOL0     C79529   9.041   4.330   1.688  0.1930  0.1078 -0.5734
  603MOL0     C79530   9.148   4.340   1.610 -0.6386  0.2594  0.6752
  603MOL0     H79531   9.521   4.535   1.379  4.3975  1.4541 -1.1669
  603MOL0     H79532   9.719   4.534   1.261 -3.3258  1.3884  0.0785
  603MOL0     H79533   9.954   4.273   1.319 -0.5421  1.1117  0.3911
  603MOL0     H79534   9.964   4.443   1.281 -2.8980 -1.2145  1.3255
  603MOL0     H79535  10.088   4.357   1.047  6.5008  0.4963 -0.8455
  603MOL0     H79536  10.100   4.202   1.119  3.3258 -1.1977  3.7881
  603MOL0     H79537  10.271   4.269   1.271 -0.1659 -0.6525 -0.3540
  603MOL0     H79538  10.204   4.429   1.271  1.1572  0.1203  0.7134
  603MOL0     H79539  10.377   4.295   1.047  0.1384 -1.0807  0.4656
  603MOL0     H79540  10.322   4.457   1.053  1.2364  1.7708  2.4432
  603MOL0     H79541  10.553   4.424   1.140 -0.5359  0.1634 -0.3028
  603MOL0     H79542  10.488   4.340   1.281 -2.4744 -0.3978  0.1430
  603MOL0     H79543  10.374   4.533   1.367  0.1935  2.5037 -0.0756
  603MOL0     H79544  10.410   4.628   1.225  0.8118  1.4359  0.0473
  603MOL0     H79545  10.569   4.506   1.449 -1.7466 -1.0829  0.5205
  603MOL0     H79546  10.659   4.570   1.305  0.1934  0.0015 -0.9846
  603MOL0     H79547  10.648   4.728   1.495  1.1154  0.8793  0.0144
  603MOL0     H79548  10.467   4.716   1.496 -1.2559 -1.9839 -1.2970
  603MOL0     H79549  10.341   4.904   1.405 -0.8601  0.6203 -2.4656
  603MOL0     H79550  10.422   5.255   1.281 -2.0668  1.7673 -1.0807
  603MOL0     H79551  10.277   5.150   1.306 -0.5302 -0.6579  0.3683
  603MOL0     H79552  10.308   5.082   1.072  1.2598 -0.8843  1.3865
  603MOL0     H79553  10.452   5.183   1.054 -0.9239  0.2328 -2.4964
  603MOL0     H79554  10.191   5.303   1.151  2.2370 -1.1277  3.2820
  603MOL0     H79555  10.336   5.394   1.113 -0.4718  0.6201 -0.9371
  603MOL0     H79556  10.204   5.226   0.886 -0.3070  0.2391  0.1011
  603MOL0     H79557  10.327   5.348   0.866 -1.1596  2.0452 -2.1331
  603MOL0     H79558   9.959   5.605   0.947  3.5037 -2.0248  2.1484
  603MOL0     H79559   9.812   5.661   0.761  0.5838  1.0791  0.2023
  603MOL0     H79560   9.767   5.351   0.208 -0.7956 -0.7312  1.5980
  603MOL0     H79561   9.583   5.346   0.060  4.4516 -3.1606  4.0423
  603MOL0     H79562   9.396   5.369  -0.027 -1.8720 -0.2618  0.2985
  603MOL0     H79563   9.473   5.430  -0.173  0.0035 -1.4533  1.7774
  603MOL0     H79564   9.247   5.568  -0.205 -0.0709 -1.0787 -0.4029
  603MOL0     H79565   9.193   5.502  -0.060 -2.0021 -3.4602 -0.1171
  603MOL0     H79566   9.221   5.257  -0.128 -0.3262 -1.0327  0.5565
  603MOL0     H79567   9.296   5.318  -0.277 -0.3544  2.7749 -1.4520
  603MOL0     H79568   9.085   5.428  -0.332 -1.7254 -0.5453 -1.0714
  603MOL0     H79569   9.075   5.254  -0.342  0.8684 -0.8011 -0.2153
  603MOL0     H79570   8.980   5.431  -0.114  1.0717  3.2045 -3.6331
  603MOL0     H79571   8.956   5.252  -0.124 -0.0162  0.1691 -0.7926
  603MOL0     H79572   8.843   5.272  -0.355  0.2469  0.6113  0.0144
  603MOL0     H79573   8.856   5.446  -0.338  5.2159 -0.2493  0.4982
  603MOL0     H79574   8.696   5.230  -0.177 -2.2155  0.3521  0.3258
  603MOL0     H79575   8.695   5.413  -0.133  0.0559 -0.8421  1.6362
  603MOL0     H79576   8.561   5.264  -0.360 -2.7173 -0.6231  1.4884
  603MOL0     H79577   8.610   5.430  -0.382  3.6715  2.1141  2.0439
  603MOL0     H79578   9.516   5.760   0.163  2.7064  0.6655 -2.5104
  603MOL0     H79579   9.668   5.739   0.354 -3.2469 -1.2267  2.7692
  603MOL0     H79580  10.007   5.400   0.505 -0.8077 -0.7748 -1.1058
  603MOL0     H79581  10.161   5.322   0.687 -1.6751 -0.8403 -1.0298
  603MOL0     H79582   9.696   4.112   1.196 -0.5169 -2.5501  3.4396
  603MOL0     H79583   9.467   4.116   1.300  2.4822 -1.3871  1.6355
  603MOL0     H79584   8.996   4.457   1.325  1.7543 -0.7614 -1.2812
  603MOL0     H79585   8.791   4.412   1.488 -0.4317 -1.9680 -1.3870
  603MOL0     H79586   8.829   4.278   1.912 -2.1225  2.9413  0.1149
  603MOL0     H79587   8.856   4.136   1.802  3.1120  0.1231  3.4388
  603MOL0     H79588   8.592   4.261   1.849 -0.2778 -1.1889 -0.1314
  603MOL0     H79589   8.619   4.096   1.799  0.5284 -0.1630 -0.8179
  603MOL0     H79590   8.747   4.073   2.024  1.5326  2.6673  0.8265
  603MOL0     H79591   8.567   4.075   2.024 -0.4447  1.1049  0.2770
  603MOL0     H79592   8.665   4.195   2.212 -0.8471  0.1420  0.3187
  603MOL0     H79593   8.705   4.329   2.098 -0.7790  1.4921  3.3946
  603MOL0     H79594   8.268   4.318   2.119 -0.5078 -0.1545 -0.0688
  603MOL0     H79595   9.056   4.305   1.793  1.7528  0.8029 -0.6048
  603MOL0     H79596   9.250   4.338   1.649 -0.5360 -3.7150  0.5740
  604MOL0     O79597   1.065   3.698  10.269  0.1166  0.0935  0.1495
  604MOL0     C79598   1.116   3.621  10.359 -0.2990 -0.2249  0.1282
  604MOL0     O79599   1.054   3.572  10.470  0.2296 -0.0059 -0.0157
  604MOL0     C79600   0.939   3.645  10.489 -0.5960  0.3864  0.2519
  604MOL0     C79601   0.820   3.625  10.428  0.7101  0.6596 -0.4735
  604MOL0     C79602   0.704   3.699  10.471  0.0650 -0.4534 -0.1251
  604MOL0     C79603   0.713   3.801  10.567 -0.9211 -1.1769 -0.1828
  604MOL0     O79604   0.611   3.869  10.632  0.2272  0.0998  0.1703
  604MOL0     C79605   0.485   3.875  10.561 -0.3790 -0.3841  0.9204
  604MOL0     C79606   0.389   3.962  10.644 -0.2542  0.0518 -0.1320
  604MOL0     C79607   0.367   3.903  10.786 -1.3404 -0.3944 -0.5552
  604MOL0     C79608   0.240   3.938  10.866  0.2450  0.6087 -0.4858
  604MOL0     C79609   0.109   3.935  10.794 -0.5161 -0.4488 -0.5727
  604MOL0     C79610   0.081   3.806  10.730  0.1839  0.0191 -0.0434
  604MOL0     C79611  -0.041   3.809  10.635 -0.3696  0.3798 -0.1330
  604MOL0     C79612   0.001   3.821  10.488  0.5106  0.7440  0.7241
  604MOL0     N79613   0.080   3.718  10.427  0.1812 -0.2801  0.0502
  604MOL0     C79614   0.036   3.598  10.388  0.3095  0.5430 -1.0635
  604MOL0     C79615   0.130   3.536  10.312 -0.3295 -0.7958  0.9347
  604MOL0     C79616   0.131   3.400  10.244  0.5205 -0.1231 -0.4731
  604MOL0     C79617   0.056   3.387  10.109  0.6827  0.2100  0.1509
  604MOL0     C79618   0.068   3.254  10.051  1.0466 -0.2456  0.3564
  604MOL0     C79619   0.199   3.226   9.981 -0.7341 -0.9234 -0.1308
  604MOL0     O79620   0.211   3.329   9.869 -0.2392 -0.2558  0.0413
  604MOL0     C79621   0.325   3.341   9.797 -0.8217 -0.2623  0.3162
  604MOL0     C79622   0.410   3.231   9.766 -0.2681 -0.0060  0.4844
  604MOL0     C79623   0.505   3.248   9.668  0.5396 -0.1794 -0.1087
  604MOL0     C79624   0.540   3.368   9.609 -0.1088 -0.1467 -0.1015
  604MOL0     C79625   0.641   3.379   9.510  0.3148 -1.8744  0.5198
  604MOL0     O79626   0.700   3.261   9.470  0.1215  0.5981  0.2819
  604MOL0     C79627   0.792   3.265   9.368  0.4972 -1.0583 -0.0213
  604MOL0     C79628   0.925   3.241   9.405 -0.4902  0.7174 -0.0230
  604MOL0     C79629   1.029   3.262   9.312 -0.0120  0.1857  0.4258
  604MOL0     C79630   0.995   3.303   9.172  0.0881 -0.5015 -0.6607
  604MOL0     O79631   1.082   3.320   9.067  0.8183 -0.1431  0.7210
  604MOL0     C79632   1.166   3.214   9.029 -0.1474 -0.2107  0.5967
  604MOL0     C79633   1.103   3.127   8.916 -1.2264 -0.5537  1.2484
  604MOL0     C79634   0.992   3.033   8.968 -0.2450  0.1748  0.1504
  604MOL0     C79635   1.055   2.917   9.041 -0.2290 -0.1477 -0.2555
  604MOL0     C79636   0.960   2.803   9.074 -0.3298 -0.0107 -0.4470
  604MOL0     C79637   0.827   2.834   9.138  0.1519 -0.7785  0.4661
  604MOL0     C79638   0.843   2.883   9.278  0.0797  0.1838 -0.3594
  604MOL0     C79639   0.706   2.904   9.340  0.9664  0.5184  0.4005
  604MOL0    Cl79640   0.608   2.745   9.341  0.6319 -0.3880 -0.5241
  604MOL0     C79641   0.862   3.322   9.147 -0.7545  0.1791  0.3873
  604MOL0     C79642   0.756   3.299   9.237 -0.3770  0.7691  0.3879
  604MOL0     O79643   0.662   3.494   9.466 -0.6368  0.3210  0.8897
  604MOL0     C79644   0.461   3.478   9.647  0.2793  0.0343 -0.3748
  604MOL0     C79645   0.343   3.461   9.718 -0.5879  0.1628 -0.4783
  604MOL0     N79646   0.234   3.625  10.316  0.1707  0.5281 -0.1873
  604MOL0     N79647   0.206   3.733  10.378  0.3154  0.7058 -0.5062
  604MOL0     C79648   0.832   3.821  10.621  1.6345  0.7063 -0.4168
  604MOL0     C79649   0.945   3.744  10.590  0.7018  0.8060  0.4519
  604MOL0     C79650   1.262   3.612  10.362  0.3169 -0.2963 -0.0933
  604MOL0     C79651   1.331   3.694  10.276 -0.6100 -0.6387  0.4334
  604MOL0     C79652   1.468   3.699  10.278 -0.4626 -0.1344 -0.5579
  604MOL0     C79653   1.542   3.602  10.359  0.4956 -0.0264  0.5068
  604MOL0     O79654   1.676   3.601  10.369 -0.1738  0.3093 -0.0225
  604MOL0     C79655   1.757   3.563  10.259  1.5207 -0.5652  0.3821
  604MOL0     C79656   1.871   3.485  10.292 -0.0395  0.3559  0.0446
  604MOL0     C79657   1.982   3.550  10.378 -0.2188  0.2864  0.3187
  604MOL0     C79658   2.077   3.456  10.454  0.4760 -0.1674 -0.4348
  604MOL0     C79659   2.181   3.414  10.363 -1.5486  0.6329  0.5590
  604MOL0     C79660   2.282   3.375  10.300  0.0245 -0.4229 -0.3086
  604MOL0     C79661   1.469   3.524  10.450  0.5202 -0.3883  0.2024
  604MOL0     C79662   1.326   3.519  10.451  0.3699 -0.3851 -0.0044
  604MOL0     H79663   0.810   3.556  10.344  3.5709  0.3609 -0.6464
  604MOL0     H79664   0.612   3.675  10.417  0.3505 -0.8220 -0.4551
  604MOL0     H79665   0.443   3.775  10.546 -3.1789  0.6339  1.4689
  604MOL0     H79666   0.505   3.919  10.462 -1.7375 -1.5714  0.0632
  604MOL0     H79667   0.290   3.963  10.597 -0.8507 -0.7509  1.0679
  604MOL0     H79668   0.425   4.065  10.639  3.6741 -1.1304 -0.0156
  604MOL0     H79669   0.455   3.933  10.843 -0.5625 -0.7379 -1.5398
  604MOL0     H79670   0.375   3.795  10.771  1.3055 -0.3232 -0.1740
  604MOL0     H79671   0.230   3.871  10.952  0.4925 -0.4561 -1.2820
  604MOL0     H79672   0.265   4.039  10.901  3.2178 -0.5086  1.0029
  604MOL0     H79673   0.095   4.022  10.729 -1.0024 -0.0135  0.0900
  604MOL0     H79674   0.038   3.943  10.878  0.3289 -1.9773  0.3296
  604MOL0     H79675   0.067   3.729  10.807  1.6493  1.7264  2.0701
  604MOL0     H79676   0.165   3.776  10.667  1.2533  0.8996  0.9079
  604MOL0     H79677  -0.088   3.710  10.640  0.3458 -0.0056 -0.7430
  604MOL0     H79678  -0.112   3.891  10.646  0.6571  1.9001 -3.4089
  604MOL0     H79679   0.039   3.923  10.479 -0.1159  0.9804  0.6931
  604MOL0     H79680  -0.088   3.821  10.425  2.0489 -2.6663 -1.7303
  604MOL0     H79681  -0.058   3.550  10.410  2.8632 -4.6523  0.0425
  604MOL0     H79682   0.071   3.341  10.314 -3.3005  2.9873 -0.7956
  604MOL0     H79683   0.233   3.363  10.257  0.4033  0.4377  2.9756
  604MOL0     H79684   0.087   3.466  10.039  0.1553 -0.6864 -1.1245
  604MOL0     H79685  -0.048   3.412  10.132 -0.6442 -3.3943 -1.2541
  604MOL0     H79686   0.037   3.175  10.120  1.1611  1.7885  2.9005
  604MOL0     H79687  -0.012   3.248   9.977  1.0540  0.7190  0.2542
  604MOL0     H79688   0.193   3.129   9.931  2.4433 -1.3311  0.1067
  604MOL0     H79689   0.280   3.243  10.052 -1.8956  0.8326  0.8291
  604MOL0     H79690   0.404   3.142   9.828 -0.6120 -1.7023 -1.8631
  604MOL0     H79691   0.547   3.151   9.643  1.5261 -0.2263  1.6013
  604MOL0     H79692   0.951   3.201   9.502 -0.2895  0.7316 -0.0703
  604MOL0     H79693   1.132   3.235   9.331 -0.2147 -2.4628 -1.7021
  604MOL0     H79694   1.197   3.153   9.114  0.4732  1.0247  1.2909
  604MOL0     H79695   1.260   3.257   8.992  1.7085 -4.2887  0.0437
  604MOL0     H79696   1.183   3.069   8.868 -0.0548 -1.0616  3.6116
  604MOL0     H79697   1.068   3.193   8.837  1.9024 -0.0512  0.1083
  604MOL0     H79698   0.937   2.987   8.885 -1.1763 -0.0902  0.9006
  604MOL0     H79699   0.925   3.092   9.031  1.7798 -1.0427  3.7146
  604MOL0     H79700   1.136   2.887   8.973  0.9356 -1.9346  1.7593
  604MOL0     H79701   1.097   2.949   9.137  1.3710  1.3835 -1.4098
  604MOL0     H79702   1.004   2.740   9.152  2.7168  0.3631 -1.7488
  604MOL0     H79703   0.938   2.756   8.978  2.8831  0.4261 -1.5029
  604MOL0     H79704   0.775   2.738   9.133  2.4094 -1.9980 -1.3710
  604MOL0     H79705   0.782   2.908   9.071  2.2511 -2.0246 -2.5287
  604MOL0     H79706   0.892   2.803   9.333 -2.1554  0.4838  2.3238
  604MOL0     H79707   0.905   2.972   9.288 -2.2803  1.9083 -0.0891
  604MOL0     H79708   0.641   2.964   9.275 -0.1766 -2.4649 -1.4082
  604MOL0     H79709   0.719   2.947   9.440  2.6326 -0.8458  0.8066
  604MOL0     H79710   0.836   3.358   9.048  2.5663 -1.5970 -1.3076
  604MOL0     H79711   0.651   3.320   9.220  0.0963  4.7075  1.1998
  604MOL0     H79712   0.478   3.576   9.603  1.8131  1.3937  2.8671
  604MOL0     H79713   0.269   3.540   9.711 -0.2032  0.3951 -2.2604
  604MOL0     H79714   0.831   3.891  10.703  1.4339  1.2333 -0.8602
  604MOL0     H79715   1.039   3.758  10.641  1.4884 -0.6234 -0.5429
  604MOL0     H79716   1.275   3.757  10.208  3.8210  1.6908 -1.4772
  604MOL0     H79717   1.516   3.768  10.210  1.0141 -0.8617 -0.3069
  604MOL0     H79718   1.797   3.655  10.214  3.2748 -0.6012  1.7285
  604MOL0     H79719   1.692   3.506  10.193  1.7610 -1.4297  0.8752
  604MOL0     H79720   1.831   3.402  10.352  1.8167 -0.1250  0.6751
  604MOL0     H79721   1.919   3.437  10.205 -1.3174 -0.3404 -0.3107
  604MOL0     H79722   1.940   3.624  10.447 -0.1955  1.6237 -1.0479
  604MOL0     H79723   2.049   3.609  10.314  0.4344  0.2728  0.9747
  604MOL0     H79724   2.125   3.516  10.531  0.1529  2.7159 -2.3081
  604MOL0     H79725   2.029   3.378  10.514 -2.0732  1.8023  0.3132
  604MOL0     H79726   2.370   3.342  10.249  1.5477  0.4014  1.6884
  604MOL0     H79727   1.517   3.463  10.526  0.1799  1.0349  1.5923
  604MOL0     H79728   1.269   3.453  10.516 -0.3590  0.0487 -0.1985
  605MOL0     O79729   2.787   0.532   8.004  0.0002 -0.1595  0.8945
  605MOL0     C79730   2.686   0.479   7.950 -0.6844 -0.6967 -0.7347
  605MOL0     O79731   2.676   0.348   7.900  0.1511 -0.2774  0.0862
  605MOL0     C79732   2.784   0.272   7.901 -0.4773 -0.1355  0.0387
  605MOL0     C79733   2.775   0.134   7.946 -0.3602 -0.9976 -0.1393
  605MOL0     C79734   2.882   0.044   7.936  0.5405  0.6871  0.0608
  605MOL0     C79735   3.010   0.093   7.879  0.2101 -0.5336  0.0401
  605MOL0     O79736   3.124   0.013   7.864 -0.2271 -0.1102  0.2502
  605MOL0     C79737   3.171  -0.011   7.732 -0.0751  0.3320  0.0301
  605MOL0     C79738   3.164  -0.161   7.712 -1.4737 -0.0382 -0.2202
  605MOL0     C79739   3.025  -0.214   7.667  0.1742 -0.7139  0.5015
  605MOL0     C79740   3.013  -0.364   7.646  0.3792 -0.4409 -0.1919
  605MOL0     C79741   3.034  -0.427   7.786  0.0561  0.9363 -0.7654
  605MOL0     C79742   2.982  -0.574   7.789  0.0978  0.7889  0.1859
  605MOL0     C79743   2.996  -0.626   7.937  0.4329 -0.2416 -0.1697
  605MOL0     C79744   3.140  -0.617   7.980  0.0741  0.4874 -0.2217
  605MOL0     N79745   3.139  -0.684   8.109 -0.2585  1.0233 -0.1371
  605MOL0     C79746   3.158  -0.825   8.104 -0.4921 -0.1515  0.0231
  605MOL0     C79747   3.144  -0.861   8.232  1.1105  0.4162 -0.2310
  605MOL0     C79748   3.162  -1.000   8.290  0.7254 -0.1488 -0.0626
  605MOL0     C79749   3.053  -1.055   8.385  0.9249  0.2221 -0.1704
  605MOL0     C79750   3.092  -1.164   8.478  0.1576  0.1772  0.3093
  605MOL0     C79751   3.176  -1.108   8.593 -0.4115  0.8221 -0.6109
  605MOL0     O79752   3.097  -1.027   8.675 -0.1180 -0.0094  0.3466
  605MOL0     C79753   2.991  -1.074   8.735  0.1837  1.2525  0.3137
  605MOL0     C79754   2.982  -1.207   8.800 -0.4440 -0.7834  0.2600
  605MOL0     C79755   2.866  -1.254   8.844 -0.4829  0.2418 -0.4044
  605MOL0     C79756   2.751  -1.175   8.840 -0.0956 -0.2682  0.0289
  605MOL0     C79757   2.622  -1.213   8.897  0.6245 -0.4028  0.6675
  605MOL0     O79758   2.504  -1.158   8.853  0.0371  0.5268 -0.1376
  605MOL0     C79759   2.384  -1.178   8.921  0.1395 -0.1384  0.5873
  605MOL0     C79760   2.277  -1.197   8.842 -0.6344 -0.1524  0.0897
  605MOL0     C79761   2.152  -1.230   8.901 -0.7485  0.4032  0.6773
  605MOL0     C79762   2.132  -1.228   9.040 -0.4174 -0.4214 -0.0329
  605MOL0     O79763   2.009  -1.237   9.093 -0.1674  0.5320  0.3829
  605MOL0     C79764   1.987  -1.343   9.190  0.2070 -0.8457 -0.2475
  605MOL0     C79765   1.941  -1.469   9.125 -0.0411  0.2396  0.3752
  605MOL0     C79766   1.796  -1.471   9.065 -0.2026 -0.8154 -0.2074
  605MOL0     C79767   1.804  -1.492   8.906 -1.1680  0.6361  0.4156
  605MOL0     C79768   1.823  -1.641   8.879 -0.4674  0.6501 -0.4719
  605MOL0     C79769   1.827  -1.675   8.732  1.1689 -1.0772  0.7049
  605MOL0     C79770   1.682  -1.677   8.671  0.8001  0.2967  0.0009
  605MOL0     C79771   1.682  -1.749   8.526  0.7172  0.7193 -0.1748
  605MOL0    Cl79772   1.751  -1.645   8.419 -0.1340 -0.6622  0.2090
  605MOL0     C79773   2.243  -1.212   9.126  0.7814 -0.9637 -0.0966
  605MOL0     C79774   2.369  -1.191   9.064  0.2086  0.5406 -0.2236
  605MOL0     O79775   2.637  -1.297   8.984 -0.5701 -0.6693 -0.5308
  605MOL0     C79776   2.758  -1.047   8.778  0.0252  0.4235  0.6259
  605MOL0     C79777   2.883  -0.997   8.733 -0.1000 -0.5433 -0.2914
  605MOL0     N79778   3.107  -0.752   8.314  0.9777 -0.1030 -0.4175
  605MOL0     N79779   3.106  -0.649   8.236  0.5233  0.1281  0.3780
  605MOL0     C79780   3.026   0.231   7.854  0.0832 -0.2919 -1.0692
  605MOL0     C79781   2.911   0.313   7.861 -0.3782 -0.0508 -0.1542
  605MOL0     C79782   2.579   0.579   7.910  0.6373  0.6308  0.0253
  605MOL0     C79783   2.482   0.550   7.816 -0.6145  0.2888  0.3039
  605MOL0     C79784   2.379   0.640   7.785  0.4395 -0.0718 -0.6715
  605MOL0     C79785   2.388   0.769   7.832  0.4200  0.2860  0.5993
  605MOL0     O79786   2.297   0.869   7.810 -0.9383  0.0397 -0.4917
  605MOL0     C79787   2.214   0.853   7.693 -0.1753 -0.5829  0.2211
  605MOL0     C79788   2.133   0.982   7.661 -0.1216 -0.8161  0.6584
  605MOL0     C79789   2.038   1.005   7.772 -1.0806  0.4676  0.8139
  605MOL0     C79790   1.994   1.162   7.773  0.1363  0.7136  0.6399
  605MOL0     C79791   1.898   1.180   7.888 -0.3977 -0.7354  0.9183
  605MOL0     C79792   1.824   1.239   7.968 -0.1113  0.6651 -0.3078
  605MOL0     C79793   2.484   0.799   7.933 -0.1554  0.9215  0.5334
  605MOL0     C79794   2.585   0.707   7.966 -0.5126  0.2987 -0.3836
  605MOL0     H79795   2.674   0.099   7.963 -0.7201 -0.6370 -1.4303
  605MOL0     H79796   2.870  -0.061   7.962  1.2246 -0.1185 -2.6188
  605MOL0     H79797   3.275   0.024   7.735  0.5052 -1.1376  4.2686
  605MOL0     H79798   3.114   0.053   7.664  0.2200  1.6408  0.9705
  605MOL0     H79799   3.184  -0.203   7.811 -2.4205  3.6857  1.7383
  605MOL0     H79800   3.247  -0.179   7.643 -0.8879 -0.8985  0.6786
  605MOL0     H79801   2.999  -0.159   7.576 -0.7666 -1.2685  0.4127
  605MOL0     H79802   2.961  -0.193   7.754  2.7004 -1.3400  2.6212
  605MOL0     H79803   2.911  -0.393   7.618  0.6872 -1.7229 -0.0404
  605MOL0     H79804   3.070  -0.410   7.565 -1.0775 -1.7876 -0.5125
  605MOL0     H79805   2.988  -0.374   7.870  2.1609 -0.7723  1.6243
  605MOL0     H79806   3.142  -0.430   7.803 -0.4859 -0.9878  3.7096
  605MOL0     H79807   3.034  -0.643   7.722  1.7596  5.0344 -3.3359
  605MOL0     H79808   2.880  -0.560   7.751 -0.8801  1.5241  2.8693
  605MOL0     H79809   2.933  -0.573   8.009  3.0546  3.5044 -0.3788
  605MOL0     H79810   2.973  -0.732   7.950 -0.9691  0.3788  3.9710
  605MOL0     H79811   3.164  -0.515   8.011 -3.0470  1.1179  0.4250
  605MOL0     H79812   3.221  -0.650   7.914  0.1206 -0.2109  0.1762
  605MOL0     H79813   3.183  -0.889   8.021 -0.0700  0.0870 -0.0344
  605MOL0     H79814   3.256  -1.012   8.345 -0.2137 -0.7077  1.4872
  605MOL0     H79815   3.151  -1.070   8.206 -1.6475  1.0737 -0.8370
  605MOL0     H79816   2.975  -1.106   8.329 -0.4486  1.1876  0.7964
  605MOL0     H79817   3.008  -0.977   8.446  0.9616 -1.7948  2.6176
  605MOL0     H79818   3.011  -1.228   8.514  0.4837  0.3753  1.4525
  605MOL0     H79819   3.152  -1.235   8.421 -1.0862  1.2422 -2.5132
  605MOL0     H79820   3.257  -1.040   8.565 -0.4834  2.4103  2.6434
  605MOL0     H79821   3.212  -1.199   8.642  0.9945  0.5438 -2.0849
  605MOL0     H79822   3.058  -1.282   8.819 -1.3716 -2.1454 -1.1621
  605MOL0     H79823   2.859  -1.358   8.874 -0.1848  0.1863 -0.5246
  605MOL0     H79824   2.292  -1.188   8.735 -0.4211  2.5389  0.2743
  605MOL0     H79825   2.065  -1.246   8.837 -0.6976 -0.2353  0.7616
  605MOL0     H79826   1.914  -1.311   9.264  0.0003 -1.0929 -0.3446
  605MOL0     H79827   2.075  -1.364   9.251  0.1576 -1.0638 -0.2498
  605MOL0     H79828   1.927  -1.556   9.190 -2.1666 -1.1426 -1.7695
  605MOL0     H79829   2.007  -1.494   9.040 -1.4911  1.6604 -1.2486
  605MOL0     H79830   1.749  -1.376   9.090 -0.6653 -0.9059 -0.7013
  605MOL0     H79831   1.726  -1.549   9.097  1.4147 -2.7406 -1.1277
  605MOL0     H79832   1.707  -1.458   8.869 -1.3922  2.6573  2.6179
  605MOL0     H79833   1.879  -1.418   8.877  1.9836 -1.3689  2.7750
  605MOL0     H79834   1.749  -1.700   8.933  1.3055 -0.7649  0.5214
  605MOL0     H79835   1.919  -1.662   8.928 -0.4378  1.3138 -0.2235
  605MOL0     H79836   1.876  -1.772   8.722  0.8118 -1.5021  2.6237
  605MOL0     H79837   1.887  -1.601   8.678 -3.0229  0.8630 -1.7496
  605MOL0     H79838   1.620  -1.734   8.741  4.3202  0.8713  4.0214
  605MOL0     H79839   1.647  -1.573   8.671  2.3299  0.8558 -1.0797
  605MOL0     H79840   1.578  -1.776   8.501  1.2908 -0.5173 -1.3524
  605MOL0     H79841   1.745  -1.836   8.545  2.6799  1.5661 -2.3666
  605MOL0     H79842   2.221  -1.214   9.232  1.0299 -1.1940 -0.0479
  605MOL0     H79843   2.467  -1.166   9.104 -0.2611  2.3035 -0.1300
  605MOL0     H79844   2.668  -0.990   8.757  1.1233  1.6292 -1.1250
  605MOL0     H79845   2.910  -0.898   8.696  0.1137 -0.5047 -0.0314
  605MOL0     H79846   3.121   0.267   7.815  2.9361 -3.5981  2.0772
  605MOL0     H79847   2.928   0.417   7.833 -1.7380  0.7510  1.7867
  605MOL0     H79848   2.494   0.458   7.760 -0.7504  0.9329 -0.8078
  605MOL0     H79849   2.299   0.604   7.722  0.0280 -1.2508  0.4770
  605MOL0     H79850   2.148   0.770   7.720 -0.3297 -0.4771  0.1684
  605MOL0     H79851   2.277   0.822   7.609 -1.7989 -0.8621 -0.9391
  605MOL0     H79852   2.199   1.068   7.648 -2.8864  1.2135 -1.1526
  605MOL0     H79853   2.078   0.961   7.569  0.9989 -0.1728 -0.1668
  605MOL0     H79854   2.084   0.985   7.870 -1.7388 -0.4822  0.9393
  605MOL0     H79855   1.955   0.935   7.765 -1.2927  0.9365 -2.8438
  605MOL0     H79856   2.074   1.235   7.788  2.1813 -1.5352  1.5079
  605MOL0     H79857   1.940   1.173   7.679 -1.9095  3.3656  1.9826
  605MOL0     H79858   1.760   1.291   8.037 -1.9495  0.7830 -1.9979
  605MOL0     H79859   2.496   0.902   7.964 -2.8277  0.1349  5.0790
  605MOL0     H79860   2.670   0.734   8.029  0.4590 -1.4284 -0.9000
  606MOL0     O79861   9.357   6.054   3.232 -0.0623  0.9535  0.4993
  606MOL0     C79862   9.326   5.980   3.139 -0.5483 -1.1330  0.2365
  606MOL0     O79863   9.292   5.849   3.150 -0.3638 -0.1107  0.6222
  606MOL0     C79864   9.340   5.786   3.255  0.1350  0.5870  0.1614
  606MOL0     C79865   9.427   5.684   3.229  0.1981 -0.4808  0.1935
  606MOL0     C79866   9.473   5.596   3.328  0.8214 -0.2584  0.7282
  606MOL0     C79867   9.432   5.607   3.461  0.1134  0.1441 -0.9019
  606MOL0     O79868   9.473   5.503   3.542 -0.4342 -0.1717  0.4547
  606MOL0     C79869   9.444   5.497   3.680  0.7866 -1.0436 -0.1925
  606MOL0     C79870   9.403   5.349   3.715  0.0734  0.1385  0.0536
  606MOL0     C79871   9.374   5.336   3.863 -0.7135  0.4229  0.4055
  606MOL0     C79872   9.355   5.180   3.886  0.5642 -0.3149 -0.7322
  606MOL0     C79873   9.299   5.143   4.018  1.1226  0.0483 -0.0160
  606MOL0     C79874   9.354   5.223   4.134  1.0441 -0.8509 -0.2694
  606MOL0     C79875   9.331   5.148   4.260  1.0516 -0.8379 -0.7579
  606MOL0     C79876   9.387   5.232   4.381  0.2096  0.4803 -0.1452
  606MOL0     N79877   9.312   5.355   4.415  0.2850  0.1501  0.1030
  606MOL0     C79878   9.322   5.489   4.379  0.9686  0.8646  0.1824
  606MOL0     C79879   9.209   5.544   4.419 -0.5063  0.0769 -0.6194
  606MOL0     C79880   9.158   5.689   4.409  0.0098  1.3427 -1.0275
  606MOL0     C79881   9.210   5.779   4.524 -0.0577  0.3619 -0.1352
  606MOL0     C79882   9.171   5.920   4.507  0.5474  1.8933 -0.6887
  606MOL0     C79883   9.257   5.990   4.408  0.0605 -1.0236  0.8434
  606MOL0     O79884   9.401   5.977   4.426  0.2476  0.2413  0.3570
  606MOL0     C79885   9.475   5.892   4.347 -1.4790  0.3671 -0.6634
  606MOL0     C79886   9.440   5.859   4.214  0.2520 -0.6535 -0.7828
  606MOL0     C79887   9.514   5.760   4.143  0.6465 -0.8916  0.5042
  606MOL0     C79888   9.615   5.689   4.203 -0.7864  1.0633  0.5973
  606MOL0     C79889   9.670   5.569   4.124  0.2369  0.0896 -0.2297
  606MOL0     O79890   9.637   5.560   3.986  0.1466  0.3468 -0.3825
  606MOL0     C79891   9.738   5.504   3.910  0.4058  0.2885  0.5253
  606MOL0     C79892   9.831   5.593   3.858 -0.0171 -0.4724  0.4551
  606MOL0     C79893   9.939   5.564   3.791 -0.7343  0.7173  0.4011
  606MOL0     C79894   9.962   5.427   3.753  1.1255  0.0830 -0.1574
  606MOL0     O79895  10.060   5.383   3.677  0.4504 -0.0100  0.1861
  606MOL0     C79896  10.135   5.450   3.585 -0.2843 -0.3132 -1.5507
  606MOL0     C79897  10.173   5.341   3.482 -0.3006  0.9061 -0.3818
  606MOL0     C79898  10.249   5.401   3.363 -0.2232  0.8364 -0.6063
  606MOL0     C79899  10.338   5.294   3.290  0.0713  0.0916 -0.1064
  606MOL0     C79900  10.450   5.366   3.200  0.4265  0.2066 -0.7908
  606MOL0     C79901  10.405   5.477   3.106  0.6374 -0.2756 -0.2999
  606MOL0     C79902  10.304   5.457   2.995  0.0302 -0.6090 -0.8948
  606MOL0     C79903  10.301   5.598   2.916  0.3082 -0.6954  0.2464
  606MOL0    Cl79904  10.457   5.618   2.842  0.0695  0.5981 -0.7671
  606MOL0     C79905   9.868   5.333   3.795  1.2037  0.0053  0.4531
  606MOL0     C79906   9.760   5.367   3.876  0.8552 -0.3739  0.3364
  606MOL0     O79907   9.755   5.500   4.175  0.1440 -0.5543 -0.2425
  606MOL0     C79908   9.660   5.723   4.330 -0.6678  0.3061  0.4288
  606MOL0     C79909   9.584   5.820   4.403 -0.0101 -0.1353  0.1403
  606MOL0     N79910   9.134   5.449   4.484 -0.0973  0.0636  0.7168
  606MOL0     N79911   9.199   5.340   4.478 -0.1125  0.3952 -0.6850
  606MOL0     C79912   9.351   5.714   3.493  0.5037  0.1278  0.2463
  606MOL0     C79913   9.300   5.796   3.390 -0.7140  0.1267 -0.3376
  606MOL0     C79914   9.319   6.038   3.000 -0.0793  1.0655  0.6229
  606MOL0     C79915   9.297   5.940   2.892 -0.1012 -0.7612 -0.1170
  606MOL0     C79916   9.287   5.998   2.766  0.0560  0.1113 -0.3427
  606MOL0     C79917   9.312   6.137   2.745  0.6515 -0.1518  0.9597
  606MOL0     O79918   9.303   6.194   2.622  0.3355 -0.1160  0.8843
  606MOL0     C79919   9.352   6.126   2.513  0.1057 -0.1626  0.1119
  606MOL0     C79920   9.375   6.224   2.397 -0.0312 -0.2223 -0.8869
  606MOL0     C79921   9.418   6.160   2.254 -0.0576 -1.0311 -0.5050
  606MOL0     C79922   9.445   6.274   2.151 -0.6022  0.3408 -0.5237
  606MOL0     C79923   9.480   6.190   2.040 -0.3756 -0.3800  0.4148
  606MOL0     C79924   9.521   6.127   1.946 -0.7908 -0.4124  0.3505
  606MOL0     C79925   9.329   6.217   2.849 -0.1897  0.1161 -0.8002
  606MOL0     C79926   9.324   6.166   2.977 -0.2490 -1.2299 -0.7238
  606MOL0     H79927   9.466   5.661   3.130 -0.6874 -2.5071  0.2628
  606MOL0     H79928   9.540   5.516   3.299 -0.8666 -0.4932 -3.1634
  606MOL0     H79929   9.379   5.575   3.722  0.6804 -0.8116 -0.7743
  606MOL0     H79930   9.539   5.513   3.733 -0.0179 -0.3056  1.0864
  606MOL0     H79931   9.490   5.289   3.690 -0.3462 -1.2079  1.6445
  606MOL0     H79932   9.319   5.309   3.658 -0.8573  2.8880 -0.6669
  606MOL0     H79933   9.284   5.387   3.897  1.1498  4.0075  0.4374
  606MOL0     H79934   9.464   5.361   3.921  0.0975 -4.1851  1.6033
  606MOL0     H79935   9.284   5.142   3.812  0.4275 -2.0581  0.2491
  606MOL0     H79936   9.450   5.127   3.875 -0.1273 -2.2375  1.8255
  606MOL0     H79937   9.318   5.036   4.032 -0.3481 -0.2774 -0.2572
  606MOL0     H79938   9.191   5.155   4.001  1.0240 -1.8754 -1.0311
  606MOL0     H79939   9.303   5.319   4.134  0.3097 -1.2022  1.4803
  606MOL0     H79940   9.463   5.226   4.119  1.1050 -2.5084 -0.3429
  606MOL0     H79941   9.222   5.139   4.269  1.1116 -0.0369  1.2464
  606MOL0     H79942   9.370   5.046   4.255  1.7791 -0.7619  1.8359
  606MOL0     H79943   9.493   5.258   4.372  0.1098  1.1535  0.5737
  606MOL0     H79944   9.389   5.160   4.463 -1.1744 -0.0041 -0.5027
  606MOL0     H79945   9.401   5.547   4.331 -0.9854  3.0977 -0.5207
  606MOL0     H79946   9.049   5.694   4.404 -0.3425 -3.0899 -2.3458
  606MOL0     H79947   9.185   5.731   4.312  1.3603  2.3744 -0.2476
  606MOL0     H79948   9.319   5.770   4.521  0.0705  1.1860 -4.1914
  606MOL0     H79949   9.157   5.741   4.612 -2.0809  0.1214 -1.3839
  606MOL0     H79950   9.065   5.930   4.480  0.0804 -0.3052  0.1651
  606MOL0     H79951   9.180   5.953   4.611 -0.1026  2.4637 -0.8074
  606MOL0     H79952   9.230   6.096   4.411 -4.2628 -1.9441  0.6427
  606MOL0     H79953   9.224   5.954   4.310 -0.3023 -2.7037  1.5466
  606MOL0     H79954   9.360   5.906   4.158  0.6440  1.5695  0.4213
  606MOL0     H79955   9.480   5.734   4.043  1.2494 -1.3177  0.4054
  606MOL0     H79956   9.831   5.701   3.875  2.0994 -0.4542  0.6482
  606MOL0     H79957  10.013   5.643   3.774 -0.0556  0.0045 -0.0276
  606MOL0     H79958  10.229   5.488   3.627 -1.2448  1.5704 -0.9856
  606MOL0     H79959  10.089   5.533   3.532 -0.3439  1.5232  1.1742
  606MOL0     H79960  10.082   5.286   3.453 -2.5059  3.1402  1.8080
  606MOL0     H79961  10.240   5.268   3.528  0.3972  0.9388 -1.3097
  606MOL0     H79962  10.314   5.474   3.413  0.4735  0.5539 -1.0885
  606MOL0     H79963  10.173   5.447   3.298 -1.2445 -0.7376 -0.5778
  606MOL0     H79964  10.389   5.234   3.366  1.1423 -0.3462 -1.1367
  606MOL0     H79965  10.275   5.235   3.222 -2.2808  2.9091 -0.5938
  606MOL0     H79966  10.520   5.294   3.156  1.6897 -1.1438  3.0103
  606MOL0     H79967  10.510   5.418   3.276  4.2335  0.3621 -3.6135
  606MOL0     H79968  10.497   5.516   3.061  0.0832  2.8793  1.0267
  606MOL0     H79969  10.372   5.564   3.164  0.8546 -1.1285  1.1396
  606MOL0     H79970  10.340   5.379   2.928  4.1651  1.8971 -1.9787
  606MOL0     H79971  10.206   5.425   3.031  1.1251 -3.3234 -0.1091
  606MOL0     H79972  10.275   5.681   2.982  1.1405  1.1559 -1.6052
  606MOL0     H79973  10.216   5.594   2.848 -2.6428  0.8581  3.5453
  606MOL0     H79974   9.878   5.232   3.756 -0.6295  0.9111 -2.7400
  606MOL0     H79975   9.689   5.295   3.916  1.1418 -0.6498  0.3480
  606MOL0     H79976   9.744   5.670   4.373  1.6997  1.3389 -2.6145
  606MOL0     H79977   9.600   5.847   4.507 -1.3582 -2.0112  0.8981
  606MOL0     H79978   9.327   5.745   3.595  0.5305 -2.4181  1.1007
  606MOL0     H79979   9.231   5.874   3.422  0.1299  0.2347  1.3390
  606MOL0     H79980   9.285   5.835   2.918 -1.6756 -0.2243  1.4850
  606MOL0     H79981   9.265   5.930   2.683  1.0987 -0.5838 -0.0685
  606MOL0     H79982   9.287   6.042   2.486 -1.2544  1.5744 -2.4878
  606MOL0     H79983   9.451   6.086   2.533  0.2440 -0.4707 -1.0716
  606MOL0     H79984   9.280   6.276   2.378 -0.2299  0.4244  1.6038
  606MOL0     H79985   9.443   6.300   2.434 -0.8083 -1.1307  2.7674
  606MOL0     H79986   9.335   6.095   2.225 -1.6882  0.2508  1.0877
  606MOL0     H79987   9.510   6.101   2.268 -0.2236 -0.9318  1.3202
  606MOL0     H79988   9.365   6.346   2.133  0.6855  2.1750  0.7391
  606MOL0     H79989   9.534   6.333   2.178  2.7917 -4.4908  0.1634
  606MOL0     H79990   9.560   6.075   1.860 -0.7390  0.3147 -0.0767
  606MOL0     H79991   9.332   6.325   2.835 -2.1283  0.3963  0.5625
  606MOL0     H79992   9.332   6.232   3.063 -0.8243 -0.6577 -1.0912
  607MOL0     O79993   9.047   8.149   4.268  0.3983 -0.1501 -0.4539
  607MOL0     C79994   8.969   8.077   4.328  0.3622 -0.6892  0.3411
  607MOL0     O79995   8.955   8.076   4.463 -0.2845 -0.1528  0.2634
  607MOL0     C79996   9.040   8.151   4.541  0.5583  0.0966  0.6949
  607MOL0     C79997   9.120   8.079   4.628  0.2422 -0.8565  0.0137
  607MOL0     C79998   9.215   8.132   4.709  0.6790  0.1185  1.2559
  607MOL0     C79999   9.211   8.270   4.733 -0.6082 -0.3087  0.3153
  607MOL0     O80000   9.274   8.338   4.836  0.5694  0.0914 -0.3694
  607MOL0     C80001   9.358   8.271   4.925 -0.5723  0.5612  0.6337
  607MOL0     C80002   9.415   8.349   5.042 -0.0970  0.3673 -1.0483
  607MOL0     C80003   9.323   8.363   5.172 -0.0265  0.0094 -0.1075
  607MOL0     C80004   9.399   8.419   5.296  0.1014 -0.3273  0.0053
  607MOL0     C80005   9.305   8.432   5.413 -0.4138 -0.0732 -0.7141
  607MOL0     C80006   9.269   8.294   5.468  0.6615  0.1228  0.0206
  607MOL0     C80007   9.164   8.313   5.582 -1.2855 -0.3938 -0.3973
  607MOL0     C80008   9.089   8.176   5.593  0.8948 -1.3014 -0.8523
  607MOL0     N80009   9.178   8.069   5.642 -1.2045 -0.0390  0.4306
  607MOL0     C80010   9.242   7.977   5.562  0.0169  0.6566 -0.0349
  607MOL0     C80011   9.329   7.911   5.657 -0.6916  1.0935 -0.3462
  607MOL0     C80012   9.425   7.800   5.618  0.0761 -0.8408 -0.1776
  607MOL0     C80013   9.571   7.850   5.621 -0.0790  0.2544 -0.7857
  607MOL0     C80014   9.600   7.955   5.734 -0.2814  0.1011  0.1059
  607MOL0     C80015   9.740   8.025   5.733  0.6801 -0.0343 -0.6538
  607MOL0     O80016   9.738   8.131   5.635  1.1424  0.2419 -0.2391
  607MOL0     C80017   9.708   8.261   5.666 -0.9132 -0.6309  0.0875
  607MOL0     C80018   9.749   8.347   5.561 -0.5079  0.0275  0.5759
  607MOL0     C80019   9.725   8.489   5.562  0.3025  0.6263 -1.6948
  607MOL0     C80020   9.659   8.545   5.677 -0.5907  0.5610  0.5543
  607MOL0     C80021   9.623   8.690   5.686 -0.2199 -0.0945  0.5320
  607MOL0     O80022   9.542   8.736   5.788 -0.2716 -0.1241  0.3863
  607MOL0     C80023   9.500   8.866   5.810 -0.5635 -0.4920  0.5132
  607MOL0     C80024   9.527   8.936   5.931  1.0331 -0.5203 -0.3012
  607MOL0     C80025   9.484   9.066   5.949 -0.1357 -1.0181 -1.5462
  607MOL0     C80026   9.431   9.145   5.846  0.0525 -0.9309  0.9841
  607MOL0     O80027   9.414   9.281   5.868  0.1725 -0.0199 -0.5212
  607MOL0     C80028   9.299   9.344   5.809  0.5353 -0.0783  0.6416
  607MOL0     C80029   9.283   9.480   5.875  0.0376  0.0476  0.3036
  607MOL0     C80030   9.166   9.553   5.806  0.1763 -0.3166 -0.5813
  607MOL0     C80031   9.023   9.496   5.836 -0.2971 -0.2341 -0.2423
  607MOL0     C80032   8.976   9.507   5.979  0.2655 -0.1497 -0.4203
  607MOL0     C80033   8.827   9.469   6.000  0.3266 -0.6053  0.5006
  607MOL0     C80034   8.818   9.319   5.981  0.4389 -0.0014 -0.2419
  607MOL0     C80035   8.685   9.270   6.043 -0.1874  0.5146 -0.0878
  607MOL0    Cl80036   8.544   9.354   5.959  0.2513  0.0310 -0.2903
  607MOL0     C80037   9.407   9.081   5.723 -0.3745  0.4849 -0.4981
  607MOL0     C80038   9.436   8.939   5.712 -0.1746  0.1573 -0.5334
  607MOL0     O80039   9.669   8.764   5.597  0.5230  0.4092  0.2167
  607MOL0     C80040   9.607   8.460   5.773 -0.2207  0.4771 -0.1608
  607MOL0     C80041   9.631   8.316   5.765  0.3168  0.7343  0.0702
  607MOL0     N80042   9.292   7.950   5.786  0.0257  0.4358 -0.5054
  607MOL0     N80043   9.211   8.048   5.774 -0.3201  0.6671  1.0044
  607MOL0     C80044   9.139   8.348   4.646 -0.5525  0.4980  0.5782
  607MOL0     C80045   9.055   8.289   4.555  0.2136 -0.2010  0.0036
  607MOL0     C80046   8.891   7.972   4.256  0.1305  0.3442  0.1269
  607MOL0     C80047   8.774   7.943   4.311  0.3988 -0.6195 -0.9222
  607MOL0     C80048   8.686   7.854   4.247  0.0229  0.5290 -0.9274
  607MOL0     C80049   8.724   7.796   4.128 -0.4727 -1.1334 -1.4150
  607MOL0     O80050   8.625   7.713   4.076 -0.5178 -0.2093  0.2593
  607MOL0     C80051   8.659   7.599   3.994 -0.3548 -0.8846 -0.1163
  607MOL0     C80052   8.539   7.539   3.939  0.5277  0.2367  0.0648
  607MOL0     C80053   8.553   7.405   3.875  0.3736 -0.1719  0.3344
  607MOL0     C80054   8.426   7.344   3.820  0.2451 -0.5935 -0.4714
  607MOL0     C80055   8.460   7.215   3.770 -0.3373  0.2174 -0.3386
  607MOL0     C80056   8.482   7.096   3.737  0.1524  0.6393 -0.0902
  607MOL0     C80057   8.840   7.828   4.067  0.1936 -0.0423 -1.0641
  607MOL0     C80058   8.925   7.914   4.131  0.1880 -1.3800 -0.4250
  607MOL0     H80059   9.115   7.971   4.628 -0.7348 -0.8565  2.2493
  607MOL0     H80060   9.264   8.072   4.785  2.9104  1.5947  1.0746
  607MOL0     H80061   9.448   8.234   4.875 -0.6406 -0.9842  1.6023
  607MOL0     H80062   9.301   8.183   4.955 -0.8464  1.3336  2.5540
  607MOL0     H80063   9.450   8.444   5.001 -0.9885  1.4475  0.5744
  607MOL0     H80064   9.494   8.292   5.092 -3.3840 -2.6414  1.2862
  607MOL0     H80065   9.300   8.261   5.205  0.0637  0.7500  2.4490
  607MOL0     H80066   9.229   8.418   5.160 -1.4753 -2.5023 -1.1609
  607MOL0     H80067   9.492   8.365   5.312 -0.7963 -2.1066 -0.5062
  607MOL0     H80068   9.417   8.526   5.281 -3.0352  0.6778  2.2351
  607MOL0     H80069   9.220   8.494   5.383  1.7034  2.8676 -1.1120
  607MOL0     H80070   9.359   8.481   5.494  0.2055 -2.9703  0.7270
  607MOL0     H80071   9.365   8.251   5.497  0.2485 -0.6678  0.2458
  607MOL0     H80072   9.233   8.224   5.392  2.1335 -2.5021  1.5922
  607MOL0     H80073   9.228   8.334   5.668 -0.9403  1.0224 -0.9728
  607MOL0     H80074   9.100   8.398   5.559 -0.6846 -0.1406 -1.1756
  607MOL0     H80075   9.051   8.153   5.493  2.2418  5.7557 -3.5611
  607MOL0     H80076   8.998   8.182   5.653  0.7707 -1.0439 -1.0637
  607MOL0     H80077   9.239   7.982   5.454 -0.0189  2.0304  0.0144
  607MOL0     H80078   9.403   7.753   5.521  2.5304  0.2498 -1.3564
  607MOL0     H80079   9.406   7.721   5.691 -0.5003  1.8828  2.8445
  607MOL0     H80080   9.608   7.876   5.522  2.4281 -3.7068 -1.1084
  607MOL0     H80081   9.631   7.764   5.653  2.2176  1.6658 -1.1008
  607MOL0     H80082   9.529   8.038   5.722 -0.8289 -0.7229 -4.2147
  607MOL0     H80083   9.593   7.907   5.832  1.7188 -0.6684 -0.0961
  607MOL0     H80084   9.820   7.952   5.719  1.5438  0.8541 -0.5121
  607MOL0     H80085   9.761   8.067   5.833 -2.9209 -1.3076  0.8029
  607MOL0     H80086   9.808   8.295   5.487 -1.0906 -0.9209  0.7616
  607MOL0     H80087   9.768   8.558   5.489  2.1901 -0.3507 -1.5540
  607MOL0     H80088   9.559   8.885   6.022  0.1467  0.9048  0.8492
  607MOL0     H80089   9.484   9.118   6.044 -2.7883 -0.5497 -1.7235
  607MOL0     H80090   9.208   9.284   5.815 -0.2151  0.9264 -0.3325
  607MOL0     H80091   9.326   9.361   5.705  1.0553  0.2402  0.8216
  607MOL0     H80092   9.373   9.543   5.871 -0.5335  1.0848  2.3152
  607MOL0     H80093   9.273   9.466   5.983  0.0340  0.4428  0.3569
  607MOL0     H80094   9.171   9.546   5.697  1.3798 -1.1131 -0.4951
  607MOL0     H80095   9.161   9.661   5.820 -1.9332 -0.5487  1.0309
  607MOL0     H80096   8.951   9.550   5.774  0.7559  0.4509 -0.9012
  607MOL0     H80097   9.037   9.396   5.794  6.1523 -1.4021  3.2509
  607MOL0     H80098   8.988   9.613   6.002  0.0306  0.3016 -2.2565
  607MOL0     H80099   9.040   9.452   6.049 -1.3085 -2.9055 -0.9842
  607MOL0     H80100   8.777   9.514   5.914  0.2891 -0.9220  0.3568
  607MOL0     H80101   8.780   9.499   6.095  1.9041 -1.1900  1.5114
  607MOL0     H80102   8.810   9.304   5.873 -0.1943  0.4895 -0.2654
  607MOL0     H80103   8.907   9.270   6.022 -1.1034 -2.0491  0.7807
  607MOL0     H80104   8.682   9.280   6.152 -1.9069  5.2030 -0.3295
  607MOL0     H80105   8.680   9.163   6.020  4.2926  0.0942 -0.0040
  607MOL0     H80106   9.353   9.128   5.641 -2.1462  0.9226  0.8491
  607MOL0     H80107   9.407   8.895   5.617  1.4942  1.5588 -1.7497
  607MOL0     H80108   9.538   8.491   5.851 -1.1175 -1.3893 -0.1659
  607MOL0     H80109   9.586   8.250   5.838  1.8445  0.7814  1.0853
  607MOL0     H80110   9.135   8.456   4.661 -0.0319  0.7423 -0.8774
  607MOL0     H80111   8.982   8.346   4.498 -0.7027 -1.9260 -0.6239
  607MOL0     H80112   8.754   7.978   4.412  1.4982 -0.0217 -0.8941
  607MOL0     H80113   8.586   7.818   4.272  0.4824 -0.8748 -0.9831
  607MOL0     H80114   8.719   7.531   4.055 -1.7171 -2.6010 -0.5948
  607MOL0     H80115   8.712   7.617   3.900 -2.0571 -2.2549 -1.4301
  607MOL0     H80116   8.463   7.524   4.015 -0.2482 -4.1994 -1.2701
  607MOL0     H80117   8.511   7.622   3.875  2.4287  0.5342 -0.4595
  607MOL0     H80118   8.600   7.340   3.949  2.6632  2.6871  1.5816
  607MOL0     H80119   8.623   7.420   3.792  1.5553 -0.8680  1.1716
  607MOL0     H80120   8.366   7.330   3.911 -0.8284 -0.2578 -1.1103
  607MOL0     H80121   8.370   7.388   3.737 -1.3034 -1.5758  0.0086
  607MOL0     H80122   8.480   6.990   3.722  0.4948  0.6037  0.0931
  607MOL0     H80123   8.884   7.779   3.981  1.8464  0.9757 -0.8529
  607MOL0     H80124   9.024   7.938   4.091 -0.0539 -1.7427 -1.2711
  608MOL0     O80125  10.660   0.003   9.218 -1.1344 -0.8508 -0.9533
  608MOL0     C80126  10.714   0.070   9.129 -0.6196  0.2718  0.6177
  608MOL0     O80127  10.839   0.128   9.130  0.0021  0.2963 -0.3911
  608MOL0     C80128  10.910   0.095   9.242  0.0566  1.0047 -0.4538
  608MOL0     C80129  10.995  -0.018   9.243 -0.0366  0.2906 -0.2676
  608MOL0     C80130  11.055  -0.056   9.364  0.2030  0.1765 -1.2099
  608MOL0     C80131  11.027   0.017   9.487  0.5213 -0.4270 -0.0397
  608MOL0     O80132  11.092  -0.016   9.601 -0.5618 -0.0350 -0.6496
  608MOL0     C80133  11.152   0.094   9.681  0.8797  0.1826  0.3191
  608MOL0     C80134  11.186   0.058   9.821 -1.1937 -0.4510 -0.4367
  608MOL0     C80135  11.069   0.010   9.904  0.2846 -0.2388  0.6429
  608MOL0     C80136  11.107   0.001  10.054 -0.7082 -0.0600  0.1476
  608MOL0     C80137  11.131   0.143  10.115  0.5361  0.1696  0.0517
  608MOL0     C80138  10.999   0.232  10.114 -0.7714 -0.3100 -0.2169
  608MOL0     C80139  11.006   0.374  10.162 -0.3224  0.1877 -1.0394
  608MOL0     C80140  10.908   0.469  10.107 -0.9449 -0.7307  0.4267
  608MOL0     N80141  10.772   0.427  10.114 -0.9562 -0.1649  0.3093
  608MOL0     C80142  10.694   0.411  10.229 -0.2866 -0.0572 -0.5617
  608MOL0     C80143  10.572   0.387  10.174 -0.4616  0.2872 -0.3731
  608MOL0     C80144  10.453   0.376  10.256 -0.2512  0.8813  1.1544
  608MOL0     C80145  10.411   0.220  10.256  0.1830 -1.1519 -0.2293
  608MOL0     C80146  10.278   0.217  10.341 -1.2426 -0.1192  0.4366
  608MOL0     C80147  10.225   0.077  10.335 -0.0232 -0.2149 -0.6031
  608MOL0     O80148  10.084   0.064  10.375  0.2667 -0.5973  0.3066
  608MOL0     C80149  10.021  -0.055  10.337  0.2905  0.1295 -0.4421
  608MOL0     C80150   9.899  -0.056  10.271 -0.4657 -0.5277  0.1504
  608MOL0     C80151   9.850  -0.165  10.195 -0.3534 -0.4500 -0.1236
  608MOL0     C80152   9.904  -0.298  10.230 -0.3581 -0.5972  0.3412
  608MOL0     C80153   9.850  -0.414  10.163 -0.6624  1.2628  0.1500
  608MOL0     O80154   9.940  -0.511  10.119  0.7820  0.6005  0.1096
  608MOL0     C80155   9.891  -0.614  10.050 -0.8697 -0.3687  0.0693
  608MOL0     C80156   9.814  -0.719  10.104 -0.1338  0.1866  0.4786
  608MOL0     C80157   9.780  -0.836  10.031 -0.0162 -0.0237 -0.0216
  608MOL0     C80158   9.800  -0.833   9.889  0.5977  0.3387 -0.2536
  608MOL0     O80159   9.750  -0.931   9.806 -0.6830 -0.2913  0.1040
  608MOL0     C80160   9.683  -1.052   9.861 -0.5301 -0.4386 -0.1292
  608MOL0     C80161   9.653  -1.140   9.744 -0.7148 -0.6338 -0.2154
  608MOL0     C80162   9.602  -1.273   9.782  0.0602 -0.2254 -0.2736
  608MOL0     C80163   9.625  -1.377   9.666  0.4599 -0.1627 -0.7460
  608MOL0     C80164   9.544  -1.318   9.549 -0.1992 -0.3385 -0.4175
  608MOL0     C80165   9.476  -1.426   9.462 -0.4572  0.8243 -0.7862
  608MOL0     C80166   9.599  -1.500   9.406  0.4939 -0.3396  0.0142
  608MOL0     C80167   9.557  -1.610   9.318  0.5280 -0.0706  0.4036
  608MOL0    Cl80168   9.460  -1.732   9.418  0.4518 -0.0553  0.4602
  608MOL0     C80169   9.866  -0.732   9.834  0.5932 -0.1938  0.1266
  608MOL0     C80170   9.909  -0.627   9.915  1.0750  0.8323  0.7650
  608MOL0     O80171   9.730  -0.417  10.135 -0.7391 -0.2768  0.8690
  608MOL0     C80172  10.027  -0.291  10.293  0.2654  0.0585 -0.2686
  608MOL0     C80173  10.086  -0.178  10.341 -0.3259  0.1561 -0.3662
  608MOL0     N80174  10.575   0.385  10.040  0.6311  0.0358 -0.5817
  608MOL0     N80175  10.698   0.408   9.999  0.5266  0.1272 -1.1905
  608MOL0     C80176  10.939   0.125   9.478 -0.2317 -0.6263 -0.0927
  608MOL0     C80177  10.878   0.170   9.359  0.7215  0.2355  0.0394
  608MOL0     C80178  10.629   0.102   9.015  0.6102  0.6132 -0.7492
  608MOL0     C80179  10.510   0.027   8.988 -0.1443  0.7573 -0.0554
  608MOL0     C80180  10.425   0.066   8.885  1.0213 -1.1435 -0.2244
  608MOL0     C80181  10.442   0.190   8.818  0.6852 -0.2478 -0.3745
  608MOL0     O80182  10.342   0.244   8.742  0.5937 -0.0551 -0.2944
  608MOL0     C80183  10.208   0.231   8.790  0.1153  0.2366  0.6358
  608MOL0     C80184  10.135   0.120   8.708  0.2948  0.2781  0.3365
  608MOL0     C80185  10.097   0.138   8.560  0.0115  0.5047 -0.1992
  608MOL0     C80186   9.998   0.021   8.505 -0.6064 -0.1881  0.4898
  608MOL0     C80187   9.870   0.019   8.568 -0.5147  0.6451  0.0950
  608MOL0     C80188   9.753   0.010   8.608 -0.5359 -0.0291 -0.0898
  608MOL0     C80189  10.546   0.267   8.853 -0.7906 -0.9711  0.0155
  608MOL0     C80190  10.643   0.225   8.952  0.1913 -0.7192 -0.0527
  608MOL0     H80191  11.019  -0.056   9.144  2.7657  1.3451 -0.0703
  608MOL0     H80192  11.125  -0.138   9.352 -1.8355 -2.1306  1.4180
  608MOL0     H80193  11.078   0.174   9.691 -1.5118 -2.0774  2.7780
  608MOL0     H80194  11.242   0.126   9.628  2.3326  0.0037  2.5474
  608MOL0     H80195  11.219   0.154   9.863 -2.9213  0.1506 -0.3848
  608MOL0     H80196  11.274  -0.006   9.829 -1.7235 -1.0871  0.4831
  608MOL0     H80197  11.054  -0.091   9.864  1.2296  0.2600 -1.0532
  608MOL0     H80198  10.987   0.078   9.881  1.6777  1.2642 -0.0601
  608MOL0     H80199  11.022  -0.045  10.107 -1.1275  3.0156  2.4543
  608MOL0     H80200  11.205  -0.046  10.064 -0.3472  0.6132 -0.1691
  608MOL0     H80201  11.209   0.200  10.064 -0.3822  2.2737  0.9013
  608MOL0     H80202  11.157   0.126  10.219  0.2918  2.3578  0.5099
  608MOL0     H80203  10.922   0.185  10.176  0.8406  0.3761  2.4805
  608MOL0     H80204  10.967   0.238  10.009  1.7420 -2.6575 -1.2457
  608MOL0     H80205  10.984   0.373  10.269 -1.5914  2.2102 -1.2282
  608MOL0     H80206  11.109   0.410  10.154 -0.1944 -0.0907 -0.6908
  608MOL0     H80207  10.937   0.470  10.002  2.2650  0.0553  1.2316
  608MOL0     H80208  10.914   0.570  10.148 -0.3106 -0.5372 -0.1365
  608MOL0     H80209  10.718   0.431  10.333  1.7560  0.0335 -1.0006
  608MOL0     H80210  10.380   0.434  10.199 -0.0825 -0.8211 -0.8924
  608MOL0     H80211  10.485   0.418  10.352  3.8224  0.3012  0.2263
  608MOL0     H80212  10.487   0.152  10.296 -0.0356 -2.0404 -1.2942
  608MOL0     H80213  10.395   0.197  10.151  1.1937 -1.2970 -0.3567
  608MOL0     H80214  10.283   0.254  10.444 -0.7400 -1.9198  1.1050
  608MOL0     H80215  10.198   0.278  10.299 -1.1823  0.8492  1.6646
  608MOL0     H80216  10.284   0.000  10.386 -2.5366 -1.3703  0.7410
  608MOL0     H80217  10.224   0.056  10.228  0.9712  1.2094 -0.9218
  608MOL0     H80218   9.850   0.039  10.252 -0.8771 -1.1508 -2.3779
  608MOL0     H80219   9.763  -0.159  10.131  0.6141  3.2153 -1.3317
  608MOL0     H80220   9.793  -0.703  10.209 -1.5728  2.2997 -0.0737
  608MOL0     H80221   9.725  -0.916  10.079 -1.1329  2.0380  2.3766
  608MOL0     H80222   9.587  -1.018   9.900 -1.1565 -2.4698  0.2225
  608MOL0     H80223   9.745  -1.113   9.927  2.2785  0.5421 -1.6668
  608MOL0     H80224   9.754  -1.146   9.703 -1.3780  1.9913 -2.5446
  608MOL0     H80225   9.589  -1.096   9.666 -0.8291 -0.3181  0.0547
  608MOL0     H80226   9.503  -1.256   9.825  0.7543 -0.2127  1.4071
  608MOL0     H80227   9.669  -1.307   9.862  2.6158  0.1719 -2.1052
  608MOL0     H80228   9.732  -1.392   9.648  0.2699  1.5638 -3.9554
  608MOL0     H80229   9.580  -1.473   9.691 -0.7420  0.2426 -1.3028
  608MOL0     H80230   9.611  -1.250   9.496 -0.2937 -0.3144 -0.5041
  608MOL0     H80231   9.469  -1.251   9.591  1.7235  1.8331 -0.2275
  608MOL0     H80232   9.426  -1.371   9.382  0.5251  2.7626 -0.1261
  608MOL0     H80233   9.422  -1.498   9.523 -0.3564 -0.0754 -1.7236
  608MOL0     H80234   9.649  -1.440   9.329  0.8898 -4.0800 -2.9437
  608MOL0     H80235   9.669  -1.527   9.486  2.7097  2.9343 -0.6494
  608MOL0     H80236   9.637  -1.673   9.277 -2.0998 -2.8488 -0.8392
  608MOL0     H80237   9.489  -1.568   9.244 -0.6489 -0.6876  1.1076
  608MOL0     H80238   9.886  -0.724   9.727 -2.5204  0.7909 -0.5234
  608MOL0     H80239   9.959  -0.553   9.853  0.3733  1.9871  1.5556
  608MOL0     H80240  10.080  -0.379  10.328  1.4198  1.0942  0.7018
  608MOL0     H80241  10.180  -0.182  10.396 -1.0197  0.3676  0.8744
  608MOL0     H80242  10.904   0.168   9.571 -1.5031 -2.0527  0.1484
  608MOL0     H80243  10.805   0.249   9.371 -1.6499 -1.8017 -0.0764
  608MOL0     H80244  10.493  -0.067   9.038 -2.2326  1.1911  0.1472
  608MOL0     H80245  10.346  -0.002   8.853  2.2124 -1.6779 -2.2221
  608MOL0     H80246  10.147   0.322   8.786 -2.7403 -1.5889 -2.9459
  608MOL0     H80247  10.205   0.203   8.896  2.4021 -0.0033  0.6989
  608MOL0     H80248  10.179   0.020   8.707  0.5330  0.3882 -0.2391
  608MOL0     H80249  10.040   0.103   8.759  0.3256 -1.0747 -0.0296
  608MOL0     H80250  10.191   0.144   8.503  1.3266 -0.6057  1.7077
  608MOL0     H80251  10.053   0.237   8.572 -4.2008 -1.5031  5.2099
  608MOL0     H80252   9.990   0.033   8.396  0.5465  2.3008  0.6191
  608MOL0     H80253  10.030  -0.082   8.524 -2.2310 -0.5535  1.4973
  608MOL0     H80254   9.655  -0.021   8.637 -1.3821  1.8465 -0.7938
  608MOL0     H80255  10.554   0.369   8.817 -4.5657  0.1159  1.7185
  608MOL0     H80256  10.732   0.286   8.962 -0.2990  0.6855 -3.0221
  609MOL0     O80257   9.828   7.863   7.675 -0.3350 -0.2912  0.2187
  609MOL0     C80258   9.880   7.957   7.734 -0.0041  0.7595  0.8683
  609MOL0     O80259   9.906   7.960   7.865 -0.6795 -0.7275 -0.6222
  609MOL0     C80260   9.849   7.884   7.967  0.1993 -0.4428  0.3923
  609MOL0     C80261   9.894   7.908   8.100  0.5921  0.7635  0.9495
  609MOL0     C80262   9.844   7.832   8.207 -0.1288 -0.2091 -0.2400
  609MOL0     C80263   9.747   7.732   8.187  0.0746 -0.1292 -0.0464
  609MOL0     O80264   9.705   7.649   8.290  0.2720 -0.6315 -0.7191
  609MOL0     C80265   9.579   7.574   8.280  0.8638  0.0873 -0.5437
  609MOL0     C80266   9.586   7.425   8.281  0.0690 -0.9156  0.0070
  609MOL0     C80267   9.707   7.382   8.379  0.3174 -0.6637  0.1576
  609MOL0     C80268   9.693   7.232   8.403  0.5036 -1.1288 -0.4667
  609MOL0     C80269   9.809   7.157   8.473  1.3610  0.8134  0.1938
  609MOL0     C80270   9.810   7.174   8.634  0.1899 -0.7645  0.6260
  609MOL0     C80271   9.911   7.074   8.684  0.2877 -0.4805 -0.1202
  609MOL0     C80272   9.914   7.055   8.837  0.4601 -0.0245 -0.1265
  609MOL0     N80273   9.927   7.176   8.917 -0.5690  0.9861 -0.3134
  609MOL0     C80274  10.027   7.253   8.937 -0.6512  0.0527  0.0223
  609MOL0     C80275   9.984   7.354   8.999  0.0558 -1.9760 -0.5070
  609MOL0     C80276  10.079   7.465   9.056  0.6140  0.7664 -0.3654
  609MOL0     C80277  10.191   7.519   8.970  0.4435 -0.4765  0.0487
  609MOL0     C80278  10.294   7.597   9.064  0.4272  0.1147 -0.1740
  609MOL0     C80279  10.218   7.710   9.134  0.9861  0.3524 -0.0169
  609MOL0     O80280  10.306   7.816   9.162  0.0114 -0.4237 -0.7009
  609MOL0     C80281  10.256   7.942   9.186  0.3236 -0.3560  0.3714
  609MOL0     C80282  10.130   7.974   9.234 -0.5919  0.2880 -0.5409
  609MOL0     C80283  10.094   8.110   9.257 -0.2462  0.9844  0.2576
  609MOL0     C80284  10.177   8.218   9.218 -0.4463 -0.6260 -0.4540
  609MOL0     C80285  10.140   8.364   9.231 -0.2911 -0.9392  0.3575
  609MOL0     O80286  10.238   8.446   9.272  0.2043 -0.2493  0.7429
  609MOL0     C80287  10.221   8.579   9.242  0.7582  0.4822 -0.4979
  609MOL0     C80288  10.239   8.629   9.120  0.3800 -0.2261  0.1216
  609MOL0     C80289  10.208   8.761   9.087 -0.9160 -0.3265 -1.2056
  609MOL0     C80290  10.172   8.848   9.190  0.1228  0.5047 -0.1215
  609MOL0     O80291  10.169   8.985   9.167 -0.3024 -0.1775  0.6308
  609MOL0     C80292  10.292   9.040   9.127 -0.3181  0.5926  0.0630
  609MOL0     C80293  10.286   9.176   9.178 -0.1079  0.0400 -0.3879
  609MOL0     C80294  10.291   9.196   9.333  0.0113  0.5652 -0.3332
  609MOL0     C80295  10.426   9.155   9.401 -0.7737  0.3996  0.3964
  609MOL0     C80296  10.426   9.185   9.556  0.3213  0.9867 -0.8162
  609MOL0     C80297  10.364   9.317   9.593 -0.4418 -0.0417  0.5501
  609MOL0     C80298  10.395   9.352   9.737  0.1903  0.5899  0.2242
  609MOL0     C80299  10.398   9.494   9.779  0.0977 -0.5351  0.9684
  609MOL0    Cl80300  10.253   9.566   9.727 -0.0533  0.3772 -0.4386
  609MOL0     C80301  10.163   8.798   9.324 -0.2862 -0.3388  0.1057
  609MOL0     C80302  10.188   8.660   9.346 -0.2587  0.5615  0.3442
  609MOL0     O80303  10.023   8.393   9.213  0.2157  0.9460  0.5935
  609MOL0     C80304  10.305   8.179   9.188  0.1494 -1.0051 -0.5757
  609MOL0     C80305  10.351   8.047   9.165  0.2832  0.1906 -0.0026
  609MOL0     N80306   9.849   7.352   9.012 -0.2670  0.3946 -0.0848
  609MOL0     N80307   9.815   7.239   8.957  0.4885 -1.1180 -0.3727
  609MOL0     C80308   9.697   7.710   8.058 -0.3326 -0.0561  0.9648
  609MOL0     C80309   9.742   7.790   7.950 -0.6106 -0.3813 -0.1116
  609MOL0     C80310   9.912   8.076   7.647  0.5137 -0.5512 -0.2018
  609MOL0     C80311   9.896   8.206   7.685 -0.0022  0.3900  1.1241
  609MOL0     C80312   9.931   8.308   7.594  0.9234  0.4543  0.5934
  609MOL0     C80313   9.973   8.271   7.465 -0.6562 -0.1603  0.3577
  609MOL0     O80314   9.981   8.370   7.365 -1.1430 -0.5782 -0.3134
  609MOL0     C80315  10.053   8.353   7.241 -1.1419  0.6132  0.0104
  609MOL0     C80316  10.072   8.492   7.171 -0.1115  0.0728 -0.6817
  609MOL0     C80317  10.202   8.558   7.230  1.2055  0.4846 -0.4179
  609MOL0     C80318  10.259   8.668   7.141 -0.7583  0.5862  0.0335
  609MOL0     C80319  10.199   8.796   7.175  0.5243 -0.0157  0.4731
  609MOL0     C80320  10.170   8.911   7.212 -0.3973 -0.8215  0.4106
  609MOL0     C80321   9.983   8.140   7.427 -0.7092  0.1065  0.5940
  609MOL0     C80322   9.959   8.037   7.520  0.2850  0.1266 -0.0104
  609MOL0     H80323   9.980   7.971   8.120  1.4171 -0.1448  0.3787
  609MOL0     H80324   9.886   7.847   8.306  2.7327  0.0407 -1.3783
  609MOL0     H80325   9.518   7.612   8.197  0.5613 -1.0365 -0.8470
  609MOL0     H80326   9.521   7.601   8.369 -1.6258  2.0257 -2.5864
  609MOL0     H80327   9.623   7.391   8.184  0.6631  0.7446 -0.3819
  609MOL0     H80328   9.493   7.371   8.301  0.9154 -4.1505 -3.6890
  609MOL0     H80329   9.717   7.436   8.474  4.2716 -1.2062  0.2032
  609MOL0     H80330   9.800   7.395   8.322  0.5139  2.2849  0.9703
  609MOL0     H80331   9.603   7.214   8.462 -0.6161 -2.1391 -2.3796
  609MOL0     H80332   9.669   7.183   8.308 -0.8689 -1.6742  0.1301
  609MOL0     H80333   9.904   7.186   8.427  1.8935  0.1496  0.8414
  609MOL0     H80334   9.799   7.055   8.436  2.9827  1.8033 -3.5116
  609MOL0     H80335   9.712   7.151   8.677  0.6277  0.8193  2.6204
  609MOL0     H80336   9.838   7.277   8.657 -3.2949 -0.2266  3.2722
  609MOL0     H80337   9.900   6.974   8.642 -0.8101 -0.9553  1.2012
  609MOL0     H80338  10.013   7.097   8.652  0.6905 -1.1770  0.6103
  609MOL0     H80339   9.993   6.983   8.864 -0.3792 -1.2941 -0.9459
  609MOL0     H80340   9.812   7.023   8.861 -0.3193  2.6469  0.4442
  609MOL0     H80341  10.129   7.250   8.899 -0.2849  0.1356  0.9804
  609MOL0     H80342  10.133   7.434   9.147  3.1884  3.3125 -0.8709
  609MOL0     H80343  10.010   7.548   9.071  1.7599  1.6824 -0.0070
  609MOL0     H80344  10.140   7.576   8.891  0.5593  2.5050  2.0003
  609MOL0     H80345  10.251   7.441   8.922  1.0484 -0.1514  0.2658
  609MOL0     H80346  10.348   7.532   9.132 -1.4607 -2.0434 -0.6132
  609MOL0     H80347  10.373   7.633   8.997  2.6107 -2.6968  0.6855
  609MOL0     H80348  10.164   7.690   9.227 -1.0185  3.1307 -0.4738
  609MOL0     H80349  10.143   7.747   9.063 -0.7449  1.6977  2.3918
  609MOL0     H80350  10.057   7.895   9.253 -0.2833 -0.2033 -1.3530
  609MOL0     H80351   9.997   8.112   9.305  0.3179 -0.1083  1.5037
  609MOL0     H80352  10.276   8.550   9.056 -3.9273 -2.0992 -0.3907
  609MOL0     H80353  10.227   8.807   8.991 -0.6460  0.9880 -0.5460
  609MOL0     H80354  10.292   9.033   9.018 -3.3205 -2.3181  0.0986
  609MOL0     H80355  10.382   8.991   9.164 -0.7405  0.2265  0.6248
  609MOL0     H80356  10.194   9.217   9.135  2.6633  2.8765 -4.2482
  609MOL0     H80357  10.365   9.228   9.124  2.4350 -0.7982  2.2907
  609MOL0     H80358  10.211   9.134   9.375  1.2291  0.4866  2.0674
  609MOL0     H80359  10.265   9.301   9.350 -1.8582  0.3230 -1.4323
  609MOL0     H80360  10.463   9.052   9.387  1.5724  1.0438  1.2851
  609MOL0     H80361  10.515   9.205   9.363  1.0802 -0.8681  2.7205
  609MOL0     H80362  10.528   9.180   9.597 -1.0726 -0.6488  2.8587
  609MOL0     H80363  10.375   9.107   9.612  1.9303  1.7360  1.8530
  609MOL0     H80364  10.257   9.318   9.569 -0.1036  0.7003 -1.0574
  609MOL0     H80365  10.396   9.395   9.524 -1.0736  0.7686  1.1433
  609MOL0     H80366  10.311   9.316   9.797 -0.7139  1.9792 -0.1621
  609MOL0     H80367  10.494   9.322   9.772  2.0263  2.6956 -2.6777
  609MOL0     H80368  10.475   9.544   9.718 -0.1586  2.2933  2.7868
  609MOL0     H80369  10.422   9.505   9.885  2.3512 -1.9628  0.6867
  609MOL0     H80370  10.151   8.863   9.410 -2.0270  2.4071 -2.0166
  609MOL0     H80371  10.200   8.623   9.447 -0.9320  0.3346  0.3458
  609MOL0     H80372  10.381   8.254   9.171 -1.7625  0.9460 -0.8375
  609MOL0     H80373  10.450   8.032   9.123  0.1068 -3.0121  0.4165
  609MOL0     H80374   9.624   7.633   8.035  1.2181 -0.8755 -1.6031
  609MOL0     H80375   9.691   7.768   7.857 -1.5355  2.9239 -0.5386
  609MOL0     H80376   9.887   8.231   7.790  0.2938 -0.3858  1.3408
  609MOL0     H80377   9.911   8.414   7.607  0.9509  0.5854 -0.3856
  609MOL0     H80378  10.000   8.285   7.174  0.6383 -2.7222  1.7347
  609MOL0     H80379  10.150   8.310   7.265 -1.6785 -1.2638 -0.9677
  609MOL0     H80380  10.081   8.483   7.063  1.0561 -0.4212 -0.5627
  609MOL0     H80381   9.983   8.551   7.194 -0.9018 -0.2207 -2.8308
  609MOL0     H80382  10.285   8.486   7.231  2.1519  1.5038 -2.2222
  609MOL0     H80383  10.189   8.586   7.335  1.9467  1.1718 -0.5036
  609MOL0     H80384  10.368   8.680   7.153 -0.4568 -2.4407  0.9930
  609MOL0     H80385  10.251   8.647   7.034  0.4738 -0.2176  0.0724
  609MOL0     H80386  10.140   9.012   7.231  0.7552  0.3886 -3.2650
  609MOL0     H80387  10.018   8.118   7.327 -0.7704  1.8294  0.1674
  609MOL0     H80388   9.986   7.939   7.484  0.9609  0.5460 -0.6669
  610MOL0     O80389   4.275   2.342   5.680 -0.3479 -0.4383 -0.1894
  610MOL0     C80390   4.245   2.262   5.585  0.9194 -0.3045 -0.0017
  610MOL0     O80391   4.122   2.216   5.553  0.4893  0.4336  0.2545
  610MOL0     C80392   4.027   2.266   5.630  0.0894 -0.2619 -0.3006
  610MOL0     C80393   3.945   2.372   5.582  0.2570 -0.0264 -0.3751
  610MOL0     C80394   3.867   2.439   5.671 -0.1860  0.3302 -1.4179
  610MOL0     C80395   3.847   2.392   5.801 -0.7591  0.5401  0.2434
  610MOL0     O80396   3.759   2.473   5.883  0.4465 -0.4482 -0.4664
  610MOL0     C80397   3.726   2.437   6.021  0.2503 -0.1398  0.3251
  610MOL0     C80398   3.659   2.561   6.096 -0.1654  0.5961 -0.1162
  610MOL0     C80399   3.689   2.701   6.048  0.4492 -0.4154 -0.1969
  610MOL0     C80400   3.578   2.808   6.093  0.3783  0.9428 -1.1188
  610MOL0     C80401   3.600   2.846   6.241  0.0065  0.3539 -0.4535
  610MOL0     C80402   3.481   2.930   6.295 -0.3990 -0.3725 -0.8546
  610MOL0     C80403   3.494   2.937   6.450  0.3447 -0.1135  0.6089
  610MOL0     C80404   3.466   3.081   6.501  0.2208 -0.5059 -0.1560
  610MOL0     N80405   3.567   3.187   6.498  0.2854 -1.0783  0.2188
  610MOL0     C80406   3.555   3.313   6.550  0.4773  0.2683  0.0844
  610MOL0     C80407   3.672   3.372   6.543  0.2224  0.5708  0.8052
  610MOL0     C80408   3.708   3.504   6.612  0.4828 -0.3683  0.1168
  610MOL0     C80409   3.647   3.521   6.754 -0.1708  0.7046 -0.8298
  610MOL0     C80410   3.754   3.573   6.858  0.1603  0.6353  0.4460
  610MOL0     C80411   3.831   3.705   6.834 -0.5583  0.0797  0.6486
  610MOL0     O80412   3.743   3.796   6.773  0.5648 -0.5676  0.1108
  610MOL0     C80413   3.747   3.835   6.642  0.4787  1.1676 -0.3011
  610MOL0     C80414   3.875   3.875   6.597  0.0457  0.4294  0.0237
  610MOL0     C80415   3.879   3.913   6.464 -0.0472 -0.2536 -0.2839
  610MOL0     C80416   3.766   3.935   6.383  0.5440 -0.2253  0.0150
  610MOL0     C80417   3.761   3.978   6.242  0.5295 -0.3973  0.2603
  610MOL0     O80418   3.661   3.951   6.153 -0.4327 -0.3101  0.3374
  610MOL0     C80419   3.680   4.022   6.036  0.4273 -0.0597  0.8320
  610MOL0     C80420   3.656   4.160   6.026 -0.4765 -0.0971 -0.0733
  610MOL0     C80421   3.657   4.230   5.909 -0.0929 -0.1876  0.6229
  610MOL0     C80422   3.696   4.169   5.787 -0.0093 -0.7706 -0.4105
  610MOL0     O80423   3.699   4.234   5.667 -0.6396  0.0790 -0.0386
  610MOL0     C80424   3.590   4.329   5.656 -0.1112  0.2467 -0.4922
  610MOL0     C80425   3.576   4.361   5.508 -0.0997  0.6737  0.0549
  610MOL0     C80426   3.713   4.382   5.434 -0.4977  0.2232 -0.6850
  610MOL0     C80427   3.709   4.422   5.285  0.5373 -0.5244  0.4998
  610MOL0     C80428   3.845   4.402   5.211  0.6459  0.2965  0.6767
  610MOL0     C80429   3.838   4.400   5.056  0.1367  1.0154 -0.3290
  610MOL0     C80430   3.973   4.370   4.983  0.6064 -0.1172 -0.4679
  610MOL0     C80431   3.965   4.346   4.830 -0.6425 -0.8134 -1.3776
  610MOL0    Cl80432   3.838   4.447   4.747 -0.1333  0.3391  0.5552
  610MOL0     C80433   3.724   4.038   5.791 -0.3563  0.2298  0.8003
  610MOL0     C80434   3.713   3.958   5.912 -0.6327 -0.2923  0.3664
  610MOL0     O80435   3.868   4.030   6.211  0.4996 -0.0876  0.0770
  610MOL0     C80436   3.645   3.891   6.440  1.2490  0.3712  0.9929
  610MOL0     C80437   3.635   3.846   6.566 -1.0912 -0.8471  0.5410
  610MOL0     N80438   3.752   3.280   6.478 -0.2716  0.0291 -0.2180
  610MOL0     N80439   3.699   3.164   6.458  0.4732 -0.9271  0.3748
  610MOL0     C80440   3.934   2.290   5.859  0.6893 -0.6859  1.2027
  610MOL0     C80441   4.028   2.240   5.770 -0.1872  0.5137  0.0643
  610MOL0     C80442   4.353   2.235   5.479  0.9982  0.8398 -0.4058
  610MOL0     C80443   4.326   2.136   5.383 -0.7338  0.2798  0.2968
  610MOL0     C80444   4.419   2.106   5.273  0.2945 -1.3579 -1.0282
  610MOL0     C80445   4.547   2.172   5.286  0.1575 -0.1238  0.7692
  610MOL0     O80446   4.648   2.176   5.187  0.0163  0.3628 -0.8015
  610MOL0     C80447   4.650   2.081   5.087 -0.8588  0.2762  0.4510
  610MOL0     C80448   4.739   1.961   5.130  0.0136 -0.4423 -0.1844
  610MOL0     C80449   4.699   1.894   5.259  0.9108 -0.3707 -0.3113
  610MOL0     C80450   4.784   1.767   5.278  0.2957 -0.2448 -0.0557
  610MOL0     C80451   4.930   1.784   5.265  0.1593 -0.2045 -0.2324
  610MOL0     C80452   5.045   1.779   5.235 -0.7530  0.2485 -0.2612
  610MOL0     C80453   4.566   2.264   5.387  0.1422 -0.3374  0.0940
  610MOL0     C80454   4.477   2.305   5.481 -0.6535  1.1611 -0.0036
  610MOL0     H80455   3.953   2.408   5.480  1.0278  1.9318  0.3214
  610MOL0     H80456   3.823   2.533   5.641 -0.0140  0.2396 -1.9528
  610MOL0     H80457   3.818   2.423   6.078  0.0981 -1.8128  0.2121
  610MOL0     H80458   3.661   2.350   6.030 -1.8221  1.5515  4.4638
  610MOL0     H80459   3.677   2.555   6.204 -4.5366 -1.2352  0.7272
  610MOL0     H80460   3.551   2.564   6.082 -0.0019 -0.1069 -1.8361
  610MOL0     H80461   3.705   2.699   5.940  0.6908  1.7727 -0.2501
  610MOL0     H80462   3.785   2.734   6.089  0.2107  0.2284 -0.1423
  610MOL0     H80463   3.588   2.902   6.037  2.1509  0.9620 -0.8217
  610MOL0     H80464   3.475   2.772   6.080  1.0980 -1.5832 -0.2057
  610MOL0     H80465   3.692   2.905   6.243 -0.4301  1.1711  3.5384
  610MOL0     H80466   3.632   2.759   6.299 -1.2974 -0.1581 -0.4652
  610MOL0     H80467   3.386   2.888   6.262 -0.3058 -2.0631  0.8644
  610MOL0     H80468   3.493   3.026   6.244  3.3261  0.4205  1.0905
  610MOL0     H80469   3.420   2.865   6.484 -2.0124  2.6570  1.7764
  610MOL0     H80470   3.595   2.909   6.482  2.6010  4.6233 -1.2570
  610MOL0     H80471   3.438   3.072   6.607 -0.2523  1.3099 -0.0774
  610MOL0     H80472   3.376   3.120   6.451 -1.2488 -2.5965  0.7188
  610MOL0     H80473   3.464   3.354   6.594 -0.3164 -0.1479 -1.1291
  610MOL0     H80474   3.680   3.593   6.555  1.8451 -0.2288 -0.3557
  610MOL0     H80475   3.817   3.507   6.623  0.4601  0.6638  0.1642
  610MOL0     H80476   3.610   3.424   6.789  1.2624  0.7759  1.0856
  610MOL0     H80477   3.568   3.596   6.749  0.8920  2.3515  3.1851
  610MOL0     H80478   3.700   3.575   6.954 -4.2018 -6.5478 -1.0876
  610MOL0     H80479   3.823   3.491   6.878 -1.8338 -0.6849  2.4857
  610MOL0     H80480   3.916   3.693   6.766 -1.5257  0.0791 -0.5886
  610MOL0     H80481   3.867   3.753   6.926  1.3198 -2.6329  1.4542
  610MOL0     H80482   3.961   3.869   6.662 -0.6520 -0.0432  0.9407
  610MOL0     H80483   3.978   3.934   6.425  1.0847 -2.2114  1.3404
  610MOL0     H80484   3.642   4.205   6.123  0.0428 -1.2919  0.5801
  610MOL0     H80485   3.646   4.338   5.907 -1.8178 -0.2073 -4.2509
  610MOL0     H80486   3.608   4.422   5.711 -2.6883  0.9663 -0.7470
  610MOL0     H80487   3.493   4.287   5.683  0.2898  1.2081  2.9951
  610MOL0     H80488   3.517   4.452   5.499 -0.6818  0.3167  0.2296
  610MOL0     H80489   3.521   4.284   5.453 -0.6259  2.0526 -1.4383
  610MOL0     H80490   3.776   4.293   5.440 -0.3355  0.2640 -1.6902
  610MOL0     H80491   3.760   4.466   5.486 -1.1888  0.9380 -1.1916
  610MOL0     H80492   3.642   4.357   5.229  2.5206 -1.1821 -1.2238
  610MOL0     H80493   3.675   4.526   5.277 -0.7167 -1.0318 -1.3711
  610MOL0     H80494   3.897   4.313   5.249  2.3137 -0.3786 -2.7952
  610MOL0     H80495   3.910   4.486   5.236 -1.1444  1.5940  1.2136
  610MOL0     H80496   3.793   4.491   5.016  0.5568  0.2413 -2.6763
  610MOL0     H80497   3.761   4.329   5.026 -1.7269  2.8277 -0.0140
  610MOL0     H80498   4.041   4.455   4.993 -1.0431  1.0546  1.6414
  610MOL0     H80499   4.013   4.278   5.027 -0.5961 -0.0875  0.7484
  610MOL0     H80500   3.944   4.239   4.820  0.4577 -1.7660  3.6414
  610MOL0     H80501   4.061   4.362   4.779 -0.1547 -1.7602 -0.7862
  610MOL0     H80502   3.746   3.983   5.700  1.5410 -1.3148  2.1096
  610MOL0     H80503   3.730   3.851   5.916  3.1421  0.2053  1.1272
  610MOL0     H80504   3.554   3.914   6.385  1.2963 -1.1013  0.2423
  610MOL0     H80505   3.535   3.817   6.597 -0.5638 -2.0123  1.1971
  610MOL0     H80506   3.939   2.272   5.966 -1.2297  3.3745  2.1897
  610MOL0     H80507   4.101   2.174   5.816  3.0199  2.0275 -2.4122
  610MOL0     H80508   4.229   2.087   5.381  0.9255 -3.3968  1.2444
  610MOL0     H80509   4.400   2.031   5.196  0.3301 -2.3772 -0.0676
  610MOL0     H80510   4.686   2.124   4.994 -0.8132 -2.3208 -0.8231
  610MOL0     H80511   4.550   2.046   5.059 -0.9864  0.6490  0.4366
  610MOL0     H80512   4.733   1.882   5.053  2.9923  1.0280 -2.1203
  610MOL0     H80513   4.842   1.993   5.146 -0.3256  1.9645 -2.2143
  610MOL0     H80514   4.590   1.891   5.257  0.8514  0.6854 -3.6063
  610MOL0     H80515   4.723   1.960   5.343  2.3945  0.7890 -1.5791
  610MOL0     H80516   4.775   1.726   5.379  2.0302  2.7297  1.4486
  610MOL0     H80517   4.740   1.708   5.197  1.4844 -0.8213 -0.2861
  610MOL0     H80518   5.146   1.764   5.202 -1.2860 -1.5366 -1.2370
  610MOL0     H80519   4.660   2.318   5.388  1.0365 -1.8132  1.9009
  610MOL0     H80520   4.494   2.382   5.555  0.1215  0.2578  0.7755
  611MOL0     O80521   6.415   0.007  10.855  0.7895  0.5035 -0.6928
  611MOL0     C80522   6.357  -0.081  10.799  0.5730  0.0292  0.7182
  611MOL0     O80523   6.217  -0.087  10.784 -0.6228 -0.5718  0.4961
  611MOL0     C80524   6.142   0.017  10.827 -0.3832 -0.6198 -0.0226
  611MOL0     C80525   6.051  -0.007  10.933  0.9156  0.0708  0.2047
  611MOL0     C80526   5.957   0.090  10.975  0.3529 -0.2060  0.9104
  611MOL0     C80527   5.961   0.216  10.912  0.0236  0.4758  0.6656
  611MOL0     O80528   5.863   0.308  10.927  1.0819  0.1435  0.0059
  611MOL0     C80529   5.736   0.277  10.869 -0.8578 -0.6067  0.5720
  611MOL0     C80530   5.605   0.321  10.948  0.1994 -0.1083  0.8007
  611MOL0     C80531   5.603   0.472  10.981 -0.2716 -0.1358  0.1461
  611MOL0     C80532   5.483   0.514  11.068 -0.5007  0.1141 -0.7906
  611MOL0     C80533   5.360   0.493  11.002 -0.9234 -1.1793  0.1325
  611MOL0     C80534   5.244   0.553  11.088  0.2331  0.0162 -0.1714
  611MOL0     C80535   5.218   0.697  11.036 -1.0273 -0.5281  0.0905
  611MOL0     C80536   5.180   0.802  11.139  0.8670 -0.2572 -0.9415
  611MOL0     N80537   5.257   0.796  11.268 -0.1392 -0.2872 -0.6713
  611MOL0     C80538   5.389   0.813  11.268  0.3555  0.2158 -0.4001
  611MOL0     C80539   5.436   0.754  11.379 -0.9419  0.5657  0.2626
  611MOL0     C80540   5.580   0.771  11.421 -0.8279 -0.6502  0.2589
  611MOL0     C80541   5.568   0.826  11.572 -0.5427  0.9202  0.3325
  611MOL0     C80542   5.712   0.850  11.635  0.6635  0.9646 -0.4208
  611MOL0     C80543   5.713   0.940  11.752  0.5191  0.9173  0.4134
  611MOL0     O80544   5.682   1.074  11.711  0.7522  0.1975 -0.9778
  611MOL0     C80545   5.675   1.153  11.825 -0.8595  0.4314 -0.5452
  611MOL0     C80546   5.795   1.191  11.877  0.4603 -0.4568 -0.2323
  611MOL0     C80547   5.789   1.282  11.983 -0.1437 -0.9107 -0.3702
  611MOL0     C80548   5.666   1.338  12.035 -0.1075  0.1819 -1.1807
  611MOL0     C80549   5.663   1.428  12.154 -1.2795 -0.2642 -0.6102
  611MOL0     O80550   5.756   1.419  12.256 -0.4887  0.8507  0.1284
  611MOL0     C80551   5.752   1.507  12.354 -0.3325  0.0330 -0.7564
  611MOL0     C80552   5.676   1.488  12.467 -0.0694 -0.0780 -0.4002
  611MOL0     C80553   5.679   1.586  12.565 -0.5112  0.2670 -0.1087
  611MOL0     C80554   5.758   1.701  12.562  0.0533 -0.2822 -0.9972
  611MOL0     O80555   5.769   1.793  12.668  0.2983  0.1636  0.3931
  611MOL0     C80556   5.743   1.747  12.803 -0.4543 -0.7466  0.0200
  611MOL0     C80557   5.767   1.851  12.912  0.0850 -0.1136  0.3060
  611MOL0     C80558   5.921   1.859  12.922 -0.5031  0.2812  0.0500
  611MOL0     C80559   5.948   1.968  13.035  0.6286  0.1637 -0.4696
  611MOL0     C80560   6.088   1.988  13.065  0.0386 -0.9232  0.0607
  611MOL0     C80561   6.102   2.117  13.152 -0.6618  0.4328 -0.5164
  611MOL0     C80562   6.240   2.170  13.184 -0.2524 -0.0818  0.5394
  611MOL0     C80563   6.356   2.072  13.218 -0.1557 -0.1938  0.1282
  611MOL0    Cl80564   6.297   2.002  13.368 -0.1159  0.3248  0.4592
  611MOL0     C80565   5.838   1.716  12.450  0.4278 -0.3397  0.3409
  611MOL0     C80566   5.838   1.619  12.349 -0.9199 -0.5391 -1.0487
  611MOL0     O80567   5.573   1.517  12.158 -0.6318  0.2905  0.1638
  611MOL0     C80568   5.542   1.294  11.978  0.1991 -0.0452  0.4447
  611MOL0     C80569   5.552   1.215  11.863  0.1627  0.2358 -0.0517
  611MOL0     N80570   5.323   0.709  11.448  0.3598  0.0305  0.7172
  611MOL0     N80571   5.216   0.730  11.379 -0.2190 -0.1467  0.0374
  611MOL0     C80572   6.052   0.242  10.807 -0.7369 -0.5398 -0.8167
  611MOL0     C80573   6.146   0.144  10.766 -0.7275 -0.1342  0.4009
  611MOL0     C80574   6.442  -0.187  10.744 -0.3442 -0.8202 -0.9952
  611MOL0     C80575   6.577  -0.158  10.735 -0.0118  0.1556  0.0321
  611MOL0     C80576   6.655  -0.246  10.660  1.1625  0.3812  0.0828
  611MOL0     C80577   6.601  -0.372  10.609  0.4844 -0.2011  1.2188
  611MOL0     O80578   6.674  -0.466  10.543 -0.3745  0.3301  0.3219
  611MOL0     C80579   6.750  -0.562  10.616  0.8371 -0.0522  0.0308
  611MOL0     C80580   6.852  -0.598  10.525  0.4820  1.0304  0.5240
  611MOL0     C80581   6.960  -0.485  10.502 -0.2820 -0.7196 -0.1744
  611MOL0     C80582   7.073  -0.457  10.603  0.1889  0.8594  0.9642
  611MOL0     C80583   7.006  -0.407  10.718 -0.9204 -2.0969  0.3845
  611MOL0     C80584   6.963  -0.341  10.812  0.7729  1.0070  0.2392
  611MOL0     C80585   6.461  -0.401  10.636 -0.3635 -0.3230  0.0243
  611MOL0     C80586   6.379  -0.307  10.700 -0.2593 -0.4997  0.3013
  611MOL0     H80587   6.047  -0.108  10.974  1.5565 -1.3818 -3.0298
  611MOL0     H80588   5.872   0.058  11.034 -1.6786  1.1227 -1.1357
  611MOL0     H80589   5.731   0.169  10.853  0.5428 -0.6552  0.3959
  611MOL0     H80590   5.728   0.329  10.772 -4.3492 -0.2035  0.9218
  611MOL0     H80591   5.605   0.266  11.042 -2.0015 -0.8240  0.4410
  611MOL0     H80592   5.521   0.280  10.892 -0.8700  1.2922  1.3348
  611MOL0     H80593   5.589   0.520  10.884 -1.1982 -1.2824 -0.3046
  611MOL0     H80594   5.684   0.515  11.041 -2.3168  3.5924  0.6099
  611MOL0     H80595   5.478   0.457  11.161 -3.4033  1.9775  0.3338
  611MOL0     H80596   5.484   0.620  11.096  1.6429 -0.8362  3.6561
  611MOL0     H80597   5.344   0.389  10.974  1.2012 -0.8506 -2.8036
  611MOL0     H80598   5.364   0.539  10.903  0.0345 -0.9846  0.2500
  611MOL0     H80599   5.263   0.552  11.196 -0.0199 -1.8388 -0.1040
  611MOL0     H80600   5.150   0.498  11.076 -0.5637  1.6634 -1.9978
  611MOL0     H80601   5.306   0.731  10.980  0.8151 -5.6529 -0.7178
  611MOL0     H80602   5.139   0.699  10.960  0.0208  0.2613 -1.0127
  611MOL0     H80603   5.078   0.785  11.176  1.1741  1.0630  0.6480
  611MOL0     H80604   5.180   0.908  11.110  0.2826  0.3928  1.1980
  611MOL0     H80605   5.458   0.854  11.194 -0.8570  1.0465 -1.1092
  611MOL0     H80606   5.634   0.846  11.362 -1.0653 -0.7256 -0.0571
  611MOL0     H80607   5.643   0.682  11.418  1.7473  1.0341  1.0907
  611MOL0     H80608   5.510   0.756  11.634  0.7472 -1.5749 -1.1128
  611MOL0     H80609   5.510   0.918  11.567 -1.2638  0.4986  0.7752
  611MOL0     H80610   5.754   0.756  11.673 -1.0860 -0.3157 -1.5213
  611MOL0     H80611   5.786   0.891  11.565  3.6326 -0.4250  1.6648
  611MOL0     H80612   5.808   0.934  11.805  0.0016 -1.8151  1.2155
  611MOL0     H80613   5.634   0.908  11.821 -1.4581  0.4365 -1.8946
  611MOL0     H80614   5.882   1.152  11.826  0.5795 -2.7150  1.5328
  611MOL0     H80615   5.872   1.322  12.041 -1.1325 -0.6269  0.8984
  611MOL0     H80616   5.628   1.395  12.495  1.3390 -0.6508  0.2044
  611MOL0     H80617   5.622   1.557  12.653 -0.7757  1.9432  0.2986
  611MOL0     H80618   5.807   1.662  12.826 -0.3941 -0.0039  2.9303
  611MOL0     H80619   5.642   1.707  12.808 -0.5762 -0.3614  0.8514
  611MOL0     H80620   5.718   1.809  13.001  2.3589 -3.5599  0.1237
  611MOL0     H80621   5.722   1.946  12.883 -1.4855 -0.9444 -0.0607
  611MOL0     H80622   5.969   1.890  12.828 -0.5860 -0.9748 -0.4212
  611MOL0     H80623   5.956   1.763  12.959 -1.4481  0.4214  1.3642
  611MOL0     H80624   5.912   2.057  12.981  0.4993 -0.5800 -1.6543
  611MOL0     H80625   5.887   1.960  13.125 -1.8853 -1.1796 -2.1605
  611MOL0     H80626   6.147   2.012  12.976  1.2980  1.5963  1.4843
  611MOL0     H80627   6.146   1.903  13.105  2.8381  1.0437  0.4604
  611MOL0     H80628   6.042   2.104  13.243  0.0632  0.8058  0.0248
  611MOL0     H80629   6.056   2.190  13.085 -0.8142 -1.5670 -2.6947
  611MOL0     H80630   6.274   2.226  13.097 -0.1382  1.2633  1.4254
  611MOL0     H80631   6.238   2.244  13.264 -1.1375  0.1911  0.2690
  611MOL0     H80632   6.455   2.119  13.219  1.2635 -2.9852  1.2986
  611MOL0     H80633   6.370   1.993  13.144 -0.4112 -1.8233  1.7629
  611MOL0     H80634   5.912   1.795  12.446 -0.5564  0.5341 -1.8900
  611MOL0     H80635   5.921   1.633  12.281 -1.7214  2.8642 -1.4856
  611MOL0     H80636   5.442   1.327  12.006  0.6097  2.9024 -1.1023
  611MOL0     H80637   5.463   1.206  11.802  0.3430  0.3345 -0.3321
  611MOL0     H80638   6.052   0.341  10.762  1.5028  0.1555  0.5182
  611MOL0     H80639   6.213   0.174  10.686 -3.4659  2.2452 -1.1829
  611MOL0     H80640   6.625  -0.067  10.769  3.7406 -2.0007  1.0530
  611MOL0     H80641   6.757  -0.210  10.654  1.4892 -0.6330 -0.5713
  611MOL0     H80642   6.684  -0.644  10.646  0.1259 -0.2971 -2.0800
  611MOL0     H80643   6.802  -0.523  10.704  1.2187  1.3792 -0.7882
  611MOL0     H80644   6.919  -0.679  10.554 -1.1515 -1.7785 -2.7212
  611MOL0     H80645   6.813  -0.620  10.425  1.0615 -0.3008  0.5713
  611MOL0     H80646   6.898  -0.399  10.475 -0.2891 -1.0035 -1.0831
  611MOL0     H80647   7.007  -0.523  10.411 -2.0088 -2.8248 -0.2791
  611MOL0     H80648   7.126  -0.550  10.624 -0.8826 -1.0667 -3.6530
  611MOL0     H80649   7.148  -0.391  10.559  1.3734  1.4670  3.7081
  611MOL0     H80650   6.929  -0.282  10.895 -0.3444  2.0990 -0.9616
  611MOL0     H80651   6.423  -0.494  10.597 -1.0075 -1.0099  2.1283
  611MOL0     H80652   6.272  -0.319  10.715  0.1413 -0.6772  3.7283
  612MOL0     O80653   5.699   8.085   9.481 -0.0168 -0.1023  0.0134
  612MOL0     C80654   5.711   8.184   9.409  0.5628  0.0185  0.4960
  612MOL0     O80655   5.738   8.177   9.269 -0.6382  0.2203 -0.1859
  612MOL0     C80656   5.771   8.051   9.220 -0.2360  0.3758  0.6148
  612MOL0     C80657   5.703   7.935   9.239 -0.1868 -0.5298  1.1195
  612MOL0     C80658   5.745   7.814   9.172 -0.7486  0.2815 -1.2979
  612MOL0     C80659   5.865   7.814   9.090 -0.8542 -0.2197  0.8198
  612MOL0     O80660   5.923   7.706   9.039  0.6518  0.4584  0.2110
  612MOL0     C80661   5.899   7.685   8.903  0.1413  0.2368 -0.2505
  612MOL0     C80662   5.954   7.554   8.863 -0.7102 -0.3638 -0.9933
  612MOL0     C80663   5.900   7.427   8.941 -0.3473  0.4211  0.1996
  612MOL0     C80664   5.953   7.297   8.878 -0.6125 -1.0830  0.3571
  612MOL0     C80665   5.880   7.181   8.946  0.0858  0.2178  0.0744
  612MOL0     C80666   5.877   7.181   9.097  0.0863  0.6703 -0.0682
  612MOL0     C80667   5.807   7.044   9.153  0.3472  0.1229  0.3843
  612MOL0     C80668   5.911   6.938   9.170 -0.9468 -0.1876  0.8249
  612MOL0     N80669   5.834   6.821   9.223  0.5481  0.4607 -0.8827
  612MOL0     C80670   5.810   6.803   9.361  0.3127  0.7305  0.5773
  612MOL0     C80671   5.728   6.691   9.356  0.0132  0.1831 -0.5177
  612MOL0     C80672   5.664   6.620   9.465  0.1033  0.0418  1.5904
  612MOL0     C80673   5.655   6.713   9.590  0.4581  0.9724 -0.4069
  612MOL0     C80674   5.590   6.629   9.711  0.5801  0.0713  1.0971
  612MOL0     C80675   5.438   6.625   9.714 -0.5865  0.7583 -0.3256
  612MOL0     O80676   5.404   6.522   9.810 -0.0581 -0.1693 -0.0926
  612MOL0     C80677   5.408   6.391   9.773 -0.7985  0.2510  0.1403
  612MOL0     C80678   5.422   6.332   9.641 -0.6010  0.7028 -0.7582
  612MOL0     C80679   5.428   6.199   9.623  0.4706  0.1653  0.6451
  612MOL0     C80680   5.419   6.112   9.729 -1.0763  0.6696 -0.0920
  612MOL0     C80681   5.404   5.970   9.697 -0.2798  0.2283 -0.2054
  612MOL0     O80682   5.485   5.927   9.596 -0.6778 -0.6469 -0.4993
  612MOL0     C80683   5.513   5.790   9.589 -0.0443  0.0174 -1.0535
  612MOL0     C80684   5.558   5.721   9.708  0.0604  0.9283 -0.5336
  612MOL0     C80685   5.616   5.603   9.691  0.5642 -0.7199 -0.5363
  612MOL0     C80686   5.625   5.537   9.565  0.4238 -0.0777 -1.5837
  612MOL0     O80687   5.690   5.413   9.564  0.3082  0.0675  0.2733
  612MOL0     C80688   5.722   5.352   9.445 -1.5900  1.1660  0.7542
  612MOL0     C80689   5.844   5.423   9.374  0.3065  0.1709 -0.0116
  612MOL0     C80690   5.975   5.425   9.450  0.5472 -0.9358  0.2444
  612MOL0     C80691   6.082   5.513   9.388 -0.0183 -0.7932  0.1438
  612MOL0     C80692   6.053   5.663   9.372 -0.3970 -1.4864  0.6515
  612MOL0     C80693   5.997   5.736   9.503 -0.0924 -0.2921 -0.2256
  612MOL0     C80694   6.099   5.741   9.608 -0.8747  0.8563  0.0232
  612MOL0     C80695   6.033   5.736   9.749  0.0100  0.1778  0.5252
  612MOL0    Cl80696   6.164   5.803   9.853 -0.4835  0.1797  0.0018
  612MOL0     C80697   5.579   5.600   9.448  0.2769  0.7962 -0.8267
  612MOL0     C80698   5.531   5.732   9.461 -0.4635 -0.5046 -0.4690
  612MOL0     O80699   5.321   5.896   9.752 -0.1810  0.2339  0.3277
  612MOL0     C80700   5.407   6.163   9.856 -0.6291  0.6422  0.3405
  612MOL0     C80701   5.400   6.298   9.881  0.6023  0.1579  0.3171
  612MOL0     N80702   5.701   6.653   9.231 -0.7361  0.3644  1.5950
  612MOL0     N80703   5.772   6.725   9.152 -0.0897 -0.3344 -0.5931
  612MOL0     C80704   5.935   7.925   9.075  0.3806 -0.6150  0.1639
  612MOL0     C80705   5.893   8.044   9.144  0.4934 -1.1172 -0.4292
  612MOL0     C80706   5.695   8.321   9.465 -1.0913 -0.1806  0.3528
  612MOL0     C80707   5.697   8.424   9.380  0.2961  0.2698 -0.5270
  612MOL0     C80708   5.686   8.555   9.426 -0.3396  0.1730  0.5910
  612MOL0     C80709   5.666   8.577   9.559  0.8916 -0.9088 -0.7006
  612MOL0     O80710   5.644   8.698   9.611  0.4124 -0.9946 -0.1832
  612MOL0     C80711   5.550   8.731   9.721  0.1885  0.8910  0.1535
  612MOL0     C80712   5.406   8.701   9.674  1.2505  1.5710  0.2641
  612MOL0     C80713   5.308   8.818   9.673 -0.1674  0.3580  0.1612
  612MOL0     C80714   5.306   8.901   9.811  0.9173  0.2387 -1.1872
  612MOL0     C80715   5.221   9.019   9.800  0.9710 -0.6192 -1.0293
  612MOL0     C80716   5.150   9.110   9.788  0.7351 -0.0328  0.4099
  612MOL0     C80717   5.664   8.463   9.644 -0.5963 -0.8654 -0.3625
  612MOL0     C80718   5.682   8.335   9.602 -0.2502  0.6228 -0.3743
  612MOL0     H80719   5.605   7.930   9.285 -2.6611 -3.5596 -3.7033
  612MOL0     H80720   5.700   7.723   9.212  0.5227  0.4697  0.7320
  612MOL0     H80721   5.955   7.764   8.852  0.0534 -0.5171 -1.5596
  612MOL0     H80722   5.796   7.696   8.869  0.6617  0.5954 -1.7931
  612MOL0     H80723   6.063   7.551   8.876 -0.8303 -3.1355  0.0956
  612MOL0     H80724   5.933   7.530   8.758  1.9035 -1.0261 -1.4460
  612MOL0     H80725   5.790   7.425   8.943 -0.5118  1.4392 -2.8198
  612MOL0     H80726   5.935   7.415   9.044 -1.2953 -1.5432  0.3405
  612MOL0     H80727   5.951   7.286   8.769 -1.0332 -0.9205  0.3471
  612MOL0     H80728   6.059   7.292   8.905 -0.5823 -1.1870  0.2157
  612MOL0     H80729   5.918   7.082   8.918  0.2208 -0.4412  2.4097
  612MOL0     H80730   5.778   7.176   8.907  0.1378  0.3750 -0.0836
  612MOL0     H80731   5.826   7.272   9.131 -1.5118  0.3779 -1.5311
  612MOL0     H80732   5.969   7.186   9.156 -0.2481 -1.8515  0.7721
  612MOL0     H80733   5.766   7.078   9.248  1.4616  0.9913  0.5685
  612MOL0     H80734   5.730   7.012   9.081  0.1827  0.5158  0.3846
  612MOL0     H80735   5.992   6.953   9.242  2.2563 -0.6866 -2.3879
  612MOL0     H80736   5.952   6.913   9.072 -2.7063  1.9484 -0.5433
  612MOL0     H80737   5.845   6.854   9.449 -1.0304 -2.7188  3.3588
  612MOL0     H80738   5.727   6.531   9.475  1.2312  0.9007  2.2499
  612MOL0     H80739   5.561   6.589   9.445  0.5300 -1.8945  2.1761
  612MOL0     H80740   5.590   6.798   9.568  1.2177  2.1222  1.5137
  612MOL0     H80741   5.748   6.747   9.637 -0.5193 -0.0537  2.4313
  612MOL0     H80742   5.629   6.527   9.697  0.9295  0.4746 -1.4499
  612MOL0     H80743   5.626   6.669   9.805 -0.8243  2.2013  0.7830
  612MOL0     H80744   5.397   6.614   9.613  2.3861  2.3211 -1.8491
  612MOL0     H80745   5.388   6.716   9.748 -2.7390 -0.2672 -0.5188
  612MOL0     H80746   5.442   6.400   9.559 -0.5251  1.2871 -0.2696
  612MOL0     H80747   5.435   6.158   9.523  1.3144  0.1489  0.7006
  612MOL0     H80748   5.536   5.754   9.809 -1.2856  1.6834 -1.0411
  612MOL0     H80749   5.644   5.553   9.783  1.2482  1.1076  0.3081
  612MOL0     H80750   5.640   5.348   9.373  1.8602 -1.7987 -3.5693
  612MOL0     H80751   5.734   5.244   9.463  0.3564  0.7241 -2.3692
  612MOL0     H80752   5.816   5.522   9.337  0.3944 -0.3341 -1.4619
  612MOL0     H80753   5.884   5.377   9.284  1.5022  3.4068 -1.2867
  612MOL0     H80754   6.011   5.322   9.444  0.5827 -0.9023 -0.1552
  612MOL0     H80755   5.970   5.458   9.554  2.3748 -0.3921  0.1829
  612MOL0     H80756   6.177   5.495   9.439  0.2803 -0.5654 -0.3220
  612MOL0     H80757   6.089   5.480   9.284 -0.4978  2.6811 -1.1159
  612MOL0     H80758   5.976   5.671   9.294  0.3312 -1.0034 -0.0455
  612MOL0     H80759   6.141   5.716   9.333  0.5069 -2.9566  0.6121
  612MOL0     H80760   5.906   5.687   9.540 -0.3890 -0.8937 -1.6717
  612MOL0     H80761   5.977   5.841   9.483  0.2774 -0.4545 -1.5365
  612MOL0     H80762   6.164   5.655   9.586 -3.9222 -1.5651 -0.1757
  612MOL0     H80763   6.166   5.827   9.603 -0.2515  0.6136  2.6749
  612MOL0     H80764   6.009   5.636   9.786 -1.7103  1.5910  3.5760
  612MOL0     H80765   5.946   5.802   9.750 -1.9021 -1.8604 -3.3612
  612MOL0     H80766   5.578   5.561   9.346 -2.2349  1.1992 -1.0007
  612MOL0     H80767   5.485   5.787   9.380  0.8279 -0.7567 -1.4102
  612MOL0     H80768   5.399   6.091   9.937  2.7382 -1.5948 -1.1266
  612MOL0     H80769   5.381   6.327   9.984 -0.8859 -5.3302  1.9130
  612MOL0     H80770   6.021   7.914   9.010  0.2201 -0.6129 -0.0533
  612MOL0     H80771   5.944   8.139   9.154 -4.8097  1.7827  4.3034
  612MOL0     H80772   5.711   8.420   9.273 -2.8186 -0.5554 -0.9997
  612MOL0     H80773   5.688   8.639   9.356 -5.2848  1.4611  1.6464
  612MOL0     H80774   5.562   8.837   9.744  0.7703  1.2996 -1.8135
  612MOL0     H80775   5.574   8.680   9.815 -3.0383  0.3871  0.8128
  612MOL0     H80776   5.407   8.665   9.571  0.9804 -2.4073  1.4834
  612MOL0     H80777   5.357   8.626   9.737  1.2577  0.1467 -1.3629
  612MOL0     H80778   5.213   8.782   9.634  0.2950 -2.6586  1.5615
  612MOL0     H80779   5.351   8.878   9.593 -0.0128 -2.4813 -2.0354
  612MOL0     H80780   5.262   8.842   9.893 -1.1801 -0.8660 -3.0171
  612MOL0     H80781   5.403   8.934   9.849 -0.4163  0.3619  2.4903
  612MOL0     H80782   5.083   9.189   9.761  0.9978  1.3524  3.4034
  612MOL0     H80783   5.651   8.477   9.751 -0.5439 -2.3382 -0.1481
  612MOL0     H80784   5.679   8.253   9.673 -0.1951 -0.2034 -1.3136
  613MOL0     O80785  10.967   1.460   1.984 -0.3331  0.6097 -0.3309
  613MOL0     C80786  11.032   1.411   2.079 -0.1315  0.0798  0.5059
  613MOL0     O80787  11.122   1.300   2.085 -0.7912 -0.5608  1.1835
  613MOL0     C80788  11.152   1.226   1.969  1.1056 -0.6230  0.6953
  613MOL0     C80789  11.108   1.242   1.833  0.5743 -0.2060  0.2019
  613MOL0     C80790  11.139   1.153   1.727 -0.3200  0.2252 -0.1627
  613MOL0     C80791  11.206   1.038   1.758 -0.0730  1.1147 -0.7179
  613MOL0     O80792  11.221   0.926   1.675 -0.6376  0.9480 -0.6890
  613MOL0     C80793  11.124   0.899   1.571 -0.7530 -0.6989  0.1182
  613MOL0     C80794  11.168   0.974   1.441  0.4243  0.4461  0.9499
  613MOL0     C80795  11.059   0.951   1.335  0.3185 -1.2277  0.3525
  613MOL0     C80796  11.098   1.027   1.207  0.2451 -0.1671 -0.1796
  613MOL0     C80797  11.040   1.172   1.204  0.1770  0.7058  0.4285
  613MOL0     C80798  11.065   1.240   1.067 -0.2278 -0.6211 -0.4413
  613MOL0     C80799  11.018   1.389   1.088 -0.1707  0.1277  0.2285
  613MOL0     C80800  11.108   1.466   1.181  0.5369 -0.4180  0.2061
  613MOL0     N80801  11.103   1.613   1.181 -0.2664  0.1896 -0.7347
  613MOL0     C80802  11.176   1.696   1.101 -0.5048  0.7296 -0.4547
  613MOL0     C80803  11.121   1.817   1.121  0.6284  0.3453  0.1538
  613MOL0     C80804  11.152   1.951   1.061 -0.7409 -0.0072  0.1782
  613MOL0     C80805  11.267   2.024   1.139  0.0982  0.2188  0.5971
  613MOL0     C80806  11.217   2.066   1.279 -0.1852  0.8326 -0.1905
  613MOL0     C80807  11.292   2.176   1.345 -0.4906 -0.5782 -0.7347
  613MOL0     O80808  11.426   2.139   1.392  0.6286 -0.2359 -0.2691
  613MOL0     C80809  11.537   2.170   1.317 -0.1845 -0.0720  0.2390
  613MOL0     C80810  11.663   2.141   1.371  0.7809  0.2215 -0.2843
  613MOL0     C80811  11.790   2.177   1.308 -0.6981 -0.1617  0.0080
  613MOL0     C80812  11.789   2.245   1.183  0.6989  0.7647  0.3937
  613MOL0     C80813  11.913   2.290   1.119  0.1213  0.3175 -0.1202
  613MOL0     O80814  12.017   2.202   1.141  0.2308  1.0421  0.6097
  613MOL0     C80815  12.144   2.235   1.105 -0.7276  0.2584  0.1465
  613MOL0     C80816  12.241   2.123   1.087 -0.0364 -0.1878 -0.0668
  613MOL0     C80817  12.376   2.155   1.089 -0.6403 -0.2013  0.0089
  613MOL0     C80818  12.425   2.283   1.097 -0.6600 -0.6246  0.1117
  613MOL0     O80819  12.562   2.289   1.095  0.3249  0.1448  0.4048
  613MOL0     C80820  12.632   2.417   1.092 -0.1776  0.6053 -0.0439
  613MOL0     C80821  12.789   2.411   1.096 -0.1622 -0.5662 -0.1721
  613MOL0     C80822  12.831   2.333   1.224 -0.2606 -0.1185  0.2581
  613MOL0     C80823  12.979   2.358   1.268  0.3069  0.6195  0.1964
  613MOL0     C80824  13.003   2.309   1.407 -0.2920 -0.4578  1.0669
  613MOL0     C80825  13.147   2.360   1.451  0.1954  0.2866  0.2278
  613MOL0     C80826  13.182   2.350   1.602  0.1515  0.6112 -0.1544
  613MOL0     C80827  13.198   2.203   1.653 -0.4637 -0.4753  0.1822
  613MOL0    Cl80828  13.167   2.203   1.830  0.4239  0.1419 -0.1392
  613MOL0     C80829  12.330   2.379   1.101 -0.2231 -0.4036  0.3860
  613MOL0     C80830  12.195   2.353   1.113  0.6190 -0.3034 -0.4153
  613MOL0     O80831  11.912   2.409   1.075 -0.2536 -0.3774  0.4287
  613MOL0     C80832  11.662   2.274   1.131 -0.3598 -0.2888  0.5533
  613MOL0     C80833  11.541   2.237   1.190 -0.3334 -0.5233 -0.6681
  613MOL0     N80834  11.037   1.807   1.229 -0.6164  0.1518  0.2332
  613MOL0     N80835  11.034   1.691   1.275 -0.2326  0.4619 -0.4764
  613MOL0     C80836  11.255   1.026   1.896 -0.5814 -0.3157  0.2706
  613MOL0     C80837  11.225   1.117   1.997 -0.7905  0.5093 -0.0764
  613MOL0     C80838  11.036   1.480   2.208  0.7130 -0.3732  0.1071
  613MOL0     C80839  10.965   1.596   2.227  0.5410  0.0233  0.1305
  613MOL0     C80840  10.971   1.674   2.340  0.3527  0.2179 -0.7821
  613MOL0     C80841  11.033   1.631   2.458  0.1059  0.3940 -0.0184
  613MOL0     O80842  11.018   1.715   2.571  0.7920  0.5811 -0.2201
  613MOL0     C80843  10.950   1.643   2.678 -0.3796 -0.3063  0.8743
  613MOL0     C80844  10.932   1.743   2.796 -0.4425  0.4337 -0.2318
  613MOL0     C80845  11.059   1.829   2.818  0.0747 -1.2501  1.0355
  613MOL0     C80846  11.052   1.871   2.971  0.0048  0.3497  0.2461
  613MOL0     C80847  10.947   1.971   2.998 -0.3648  0.1272 -1.1099
  613MOL0     C80848  10.858   2.054   3.031  0.0637 -0.5893  0.2410
  613MOL0     C80849  11.107   1.512   2.450 -1.4020 -0.0467  0.3535
  613MOL0     C80850  11.112   1.433   2.326 -0.5131 -1.0594  0.1805
  613MOL0     H80851  11.050   1.329   1.802  1.0621  0.5251  1.3024
  613MOL0     H80852  11.110   1.177   1.625  0.1014  1.4021 -0.0185
  613MOL0     H80853  11.024   0.935   1.598 -0.4495  1.0542 -0.9033
  613MOL0     H80854  11.111   0.792   1.553 -0.2042 -0.5465 -1.3436
  613MOL0     H80855  11.252   0.920   1.398 -1.6883 -2.4420  0.1136
  613MOL0     H80856  11.184   1.079   1.467 -1.1023  0.6764  1.0564
  613MOL0     H80857  10.964   0.986   1.375  1.4108  0.6637  1.4493
  613MOL0     H80858  11.049   0.846   1.306  2.3555 -0.6773 -2.8353
  613MOL0     H80859  11.205   1.009   1.194  0.2660 -0.9494  0.9117
  613MOL0     H80860  11.051   0.982   1.119 -1.2776 -0.1623  0.5931
  613MOL0     H80861  11.099   1.218   1.284 -2.0423 -0.2753  2.7549
  613MOL0     H80862  10.939   1.175   1.244 -0.0651  3.9317 -0.0819
  613MOL0     H80863  11.019   1.190   0.982  4.0128 -1.7076 -2.3508
  613MOL0     H80864  11.174   1.239   1.057  0.0391  2.9174  0.7001
  613MOL0     H80865  11.007   1.448   0.996 -1.4610 -1.6574 -0.8136
  613MOL0     H80866  10.919   1.381   1.134  0.3434 -1.1697  1.1907
  613MOL0     H80867  11.207   1.442   1.140  0.3980 -0.0810 -0.3436
  613MOL0     H80868  11.085   1.424   1.279  0.4622  0.5503  0.6093
  613MOL0     H80869  11.254   1.672   1.030  1.1204 -0.6470  1.6778
  613MOL0     H80870  11.063   2.015   1.061  0.6211  2.1177 -2.6735
  613MOL0     H80871  11.191   1.947   0.959  2.4589  2.2429  1.1534
  613MOL0     H80872  11.288   2.117   1.086  1.2319 -0.2126  0.2714
  613MOL0     H80873  11.348   1.951   1.135 -0.9109 -0.9632  1.1997
  613MOL0     H80874  11.112   2.096   1.278 -0.3124  0.4133 -1.3446
  613MOL0     H80875  11.220   1.984   1.351  0.7670 -1.2654 -2.4565
  613MOL0     H80876  11.232   2.217   1.427  1.8955  0.0990  0.7652
  613MOL0     H80877  11.299   2.265   1.281  0.4174  0.4579  0.7604
  613MOL0     H80878  11.651   2.104   1.472  1.6989  1.5420  0.3446
  613MOL0     H80879  11.876   2.165   1.372  2.2089  1.8940 -3.1675
  613MOL0     H80880  12.207   2.021   1.075 -3.7262  0.8318  0.5121
  613MOL0     H80881  12.446   2.077   1.060  0.3372  1.1947 -1.5742
  613MOL0     H80882  12.606   2.481   1.177  1.6885 -0.2456  1.2256
  613MOL0     H80883  12.603   2.463   0.997 -0.9510 -2.6409 -1.5143
  613MOL0     H80884  12.822   2.515   1.088  0.9434 -0.8847  0.1124
  613MOL0     H80885  12.820   2.362   1.003 -1.7547  0.3747 -1.2670
  613MOL0     H80886  12.798   2.230   1.208  1.1971 -1.1526  3.1986
  613MOL0     H80887  12.770   2.366   1.309  1.5254 -0.1777  1.6248
  613MOL0     H80888  13.047   2.305   1.201 -0.5629 -0.0752 -0.1675
  613MOL0     H80889  13.004   2.464   1.267  1.7203  0.3410  1.6793
  613MOL0     H80890  13.004   2.200   1.410 -1.0679 -0.5215 -0.2887
  613MOL0     H80891  12.923   2.350   1.469  0.4988  2.2671  0.4328
  613MOL0     H80892  13.168   2.456   1.403  0.8928  0.5951  1.1054
  613MOL0     H80893  13.216   2.293   1.399  2.7523 -0.1264  3.7355
  613MOL0     H80894  13.276   2.400   1.626  0.8341 -1.8329  2.9724
  613MOL0     H80895  13.100   2.394   1.659  1.6598  0.2843  2.4270
  613MOL0     H80896  13.295   2.166   1.618  2.3877  4.3356  1.9178
  613MOL0     H80897  13.127   2.136   1.604 -2.6579 -0.1108  2.6532
  613MOL0     H80898  12.373   2.475   1.130  1.1024 -1.3771  1.7853
  613MOL0     H80899  12.129   2.430   1.153  2.2994  0.9623  0.0160
  613MOL0     H80900  11.666   2.320   1.033  1.7717  1.2265  1.2702
  613MOL0     H80901  11.450   2.276   1.147 -0.0310  2.3237  1.0032
  613MOL0     H80902  11.325   0.949   1.926 -1.2619  0.0873  3.2300
  613MOL0     H80903  11.265   1.116   2.097 -0.0243  7.0497  0.1658
  613MOL0     H80904  10.918   1.642   2.141  0.0198  1.8043  1.3267
  613MOL0     H80905  10.905   1.759   2.354  0.3067  0.0606 -0.0154
  613MOL0     H80906  11.007   1.556   2.712  0.1628 -0.0182  0.7208
  613MOL0     H80907  10.857   1.609   2.633  0.8836 -1.4925 -1.0165
  613MOL0     H80908  10.848   1.808   2.768 -0.5799 -0.7895 -3.0180
  613MOL0     H80909  10.914   1.680   2.883  1.8655 -1.3509 -0.9447
  613MOL0     H80910  11.061   1.917   2.754  1.0549 -3.1304 -1.7150
  613MOL0     H80911  11.154   1.776   2.802 -0.3365 -1.7861  0.3356
  613MOL0     H80912  11.053   1.783   3.035 -1.7808  0.5799  0.6323
  613MOL0     H80913  11.148   1.921   2.987 -0.4213  0.3616  3.3180
  613MOL0     H80914  10.784   2.131   3.040 -2.0014 -2.5941  1.1655
  613MOL0     H80915  11.143   1.465   2.541  3.0197 -0.9213 -1.6267
  613MOL0     H80916  11.179   1.347   2.325  1.4380  0.2913 -3.4941
  614MOL0     O80917   3.778   0.150  11.400  0.1059 -0.5377  0.0285
  614MOL0     C80918   3.721   0.252  11.369 -1.0801 -0.4319 -0.7061
  614MOL0     O80919   3.780   0.377  11.366 -0.6228 -0.4530 -0.1947
  614MOL0     C80920   3.916   0.385  11.382 -0.4089 -0.3046  0.1713
  614MOL0     C80921   3.979   0.460  11.298 -0.5897  0.6270 -0.1579
  614MOL0     C80922   4.121   0.483  11.305  0.3038 -0.2577  0.4149
  614MOL0     C80923   4.193   0.418  11.404  0.7216  0.0426 -0.7921
  614MOL0     O80924   4.333   0.422  11.419 -0.4587 -0.9735 -0.2587
  614MOL0     C80925   4.392   0.555  11.397  0.3951 -0.8318  0.0372
  614MOL0     C80926   4.538   0.543  11.436 -0.2557  1.1783 -0.5577
  614MOL0     C80927   4.560   0.455  11.569 -0.1474 -0.4766 -0.2613
  614MOL0     C80928   4.710   0.433  11.588  0.7456  0.0427 -0.2590
  614MOL0     C80929   4.721   0.336  11.709  0.1098  0.0613  0.0065
  614MOL0     C80930   4.868   0.295  11.726 -0.5765 -0.1730 -0.1687
  614MOL0     C80931   4.894   0.201  11.838 -0.0975 -0.3997  0.3158
  614MOL0     C80932   5.047   0.166  11.867 -0.3211 -0.1801  0.2430
  614MOL0     N80933   5.149   0.194  11.761  0.3741 -0.0042 -0.2579
  614MOL0     C80934   5.206   0.321  11.734  0.1192 -0.8107  0.2717
  614MOL0     C80935   5.280   0.291  11.626  0.2259  0.1704  0.3032
  614MOL0     C80936   5.350   0.391  11.548  0.1667 -0.0534  0.3434
  614MOL0     C80937   5.497   0.409  11.585 -0.4113 -0.4085  0.2708
  614MOL0     C80938   5.524   0.387  11.741  0.4100 -0.1740  0.9200
  614MOL0     C80939   5.677   0.416  11.774  0.8028 -0.1056 -0.4537
  614MOL0     O80940   5.787   0.332  11.723 -0.0068  0.9452 -0.1364
  614MOL0     C80941   5.870   0.399  11.639  0.6581  0.1589 -0.0447
  614MOL0     C80942   5.888   0.353  11.507 -0.7388  0.0552 -0.2479
  614MOL0     C80943   5.986   0.412  11.427 -0.8747  0.3775  0.4806
  614MOL0     C80944   6.068   0.516  11.472  0.7431 -0.2470  1.2746
  614MOL0     C80945   6.165   0.578  11.379  0.5289  0.3208 -0.5282
  614MOL0     O80946   6.123   0.575  11.246  0.1348 -0.4324 -0.6262
  614MOL0     C80947   6.219   0.623  11.161 -0.3140  0.2832  0.8430
  614MOL0     C80948   6.347   0.565  11.149 -1.1830 -0.8438 -0.9244
  614MOL0     C80949   6.435   0.611  11.058 -0.0861 -0.8272 -0.2729
  614MOL0     C80950   6.414   0.729  10.984  0.0088 -0.1596  0.1990
  614MOL0     O80951   6.514   0.773  10.901 -0.2962  0.0830 -0.2059
  614MOL0     C80952   6.494   0.897  10.817 -0.0934 -0.5315  0.5252
  614MOL0     C80953   6.415   0.857  10.684 -0.4769 -0.8625  0.5458
  614MOL0     C80954   6.377   0.974  10.586  0.9739 -0.2309 -0.3216
  614MOL0     C80955   6.510   1.031  10.524  0.8729  0.2733 -0.6850
  614MOL0     C80956   6.491   1.157  10.440  0.2835  0.3906 -0.6673
  614MOL0     C80957   6.621   1.179  10.366  0.4695 -0.4525 -0.9695
  614MOL0     C80958   6.615   1.298  10.265 -0.3489  0.5723  0.2256
  614MOL0     C80959   6.753   1.311  10.191  0.2171 -0.2125 -0.8293
  614MOL0    Cl80960   6.878   1.388  10.305  0.2814 -0.1151  0.3244
  614MOL0     C80961   6.288   0.784  10.996 -1.1177  0.3716 -0.4130
  614MOL0     C80962   6.196   0.741  11.090  0.1902  0.8302  0.0849
  614MOL0     O80963   6.273   0.606  11.422 -0.2008 -0.3038 -0.9737
  614MOL0     C80964   6.046   0.560  11.613  0.4821  0.4028  0.3762
  614MOL0     C80965   5.952   0.495  11.696 -0.0296 -0.0310  0.0678
  614MOL0     N80966   5.263   0.155  11.590  0.2822 -0.2550 -0.2603
  614MOL0     N80967   5.186   0.099  11.674 -0.2588  0.2095 -0.6160
  614MOL0     C80968   4.128   0.323  11.482  0.4026 -0.1177  0.4362
  614MOL0     C80969   3.987   0.321  11.485  0.4443  0.3169 -0.1671
  614MOL0     C80970   3.578   0.238  11.370  0.9350  0.3836 -0.1632
  614MOL0     C80971   3.505   0.128  11.412 -0.6144 -0.5082  0.1404
  614MOL0     C80972   3.365   0.127  11.425 -0.3145 -0.8682 -1.1885
  614MOL0     C80973   3.286   0.233  11.375 -0.3074 -0.1211  0.8025
  614MOL0     O80974   3.154   0.219  11.377  0.9370  0.1326 -0.0447
  614MOL0     C80975   3.076   0.337  11.341 -0.1285  0.6310 -0.1535
  614MOL0     C80976   2.928   0.309  11.388  0.3738 -0.3993  0.6053
  614MOL0     C80977   2.854   0.446  11.381  1.1517  1.0362  0.8893
  614MOL0     C80978   2.704   0.433  11.425  0.0555 -0.0087  0.7923
  614MOL0     C80979   2.632   0.351  11.323  0.1248  0.4119  0.4041
  614MOL0     C80980   2.579   0.295  11.227 -0.0759 -0.3369  0.1616
  614MOL0     C80981   3.359   0.338  11.326 -0.1842 -0.7380 -0.5654
  614MOL0     C80982   3.497   0.342  11.319 -0.7591 -0.0188 -1.5301
  614MOL0     H80983   3.927   0.517  11.222 -1.6445  0.6670  0.5683
  614MOL0     H80984   4.166   0.543  11.227  1.4184 -1.5274  0.0374
  614MOL0     H80985   4.353   0.630  11.467  0.1694 -0.6900 -0.2404
  614MOL0     H80986   4.383   0.584  11.292  0.2005  3.7054  1.1093
  614MOL0     H80987   4.574   0.640  11.472 -1.5492  1.3858  0.2647
  614MOL0     H80988   4.590   0.506  11.347 -0.1540 -1.6704  0.5788
  614MOL0     H80989   4.514   0.357  11.556 -1.6037 -0.1748  2.0084
  614MOL0     H80990   4.508   0.504  11.652 -0.9818 -0.3736 -0.8421
  614MOL0     H80991   4.751   0.392  11.496 -1.2291 -1.0898 -0.6808
  614MOL0     H80992   4.762   0.528  11.601 -0.0684  0.6872 -1.5522
  614MOL0     H80993   4.666   0.244  11.688 -0.9530  0.7329 -0.2144
  614MOL0     H80994   4.695   0.383  11.804  0.7154  0.9935 -0.2734
  614MOL0     H80995   4.925   0.387  11.739 -1.2055  0.2962 -0.6396
  614MOL0     H80996   4.905   0.254  11.632 -1.7446 -0.0201 -0.7134
  614MOL0     H80997   4.869   0.243  11.936  2.8823 -0.2252  1.1092
  614MOL0     H80998   4.842   0.106  11.827  0.2016 -0.4665 -0.5667
  614MOL0     H80999   5.056   0.059  11.886  2.1029  0.1769  1.4146
  614MOL0     H81000   5.074   0.219  11.959 -2.0875  0.1164  0.6414
  614MOL0     H81001   5.201   0.417  11.784  4.4894 -0.2881  0.0768
  614MOL0     H81002   5.299   0.486  11.564  1.5347  0.4338  2.0910
  614MOL0     H81003   5.328   0.365  11.444 -2.0175 -1.0419  0.9862
  614MOL0     H81004   5.521   0.514  11.566 -0.4983 -0.4601 -0.1494
  614MOL0     H81005   5.565   0.361  11.513 -2.6923 -0.9402 -1.6606
  614MOL0     H81006   5.476   0.470  11.794  1.2659  1.7372 -1.1104
  614MOL0     H81007   5.491   0.294  11.788  1.3077 -0.5519  0.8198
  614MOL0     H81008   5.693   0.403  11.881 -2.2698 -0.1917  0.0878
  614MOL0     H81009   5.705   0.521  11.768  1.2378  0.2405  4.0951
  614MOL0     H81010   5.825   0.275  11.466 -0.9523 -0.3597  0.8352
  614MOL0     H81011   5.988   0.388  11.321 -0.2855  2.5964 -0.0499
  614MOL0     H81012   6.375   0.482  11.212 -2.2052  0.0007  0.7086
  614MOL0     H81013   6.527   0.555  11.051 -1.1366 -2.7011  0.0607
  614MOL0     H81014   6.593   0.935  10.789 -0.0933 -0.0295  1.1673
  614MOL0     H81015   6.438   0.975  10.870  2.5157  0.8562  1.4164
  614MOL0     H81016   6.318   0.826  10.723 -1.5927  2.2003  0.4998
  614MOL0     H81017   6.462   0.775  10.629  1.2205 -0.0498  0.6908
  614MOL0     H81018   6.322   1.054  10.636  0.8089  0.6275 -1.8091
  614MOL0     H81019   6.309   0.925  10.515 -0.1080 -4.3802  3.1588
  614MOL0     H81020   6.589   1.050  10.596 -0.2741  1.8384  0.2099
  614MOL0     H81021   6.536   0.948  10.457 -0.5104 -1.6245  1.0179
  614MOL0     H81022   6.474   1.244  10.504  2.9644 -1.1741  2.4573
  614MOL0     H81023   6.407   1.148  10.371 -0.0528 -0.7367 -0.1389
  614MOL0     H81024   6.646   1.088  10.311  1.4781  0.7173 -2.5232
  614MOL0     H81025   6.698   1.198  10.441 -1.9105  0.7775  1.3368
  614MOL0     H81026   6.531   1.287  10.195 -3.6950 -0.0116  3.9609
  614MOL0     H81027   6.601   1.396  10.312 -2.2305  1.0435 -1.1773
  614MOL0     H81028   6.747   1.387  10.112  0.2701  2.9303  1.9353
  614MOL0     H81029   6.787   1.210  10.168 -1.4830 -1.2221  0.8197
  614MOL0     H81030   6.271   0.878  10.944 -4.6794  0.0631 -0.0661
  614MOL0     H81031   6.109   0.786  11.138  0.9430  0.2698  2.0846
  614MOL0     H81032   6.115   0.636  11.648  1.0955 -0.2443  0.6240
  614MOL0     H81033   5.935   0.519  11.801  0.7733  1.3454 -0.0855
  614MOL0     H81034   4.179   0.249  11.542 -0.7648  0.7541  2.6260
  614MOL0     H81035   3.940   0.254  11.557  0.1495 -0.6293 -1.2212
  614MOL0     H81036   3.548   0.032  11.440  1.9987  0.7005  0.6180
  614MOL0     H81037   3.317   0.040  11.470  0.7224 -1.4760 -1.2442
  614MOL0     H81038   3.078   0.356  11.233 -0.3534  0.2607 -0.2270
  614MOL0     H81039   3.119   0.424  11.390 -1.4128  0.5899  1.1380
  614MOL0     H81040   2.880   0.236  11.322  0.7511 -0.5608  0.5064
  614MOL0     H81041   2.926   0.270  11.490 -1.3981 -2.6112 -0.1968
  614MOL0     H81042   2.861   0.491  11.282 -1.7823  2.6804  1.3287
  614MOL0     H81043   2.908   0.512  11.450  2.3660  1.2410 -0.2148
  614MOL0     H81044   2.705   0.376  11.519  1.1220  0.7553  1.2589
  614MOL0     H81045   2.657   0.531  11.431 -2.5667 -1.0897 -0.2973
  614MOL0     H81046   2.543   0.232  11.149 -2.8420  2.4955 -1.0492
  614MOL0     H81047   3.316   0.433  11.297  0.0910 -1.0663 -2.1509
  614MOL0     H81048   3.555   0.430  11.293  0.3323 -0.9195 -2.2563
  615MOL0     O81049   2.512   5.504   0.118  0.7448  0.2174  0.0128
  615MOL0     C81050   2.525   5.524   0.241 -0.8373 -0.8104 -0.0926
  615MOL0     O81051   2.645   5.572   0.300  0.0810  0.1473 -1.1938
  615MOL0     C81052   2.757   5.608   0.222  0.3573 -0.8113  0.1699
  615MOL0     C81053   2.889   5.615   0.279 -0.3372 -0.8288  0.1617
  615MOL0     C81054   2.996   5.666   0.206  0.1254  0.5680  0.4078
  615MOL0     C81055   2.977   5.707   0.069 -0.2043  0.6513 -1.0874
  615MOL0     O81056   3.082   5.773   0.004 -0.4614  0.1611 -0.0144
  615MOL0     C81057   3.094   5.751  -0.139 -0.6370 -0.3396 -0.0913
  615MOL0     C81058   3.240   5.794  -0.173 -0.2123  0.0570 -0.6253
  615MOL0     C81059   3.282   5.787  -0.318 -0.4644  0.0626 -0.0821
  615MOL0     C81060   3.434   5.769  -0.333  0.1266 -0.5236 -1.1232
  615MOL0     C81061   3.478   5.779  -0.470 -0.5727 -0.7727  0.9039
  615MOL0     C81062   3.630   5.752  -0.492 -0.4657  0.0857 -0.3093
  615MOL0     C81063   3.721   5.844  -0.407  0.0414 -0.0699 -0.2056
  615MOL0     C81064   3.872   5.872  -0.452  0.6945  0.3463  0.0998
  615MOL0     N81065   3.943   5.742  -0.433  0.5737 -0.3764 -0.7759
  615MOL0     C81066   3.995   5.699  -0.309  1.2105 -0.5492  0.3083
  615MOL0     C81067   4.030   5.574  -0.329  0.4091  0.4037 -0.7518
  615MOL0     C81068   4.076   5.477  -0.225 -0.7063  0.8408  0.3154
  615MOL0     C81069   4.217   5.401  -0.247 -0.0536 -0.0040  0.5495
  615MOL0     C81070   4.323   5.469  -0.335  0.4810  0.5034  0.4963
  615MOL0     C81071   4.368   5.604  -0.288  0.5819 -0.2201 -0.3435
  615MOL0     O81072   4.415   5.601  -0.150  0.8085 -0.4311 -0.5569
  615MOL0     C81073   4.479   5.703  -0.096  0.0787 -0.9505  0.5826
  615MOL0     C81074   4.464   5.840  -0.131 -0.5514 -0.3809 -0.9757
  615MOL0     C81075   4.521   5.938  -0.054  0.0830 -0.2138  0.1278
  615MOL0     C81076   4.607   5.915   0.048 -0.0059  0.3443 -0.4756
  615MOL0     C81077   4.669   6.021   0.125 -0.3640  0.0914  0.1436
  615MOL0     O81078   4.799   5.987   0.172 -0.3642  0.0907 -0.0333
  615MOL0     C81079   4.862   6.082   0.248  0.1230  0.7355  0.4294
  615MOL0     C81080   4.885   6.209   0.200 -0.7195 -0.3351  0.2474
  615MOL0     C81081   4.973   6.302   0.262 -0.1053  0.7885  0.1756
  615MOL0     C81082   5.037   6.260   0.386  0.3140 -0.2396  0.0579
  615MOL0     O81083   5.125   6.351   0.441  0.3475  0.1943 -0.7465
  615MOL0     C81084   5.089   6.399   0.572  0.0049  1.8098 -0.6336
  615MOL0     C81085   5.208   6.492   0.611 -0.2118 -0.3023 -0.6600
  615MOL0     C81086   5.332   6.400   0.647  1.2678  0.1240 -0.5041
  615MOL0     C81087   5.456   6.492   0.666 -0.0220 -0.1760 -0.5837
  615MOL0     C81088   5.581   6.418   0.695 -0.2526 -0.1798 -0.2211
  615MOL0     C81089   5.703   6.510   0.733 -0.4074  1.6800 -0.7177
  615MOL0     C81090   5.813   6.429   0.806 -0.5046 -0.3004  0.1614
  615MOL0     C81091   5.913   6.536   0.849 -0.4466  0.5314  0.6170
  615MOL0    Cl81092   6.043   6.458   0.921  0.8929  0.5376 -0.0471
  615MOL0     C81093   5.006   6.133   0.435  0.3435  0.1750 -0.3027
  615MOL0     C81094   4.917   6.048   0.371  0.9312 -1.0987 -0.3856
  615MOL0     O81095   4.605   6.121   0.146  0.2827 -1.0460 -0.3686
  615MOL0     C81096   4.636   5.779   0.074  0.4983  0.7405 -0.2779
  615MOL0     C81097   4.568   5.683   0.009  0.7785  0.7404  0.6139
  615MOL0     N81098   4.006   5.538  -0.457 -0.1344  0.8096  0.9089
  615MOL0     N81099   3.947   5.637  -0.517 -1.2373 -0.3688  1.3258
  615MOL0     C81100   2.853   5.697   0.015 -0.8472 -0.4776  0.1895
  615MOL0     C81101   2.744   5.662   0.091  0.6606 -0.9276 -0.3492
  615MOL0     C81102   2.427   5.465   0.330  0.3542  0.1127  0.1954
  615MOL0     C81103   2.307   5.402   0.273 -0.1116 -0.6765 -0.0469
  615MOL0     C81104   2.221   5.327   0.358 -0.1072  0.4325 -0.1745
  615MOL0     C81105   2.243   5.311   0.496  0.8044 -0.2570 -0.1400
  615MOL0     O81106   2.156   5.246   0.579 -0.1517  0.1237  0.7673
  615MOL0     C81107   2.176   5.246   0.724 -0.1087 -0.1387  0.5422
  615MOL0     C81108   2.084   5.141   0.792 -0.0163 -0.3480 -0.0285
  615MOL0     C81109   1.926   5.180   0.804 -0.6758 -0.0855  0.2903
  615MOL0     C81110   1.833   5.184   0.684  0.0347  0.4272  0.6288
  615MOL0     C81111   1.853   5.300   0.596  0.5356 -0.7047  0.2937
  615MOL0     C81112   1.898   5.377   0.507  0.5081 -0.0420  0.2694
  615MOL0     C81113   2.356   5.387   0.550  0.1748 -0.0742  0.3041
  615MOL0     C81114   2.436   5.468   0.468 -0.3661 -0.2474  0.2611
  615MOL0     H81115   2.912   5.580   0.379 -0.0349  0.6590  0.6412
  615MOL0     H81116   3.097   5.666   0.246  0.5930 -3.1463 -0.4500
  615MOL0     H81117   3.015   5.811  -0.185  0.2922 -0.1312 -1.4698
  615MOL0     H81118   3.075   5.646  -0.162 -0.3074 -1.1367  2.8133
  615MOL0     H81119   3.310   5.732  -0.116 -1.4061 -1.2599 -0.5460
  615MOL0     H81120   3.257   5.894  -0.133  3.4084 -1.2675  1.7069
  615MOL0     H81121   3.250   5.881  -0.364  0.2152  0.5701  0.4569
  615MOL0     H81122   3.245   5.695  -0.364 -0.4152 -0.7242  1.3973
  615MOL0     H81123   3.494   5.832  -0.267 -1.3214 -0.2526 -0.0199
  615MOL0     H81124   3.459   5.670  -0.295  2.6703  1.0655  1.7493
  615MOL0     H81125   3.449   5.877  -0.511  0.7064 -1.2298 -1.2351
  615MOL0     H81126   3.417   5.713  -0.532  1.5162 -0.8072 -1.2613
  615MOL0     H81127   3.643   5.789  -0.594 -2.6018  1.0291 -0.3142
  615MOL0     H81128   3.656   5.646  -0.484 -3.6520 -0.7696  0.1024
  615MOL0     H81129   3.682   5.946  -0.403  0.8076  0.2752 -0.9615
  615MOL0     H81130   3.727   5.797  -0.309 -3.4190  0.1563  0.2295
  615MOL0     H81131   3.918   5.939  -0.379  0.9432 -4.0956  4.5852
  615MOL0     H81132   3.873   5.899  -0.558 -1.2732 -1.1066 -0.3567
  615MOL0     H81133   3.998   5.758  -0.218 -1.6871  3.8552 -2.0755
  615MOL0     H81134   4.000   5.398  -0.227  1.8321 -1.7835 -2.6445
  615MOL0     H81135   4.075   5.528  -0.128 -1.0870  0.8600  0.3048
  615MOL0     H81136   4.187   5.312  -0.303 -0.3037 -0.2387  1.0485
  615MOL0     H81137   4.258   5.359  -0.155 -3.7902 -1.1871  1.8257
  615MOL0     H81138   4.414   5.408  -0.341  1.0213  1.4128 -4.0653
  615MOL0     H81139   4.275   5.484  -0.432 -0.0106 -0.6896  0.5327
  615MOL0     H81140   4.296   5.686  -0.297 -1.0349 -1.4704  0.8084
  615MOL0     H81141   4.440   5.634  -0.365 -2.0451  1.3757 -2.3694
  615MOL0     H81142   4.389   5.871  -0.203 -0.6446  1.9104  0.0393
  615MOL0     H81143   4.510   6.043  -0.082  1.5227  0.0191  0.3377
  615MOL0     H81144   4.856   6.252   0.104  0.8540 -0.4029 -0.3049
  615MOL0     H81145   4.990   6.396   0.210  1.1290  1.7496  2.1734
  615MOL0     H81146   5.069   6.331   0.655  1.9341  3.7646  1.5463
  615MOL0     H81147   5.001   6.458   0.543  1.6883  3.7537 -2.0533
  615MOL0     H81148   5.186   6.564   0.691  4.0353 -0.2880  0.7307
  615MOL0     H81149   5.233   6.558   0.527 -1.6771  1.8522  0.4913
  615MOL0     H81150   5.344   6.343   0.555 -1.1636  2.3088 -2.3154
  615MOL0     H81151   5.302   6.340   0.733 -2.5103  0.3693 -1.4759
  615MOL0     H81152   5.477   6.543   0.571 -1.7237  2.1857  0.1991
  615MOL0     H81153   5.435   6.568   0.742 -2.9187  0.4409 -1.8613
  615MOL0     H81154   5.618   6.372   0.603  2.5087 -0.8663  1.1133
  615MOL0     H81155   5.558   6.339   0.767  0.8627 -2.9955 -2.7116
  615MOL0     H81156   5.668   6.582   0.808  1.0583  1.6670  0.0062
  615MOL0     H81157   5.745   6.553   0.641  0.0105  0.6535 -1.0115
  615MOL0     H81158   5.773   6.369   0.889  1.3926 -1.7383  0.1072
  615MOL0     H81159   5.864   6.356   0.742  1.4160 -1.4543  2.8125
  615MOL0     H81160   5.863   6.600   0.922 -0.8502 -0.9295  1.6624
  615MOL0     H81161   5.955   6.590   0.763  1.8649 -1.3337  0.4720
  615MOL0     H81162   5.056   6.110   0.529 -0.7085  1.1428  0.5242
  615MOL0     H81163   4.900   5.948   0.408 -0.6209 -0.3937  0.9634
  615MOL0     H81164   4.706   5.742   0.148  1.1390 -0.2316 -1.3503
  615MOL0     H81165   4.586   5.578   0.028 -2.7205  0.1036  1.0165
  615MOL0     H81166   2.840   5.695  -0.092  0.0007 -3.7862  0.0430
  615MOL0     H81167   2.648   5.663   0.040 -0.7900 -4.9190  1.8930
  615MOL0     H81168   2.286   5.416   0.168  1.6656  3.1564 -0.0628
  615MOL0     H81169   2.137   5.275   0.313  1.6772 -0.7197 -2.3545
  615MOL0     H81170   2.166   5.348   0.762  2.8519  0.2542  0.4875
  615MOL0     H81171   2.277   5.218   0.756 -1.0781 -4.3347  0.5351
  615MOL0     H81172   2.094   5.041   0.747 -2.3857 -1.8464  2.4810
  615MOL0     H81173   2.122   5.113   0.890  0.6234 -0.0771 -0.1945
  615MOL0     H81174   1.931   5.277   0.853  3.0602  0.0980 -0.2083
  615MOL0     H81175   1.881   5.112   0.877  1.0952 -1.1505  0.4315
  615MOL0     H81176   1.855   5.090   0.633  0.5844  1.1366 -0.4759
  615MOL0     H81177   1.728   5.184   0.714 -1.1677 -0.6754 -3.0370
  615MOL0     H81178   1.937   5.434   0.425 -2.9022  0.6272 -1.0904
  615MOL0     H81179   2.390   5.391   0.653  1.7028  0.2131 -0.1899
  615MOL0     H81180   2.523   5.514   0.516 -0.2725 -2.0014  1.8592
  616MOL0     O81181  10.310   2.577   2.245  0.3023 -0.4226  0.4650
  616MOL0     C81182  10.355   2.495   2.323  0.2404  0.0951 -0.9306
  616MOL0     O81183  10.288   2.379   2.353 -0.0823  0.0612 -0.1365
  616MOL0     C81184  10.165   2.362   2.294  0.7084  0.6916  0.0796
  616MOL0     C81185  10.062   2.449   2.327 -0.2162 -0.4263 -0.1874
  616MOL0     C81186   9.943   2.426   2.272  1.2274  0.0054  0.1021
  616MOL0     C81187   9.908   2.320   2.185  0.7136 -0.1269 -0.3343
  616MOL0     O81188   9.775   2.294   2.157 -0.2947  0.1557  0.0418
  616MOL0     C81189   9.719   2.186   2.240  0.6352  0.6196  0.5802
  616MOL0     C81190   9.638   2.083   2.155  0.7569  0.0469 -1.2119
  616MOL0     C81191   9.596   1.959   2.244 -0.0176 -0.5809 -0.5346
  616MOL0     C81192   9.528   1.856   2.159 -0.6144  0.1478  0.9178
  616MOL0     C81193   9.468   1.741   2.237  0.2369 -0.7296 -0.8322
  616MOL0     C81194   9.430   1.624   2.143 -0.7190  0.0142 -2.0094
  616MOL0     C81195   9.555   1.535   2.099  0.4622  0.2996 -0.3539
  616MOL0     C81196   9.489   1.419   2.026  0.0451 -0.2352 -0.2548
  616MOL0     N81197   9.436   1.309   2.108 -0.5869 -0.4608  0.2264
  616MOL0     C81198   9.510   1.201   2.162  0.5920 -0.2967  0.6306
  616MOL0     C81199   9.415   1.116   2.213  0.3369 -0.2915  0.6443
  616MOL0     C81200   9.452   0.977   2.270 -1.3664 -0.1939  0.2418
  616MOL0     C81201   9.503   0.988   2.411 -0.1255  0.8646 -0.0701
  616MOL0     C81202   9.383   1.002   2.510 -0.5891 -0.5138  0.0372
  616MOL0     C81203   9.436   1.000   2.655  0.4586  0.3228  0.7404
  616MOL0     O81204   9.535   1.105   2.674 -0.4660  0.0898  0.6258
  616MOL0     C81205   9.660   1.068   2.705 -1.0713 -0.5355  0.5090
  616MOL0     C81206   9.696   0.986   2.821  0.1211  0.2171 -0.0557
  616MOL0     C81207   9.838   0.964   2.856 -0.4978  1.0621 -0.5323
  616MOL0     C81208   9.947   1.019   2.784  0.4330  0.8970 -0.2956
  616MOL0     C81209  10.090   0.968   2.794 -0.0647 -0.1487  0.0786
  616MOL0     O81210  10.191   1.047   2.738 -0.0424 -0.4585  0.0013
  616MOL0     C81211  10.322   1.016   2.771  0.0268 -0.7428  0.2688
  616MOL0     C81212  10.373   0.986   2.892  0.5870  0.3173  0.0639
  616MOL0     C81213  10.509   0.983   2.921 -0.2907  0.0191  0.1653
  616MOL0     C81214  10.605   1.002   2.818  1.3848  0.4408  0.5343
  616MOL0     O81215  10.738   0.985   2.826  0.2987 -0.4986 -0.0985
  616MOL0     C81216  10.821   1.031   2.939 -0.3104 -0.9426 -0.1381
  616MOL0     C81217  10.834   1.174   2.915  0.4143  0.1280  0.5372
  616MOL0     C81218  10.963   1.245   2.966 -0.2368  0.8717 -1.3880
  616MOL0     C81219  11.092   1.199   2.899  1.0123 -0.1044  0.3540
  616MOL0     C81220  11.099   1.255   2.756 -0.7207 -0.1092  0.8529
  616MOL0     C81221  11.236   1.223   2.687  0.5407 -0.1251 -0.1288
  616MOL0     C81222  11.272   1.075   2.674 -0.6961  0.5442  0.3754
  616MOL0     C81223  11.400   1.070   2.599 -0.0924 -0.7097 -0.0272
  616MOL0    Cl81224  11.384   1.147   2.440  0.2328  0.1653  0.1951
  616MOL0     C81225  10.549   1.028   2.691  0.0651 -0.2111  0.7427
  616MOL0     C81226  10.410   1.034   2.668  0.2522 -0.1832  0.1257
  616MOL0     O81227  10.103   0.861   2.840  0.6708  0.1010  0.1557
  616MOL0     C81228   9.915   1.104   2.684  0.8659 -0.6167  0.3155
  616MOL0     C81229   9.775   1.135   2.651  0.1848 -0.6107  1.3962
  616MOL0     N81230   9.291   1.178   2.192 -0.0712 -0.2218  0.5621
  616MOL0     N81231   9.308   1.293   2.143  0.3741  0.3443  0.1534
  616MOL0     C81232  10.009   2.231   2.153 -0.2880  0.2206  0.0474
  616MOL0     C81233  10.136   2.256   2.207 -0.5528  0.2613  0.7848
  616MOL0     C81234  10.481   2.515   2.398  0.1696  0.1505  0.1043
  616MOL0     C81235  10.550   2.398   2.444  0.5146 -0.3978  0.4573
  616MOL0     C81236  10.671   2.419   2.503 -0.3764  1.1482  0.1579
  616MOL0     C81237  10.725   2.540   2.528 -0.4595 -1.0352  0.1810
  616MOL0     O81238  10.837   2.549   2.607 -0.0796  0.2006 -0.3949
  616MOL0     C81239  10.881   2.666   2.682 -0.0313 -0.5169 -0.0680
  616MOL0     C81240  10.879   2.640   2.841  0.6454  0.1020  0.3714
  616MOL0     C81241  10.924   2.507   2.891  0.3456  0.4380  0.1212
  616MOL0     C81242  10.882   2.468   3.040  0.2586  0.1911  0.2195
  616MOL0     C81243  10.993   2.476   3.129 -0.7603  0.8935  0.3892
  616MOL0     C81244  11.087   2.464   3.212 -0.0808 -1.2634 -0.0226
  616MOL0     C81245  10.655   2.656   2.485  0.1924  0.1065 -0.6108
  616MOL0     C81246  10.534   2.642   2.421  0.0737 -0.3116  1.0926
  616MOL0     H81247  10.076   2.533   2.395 -1.1003 -3.1174  3.6304
  616MOL0     H81248   9.862   2.490   2.305  0.1199  0.3265 -2.9374
  616MOL0     H81249   9.648   2.233   2.310  1.0760 -1.3596  2.4746
  616MOL0     H81250   9.785   2.118   2.294  0.9195  0.4201 -0.0210
  616MOL0     H81251   9.702   2.055   2.071  1.7425  0.1340 -0.5076
  616MOL0     H81252   9.549   2.123   2.104  1.0709  0.0538 -1.7641
  616MOL0     H81253   9.531   1.991   2.326  0.7961  0.5388 -0.3043
  616MOL0     H81254   9.690   1.912   2.276  0.0736  0.7886  1.3450
  616MOL0     H81255   9.453   1.898   2.091 -1.0970 -4.3196 -1.6794
  616MOL0     H81256   9.597   1.826   2.080 -0.9840 -0.1129  0.6921
  616MOL0     H81257   9.371   1.772   2.277  1.8181  2.4465  0.8941
  616MOL0     H81258   9.541   1.716   2.315  1.3761  0.0143 -1.6450
  616MOL0     H81259   9.388   1.660   2.048 -0.2235  0.1871 -2.1664
  616MOL0     H81260   9.358   1.554   2.186  2.2570 -2.3007 -0.4122
  616MOL0     H81261   9.621   1.596   2.037 -1.6773  3.3819  0.1334
  616MOL0     H81262   9.613   1.489   2.179  0.8723  2.1312  0.4691
  616MOL0     H81263   9.560   1.368   1.961  0.1927 -2.0345  1.2386
  616MOL0     H81264   9.408   1.457   1.962 -1.1224 -1.0769  0.6810
  616MOL0     H81265   9.617   1.183   2.152  0.2212 -1.9344 -1.0060
  616MOL0     H81266   9.531   0.933   2.209 -0.9081 -1.7949  1.9194
  616MOL0     H81267   9.362   0.915   2.266 -1.2042 -0.5992  2.0491
  616MOL0     H81268   9.576   1.069   2.421  1.1486 -0.4914  2.4657
  616MOL0     H81269   9.547   0.892   2.438 -2.8501 -0.0324  1.5264
  616MOL0     H81270   9.336   1.100   2.493 -0.4091  0.0801  2.5367
  616MOL0     H81271   9.303   0.928   2.499 -2.4636  1.5930 -1.2853
  616MOL0     H81272   9.477   0.902   2.679 -0.1355  0.2518  1.5288
  616MOL0     H81273   9.353   1.018   2.725  0.0288  5.0076 -0.5995
  616MOL0     H81274   9.622   0.945   2.889  0.7993  2.2873  2.0764
  616MOL0     H81275   9.874   0.894   2.931  2.9164  0.6166 -2.3642
  616MOL0     H81276  10.298   0.972   2.969  0.6687 -0.1174  0.0690
  616MOL0     H81277  10.547   0.956   3.019  1.7242 -1.9352 -1.0551
  616MOL0     H81278  10.917   0.978   2.940 -0.7701 -1.8862 -1.7210
  616MOL0     H81279  10.782   1.027   3.041  0.1871  2.1626  0.2467
  616MOL0     H81280  10.745   1.219   2.959 -1.0689 -0.4499 -1.7025
  616MOL0     H81281  10.829   1.201   2.809  0.4290  2.2140  1.0193
  616MOL0     H81282  10.973   1.211   3.069  1.8221  0.3149 -1.7300
  616MOL0     H81283  10.948   1.353   2.970  1.4473  1.1009  1.2076
  616MOL0     H81284  11.172   1.247   2.955  0.2358  2.6215 -0.7396
  616MOL0     H81285  11.098   1.089   2.898  4.1146 -0.0799 -1.7137
  616MOL0     H81286  11.100   1.364   2.756  0.9592 -0.0852 -0.2780
  616MOL0     H81287  11.015   1.208   2.704  2.3344 -1.1806 -3.6538
  616MOL0     H81288  11.318   1.275   2.737  0.7246  0.4989 -1.0543
  616MOL0     H81289  11.216   1.267   2.589  0.4224 -0.2215 -0.1488
  616MOL0     H81290  11.295   1.029   2.771 -1.1655  0.1710  0.3133
  616MOL0     H81291  11.202   1.008   2.624  1.0076 -0.8162 -0.2808
  616MOL0     H81292  11.411   0.962   2.585 -3.9087 -1.5065  1.7142
  616MOL0     H81293  11.479   1.118   2.658  0.2076 -0.5710 -0.5389
  616MOL0     H81294  10.622   1.029   2.610 -0.3856 -0.6048  0.3237
  616MOL0     H81295  10.378   1.049   2.565  3.9599  2.3084 -0.8809
  616MOL0     H81296  10.000   1.145   2.629 -2.2683  3.4496 -2.0980
  616MOL0     H81297   9.762   1.203   2.567  2.4437 -1.2640  0.4504
  616MOL0     H81298   9.993   2.129   2.119  0.2199  0.5392 -1.2260
  616MOL0     H81299  10.213   2.180   2.201 -0.5495  0.2975  0.3286
  616MOL0     H81300  10.516   2.302   2.408 -0.4662  0.8176 -2.0514
  616MOL0     H81301  10.734   2.335   2.533  0.6570  0.4276 -3.5318
  616MOL0     H81302  10.827   2.757   2.653  0.9997 -0.4950 -2.0879
  616MOL0     H81303  10.985   2.683   2.650 -0.1876  0.9982  0.1148
  616MOL0     H81304  10.936   2.716   2.895  0.5634 -0.0566  0.6811
  616MOL0     H81305  10.774   2.644   2.871 -0.0856  1.1539 -2.0512
  616MOL0     H81306  11.030   2.495   2.868  0.1003  0.9385 -1.4249
  616MOL0     H81307  10.874   2.423   2.840 -2.0840  0.4758  2.2833
  616MOL0     H81308  10.796   2.525   3.075 -0.5501 -1.6973  1.4557
  616MOL0     H81309  10.850   2.364   3.036 -0.4880  0.4260 -3.0268
  616MOL0     H81310  11.167   2.467   3.283  0.9464  0.8601 -1.2054
  616MOL0     H81311  10.681   2.761   2.495  0.2744  0.0990 -0.7503
  616MOL0     H81312  10.476   2.720   2.372  0.0203 -0.9848  0.0631
  617MOL0     O81313  10.325   1.922   5.499 -0.4855  0.0898  0.5860
  617MOL0     C81314  10.346   2.032   5.552 -0.3818 -0.4225 -1.3414
  617MOL0     O81315  10.251   2.131   5.550 -0.3933  0.5079 -0.9592
  617MOL0     C81316  10.144   2.122   5.465  0.6980 -0.4501  1.0085
  617MOL0     C81317  10.032   2.190   5.495  0.1535  0.0472  0.9430
  617MOL0     C81318   9.921   2.205   5.412 -0.2162 -0.2687 -0.4138
  617MOL0     C81319   9.930   2.163   5.281 -0.4726 -0.7447 -0.3446
  617MOL0     O81320   9.845   2.193   5.179  0.7495 -0.8880 -0.6046
  617MOL0     C81321   9.712   2.234   5.231 -0.1391 -0.0684 -0.7078
  617MOL0     C81322   9.625   2.225   5.110  0.2519 -0.1820  0.6098
  617MOL0     C81323   9.596   2.368   5.058  0.8271  0.6104  0.4526
  617MOL0     C81324   9.719   2.428   4.981  0.1995  0.4360  0.3450
  617MOL0     C81325   9.695   2.576   4.957  1.0757 -1.0863  1.0521
  617MOL0     C81326   9.613   2.605   4.833  1.1271  0.2258  0.1240
  617MOL0     C81327   9.609   2.754   4.799 -0.7359 -1.0662  0.4944
  617MOL0     C81328   9.588   2.786   4.657 -0.1088  0.1839 -0.1908
  617MOL0     N81329   9.590   2.934   4.640 -0.2393 -0.1799 -0.6120
  617MOL0     C81330   9.472   3.001   4.622  0.1203  1.1342  0.3794
  617MOL0     C81331   9.511   3.124   4.592  0.5881  0.3078  0.1379
  617MOL0     C81332   9.424   3.239   4.565 -0.6040  0.1295  0.8585
  617MOL0     C81333   9.447   3.346   4.669  0.1061  0.5080 -0.6264
  617MOL0     C81334   9.537   3.464   4.617 -0.5289 -0.0288 -0.1237
  617MOL0     C81335   9.466   3.566   4.529 -0.2020 -0.3289 -1.4788
  617MOL0     O81336   9.385   3.646   4.618  0.4551  0.4069  0.8565
  617MOL0     C81337   9.425   3.762   4.674 -1.0050  0.2296  0.3625
  617MOL0     C81338   9.562   3.802   4.702 -0.6296 -0.6327 -0.8690
  617MOL0     C81339   9.591   3.913   4.781  0.7810  0.1264 -1.1207
  617MOL0     C81340   9.485   3.981   4.855 -0.0265  0.5835  0.7005
  617MOL0     C81341   9.518   4.086   4.951 -0.0422  0.1675 -0.5355
  617MOL0     O81342   9.641   4.150   4.955 -0.0745 -0.0426  0.3687
  617MOL0     C81343   9.653   4.248   5.052 -0.1140  0.4307 -0.1604
  617MOL0     C81344   9.688   4.380   5.013 -0.3834 -0.7260  0.5631
  617MOL0     C81345   9.722   4.478   5.105 -0.5141  0.6405  0.5024
  617MOL0     C81346   9.722   4.458   5.245  0.0607 -0.1847  1.0584
  617MOL0     O81347   9.759   4.559   5.330  0.7247 -0.1874  0.7981
  617MOL0     C81348   9.741   4.553   5.466  1.0470  0.0922  0.1646
  617MOL0     C81349   9.820   4.680   5.515 -1.0562 -0.1391  0.8596
  617MOL0     C81350   9.796   4.713   5.659  0.6973 -0.2213 -0.4844
  617MOL0     C81351   9.895   4.796   5.740 -0.6058 -0.3374  0.0684
  617MOL0     C81352   9.836   4.843   5.867 -1.1140 -0.3210 -0.2417
  617MOL0     C81353   9.937   4.901   5.969 -0.3057 -0.8878  0.4456
  617MOL0     C81354   9.863   4.969   6.081 -0.6043 -0.2080 -0.6173
  617MOL0     C81355   9.944   5.048   6.182  0.4619  0.5237 -0.1511
  617MOL0    Cl81356  10.052   4.940   6.265 -0.2759  0.3824  0.0135
  617MOL0     C81357   9.688   4.327   5.291 -0.6390 -0.3783 -0.1171
  617MOL0     C81358   9.659   4.227   5.197 -0.7483  0.0438 -0.1406
  617MOL0     O81359   9.419   4.122   5.015  0.3678 -0.2816  0.6877
  617MOL0     C81360   9.360   3.949   4.821  0.9979 -0.7097 -0.3929
  617MOL0     C81361   9.325   3.846   4.734  0.0645  1.1491 -0.2355
  617MOL0     N81362   9.650   3.134   4.556  0.1603  0.2182  0.6857
  617MOL0     N81363   9.687   3.004   4.581 -0.4051 -0.5747  0.7463
  617MOL0     C81364  10.054   2.103   5.239  1.0181  0.0458 -0.1264
  617MOL0     C81365  10.156   2.090   5.330 -0.0533 -0.0030  0.0474
  617MOL0     C81366  10.454   2.046   5.657  0.4726  0.1952  0.0495
  617MOL0     C81367  10.437   2.122   5.780 -0.0868 -0.3317 -0.1259
  617MOL0     C81368  10.520   2.092   5.893 -0.6709  0.0823 -0.1766
  617MOL0     C81369  10.630   2.000   5.881 -0.4174  0.8024  0.1241
  617MOL0     O81370  10.731   1.957   5.965 -0.2679  0.9104 -0.0264
  617MOL0     C81371  10.714   1.992   6.103  0.3119 -0.1007  0.3766
  617MOL0     C81372  10.845   1.973   6.177  0.4602  0.0777  1.1521
  617MOL0     C81373  10.932   2.096   6.160 -0.7310  0.0491 -0.0100
  617MOL0     C81374  11.022   2.088   6.033 -0.3291  0.9425 -0.6942
  617MOL0     C81375  11.116   2.201   6.029  0.1403 -0.0912 -0.0260
  617MOL0     C81376  11.195   2.291   6.047 -0.6546  0.7399  0.7270
  617MOL0     C81377  10.640   1.933   5.753 -0.1667  0.7697 -0.0045
  617MOL0     C81378  10.558   1.955   5.648 -0.0448 -0.1305  1.1167
  617MOL0     H81379  10.030   2.213   5.601 -1.0259 -0.7215  1.1022
  617MOL0     H81380   9.831   2.246   5.457 -0.4944 -1.9157  0.6403
  617MOL0     H81381   9.710   2.339   5.262  0.6375 -0.3351  0.3045
  617MOL0     H81382   9.676   2.172   5.313  0.6261  1.1153  0.5655
  617MOL0     H81383   9.532   2.184   5.151 -0.0846 -0.2683 -0.2351
  617MOL0     H81384   9.668   2.155   5.038  5.1142  2.0700  0.9294
  617MOL0     H81385   9.571   2.442   5.134  2.4994  1.2239  0.4399
  617MOL0     H81386   9.514   2.366   4.985  1.7180 -0.3283 -0.5766
  617MOL0     H81387   9.806   2.416   5.046  1.2246 -2.4814 -1.3493
  617MOL0     H81388   9.761   2.386   4.889  0.6673  4.7800 -1.6929
  617MOL0     H81389   9.793   2.624   4.946  0.6916 -0.6065 -0.5680
  617MOL0     H81390   9.649   2.629   5.041  1.2964  1.6658 -0.4514
  617MOL0     H81391   9.507   2.578   4.841  0.5920  2.6752  3.7009
  617MOL0     H81392   9.656   2.547   4.750  1.9273 -1.5724  1.7074
  617MOL0     H81393   9.525   2.804   4.848 -2.2070 -1.0407 -1.8760
  617MOL0     H81394   9.706   2.791   4.834 -0.5234 -3.0313  2.1418
  617MOL0     H81395   9.490   2.749   4.625 -0.1071 -0.8010  0.8818
  617MOL0     H81396   9.668   2.747   4.594  1.2340  0.3777  1.3276
  617MOL0     H81397   9.369   2.968   4.633  0.8169 -2.8421 -2.6591
  617MOL0     H81398   9.325   3.198   4.584  1.1034 -4.3981  1.1153
  617MOL0     H81399   9.429   3.278   4.463 -0.1249  0.5893  1.0547
  617MOL0     H81400   9.499   3.291   4.748 -0.3730 -2.3416 -2.1570
  617MOL0     H81401   9.353   3.387   4.706 -0.2679  0.7921 -1.8244
  617MOL0     H81402   9.568   3.512   4.710  0.7994  0.5237 -0.8355
  617MOL0     H81403   9.627   3.425   4.570 -0.3773 -0.3627  0.4322
  617MOL0     H81404   9.399   3.523   4.454 -3.8758 -0.3870  1.5308
  617MOL0     H81405   9.531   3.642   4.484 -1.6262  3.3717  2.1172
  617MOL0     H81406   9.655   3.760   4.667 -1.7741 -3.0490 -1.1782
  617MOL0     H81407   9.693   3.936   4.811  0.4864  0.2893 -0.2336
  617MOL0     H81408   9.693   4.410   4.909 -2.9553 -0.6814  0.3723
  617MOL0     H81409   9.741   4.580   5.072  1.2066  0.3096  0.3521
  617MOL0     H81410   9.772   4.452   5.494 -2.0391 -1.2891 -0.9950
  617MOL0     H81411   9.637   4.575   5.491  0.7417 -0.6607 -0.4292
  617MOL0     H81412   9.790   4.772   5.464  0.2783  0.1733  0.6005
  617MOL0     H81413   9.929   4.685   5.501 -0.9683  1.5462  1.9319
  617MOL0     H81414   9.789   4.620   5.715 -0.4026 -0.7416 -1.4524
  617MOL0     H81415   9.703   4.770   5.654  0.7844  0.1602  1.3840
  617MOL0     H81416   9.984   4.734   5.759 -1.2052 -0.5178  2.5681
  617MOL0     H81417   9.943   4.880   5.690  0.6893 -1.7372 -1.1605
  617MOL0     H81418   9.782   4.768   5.925 -1.4018  1.3925  1.8552
  617MOL0     H81419   9.763   4.922   5.842  0.4146  1.1912 -0.0979
  617MOL0     H81420  10.005   4.973   5.922 -0.4432 -1.3487 -0.4805
  617MOL0     H81421   9.989   4.814   6.008  0.9000 -1.9332 -3.1272
  617MOL0     H81422   9.770   5.019   6.052 -0.4139  1.8428  1.8877
  617MOL0     H81423   9.825   4.885   6.140 -0.9319 -0.6021 -1.3784
  617MOL0     H81424   9.870   5.081   6.256 -0.5356 -0.4133 -0.6929
  617MOL0     H81425   9.994   5.133   6.136 -0.0839  0.5646 -0.6815
  617MOL0     H81426   9.680   4.314   5.399 -1.0949  0.9197  0.0178
  617MOL0     H81427   9.641   4.124   5.229  0.7528  0.2379  1.4950
  617MOL0     H81428   9.281   4.009   4.863  0.4765 -0.8561 -1.1463
  617MOL0     H81429   9.222   3.813   4.726  0.1430  0.5117  1.0553
  617MOL0     H81430  10.078   2.093   5.134 -1.3740 -1.5756 -0.6139
  617MOL0     H81431  10.253   2.046   5.311  1.4897  2.9567  0.5870
  617MOL0     H81432  10.358   2.194   5.796 -0.2511 -0.0579 -1.9251
  617MOL0     H81433  10.514   2.135   5.992  3.8229 -2.5274  1.5448
  617MOL0     H81434  10.635   1.932   6.150 -2.7500  2.9915 -0.3880
  617MOL0     H81435  10.678   2.096   6.106 -1.4722 -0.6873  0.5936
  617MOL0     H81436  10.807   1.963   6.279  0.5047  1.8838  1.3744
  617MOL0     H81437  10.902   1.882   6.153  4.8611  1.7912  3.8869
  617MOL0     H81438  10.990   2.107   6.253 -1.4331  0.6042  0.3676
  617MOL0     H81439  10.873   2.186   6.142 -1.3184 -0.2122  0.5816
  617MOL0     H81440  11.077   1.994   6.037 -2.8253 -0.5926  1.1005
  617MOL0     H81441  10.951   2.090   5.949 -2.5125 -1.4567  0.8987
  617MOL0     H81442  11.246   2.382   6.071 -0.5038  1.4632 -2.0484
  617MOL0     H81443  10.715   1.854   5.746  0.6618  1.4563  0.7799
  617MOL0     H81444  10.568   1.882   5.568 -2.5600 -0.6460  1.1877
  618MOL0     O81445   3.647   0.259  10.783  0.0552  0.0857  0.0870
  618MOL0     C81446   3.571   0.194  10.859  0.0256 -0.0959 -0.1754
  618MOL0     O81447   3.609   0.093  10.956  0.1123  0.7711  0.2622
  618MOL0     C81448   3.726   0.042  10.978  0.3236  0.3528  1.2684
  618MOL0     C81449   3.826   0.051  10.877 -0.0595  1.0845  0.1161
  618MOL0     C81450   3.960   0.036  10.912 -0.9199  0.2221  0.7662
  618MOL0     C81451   4.001   0.012  11.041 -0.3933  0.2163 -0.7987
  618MOL0     O81452   4.132   0.017  11.070  0.1001  0.0139 -0.5478
  618MOL0     C81453   4.168   0.098  11.193 -0.6155 -0.4285  0.2891
  618MOL0     C81454   4.320   0.112  11.202  0.0230  0.3536  0.1404
  618MOL0     C81455   4.392   0.144  11.064  0.3470  0.1260  0.6654
  618MOL0     C81456   4.356   0.295  11.026 -1.0105 -1.3779  0.5255
  618MOL0     C81457   4.338   0.301  10.873  0.4757 -0.4228 -0.0401
  618MOL0     C81458   4.351   0.434  10.809  0.0711  0.0029  0.5215
  618MOL0     C81459   4.381   0.431  10.655  0.4192 -0.6120  0.2228
  618MOL0     C81460   4.333   0.556  10.591  0.1986  0.0475  0.2013
  618MOL0     N81461   4.399   0.684  10.618  0.0971  0.2044 -0.0223
  618MOL0     C81462   4.369   0.764  10.728  0.1055 -0.3545  0.5182
  618MOL0     C81463   4.453   0.864  10.716  0.4157 -0.3992  0.4526
  618MOL0     C81464   4.470   0.990  10.793 -0.3766  0.2118 -0.9275
  618MOL0     C81465   4.375   1.095  10.733 -0.3660  0.6090 -0.3464
  618MOL0     C81466   4.461   1.168  10.621  1.0359 -0.5992 -0.7530
  618MOL0     C81467   4.389   1.300  10.589  0.3342  0.7001  0.6603
  618MOL0     O81468   4.399   1.384  10.700 -0.0194 -0.9044 -0.1820
  618MOL0     C81469   4.420   1.519  10.680  0.2508  0.2309  0.5177
  618MOL0     C81470   4.495   1.587  10.782  1.2317 -0.3296 -0.2734
  618MOL0     C81471   4.529   1.711  10.753  0.1786  0.2917  0.4572
  618MOL0     C81472   4.504   1.782  10.635  0.0938  0.9124  0.3286
  618MOL0     C81473   4.532   1.929  10.620 -0.9824  0.4977 -0.6224
  618MOL0     O81474   4.574   2.002  10.726  0.3535  0.5921 -1.0234
  618MOL0     C81475   4.615   2.134  10.713 -0.4276  0.4311 -0.5328
  618MOL0     C81476   4.701   2.193  10.617  0.2136  0.3116 -1.3644
  618MOL0     C81477   4.727   2.329  10.639  1.5663  0.2395 -0.0435
  618MOL0     C81478   4.683   2.397  10.752  0.3540 -0.3104 -1.2275
  618MOL0     O81479   4.732   2.528  10.773 -0.3045 -0.0847 -0.5507
  618MOL0     C81480   4.752   2.633  10.670 -0.4749  0.5302 -0.2409
  618MOL0     C81481   4.757   2.776  10.727 -0.6549  0.3436  0.6603
  618MOL0     C81482   4.880   2.816  10.815 -1.2387 -0.4679  0.1506
  618MOL0     C81483   4.859   2.940  10.904  0.2826  0.0946  0.1038
  618MOL0     C81484   4.819   3.071  10.847  0.3202  0.5252  0.3047
  618MOL0     C81485   4.711   3.154  10.923 -0.3715  0.8588  0.0136
  618MOL0     C81486   4.569   3.106  10.926  0.1023  0.3687 -0.4678
  618MOL0     C81487   4.507   3.113  11.065 -0.3122 -0.2589 -0.2103
  618MOL0    Cl81488   4.587   2.991  11.174  0.4819 -0.5329 -0.2119
  618MOL0     C81489   4.617   2.328  10.849 -0.0259 -0.0440  0.2013
  618MOL0     C81490   4.578   2.196  10.829  0.0757  0.3322 -0.6390
  618MOL0     O81491   4.512   1.973  10.512  0.7885 -0.8741 -0.1008
  618MOL0     C81492   4.437   1.716  10.527 -0.8748 -0.0135  0.1447
  618MOL0     C81493   4.393   1.589  10.560 -0.0086  0.6306 -0.8597
  618MOL0     N81494   4.544   0.835  10.615 -0.5133  0.2905  0.3070
  618MOL0     N81495   4.504   0.729  10.548 -0.0034 -0.5751 -0.3967
  618MOL0     C81496   3.898  -0.017  11.136  0.5800 -0.2190  0.1110
  618MOL0     C81497   3.762  -0.010  11.101  0.1659  0.2145 -1.2962
  618MOL0     C81498   3.433   0.239  10.864  0.9681  0.9964 -0.1501
  618MOL0     C81499   3.371   0.308  10.759 -0.0263  0.0561 -0.1742
  618MOL0     C81500   3.244   0.349  10.751 -0.4996  0.2228  0.2841
  618MOL0     C81501   3.158   0.319  10.856 -0.1738  0.0102 -0.6450
  618MOL0     O81502   3.019   0.342  10.839 -0.6969 -0.3750  0.0579
  618MOL0     C81503   2.926   0.287  10.935 -0.8922 -0.6357 -0.4513
  618MOL0     C81504   2.793   0.344  10.906  0.1786  0.2497 -0.0839
  618MOL0     C81505   2.717   0.280  10.785 -0.6922  0.1671 -1.2024
  618MOL0     C81506   2.631   0.149  10.808  1.3013 -0.0797  0.1865
  618MOL0     C81507   2.724   0.032  10.853 -0.7249 -0.6340 -0.2410
  618MOL0     C81508   2.783  -0.066  10.890  0.2844 -0.5407 -0.6575
  618MOL0     C81509   3.217   0.255  10.969  0.0218  0.5533  0.3865
  618MOL0     C81510   3.349   0.210  10.979 -0.5308  0.2726 -0.4176
  618MOL0     H81511   3.787   0.075  10.779 -2.4934  0.0408  0.7622
  618MOL0     H81512   4.042   0.077  10.855 -2.5358  1.0301 -1.1129
  618MOL0     H81513   4.142   0.048  11.286  2.6632 -0.5743  1.2550
  618MOL0     H81514   4.128   0.199  11.188  0.9680  0.2094 -0.3576
  618MOL0     H81515   4.361   0.022  11.249 -2.3015 -1.2124 -0.6424
  618MOL0     H81516   4.335   0.203  11.262 -0.4774  1.0975 -0.8349
  618MOL0     H81517   4.376   0.070  10.984  3.4687  0.6462 -0.5827
  618MOL0     H81518   4.500   0.130  11.073  0.1630 -3.0935 -0.6455
  618MOL0     H81519   4.263   0.322  11.077  0.1962  0.4272  1.9009
  618MOL0     H81520   4.436   0.358  11.068 -1.1229 -0.0331 -1.1619
  618MOL0     H81521   4.245   0.255  10.840 -0.7060  1.3845  0.6376
  618MOL0     H81522   4.414   0.237  10.828  2.3903  2.3691 -1.0149
  618MOL0     H81523   4.427   0.486  10.869  1.4599  0.3474 -1.4306
  618MOL0     H81524   4.259   0.487  10.836  0.2414  0.0824  0.9578
  618MOL0     H81525   4.490   0.435  10.641  0.5182  1.0067  1.2850
  618MOL0     H81526   4.340   0.343  10.604  1.1417  0.1614 -1.7526
  618MOL0     H81527   4.224   0.567  10.604  0.1835  0.7023 -0.4032
  618MOL0     H81528   4.344   0.520  10.489 -1.5960 -0.2968  0.0942
  618MOL0     H81529   4.277   0.774  10.783 -0.5726  2.9271 -0.9555
  618MOL0     H81530   4.572   1.028  10.786 -0.3311  1.9612  4.4423
  618MOL0     H81531   4.459   0.965  10.899  4.6717 -2.3396 -0.7191
  618MOL0     H81532   4.329   1.170  10.798 -1.6359  1.9828 -2.6796
  618MOL0     H81533   4.296   1.038  10.683 -0.4012 -0.3867  0.8176
  618MOL0     H81534   4.560   1.192  10.660  1.8087  0.0194 -2.9448
  618MOL0     H81535   4.468   1.116  10.525 -2.3476  0.7950 -1.9391
  618MOL0     H81536   4.285   1.285  10.557  0.5198 -1.1228  0.7804
  618MOL0     H81537   4.445   1.345  10.507 -0.1981 -2.2555 -1.5080
  618MOL0     H81538   4.521   1.550  10.880 -0.2697  2.0707  1.1475
  618MOL0     H81539   4.571   1.770  10.834 -1.9140 -0.3330  2.0854
  618MOL0     H81540   4.742   2.149  10.527  0.1156 -3.7281  0.3570
  618MOL0     H81541   4.784   2.384  10.564  2.2099  0.8804  0.8910
  618MOL0     H81542   4.683   2.613  10.587  0.9719  1.9948 -1.8604
  618MOL0     H81543   4.853   2.612  10.634 -0.5398 -0.6761  0.2334
  618MOL0     H81544   4.657   2.792  10.770 -1.9969 -2.9117 -0.8804
  618MOL0     H81545   4.760   2.843  10.640  0.3717 -0.9750 -0.3465
  618MOL0     H81546   4.963   2.828  10.745 -1.3598 -0.7877 -0.0521
  618MOL0     H81547   4.909   2.738  10.886 -1.2799  1.9167  3.0144
  618MOL0     H81548   4.774   2.914  10.968 -1.1766  2.6627 -0.6663
  618MOL0     H81549   4.954   2.958  10.957  1.1004 -2.3097 -0.4125
  618MOL0     H81550   4.771   3.046  10.751 -3.3139 -1.3678  2.3932
  618MOL0     H81551   4.905   3.135  10.827 -0.2326  1.8846  2.0259
  618MOL0     H81552   4.706   3.244  10.861 -2.3572  0.8011  0.0225
  618MOL0     H81553   4.742   3.184  11.023  0.1157  1.7637 -0.3890
  618MOL0     H81554   4.510   3.160  10.851 -1.9242  0.5306  1.1496
  618MOL0     H81555   4.551   3.003  10.895  0.9496  0.8255 -2.6264
  618MOL0     H81556   4.400   3.094  11.061 -0.2778 -0.3710 -3.3005
  618MOL0     H81557   4.514   3.215  11.103  0.2254  0.2591 -1.6262
  618MOL0     H81558   4.587   2.377  10.942  0.0915  1.8386 -0.7008
  618MOL0     H81559   4.511   2.146  10.898 -2.0211  0.6813 -2.3388
  618MOL0     H81560   4.426   1.760  10.428 -3.9113 -2.0083 -0.5481
  618MOL0     H81561   4.323   1.544  10.491  0.3874  1.0550 -1.5520
  618MOL0     H81562   3.920  -0.033  11.241 -0.4500 -2.3842  0.0469
  618MOL0     H81563   3.685  -0.031  11.175  0.5544  1.9389 -0.3537
  618MOL0     H81564   3.423   0.335  10.667 -0.7273 -3.6129 -1.8025
  618MOL0     H81565   3.208   0.395  10.658  2.4669  0.9796 -0.5927
  618MOL0     H81566   2.955   0.321  11.035  2.5231  1.8998 -2.1138
  618MOL0     H81567   2.923   0.178  10.937  0.5686 -0.7233 -1.6451
  618MOL0     H81568   2.726   0.355  10.993 -1.2943 -1.5807 -0.9263
  618MOL0     H81569   2.809   0.451  10.889 -1.5846  0.4933 -0.4944
  618MOL0     H81570   2.791   0.254  10.709  1.6264  0.0125  0.9884
  618MOL0     H81571   2.645   0.353  10.747  0.2166  1.4716 -0.5129
  618MOL0     H81572   2.553   0.172  10.881 -0.0058 -1.2252 -0.7773
  618MOL0     H81573   2.579   0.115  10.718  1.0090  0.7899  0.0237
  618MOL0     H81574   2.845  -0.151  10.914  3.2257  1.1759 -1.6359
  618MOL0     H81575   3.149   0.224  11.048 -2.3674 -1.5972 -2.2775
  618MOL0     H81576   3.380   0.161  11.071 -0.3063  0.1574 -0.5513
  619MOL0     O81577   4.168   4.064   0.016 -0.7695 -0.3437  0.0218
  619MOL0     C81578   4.164   4.175  -0.039 -0.0449 -1.2103  0.2302
  619MOL0     O81579   4.058   4.267  -0.048 -0.3091 -0.7636 -0.6594
  619MOL0     C81580   3.931   4.216  -0.005 -0.8865  0.2236  0.1874
  619MOL0     C81581   3.917   4.166   0.125 -0.3383 -0.5501  0.9833
  619MOL0     C81582   3.796   4.133   0.174  0.3135  0.2864 -0.4528
  619MOL0     C81583   3.678   4.149   0.097 -0.5054  0.1050  0.3164
  619MOL0     O81584   3.551   4.125   0.157 -0.5405  0.2778  0.2189
  619MOL0     C81585   3.428   4.137   0.082  0.2933  0.4333 -1.0009
  619MOL0     C81586   3.388   4.000   0.021  0.3738  0.3301  0.4531
  619MOL0     C81587   3.379   3.883   0.119  0.6377 -0.2696 -0.2058
  619MOL0     C81588   3.240   3.824   0.131 -0.6641 -0.5503  0.7316
  619MOL0     C81589   3.221   3.709   0.220 -0.3019  1.0377 -0.3713
  619MOL0     C81590   3.327   3.601   0.209  0.1104 -0.2749  0.3884
  619MOL0     C81591   3.319   3.495   0.315 -0.6743  0.7570 -0.1458
  619MOL0     C81592   3.297   3.535   0.456 -0.4655 -0.0004 -0.5568
  619MOL0     N81593   3.158   3.524   0.492 -0.2447  0.7905  0.2228
  619MOL0     C81594   3.099   3.402   0.528  0.1031 -0.6955 -0.4300
  619MOL0     C81595   3.012   3.436   0.631  0.8407 -1.1178 -0.1931
  619MOL0     C81596   2.930   3.343   0.703 -0.5256  0.7696 -0.1950
  619MOL0     C81597   3.006   3.226   0.781 -0.0861 -0.0543  0.4879
  619MOL0     C81598   2.905   3.119   0.826 -0.1579 -0.3724 -1.1456
  619MOL0     C81599   2.985   3.011   0.893 -0.2515 -0.8256 -0.2908
  619MOL0     O81600   2.901   2.915   0.951  0.1539  0.2093  0.4890
  619MOL0     C81601   2.958   2.826   1.040  0.5466 -0.5371  0.3537
  619MOL0     C81602   2.863   2.724   1.077 -0.5454  0.2130  0.7858
  619MOL0     C81603   2.895   2.628   1.170  0.2902  0.0197 -0.6913
  619MOL0     C81604   3.024   2.628   1.228 -0.4797  0.2141 -0.5046
  619MOL0     C81605   3.056   2.530   1.332 -0.7465 -1.4402 -0.5179
  619MOL0     O81606   3.194   2.503   1.351 -0.2154 -0.0750  0.4248
  619MOL0     C81607   3.243   2.401   1.438 -0.3143 -0.0173  0.6238
  619MOL0     C81608   3.352   2.340   1.377  0.6501  0.4484 -0.0315
  619MOL0     C81609   3.407   2.223   1.429  0.2494 -0.6649 -1.1206
  619MOL0     C81610   3.347   2.161   1.534  0.5843 -0.3195  0.2737
  619MOL0     O81611   3.396   2.056   1.606  0.1566 -0.2844  0.2696
  619MOL0     C81612   3.521   1.993   1.577 -0.2866  0.1939  0.7334
  619MOL0     C81613   3.545   1.882   1.682  0.7043 -0.1827  0.2691
  619MOL0     C81614   3.686   1.822   1.675 -0.2221 -0.2368  0.4274
  619MOL0     C81615   3.705   1.687   1.739  0.5996 -0.0220 -0.0335
  619MOL0     C81616   3.850   1.629   1.729  0.1097  0.3844  0.4546
  619MOL0     C81617   3.877   1.479   1.787 -0.0828 -0.2458  0.7503
  619MOL0     C81618   3.905   1.483   1.935  0.6340  1.0737  0.1984
  619MOL0     C81619   4.020   1.563   1.979  0.3589 -0.2623  0.1703
  619MOL0    Cl81620   4.044   1.550   2.160  0.2298 -0.2541 -0.2782
  619MOL0     C81621   3.227   2.220   1.586 -0.7057  0.5033 -0.1590
  619MOL0     C81622   3.176   2.338   1.533 -0.2315 -0.2445 -0.0192
  619MOL0     O81623   2.966   2.489   1.402  0.3997 -0.5204  0.5074
  619MOL0     C81624   3.119   2.715   1.190 -0.0719 -0.9269  0.2783
  619MOL0     C81625   3.087   2.823   1.098  0.0459  0.4220  0.3648
  619MOL0     N81626   3.019   3.568   0.650  0.5040  0.0794 -0.6614
  619MOL0     N81627   3.101   3.619   0.566 -0.1489  0.2506  0.2149
  619MOL0     C81628   3.683   4.200  -0.032 -0.4381 -0.0524 -0.2440
  619MOL0     C81629   3.810   4.236  -0.080 -0.3493 -0.4406  0.4579
  619MOL0     C81630   4.296   4.208  -0.090  0.2789 -0.2052  0.1871
  619MOL0     C81631   4.402   4.269  -0.021  0.1688 -0.0940 -0.5368
  619MOL0     C81632   4.529   4.273  -0.068 -0.5655 -0.0295 -0.0403
  619MOL0     C81633   4.558   4.211  -0.187 -0.1705  0.7802  0.5113
  619MOL0     O81634   4.680   4.229  -0.239  0.1596 -0.3660 -0.4332
  619MOL0     C81635   4.744   4.107  -0.270 -0.6320  0.1439  0.3194
  619MOL0     C81636   4.894   4.125  -0.277 -0.2125 -0.5620  0.4870
  619MOL0     C81637   4.958   4.195  -0.408 -0.3934 -0.7388 -0.9299
  619MOL0     C81638   5.020   4.084  -0.511 -0.3927  0.4433  0.3454
  619MOL0     C81639   5.097   3.981  -0.438  0.7152  0.2516  0.9506
  619MOL0     C81640   5.160   3.879  -0.410 -0.7796  0.9248 -1.2853
  619MOL0     C81641   4.454   4.148  -0.258 -0.1581  0.6642 -0.0439
  619MOL0     C81642   4.323   4.141  -0.210 -0.0199  0.0809 -0.8699
  619MOL0     H81643   4.003   4.146   0.187  0.9906  1.9532  0.0816
  619MOL0     H81644   3.791   4.110   0.280  1.8593  1.4551 -0.0716
  619MOL0     H81645   3.431   4.209  -0.000  0.6873  2.7560  0.9348
  619MOL0     H81646   3.351   4.170   0.153  1.8249  5.3772 -1.2989
  619MOL0     H81647   3.466   3.982  -0.053  1.4826 -0.3258  1.7313
  619MOL0     H81648   3.292   4.008  -0.031  0.0866  3.1130  1.2213
  619MOL0     H81649   3.415   3.926   0.213 -2.1085 -1.3860  1.4851
  619MOL0     H81650   3.451   3.809   0.082  3.4344  2.1372  0.0992
  619MOL0     H81651   3.174   3.909   0.151  0.2972  0.1167  1.1532
  619MOL0     H81652   3.210   3.778   0.037 -0.7982 -1.8668  1.3976
  619MOL0     H81653   3.122   3.663   0.217  0.4667 -1.2301  2.9970
  619MOL0     H81654   3.216   3.751   0.321 -1.8018 -0.3500  0.1745
  619MOL0     H81655   3.432   3.630   0.205  0.5847 -1.7962  0.8844
  619MOL0     H81656   3.296   3.548   0.118 -0.3846 -0.3630  0.6028
  619MOL0     H81657   3.246   3.415   0.299 -0.9218  0.5549  1.7343
  619MOL0     H81658   3.410   3.434   0.318  0.6115  2.5986  0.1001
  619MOL0     H81659   3.333   3.638   0.463 -1.5493  0.7085 -3.7012
  619MOL0     H81660   3.353   3.465   0.519 -1.1333  0.4137  0.5174
  619MOL0     H81661   3.120   3.304   0.487  4.8609 -1.0889  2.1842
  619MOL0     H81662   2.847   3.305   0.643  0.3035  0.5665 -1.2576
  619MOL0     H81663   2.891   3.410   0.780 -0.6191  0.1452  0.3041
  619MOL0     H81664   3.058   3.276   0.864  2.6316  0.8595 -1.6259
  619MOL0     H81665   3.080   3.181   0.714 -1.3842 -0.9793 -0.3642
  619MOL0     H81666   2.841   3.161   0.904  1.7506  0.1817  0.2081
  619MOL0     H81667   2.851   3.083   0.738  0.9346 -1.4119 -1.4227
  619MOL0     H81668   3.035   3.064   0.975  0.3645  1.2975 -1.9297
  619MOL0     H81669   3.052   2.965   0.820  0.6208 -1.4417  0.8659
  619MOL0     H81670   2.767   2.711   1.028  0.1667 -1.4036 -0.2775
  619MOL0     H81671   2.820   2.553   1.192  0.3096  0.1888 -0.0385
  619MOL0     H81672   3.389   2.385   1.286  3.0937  1.7144  1.4727
  619MOL0     H81673   3.500   2.192   1.383  2.1351  1.0251  1.3120
  619MOL0     H81674   3.603   2.064   1.595  1.8665 -2.0815  0.4686
  619MOL0     H81675   3.542   1.962   1.474 -1.5477 -1.0503  0.8229
  619MOL0     H81676   3.477   1.799   1.661  1.2393 -1.2326  2.3954
  619MOL0     H81677   3.524   1.918   1.783  1.2343  1.0528 -0.0411
  619MOL0     H81678   3.764   1.891   1.709 -2.2460  0.7162  3.5367
  619MOL0     H81679   3.707   1.798   1.570 -0.8165  0.2963  0.1771
  619MOL0     H81680   3.678   1.694   1.845  0.7403  0.8780 -0.0534
  619MOL0     H81681   3.635   1.620   1.688  0.9631 -1.5174  1.3396
  619MOL0     H81682   3.924   1.694   1.776  0.5274 -0.1845  0.6045
  619MOL0     H81683   3.882   1.634   1.624  0.6026  0.4096  0.6048
  619MOL0     H81684   3.969   1.449   1.737 -0.7800 -0.6578 -0.3230
  619MOL0     H81685   3.792   1.416   1.759 -0.3985  0.0052  1.1280
  619MOL0     H81686   3.816   1.511   1.992  2.4569  3.0616  2.2415
  619MOL0     H81687   3.925   1.382   1.972 -2.8673  0.5720  1.1509
  619MOL0     H81688   4.011   1.669   1.954 -2.3475 -0.3011  0.6870
  619MOL0     H81689   4.114   1.521   1.941 -1.0566 -2.4217 -1.1777
  619MOL0     H81690   3.182   2.161   1.665 -4.8976  0.8117 -2.0803
  619MOL0     H81691   3.082   2.378   1.570 -0.3148  0.4325 -0.9299
  619MOL0     H81692   3.218   2.708   1.233 -0.1285 -2.3777  0.2208
  619MOL0     H81693   3.163   2.895   1.069  2.1268 -2.2098 -1.3051
  619MOL0     H81694   3.593   4.203  -0.094 -2.8355  0.2311  3.0246
  619MOL0     H81695   3.809   4.268  -0.184 -0.8092  0.5235  0.7466
  619MOL0     H81696   4.368   4.303   0.077 -0.8225  2.0816 -1.5593
  619MOL0     H81697   4.599   4.325  -0.004 -1.4614  1.0896  0.0639
  619MOL0     H81698   4.701   4.061  -0.360  1.4032 -2.3876  0.5286
  619MOL0     H81699   4.723   4.042  -0.185  1.0959  0.2475  0.8706
  619MOL0     H81700   4.911   4.195  -0.195  2.7106 -1.3131  0.6426
  619MOL0     H81701   4.948   4.034  -0.247  1.6815 -0.3582 -1.9932
  619MOL0     H81702   5.037   4.260  -0.371 -2.4799  2.1318 -1.1912
  619MOL0     H81703   4.888   4.259  -0.461 -0.2675 -0.2553 -0.5141
  619MOL0     H81704   4.931   4.037  -0.554  1.0805  0.8972 -3.5757
  619MOL0     H81705   5.079   4.130  -0.591 -1.1580 -0.7331 -0.9301
  619MOL0     H81706   5.205   3.785  -0.388 -1.9590  0.1207 -2.1316
  619MOL0     H81707   4.461   4.107  -0.359  0.0944 -1.4146  0.7612
  619MOL0     H81708   4.246   4.079  -0.255 -1.1125 -0.3595  1.4510
  620MOL0     O81709  11.171   3.290   5.547 -0.2875  0.0227  0.1068
  620MOL0     C81710  11.050   3.313   5.571 -0.1587 -0.0701 -0.1544
  620MOL0     O81711  10.984   3.305   5.687 -0.2552 -0.9542  0.1002
  620MOL0     C81712  11.059   3.342   5.797  0.0914  0.0525  0.0562
  620MOL0     C81713  11.084   3.242   5.901 -0.5351  0.3813 -0.6180
  620MOL0     C81714  11.176   3.276   5.999  0.7860 -0.7479 -0.0217
  620MOL0     C81715  11.217   3.412   6.021  0.7359  0.1382 -0.6680
  620MOL0     O81716  11.286   3.456   6.125 -0.7188  0.0432  0.1115
  620MOL0     C81717  11.418   3.410   6.115  0.6036  0.5872  0.3445
  620MOL0     C81718  11.526   3.516   6.130 -0.2258  0.6220 -0.7708
  620MOL0     C81719  11.667   3.474   6.101 -0.2231 -0.7820  0.7179
  620MOL0     C81720  11.698   3.416   5.961  0.1727  0.3339 -0.3003
  620MOL0     C81721  11.845   3.361   5.966 -1.2227 -0.5733 -0.0500
  620MOL0     C81722  11.878   3.301   5.829  0.4420 -0.0419 -0.5140
  620MOL0     C81723  12.029   3.249   5.809  0.5460  0.6859  0.2456
  620MOL0     C81724  12.065   3.146   5.921 -0.4044  0.1529 -0.3751
  620MOL0     N81725  12.211   3.112   5.901  0.1477  0.3121  0.3258
  620MOL0     C81726  12.249   2.976   5.887 -0.0958  0.3835  0.1884
  620MOL0     C81727  12.382   2.986   5.901  0.0005  0.1935 -0.5095
  620MOL0     C81728  12.474   2.872   5.871  0.3184 -1.0402 -0.5432
  620MOL0     C81729  12.488   2.860   5.722  0.3859 -0.2751 -0.3260
  620MOL0     C81730  12.564   2.738   5.689 -0.0170 -0.6224  0.2696
  620MOL0     C81731  12.602   2.728   5.539  0.0191 -0.6145 -0.8906
  620MOL0     O81732  12.481   2.680   5.471  0.3880  0.6242 -0.5800
  620MOL0     C81733  12.498   2.621   5.356  0.7642 -1.0178  0.3096
  620MOL0     C81734  12.613   2.616   5.272 -0.4637  0.0475 -0.4321
  620MOL0     C81735  12.618   2.548   5.147  0.7843  0.4367  0.5271
  620MOL0     C81736  12.500   2.484   5.099  0.6259 -0.0410 -0.2290
  620MOL0     C81737  12.488   2.389   4.973 -0.1880  0.4918  0.4553
  620MOL0     O81738  12.600   2.334   4.913  0.2256  0.4564  0.1974
  620MOL0     C81739  12.655   2.400   4.809 -0.2632  0.2173  0.4671
  620MOL0     C81740  12.760   2.333   4.732  1.2408  0.0253  0.0542
  620MOL0     C81741  12.836   2.403   4.632 -0.6621 -0.2883  0.0970
  620MOL0     C81742  12.815   2.532   4.614 -0.0476 -0.2053 -0.1030
  620MOL0     O81743  12.891   2.583   4.515 -0.2642  0.0723 -0.5438
  620MOL0     C81744  12.841   2.687   4.435 -0.9168  1.0215 -0.5202
  620MOL0     C81745  12.899   2.689   4.303 -0.6482 -0.8006 -0.2339
  620MOL0     C81746  12.849   2.576   4.205 -0.5022 -0.6638 -0.0565
  620MOL0     C81747  12.894   2.444   4.251  0.3216  0.8055 -0.1665
  620MOL0     C81748  12.876   2.336   4.138 -1.0679 -0.3236 -1.0016
  620MOL0     C81749  13.001   2.256   4.115 -0.6431  0.2554  0.1834
  620MOL0     C81750  13.007   2.141   4.014 -0.0934  0.4136  1.0523
  620MOL0     C81751  12.934   2.014   4.054 -0.6391 -0.3033 -0.3910
  620MOL0    Cl81752  12.762   2.033   4.064 -0.1031  0.0900 -0.2513
  620MOL0     C81753  12.721   2.601   4.687 -0.4100 -0.5165 -0.0733
  620MOL0     C81754  12.635   2.537   4.777 -0.9626 -1.0362  0.0818
  620MOL0     O81755  12.375   2.361   4.932 -0.6303  0.0519  0.5704
  620MOL0     C81756  12.387   2.485   5.187  0.4048  0.0935 -0.1714
  620MOL0     C81757  12.392   2.545   5.309 -0.6189 -0.3142 -0.1499
  620MOL0     N81758  12.414   3.121   5.919 -0.8839 -0.5965 -0.4315
  620MOL0     N81759  12.312   3.198   5.926 -0.2995 -0.3718  0.6617
  620MOL0     C81760  11.176   3.510   5.926 -1.1290  0.4702 -0.5503
  620MOL0     C81761  11.105   3.466   5.818  0.2511 -0.6034 -0.1837
  620MOL0     C81762  10.973   3.347   5.445  0.1391  0.7102  0.8668
  620MOL0     C81763  11.036   3.398   5.328 -0.1503 -0.0337  0.7652
  620MOL0     C81764  10.958   3.426   5.216  0.4931  0.6358 -0.4534
  620MOL0     C81765  10.825   3.390   5.210 -0.6217  0.6402  0.5598
  620MOL0     O81766  10.766   3.424   5.094  0.7513  0.2591 -0.3770
  620MOL0     C81767  10.648   3.360   5.054 -0.6122  0.7524 -0.3167
  620MOL0     C81768  10.678   3.218   5.005  1.0349  0.2507 -1.0551
  620MOL0     C81769  10.557   3.157   4.926  0.8421  0.5188 -0.9246
  620MOL0     C81770  10.544   3.011   4.958  0.3970 -1.0091  0.3610
  620MOL0     C81771  10.442   2.979   5.063 -0.6774  0.2730  0.0694
  620MOL0     C81772  10.353   2.950   5.140 -0.0804 -0.3533 -0.5126
  620MOL0     C81773  10.769   3.342   5.330 -0.0152 -0.4147  0.6601
  620MOL0     C81774  10.839   3.328   5.441 -0.7497 -1.6085  0.2042
  620MOL0     H81775  11.030   3.148   5.898 -0.8295  0.5134  0.1603
  620MOL0     H81776  11.211   3.206   6.074 -2.1960 -2.0408  0.2806
  620MOL0     H81777  11.431   3.362   6.018  0.9973  0.5223  0.4296
  620MOL0     H81778  11.425   3.333   6.192 -0.2875 -0.4235 -0.5473
  620MOL0     H81779  11.510   3.543   6.234 -1.3180 -4.0349  0.5254
  620MOL0     H81780  11.508   3.592   6.053  0.1647 -1.7218 -3.3643
  620MOL0     H81781  11.698   3.396   6.171  1.4341 -0.4514  0.4001
  620MOL0     H81782  11.729   3.562   6.123 -2.9455  1.0486  1.7037
  620MOL0     H81783  11.626   3.338   5.935 -0.1089  1.0046 -1.6565
  620MOL0     H81784  11.694   3.494   5.885  0.5627 -0.7733 -1.4909
  620MOL0     H81785  11.860   3.302   6.057 -1.6584  0.3366  0.6287
  620MOL0     H81786  11.910   3.447   5.982 -2.9390  0.6694  0.5119
  620MOL0     H81787  11.861   3.386   5.763  2.1658  1.8230  1.3144
  620MOL0     H81788  11.808   3.217   5.822  1.0662 -0.7282  1.0271
  620MOL0     H81789  12.035   3.195   5.714 -3.2629  1.6041 -0.6767
  620MOL0     H81790  12.104   3.329   5.800  0.4767  0.9836  1.9801
  620MOL0     H81791  11.990   3.067   5.922  0.3773 -0.5968 -0.2237
  620MOL0     H81792  12.062   3.199   6.017  4.8694 -0.0216  0.1917
  620MOL0     H81793  12.186   2.892   5.860 -3.3395  1.7195  2.9542
  620MOL0     H81794  12.436   2.781   5.918  1.5517  0.7930  4.6102
  620MOL0     H81795  12.564   2.911   5.917 -0.8769 -0.6497  1.5776
  620MOL0     H81796  12.541   2.944   5.676  4.1043 -2.8517 -1.3180
  620MOL0     H81797  12.388   2.847   5.680 -0.1532 -2.3885  1.4165
  620MOL0     H81798  12.654   2.750   5.749  0.8364  1.3451 -1.2539
  620MOL0     H81799  12.509   2.645   5.706 -3.0045  1.1605  1.1234
  620MOL0     H81800  12.684   2.656   5.535  3.1417  2.7096 -2.9750
  620MOL0     H81801  12.628   2.826   5.499  1.3282  0.2251  1.7586
  620MOL0     H81802  12.705   2.661   5.308 -1.0586  1.6014 -0.7843
  620MOL0     H81803  12.710   2.542   5.090 -0.4757  1.0239 -1.7129
  620MOL0     H81804  12.782   2.233   4.766 -1.6717 -0.1460  1.7815
  620MOL0     H81805  12.928   2.359   4.594 -1.1921 -0.7343 -0.6977
  620MOL0     H81806  12.863   2.776   4.496  0.5246  1.6394 -1.8593
  620MOL0     H81807  12.733   2.677   4.426 -1.0537  0.7407  1.1599
  620MOL0     H81808  13.007   2.676   4.321 -1.0015 -3.2194  0.4110
  620MOL0     H81809  12.879   2.789   4.263  1.8134  0.1660  0.7067
  620MOL0     H81810  12.882   2.593   4.103  0.6979  0.0685  0.4337
  620MOL0     H81811  12.740   2.589   4.206 -0.3516  0.7494  0.3488
  620MOL0     H81812  13.002   2.451   4.272 -0.0646  3.5587  1.4624
  620MOL0     H81813  12.844   2.409   4.342 -0.8656  3.1142  0.1516
  620MOL0     H81814  12.836   2.381   4.046  0.2245 -0.0326 -1.4451
  620MOL0     H81815  12.797   2.270   4.173 -0.6850 -0.4948 -0.4542
  620MOL0     H81816  13.028   2.217   4.214 -0.4602  1.7171  0.7375
  620MOL0     H81817  13.076   2.330   4.083 -0.2922  0.1144  0.6670
  620MOL0     H81818  12.970   2.175   3.916 -0.6308 -1.6139  0.4918
  620MOL0     H81819  13.112   2.124   3.992  0.3004  5.1807 -2.3835
  620MOL0     H81820  12.984   1.978   4.145 -0.4123 -0.4658 -0.5762
  620MOL0     H81821  12.950   1.929   3.987  1.7901 -0.5739  0.4389
  620MOL0     H81822  12.709   2.707   4.667 -0.6301 -0.6709 -0.7947
  620MOL0     H81823  12.569   2.599   4.837  1.2611 -1.8526  3.6913
  620MOL0     H81824  12.299   2.424   5.167  0.7107 -1.1066  1.8452
  620MOL0     H81825  12.302   2.549   5.370 -0.4886  2.0595 -0.0081
  620MOL0     H81826  11.224   3.607   5.936  0.1292  0.1194 -2.5181
  620MOL0     H81827  11.080   3.551   5.754  2.8345 -0.1130 -0.6364
  620MOL0     H81828  11.143   3.415   5.321 -0.4845  2.4310  0.8762
  620MOL0     H81829  10.998   3.483   5.133  2.1596  0.3383  0.1076
  620MOL0     H81830  10.613   3.422   4.971 -1.9577  0.2851 -0.1288
  620MOL0     H81831  10.560   3.356   5.119 -1.9071  1.6017 -1.9338
  620MOL0     H81832  10.765   3.214   4.938 -0.5528 -0.3608 -3.2033
  620MOL0     H81833  10.698   3.158   5.094  1.4565  0.3299 -1.0957
  620MOL0     H81834  10.574   3.159   4.818  0.8596 -0.9413 -0.9607
  620MOL0     H81835  10.470   3.218   4.953 -0.9380 -1.6715 -1.4151
  620MOL0     H81836  10.514   2.957   4.868 -2.0578 -0.5016  0.8255
  620MOL0     H81837  10.648   2.982   4.978  1.1613  0.2411 -1.4593
  620MOL0     H81838  10.268   2.910   5.193  0.2776 -3.8319 -2.3069
  620MOL0     H81839  10.665   3.315   5.347  0.0298  0.2526  2.1983
  620MOL0     H81840  10.791   3.294   5.533 -1.0615 -1.2392  0.1828
  621MOL0     O81841   7.265   2.520   4.108 -0.5555  0.2254 -0.3407
  621MOL0     C81842   7.190   2.433   4.156 -0.8186 -0.0760  0.5324
  621MOL0     O81843   7.065   2.405   4.115  0.0990  0.3981 -0.3115
  621MOL0     C81844   7.028   2.485   4.002  1.0927  1.4885  0.2697
  621MOL0     C81845   7.064   2.450   3.870 -0.1647 -0.1064 -0.6846
  621MOL0     C81846   7.009   2.512   3.760  0.3202  0.5220  0.8343
  621MOL0     C81847   6.903   2.599   3.770  0.7319 -0.3208 -0.5252
  621MOL0     O81848   6.851   2.668   3.659  0.6620 -0.4640  0.6097
  621MOL0     C81849   6.815   2.806   3.667 -1.3428  0.4058  0.8066
  621MOL0     C81850   6.925   2.886   3.728 -0.2039 -0.2160 -0.0446
  621MOL0     C81851   7.053   2.899   3.635 -0.4746 -0.6892 -0.7485
  621MOL0     C81852   7.171   2.972   3.701  0.3323 -0.2515  0.5481
  621MOL0     C81853   7.287   2.961   3.602 -0.3610 -0.1366  0.2730
  621MOL0     C81854   7.384   3.087   3.627  0.4065  0.0577 -0.7371
  621MOL0     C81855   7.515   3.079   3.550 -0.5448 -0.4839  0.3595
  621MOL0     C81856   7.579   3.212   3.575 -0.2898 -0.8607  1.0155
  621MOL0     N81857   7.717   3.231   3.521 -0.2186  0.9125  1.0057
  621MOL0     C81858   7.766   3.359   3.482  0.1673 -0.8034 -0.4447
  621MOL0     C81859   7.892   3.331   3.435 -0.1654 -0.0911 -0.9300
  621MOL0     C81860   7.984   3.444   3.369 -0.0903 -0.4843 -0.9197
  621MOL0     C81861   8.117   3.475   3.448  0.7823  0.5990  0.6908
  621MOL0     C81862   8.198   3.351   3.490 -0.1765  0.5061  0.3455
  621MOL0     C81863   8.247   3.261   3.384 -0.2119  0.9738  0.0831
  621MOL0     O81864   8.293   3.341   3.273  1.0621 -1.0552  0.0363
  621MOL0     C81865   8.404   3.299   3.194  0.8325 -0.5951 -0.8687
  621MOL0     C81866   8.449   3.168   3.194  0.0283  1.0768  0.1617
  621MOL0     C81867   8.574   3.137   3.146  0.6077 -1.0629 -0.1017
  621MOL0     C81868   8.644   3.242   3.084  0.4409  0.5368 -0.1074
  621MOL0     C81869   8.772   3.212   3.023 -1.0596  0.0570 -0.1126
  621MOL0     O81870   8.833   3.093   3.068  0.2825 -0.2696  0.3871
  621MOL0     C81871   8.950   3.039   3.008 -0.5027 -0.2834  0.2765
  621MOL0     C81872   9.046   2.958   3.073  0.0548 -0.4465 -0.1397
  621MOL0     C81873   9.164   2.912   3.022 -1.3163  0.4951  0.3771
  621MOL0     C81874   9.198   2.954   2.893  1.0626 -0.1592 -0.4304
  621MOL0     O81875   9.307   2.915   2.821  0.4687 -0.0040 -0.2963
  621MOL0     C81876   9.437   2.919   2.884  0.2153 -0.0001 -0.7287
  621MOL0     C81877   9.471   3.063   2.930 -0.0935  0.6632  0.7733
  621MOL0     C81878   9.627   3.068   2.970 -0.4836 -0.4903 -0.0112
  621MOL0     C81879   9.681   3.205   2.992  0.8433 -0.3187 -0.4431
  621MOL0     C81880   9.828   3.213   3.018  0.2852 -1.1709 -0.7823
  621MOL0     C81881   9.861   3.366   3.026  0.4742 -0.9177  0.0815
  621MOL0     C81882  10.001   3.402   3.095  0.1467 -0.6533 -1.0384
  621MOL0     C81883  10.127   3.394   3.014 -0.4715 -0.1772 -0.0260
  621MOL0    Cl81884  10.269   3.427   3.113  0.3239  0.1850  0.4719
  621MOL0     C81885   9.106   3.035   2.823 -0.6091 -0.7146 -0.2203
  621MOL0     C81886   8.982   3.071   2.874  0.2820  0.4493  0.5799
  621MOL0     O81887   8.819   3.293   2.942  0.2668  0.4538  0.4414
  621MOL0     C81888   8.595   3.371   3.083  0.3415  0.6482  0.2681
  621MOL0     C81889   8.473   3.400   3.139 -0.1638 -0.4245  0.3624
  621MOL0     N81890   7.920   3.196   3.451  0.5608  0.4384 -0.2550
  621MOL0     N81891   7.814   3.139   3.494 -0.2487  1.0393  0.0868
  621MOL0     C81892   6.854   2.621   3.905  0.1751 -0.6532  0.4115
  621MOL0     C81893   6.914   2.565   4.019  0.2736  0.0071  0.3293
  621MOL0     C81894   7.222   2.366   4.281  0.0116 -0.3226  0.4403
  621MOL0     C81895   7.140   2.274   4.337 -0.6484  0.0306 -0.8861
  621MOL0     C81896   7.169   2.208   4.459  0.8632  0.5975  0.1829
  621MOL0     C81897   7.286   2.237   4.528 -0.1251  0.6072 -0.8160
  621MOL0     O81898   7.323   2.173   4.643 -0.2242  0.9633 -0.8223
  621MOL0     C81899   7.214   2.175   4.743  0.6163 -0.6379 -0.0356
  621MOL0     C81900   7.187   2.315   4.802  0.4144  0.0184 -0.5687
  621MOL0     C81901   7.252   2.330   4.938  0.9223  0.5617  0.3599
  621MOL0     C81902   7.407   2.362   4.935 -0.1509  0.6953  0.1852
  621MOL0     C81903   7.435   2.479   4.853  0.6885 -0.2463  0.3232
  621MOL0     C81904   7.456   2.569   4.772 -0.4226  0.1206  0.2842
  621MOL0     C81905   7.370   2.337   4.478 -0.9342  0.7651 -0.4625
  621MOL0     C81906   7.343   2.396   4.358 -0.2044 -0.4494  0.4969
  621MOL0     H81907   7.141   2.374   3.858  0.3091  0.7693 -5.6394
  621MOL0     H81908   7.053   2.508   3.661 -0.0081  3.5611  0.4816
  621MOL0     H81909   6.720   2.824   3.720 -0.1751  0.9782  2.8408
  621MOL0     H81910   6.803   2.852   3.569  0.5176  0.1144  0.4151
  621MOL0     H81911   6.947   2.847   3.828 -2.4052 -0.1434  0.5116
  621MOL0     H81912   6.894   2.986   3.757  2.0417  0.4139  0.3734
  621MOL0     H81913   7.020   2.966   3.554  1.2505 -0.4324 -1.2724
  621MOL0     H81914   7.096   2.804   3.603  2.4646  0.4219 -0.3990
  621MOL0     H81915   7.154   3.079   3.718  2.7611  0.3029 -0.1446
  621MOL0     H81916   7.196   2.924   3.796 -2.0456 -5.3585 -1.0541
  621MOL0     H81917   7.266   2.965   3.495 -1.7402  1.5000  0.5687
  621MOL0     H81918   7.349   2.871   3.612 -1.2105 -0.9590 -1.4802
  621MOL0     H81919   7.411   3.081   3.733  0.7390 -2.2885 -0.9045
  621MOL0     H81920   7.327   3.179   3.607  3.9784  2.2394 -1.7784
  621MOL0     H81921   7.581   2.995   3.572  0.3185  0.2842  0.7431
  621MOL0     H81922   7.489   3.079   3.444 -0.1600  3.3510  0.1333
  621MOL0     H81923   7.577   3.244   3.679 -2.7949 -1.6641  1.2783
  621MOL0     H81924   7.515   3.282   3.519  0.8554 -2.7069 -2.9955
  621MOL0     H81925   7.708   3.450   3.487  0.2406 -0.6444 -1.9749
  621MOL0     H81926   7.920   3.533   3.368 -0.0433 -0.3969  0.8942
  621MOL0     H81927   8.008   3.433   3.263 -0.3683  0.7552 -1.1203
  621MOL0     H81928   8.074   3.518   3.540  0.2477 -0.7796  1.1071
  621MOL0     H81929   8.189   3.541   3.399  2.5682 -0.8188  1.3039
  621MOL0     H81930   8.289   3.381   3.543  0.7726 -1.1289 -0.2762
  621MOL0     H81931   8.131   3.301   3.561 -1.3700  3.5474  1.5127
  621MOL0     H81932   8.170   3.194   3.344  0.7095  0.3251 -0.6640
  621MOL0     H81933   8.328   3.202   3.427 -3.3041 -1.7841  2.5452
  621MOL0     H81934   8.400   3.079   3.233  2.8486 -0.3557  0.7456
  621MOL0     H81935   8.614   3.036   3.135  2.7479 -0.1295 -1.6045
  621MOL0     H81936   9.027   2.934   3.177  0.9080  0.4299  0.2349
  621MOL0     H81937   9.232   2.848   3.078  1.2610 -0.1863 -3.1606
  621MOL0     H81938   9.519   2.875   2.826  0.9562 -0.3018  0.4815
  621MOL0     H81939   9.426   2.857   2.974 -1.6741  2.0083  0.5190
  621MOL0     H81940   9.407   3.088   3.016 -1.1080  0.2403  0.1571
  621MOL0     H81941   9.446   3.128   2.846  1.8041  1.2146  0.6078
  621MOL0     H81942   9.693   3.027   2.894  0.0714 -0.6582  0.5532
  621MOL0     H81943   9.649   3.004   3.056  2.1279 -0.7335 -0.7841
  621MOL0     H81944   9.659   3.267   2.905  1.4521  0.1863 -0.2435
  621MOL0     H81945   9.651   3.259   3.082  2.6603  1.6721 -0.9650
  621MOL0     H81946   9.883   3.178   2.930 -0.1381  0.1489 -1.6107
  621MOL0     H81947   9.854   3.168   3.115 -0.5736  0.8808  0.4656
  621MOL0     H81948   9.788   3.417   3.089  0.1763  0.5701 -1.3708
  621MOL0     H81949   9.851   3.416   2.929 -0.9492  1.5243  1.3703
  621MOL0     H81950  10.001   3.506   3.128 -0.0190 -0.3435 -1.9723
  621MOL0     H81951   9.999   3.332   3.179 -1.5172 -0.9293 -1.2697
  621MOL0     H81952  10.112   3.478   2.945 -1.5547  2.9032  3.6518
  621MOL0     H81953  10.133   3.298   2.963  0.5822 -0.1573  0.0231
  621MOL0     H81954   9.141   3.070   2.726 -1.2153 -1.9925 -0.9237
  621MOL0     H81955   8.928   3.143   2.814  0.7981  0.4354  0.0868
  621MOL0     H81956   8.664   3.447   3.046  0.9372  1.1593  2.2793
  621MOL0     H81957   8.434   3.500   3.156 -0.1536 -0.6150  1.5622
  621MOL0     H81958   6.767   2.684   3.919  1.6075  1.8944 -1.2064
  621MOL0     H81959   6.870   2.560   4.118 -0.7853  2.1576  0.0325
  621MOL0     H81960   7.044   2.249   4.292  0.1356  1.0625 -3.2639
  621MOL0     H81961   7.104   2.127   4.492  1.1684 -1.0177 -2.8221
  621MOL0     H81962   7.236   2.091   4.809 -1.9696  0.2795  2.2012
  621MOL0     H81963   7.119   2.156   4.691  1.0449 -0.1326 -1.0145
  621MOL0     H81964   7.212   2.385   4.723  0.8237 -1.0340 -1.3994
  621MOL0     H81965   7.082   2.300   4.829  1.3655 -5.0754  1.5877
  621MOL0     H81966   7.232   2.236   4.990 -1.6613 -0.4072 -2.1365
  621MOL0     H81967   7.208   2.402   5.009 -0.9473 -1.3307  1.2161
  621MOL0     H81968   7.430   2.382   5.040 -1.0448 -0.9863  0.7523
  621MOL0     H81969   7.455   2.272   4.897 -0.9685  1.9727 -4.4072
  621MOL0     H81970   7.478   2.653   4.709  1.2700  0.3749  1.1513
  621MOL0     H81971   7.460   2.353   4.535 -2.8126  1.4554  2.5038
  621MOL0     H81972   7.427   2.449   4.316 -1.7667  2.2826  0.6257
  622MOL0     O81973   4.436   7.367   5.766  0.1059 -0.1592 -0.0825
  622MOL0     C81974   4.450   7.458   5.842 -0.2550 -0.0367 -0.3831
  622MOL0     O81975   4.469   7.454   5.975  0.7692  0.2443  0.0428
  622MOL0     C81976   4.461   7.342   6.056 -0.5614  0.1624 -0.9091
  622MOL0     C81977   4.420   7.211   6.026  0.9929 -0.0561 -0.1233
  622MOL0     C81978   4.403   7.107   6.132 -0.6005  0.4382  0.3478
  622MOL0     C81979   4.427   7.140   6.257 -1.3611  0.4176  0.8024
  622MOL0     O81980   4.395   7.043   6.345 -0.3840  0.2518 -0.1067
  622MOL0     C81981   4.481   7.003   6.451 -0.2315 -0.6212  0.5631
  622MOL0     C81982   4.406   6.991   6.582 -0.2248  0.3030 -0.3940
  622MOL0     C81983   4.358   7.134   6.626 -0.9755  0.3098  0.6986
  622MOL0     C81984   4.296   7.147   6.766  0.1901  0.3207 -0.4459
  622MOL0     C81985   4.386   7.100   6.877 -0.0730 -0.5407 -0.0132
  622MOL0     C81986   4.523   7.157   6.880 -0.0925  0.1555  0.4809
  622MOL0     C81987   4.585   7.128   7.013 -0.1457  0.1110  0.4012
  622MOL0     C81988   4.722   7.192   7.027 -0.4493  0.5382  0.4000
  622MOL0     N81989   4.817   7.103   6.954 -0.2932  0.1158 -0.1474
  622MOL0     C81990   4.875   6.995   7.003  0.7663 -0.4971 -1.0952
  622MOL0     C81991   4.944   6.939   6.904  0.4968 -0.7063  0.3641
  622MOL0     C81992   4.992   6.797   6.903  1.3611 -0.2639 -0.7066
  622MOL0     C81993   5.138   6.785   6.856  0.0738  0.1791  0.3233
  622MOL0     C81994   5.233   6.875   6.934  0.3904 -0.0092  0.2513
  622MOL0     C81995   5.245   6.879   7.086 -1.1770  0.3287 -0.5904
  622MOL0     O81996   5.297   6.755   7.123  0.0959  0.2719 -0.4478
  622MOL0     C81997   5.271   6.695   7.249 -0.5656  0.0292  0.1863
  622MOL0     C81998   5.276   6.556   7.255  0.3941 -0.6616 -0.0076
  622MOL0     C81999   5.239   6.500   7.374 -1.1419  0.1494 -0.3765
  622MOL0     C82000   5.204   6.572   7.491 -0.0455  0.1546  1.2265
  622MOL0     C82001   5.165   6.506   7.611  0.9586  0.6525  0.8921
  622MOL0     O82002   5.155   6.368   7.605  0.1693  0.0460  0.3811
  622MOL0     C82003   5.102   6.310   7.711  0.0028  1.2041  0.0126
  622MOL0     C82004   4.973   6.255   7.709 -0.1679  0.2279  0.8076
  622MOL0     C82005   4.909   6.196   7.816 -0.4494 -0.2861  0.1758
  622MOL0     C82006   4.991   6.164   7.931 -0.5749  0.1633 -0.5256
  622MOL0     O82007   4.932   6.099   8.030 -0.0992 -0.2951 -0.5755
  622MOL0     C82008   5.017   6.014   8.108  0.3828  0.3716  1.0712
  622MOL0     C82009   5.028   6.070   8.252  0.3437 -0.8938  0.4486
  622MOL0     C82010   5.155   6.025   8.314  0.0032 -0.2691  0.0198
  622MOL0     C82011   5.150   5.871   8.338 -0.0346 -0.1074  0.2101
  622MOL0     C82012   5.269   5.820   8.409  0.2524  0.1173 -1.2410
  622MOL0     C82013   5.254   5.678   8.457 -0.7094 -0.8199  0.1477
  622MOL0     C82014   5.386   5.612   8.483  0.4723  0.4324  0.2132
  622MOL0     C82015   5.460   5.672   8.596  0.0117 -0.5986 -0.3490
  622MOL0    Cl82016   5.628   5.625   8.615 -0.5185  0.1930 -0.1006
  622MOL0     C82017   5.117   6.227   7.941 -0.3600  0.5934 -0.0962
  622MOL0     C82018   5.175   6.290   7.827 -0.5493  0.1155  0.1013
  622MOL0     O82019   5.121   6.572   7.704 -1.6297 -0.2186  0.2194
  622MOL0     C82020   5.215   6.712   7.480  0.3686  0.4113  0.2620
  622MOL0     C82021   5.255   6.774   7.362  0.7934 -0.1972 -0.3165
  622MOL0     N82022   4.938   7.021   6.794 -0.1570 -0.0233  0.0296
  622MOL0     N82023   4.870   7.128   6.831 -0.0911 -0.0330  0.0370
  622MOL0     C82024   4.477   7.263   6.291 -0.5357  0.6675 -0.8472
  622MOL0     C82025   4.497   7.362   6.189 -0.9842  0.3492 -0.1720
  622MOL0     C82026   4.439   7.592   5.776 -0.9131 -0.4851 -0.1204
  622MOL0     C82027   4.436   7.595   5.628 -0.6486  0.6631 -0.6635
  622MOL0     C82028   4.439   7.715   5.562 -1.1606 -0.0495 -0.0723
  622MOL0     C82029   4.441   7.833   5.633  0.3497 -0.3840  0.7964
  622MOL0     O82030   4.445   7.953   5.564 -0.3576  0.1608  0.2776
  622MOL0     C82031   4.547   7.967   5.471 -0.8482  0.6240 -0.3006
  622MOL0     C82032   4.606   8.110   5.471 -0.3364 -0.4603 -0.5977
  622MOL0     C82033   4.657   8.140   5.614  0.3550 -0.2571 -0.4622
  622MOL0     C82034   4.760   8.039   5.671  0.2897 -1.0834  0.3689
  622MOL0     C82035   4.850   8.131   5.759  1.1247  0.0578  0.1534
  622MOL0     C82036   4.937   8.191   5.818 -0.7538 -0.2936  0.2908
  622MOL0     C82037   4.435   7.836   5.772 -0.4718 -0.7932 -1.3826
  622MOL0     C82038   4.429   7.719   5.843  0.1503  0.1031 -0.3163
  622MOL0     H82039   4.401   7.186   5.921  4.0369  2.4063 -1.3972
  622MOL0     H82040   4.383   7.001   6.116  1.2178  0.2418 -0.9208
  622MOL0     H82041   4.552   7.085   6.469  0.2849 -1.2849  1.6925
  622MOL0     H82042   4.532   6.908   6.433  1.9873 -0.0791  3.2262
  622MOL0     H82043   4.475   6.962   6.662 -1.3576  0.3582  0.6293
  622MOL0     H82044   4.323   6.921   6.572 -3.6056  3.7826  0.7649
  622MOL0     H82045   4.278   7.156   6.555  0.3365 -1.8918 -1.6205
  622MOL0     H82046   4.437   7.207   6.608 -1.2809  1.6268  3.9229
  622MOL0     H82047   4.257   7.247   6.786  0.1045  0.2430 -0.2206
  622MOL0     H82048   4.210   7.080   6.773  1.7730 -1.6201  3.7987
  622MOL0     H82049   4.398   6.991   6.883  0.8437 -0.5625 -1.6653
  622MOL0     H82050   4.334   7.149   6.959  2.6594  2.1820  0.2760
  622MOL0     H82051   4.517   7.265   6.864 -2.0134 -0.1757 -1.5795
  622MOL0     H82052   4.590   7.114   6.805  2.0272 -1.9928  3.3881
  622MOL0     H82053   4.524   7.169   7.094 -1.5255 -2.3766  0.7333
  622MOL0     H82054   4.586   7.020   7.032  1.6284 -0.0361 -0.3386
  622MOL0     H82055   4.740   7.199   7.135 -0.6346 -0.2913  0.4908
  622MOL0     H82056   4.721   7.296   6.994  1.5124  0.1321 -1.1052
  622MOL0     H82057   4.844   6.962   7.102 -0.7308  2.7224 -0.3573
  622MOL0     H82058   4.934   6.739   6.831  1.9448 -2.4708  0.5366
  622MOL0     H82059   4.979   6.749   7.000  1.2641  1.5822  0.2541
  622MOL0     H82060   5.141   6.804   6.749 -1.4269  3.7302  0.7726
  622MOL0     H82061   5.164   6.679   6.870 -2.6574 -1.0941 -2.9195
  622MOL0     H82062   5.334   6.859   6.896  0.2970 -4.3527  1.3861
  622MOL0     H82063   5.218   6.979   6.903  2.0023  0.2540  0.2723
  622MOL0     H82064   5.142   6.892   7.121 -2.7754 -2.1503 -3.7849
  622MOL0     H82065   5.318   6.953   7.120 -1.1780  0.2177 -0.3478
  622MOL0     H82066   5.298   6.502   7.164 -1.9619  0.5919 -1.4383
  622MOL0     H82067   5.231   6.391   7.375 -0.9861  0.1052 -1.8045
  622MOL0     H82068   4.925   6.271   7.613 -0.4064 -1.6342  0.5932
  622MOL0     H82069   4.805   6.167   7.805 -0.2984 -0.0182 -2.5030
  622MOL0     H82070   5.115   5.995   8.061 -0.8865  0.8179 -2.0237
  622MOL0     H82071   4.975   5.913   8.113  0.9345  0.2122  3.3717
  622MOL0     H82072   4.935   6.046   8.304 -0.8173 -1.0727 -1.6022
  622MOL0     H82073   5.030   6.179   8.237 -0.8357 -0.9148  0.0314
  622MOL0     H82074   5.167   6.090   8.402  1.6607  1.6329 -1.4885
  622MOL0     H82075   5.243   6.033   8.249 -1.0947 -0.8589 -1.5758
  622MOL0     H82076   5.064   5.853   8.403  2.0192  0.8736  3.4725
  622MOL0     H82077   5.141   5.812   8.247 -0.3614  0.2299  0.0206
  622MOL0     H82078   5.281   5.884   8.497 -0.6332  0.5800 -1.4444
  622MOL0     H82079   5.355   5.833   8.343 -0.4590 -1.1881 -2.4769
  622MOL0     H82080   5.206   5.635   8.368 -1.8595  1.2187 -0.2934
  622MOL0     H82081   5.197   5.655   8.548  2.1423 -1.8311  1.7990
  622MOL0     H82082   5.383   5.504   8.500 -0.4695  0.0970 -1.7925
  622MOL0     H82083   5.443   5.599   8.390 -0.2258 -1.7254  0.0306
  622MOL0     H82084   5.398   5.670   8.687 -1.1433 -0.8916 -1.1154
  622MOL0     H82085   5.466   5.780   8.579 -4.3552 -0.4549 -2.6244
  622MOL0     H82086   5.164   6.230   8.039 -2.1616  1.9047  0.7940
  622MOL0     H82087   5.278   6.323   7.818 -0.6000  2.1666  4.2455
  622MOL0     H82088   5.192   6.773   7.568 -1.2164 -1.7742  1.4501
  622MOL0     H82089   5.266   6.882   7.362  2.8414 -0.2516  2.8813
  622MOL0     H82090   4.505   7.285   6.393 -1.5777  2.2252 -0.8542
  622MOL0     H82091   4.540   7.453   6.230 -0.2797 -0.4441  0.9226
  622MOL0     H82092   4.439   7.505   5.567  0.9931 -0.6632  1.2154
  622MOL0     H82093   4.435   7.717   5.453 -0.7847 -0.5110 -0.0962
  622MOL0     H82094   4.505   7.940   5.374 -0.7301  1.7631 -0.6792
  622MOL0     H82095   4.630   7.896   5.485 -0.7049  0.9228  0.3808
  622MOL0     H82096   4.687   8.122   5.399  1.6347 -0.9760  1.3996
  622MOL0     H82097   4.528   8.184   5.452  1.1484  0.9032 -1.5765
  622MOL0     H82098   4.568   8.140   5.677 -1.1003  0.2298 -2.4335
  622MOL0     H82099   4.693   8.243   5.608  1.9581 -0.3792  3.6839
  622MOL0     H82100   4.702   7.965   5.726 -1.5371  0.3926  0.5297
  622MOL0     H82101   4.815   7.993   5.588 -1.8635 -0.0123 -1.8025
  622MOL0     H82102   5.029   8.241   5.844  0.6715 -1.2005 -2.5543
  622MOL0     H82103   4.435   7.937   5.811  3.2057 -1.0782 -0.1861
  622MOL0     H82104   4.412   7.701   5.949 -0.2665  1.2542 -0.1675
  623MOL0     O82105   2.341   7.567   2.271 -0.1294  0.2419  0.1889
  623MOL0     C82106   2.393   7.653   2.200  0.1229 -0.2756  0.3647
  623MOL0     O82107   2.514   7.635   2.133  0.6268  0.1749  0.1669
  623MOL0     C82108   2.563   7.502   2.134  0.2014 -0.1051 -0.2051
  623MOL0     C82109   2.497   7.395   2.076  0.5713  0.8666  0.8739
  623MOL0     C82110   2.542   7.268   2.074  0.6254 -0.3714  0.3988
  623MOL0     C82111   2.661   7.244   2.132  0.2459  0.7815  0.5870
  623MOL0     O82112   2.711   7.112   2.140  0.0140 -0.2685  0.5224
  623MOL0     C82113   2.843   7.091   2.146 -0.6040 -0.4842 -0.4228
  623MOL0     C82114   2.869   6.944   2.132  0.5407 -0.2585  0.3378
  623MOL0     C82115   3.014   6.904   2.095 -0.0913 -0.1891  0.1418
  623MOL0     C82116   3.112   6.914   2.220 -0.7162 -0.8419  0.9727
  623MOL0     C82117   3.118   6.781   2.297 -0.9477  1.0455  0.1037
  623MOL0     C82118   3.229   6.691   2.239 -0.1061 -0.9263  1.1548
  623MOL0     C82119   3.229   6.568   2.338 -0.2773  0.1833  0.9178
  623MOL0     C82120   3.334   6.457   2.291 -0.3997 -0.1217 -0.0713
  623MOL0     N82121   3.381   6.382   2.399 -0.0316  0.3800 -0.6674
  623MOL0     C82122   3.301   6.313   2.483 -0.0257 -0.0663 -0.6581
  623MOL0     C82123   3.389   6.250   2.566  1.1706  0.3029 -0.3001
  623MOL0     C82124   3.334   6.158   2.677 -0.6473 -0.0426  0.3330
  623MOL0     C82125   3.281   6.028   2.623 -0.0822  0.8432  0.3964
  623MOL0     C82126   3.247   5.928   2.739 -0.5735 -0.2002  0.7524
  623MOL0     C82127   3.203   5.795   2.691 -0.4568  0.4363  0.2376
  623MOL0     O82128   3.289   5.734   2.595 -0.7869 -0.6326  0.2348
  623MOL0     C82129   3.302   5.597   2.575  0.7590 -0.5503 -0.5174
  623MOL0     C82130   3.206   5.513   2.625  0.0893  0.7261  0.6265
  623MOL0     C82131   3.212   5.377   2.594 -0.6163  0.3586  0.1246
  623MOL0     C82132   3.318   5.320   2.520  0.4591 -0.6891 -0.5782
  623MOL0     C82133   3.342   5.173   2.495  0.2950  0.4763  0.5189
  623MOL0     O82134   3.470   5.142   2.428  0.0735  0.7818  0.0998
  623MOL0     C82135   3.495   5.014   2.393 -1.3343 -0.7172  0.1331
  623MOL0     C82136   3.528   4.975   2.264 -0.0520 -0.5097  0.7845
  623MOL0     C82137   3.556   4.839   2.238  0.0590 -0.1704  0.1478
  623MOL0     C82138   3.571   4.755   2.347  0.2926  0.5740 -0.8444
  623MOL0     O82139   3.612   4.629   2.327  0.0210 -0.0617  1.1604
  623MOL0     C82140   3.510   4.538   2.375  0.4646  0.3788  0.0173
  623MOL0     C82141   3.549   4.401   2.335  0.9764 -0.0984 -0.1172
  623MOL0     C82142   3.557   4.377   2.182 -0.4201 -0.2826  0.2886
  623MOL0     C82143   3.630   4.249   2.136  0.5401 -0.6034 -0.0051
  623MOL0     C82144   3.634   4.210   1.986  0.6714 -0.6908 -0.0898
  623MOL0     C82145   3.666   4.320   1.887  0.0971  0.4593  0.3224
  623MOL0     C82146   3.697   4.262   1.748 -0.7875 -0.2578 -0.1586
  623MOL0     C82147   3.799   4.343   1.668  0.6452  0.6570 -0.8803
  623MOL0    Cl82148   3.865   4.236   1.544 -0.0686  0.0194 -0.0372
  623MOL0     C82149   3.532   4.788   2.476  0.2817 -0.3768 -0.1550
  623MOL0     C82150   3.495   4.918   2.498 -0.3665  0.8547 -0.5228
  623MOL0     O82151   3.256   5.086   2.523  0.4343 -0.1823 -0.4463
  623MOL0     C82152   3.410   5.415   2.470 -0.6946  0.0896 -0.1856
  623MOL0     C82153   3.401   5.547   2.493 -0.1750 -0.4210 -0.9447
  623MOL0     N82154   3.510   6.269   2.526 -0.0209  0.3965 -0.3143
  623MOL0     N82155   3.512   6.352   2.427  0.2214 -0.3146  0.5305
  623MOL0     C82156   2.734   7.348   2.197  0.0885  0.4470  0.6325
  623MOL0     C82157   2.683   7.484   2.199  0.8032  0.2066  0.3381
  623MOL0     C82158   2.325   7.778   2.198 -0.4595  0.9059  0.8727
  623MOL0     C82159   2.386   7.897   2.143 -0.2875  0.1942  0.5281
  623MOL0     C82160   2.323   8.025   2.157 -0.4229  0.0612 -0.6322
  623MOL0     C82161   2.196   8.046   2.209 -0.8606  0.6339  0.8435
  623MOL0     O82162   2.151   8.177   2.219  0.5332  0.5061  0.4070
  623MOL0     C82163   2.019   8.202   2.257  0.1814  0.5317 -0.6459
  623MOL0     C82164   1.967   8.330   2.211  0.3504  0.3914 -0.7484
  623MOL0     C82165   2.075   8.443   2.226  0.0481  0.1902 -1.0134
  623MOL0     C82166   2.102   8.473   2.375 -0.3121 -0.0912  1.0926
  623MOL0     C82167   1.995   8.561   2.421 -0.0490 -0.6654 -0.0071
  623MOL0     C82168   1.907   8.623   2.478  0.5137 -0.5325  0.0397
  623MOL0     C82169   2.132   7.926   2.250 -0.5153  0.1235  0.2219
  623MOL0     C82170   2.202   7.800   2.259  0.2796  0.2690 -0.2481
  623MOL0     H82171   2.405   7.413   2.021  1.0837  0.0764 -0.2822
  623MOL0     H82172   2.497   7.191   2.012 -0.7837  1.2655 -0.7211
  623MOL0     H82173   2.887   7.117   2.243 -0.8451 -5.5224  1.3862
  623MOL0     H82174   2.886   7.150   2.064  0.1534 -0.7741 -0.2449
  623MOL0     H82175   2.809   6.902   2.050 -0.2868  0.0588  0.7817
  623MOL0     H82176   2.846   6.882   2.219  0.9442 -1.7587 -0.5722
  623MOL0     H82177   3.054   6.966   2.014 -4.0679  1.1229 -1.0798
  623MOL0     H82178   3.013   6.798   2.066 -1.5988  0.0544 -0.8161
  623MOL0     H82179   3.205   6.951   2.175 -2.7538  0.0379 -2.9344
  623MOL0     H82180   3.072   6.993   2.284 -0.0194  0.3696 -0.0439
  623MOL0     H82181   3.025   6.724   2.297  0.3613 -1.2329 -1.2932
  623MOL0     H82182   3.144   6.803   2.401 -5.3113  1.4555  1.3396
  623MOL0     H82183   3.333   6.724   2.234 -0.7393  1.0861 -0.3662
  623MOL0     H82184   3.189   6.664   2.140  0.5133 -4.4290  1.7303
  623MOL0     H82185   3.255   6.609   2.436 -0.2499 -3.0396  2.3790
  623MOL0     H82186   3.130   6.522   2.337 -0.2765  0.1820  0.8608
  623MOL0     H82187   3.417   6.506   2.239 -2.4118  1.6480 -1.8301
  623MOL0     H82188   3.292   6.401   2.207 -1.9242  0.2666  0.3886
  623MOL0     H82189   3.193   6.304   2.494 -0.5519  0.0184 -4.2683
  623MOL0     H82190   3.261   6.212   2.738  0.8433  1.1576  1.0999
  623MOL0     H82191   3.413   6.143   2.751 -1.7281 -0.4486  1.4467
  623MOL0     H82192   3.337   5.980   2.543 -0.5027  1.2529 -0.1507
  623MOL0     H82193   3.190   6.057   2.570  0.1371 -1.3426 -1.3045
  623MOL0     H82194   3.342   5.921   2.793 -0.4590 -1.1127  0.4435
  623MOL0     H82195   3.178   5.962   2.817 -1.7221  0.2742 -0.4419
  623MOL0     H82196   3.105   5.805   2.646  0.3322  0.6658 -1.4970
  623MOL0     H82197   3.189   5.727   2.776  3.4926  0.7609  1.3672
  623MOL0     H82198   3.113   5.536   2.678 -0.0170  0.0242  0.7542
  623MOL0     H82199   3.135   5.308   2.628  0.5424 -1.0022  0.1121
  623MOL0     H82200   3.546   5.057   2.195  1.5418 -1.7491 -0.3184
  623MOL0     H82201   3.578   4.810   2.136  0.8646 -0.4429  0.3908
  623MOL0     H82202   3.416   4.561   2.323 -1.0619  0.8772  2.8097
  623MOL0     H82203   3.486   4.540   2.481 -0.4155  0.6587 -0.1814
  623MOL0     H82204   3.463   4.351   2.381 -0.5412  2.2155 -0.2282
  623MOL0     H82205   3.639   4.373   2.390  0.0552  0.7458  1.9502
  623MOL0     H82206   3.617   4.462   2.147 -1.0749 -0.1969 -0.6744
  623MOL0     H82207   3.455   4.380   2.141 -0.1692  0.4501 -0.3143
  623MOL0     H82208   3.732   4.262   2.174  0.5270  1.3720 -0.5829
  623MOL0     H82209   3.586   4.167   2.194  3.3727 -0.7212  2.2175
  623MOL0     H82210   3.529   4.186   1.969 -0.4364  1.8055  2.3300
  623MOL0     H82211   3.710   4.133   1.971  0.5207 -0.6072 -1.3691
  623MOL0     H82212   3.744   4.388   1.921  1.2732  0.5148 -2.2071
  623MOL0     H82213   3.577   4.381   1.870 -0.3639 -0.2115  0.2770
  623MOL0     H82214   3.735   4.159   1.750  2.2452  0.6845 -1.8512
  623MOL0     H82215   3.611   4.264   1.681  1.4449 -0.4957 -3.2908
  623MOL0     H82216   3.877   4.386   1.731  0.0558  0.8296 -0.2622
  623MOL0     H82217   3.752   4.432   1.624  1.1422  1.3522 -0.0331
  623MOL0     H82218   3.537   4.716   2.558 -1.6905 -1.2440 -0.7269
  623MOL0     H82219   3.454   4.938   2.597  0.2926  1.5870 -0.3887
  623MOL0     H82220   3.493   5.379   2.408  1.9984 -0.4157  3.3903
  623MOL0     H82221   3.470   5.620   2.452  0.4980  0.0983  1.0174
  623MOL0     H82222   2.809   7.315   2.268 -1.4848 -0.1470  2.0712
  623MOL0     H82223   2.731   7.573   2.237 -3.1450  4.0273 -2.5258
  623MOL0     H82224   2.477   7.892   2.083 -1.3991 -1.1469 -1.1393
  623MOL0     H82225   2.370   8.116   2.121 -3.3966  3.4866  3.2182
  623MOL0     H82226   1.997   8.200   2.364  1.3032  4.4211 -0.1798
  623MOL0     H82227   1.962   8.118   2.215  1.7319 -1.3097  0.7867
  623MOL0     H82228   1.945   8.315   2.105 -0.7488 -0.1920 -0.4452
  623MOL0     H82229   1.873   8.364   2.255  0.4163 -2.2653  1.7544
  623MOL0     H82230   2.040   8.524   2.162  1.2679 -1.2592 -3.6989
  623MOL0     H82231   2.166   8.409   2.176  0.7938 -1.6990  1.4166
  623MOL0     H82232   2.139   8.391   2.437  2.0276 -1.5457 -1.9979
  623MOL0     H82233   2.191   8.536   2.377  2.8335 -4.0724  0.3276
  623MOL0     H82234   1.821   8.668   2.524  0.2816 -0.2189 -0.6839
  623MOL0     H82235   2.031   7.947   2.284 -0.3448  1.8277 -0.2424
  623MOL0     H82236   2.156   7.717   2.311 -0.3000  0.0064 -1.1578
  624MOL0     O82237   5.327   7.508   3.711  0.3011 -0.1086 -0.1163
  624MOL0     C82238   5.345   7.466   3.825 -0.7669  0.6443  0.4853
  624MOL0     O82239   5.245   7.450   3.920  0.1339  0.0503 -0.4988
  624MOL0     C82240   5.105   7.443   3.890 -0.9724  0.6511  0.3060
  624MOL0     C82241   5.027   7.434   4.002 -0.2242 -0.7661  0.1244
  624MOL0     C82242   4.888   7.401   3.975 -0.1510 -0.8007  0.0992
  624MOL0     C82243   4.837   7.368   3.854  0.3031 -1.1496  0.7320
  624MOL0     O82244   4.708   7.326   3.843 -0.3460 -0.5204  0.3458
  624MOL0     C82245   4.699   7.196   3.787  0.1594  0.0539  1.0768
  624MOL0     C82246   4.602   7.122   3.889 -0.8249 -0.4787 -1.0861
  624MOL0     C82247   4.675   7.096   4.027  0.1104  0.6784  0.6384
  624MOL0     C82248   4.613   6.976   4.106  0.5312  0.4805 -0.3870
  624MOL0     C82249   4.664   6.988   4.248 -0.2331  0.3005  0.0430
  624MOL0     C82250   4.607   6.871   4.322 -0.2353  0.3597  0.2900
  624MOL0     C82251   4.709   6.832   4.441 -0.5102 -0.0683 -0.6470
  624MOL0     C82252   4.814   6.718   4.402 -0.1566 -0.1458 -0.2472
  624MOL0     N82253   4.913   6.666   4.495  0.4067  0.2095 -0.2326
  624MOL0     C82254   5.023   6.734   4.533 -0.7983 -0.2021 -0.0084
  624MOL0     C82255   5.091   6.651   4.614 -0.3720 -0.2410  0.0149
  624MOL0     C82256   5.222   6.660   4.677  0.2452  0.0826 -0.6137
  624MOL0     C82257   5.231   6.748   4.797 -0.3316 -0.5155 -0.1496
  624MOL0     C82258   5.375   6.768   4.823 -0.4093  0.5021 -0.1721
  624MOL0     C82259   5.458   6.875   4.756 -0.1363  0.7018 -0.1703
  624MOL0     O82260   5.404   7.006   4.754 -0.1399 -0.8238  0.2900
  624MOL0     C82261   5.420   7.084   4.866  0.0797  0.2129 -0.7146
  624MOL0     C82262   5.318   7.174   4.908  0.2449 -0.4872 -1.0836
  624MOL0     C82263   5.326   7.257   5.018 -0.5600 -0.4835  0.3141
  624MOL0     C82264   5.443   7.261   5.087 -1.2886 -0.0228 -0.3865
  624MOL0     C82265   5.446   7.335   5.218  0.3780 -0.2425  0.5368
  624MOL0     O82266   5.564   7.341   5.275 -0.1697  0.3142  0.0733
  624MOL0     C82267   5.577   7.375   5.410  0.7180 -0.6869 -0.3837
  624MOL0     C82268   5.480   7.431   5.498 -0.2590 -0.6001  0.6449
  624MOL0     C82269   5.502   7.442   5.634 -0.9670 -0.3977  0.0789
  624MOL0     C82270   5.626   7.409   5.690 -0.0455 -0.2899  0.5618
  624MOL0     O82271   5.646   7.417   5.824 -0.1519 -0.2458  0.6049
  624MOL0     C82272   5.582   7.323   5.908 -0.1239 -0.1382 -1.2584
  624MOL0     C82273   5.659   7.191   5.916  0.3095 -0.5850 -0.2584
  624MOL0     C82274   5.583   7.070   5.973  0.1770 -0.1915 -0.2621
  624MOL0     C82275   5.522   7.114   6.108  0.2851  0.1584  0.1267
  624MOL0     C82276   5.440   6.998   6.160  1.0643  0.2481  0.6552
  624MOL0     C82277   5.370   7.012   6.303  0.0359  0.1871  1.0139
  624MOL0     C82278   5.282   6.887   6.324 -0.9184 -0.4435  0.4243
  624MOL0     C82279   5.245   6.896   6.474 -0.8789 -0.1346  1.2328
  624MOL0    Cl82280   5.379   6.874   6.581  0.1158  0.4948 -0.1460
  624MOL0     C82281   5.732   7.376   5.598  0.8004  0.0497 -0.8268
  624MOL0     C82282   5.705   7.362   5.463 -0.8595  0.8703  0.1825
  624MOL0     O82283   5.341   7.395   5.256  0.4063 -0.4838  0.1460
  624MOL0     C82284   5.547   7.188   5.040 -0.0366  1.3225 -0.1238
  624MOL0     C82285   5.539   7.095   4.933 -0.8245  0.6496 -0.3367
  624MOL0     N82286   5.016   6.536   4.637 -0.7080 -0.6196  0.1123
  624MOL0     N82287   4.908   6.548   4.562  0.2923 -0.0121  0.5462
  624MOL0     C82288   4.917   7.394   3.737  0.7702 -0.9254 -0.0230
  624MOL0     C82289   5.053   7.414   3.761 -1.5654  0.7903 -0.3270
  624MOL0     C82290   5.483   7.426   3.855 -1.0141  0.9054 -0.2626
  624MOL0     C82291   5.507   7.350   3.973  0.0548 -0.4165 -0.0002
  624MOL0     C82292   5.633   7.291   3.992  0.4839 -0.7570  0.4599
  624MOL0     C82293   5.737   7.307   3.904 -0.2660  0.8019 -0.5422
  624MOL0     O82294   5.850   7.234   3.927  0.7704  0.2799  0.1131
  624MOL0     C82295   5.968   7.279   3.855  0.5024  0.5437 -0.3662
  624MOL0     C82296   5.988   7.170   3.737 -0.8732  0.0551  0.3178
  624MOL0     C82297   6.122   7.197   3.667  0.1271  0.7767  0.1277
  624MOL0     C82298   6.162   7.092   3.557 -0.7873 -0.4763  0.3858
  624MOL0     C82299   6.263   7.001   3.612  0.0191  0.1215  0.3341
  624MOL0     C82300   6.337   6.920   3.668 -0.7707 -0.3640 -0.3062
  624MOL0     C82301   5.713   7.387   3.787 -0.3052  0.0976 -0.8246
  624MOL0     C82302   5.592   7.442   3.759  0.0194 -0.3947  0.1145
  624MOL0     H82303   5.070   7.458   4.098  1.1980 -0.3083 -0.5996
  624MOL0     H82304   4.825   7.400   4.063 -2.7690  1.7030 -1.5457
  624MOL0     H82305   4.794   7.142   3.781 -1.1342 -2.5682  2.4490
  624MOL0     H82306   4.656   7.205   3.686 -0.2588 -1.0401  1.1395
  624MOL0     H82307   4.555   7.028   3.859  0.4576 -2.0611  1.4836
  624MOL0     H82308   4.518   7.189   3.910 -0.0296  0.3288 -0.3900
  624MOL0     H82309   4.672   7.189   4.085 -1.5038  1.4784 -0.6370
  624MOL0     H82310   4.782   7.081   4.009  0.1397 -2.4067  2.7363
  624MOL0     H82311   4.505   6.983   4.095  0.6293  1.2938 -0.9760
  624MOL0     H82312   4.629   6.880   4.055  0.3305  1.5237 -2.5584
  624MOL0     H82313   4.636   7.081   4.298 -1.1742  0.2797 -0.4402
  624MOL0     H82314   4.773   6.984   4.257 -0.3870  0.6894  3.5777
  624MOL0     H82315   4.578   6.779   4.269 -4.2355  0.5148  1.9014
  624MOL0     H82316   4.509   6.907   4.352 -1.0761 -0.5447 -1.2402
  624MOL0     H82317   4.761   6.920   4.480 -2.5797  1.4129 -1.0624
  624MOL0     H82318   4.649   6.783   4.518  2.8488 -0.5855  1.8500
  624MOL0     H82319   4.882   6.748   4.322  2.5852 -4.1935  0.2789
  624MOL0     H82320   4.756   6.632   4.366 -0.8673  0.4012 -0.4476
  624MOL0     H82321   5.055   6.826   4.484 -2.8783 -0.7950 -2.7579
  624MOL0     H82322   5.308   6.682   4.613  0.5770 -0.7120 -0.4531
  624MOL0     H82323   5.230   6.555   4.706 -0.4079  0.0594 -0.5159
  624MOL0     H82324   5.181   6.696   4.879 -0.6625 -2.2185 -1.3862
  624MOL0     H82325   5.187   6.848   4.787  0.7396 -0.2369 -3.0400
  624MOL0     H82326   5.380   6.794   4.929  0.4577  1.4966 -0.4413
  624MOL0     H82327   5.428   6.674   4.804 -0.5136  0.5933 -0.9705
  624MOL0     H82328   5.457   6.841   4.652  0.2185 -0.4796  0.1854
  624MOL0     H82329   5.565   6.862   4.777 -0.5679 -2.4414  0.7263
  624MOL0     H82330   5.217   7.169   4.869 -1.0933 -0.1911  2.1120
  624MOL0     H82331   5.238   7.315   5.044 -0.6991 -0.4383 -0.2395
  624MOL0     H82332   5.376   7.449   5.469 -1.3120  0.5914  4.6016
  624MOL0     H82333   5.424   7.483   5.698  0.6186  1.7618  0.7268
  624MOL0     H82334   5.478   7.304   5.884 -0.0362  0.7218 -2.3846
  624MOL0     H82335   5.589   7.363   6.010 -2.0618 -0.8955 -0.7836
  624MOL0     H82336   5.747   7.214   5.977  0.0131 -0.8391  0.2755
  624MOL0     H82337   5.702   7.157   5.821 -0.1162 -0.1621 -0.6036
  624MOL0     H82338   5.652   6.987   5.992 -0.7129 -1.2567 -1.4448
  624MOL0     H82339   5.514   7.035   5.895  0.4613 -0.8151 -0.2409
  624MOL0     H82340   5.601   7.159   6.167  0.7183 -1.7957  1.1324
  624MOL0     H82341   5.454   7.193   6.074 -1.0242  0.2857  2.8015
  624MOL0     H82342   5.506   6.912   6.172 -1.0264 -1.7837 -1.3834
  624MOL0     H82343   5.364   6.981   6.084  1.8735  4.7310 -1.5217
  624MOL0     H82344   5.307   7.099   6.324 -4.2025 -2.9349  2.5968
  624MOL0     H82345   5.455   7.017   6.372  1.0083 -0.8027 -0.0747
  624MOL0     H82346   5.190   6.898   6.266 -2.7056 -2.8255  2.5533
  624MOL0     H82347   5.344   6.798   6.309 -0.8703 -0.3727  0.2116
  624MOL0     H82348   5.169   6.820   6.497  2.9858 -4.7197  0.3659
  624MOL0     H82349   5.217   6.999   6.499  5.7672  2.4850 -0.0396
  624MOL0     H82350   5.824   7.355   5.652 -0.7079 -0.8669  1.5853
  624MOL0     H82351   5.788   7.350   5.394 -0.8263 -0.1198  0.3744
  624MOL0     H82352   5.644   7.194   5.089  0.9623 -3.7634 -0.8650
  624MOL0     H82353   5.627   7.035   4.908  0.4905  1.1529  2.6952
  624MOL0     H82354   4.864   7.359   3.649 -2.3801 -1.1564  1.8090
  624MOL0     H82355   5.116   7.397   3.674  1.2136  1.6402  1.3977
  624MOL0     H82356   5.425   7.334   4.043  0.8306  1.6415  1.5169
  624MOL0     H82357   5.646   7.231   4.082  0.5528 -0.3507  0.7215
  624MOL0     H82358   6.052   7.287   3.925 -0.5335 -1.6420  1.2471
  624MOL0     H82359   5.955   7.378   3.811  1.0649  0.3898 -0.8839
  624MOL0     H82360   5.994   7.082   3.801 -2.1315 -0.9936 -0.9460
  624MOL0     H82361   5.911   7.160   3.660 -1.8731  0.0250  1.3055
  624MOL0     H82362   6.197   7.189   3.746  0.0110 -1.6025  0.0701
  624MOL0     H82363   6.124   7.295   3.618 -0.3361 -0.0582 -1.6384
  624MOL0     H82364   6.078   7.037   3.514 -0.9132 -0.6562  0.8532
  624MOL0     H82365   6.206   7.144   3.471  1.3189  1.2382  2.3620
  624MOL0     H82366   6.393   6.838   3.708  1.0911  0.7595 -0.4596
  624MOL0     H82367   5.790   7.397   3.712  2.7933  2.6612  2.3375
  624MOL0     H82368   5.580   7.486   3.661  1.2971  0.0075  0.1181
  625MOL0     O82369   5.616   5.622   5.682  0.0996 -0.1855 -0.3081
  625MOL0     C82370   5.538   5.533   5.688  0.0278 -0.2916  0.6153
  625MOL0     O82371   5.566   5.400   5.666 -0.5476  0.3225  0.2700
  625MOL0     C82372   5.695   5.363   5.686  0.2458 -1.0274 -0.4372
  625MOL0     C82373   5.768   5.376   5.805 -0.4024  0.0509 -0.8177
  625MOL0     C82374   5.909   5.342   5.806  0.1951 -0.3565  0.0365
  625MOL0     C82375   5.973   5.269   5.705 -0.3832 -0.7183 -0.4924
  625MOL0     O82376   6.103   5.227   5.709 -0.4768 -0.4368  0.3899
  625MOL0     C82377   6.193   5.236   5.826 -1.0331 -0.0491  0.3983
  625MOL0     C82378   6.342   5.203   5.778 -0.4351  0.1127  0.3393
  625MOL0     C82379   6.409   5.301   5.678 -0.4271  0.9999 -0.8444
  625MOL0     C82380   6.492   5.418   5.746 -0.1633  0.2542 -0.7192
  625MOL0     C82381   6.573   5.487   5.640  1.1349 -0.8190  0.8537
  625MOL0     C82382   6.682   5.575   5.701  0.6715 -0.3925 -0.7927
  625MOL0     C82383   6.783   5.599   5.597  1.2407 -0.2980 -0.2805
  625MOL0     C82384   6.898   5.680   5.673  0.7584  0.2221 -0.4207
  625MOL0     N82385   7.009   5.699   5.582  0.5845  0.3931  0.2965
  625MOL0     C82386   7.126   5.624   5.579 -0.5071  0.3433 -0.0604
  625MOL0     C82387   7.202   5.685   5.484  0.6286  0.0648  0.5574
  625MOL0     C82388   7.347   5.651   5.456  0.3415  0.4415  0.8895
  625MOL0     C82389   7.368   5.496   5.437 -1.1835 -0.6223  0.3075
  625MOL0     C82390   7.517   5.465   5.401  0.4944 -0.5102 -0.1182
  625MOL0     C82391   7.532   5.331   5.323 -0.0678  0.1597  0.1713
  625MOL0     O82392   7.667   5.325   5.295  0.5048 -0.6974  0.2405
  625MOL0     C82393   7.741   5.249   5.371 -0.1441  0.4093  0.4128
  625MOL0     C82394   7.710   5.198   5.501 -0.1243  1.0271 -0.3242
  625MOL0     C82395   7.789   5.115   5.573  0.0803 -0.5101 -0.7307
  625MOL0     C82396   7.918   5.090   5.530  0.0413  0.1342  0.6814
  625MOL0     C82397   8.001   4.993   5.597  0.0699  1.1300 -0.0276
  625MOL0     O82398   8.129   5.015   5.581 -0.6588  0.5750  0.3010
  625MOL0     C82399   8.231   4.934   5.624 -0.1377 -0.3785  0.5583
  625MOL0     C82400   8.233   4.797   5.619  0.0033 -0.2997  0.3303
  625MOL0     C82401   8.346   4.720   5.656  1.6619  0.4915  0.3233
  625MOL0     C82402   8.455   4.787   5.690  0.9505  0.0179 -0.7718
  625MOL0     O82403   8.563   4.712   5.712  0.8024  0.0507  0.0854
  625MOL0     C82404   8.691   4.752   5.642 -0.8266 -0.1568  0.4607
  625MOL0     C82405   8.700   4.688   5.506 -0.2322  0.2561  0.7344
  625MOL0     C82406   8.618   4.761   5.402  0.2402  0.8057 -0.5636
  625MOL0     C82407   8.626   4.687   5.272 -0.2382  0.2373 -0.0891
  625MOL0     C82408   8.752   4.735   5.196 -0.1313 -0.5433 -0.2325
  625MOL0     C82409   8.743   4.884   5.178 -0.8918 -0.3820  0.3239
  625MOL0     C82410   8.818   4.933   5.059  0.4515 -0.1861 -0.3710
  625MOL0     C82411   8.737   4.911   4.926 -0.3908 -0.7261  0.2682
  625MOL0    Cl82412   8.778   4.753   4.874  0.1219  0.0134 -0.0490
  625MOL0     C82413   8.462   4.924   5.701  0.4780 -0.1199 -0.0980
  625MOL0     C82414   8.347   4.999   5.671  0.8246  0.4613  0.1849
  625MOL0     O82415   7.948   4.923   5.682 -0.0689 -0.7842 -0.6678
  625MOL0     C82416   7.955   5.131   5.398 -0.4367 -0.2465 -0.0045
  625MOL0     C82417   7.873   5.213   5.326 -1.2355 -1.1281 -0.4019
  625MOL0     N82418   7.129   5.804   5.443 -0.0948  1.3439 -1.2336
  625MOL0     N82419   7.009   5.806   5.497  0.0565  0.7233 -0.7485
  625MOL0     C82420   5.893   5.258   5.591 -0.9178 -0.4100 -0.7804
  625MOL0     C82421   5.760   5.304   5.580  0.7264  0.0493  0.8004
  625MOL0     C82422   5.395   5.561   5.696 -0.1595 -0.3790 -0.6223
  625MOL0     C82423   5.300   5.459   5.717 -0.8474  0.1395  0.9209
  625MOL0     C82424   5.167   5.477   5.739  0.4421  0.2530  0.4685
  625MOL0     C82425   5.115   5.605   5.707  0.3284  0.0539  0.2767
  625MOL0     O82426   4.981   5.644   5.720 -0.2649 -0.3873  0.7050
  625MOL0     C82427   4.894   5.541   5.739  0.4186  0.2102  0.2294
  625MOL0     C82428   4.747   5.595   5.713 -0.2956 -0.0535  0.5887
  625MOL0     C82429   4.633   5.516   5.784  0.1944 -0.2891  0.5091
  625MOL0     C82430   4.629   5.382   5.725  0.0423 -0.2370 -0.9464
  625MOL0     C82431   4.498   5.326   5.756  0.0851 -0.0975 -1.6064
  625MOL0     C82432   4.398   5.265   5.769 -0.2368  0.1602 -0.2708
  625MOL0     C82433   5.210   5.711   5.694  0.0787 -0.9928 -0.1554
  625MOL0     C82434   5.352   5.695   5.697  0.9903  0.1369  0.2856
  625MOL0     H82435   5.712   5.414   5.890  2.9207 -0.1528  1.6928
  625MOL0     H82436   5.951   5.356   5.905 -0.0766  4.6530 -0.2908
  625MOL0     H82437   6.174   5.159   5.901  2.9602 -2.0048 -0.3570
  625MOL0     H82438   6.187   5.337   5.868 -1.5490  0.2790 -0.4330
  625MOL0     H82439   6.332   5.103   5.734 -0.4441  0.0806  0.4144
  625MOL0     H82440   6.408   5.184   5.863 -0.4445 -2.1440 -0.0765
  625MOL0     H82441   6.331   5.333   5.608 -3.3901 -0.8910  1.3258
  625MOL0     H82442   6.482   5.245   5.619  0.0726  2.4973 -1.7018
  625MOL0     H82443   6.413   5.491   5.770 -2.0669 -1.6741 -0.7900
  625MOL0     H82444   6.550   5.387   5.833 -2.1843 -1.1317  0.2286
  625MOL0     H82445   6.497   5.551   5.595 -1.6035 -3.4373  1.4558
  625MOL0     H82446   6.595   5.408   5.567  0.1482  0.6176 -1.1186
  625MOL0     H82447   6.725   5.519   5.784  1.5895  0.8133 -0.4315
  625MOL0     H82448   6.630   5.664   5.736 -1.0100 -2.2216  1.7615
  625MOL0     H82449   6.816   5.507   5.549 -1.7364  1.0241 -5.5558
  625MOL0     H82450   6.740   5.659   5.517  2.1545  3.0599  1.5585
  625MOL0     H82451   6.926   5.624   5.763  4.9967  0.7766 -1.1844
  625MOL0     H82452   6.852   5.774   5.704 -0.9466 -0.9532  0.7878
  625MOL0     H82453   7.146   5.538   5.642 -4.3814 -1.7322 -1.3256
  625MOL0     H82454   7.408   5.680   5.542 -1.0704 -0.0778  2.1172
  625MOL0     H82455   7.388   5.696   5.365 -0.5651 -0.6390 -0.0876
  625MOL0     H82456   7.298   5.476   5.355 -2.0340  3.0280 -0.0069
  625MOL0     H82457   7.339   5.431   5.521  1.8801  1.0260  2.8562
  625MOL0     H82458   7.575   5.545   5.355  0.2883 -1.0452 -1.3479
  625MOL0     H82459   7.561   5.451   5.500  1.6084  0.0734 -0.5097
  625MOL0     H82460   7.465   5.352   5.239 -0.2217  1.2089  0.5365
  625MOL0     H82461   7.501   5.236   5.368 -4.7971  0.9952 -0.7370
  625MOL0     H82462   7.616   5.226   5.548 -0.8685  1.0638 -1.7729
  625MOL0     H82463   7.760   5.094   5.675 -0.1166 -1.7606 -1.0278
  625MOL0     H82464   8.138   4.751   5.595  0.6022 -2.5992  2.0144
  625MOL0     H82465   8.339   4.612   5.648 -2.0124  0.4025  2.5780
  625MOL0     H82466   8.777   4.722   5.702 -0.7622  0.3798  0.6388
  625MOL0     H82467   8.714   4.859   5.643 -1.5656  0.0228  2.3134
  625MOL0     H82468   8.670   4.583   5.507  0.9439 -0.0866  1.7870
  625MOL0     H82469   8.807   4.691   5.483  0.0734 -0.2281  2.0167
  625MOL0     H82470   8.652   4.865   5.407 -3.9725  2.4037 -0.9741
  625MOL0     H82471   8.515   4.756   5.440 -0.1244  1.9099 -1.3432
  625MOL0     H82472   8.629   4.580   5.294  1.8238  0.6141  1.9297
  625MOL0     H82473   8.535   4.713   5.217  1.2065  1.3989 -2.0385
  625MOL0     H82474   8.757   4.676   5.103  0.1044 -3.4131  1.4882
  625MOL0     H82475   8.848   4.711   5.241  0.4327  0.6010 -0.7873
  625MOL0     H82476   8.789   4.928   5.267 -3.3541  0.1210  1.4332
  625MOL0     H82477   8.642   4.923   5.165 -0.7786 -0.8364 -2.5030
  625MOL0     H82478   8.828   5.041   5.074  2.3247 -0.3483 -0.2579
  625MOL0     H82479   8.917   4.888   5.049 -0.5164 -2.4506 -0.3548
  625MOL0     H82480   8.748   4.994   4.855  0.7826  0.9787  2.3211
  625MOL0     H82481   8.629   4.917   4.939 -0.4970  1.8252 -1.1116
  625MOL0     H82482   8.554   4.973   5.731  0.3214 -0.5702  1.1919
  625MOL0     H82483   8.361   5.103   5.698 -0.8081  0.6376  0.4498
  625MOL0     H82484   8.046   5.106   5.343 -0.4253  0.3282 -0.2490
  625MOL0     H82485   7.903   5.247   5.228 -2.0969 -0.1175 -0.3290
  625MOL0     H82486   5.946   5.222   5.504 -1.2448  1.2026 -1.6856
  625MOL0     H82487   5.708   5.293   5.486 -1.0056 -0.3750  1.7796
  625MOL0     H82488   5.335   5.356   5.710 -0.8454  0.1549  0.6923
  625MOL0     H82489   5.113   5.394   5.783 -1.3689  1.5365  0.7411
  625MOL0     H82490   4.901   5.508   5.843 -1.2318 -0.7315  0.0835
  625MOL0     H82491   4.906   5.453   5.675  0.2652 -0.9056  1.6893
  625MOL0     H82492   4.741   5.696   5.754 -0.1883 -0.2884  1.1962
  625MOL0     H82493   4.740   5.603   5.604 -0.7537 -1.1159  0.5309
  625MOL0     H82494   4.539   5.568   5.762  1.3470  2.2040  1.0820
  625MOL0     H82495   4.664   5.514   5.889  1.9801 -2.9969  0.0291
  625MOL0     H82496   4.644   5.396   5.618 -1.3530 -0.2440 -1.1649
  625MOL0     H82497   4.701   5.311   5.765 -2.8137 -1.2426  2.9645
  625MOL0     H82498   4.309   5.206   5.765 -0.1669  0.1184 -1.7679
  625MOL0     H82499   5.167   5.810   5.705 -2.7870 -2.2075  0.3081
  625MOL0     H82500   5.406   5.787   5.682 -1.7451  1.4923 -2.2085
  626MOL0     O82501   0.253   8.119  10.066  0.3448  0.8126 -0.6053
  626MOL0     C82502   0.178   8.199  10.122 -0.6779 -0.3505  0.0529
  626MOL0     O82503   0.082   8.274  10.057  0.2314 -0.3112 -0.7703
  626MOL0     C82504   0.103   8.288   9.928 -0.4141  0.8555  1.5203
  626MOL0     C82505   0.034   8.212   9.841 -0.0010 -0.6306 -0.7736
  626MOL0     C82506   0.039   8.239   9.703  0.7906 -0.8470 -0.3657
  626MOL0     C82507   0.102   8.349   9.648  1.1263 -0.2288  0.9355
  626MOL0     O82508   0.081   8.394   9.510 -0.0566  0.7495  0.4539
  626MOL0     C82509   0.202   8.416   9.433  0.8268 -0.0232  0.6774
  626MOL0     C82510   0.305   8.310   9.400 -0.1987 -0.6051 -0.2916
  626MOL0     C82511   0.243   8.171   9.378  0.0566 -0.1186  0.6295
  626MOL0     C82512   0.372   8.077   9.361  1.6659 -0.0112 -0.8084
  626MOL0     C82513   0.338   7.945   9.295 -0.1123 -0.3375  0.0777
  626MOL0     C82514   0.255   7.853   9.378 -0.7820  1.0397  0.3977
  626MOL0     C82515   0.229   7.708   9.332  0.9188 -0.4901  1.0277
  626MOL0     C82516   0.349   7.641   9.260  0.6845  0.5913 -0.1501
  626MOL0     N82517   0.341   7.495   9.257 -0.0971 -0.1952  0.7794
  626MOL0     C82518   0.329   7.410   9.366  0.5833 -1.1631 -0.4351
  626MOL0     C82519   0.311   7.288   9.321 -0.0272 -0.1068  0.7299
  626MOL0     C82520   0.271   7.169   9.409 -0.6548  0.0285 -0.2635
  626MOL0     C82521   0.143   7.099   9.373  0.1634 -0.1527  0.8905
  626MOL0     C82522   0.094   7.012   9.492 -0.1895 -0.3751 -0.3857
  626MOL0     C82523  -0.053   6.998   9.483  0.5058 -0.1587 -0.3968
  626MOL0     O82524  -0.087   6.910   9.591  0.1652 -0.2015 -0.2952
  626MOL0     C82525  -0.220   6.854   9.590  0.4647 -0.4424 -0.8458
  626MOL0     C82526  -0.250   6.770   9.701  0.2845  0.3271  1.2023
  626MOL0     C82527  -0.377   6.696   9.703 -0.5399 -0.6075 -0.0219
  626MOL0     C82528  -0.479   6.718   9.608  0.0057 -0.2888 -0.4465
  626MOL0     C82529  -0.620   6.656   9.620  0.5311 -0.2300 -0.1093
  626MOL0     O82530  -0.651   6.573   9.726 -0.4424 -0.3803 -0.4970
  626MOL0     C82531  -0.772   6.518   9.729 -0.6325  1.0786  0.4915
  626MOL0     C82532  -0.779   6.379   9.676  0.3337 -1.6007 -0.2197
  626MOL0     C82533  -0.905   6.324   9.661  0.7217 -0.1154  0.1508
  626MOL0     C82534  -1.022   6.392   9.708  0.0465 -0.5653  0.2851
  626MOL0     O82535  -1.136   6.318   9.709 -0.0665  0.5079  0.2948
  626MOL0     C82536  -1.216   6.321   9.830  0.0644 -0.4057  0.4494
  626MOL0     C82537  -1.336   6.221   9.821 -0.4836  0.2103 -0.3493
  626MOL0     C82538  -1.292   6.075   9.819  0.1718 -0.0642  0.0429
  626MOL0     C82539  -1.413   5.986   9.800  0.3373  0.8708 -0.1856
  626MOL0     C82540  -1.380   5.834   9.799  1.3092 -0.6543 -0.4991
  626MOL0     C82541  -1.325   5.785   9.661  0.2513 -0.1477 -0.7221
  626MOL0     C82542  -1.302   5.631   9.661  0.7311  0.3267 -1.5318
  626MOL0     C82543  -1.425   5.550   9.619  0.0355 -0.1006  0.1272
  626MOL0    Cl82544  -1.423   5.554   9.444  0.2399 -0.4530  0.1453
  626MOL0     C82545  -1.009   6.518   9.760 -0.3691 -0.1062  0.9948
  626MOL0     C82546  -0.886   6.584   9.761 -0.6434 -0.2869 -0.0024
  626MOL0     O82547  -0.697   6.690   9.532 -0.4739 -0.0143 -0.4077
  626MOL0     C82548  -0.453   6.821   9.516 -0.0668 -0.1350 -0.4716
  626MOL0     C82549  -0.329   6.882   9.503  0.9470 -0.0596  0.3865
  626MOL0     N82550   0.298   7.292   9.179 -1.0273 -0.0532  0.3764
  626MOL0     N82551   0.317   7.412   9.145 -0.2276 -0.6604 -0.0232
  626MOL0     C82552   0.185   8.421   9.739  0.8412 -0.1778  0.2700
  626MOL0     C82553   0.192   8.384   9.876 -0.7755 -0.0440 -0.7589
  626MOL0     C82554   0.182   8.195  10.274  0.3713  0.1831 -0.4245
  626MOL0     C82555   0.250   8.096  10.344  0.9827  1.1396  0.1125
  626MOL0     C82556   0.240   8.077  10.478  0.3637 -1.4426 -0.4858
  626MOL0     C82557   0.156   8.150  10.556 -0.7217  0.2550 -0.9893
  626MOL0     O82558   0.153   8.147  10.697  0.2883 -0.2464  0.5521
  626MOL0     C82559   0.290   8.170  10.755 -0.4109 -0.4631 -0.7821
  626MOL0     C82560   0.301   8.081  10.877  1.0601  1.3938 -0.4100
  626MOL0     C82561   0.396   7.962  10.854  1.0884  0.1940 -0.3891
  626MOL0     C82562   0.418   7.863  10.969  0.0186 -1.2587 -0.1455
  626MOL0     C82563   0.365   7.913  11.100  1.4191  0.4771  0.5574
  626MOL0     C82564   0.336   7.947  11.213  0.0366  0.0084 -0.3837
  626MOL0     C82565   0.062   8.229  10.488  0.0533 -0.4584  0.0387
  626MOL0     C82566   0.080   8.256  10.353 -0.3003 -1.1840  0.2473
  626MOL0     H82567  -0.029   8.139   9.891 -0.7971  1.1173  0.9427
  626MOL0     H82568  -0.033   8.178   9.650 -0.1044 -1.7839  1.8036
  626MOL0     H82569   0.254   8.485   9.501 -2.0878  1.4673  1.5564
  626MOL0     H82570   0.182   8.472   9.341 -0.3634 -0.5614  0.5999
  626MOL0     H82571   0.371   8.294   9.486 -2.0676  0.1460  1.3902
  626MOL0     H82572   0.363   8.345   9.314  2.8616 -3.5128  0.3661
  626MOL0     H82573   0.187   8.173   9.283  1.9199  1.0635 -0.5094
  626MOL0     H82574   0.188   8.139   9.467 -0.7167  2.1872  1.0485
  626MOL0     H82575   0.445   8.124   9.294 -0.4655  2.3435 -1.6191
  626MOL0     H82576   0.402   8.062   9.465 -2.5258 -0.2382  0.5572
  626MOL0     H82577   0.428   7.885   9.278  0.3250  0.0242  1.0422
  626MOL0     H82578   0.301   7.956   9.192  2.9795 -3.8836 -1.6663
  626MOL0     H82579   0.171   7.903   9.427  0.2304  1.1698  2.0973
  626MOL0     H82580   0.322   7.833   9.463  1.5118 -3.8712 -2.1589
  626MOL0     H82581   0.192   7.645   9.413 -0.8724  0.1853  0.7876
  626MOL0     H82582   0.151   7.709   9.255 -1.4691  2.4755  3.2291
  626MOL0     H82583   0.444   7.670   9.306  0.8662  1.4475 -1.0254
  626MOL0     H82584   0.359   7.695   9.165  2.2129  2.9672  1.2575
  626MOL0     H82585   0.341   7.447   9.467 -1.5976  3.0022 -1.5030
  626MOL0     H82586   0.256   7.208   9.510 -1.5598 -2.4669  0.6647
  626MOL0     H82587   0.348   7.090   9.407 -0.2203  0.4158  0.7198
  626MOL0     H82588   0.169   7.036   9.288  3.3889  2.3404 -0.1796
  626MOL0     H82589   0.070   7.178   9.352 -2.3387 -1.3265  4.2146
  626MOL0     H82590   0.135   6.912   9.474 -1.4898 -0.7863 -1.2797
  626MOL0     H82591   0.119   7.050   9.591  1.8719 -1.0846 -0.5761
  626MOL0     H82592  -0.087   6.962   9.385  2.6368 -0.4317 -1.0729
  626MOL0     H82593  -0.103   7.094   9.500 -1.2676 -1.0679 -0.1651
  626MOL0     H82594  -0.167   6.766   9.771  2.0244  1.4563 -0.6793
  626MOL0     H82595  -0.394   6.632   9.789  1.9385 -0.3204  0.7556
  626MOL0     H82596  -0.685   6.339   9.641  3.1460  3.4849  0.5257
  626MOL0     H82597  -0.920   6.226   9.618 -0.9961 -0.2933  1.0772
  626MOL0     H82598  -1.256   6.423   9.835 -0.4646 -0.5990  0.2667
  626MOL0     H82599  -1.147   6.297   9.911  0.8874 -0.2599 -0.2014
  626MOL0     H82600  -1.381   6.245   9.725  2.1813  0.6882 -1.5619
  626MOL0     H82601  -1.406   6.245   9.902  1.0210  2.4063  0.4100
  626MOL0     H82602  -1.242   6.048   9.913 -1.4998  0.5245  1.1584
  626MOL0     H82603  -1.229   6.056   9.732 -0.2972 -1.3572 -0.0326
  626MOL0     H82604  -1.468   5.987   9.895 -0.6650 -2.8425 -0.5696
  626MOL0     H82605  -1.475   6.005   9.712 -1.0777 -1.2028  0.2749
  626MOL0     H82606  -1.471   5.774   9.804  1.8822 -1.6806 -1.9688
  626MOL0     H82607  -1.315   5.810   9.883 -0.0498  1.2825  1.2312
  626MOL0     H82608  -1.237   5.846   9.640  0.4529  0.5750  1.9493
  626MOL0     H82609  -1.398   5.815   9.585 -0.5447  0.5364  0.2939
  626MOL0     H82610  -1.218   5.606   9.596  1.5365  0.4426 -0.5597
  626MOL0     H82611  -1.290   5.598   9.764  0.4733  1.8359 -0.9917
  626MOL0     H82612  -1.520   5.587   9.658  0.1535 -1.9994  2.4729
  626MOL0     H82613  -1.417   5.452   9.666  2.5280  0.6330  1.4373
  626MOL0     H82614  -1.097   6.576   9.786 -0.8822 -0.4773  0.1112
  626MOL0     H82615  -0.880   6.680   9.812 -0.8289  0.3241 -1.0989
  626MOL0     H82616  -0.540   6.851   9.459 -0.6693  0.3801  0.6834
  626MOL0     H82617  -0.315   6.967   9.436  2.5927  0.2154  1.0369
  626MOL0     H82618   0.244   8.506   9.707  0.2797  0.4837  0.9530
  626MOL0     H82619   0.246   8.454   9.938 -0.5805  0.2395 -1.2424
  626MOL0     H82620   0.315   8.029  10.289  1.0459 -0.6266  2.2331
  626MOL0     H82621   0.302   8.011  10.537  1.1278 -0.9948 -0.7800
  626MOL0     H82622   0.294   8.276  10.781  0.5980 -0.6416 -0.1307
  626MOL0     H82623   0.374   8.136  10.694 -0.8985 -0.2791 -1.5687
  626MOL0     H82624   0.332   8.131  10.969 -0.1809 -3.0440  2.7557
  626MOL0     H82625   0.200   8.050  10.907  1.2976  2.6011  1.8638
  626MOL0     H82626   0.495   7.994  10.823  1.9275 -0.1470  1.7491
  626MOL0     H82627   0.358   7.901  10.772 -0.1277 -1.2509  1.1692
  626MOL0     H82628   0.376   7.770  10.930  2.1130 -2.5039  0.4047
  626MOL0     H82629   0.527   7.847  10.974 -0.1301 -1.8578  2.3259
  626MOL0     H82630   0.326   7.972  11.316  1.4709  1.4571 -0.5462
  626MOL0     H82631  -0.009   8.286  10.548  0.0418  0.1070 -0.4976
  626MOL0     H82632   0.019   8.327  10.298  1.6130 -1.0583 -1.8710
  627MOL0     O82633   4.534   9.853   2.499 -0.1305  0.2582  0.5901
  627MOL0     C82634   4.521   9.929   2.405 -0.0235  0.0733 -0.3004
  627MOL0     O82635   4.556  10.057   2.400 -0.8391  0.2880 -0.2547
  627MOL0     C82636   4.564  10.131   2.517 -0.4156 -0.1586 -0.2183
  627MOL0     C82637   4.490  10.104   2.631  0.2407 -0.2679 -0.1605
  627MOL0     C82638   4.498  10.186   2.745 -0.2795 -0.0101  0.7401
  627MOL0     C82639   4.575  10.302   2.738 -1.2334 -0.1873 -0.8154
  627MOL0     O82640   4.579  10.394   2.843  0.5362 -0.6233  0.5737
  627MOL0     C82641   4.451  10.460   2.879 -0.7692 -0.8395  0.8572
  627MOL0     C82642   4.493  10.600   2.931 -0.3502  0.0054  0.1378
  627MOL0     C82643   4.377  10.663   3.015  0.0866 -0.1345  0.3841
  627MOL0     C82644   4.440  10.749   3.116  0.4160 -0.7141 -0.6729
  627MOL0     C82645   4.338  10.842   3.184 -0.3393  0.4001  0.0699
  627MOL0     C82646   4.363  10.989   3.157  0.3328  0.1838 -0.1549
  627MOL0     C82647   4.484  11.039   3.248  0.0468 -0.2770  0.4082
  627MOL0     C82648   4.437  11.068   3.386 -0.1049  0.8508 -0.0467
  627MOL0     N82649   4.541  11.139   3.466 -0.4326 -0.1512  0.7734
  627MOL0     C82650   4.577  11.272   3.490 -0.1822  0.2212  0.7198
  627MOL0     C82651   4.684  11.278   3.575  0.5680  0.3683  0.0733
  627MOL0     C82652   4.742  11.392   3.644  1.1419 -0.0307  0.6617
  627MOL0     C82653   4.889  11.434   3.619 -0.6210 -0.0550  0.2296
  627MOL0     C82654   4.914  11.517   3.490 -0.7496 -1.1610 -0.8296
  627MOL0     C82655   5.048  11.592   3.465 -0.3123  0.8304  0.4204
  627MOL0     O82656   5.142  11.488   3.489 -0.2292  0.1924  0.1943
  627MOL0     C82657   5.263  11.529   3.529 -0.1469  0.3829  0.4965
  627MOL0     C82658   5.303  11.514   3.657  0.1531  0.1170 -0.1516
  627MOL0     C82659   5.434  11.542   3.686  0.0613 -0.5036  0.2132
  627MOL0     C82660   5.527  11.576   3.590  0.1740 -0.6834  0.1404
  627MOL0     C82661   5.664  11.609   3.627 -1.0340 -0.0012 -0.9266
  627MOL0     O82662   5.748  11.658   3.520  0.3865 -0.0165 -0.1391
  627MOL0     C82663   5.881  11.693   3.543  0.5517  0.2561 -1.0674
  627MOL0     C82664   5.919  11.812   3.483  1.1147  0.3156  1.1402
  627MOL0     C82665   6.044  11.862   3.493 -1.8702  0.2248 -0.0993
  627MOL0     C82666   6.140  11.800   3.572 -0.3064 -0.0470  0.4005
  627MOL0     O82667   6.271  11.842   3.593  0.4519 -0.1500  0.5027
  627MOL0     C82668   6.307  11.957   3.517 -0.4239 -0.6357  0.0804
  627MOL0     C82669   6.446  11.993   3.563 -0.1467 -0.7561  0.4574
  627MOL0     C82670   6.469  11.992   3.720  1.2128 -0.2765  0.6657
  627MOL0     C82671   6.385  12.110   3.785 -0.1951 -0.2617 -0.0841
  627MOL0     C82672   6.400  12.099   3.929  0.2053 -1.2016  0.0487
  627MOL0     C82673   6.456  12.235   3.980  0.7683 -0.1074 -0.1975
  627MOL0     C82674   6.611  12.245   3.980  0.5566 -0.7239 -0.3973
  627MOL0     C82675   6.651  12.379   4.054 -0.3059  0.2861  0.5845
  627MOL0    Cl82676   6.586  12.524   3.956  0.3353  0.4714  0.2890
  627MOL0     C82677   6.101  11.680   3.637  0.2528 -0.2091 -0.5638
  627MOL0     C82678   5.971  11.624   3.633 -0.6601 -0.0597  0.0899
  627MOL0     O82679   5.701  11.576   3.743  0.0915 -0.6234 -0.2063
  627MOL0     C82680   5.482  11.598   3.453  0.8199  0.0664  0.7248
  627MOL0     C82681   5.347  11.572   3.424  0.8987 -0.7844  0.0280
  627MOL0     N82682   4.726  11.148   3.589  0.5182  0.2563 -0.4922
  627MOL0     N82683   4.642  11.070   3.520  0.4425 -0.8682  0.6060
  627MOL0     C82684   4.637  10.339   2.619 -1.0076  0.5179  0.6444
  627MOL0     C82685   4.636  10.246   2.512 -0.8336 -0.1955  0.4896
  627MOL0     C82686   4.462   9.871   2.277  0.2183  0.2509 -0.1531
  627MOL0     C82687   4.430   9.959   2.176 -0.4301 -0.3599  0.7421
  627MOL0     C82688   4.376   9.918   2.059 -0.1165  0.2633  0.5526
  627MOL0     C82689   4.366   9.777   2.033  0.7687 -0.8684  1.1375
  627MOL0     O82690   4.286   9.732   1.930  0.1861 -0.6149  0.0473
  627MOL0     C82691   4.148   9.690   1.962  0.4374 -0.0236 -0.2443
  627MOL0     C82692   4.073   9.650   1.835  0.4525 -0.6238  0.2060
  627MOL0     C82693   4.124   9.522   1.771 -0.3488  0.4595  0.1582
  627MOL0     C82694   4.080   9.385   1.830 -0.3985  0.4410 -0.4875
  627MOL0     C82695   4.145   9.265   1.776  0.7304 -0.7068 -0.7024
  627MOL0     C82696   4.193   9.160   1.745  0.2103  0.3814  0.2447
  627MOL0     C82697   4.409   9.692   2.133 -0.7204  0.6544  0.3105
  627MOL0     C82698   4.464   9.731   2.256 -0.4793  0.1039  0.0039
  627MOL0     H82699   4.433  10.011   2.631  1.6026 -1.2674 -3.6513
  627MOL0     H82700   4.456  10.163   2.842 -0.8999  0.3627  0.5587
  627MOL0     H82701   4.400  10.397   2.952  1.8849 -1.3996  2.3762
  627MOL0     H82702   4.387  10.479   2.793 -1.1728  1.5102  1.6125
  627MOL0     H82703   4.539  10.651   2.846 -1.4725 -0.6496 -0.8946
  627MOL0     H82704   4.577  10.582   2.999 -1.7950 -0.4129  1.9060
  627MOL0     H82705   4.318  10.593   3.074 -0.7301 -0.4989 -0.8317
  627MOL0     H82706   4.310  10.719   2.949 -0.8172 -0.4261  1.0255
  627MOL0     H82707   4.496  10.684   3.183 -0.6649 -0.3180  0.6585
  627MOL0     H82708   4.518  10.803   3.061 -2.3290  2.4959 -1.8298
  627MOL0     H82709   4.335  10.824   3.292  1.0041 -2.2621 -0.2505
  627MOL0     H82710   4.234  10.822   3.156 -1.1999  2.8012  1.2149
  627MOL0     H82711   4.274  11.047   3.185  0.0510  0.1296 -0.9014
  627MOL0     H82712   4.373  11.008   3.049 -0.2543 -0.0502 -0.2542
  627MOL0     H82713   4.570  10.973   3.256  1.2021  1.0330 -0.6574
  627MOL0     H82714   4.527  11.126   3.198 -0.8415  0.3645  0.7285
  627MOL0     H82715   4.407  10.975   3.435 -0.4709  1.3677  0.7340
  627MOL0     H82716   4.348  11.132   3.383 -1.3667 -0.8581 -0.4308
  627MOL0     H82717   4.511  11.350   3.451 -0.9818  1.1138  3.5879
  627MOL0     H82718   4.731  11.363   3.749 -1.0133 -2.4878 -0.1306
  627MOL0     H82719   4.664  11.467   3.627  0.0006 -1.3250 -0.0186
  627MOL0     H82720   4.945  11.340   3.609  0.6441  0.6978  0.0356
  627MOL0     H82721   4.931  11.493   3.701 -1.5244  2.3074 -0.9210
  627MOL0     H82722   4.894  11.449   3.407 -2.7848 -0.7435 -0.7160
  627MOL0     H82723   4.844  11.600   3.480  1.3343  1.2284  2.2726
  627MOL0     H82724   5.053  11.682   3.527  2.9562  1.8901 -1.0899
  627MOL0     H82725   5.056  11.625   3.361  0.9732 -0.5655  0.0362
  627MOL0     H82726   5.235  11.461   3.724  0.8733  0.2190  0.6746
  627MOL0     H82727   5.464  11.554   3.790 -2.5901  2.0523  0.8248
  627MOL0     H82728   5.857  11.869   3.416  2.0735  1.7980  1.4546
  627MOL0     H82729   6.073  11.943   3.427  2.4188 -1.2907 -0.3592
  627MOL0     H82730   6.244  12.041   3.548  0.0493 -0.1222 -0.3198
  627MOL0     H82731   6.304  11.948   3.408 -0.9295  5.5754 -0.7833
  627MOL0     H82732   6.480  12.084   3.513  0.9425 -1.2141  0.3431
  627MOL0     H82733   6.519  11.920   3.527 -0.0900 -0.2071 -0.5756
  627MOL0     H82734   6.576  12.014   3.733  0.8371  2.5212 -0.1555
  627MOL0     H82735   6.452  11.896   3.768  0.9763  0.8972  3.0864
  627MOL0     H82736   6.428  12.205   3.751  1.7835 -0.6478  1.2204
  627MOL0     H82737   6.282  12.101   3.749  0.3582  0.1514 -1.9072
  627MOL0     H82738   6.468  12.018   3.958  0.1869 -2.3041 -2.6359
  627MOL0     H82739   6.298  12.080   3.963 -0.3104 -0.7573 -1.1854
  627MOL0     H82740   6.421  12.250   4.082  1.5352  1.7288 -0.1624
  627MOL0     H82741   6.418  12.322   3.926 -3.4977 -0.4993  1.8204
  627MOL0     H82742   6.650  12.160   4.037 -3.1320 -1.7510  0.8600
  627MOL0     H82743   6.647  12.240   3.877  1.6175 -2.1058  0.0068
  627MOL0     H82744   6.760  12.363   4.050 -0.3822 -0.7295 -4.1784
  627MOL0     H82745   6.611  12.380   4.155 -0.6713  1.7046  0.4414
  627MOL0     H82746   6.177  11.629   3.695  1.2861  0.5533 -1.2198
  627MOL0     H82747   5.954  11.528   3.680 -0.0680 -0.5225 -0.6158
  627MOL0     H82748   5.544  11.633   3.372  1.0804  0.6780  1.1855
  627MOL0     H82749   5.305  11.574   3.324 -0.2281  0.8670  0.4845
  627MOL0     H82750   4.691  10.432   2.605  0.2900 -0.5024 -1.7296
  627MOL0     H82751   4.698  10.271   2.426 -1.6070 -2.0453 -0.6682
  627MOL0     H82752   4.440  10.067   2.184  2.8025 -0.6766  3.0182
  627MOL0     H82753   4.338   9.989   1.987 -1.8875  2.0679  3.0861
  627MOL0     H82754   4.106   9.777   2.012 -2.7718 -2.3348  1.4241
  627MOL0     H82755   4.167   9.604   2.028  0.0523  1.4832  1.9398
  627MOL0     H82756   3.966   9.636   1.853  0.1423  0.1066 -0.9292
  627MOL0     H82757   4.094   9.736   1.770 -1.6370  2.5910  3.3735
  627MOL0     H82758   4.233   9.515   1.761 -0.5357 -0.7621 -1.4091
  627MOL0     H82759   4.091   9.534   1.668  1.7172  4.0801 -0.2430
  627MOL0     H82760   4.105   9.393   1.936 -3.8168  0.1000  0.4407
  627MOL0     H82761   3.972   9.372   1.817 -0.2624  0.0600 -1.2859
  627MOL0     H82762   4.230   9.065   1.711  2.5034  1.1912  0.2968
  627MOL0     H82763   4.409   9.587   2.105 -0.2895  0.4297  1.1272
  627MOL0     H82764   4.486   9.647   2.321  0.8601  0.5034  0.0983
  628MOL0     O82765   1.814   8.135   7.543  0.1192 -0.8018 -0.1367
  628MOL0     C82766   1.872   8.152   7.653  0.3123  0.6262 -0.9317
  628MOL0     O82767   1.919   8.055   7.727 -0.1330  0.1616 -0.1968
  628MOL0     C82768   1.884   7.929   7.703 -0.4695  0.0374  0.4186
  628MOL0     C82769   1.802   7.855   7.787 -0.9429 -0.0624  0.2492
  628MOL0     C82770   1.764   7.722   7.756 -0.8048  0.4912 -0.2940
  628MOL0     C82771   1.811   7.662   7.634  0.0631 -0.4476 -0.0733
  628MOL0     O82772   1.808   7.530   7.601  0.0663 -0.5389 -0.6273
  628MOL0     C82773   1.691   7.453   7.637 -0.0246  0.4066  0.4695
  628MOL0     C82774   1.693   7.304   7.573 -0.3137 -0.0609 -0.1124
  628MOL0     C82775   1.742   7.328   7.432  0.0703 -0.1840  1.2596
  628MOL0     C82776   1.755   7.205   7.345 -0.0326  0.2729 -0.8109
  628MOL0     C82777   1.856   7.240   7.226 -0.0877  0.2007  0.1659
  628MOL0     C82778   1.774   7.283   7.105  0.0031 -0.8695  0.3926
  628MOL0     C82779   1.868   7.329   7.002  0.5242 -0.0558  0.3720
  628MOL0     C82780   1.797   7.393   6.886 -0.4156 -0.0601 -0.1707
  628MOL0     N82781   1.689   7.319   6.831  0.3460  0.0513 -0.0799
  628MOL0     C82782   1.683   7.250   6.713  0.0939 -0.2075 -0.1627
  628MOL0     C82783   1.547   7.238   6.689  0.2417 -0.2024 -0.3393
  628MOL0     C82784   1.490   7.182   6.565  0.5713  0.4771  0.5891
  628MOL0     C82785   1.540   7.038   6.546 -0.6851 -0.1849 -0.3796
  628MOL0     C82786   1.444   6.967   6.445  0.9804 -0.3169 -0.4029
  628MOL0     C82787   1.469   7.019   6.298 -0.0195 -0.3051  0.2231
  628MOL0     O82788   1.415   7.147   6.278  0.0995  0.0145  0.3443
  628MOL0     C82789   1.278   7.175   6.268  1.1302  0.4574  0.8409
  628MOL0     C82790   1.174   7.080   6.243 -0.0891 -0.4854 -0.0301
  628MOL0     C82791   1.044   7.129   6.234  0.6158  0.4698 -0.5532
  628MOL0     C82792   1.012   7.260   6.254  0.2964  0.1713  0.1212
  628MOL0     C82793   0.875   7.317   6.255 -1.4469  0.1594 -0.1987
  628MOL0     O82794   0.780   7.226   6.271  0.1558  0.2404 -0.4167
  628MOL0     C82795   0.661   7.257   6.326  0.2894 -0.3757  0.3461
  628MOL0     C82796   0.590   7.372   6.278 -0.4978  1.0941  0.6350
  628MOL0     C82797   0.469   7.399   6.331 -0.0032  0.3716 -0.1841
  628MOL0     C82798   0.414   7.333   6.443 -0.1140  0.2302 -0.0057
  628MOL0     O82799   0.294   7.378   6.504 -0.9140  0.2662  0.6913
  628MOL0     C82800   0.319   7.449   6.622  0.2221  0.3597  0.1089
  628MOL0     C82801   0.186   7.513   6.669  0.8297 -1.2650 -0.3278
  628MOL0     C82802   0.111   7.415   6.760  0.3295 -0.7214 -0.7033
  628MOL0     C82803  -0.019   7.467   6.816 -0.8304 -0.3753  0.6000
  628MOL0     C82804  -0.070   7.379   6.936  0.3703  0.0296  0.3365
  628MOL0     C82805   0.027   7.368   7.059 -0.8657 -0.2372 -0.7574
  628MOL0     C82806  -0.054   7.325   7.194 -0.2245  0.4484 -0.0086
  628MOL0     C82807   0.008   7.210   7.279  0.0016  0.0767  0.2624
  628MOL0    Cl82808   0.155   7.269   7.371  0.4005 -0.0402  0.4102
  628MOL0     C82809   0.486   7.212   6.488 -0.1112 -0.0416 -0.3703
  628MOL0     C82810   0.611   7.178   6.435  0.0741 -0.6732  0.0217
  628MOL0     O82811   0.859   7.437   6.257  0.0240 -0.0979  0.2231
  628MOL0     C82812   1.121   7.347   6.279 -0.2043  0.1001 -0.8384
  628MOL0     C82813   1.248   7.303   6.290  0.5082 -0.4336 -0.2248
  628MOL0     N82814   1.471   7.286   6.795  0.0924  0.7035  0.0961
  628MOL0     N82815   1.562   7.338   6.879  0.1833 -0.1520  0.7693
  628MOL0     C82816   1.882   7.739   7.552  0.2491  0.0093  0.3829
  628MOL0     C82817   1.924   7.867   7.577  0.0614 -0.3062 -1.2933
  628MOL0     C82818   1.882   8.276   7.725  0.2476 -0.5924 -0.1846
  628MOL0     C82819   1.884   8.408   7.670 -0.1324 -0.2642 -0.3817
  628MOL0     C82820   1.912   8.517   7.760  0.5402  0.4468  0.7545
  628MOL0     C82821   1.917   8.504   7.898  0.0249  0.7391 -0.2170
  628MOL0     O82822   1.929   8.614   7.978  0.3222  0.0966 -0.1248
  628MOL0     C82823   1.806   8.674   7.998  0.7170 -0.7396  0.2093
  628MOL0     C82824   1.788   8.673   8.152  0.6458 -0.2279 -0.6222
  628MOL0     C82825   1.663   8.750   8.187 -0.7862  0.0967 -0.0080
  628MOL0     C82826   1.574   8.690   8.300 -0.4887 -0.0851  0.5832
  628MOL0     C82827   1.642   8.683   8.426 -0.0415 -0.2565 -0.2447
  628MOL0     C82828   1.682   8.681   8.537 -1.1146  0.1846 -0.2180
  628MOL0     C82829   1.903   8.380   7.955  0.6682 -0.5121  0.9586
  628MOL0     C82830   1.890   8.272   7.867 -0.1187 -0.2216 -0.9882
  628MOL0     H82831   1.772   7.909   7.876  3.3839 -0.0826  1.9372
  628MOL0     H82832   1.726   7.655   7.833  1.7764 -0.6973  0.0443
  628MOL0     H82833   1.600   7.504   7.605 -2.4252 -1.0939  4.1351
  628MOL0     H82834   1.688   7.451   7.746  0.8098  0.5690  0.5006
  628MOL0     H82835   1.589   7.270   7.574 -1.1342  1.8289 -3.6085
  628MOL0     H82836   1.770   7.252   7.629  1.4695  2.3020 -0.1994
  628MOL0     H82837   1.846   7.362   7.440 -0.8827  3.5082  0.2048
  628MOL0     H82838   1.675   7.399   7.381  2.7307  1.0431 -0.8191
  628MOL0     H82839   1.789   7.121   7.406 -0.8014  0.1026 -0.5989
  628MOL0     H82840   1.658   7.168   7.310 -1.5744  1.7416  1.5702
  628MOL0     H82841   1.899   7.141   7.207 -0.0956  0.5058 -1.6734
  628MOL0     H82842   1.926   7.319   7.253 -1.6273  1.9675 -0.7500
  628MOL0     H82843   1.707   7.367   7.123 -0.5301 -0.6878 -2.1528
  628MOL0     H82844   1.708   7.209   7.061 -2.6300  1.6519 -0.1692
  628MOL0     H82845   1.944   7.400   7.035  0.4401 -0.0237  0.4952
  628MOL0     H82846   1.921   7.236   6.981 -0.1299 -0.7821  1.8107
  628MOL0     H82847   1.856   7.418   6.797 -2.0652 -2.0868 -1.9422
  628MOL0     H82848   1.752   7.484   6.926 -4.2769 -2.6545  1.9978
  628MOL0     H82849   1.757   7.218   6.641  0.1966 -0.4802  0.0596
  628MOL0     H82850   1.529   7.248   6.487 -0.8776 -1.2937 -1.7734
  628MOL0     H82851   1.381   7.182   6.553  0.7865 -0.8014 -2.1087
  628MOL0     H82852   1.552   6.987   6.641 -0.9840  1.6160  0.6802
  628MOL0     H82853   1.636   7.036   6.494 -1.0491 -0.8476 -1.0555
  628MOL0     H82854   1.468   6.861   6.435  0.4499 -0.4532 -0.2930
  628MOL0     H82855   1.340   6.977   6.478  0.6201 -1.5392 -1.0874
  628MOL0     H82856   1.417   6.945   6.237 -3.4559  0.2513  2.2388
  628MOL0     H82857   1.575   7.030   6.274 -0.0503  1.7173  0.8514
  628MOL0     H82858   1.198   6.982   6.202  3.9527  1.2830 -2.6044
  628MOL0     H82859   0.964   7.060   6.210 -1.4434  2.3524  0.5632
  628MOL0     H82860   0.618   7.443   6.201  1.0797  1.6172  1.6463
  628MOL0     H82861   0.410   7.484   6.297 -1.0680 -0.6947 -1.0550
  628MOL0     H82862   0.393   7.528   6.608 -0.9161  1.3204 -0.7539
  628MOL0     H82863   0.355   7.385   6.703 -2.1296 -0.6360  0.4483
  628MOL0     H82864   0.120   7.541   6.587  0.6999 -1.4449 -0.2865
  628MOL0     H82865   0.212   7.608   6.716  3.8298 -2.0442 -0.1443
  628MOL0     H82866   0.175   7.379   6.841 -1.1875  0.6061  1.1831
  628MOL0     H82867   0.081   7.332   6.696  1.4511  1.0579 -3.7792
  628MOL0     H82868  -0.011   7.567   6.860 -2.4134  0.4880 -0.9667
  628MOL0     H82869  -0.092   7.465   6.735 -0.2517  0.8833  0.0217
  628MOL0     H82870  -0.090   7.281   6.892 -0.7519  1.9806 -4.0025
  628MOL0     H82871  -0.170   7.417   6.961 -0.9995  0.0957 -4.4031
  628MOL0     H82872   0.064   7.465   7.094  0.2118 -1.3949  1.5463
  628MOL0     H82873   0.102   7.295   7.030 -2.7520 -3.0276  0.8714
  628MOL0     H82874  -0.080   7.402   7.266 -2.9664 -2.5569  2.5446
  628MOL0     H82875  -0.146   7.287   7.147  1.5764 -2.3553 -1.5652
  628MOL0     H82876   0.041   7.128   7.214  3.1080  3.4003 -2.7743
  628MOL0     H82877  -0.075   7.174   7.340  1.7543 -1.7092  1.7549
  628MOL0     H82878   0.458   7.160   6.580  2.4066  3.8532  2.9751
  628MOL0     H82879   0.667   7.095   6.478  0.6420  0.0912  0.7725
  628MOL0     H82880   1.091   7.450   6.296 -1.9740 -0.9164  3.6559
  628MOL0     H82881   1.317   7.387   6.292 -0.7552  0.6410 -0.5252
  628MOL0     H82882   1.896   7.702   7.452  1.0852  1.3191 -0.0169
  628MOL0     H82883   1.970   7.931   7.502  0.0589  0.9314 -0.2782
  628MOL0     H82884   1.882   8.430   7.563 -0.5108 -3.0809 -1.0476
  628MOL0     H82885   1.945   8.619   7.738 -0.9721  1.3808  2.5518
  628MOL0     H82886   1.717   8.636   7.947  0.4106 -0.0745  0.2363
  628MOL0     H82887   1.807   8.780   7.970 -4.2572 -1.2194 -2.9854
  628MOL0     H82888   1.791   8.567   8.180  1.2870 -0.7236 -2.4386
  628MOL0     H82889   1.859   8.730   8.211  0.5796 -0.6476 -0.1315
  628MOL0     H82890   1.594   8.752   8.103 -0.1009 -2.1100 -0.7049
  628MOL0     H82891   1.703   8.845   8.222  2.9566 -2.5080  3.9255
  628MOL0     H82892   1.490   8.758   8.316 -0.5131 -0.6991  3.5159
  628MOL0     H82893   1.527   8.594   8.276 -2.7078  0.4988  2.2681
  628MOL0     H82894   1.700   8.704   8.640 -2.3145  0.5268 -0.0736
  628MOL0     H82895   1.900   8.374   8.064 -2.5164  0.5455  1.0503
  628MOL0     H82896   1.863   8.179   7.917 -0.7224  0.6694  0.3801
  629MOL0     O82897   3.905   9.941   0.614 -0.0817  0.7560 -0.3590
  629MOL0     C82898   3.820  10.030   0.609 -1.1489  0.3981  0.2236
  629MOL0     O82899   3.843  10.162   0.597 -0.8842 -0.4517 -0.0771
  629MOL0     C82900   3.965  10.219   0.640  0.2556  0.1363  0.1196
  629MOL0     C82901   3.975  10.356   0.627  0.3662 -0.2689  0.4527
  629MOL0     C82902   4.090  10.427   0.662 -0.3794  0.6861  0.0645
  629MOL0     C82903   4.199  10.365   0.720  0.8482 -0.0949  0.7209
  629MOL0     O82904   4.317  10.419   0.751 -0.3368 -0.5386  0.4109
  629MOL0     C82905   4.366  10.539   0.691  0.5640  1.1606 -0.4265
  629MOL0     C82906   4.467  10.491   0.588 -0.2226 -0.8206 -0.1572
  629MOL0     C82907   4.538  10.604   0.514  0.3346  0.7902 -1.0224
  629MOL0     C82908   4.639  10.564   0.404  0.6329 -0.6528  1.0388
  629MOL0     C82909   4.688  10.687   0.323 -0.4061  0.3512  0.8060
  629MOL0     C82910   4.806  10.664   0.243  0.9386  0.2145  0.0587
  629MOL0     C82911   4.881  10.793   0.206 -0.4716 -0.3347  0.1550
  629MOL0     C82912   4.818  10.884   0.107  0.1661 -0.1761 -0.7469
  629MOL0     N82913   4.824  10.850  -0.036  1.2904  0.0405  0.8313
  629MOL0     C82914   4.724  10.770  -0.097 -0.3749 -0.3617  0.5911
  629MOL0     C82915   4.736  10.792  -0.235  0.1744 -0.0759  0.4923
  629MOL0     C82916   4.673  10.704  -0.339 -1.1080  0.2023 -0.2996
  629MOL0     C82917   4.542  10.764  -0.394 -0.1346  0.0421  1.2552
  629MOL0     C82918   4.433  10.731  -0.290 -0.8138  0.2789  0.9278
  629MOL0     C82919   4.296  10.768  -0.339  0.2312  0.1516  0.1235
  629MOL0     O82920   4.206  10.723  -0.237  0.6090 -0.0060 -0.3795
  629MOL0     C82921   4.094  10.795  -0.199  0.3330 -0.4683 -1.2001
  629MOL0     C82922   4.038  10.767  -0.073  0.6252 -0.0368 -0.5256
  629MOL0     C82923   3.915  10.828  -0.034  0.0391  0.8353 -0.4142
  629MOL0     C82924   3.840  10.917  -0.120 -0.0630 -1.5684  0.6172
  629MOL0     C82925   3.718  10.985  -0.089  0.0454  0.0032  0.5777
  629MOL0     O82926   3.672  11.083  -0.181  0.1151  0.1318 -0.2065
  629MOL0     C82927   3.548  11.145  -0.162 -0.6089  0.4127  0.7427
  629MOL0     C82928   3.472  11.160  -0.043  0.2029  0.1987  0.0130
  629MOL0     C82929   3.340  11.217  -0.051  1.7291 -0.5397 -0.4054
  629MOL0     C82930   3.282  11.256  -0.169 -0.0032  0.2557 -0.1613
  629MOL0     O82931   3.155  11.301  -0.183  0.4678 -0.2669 -1.2242
  629MOL0     C82932   3.073  11.306  -0.060 -0.4501  0.6830  0.4447
  629MOL0     C82933   2.932  11.358  -0.083 -0.7336  0.4055  0.4140
  629MOL0     C82934   2.817  11.253  -0.096 -0.1376  0.1356  0.4247
  629MOL0     C82935   2.809  11.167  -0.219 -0.6381 -0.2514  0.3557
  629MOL0     C82936   2.788  11.024  -0.186  0.1519  0.2491 -1.0928
  629MOL0     C82937   2.676  11.009  -0.084 -0.2942  0.2507 -0.7688
  629MOL0     C82938   2.634  10.854  -0.055  0.4440 -0.2370  0.1234
  629MOL0     C82939   2.505  10.854   0.026  0.6487  0.0137  0.1898
  629MOL0    Cl82940   2.496  10.718   0.143 -0.0465 -0.1366 -0.2190
  629MOL0     C82941   3.358  11.253  -0.283 -0.1983 -0.2612  0.1290
  629MOL0     C82942   3.491  11.201  -0.286  0.1340  0.9572 -0.0842
  629MOL0     O82943   3.656  10.944   0.003 -0.0955 -0.0996 -1.1282
  629MOL0     C82944   3.909  10.958  -0.241 -1.3556 -1.0700 -0.0769
  629MOL0     C82945   4.032  10.894  -0.274 -0.1888 -0.6816  0.4395
  629MOL0     N82946   4.844  10.870  -0.246  0.3003 -0.9408 -0.3495
  629MOL0     N82947   4.893  10.920  -0.137  0.4372  0.7020  0.6413
  629MOL0     C82948   4.188  10.222   0.738  0.1701 -0.5472  0.2380
  629MOL0     C82949   4.071  10.158   0.707 -0.3043  0.1281  0.4965
  629MOL0     C82950   3.672   9.983   0.609  0.5505  0.5381 -0.0990
  629MOL0     C82951   3.563  10.082   0.606  0.0650  0.3054 -0.0164
  629MOL0     C82952   3.428  10.044   0.607 -0.3633 -0.3693  0.6319
  629MOL0     C82953   3.384   9.909   0.605 -0.1183  0.0649  0.2304
  629MOL0     O82954   3.247   9.878   0.607 -0.6369  1.2708 -1.1811
  629MOL0     C82955   3.221   9.747   0.566 -0.6156  0.5896 -0.1499
  629MOL0     C82956   3.224   9.732   0.412 -0.3514 -0.2588 -0.3216
  629MOL0     C82957   3.123   9.627   0.376 -0.0149  0.1306  0.0277
  629MOL0     C82958   3.126   9.592   0.231  0.2669 -0.4413  0.5105
  629MOL0     C82959   3.021   9.487   0.207 -1.0131 -0.3943  0.3516
  629MOL0     C82960   2.940   9.405   0.188 -1.3612  0.5430 -0.4011
  629MOL0     C82961   3.494   9.816   0.615  1.0775  0.8730  0.2634
  629MOL0     C82962   3.626   9.850   0.615  0.3914  0.3272 -0.4728
  629MOL0     H82963   3.901  10.425   0.587  1.8450 -0.2129 -2.3856
  629MOL0     H82964   4.096  10.535   0.646  0.4534  0.8565  1.4113
  629MOL0     H82965   4.406  10.600   0.772 -0.7581 -0.2166  1.3483
  629MOL0     H82966   4.287  10.602   0.647  0.1677  0.1178 -1.2476
  629MOL0     H82967   4.416  10.429   0.514  0.1778  1.0225 -2.0671
  629MOL0     H82968   4.548  10.438   0.640  0.5964  0.9028  0.3927
  629MOL0     H82969   4.594  10.662   0.588 -0.6693 -3.2717  3.3829
  629MOL0     H82970   4.463  10.671   0.471  0.3846 -0.0615 -2.5238
  629MOL0     H82971   4.719  10.515   0.460 -0.9106 -0.7054  3.3123
  629MOL0     H82972   4.600  10.497   0.327  1.5344  2.0423 -1.9720
  629MOL0     H82973   4.707  10.761   0.402 -2.8050 -0.2475  2.0546
  629MOL0     H82974   4.606  10.719   0.258 -0.5152  1.1892  1.3454
  629MOL0     H82975   4.798  10.594   0.159  1.3533  0.3771 -0.1187
  629MOL0     H82976   4.883  10.611   0.301 -1.3139 -2.5054  0.7842
  629MOL0     H82977   4.892  10.844   0.302  1.1268 -6.1709  3.6467
  629MOL0     H82978   4.985  10.769   0.179 -0.7568 -1.2029 -0.2328
  629MOL0     H82979   4.868  10.980   0.119 -0.8824  0.0832  2.6437
  629MOL0     H82980   4.712  10.900   0.131  0.2458  3.7672 -2.2965
  629MOL0     H82981   4.663  10.696  -0.045 -3.1541  2.4148  1.6181
  629MOL0     H82982   4.663  10.603  -0.297  3.6121 -0.4999 -0.2950
  629MOL0     H82983   4.749  10.691  -0.416  1.6196  0.3622  2.1582
  629MOL0     H82984   4.514  10.729  -0.494  0.7248 -3.9876  2.2571
  629MOL0     H82985   4.563  10.871  -0.400  0.9386 -0.1770  0.8208
  629MOL0     H82986   4.444  10.629  -0.252  1.9258  1.1836  2.8813
  629MOL0     H82987   4.438  10.799  -0.204 -0.5878  3.3651 -1.3464
  629MOL0     H82988   4.263  10.709  -0.425  1.0028 -3.9686  2.3692
  629MOL0     H82989   4.288  10.877  -0.350 -2.3938  0.0812  0.6951
  629MOL0     H82990   4.100  10.699  -0.017 -1.6886 -0.0565  2.2272
  629MOL0     H82991   3.868  10.801   0.060 -0.0701  1.3246 -0.3260
  629MOL0     H82992   3.521  11.123   0.046  2.1333  0.8601 -0.7363
  629MOL0     H82993   3.293  11.239   0.045 -0.1453 -0.7000 -1.2540
  629MOL0     H82994   3.120  11.367   0.018  0.1151 -1.7453  2.1291
  629MOL0     H82995   3.058  11.203  -0.028 -1.4243 -0.0727 -2.1849
  629MOL0     H82996   2.938  11.424  -0.170 -2.2044  0.4955  0.3449
  629MOL0     H82997   2.917  11.428   0.001 -0.2049  1.7087 -0.5407
  629MOL0     H82998   2.725  11.310  -0.078  0.0707  0.5711  0.1262
  629MOL0     H82999   2.825  11.188  -0.008  0.3090  1.3054  1.2852
  629MOL0     H83000   2.719  11.195  -0.273 -1.7294 -1.5952  1.4016
  629MOL0     H83001   2.898  11.165  -0.284 -0.1630 -1.2117  1.0112
  629MOL0     H83002   2.875  10.977  -0.140 -2.5711 -3.0030  1.2461
  629MOL0     H83003   2.756  10.953  -0.263 -4.0379  2.5761 -1.7930
  629MOL0     H83004   2.594  11.073  -0.116  0.2000  1.8007  0.9048
  629MOL0     H83005   2.705  11.047   0.015  3.6378 -0.4349 -1.4980
  629MOL0     H83006   2.613  10.804  -0.151  1.1368 -0.9961  0.3540
  629MOL0     H83007   2.722  10.808  -0.008  1.3175  1.9011  0.6943
  629MOL0     H83008   2.430  10.854  -0.054 -1.2032  1.8048  1.8336
  629MOL0     H83009   2.499  10.953   0.071  2.1289  1.0505 -1.7040
  629MOL0     H83010   3.313  11.268  -0.381  1.6824 -0.2233 -0.7627
  629MOL0     H83011   3.531  11.181  -0.385 -4.0547  1.8203 -2.1786
  629MOL0     H83012   3.869  11.042  -0.298 -0.5222 -0.7781 -0.2498
  629MOL0     H83013   4.070  10.928  -0.370  1.5260  0.9590  1.6179
  629MOL0     H83014   4.280  10.174   0.768  1.0883 -2.3426 -4.4801
  629MOL0     H83015   4.068  10.052   0.732 -0.2414  0.7678  3.5813
  629MOL0     H83016   3.587  10.188   0.600  3.8115 -0.4861 -1.9751
  629MOL0     H83017   3.351  10.117   0.587  1.8462  2.1300  0.7981
  629MOL0     H83018   3.119   9.728   0.603 -1.7386  3.5118 -1.4663
  629MOL0     H83019   3.287   9.677   0.618 -0.7223  2.3497  2.5182
  629MOL0     H83020   3.191   9.826   0.368  2.1865  1.0338  0.3334
  629MOL0     H83021   3.325   9.716   0.374  0.4707  1.1914  1.1356
  629MOL0     H83022   3.027   9.674   0.398  0.8248  1.3234  1.3077
  629MOL0     H83023   3.147   9.533   0.428  1.0644  0.4751  0.1846
  629MOL0     H83024   3.118   9.688   0.179  1.2427 -0.0308  1.0833
  629MOL0     H83025   3.223   9.545   0.213  1.0471  0.9162  0.9895
  629MOL0     H83026   2.866   9.328   0.191 -0.9250  0.1145  2.1365
  629MOL0     H83027   3.483   9.709   0.627 -0.7329  1.0205  0.2759
  629MOL0     H83028   3.693   9.769   0.639 -0.6384  0.0263  1.6242
  630MOL0     O83029   0.709   8.950   6.236 -0.2787  0.1787 -0.6527
  630MOL0     C83030   0.698   9.071   6.230  0.1687 -0.5304  0.2881
  630MOL0     O83031   0.803   9.163   6.244 -0.4490 -0.2312  0.3689
  630MOL0     C83032   0.934   9.119   6.264 -0.1834 -0.2242 -1.1538
  630MOL0     C83033   1.008   9.214   6.336  0.6546 -0.2276 -0.4689
  630MOL0     C83034   1.144   9.181   6.363  0.3960 -0.5956 -1.0545
  630MOL0     C83035   1.205   9.068   6.323 -0.9246 -0.7488 -0.0467
  630MOL0     O83036   1.337   9.038   6.338  0.1641  0.2262  0.1539
  630MOL0     C83037   1.435   9.111   6.414 -0.1396 -0.0400 -0.4518
  630MOL0     C83038   1.516   9.214   6.329  0.8440 -0.1296 -0.3771
  630MOL0     C83039   1.592   9.136   6.215 -0.0512 -0.6166 -0.1356
  630MOL0     C83040   1.684   9.233   6.154 -0.0649 -0.5704 -0.8469
  630MOL0     C83041   1.739   9.178   6.017  0.4053 -0.4457 -0.7549
  630MOL0     C83042   1.837   9.283   5.968  0.0332  0.3835  0.2301
  630MOL0     C83043   1.926   9.226   5.846  0.2857  0.3818 -0.0087
  630MOL0     C83044   1.994   9.333   5.764 -0.2865  0.9572  0.6716
  630MOL0     N83045   1.908   9.437   5.723 -0.5494  0.3602 -0.6960
  630MOL0     C83046   1.798   9.426   5.642 -0.7032 -1.1176 -0.2063
  630MOL0     C83047   1.785   9.549   5.594 -0.1001 -0.1310  0.2118
  630MOL0     C83048   1.674   9.599   5.511  0.1066  0.4361 -0.1825
  630MOL0     C83049   1.702   9.695   5.402 -0.2701 -1.4005  0.3455
  630MOL0     C83050   1.749   9.838   5.436 -0.7264  0.2751  0.0546
  630MOL0     C83051   1.655   9.906   5.541 -0.3146 -0.0673  1.5386
  630MOL0     O83052   1.521   9.897   5.498  0.1159  0.5020  0.3723
  630MOL0     C83053   1.428   9.943   5.591 -0.0447  0.6389  0.3962
  630MOL0     C83054   1.455   9.969   5.728 -0.7508  0.4730  0.3210
  630MOL0     C83055   1.361   9.998   5.819 -0.4459  0.6940  0.4393
  630MOL0     C83056   1.228  10.002   5.782 -0.6053 -0.3598  0.4474
  630MOL0     C83057   1.118  10.013   5.881  0.6877 -0.5550  0.0791
  630MOL0     O83058   1.162  10.030   6.003 -0.0353  0.5963  0.3512
  630MOL0     C83059   1.092  10.018   6.116  0.4956 -0.0439  0.1779
  630MOL0     C83060   0.959   9.982   6.150  0.0006 -0.3806  0.4129
  630MOL0     C83061   0.922   9.965   6.284  0.4650  0.6132 -0.6750
  630MOL0     C83062   1.012   9.985   6.389 -0.4628 -0.0047 -1.0786
  630MOL0     O83063   0.981   9.988   6.525 -0.3709  0.3994 -0.5602
  630MOL0     C83064   0.842   9.959   6.560  0.1138 -0.0133  0.1753
  630MOL0     C83065   0.809   9.977   6.704  0.0671 -0.0637  0.4789
  630MOL0     C83066   0.658   9.964   6.732 -0.0364  1.5823  0.4746
  630MOL0     C83067   0.613  10.017   6.867  0.4824 -0.0149 -0.6602
  630MOL0     C83068   0.445  10.026   6.866  0.1045  0.1647  0.0991
  630MOL0     C83069   0.408  10.073   7.005 -0.1393 -0.6189 -0.4505
  630MOL0     C83070   0.254  10.072   7.023 -0.1879  0.0515  0.4896
  630MOL0     C83071   0.218  10.149   7.150  0.3889 -0.5284 -0.7143
  630MOL0    Cl83072   0.236  10.326   7.132 -0.1345  0.0211 -0.3306
  630MOL0     C83073   1.140  10.012   6.353  0.8804 -1.3382 -0.1994
  630MOL0     C83074   1.175  10.045   6.218  0.0535 -0.1020  0.5682
  630MOL0     O83075   1.001   9.998   5.851 -0.6397  0.6207  0.5110
  630MOL0     C83076   1.200   9.977   5.652  0.4062  0.6719  0.1919
  630MOL0     C83077   1.294   9.940   5.552  0.5066 -0.4861 -0.3819
  630MOL0     N83078   1.884   9.630   5.641 -0.2446 -0.0622  0.5662
  630MOL0     N83079   1.966   9.561   5.716 -0.7331  0.3215 -0.4198
  630MOL0     C83080   1.127   8.969   6.265  0.0171 -0.7524  0.1470
  630MOL0     C83081   0.993   8.999   6.232  0.8220  0.1206 -0.5425
  630MOL0     C83082   0.570   9.131   6.182 -0.1615 -0.9054 -0.4980
  630MOL0     C83083   0.458   9.047   6.175  0.3187  0.8919 -0.1023
  630MOL0     C83084   0.332   9.082   6.137  0.7319  0.2862  0.1041
  630MOL0     C83085   0.314   9.214   6.106 -0.1932 -1.0410  0.2386
  630MOL0     O83086   0.193   9.256   6.069  0.7660  0.7924  0.2841
  630MOL0     C83087   0.117   9.325   6.177  0.0847  0.8578 -1.0465
  630MOL0     C83088  -0.027   9.295   6.143  0.0676 -0.3398  0.0267
  630MOL0     C83089  -0.060   9.145   6.159 -0.4642  0.3220  0.1629
  630MOL0     C83090  -0.031   9.057   6.033 -0.0231 -0.4690 -0.7715
  630MOL0     C83091  -0.142   9.060   5.942 -0.3853  0.6520  0.4111
  630MOL0     C83092  -0.233   9.086   5.857 -0.3899 -0.0868  0.8607
  630MOL0     C83093   0.425   9.304   6.099  0.5962 -0.2368 -0.0672
  630MOL0     C83094   0.543   9.265   6.162 -0.5504  0.4820  0.2835
  630MOL0     H83095   0.970   9.312   6.361 -2.2619 -1.8232  2.1306
  630MOL0     H83096   1.195   9.267   6.405 -1.6236  0.1926 -0.0773
  630MOL0     H83097   1.496   9.035   6.464  0.3522  1.3942  1.2079
  630MOL0     H83098   1.385   9.160   6.498 -0.7413  0.1449 -0.9092
  630MOL0     H83099   1.587   9.264   6.395 -0.4073 -2.4839  3.0568
  630MOL0     H83100   1.451   9.296   6.296  1.1813  0.9830  1.5584
  630MOL0     H83101   1.521   9.103   6.138 -0.5989 -2.4488  1.0963
  630MOL0     H83102   1.634   9.044   6.257 -0.2940 -0.0740  1.3819
  630MOL0     H83103   1.635   9.328   6.135 -1.2442 -1.4299 -2.2957
  630MOL0     H83104   1.773   9.261   6.212 -1.6474  1.0654  0.9281
  630MOL0     H83105   1.659   9.171   5.941  0.8516  0.4750 -1.3268
  630MOL0     H83106   1.790   9.082   6.029  3.1703  1.2421  2.5842
  630MOL0     H83107   1.900   9.310   6.054  0.3664 -3.1198  1.2766
  630MOL0     H83108   1.773   9.363   5.932  1.2564  1.2488 -0.0776
  630MOL0     H83109   2.001   9.154   5.881 -1.4450 -1.4213  0.1609
  630MOL0     H83110   1.859   9.164   5.785 -1.4735  1.7054  0.5087
  630MOL0     H83111   2.044   9.288   5.678 -2.9041  1.0997 -1.0709
  630MOL0     H83112   2.072   9.381   5.823  1.6146 -0.8150 -0.2530
  630MOL0     H83113   1.735   9.339   5.625 -6.7052  2.2608  2.0216
  630MOL0     H83114   1.603   9.641   5.583  3.0026  0.5572  2.8658
  630MOL0     H83115   1.642   9.515   5.449  2.4809  0.0433 -1.0067
  630MOL0     H83116   1.606   9.699   5.349 -0.4927  0.2886  0.8392
  630MOL0     H83117   1.779   9.653   5.337 -0.5541  0.6634 -1.4614
  630MOL0     H83118   1.846   9.835   5.486 -1.5764  0.3318  1.8156
  630MOL0     H83119   1.758   9.889   5.340  1.5687 -0.0473  0.0553
  630MOL0     H83120   1.680  10.010   5.561 -0.2036  0.2971 -0.2903
  630MOL0     H83121   1.664   9.855   5.637  0.7278  0.2351  1.6174
  630MOL0     H83122   1.559   9.967   5.760 -0.7072 -2.0778  0.2681
  630MOL0     H83123   1.384  10.015   5.924  0.8341 -0.9656  0.4610
  630MOL0     H83124   0.887   9.960   6.071 -1.0680  2.1800  0.5834
  630MOL0     H83125   0.821   9.930   6.304  0.1511  2.9324  2.5711
  630MOL0     H83126   0.829   9.854   6.533 -2.1787  0.0060  0.9241
  630MOL0     H83127   0.775  10.026   6.504  0.5937  2.0952  1.9983
  630MOL0     H83128   0.847  10.071   6.743  0.3481  0.2894 -0.6033
  630MOL0     H83129   0.865   9.909   6.768  0.8187  1.4733  1.5051
  630MOL0     H83130   0.641   9.857   6.718  1.8058  1.4408 -0.9318
  630MOL0     H83131   0.603  10.015   6.652  0.3978  0.1008 -0.8073
  630MOL0     H83132   0.645   9.950   6.948  2.6614  0.0698 -1.3754
  630MOL0     H83133   0.661  10.113   6.887  2.4157 -0.8830 -0.8347
  630MOL0     H83134   0.404   9.930   6.833  0.0508  0.6753 -1.4398
  630MOL0     H83135   0.415  10.101   6.792 -2.5656 -1.5571 -0.7171
  630MOL0     H83136   0.436  10.178   7.016  0.2503 -0.5897 -1.5335
  630MOL0     H83137   0.459  10.022   7.086  0.3510  0.4168 -0.0977
  630MOL0     H83138   0.205  10.113   6.935  1.7250  1.1158 -0.1415
  630MOL0     H83139   0.221   9.969   7.035 -2.0217  0.6626  1.0781
  630MOL0     H83140   0.267  10.118   7.243  0.9823  0.0819 -0.8089
  630MOL0     H83141   0.112  10.133   7.170  0.4886  1.1551  1.6656
  630MOL0     H83142   1.212  10.043   6.428 -0.6142 -3.8693  2.4750
  630MOL0     H83143   1.279  10.065   6.195 -0.3625  2.5013  0.6758
  630MOL0     H83144   1.097   9.970   5.619  0.1966 -5.7353  0.9689
  630MOL0     H83145   1.271   9.920   5.448  2.9395 -2.7994 -0.5880
  630MOL0     H83146   1.164   8.867   6.254  2.7063 -0.0487  1.7087
  630MOL0     H83147   0.930   8.920   6.191  0.3969 -0.9674  2.0118
  630MOL0     H83148   0.479   8.941   6.182  1.1982  1.0313 -0.4312
  630MOL0     H83149   0.267   9.001   6.107 -0.0680  0.1916  1.9386
  630MOL0     H83150   0.137   9.432   6.179  3.3561  0.3508 -0.8914
  630MOL0     H83151   0.142   9.278   6.273 -3.3701  0.7543 -0.0803
  630MOL0     H83152  -0.084   9.343   6.222 -2.7273 -2.2790 -0.6886
  630MOL0     H83153  -0.073   9.336   6.053 -3.1980 -2.0238  0.7714
  630MOL0     H83154  -0.163   9.131   6.193  0.0466 -2.6074  0.8044
  630MOL0     H83155  -0.008   9.097   6.243 -2.3806 -1.4254  0.4492
  630MOL0     H83156   0.058   9.087   5.975 -0.9520  4.6476  0.0421
  630MOL0     H83157  -0.006   8.954   6.060  1.6711 -0.0266 -0.5155
  630MOL0     H83158  -0.316   9.105   5.791 -0.1549  3.5291  1.3875
  630MOL0     H83159   0.408   9.405   6.062  0.1002 -1.4367 -3.4513
  630MOL0     H83160   0.620   9.341   6.174  0.0594 -0.4478  2.8857
  631MOL0     O83161   7.139   4.341  10.643  0.8259  0.2650  0.1321
  631MOL0     C83162   7.026   4.395  10.630 -0.1211 -1.0390 -0.0095
  631MOL0     O83163   6.962   4.470  10.726  0.4781  0.4863  0.4693
  631MOL0     C83164   7.009   4.462  10.855  1.0117  0.3235  0.1803
  631MOL0     C83165   7.129   4.521  10.892  0.2618 -0.7986 -0.1313
  631MOL0     C83166   7.165   4.526  11.027  0.5487  0.4025  0.3632
  631MOL0     C83167   7.084   4.457  11.123  0.0934 -0.4746  0.3395
  631MOL0     O83168   7.128   4.437  11.256 -1.0333 -0.2596 -0.3827
  631MOL0     C83169   7.262   4.370  11.250  0.3520 -0.4580  0.7566
  631MOL0     C83170   7.273   4.260  11.349  0.9711  0.0793 -0.3622
  631MOL0     C83171   7.413   4.195  11.344  0.0157  0.8284  0.2120
  631MOL0     C83172   7.432   4.074  11.435  0.4580 -1.1485  1.0575
  631MOL0     C83173   7.551   4.003  11.383 -0.6348  0.1678 -0.5717
  631MOL0     C83174   7.596   3.881  11.465 -0.2604 -0.1977 -0.0916
  631MOL0     C83175   7.507   3.758  11.441  0.9999 -0.6761  0.5154
  631MOL0     C83176   7.573   3.632  11.512 -0.7653 -0.1532 -0.2062
  631MOL0     N83177   7.483   3.516  11.499 -0.5425 -1.1091  0.1263
  631MOL0     C83178   7.436   3.465  11.387  0.0311  0.4990  1.0494
  631MOL0     C83179   7.369   3.347  11.416  0.0169 -1.1410  0.0877
  631MOL0     C83180   7.323   3.241  11.320 -0.3410 -0.0146 -0.4516
  631MOL0     C83181   7.198   3.306  11.260  0.2672 -0.9763 -0.5322
  631MOL0     C83182   7.126   3.218  11.154  0.3726 -0.3029  0.3939
  631MOL0     C83183   7.067   3.096  11.219 -1.0106  0.5164 -0.9135
  631MOL0     O83184   6.992   3.018  11.123  0.2385  0.0967 -0.1633
  631MOL0     C83185   6.991   2.877  11.122  0.0320 -0.7024  0.0926
  631MOL0     C83186   6.990   2.798  11.238  0.5931  0.3310  0.2541
  631MOL0     C83187   6.990   2.656  11.221  0.0978  0.9984  0.4083
  631MOL0     C83188   6.985   2.598  11.097  0.6585 -0.4839  0.3617
  631MOL0     C83189   6.962   2.447  11.087 -0.2785 -0.8579  0.2219
  631MOL0     O83190   6.991   2.393  10.960 -0.1855 -0.3313 -0.3827
  631MOL0     C83191   6.998   2.254  10.953  0.1359 -0.3406  0.2649
  631MOL0     C83192   7.054   2.173  11.049 -0.0294  0.4621  0.3388
  631MOL0     C83193   7.063   2.033  11.022 -0.0220  0.3014 -0.2573
  631MOL0     C83194   7.005   1.977  10.906  0.2728 -0.0530 -0.5642
  631MOL0     O83195   7.031   1.851  10.883  0.6303 -0.1524 -0.2692
  631MOL0     C83196   7.069   1.819  10.750 -0.0875 -1.5155 -0.7727
  631MOL0     C83197   7.097   1.669  10.733  0.4309 -1.0036  0.5335
  631MOL0     C83198   7.180   1.640  10.605  0.0169  0.5332 -0.1555
  631MOL0     C83199   7.202   1.495  10.570  0.1254  0.4342 -0.1860
  631MOL0     C83200   7.235   1.481  10.421  0.6443 -0.2362  0.6306
  631MOL0     C83201   7.259   1.338  10.371 -0.5376  0.2296  0.5002
  631MOL0     C83202   7.308   1.341  10.224 -0.2626  0.2539 -0.3372
  631MOL0     C83203   7.287   1.204  10.150 -0.4227 -0.1104 -0.1056
  631MOL0    Cl83204   7.426   1.109  10.200  0.4741 -0.0608  0.2446
  631MOL0     C83205   6.923   2.063  10.828  0.3614  0.3153 -0.3527
  631MOL0     C83206   6.928   2.200  10.848 -0.0832 -0.1604 -0.0658
  631MOL0     O83207   6.940   2.384  11.187  0.8221 -0.2896  0.7495
  631MOL0     C83208   6.987   2.683  10.985  0.2789  0.0361 -0.4170
  631MOL0     C83209   6.999   2.821  10.996 -1.2601 -0.1503 -0.8625
  631MOL0     N83210   7.378   3.324  11.553 -0.0208 -0.6478 -0.0394
  631MOL0     N83211   7.442   3.435  11.602 -0.3820  0.2022  0.2175
  631MOL0     C83212   6.973   4.386  11.078  0.2401  0.4698 -0.1453
  631MOL0     C83213   6.924   4.393  10.947  0.1873 -0.0927 -0.6918
  631MOL0     C83214   6.950   4.386  10.504  0.7261 -0.1594 -0.1185
  631MOL0     C83215   6.957   4.276  10.424  0.6137 -0.0653 -0.9663
  631MOL0     C83216   6.894   4.278  10.300  0.2804 -0.7449 -0.3406
  631MOL0     C83217   6.817   4.383  10.262 -0.8391  0.6015  0.0272
  631MOL0     O83218   6.769   4.370  10.129 -0.1955 -0.4253  0.2470
  631MOL0     C83219   6.686   4.471  10.065 -0.9026  0.2104 -0.2419
  631MOL0     C83220   6.533   4.457  10.097 -0.2600  0.1647  0.3021
  631MOL0     C83221   6.474   4.590  10.072 -0.8330 -1.5289 -0.2314
  631MOL0     C83222   6.324   4.567  10.103  1.1132 -0.4517 -1.6650
  631MOL0     C83223   6.263   4.700  10.085 -0.0182  0.3596  0.8389
  631MOL0     C83224   6.216   4.810  10.078  0.3035 -0.9912 -0.4014
  631MOL0     C83225   6.802   4.496  10.347 -0.1331  0.7416 -0.4404
  631MOL0     C83226   6.869   4.496  10.465  0.0636 -0.1367  0.1635
  631MOL0     H83227   7.171   4.559  10.799  1.4156  1.4701  1.2162
  631MOL0     H83228   7.254   4.570  11.071 -0.5552  0.9790  2.1136
  631MOL0     H83229   7.331   4.453  11.267 -2.3398  2.7787 -2.5088
  631MOL0     H83230   7.285   4.327  11.152 -0.3396 -0.6280  0.6620
  631MOL0     H83231   7.197   4.186  11.322  0.4209 -0.0766  1.4869
  631MOL0     H83232   7.253   4.307  11.446  5.7064 -0.3100  1.0634
  631MOL0     H83233   7.492   4.269  11.364  2.0851 -0.7380 -1.6130
  631MOL0     H83234   7.427   4.165  11.239 -0.8499  4.1229 -0.9784
  631MOL0     H83235   7.450   4.099  11.540  0.5172  2.3895  0.3151
  631MOL0     H83236   7.338   4.022  11.411  0.7803 -0.1770 -3.0762
  631MOL0     H83237   7.634   4.074  11.378 -1.1630  1.1755  2.5725
  631MOL0     H83238   7.544   3.959  11.283  1.2909 -0.4318 -0.4852
  631MOL0     H83239   7.620   3.907  11.568 -2.3796 -0.3139  0.4821
  631MOL0     H83240   7.685   3.838  11.419  0.7637  1.1808  0.5421
  631MOL0     H83241   7.410   3.776  11.489  0.6538  1.6144 -0.8862
  631MOL0     H83242   7.481   3.725  11.340 -3.2592 -0.1999  1.2668
  631MOL0     H83243   7.604   3.658  11.613  0.4589  0.5106 -0.7252
  631MOL0     H83244   7.666   3.604  11.462 -2.0788 -3.9399 -0.8355
  631MOL0     H83245   7.436   3.497  11.283 -3.9227 -1.7337  0.1578
  631MOL0     H83246   7.310   3.144  11.369  0.9698 -0.5959 -1.1861
  631MOL0     H83247   7.394   3.232  11.237  1.5892  1.1221  0.9788
  631MOL0     H83248   7.240   3.392  11.207  3.9021 -1.7812  0.7709
  631MOL0     H83249   7.127   3.338  11.337  3.8941 -1.3847  3.3084
  631MOL0     H83250   7.054   3.286  11.106  1.4052 -0.9480 -2.2405
  631MOL0     H83251   7.206   3.185  11.088  1.2141 -1.3284  1.8731
  631MOL0     H83252   6.999   3.138  11.294 -3.7300 -1.6026 -1.9861
  631MOL0     H83253   7.144   3.037  11.270 -2.8038 -0.3885  0.8829
  631MOL0     H83254   6.977   2.834  11.340 -3.4398  0.6150 -0.1697
  631MOL0     H83255   6.986   2.591  11.308  1.0984  0.7948  0.3084
  631MOL0     H83256   7.094   2.208  11.143 -3.4917  2.1384  1.3447
  631MOL0     H83257   7.127   1.976  11.088 -0.5060  1.5285  1.3179
  631MOL0     H83258   7.163   1.873  10.737 -0.1989 -1.2402 -0.4683
  631MOL0     H83259   7.002   1.863  10.676 -1.4155  1.3635  1.8947
  631MOL0     H83260   6.999   1.620  10.734 -0.2139 -0.3356 -4.5768
  631MOL0     H83261   7.153   1.626  10.817  2.8396  1.5723  0.3935
  631MOL0     H83262   7.277   1.691  10.616  0.3984  0.6212 -3.1228
  631MOL0     H83263   7.141   1.681  10.512 -1.5961  0.6560  0.5348
  631MOL0     H83264   7.287   1.458  10.628  0.9705  4.3480  1.3799
  631MOL0     H83265   7.114   1.432  10.589 -0.7487  1.7153  0.1164
  631MOL0     H83266   7.307   1.557  10.391  0.0060  0.1897  0.1274
  631MOL0     H83267   7.137   1.508  10.379  0.3186 -2.4229 -0.1238
  631MOL0     H83268   7.167   1.278  10.368  0.3645 -1.1818 -1.3683
  631MOL0     H83269   7.338   1.290  10.429  1.7596  2.6269 -0.4731
  631MOL0     H83270   7.259   1.417  10.161 -2.9838 -1.5965 -0.6592
  631MOL0     H83271   7.416   1.359  10.225 -0.2657  0.3348  1.7972
  631MOL0     H83272   7.295   1.227  10.043 -0.3489 -0.5809 -0.2067
  631MOL0     H83273   7.187   1.163  10.169 -1.9349  3.5024  0.5602
  631MOL0     H83274   6.883   2.027  10.734  1.9976 -0.0743 -0.9232
  631MOL0     H83275   6.876   2.261  10.774  0.0758 -0.4040 -0.3823
  631MOL0     H83276   6.988   2.650  10.882 -1.2988  0.4405 -0.5729
  631MOL0     H83277   7.003   2.883  10.907 -0.2499 -0.1871 -0.8496
  631MOL0     H83278   6.915   4.331  11.152  0.3170  2.2929  1.3448
  631MOL0     H83279   6.830   4.349  10.916  1.7966 -1.8553 -3.5009
  631MOL0     H83280   7.018   4.187  10.434 -1.1229 -1.5724 -2.8566
  631MOL0     H83281   6.895   4.180  10.254 -2.7125 -1.9228  1.7653
  631MOL0     H83282   6.717   4.461   9.960 -1.1241  2.1552 -0.5421
  631MOL0     H83283   6.718   4.568  10.105  0.8234  0.3291 -1.7531
  631MOL0     H83284   6.495   4.378  10.031 -1.2884  0.7579  0.1589
  631MOL0     H83285   6.525   4.429  10.202  0.7427 -2.0790 -0.1584
  631MOL0     H83286   6.496   4.636   9.976 -3.5817  2.5084  0.8262
  631MOL0     H83287   6.516   4.664  10.141  1.9687 -1.4545 -1.8784
  631MOL0     H83288   6.268   4.492  10.046 -1.6869  1.4465 -1.5832
  631MOL0     H83289   6.326   4.536  10.208  2.9365  0.9646 -1.2262
  631MOL0     H83290   6.170   4.906  10.079  0.6570 -0.7854 -1.9790
  631MOL0     H83291   6.735   4.577  10.324 -3.5114 -1.2080  1.7030
  631MOL0     H83292   6.866   4.587  10.525  0.7143  1.8172 -2.5587
  632MOL0     O83293   5.278   7.367   9.804 -0.8132 -0.9221 -0.2742
  632MOL0     C83294   5.265   7.446   9.897 -0.2770 -0.3233 -0.5871
  632MOL0     O83295   5.315   7.428  10.027  0.5134 -0.6835 -0.0862
  632MOL0     C83296   5.326   7.292  10.061  0.9071 -0.8496 -0.2604
  632MOL0     C83297   5.434   7.210  10.010  0.7907  0.9967 -0.0138
  632MOL0     C83298   5.448   7.078  10.059  0.4045 -0.6857  0.5864
  632MOL0     C83299   5.359   7.020  10.148  0.7081 -0.2503  0.6543
  632MOL0     O83300   5.397   6.891  10.181  0.1240 -0.5735  0.0492
  632MOL0     C83301   5.287   6.807  10.216  0.5396 -0.4345 -0.4361
  632MOL0     C83302   5.226   6.743  10.083 -0.1507  0.9648 -0.3200
  632MOL0     C83303   5.194   6.831   9.969  0.0006 -0.9261  0.4509
  632MOL0     C83304   5.096   6.763   9.873  0.5489 -0.2595 -0.4093
  632MOL0     C83305   5.067   6.839   9.740  0.3461  0.1822 -0.4133
  632MOL0     C83306   5.031   6.988   9.764 -0.5285 -1.1316 -0.7276
  632MOL0     C83307   4.995   7.066   9.632 -0.1794 -0.1906 -0.8453
  632MOL0     C83308   4.995   7.216   9.656  1.0311  0.9488  0.2087
  632MOL0     N83309   4.964   7.313   9.541 -1.1760  0.2575 -0.2168
  632MOL0     C83310   4.946   7.285   9.407 -0.3914 -0.4456 -0.5104
  632MOL0     C83311   4.940   7.408   9.345 -0.3523  0.2485 -0.8423
  632MOL0     C83312   4.909   7.436   9.205  0.8009  0.3548  0.1049
  632MOL0     C83313   4.913   7.587   9.167 -0.7802  0.3935  0.4999
  632MOL0     C83314   4.887   7.615   9.017 -0.1518 -0.6780 -0.4495
  632MOL0     C83315   4.885   7.770   8.994  0.5181 -0.4970 -0.5808
  632MOL0     O83316   4.757   7.826   9.052 -0.5215  0.1871  0.5182
  632MOL0     C83317   4.725   7.955   9.026 -0.1411 -0.2357  0.1212
  632MOL0     C83318   4.800   8.055   8.971 -0.9424 -0.4127  0.4378
  632MOL0     C83319   4.751   8.176   8.925  0.2890 -0.3641  0.3194
  632MOL0     C83320   4.608   8.201   8.926 -0.0168  0.4425 -0.7907
  632MOL0     C83321   4.540   8.325   8.884 -0.5040  0.4490  0.0781
  632MOL0     O83322   4.426   8.349   8.949  0.1275  0.9252 -0.0891
  632MOL0     C83323   4.351   8.465   8.947  0.5766  0.2169 -0.2879
  632MOL0     C83324   4.242   8.471   9.041 -0.4385  0.0037  0.5006
  632MOL0     C83325   4.158   8.581   9.052  1.3810  0.0786  1.2071
  632MOL0     C83326   4.171   8.684   8.957  0.0438  0.1504  0.6317
  632MOL0     O83327   4.076   8.789   8.956 -0.2893 -0.4277  0.2329
  632MOL0     C83328   3.940   8.751   8.982  0.8686  0.1759  0.4603
  632MOL0     C83329   3.843   8.854   8.936 -0.3811  0.1971 -0.6850
  632MOL0     C83330   3.849   8.979   9.006  0.6167 -0.2659 -1.0271
  632MOL0     C83331   3.752   9.081   8.936  0.5320 -0.4055  0.5070
  632MOL0     C83332   3.681   9.178   9.034  0.0134 -0.8742  0.4569
  632MOL0     C83333   3.789   9.274   9.091  1.4619 -0.3454 -0.3305
  632MOL0     C83334   3.726   9.337   9.226  0.0490  0.4987 -0.0260
  632MOL0     C83335   3.619   9.445   9.215 -0.1666 -0.3851 -0.1399
  632MOL0    Cl83336   3.677   9.590   9.138 -0.2389 -0.1280 -0.3430
  632MOL0     C83337   4.278   8.684   8.864 -0.3236  0.0267 -0.1405
  632MOL0     C83338   4.367   8.571   8.857 -0.2645 -0.2066 -0.4106
  632MOL0     O83339   4.603   8.407   8.822  0.5473 -0.6826  1.0248
  632MOL0     C83340   4.529   8.099   8.998 -0.1434  0.5063  0.9796
  632MOL0     C83341   4.584   7.980   9.048 -0.7196 -0.5336  0.1280
  632MOL0     N83342   4.933   7.505   9.446  0.1753 -0.0788 -0.7482
  632MOL0     N83343   4.960   7.448   9.563  0.3277  1.1825 -0.0305
  632MOL0     C83344   5.251   7.101  10.199 -0.1753 -0.2025  0.0986
  632MOL0     C83345   5.230   7.234  10.147  0.3193 -0.1664  0.5991
  632MOL0     C83346   5.202   7.576   9.865 -0.3462 -0.3470  0.1034
  632MOL0     C83347   5.187   7.679   9.968 -0.3365 -0.6492 -0.4337
  632MOL0     C83348   5.125   7.805   9.948 -0.8455  0.2864 -0.4809
  632MOL0     C83349   5.073   7.832   9.818  0.7642 -1.0948 -0.3751
  632MOL0     O83350   4.988   7.939   9.803 -0.5340 -0.4962 -0.5661
  632MOL0     C83351   4.911   7.934   9.683  0.7944 -0.0986  0.3606
  632MOL0     C83352   4.813   8.044   9.700  0.3622 -0.1764  0.4779
  632MOL0     C83353   4.776   8.124   9.571  0.1774  0.5529  0.6680
  632MOL0     C83354   4.707   8.029   9.470  0.0812 -0.6673  0.3860
  632MOL0     C83355   4.590   7.955   9.521 -0.8779 -1.3205 -0.9337
  632MOL0     C83356   4.510   7.891   9.580 -0.3600 -0.0368  0.0349
  632MOL0     C83357   5.080   7.734   9.718  0.4007  0.6796  0.4812
  632MOL0     C83358   5.155   7.618   9.737  0.2294  0.2684 -0.1233
  632MOL0     H83359   5.506   7.265   9.949 -0.1112  2.4554  0.1790
  632MOL0     H83360   5.536   7.031  10.015 -1.7525 -1.8516 -2.9108
  632MOL0     H83361   5.201   6.846  10.271  0.2339 -1.9663  0.2197
  632MOL0     H83362   5.322   6.726  10.281  0.0600  2.8021  4.4276
  632MOL0     H83363   5.135   6.686  10.105  0.1938  0.9193  1.1146
  632MOL0     H83364   5.300   6.675  10.039 -0.0209 -0.9135  2.5070
  632MOL0     H83365   5.279   6.855   9.904 -2.1878 -0.2822 -2.3555
  632MOL0     H83366   5.148   6.925  10.001  0.7842 -0.9284  1.6543
  632MOL0     H83367   5.138   6.667   9.843  2.0257  0.5471 -0.9997
  632MOL0     H83368   4.997   6.750   9.918  0.3917 -1.6155 -1.0983
  632MOL0     H83369   4.994   6.775   9.688 -0.2110  0.1267  0.4174
  632MOL0     H83370   5.156   6.826   9.677  2.0175 -1.1297  2.0758
  632MOL0     H83371   5.109   7.050   9.809 -0.5385  0.0590 -2.2434
  632MOL0     H83372   4.946   6.986   9.833  0.7793  2.9692  1.3391
  632MOL0     H83373   5.066   7.057   9.550 -0.3769  0.3992 -1.0895
  632MOL0     H83374   4.894   7.044   9.596 -1.3766 -0.6547  2.4655
  632MOL0     H83375   5.085   7.252   9.706  1.3219  1.1646 -0.4615
  632MOL0     H83376   4.916   7.233   9.730  1.0208 -0.9316  0.6750
  632MOL0     H83377   4.931   7.182   9.375 -2.1831 -3.1818  7.0710
  632MOL0     H83378   4.805   7.402   9.201 -0.2780  3.1457  1.6060
  632MOL0     H83379   4.978   7.386   9.136  1.2519  1.2686 -0.1274
  632MOL0     H83380   4.993   7.649   9.208 -2.6428  1.3263  2.9499
  632MOL0     H83381   4.824   7.623   9.219 -1.5082  1.5661 -1.4159
  632MOL0     H83382   4.963   7.575   8.949 -0.2420  0.9821 -1.6169
  632MOL0     H83383   4.784   7.586   8.995  0.0682 -1.0335 -1.0205
  632MOL0     H83384   4.883   7.798   8.888  2.2274  3.0161  0.1471
  632MOL0     H83385   4.973   7.815   9.041  0.7893 -3.0007  1.4876
  632MOL0     H83386   4.899   8.032   8.934  0.0506 -0.4393  2.9261
  632MOL0     H83387   4.812   8.240   8.861 -1.7744 -0.9917 -2.4436
  632MOL0     H83388   4.228   8.383   9.102 -3.0583 -1.0393 -1.4043
  632MOL0     H83389   4.084   8.577   9.132  2.9339 -0.0153  2.7106
  632MOL0     H83390   3.920   8.741   9.089 -2.4319  1.2477  0.0654
  632MOL0     H83391   3.923   8.659   8.926  0.8373  1.7226 -2.2530
  632MOL0     H83392   3.739   8.823   8.943 -0.2350  0.1592  2.4194
  632MOL0     H83393   3.861   8.880   8.831  0.3087  0.8371 -0.4148
  632MOL0     H83394   3.950   9.020   9.013  1.8718 -3.3844  3.1620
  632MOL0     H83395   3.816   8.970   9.110 -0.6004  0.1356 -1.3622
  632MOL0     H83396   3.805   9.143   8.862  1.1817 -0.5287  0.8545
  632MOL0     H83397   3.679   9.022   8.881 -1.5812  0.4778  2.2378
  632MOL0     H83398   3.638   9.123   9.118 -1.7100 -0.8897 -0.3940
  632MOL0     H83399   3.593   9.229   8.995 -0.0905 -0.4192  1.2585
  632MOL0     H83400   3.797   9.363   9.028  1.2096  1.0031  1.4634
  632MOL0     H83401   3.881   9.218   9.113 -0.7976 -3.8975  0.8509
  632MOL0     H83402   3.693   9.250   9.284  2.3797 -0.4479 -0.0400
  632MOL0     H83403   3.813   9.374   9.280  1.9270 -0.3664 -2.2901
  632MOL0     H83404   3.590   9.476   9.316  2.3019  1.2755  0.1573
  632MOL0     H83405   3.528   9.400   9.175 -1.9474  1.1351  1.9298
  632MOL0     H83406   4.302   8.769   8.800 -2.4570 -0.4248 -1.6496
  632MOL0     H83407   4.446   8.577   8.782  0.7473 -2.7501  0.3352
  632MOL0     H83408   4.421   8.099   8.998 -0.1825 -1.2486 -0.3195
  632MOL0     H83409   4.517   7.899   9.073 -0.9972 -0.0197  1.0880
  632MOL0     H83410   5.183   7.067  10.276 -3.2845 -1.3101 -2.9151
  632MOL0     H83411   5.148   7.295  10.182 -0.1583  0.3633 -1.3743
  632MOL0     H83412   5.228   7.666  10.068 -1.3519  0.3018  0.1280
  632MOL0     H83413   5.113   7.883  10.022 -0.0326 -1.1868  1.2791
  632MOL0     H83414   4.854   7.840   9.673 -0.0613  0.4285  0.1645
  632MOL0     H83415   4.978   7.948   9.598  0.6434  0.3111  0.3089
  632MOL0     H83416   4.722   8.003   9.745 -0.7565  1.1785 -0.4417
  632MOL0     H83417   4.859   8.127   9.755 -2.2516  0.8931  1.2263
  632MOL0     H83418   4.860   8.183   9.533 -1.6800  2.1654 -1.2495
  632MOL0     H83419   4.698   8.198   9.591  0.4135  0.9619  0.1155
  632MOL0     H83420   4.659   8.100   9.401  0.3229  1.2263  2.0736
  632MOL0     H83421   4.771   7.953   9.424 -1.9761 -2.1407 -0.1839
  632MOL0     H83422   4.436   7.833   9.630 -0.3198  0.3296  0.5210
  632MOL0     H83423   5.049   7.754   9.616 -0.6144  0.7174  0.7857
  632MOL0     H83424   5.177   7.560   9.648  0.4500  1.0258 -0.5787
  633MOL0     O83425  10.861   7.280   9.928 -0.1894 -0.7040  0.4570
  633MOL0     C83426  10.942   7.196   9.943 -0.3002  0.5754 -0.5685
  633MOL0     O83427  10.938   7.078   9.871 -0.1997  0.2686 -0.6358
  633MOL0     C83428  10.847   7.078   9.772 -0.1520  1.1436 -0.1644
  633MOL0     C83429  10.732   7.003   9.782 -0.6225  0.1938 -0.2580
  633MOL0     C83430  10.631   7.002   9.683  0.5183 -0.4986  0.2476
  633MOL0     C83431  10.668   7.061   9.564 -0.1878  1.0653 -0.2985
  633MOL0     O83432  10.591   7.049   9.454 -0.4547 -0.3071 -0.8657
  633MOL0     C83433  10.457   7.013   9.470  0.7442  0.7199  0.0746
  633MOL0     C83434  10.428   6.856   9.447  0.4696 -0.3108 -0.3313
  633MOL0     C83435  10.274   6.842   9.463 -0.7243  0.4000  0.1700
  633MOL0     C83436  10.238   6.696   9.452  0.0254 -0.1386 -0.2616
  633MOL0     C83437  10.090   6.648   9.474 -0.3865  0.4499  1.5326
  633MOL0     C83438  10.060   6.499   9.506  0.1904  0.4733 -0.0547
  633MOL0     C83439   9.911   6.457   9.498 -0.6431 -0.9295  0.0370
  633MOL0     C83440   9.826   6.527   9.593 -0.3204  0.2804  0.2233
  633MOL0     N83441   9.873   6.536   9.732  0.4853 -0.2998  0.8268
  633MOL0     C83442   9.912   6.651   9.799 -0.8039  0.7225  0.2866
  633MOL0     C83443   9.946   6.604   9.925  0.6442 -1.1626 -0.0097
  633MOL0     C83444  10.007   6.686  10.037  0.4800 -0.2759 -0.3003
  633MOL0     C83445   9.951   6.642  10.170 -0.0226  0.2634 -0.5834
  633MOL0     C83446  10.037   6.689  10.294 -0.8303  0.1823 -0.4245
  633MOL0     C83447  10.009   6.612  10.426 -0.3900  0.1839  1.2838
  633MOL0     O83448  10.103   6.652  10.529  0.2824  0.6768 -0.0333
  633MOL0     C83449  10.203   6.562  10.571 -0.2775  0.1494 -0.6215
  633MOL0     C83450  10.235   6.435  10.528 -0.1473 -0.2514 -0.3435
  633MOL0     C83451  10.347   6.364  10.581  0.8591 -0.1554 -0.2645
  633MOL0     C83452  10.422   6.427  10.681 -0.7532 -0.9692  0.6008
  633MOL0     C83453  10.539   6.359  10.736 -0.5815 -0.9905  0.4362
  633MOL0     O83454  10.572   6.258  10.657 -0.5514 -0.0059 -0.0615
  633MOL0     C83455  10.691   6.203  10.645 -0.0087  0.4153 -0.1619
  633MOL0     C83456  10.766   6.161  10.755  0.4529  0.9320 -0.3718
  633MOL0     C83457  10.903   6.123  10.724  0.0827  0.0122  0.2119
  633MOL0     C83458  10.948   6.120  10.591  0.4215  0.5232  0.7584
  633MOL0     O83459  11.072   6.066  10.580 -0.0395 -0.0217  0.6398
  633MOL0     C83460  11.126   6.035  10.448 -0.7425 -0.3064  0.4808
  633MOL0     C83461  11.280   5.989  10.472  0.4210 -0.0224 -0.8609
  633MOL0     C83462  11.357   6.097  10.553  0.6569  0.6937 -0.0345
  633MOL0     C83463  11.495   6.059  10.605 -0.4467  0.3408  0.4656
  633MOL0     C83464  11.596   5.999  10.493 -0.2454  1.0011 -0.2329
  633MOL0     C83465  11.725   5.959  10.566 -0.4389  0.4607 -0.2848
  633MOL0     C83466  11.814   5.878  10.476  0.4764  0.0856 -0.0436
  633MOL0     C83467  11.959   5.900  10.520 -0.3449 -0.9037  0.5858
  633MOL0    Cl83468  11.999   6.072  10.470  0.2409 -0.0103  0.4152
  633MOL0     C83469  10.869   6.178  10.490  0.5692  0.9543 -0.0845
  633MOL0     C83470  10.741   6.206  10.513  0.2326 -0.0616 -0.3276
  633MOL0     O83471  10.606   6.405  10.821  0.6834 -0.7569 -0.6966
  633MOL0     C83472  10.395   6.560  10.733  1.4319  0.3882 -0.1887
  633MOL0     C83473  10.282   6.622  10.673  0.0751 -0.1930  1.8678
  633MOL0     N83474   9.904   6.474   9.937  0.0531 -0.0351  0.1021
  633MOL0     N83475   9.858   6.433   9.817 -0.2732  0.2343 -0.0974
  633MOL0     C83476  10.789   7.130   9.546 -1.4182  0.4310  0.1832
  633MOL0     C83477  10.874   7.141   9.658 -0.2184  0.4292 -0.2660
  633MOL0     C83478  11.057   7.227  10.037  0.7507 -0.5330 -0.0683
  633MOL0     C83479  11.192   7.189  10.001 -0.7466 -0.0467 -0.4784
  633MOL0     C83480  11.303   7.219  10.086  0.8873 -0.7591 -0.2575
  633MOL0     C83481  11.276   7.304  10.201  0.3327 -0.4343  1.1643
  633MOL0     O83482  11.387   7.352  10.254  0.5844 -0.4284 -0.3151
  633MOL0     C83483  11.385   7.455  10.367  0.6035  0.7756 -0.3991
  633MOL0     C83484  11.512   7.542  10.366  1.1821 -0.1070  0.1209
  633MOL0     C83485  11.638   7.468  10.378 -1.4222  0.6686 -0.8387
  633MOL0     C83486  11.730   7.497  10.252  0.0951 -0.9162  0.7046
  633MOL0     C83487  11.800   7.628  10.259  0.0492  0.0133  0.7878
  633MOL0     C83488  11.864   7.728  10.245  0.5708  0.1526 -0.3125
  633MOL0     C83489  11.138   7.332  10.230  0.0157  0.8783  0.4929
  633MOL0     C83490  11.037   7.296  10.152 -0.5913  0.2762  0.8878
  633MOL0     H83491  10.714   6.946   9.873  1.2411 -2.0971 -1.2204
  633MOL0     H83492  10.545   6.936   9.686  0.7851 -0.8148  2.7307
  633MOL0     H83493  10.406   7.072   9.393  1.7289  1.6163  0.0835
  633MOL0     H83494  10.409   7.051   9.560  0.2450  2.2167 -0.7761
  633MOL0     H83495  10.472   6.791   9.523  2.4175 -0.4725 -1.5246
  633MOL0     H83496  10.451   6.822   9.346 -3.9905  0.2873 -1.7315
  633MOL0     H83497  10.212   6.889   9.386 -3.3977 -1.1635  1.2566
  633MOL0     H83498  10.253   6.877   9.564 -2.3362  2.6118 -0.8441
  633MOL0     H83499  10.269   6.658   9.355 -0.0045  2.2642 -1.2911
  633MOL0     H83500  10.293   6.631   9.521  1.4737 -2.1482 -3.1082
  633MOL0     H83501  10.036   6.663   9.381  2.0493 -1.7816 -0.3786
  633MOL0     H83502  10.038   6.705   9.553 -3.8712 -1.7822  1.0556
  633MOL0     H83503  10.101   6.472   9.604 -0.3266 -4.6951 -0.9758
  633MOL0     H83504  10.115   6.445   9.428 -0.2120  1.2531 -0.8893
  633MOL0     H83505   9.879   6.483   9.397 -2.2076  0.9647  0.9572
  633MOL0     H83506   9.906   6.349   9.516  4.1121 -0.8228  4.0792
  633MOL0     H83507   9.723   6.493   9.589  0.5762 -2.7857  0.7419
  633MOL0     H83508   9.815   6.628   9.551  1.4172  1.1237  1.6414
  633MOL0     H83509   9.912   6.752   9.760 -1.3713  0.3856 -0.6232
  633MOL0     H83510   9.977   6.790  10.018 -0.3804  0.3981  3.6895
  633MOL0     H83511  10.116   6.679  10.037  0.5274 -0.2451  1.6935
  633MOL0     H83512   9.948   6.533  10.177  3.2090  0.1200 -0.1200
  633MOL0     H83513   9.847   6.672  10.185 -0.3615 -0.8006 -0.6543
  633MOL0     H83514  10.143   6.671  10.273 -0.5429  0.7509  0.4827
  633MOL0     H83515  10.029   6.797  10.311  2.3164  0.6278 -1.1417
  633MOL0     H83516  10.004   6.509  10.390  0.5922  0.6469 -0.2424
  633MOL0     H83517   9.910   6.635  10.466 -1.8647 -1.0040 -1.4033
  633MOL0     H83518  10.187   6.381  10.447 -0.7691  0.3146 -0.3656
  633MOL0     H83519  10.377   6.266  10.546 -0.1085 -0.4372 -0.3407
  633MOL0     H83520  10.729   6.182  10.855 -3.1140 -1.6785 -0.9527
  633MOL0     H83521  10.962   6.078  10.803 -1.2077 -0.6284  0.8541
  633MOL0     H83522  11.130   6.126  10.387  2.5900  0.5628  1.7735
  633MOL0     H83523  11.072   5.955  10.397  0.8135 -2.9606  2.7318
  633MOL0     H83524  11.333   5.967  10.379 -1.2620 -0.6255 -1.7394
  633MOL0     H83525  11.284   5.902  10.538  3.6128  1.7912  1.5765
  633MOL0     H83526  11.304   6.111  10.648  1.3732 -2.1091  0.8601
  633MOL0     H83527  11.360   6.188  10.493  0.5813  1.0260  0.4603
  633MOL0     H83528  11.529   6.152  10.651 -1.6186  1.0670 -0.0973
  633MOL0     H83529  11.498   5.974  10.674 -0.0387 -1.5166 -1.7092
  633MOL0     H83530  11.616   6.065  10.409  0.9128 -0.0121 -0.7900
  633MOL0     H83531  11.540   5.911  10.460  0.8594 -0.2152  0.9830
  633MOL0     H83532  11.708   5.893  10.652 -0.4634  0.6622 -0.1337
  633MOL0     H83533  11.765   6.056  10.597 -1.8610  1.4522 -1.4036
  633MOL0     H83534  11.783   5.773  10.481  2.5828 -0.5822  0.0924
  633MOL0     H83535  11.796   5.912  10.374  0.1295  0.9096  0.2823
  633MOL0     H83536  12.031   5.832  10.474  0.8849  2.3111 -2.7170
  633MOL0     H83537  11.968   5.897  10.629 -0.1864  0.9270  0.6670
  633MOL0     H83538  10.916   6.200  10.395  2.5089  2.2950  1.0948
  633MOL0     H83539  10.669   6.260  10.452  1.4852  0.9849 -0.9362
  633MOL0     H83540  10.452   6.616  10.806 -0.1343  1.6117  0.1562
  633MOL0     H83541  10.250   6.720  10.708 -0.2847 -0.6614  2.9188
  633MOL0     H83542  10.815   7.168   9.448 -2.7505 -1.0443 -0.7889
  633MOL0     H83543  10.953   7.215   9.648  1.3741 -0.6089  3.0280
  633MOL0     H83544  11.211   7.123   9.917 -1.1378 -2.6300  1.3331
  633MOL0     H83545  11.400   7.180  10.056  0.2052 -0.0255 -3.8565
  633MOL0     H83546  11.358   7.408  10.462 -2.3913  2.0927 -0.4907
  633MOL0     H83547  11.306   7.527  10.348 -3.1408 -1.6429  4.0758
  633MOL0     H83548  11.513   7.588  10.266  2.7094 -0.7129 -0.1654
  633MOL0     H83549  11.492   7.624  10.435 -0.2851 -0.2671 -0.0747
  633MOL0     H83550  11.609   7.363  10.377  0.2080  0.1368  1.1440
  633MOL0     H83551  11.682   7.477  10.478  0.8922 -2.5965 -1.4074
  633MOL0     H83552  11.814   7.427  10.250  1.8987  1.1009  1.3452
  633MOL0     H83553  11.680   7.491  10.155  3.2842 -1.6507 -1.0128
  633MOL0     H83554  11.918   7.821  10.244 -1.1537  1.2213 -3.0779
  633MOL0     H83555  11.112   7.377  10.325  1.9035 -0.9411  1.9552
  633MOL0     H83556  10.938   7.307  10.196 -1.0748 -1.7410  0.4185
  634MOL0     O83557   3.576  10.978   2.744  0.4392 -0.1724  0.2013
  634MOL0     C83558   3.598  10.961   2.627  0.3957  0.0991  0.8618
  634MOL0     O83559   3.613  11.062   2.532 -0.5669 -0.2294 -0.8504
  634MOL0     C83560   3.621  11.195   2.579 -0.4006  1.0757  0.0321
  634MOL0     C83561   3.552  11.289   2.499  0.7431 -0.5822 -0.1751
  634MOL0     C83562   3.542  11.422   2.538 -0.0119  0.3659  0.6196
  634MOL0     C83563   3.627  11.465   2.636 -0.1773 -0.4112  0.3373
  634MOL0     O83564   3.614  11.595   2.685 -1.1412  0.4387 -0.0312
  634MOL0     C83565   3.648  11.696   2.588  0.8872 -0.0812  0.1090
  634MOL0     C83566   3.635  11.832   2.646  0.4025 -0.2684  0.1044
  634MOL0     C83567   3.499  11.898   2.678 -0.7494  1.0469  0.1407
  634MOL0     C83568   3.411  11.834   2.781  0.5269  0.3950 -0.5040
  634MOL0     C83569   3.266  11.832   2.724 -0.4623 -0.0016 -0.1851
  634MOL0     C83570   3.257  11.751   2.587 -0.1470  0.3552 -0.4874
  634MOL0     C83571   3.119  11.769   2.527 -0.3143 -0.5733 -0.0171
  634MOL0     C83572   3.091  11.691   2.401 -0.1529  0.1293  0.4002
  634MOL0     N83573   3.085  11.549   2.424  0.3816  0.8095 -0.0211
  634MOL0     C83574   2.968  11.486   2.463  0.0032  1.1651 -1.2201
  634MOL0     C83575   3.005  11.353   2.472  0.4324  0.7267 -0.0067
  634MOL0     C83576   2.905  11.242   2.506  1.0471  0.1555  0.4552
  634MOL0     C83577   2.781  11.249   2.409  0.2261 -1.1560  0.7350
  634MOL0     C83578   2.824  11.226   2.255  0.5111 -0.2607 -1.1786
  634MOL0     C83579   2.838  11.078   2.232 -1.4871  0.3460  0.1329
  634MOL0     O83580   2.716  11.005   2.268  0.9442  0.4205 -0.2846
  634MOL0     C83581   2.728  10.875   2.216  0.7659 -0.0273 -0.1299
  634MOL0     C83582   2.705  10.862   2.077  0.3390  0.3836 -1.2161
  634MOL0     C83583   2.720  10.742   2.016 -1.1001 -0.0320 -1.1990
  634MOL0     C83584   2.778  10.633   2.092 -0.4993 -0.8317  0.6310
  634MOL0     C83585   2.792  10.501   2.037  0.6933 -0.6232 -0.2601
  634MOL0     O83586   2.863  10.406   2.114  0.4711  0.5465  0.2520
  634MOL0     C83587   2.886  10.291   2.043  0.7641  0.8278  0.0817
  634MOL0     C83588   2.782  10.198   2.031 -0.3635  0.5166  0.1164
  634MOL0     C83589   2.796  10.080   1.955 -0.4481  0.4503  0.3486
  634MOL0     C83590   2.922  10.055   1.891  0.0999  0.2240  0.3909
  634MOL0     O83591   2.948   9.933   1.832 -0.4707 -0.3506 -1.4626
  634MOL0     C83592   2.849   9.827   1.854  0.2999 -0.0159  0.6571
  634MOL0     C83593   2.918   9.701   1.811  0.4007  0.6281  0.3123
  634MOL0     C83594   2.834   9.577   1.843 -0.2685 -0.3976  0.2432
  634MOL0     C83595   2.912   9.445   1.844 -0.3179  0.4056  0.3360
  634MOL0     C83596   2.898   9.354   1.968  0.7674  0.9614  0.3446
  634MOL0     C83597   2.946   9.205   1.939  0.4980 -0.1656  0.4424
  634MOL0     C83598   2.941   9.123   2.066  0.1564 -0.0986  0.4090
  634MOL0     C83599   2.974   8.973   2.059  0.1504  0.4533  0.1800
  634MOL0    Cl83600   2.851   8.868   1.970 -0.5506 -0.5249 -0.1917
  634MOL0     C83601   3.029  10.138   1.913 -0.1159 -0.4631 -0.6922
  634MOL0     C83602   3.004  10.263   1.978 -0.9055  0.2954 -0.2803
  634MOL0     O83603   2.742  10.479   1.929  0.0756 -0.7961  0.1119
  634MOL0     C83604   2.800  10.645   2.230 -0.9394 -0.2139  0.7774
  634MOL0     C83605   2.776  10.773   2.294 -0.4489  0.0618 -0.6181
  634MOL0     N83606   3.141  11.343   2.456  0.2237 -0.3588 -0.3429
  634MOL0     N83607   3.194  11.463   2.429  1.8507 -0.4608  0.1121
  634MOL0     C83608   3.711  11.369   2.709  0.4668  0.1106 -0.4526
  634MOL0     C83609   3.708  11.241   2.678  0.3623 -0.7704  0.3913
  634MOL0     C83610   3.617  10.825   2.572 -0.5431 -0.5692  0.1551
  634MOL0     C83611   3.608  10.719   2.654  0.4865  0.3519  0.6654
  634MOL0     C83612   3.624  10.585   2.601  0.5077  0.0225 -0.2232
  634MOL0     C83613   3.643  10.567   2.462 -0.0245 -0.1449 -0.0276
  634MOL0     O83614   3.672  10.442   2.424  1.0766  1.0409  0.5600
  634MOL0     C83615   3.685  10.409   2.286  0.2353 -0.0058  0.8431
  634MOL0     C83616   3.761  10.282   2.269 -0.0776 -0.0249  0.5189
  634MOL0     C83617   3.676  10.160   2.306 -0.1878  0.8098  0.0414
  634MOL0     C83618   3.768  10.028   2.293  0.1987 -0.1934 -0.1544
  634MOL0     C83619   3.813  10.023   2.154 -0.3420  0.4051 -1.0576
  634MOL0     C83620   3.848  10.015   2.038 -0.6914 -0.3703 -0.5007
  634MOL0     C83621   3.643  10.682   2.377  0.3274  0.3394 -0.9253
  634MOL0     C83622   3.628  10.806   2.431 -0.3700  0.5703  0.1155
  634MOL0     H83623   3.483  11.252   2.424  0.2442  1.1114 -0.6027
  634MOL0     H83624   3.492  11.502   2.485  2.3732  1.6862  0.2065
  634MOL0     H83625   3.587  11.684   2.498 -2.1570  1.7720  1.7608
  634MOL0     H83626   3.754  11.688   2.562  1.7849 -1.1450  3.5882
  634MOL0     H83627   3.681  11.895   2.569  3.6350 -2.7141 -0.2082
  634MOL0     H83628   3.694  11.843   2.737 -0.9243 -0.0804  0.9694
  634MOL0     H83629   3.460  11.899   2.576  1.9602  0.6688 -1.0039
  634MOL0     H83630   3.527  12.002   2.696  0.3544  1.4711 -3.3802
  634MOL0     H83631   3.447  11.731   2.793  2.3470  1.1561  0.7948
  634MOL0     H83632   3.417  11.888   2.875  3.0780  0.0613 -0.4153
  634MOL0     H83633   3.236  11.936   2.705 -0.4910 -0.1100 -0.7501
  634MOL0     H83634   3.205  11.791   2.805  1.6985  0.1554  1.6290
  634MOL0     H83635   3.263  11.645   2.613  1.1510  0.3518 -0.7084
  634MOL0     H83636   3.335  11.770   2.513 -0.5005  3.7901 -0.1324
  634MOL0     H83637   3.039  11.751   2.599 -0.4769  0.2068  0.0013
  634MOL0     H83638   3.119  11.874   2.499  0.0854 -0.2983  0.9737
  634MOL0     H83639   3.168  11.723   2.330  0.2827 -2.9219 -0.6862
  634MOL0     H83640   2.993  11.708   2.356  1.3373  4.1454 -1.8387
  634MOL0     H83641   2.868  11.526   2.471 -1.4493 -1.8987 -2.4434
  634MOL0     H83642   2.881  11.275   2.607 -1.8558  0.8342 -0.3623
  634MOL0     H83643   2.950  11.143   2.495  4.3082  1.3997  1.3830
  634MOL0     H83644   2.739  11.348   2.430  0.1085 -1.4638  2.0021
  634MOL0     H83645   2.698  11.181   2.431 -0.0694 -2.1418 -2.7712
  634MOL0     H83646   2.739  11.254   2.193  0.2895  2.9007  0.3840
  634MOL0     H83647   2.915  11.282   2.231  0.5563  0.7949  1.1404
  634MOL0     H83648   2.922  11.032   2.285 -1.0901  0.2167 -0.5921
  634MOL0     H83649   2.856  11.060   2.125 -0.0688 -2.7605  0.7642
  634MOL0     H83650   2.672  10.945   2.015  0.2020 -0.3269 -2.1050
  634MOL0     H83651   2.690  10.742   1.912 -0.8979 -0.5950 -1.2654
  634MOL0     H83652   2.687  10.228   2.074 -1.4015  0.5345 -2.0144
  634MOL0     H83653   2.716  10.007   1.948 -0.8023  1.0053 -2.5984
  634MOL0     H83654   2.758   9.846   1.797  0.4141 -2.2080 -0.3636
  634MOL0     H83655   2.829   9.825   1.961 -0.4833 -3.1339  0.5446
  634MOL0     H83656   3.013   9.700   1.865  0.5726  2.7865  0.1057
  634MOL0     H83657   2.947   9.705   1.706 -2.7333 -0.3938 -0.7036
  634MOL0     H83658   2.745   9.561   1.781 -0.8164  1.5138  0.4771
  634MOL0     H83659   2.792   9.595   1.942 -1.8880 -2.9998  0.1117
  634MOL0     H83660   2.900   9.378   1.758  2.1210 -0.7717  0.8292
  634MOL0     H83661   3.018   9.469   1.831 -0.1650 -0.7056 -0.6859
  634MOL0     H83662   2.796   9.338   2.003  1.4553 -0.8548  1.6717
  634MOL0     H83663   2.949   9.394   2.056  0.7695 -0.6982  1.1497
  634MOL0     H83664   3.048   9.212   1.900 -0.0134 -1.3294 -1.1853
  634MOL0     H83665   2.888   9.150   1.864  1.3375 -1.5113  0.7437
  634MOL0     H83666   3.002   9.159   2.149 -0.2605 -0.7348  1.0046
  634MOL0     H83667   2.838   9.120   2.103 -1.6610 -0.5890 -4.0781
  634MOL0     H83668   2.988   8.935   2.161  0.5880 -0.1986 -0.1140
  634MOL0     H83669   3.070   8.960   2.008 -0.1159  1.7663 -0.7040
  634MOL0     H83670   3.130  10.125   1.876  2.1146  2.2229  3.6434
  634MOL0     H83671   3.078  10.342   1.988  1.0646 -1.2696 -1.6093
  634MOL0     H83672   2.819  10.560   2.294 -0.4734 -1.2126 -0.6398
  634MOL0     H83673   2.788  10.794   2.400  1.9563 -1.5852 -0.4826
  634MOL0     H83674   3.770  11.398   2.796  0.2366 -3.1841  0.9326
  634MOL0     H83675   3.757  11.178   2.752  2.2089  2.4962  2.1709
  634MOL0     H83676   3.582  10.730   2.759 -1.5863  2.3068  0.0332
  634MOL0     H83677   3.615  10.502   2.670  1.4452 -0.5951 -0.8280
  634MOL0     H83678   3.746  10.486   2.238 -0.3612 -0.0224  0.0383
  634MOL0     H83679   3.586  10.398   2.239 -1.5500  1.3244  3.9732
  634MOL0     H83680   3.798  10.284   2.166 -1.6042  0.0380 -0.0398
  634MOL0     H83681   3.855  10.286   2.325  1.0041 -1.4685 -1.0885
  634MOL0     H83682   3.595  10.150   2.233  0.3277  2.6030 -0.8327
  634MOL0     H83683   3.637  10.168   2.408  0.8927  1.0613  0.4472
  634MOL0     H83684   3.854  10.027   2.360  2.5389  0.9980 -2.9404
  634MOL0     H83685   3.699   9.943   2.299  0.7736 -0.7811 -1.4405
  634MOL0     H83686   3.874   9.995   1.936  1.6203 -1.7389  0.2939
  634MOL0     H83687   3.658  10.682   2.269 -1.1899 -2.5780 -1.2529
  634MOL0     H83688   3.626  10.889   2.361  2.3944  0.9829  0.4000
  635MOL0     O83689   8.719  10.806   1.828 -1.1061  0.9761 -0.3490
  635MOL0     C83690   8.733  10.767   1.943 -0.7587  0.9415 -0.1130
  635MOL0     O83691   8.780  10.832   2.052  0.1150 -0.4556 -0.6859
  635MOL0     C83692   8.802  10.961   2.050 -0.1818 -0.7727  1.1554
  635MOL0     C83693   8.878  11.017   1.938  0.1718  0.4366  0.1133
  635MOL0     C83694   8.901  11.154   1.939  0.7646 -0.0848 -1.4947
  635MOL0     C83695   8.857  11.241   2.043  0.1112 -0.0728 -1.1663
  635MOL0     O83696   8.884  11.375   2.044 -0.6111 -0.5074 -0.0066
  635MOL0     C83697   8.987  11.410   2.139 -0.6336 -0.0651  0.1448
  635MOL0     C83698   9.013  11.559   2.122 -0.4657  0.4174 -0.0828
  635MOL0     C83699   8.899  11.655   2.165 -0.9346  0.5889  0.1349
  635MOL0     C83700   8.809  11.671   2.046  0.3988  1.0863 -0.1502
  635MOL0     C83701   8.659  11.714   2.088 -0.7864  0.1458  0.0361
  635MOL0     C83702   8.644  11.868   2.100 -0.2087  0.6101 -0.3126
  635MOL0     C83703   8.642  11.938   1.969  0.2123  0.3388 -0.2937
  635MOL0     C83704   8.643  12.093   1.980  0.6162 -0.1554  0.2744
  635MOL0     N83705   8.520  12.148   2.045  0.6397 -0.8940  0.5696
  635MOL0     C83706   8.407  12.189   1.967 -0.2842 -0.0100  1.4198
  635MOL0     C83707   8.349  12.280   2.047 -0.0318 -0.0951  0.3668
  635MOL0     C83708   8.215  12.356   2.043  0.3689  0.6646 -0.0518
  635MOL0     C83709   8.228  12.476   1.944 -0.5745  0.3513 -0.0226
  635MOL0     C83710   8.108  12.560   1.949 -0.0658 -0.4579  0.1345
  635MOL0     C83711   8.110  12.653   1.828 -0.5241 -0.6170 -0.3951
  635MOL0     O83712   8.017  12.753   1.832 -0.7064 -0.1548 -0.1275
  635MOL0     C83713   8.030  12.875   1.764 -0.1374  0.5084 -0.6640
  635MOL0     C83714   8.102  12.879   1.645  0.4526  0.2308  0.6932
  635MOL0     C83715   8.094  12.992   1.563  0.0032  0.5744 -0.0590
  635MOL0     C83716   8.020  13.105   1.598 -0.0377  0.1418  0.5728
  635MOL0     C83717   8.007  13.239   1.523  0.2176  0.0719 -0.1595
  635MOL0     O83718   7.927  13.344   1.571 -0.7265  0.5914  0.9740
  635MOL0     C83719   7.935  13.476   1.515 -0.4257 -0.2154 -0.1658
  635MOL0     C83720   7.819  13.553   1.514 -0.4256  0.2998 -0.1044
  635MOL0     C83721   7.829  13.686   1.473 -0.2382  0.4238  0.6535
  635MOL0     C83722   7.951  13.755   1.439 -1.3484 -0.4495 -0.5196
  635MOL0     O83723   7.963  13.883   1.407  0.7607 -0.2833  0.5428
  635MOL0     C83724   7.863  13.917   1.298 -0.2270 -0.2529  0.3016
  635MOL0     C83725   7.874  14.067   1.289  0.6390  0.9976 -0.4131
  635MOL0     C83726   7.766  14.131   1.380 -0.3033  1.2029  0.1399
  635MOL0     C83727   7.803  14.139   1.526  0.6454 -0.6434  0.0511
  635MOL0     C83728   7.744  14.269   1.595 -0.5905 -0.0405  0.0119
  635MOL0     C83729   7.825  14.396   1.558  0.5354  0.3081  0.3266
  635MOL0     C83730   7.772  14.529   1.606 -0.1794 -0.6554 -0.7838
  635MOL0     C83731   7.658  14.590   1.523 -0.0927 -0.7487 -0.6007
  635MOL0    Cl83732   7.721  14.664   1.369 -0.1124 -0.4898  0.0142
  635MOL0     C83733   8.071  13.684   1.468 -0.2639 -0.4881  0.3151
  635MOL0     C83734   8.061  13.542   1.498  0.2512  0.8583 -0.3838
  635MOL0     O83735   8.082  13.241   1.427  0.7850 -0.4573 -0.5051
  635MOL0     C83736   7.943  13.099   1.717  0.6748  0.6571 -0.3736
  635MOL0     C83737   7.947  12.982   1.793  0.0014 -0.3191  0.2473
  635MOL0     N83738   8.416  12.292   2.162  0.1715  0.1622 -0.0616
  635MOL0     N83739   8.518  12.223   2.158 -0.6575  0.1827 -0.2507
  635MOL0     C83740   8.785  11.183   2.151  0.8732  0.3404 -0.3132
  635MOL0     C83741   8.769  11.042   2.157  0.5711 -0.8254 -0.0296
  635MOL0     C83742   8.708  10.622   1.961  0.4188  0.6294  0.4652
  635MOL0     C83743   8.647  10.542   1.857 -0.0003 -0.1645 -0.0921
  635MOL0     C83744   8.617  10.411   1.888 -0.2832  0.8265  0.0816
  635MOL0     C83745   8.638  10.352   2.010 -0.3411 -0.3416  0.1503
  635MOL0     O83746   8.599  10.220   2.016 -0.2594  0.5330  0.1557
  635MOL0     C83747   8.590  10.154   2.142 -0.5622  0.5571  0.0743
  635MOL0     C83748   8.457  10.170   2.217  0.8189  0.8421  0.0828
  635MOL0     C83749   8.329  10.121   2.146 -0.0876  0.6142  0.3940
  635MOL0     C83750   8.206  10.209   2.178 -0.1262 -0.3786 -0.5861
  635MOL0     C83751   8.200  10.341   2.112  0.5426  1.3717 -0.5074
  635MOL0     C83752   8.198  10.441   2.047 -0.6139 -0.2024 -0.6873
  635MOL0     C83753   8.702  10.427   2.110  0.3513 -0.0939 -0.1280
  635MOL0     C83754   8.730  10.561   2.087 -0.2681  0.4362  0.4007
  635MOL0     H83755   8.897  10.956   1.850 -0.5158  2.3841 -1.4484
  635MOL0     H83756   8.952  11.191   1.851  0.8027  2.5449 -0.4613
  635MOL0     H83757   9.084  11.369   2.110 -1.6847 -0.5370 -3.0765
  635MOL0     H83758   8.958  11.395   2.244 -1.8029  3.1971  0.4099
  635MOL0     H83759   9.051  11.584   2.023 -1.8735 -1.2867 -1.1353
  635MOL0     H83760   9.094  11.588   2.190  2.7518  0.2696 -3.5590
  635MOL0     H83761   8.939  11.754   2.187  0.1191 -0.2653  2.3441
  635MOL0     H83762   8.840  11.616   2.249 -1.1753 -1.7174 -1.0303
  635MOL0     H83763   8.862  11.746   1.986  1.0680 -0.5304 -1.6497
  635MOL0     H83764   8.795  11.586   1.979 -0.0448  2.2910 -1.6351
  635MOL0     H83765   8.642  11.659   2.182  0.6010  0.0336  0.2343
  635MOL0     H83766   8.585  11.682   2.014 -0.0013 -0.8834 -0.3289
  635MOL0     H83767   8.724  11.917   2.157 -1.7657  0.2125  2.4071
  635MOL0     H83768   8.550  11.894   2.150 -0.0691  0.3218  0.0978
  635MOL0     H83769   8.731  11.925   1.905  1.5765  3.9303  0.6063
  635MOL0     H83770   8.549  11.919   1.914  0.1218  3.6522 -1.4841
  635MOL0     H83771   8.648  12.121   1.874  2.6359  1.3575  0.7104
  635MOL0     H83772   8.726  12.132   2.039 -0.0389  0.8563  0.5516
  635MOL0     H83773   8.369  12.165   1.868 -1.7847 -0.4961  2.0842
  635MOL0     H83774   8.186  12.389   2.143  2.9811  0.8754  0.7201
  635MOL0     H83775   8.137  12.282   2.025 -0.0804  0.3647  2.7749
  635MOL0     H83776   8.226  12.420   1.850  1.9775  1.0239 -0.5747
  635MOL0     H83777   8.321  12.530   1.965 -1.0023  0.4197  1.8874
  635MOL0     H83778   8.012  12.510   1.940 -0.1389 -0.8496  2.5443
  635MOL0     H83779   8.114  12.613   2.044 -0.1768 -0.4956  0.1614
  635MOL0     H83780   8.086  12.603   1.734 -2.2318 -1.3506  0.3787
  635MOL0     H83781   8.210  12.697   1.825 -0.8196  0.5942  2.9870
  635MOL0     H83782   8.173  12.800   1.625 -0.1160 -0.2241  0.4437
  635MOL0     H83783   8.151  12.988   1.471 -1.1356  1.5090 -0.8357
  635MOL0     H83784   7.720  13.513   1.535  0.4338 -1.1868  1.4064
  635MOL0     H83785   7.740  13.749   1.479  0.1043  0.8074  2.1610
  635MOL0     H83786   7.761  13.879   1.309 -0.8976  1.6947  1.2083
  635MOL0     H83787   7.898  13.885   1.199  2.0961 -1.7086  1.4772
  635MOL0     H83788   7.852  14.102   1.188 -0.2888 -1.0629 -0.9719
  635MOL0     H83789   7.975  14.101   1.316  0.9669  2.2949 -3.0227
  635MOL0     H83790   7.677  14.069   1.368 -0.3465  1.6912 -2.4645
  635MOL0     H83791   7.729  14.225   1.337  1.9000  0.1837 -4.5564
  635MOL0     H83792   7.761  14.050   1.575  2.1519 -1.5453 -0.2321
  635MOL0     H83793   7.911  14.126   1.540  0.2268 -1.8847  2.6979
  635MOL0     H83794   7.755  14.255   1.703 -1.4187 -0.0355  0.1025
  635MOL0     H83795   7.637  14.280   1.575 -0.1836  0.7579 -1.9652
  635MOL0     H83796   7.843  14.399   1.450 -1.6673 -0.9662 -0.1491
  635MOL0     H83797   7.923  14.389   1.605  0.8511  3.2279  0.2634
  635MOL0     H83798   7.734  14.524   1.708  2.5006 -0.6223  0.2883
  635MOL0     H83799   7.861  14.591   1.593  1.2237 -2.9352 -2.9444
  635MOL0     H83800   7.620  14.678   1.576  1.7429  0.1376 -0.6604
  635MOL0     H83801   7.570  14.526   1.517 -1.0626  0.6374 -2.3496
  635MOL0     H83802   8.167  13.732   1.452 -0.2461 -0.7314 -0.3632
  635MOL0     H83803   8.155  13.493   1.521 -0.8364  0.4381  4.3576
  635MOL0     H83804   7.883  13.186   1.740 -1.5727 -0.7254 -0.7701
  635MOL0     H83805   7.905  12.987   1.893 -0.6507  0.5369 -0.0584
  635MOL0     H83806   8.749  11.234   2.239  3.6700  0.3816  0.9082
  635MOL0     H83807   8.714  10.981   2.227 -0.9650  0.4796 -0.0269
  635MOL0     H83808   8.633  10.587   1.759  0.2401  1.7235  0.6987
  635MOL0     H83809   8.594  10.347   1.803  0.7974  2.2083 -1.3080
  635MOL0     H83810   8.676  10.187   2.199 -1.8723  1.1691  1.7811
  635MOL0     H83811   8.601  10.047   2.122  2.2520  0.7354  0.2859
  635MOL0     H83812   8.457  10.108   2.308 -0.5440 -3.4993 -2.5499
  635MOL0     H83813   8.430  10.274   2.237 -2.5067  0.1836 -0.4487
  635MOL0     H83814   8.307  10.015   2.160  0.6745  0.7445  3.1297
  635MOL0     H83815   8.365  10.152   2.048  0.6057  0.8553  0.7183
  635MOL0     H83816   8.116  10.157   2.145  0.0572  0.6815 -2.9407
  635MOL0     H83817   8.200  10.227   2.285  0.4630  1.9532 -0.8988
  635MOL0     H83818   8.220  10.524   1.982  0.6535  0.2217  0.2538
  635MOL0     H83819   8.721  10.393   2.211  1.4613  3.2423  0.9409
  635MOL0     H83820   8.763  10.613   2.176 -3.4004  0.7854  1.4818
  636MOL0     O83821   8.762   2.592  10.273 -0.0378 -1.1050  0.0293
  636MOL0     C83822   8.708   2.667  10.353  0.7526 -0.7196  0.7096
  636MOL0     O83823   8.731   2.678  10.486 -0.8577  0.0560 -0.0780
  636MOL0     C83824   8.853   2.630  10.529  0.8390 -0.0560 -0.6685
  636MOL0     C83825   8.975   2.701  10.513  0.2344  0.1918  0.3919
  636MOL0     C83826   9.096   2.634  10.550  0.3314 -0.5785  0.1172
  636MOL0     C83827   9.092   2.503  10.596 -0.3770  1.3913 -0.3388
  636MOL0     O83828   9.204   2.441  10.637 -0.0631 -0.1647 -0.2122
  636MOL0     C83829   9.225   2.436  10.781  1.0342 -0.7085 -0.7223
  636MOL0     C83830   9.301   2.315  10.822 -0.4449 -0.4367  0.6512
  636MOL0     C83831   9.416   2.284  10.726 -0.2324 -1.2123 -0.2373
  636MOL0     C83832   9.501   2.183  10.790 -1.2038 -0.1274  0.5151
  636MOL0     C83833   9.598   2.113  10.684  0.6174 -0.1706  0.3084
  636MOL0     C83834   9.728   2.198  10.640  0.8395  0.6355  0.4662
  636MOL0     C83835   9.837   2.121  10.575 -0.9996  0.8353  0.1683
  636MOL0     C83836   9.895   2.013  10.655 -0.2668  0.7933  0.1994
  636MOL0     N83837  10.019   1.969  10.584  0.6460  0.2223 -0.1950
  636MOL0     C83838  10.019   1.886  10.478 -0.2034  0.5726 -0.7043
  636MOL0     C83839  10.145   1.895  10.428  0.4674 -0.0142 -0.8209
  636MOL0     C83840  10.183   1.828  10.299  0.3516 -0.7342  0.1265
  636MOL0     C83841  10.261   1.911  10.194  0.0416  0.0225  0.8566
  636MOL0     C83842  10.172   2.019  10.130 -0.1892  0.0746 -0.8337
  636MOL0     C83843  10.259   2.102  10.033 -0.3110  0.8059  0.7547
  636MOL0     O83844  10.271   2.030   9.912  0.1384 -0.5162  0.0997
  636MOL0     C83845  10.394   1.991   9.863 -0.3719  0.0368  0.7107
  636MOL0     C83846  10.389   1.919   9.747 -0.0921  0.5508  0.1941
  636MOL0     C83847  10.503   1.874   9.679 -0.4920 -0.3490  0.7909
  636MOL0     C83848  10.638   1.905   9.736 -0.1336  0.6377 -0.1498
  636MOL0     C83849  10.751   1.847   9.672  0.0568 -0.6780 -0.1942
  636MOL0     O83850  10.746   1.835   9.537  0.0852  0.2641  0.8003
  636MOL0     C83851  10.843   1.757   9.491  0.6028 -0.2432  0.3418
  636MOL0     C83852  10.974   1.816   9.477 -0.2860 -0.1471 -1.0947
  636MOL0     C83853  11.079   1.732   9.433 -0.5534  0.6553 -0.0910
  636MOL0     C83854  11.059   1.594   9.408  0.2331  0.5764  0.2952
  636MOL0     O83855  11.167   1.516   9.359  0.6647 -0.2008  0.4865
  636MOL0     C83856  11.157   1.400   9.283  0.0439 -0.7984  0.5557
  636MOL0     C83857  11.300   1.349   9.251 -0.1784  0.2406  0.3856
  636MOL0     C83858  11.296   1.213   9.178 -0.8146  1.0519  0.0089
  636MOL0     C83859  11.280   1.203   9.031  0.5115  0.7186 -0.1857
  636MOL0     C83860  11.236   1.068   8.984 -1.3704 -0.8279  0.1304
  636MOL0     C83861  11.215   1.069   8.829 -0.1972 -0.6034 -0.1055
  636MOL0     C83862  11.173   0.933   8.771  0.0474  0.2584  0.6517
  636MOL0     C83863  11.139   0.940   8.613  0.6358 -0.5225  0.1713
  636MOL0    Cl83864  11.276   1.016   8.526 -0.1303  0.1406  0.2489
  636MOL0     C83865  10.932   1.543   9.424  0.3219 -0.5855  0.5582
  636MOL0     C83866  10.826   1.625   9.458  0.6868  0.3057 -1.0914
  636MOL0     O83867  10.848   1.837   9.740 -0.4390 -0.1693 -0.2261
  636MOL0     C83868  10.640   1.970   9.862 -0.2661  0.4294  0.4522
  636MOL0     C83869  10.519   2.015   9.926 -0.2953  0.3560 -0.0282
  636MOL0     N83870  10.219   1.967  10.511  0.5787  0.6615  0.1545
  636MOL0     N83871  10.145   2.022  10.593  0.5867  0.2718  0.2181
  636MOL0     C83872   8.969   2.435  10.612  0.3094  0.2390 -0.6931
  636MOL0     C83873   8.852   2.497  10.577 -0.3853 -1.2900 -0.9186
  636MOL0     C83874   8.587   2.743  10.295  0.0441  0.7727  0.1025
  636MOL0     C83875   8.518   2.831  10.367  0.3760  0.7300 -0.2415
  636MOL0     C83876   8.414   2.908  10.307  0.2876 -0.9887 -0.9640
  636MOL0     C83877   8.381   2.893  10.168 -0.2062 -0.2108 -0.3115
  636MOL0     O83878   8.289   2.965  10.096 -0.0845 -0.0340 -0.6453
  636MOL0     C83879   8.223   3.073  10.176 -0.5506 -0.2698  0.2399
  636MOL0     C83880   8.115   3.138  10.093 -0.1113  0.0645  1.2747
  636MOL0     C83881   8.052   3.045   9.993  0.1992  0.2007 -0.0877
  636MOL0     C83882   7.916   3.104   9.949 -0.1957 -0.1315 -0.0783
  636MOL0     C83883   7.939   3.211   9.858  0.4541 -0.2033 -1.2031
  636MOL0     C83884   7.952   3.295   9.771  0.4668 -0.2494  0.5925
  636MOL0     C83885   8.458   2.801  10.097 -0.1336 -0.3611 -0.0934
  636MOL0     C83886   8.565   2.736  10.159 -0.2126  0.7142 -0.2767
  636MOL0     H83887   8.985   2.804  10.480 -0.6235  0.2121  0.1609
  636MOL0     H83888   9.192   2.685  10.552 -0.1036  0.3137  2.8868
  636MOL0     H83889   9.128   2.426  10.831 -0.0567  3.2906 -1.6400
  636MOL0     H83890   9.272   2.524  10.825  3.1448 -1.4244 -1.4234
  636MOL0     H83891   9.244   2.224  10.806  0.7002 -0.8536 -1.4363
  636MOL0     H83892   9.337   2.322  10.925  2.2237 -1.4861 -0.1224
  636MOL0     H83893   9.465   2.382  10.722 -2.8228  0.1727 -0.8362
  636MOL0     H83894   9.388   2.248  10.627 -0.3553 -1.5082 -0.0946
  636MOL0     H83895   9.563   2.229  10.868  0.8163 -2.6731  0.5381
  636MOL0     H83896   9.448   2.101  10.839  1.1024 -0.6689  2.3023
  636MOL0     H83897   9.543   2.068  10.602  0.4611 -3.3750  2.0005
  636MOL0     H83898   9.643   2.030  10.741 -1.1528  0.0207  2.1049
  636MOL0     H83899   9.761   2.256  10.727 -0.2898  1.6429  0.2411
  636MOL0     H83900   9.692   2.255  10.555 -0.6883 -3.3222 -1.8351
  636MOL0     H83901   9.804   2.069  10.484  2.4417 -1.0710 -0.1596
  636MOL0     H83902   9.921   2.186  10.550  0.1497 -0.4675  0.5169
  636MOL0     H83903   9.831   1.926  10.673  0.0862  0.0292 -1.9448
  636MOL0     H83904   9.927   2.051  10.752  2.9689  3.9446 -1.8437
  636MOL0     H83905   9.928   1.838  10.443  2.1229 -2.1453 -3.5669
  636MOL0     H83906  10.108   1.767  10.247  0.8592 -2.8460  1.7043
  636MOL0     H83907  10.262   1.753  10.313  1.1637 -0.1532 -1.1714
  636MOL0     H83908  10.303   1.848  10.115 -3.2229 -2.2222  0.7146
  636MOL0     H83909  10.350   1.945  10.249 -0.5438 -0.3030  2.0452
  636MOL0     H83910  10.090   1.965  10.081 -0.6183  2.7331 -3.3325
  636MOL0     H83911  10.137   2.077  10.216  4.5505 -0.4365  1.7564
  636MOL0     H83912  10.349   2.145  10.078  0.2285  2.2080 -1.5154
  636MOL0     H83913  10.204   2.188   9.993  0.0448  1.9081  2.5049
  636MOL0     H83914  10.292   1.884   9.713 -0.4725  1.8696 -0.1437
  636MOL0     H83915  10.495   1.817   9.587 -1.4181  3.0335 -1.3922
  636MOL0     H83916  10.981   1.921   9.504 -1.1072 -1.1714  4.1695
  636MOL0     H83917  11.176   1.771   9.404  0.1661  0.1797  1.5457
  636MOL0     H83918  11.088   1.409   9.198 -3.1262  2.3676  3.1122
  636MOL0     H83919  11.119   1.321   9.348  1.8067 -2.1076  0.0752
  636MOL0     H83920  11.342   1.321   9.348  2.6303 -1.4642 -1.1842
  636MOL0     H83921  11.379   1.413   9.211 -0.4112  0.6514  0.5889
  636MOL0     H83922  11.219   1.146   9.217 -0.2964  0.3377 -0.1674
  636MOL0     H83923  11.386   1.160   9.211 -0.8585  0.6819 -0.4540
  636MOL0     H83924  11.196   1.266   9.000  0.7539 -0.6119 -4.1187
  636MOL0     H83925  11.369   1.244   8.984  0.1826  0.6476 -0.8877
  636MOL0     H83926  11.147   1.025   9.031 -3.0045  0.5050 -1.5457
  636MOL0     H83927  11.318   1.000   9.007  2.3162  1.8328 -3.6633
  636MOL0     H83928  11.305   1.102   8.778 -1.5027  0.1518 -2.0289
  636MOL0     H83929  11.140   1.142   8.796 -0.5756 -0.5569  0.8183
  636MOL0     H83930  11.239   0.849   8.793 -2.8392 -2.8984 -1.6191
  636MOL0     H83931  11.081   0.906   8.824 -1.3513  1.9619 -0.7679
  636MOL0     H83932  11.043   0.991   8.598  1.1522  0.3202 -0.3655
  636MOL0     H83933  11.130   0.840   8.570  2.7284  0.0542 -1.8193
  636MOL0     H83934  10.925   1.437   9.402  0.4448 -0.4878  0.0251
  636MOL0     H83935  10.729   1.576   9.452  1.5609 -1.3967 -6.2896
  636MOL0     H83936  10.733   1.977   9.917  1.7599  0.8322 -2.7369
  636MOL0     H83937  10.532   2.049  10.028 -0.1827 -3.5185  1.4416
  636MOL0     H83938   8.972   2.331  10.640 -0.5749  0.2958 -0.3597
  636MOL0     H83939   8.766   2.432  10.571  0.1513 -2.0070 -0.9804
  636MOL0     H83940   8.548   2.862  10.466 -0.7910  3.6285 -0.6788
  636MOL0     H83941   8.362   2.979  10.370 -2.0826 -0.5791 -3.2148
  636MOL0     H83942   8.291   3.148  10.219 -0.2453 -0.5118  0.1851
  636MOL0     H83943   8.169   3.013  10.249  0.6615 -3.1253 -1.0214
  636MOL0     H83944   8.036   3.179  10.157  0.3878  2.5797  0.3956
  636MOL0     H83945   8.162   3.222  10.042  0.6244 -0.3376  1.2804
  636MOL0     H83946   8.030   2.951  10.044  2.8887 -0.7336 -0.4931
  636MOL0     H83947   8.113   3.023   9.905 -3.3457 -1.3242 -2.4431
  636MOL0     H83948   7.848   3.035   9.897 -2.4348  2.1907 -0.4504
  636MOL0     H83949   7.850   3.129  10.032  2.2408 -0.3940  2.0644
  636MOL0     H83950   7.950   3.360   9.686 -0.7598 -2.9101 -1.5724
  636MOL0     H83951   8.438   2.796   9.990 -1.3521  1.1340  0.0137
  636MOL0     H83952   8.626   2.674  10.094  1.4248  1.3804  0.5750
  637MOL0     O83953   6.518   6.997   3.030  0.1805 -0.4344  0.1286
  637MOL0     C83954   6.433   7.070   2.979 -0.2207  0.2523  0.9740
  637MOL0     O83955   6.304   7.097   3.024 -0.8251  0.2315  0.2820
  637MOL0     C83956   6.242   7.036   3.130 -0.2090  0.1832  0.3689
  637MOL0     C83957   6.096   7.051   3.127  0.6113 -0.7932 -0.1466
  637MOL0     C83958   6.014   6.977   3.201 -0.7933 -0.5833 -0.3383
  637MOL0     C83959   6.062   6.896   3.308 -0.5999 -0.5180  0.7188
  637MOL0     O83960   5.981   6.819   3.390 -0.5514 -0.1970 -0.3983
  637MOL0     C83961   5.841   6.849   3.395  0.2002  0.0997  0.5104
  637MOL0     C83962   5.763   6.766   3.507  0.2668  0.8085 -0.0411
  637MOL0     C83963   5.750   6.832   3.642 -0.4308 -0.1779  0.5381
  637MOL0     C83964   5.627   6.772   3.721 -0.9643  0.1837  0.7198
  637MOL0     C83965   5.618   6.804   3.871  0.7847  0.3488  0.0968
  637MOL0     C83966   5.736   6.753   3.951 -0.0332  0.7385  0.3508
  637MOL0     C83967   5.797   6.864   4.029 -0.5198 -0.0984  0.3023
  637MOL0     C83968   5.921   6.813   4.116  0.6478 -0.1608 -0.4132
  637MOL0     N83969   6.007   6.932   4.137  0.8058  1.0562 -0.3223
  637MOL0     C83970   5.972   7.063   4.164 -0.0301  0.2521 -0.1316
  637MOL0     C83971   6.085   7.126   4.201 -0.8281 -0.0774 -0.0516
  637MOL0     C83972   6.108   7.260   4.259 -0.1781 -0.9559 -0.8446
  637MOL0     C83973   6.072   7.264   4.407 -0.4462 -0.4624 -0.0398
  637MOL0     C83974   6.143   7.171   4.518  0.8940  0.3731 -0.3510
  637MOL0     C83975   6.092   7.205   4.663  0.5185 -0.7603  0.0144
  637MOL0     O83976   6.121   7.105   4.760  0.6069  0.4675 -1.3230
  637MOL0     C83977   6.144   7.150   4.891 -1.0073 -0.0017 -0.3258
  637MOL0     C83978   6.252   7.108   4.960  0.7705  0.1488 -0.5783
  637MOL0     C83979   6.262   7.140   5.097 -0.6467  1.0355  0.7167
  637MOL0     C83980   6.177   7.238   5.150 -0.7995 -0.1728 -1.6009
  637MOL0     C83981   6.192   7.290   5.284 -1.1846 -0.0586  0.2325
  637MOL0     O83982   6.092   7.368   5.337  0.2549 -0.3032 -0.6193
  637MOL0     C83983   6.088   7.402   5.471 -1.2620 -0.6680  0.1651
  637MOL0     C83984   6.128   7.307   5.572  0.9659 -0.6404  0.5903
  637MOL0     C83985   6.107   7.350   5.709 -0.2082 -0.8678 -0.7026
  637MOL0     C83986   6.049   7.479   5.745 -0.7822  0.2247  0.5311
  637MOL0     O83987   6.056   7.532   5.874  0.5498 -0.2675 -0.1808
  637MOL0     C83988   5.945   7.480   5.959 -0.4358  0.7659 -1.3136
  637MOL0     C83989   5.996   7.481   6.108  0.9186 -0.1282 -0.2034
  637MOL0     C83990   5.880   7.506   6.216 -0.0316  0.2842  0.1455
  637MOL0     C83991   5.942   7.534   6.354 -0.5228  0.2791 -0.0578
  637MOL0     C83992   5.833   7.573   6.460 -0.1937 -0.0564  0.0647
  637MOL0     C83993   5.898   7.601   6.597  0.5586 -0.0748  0.0472
  637MOL0     C83994   5.779   7.651   6.698  0.4181 -0.0013  0.2680
  637MOL0     C83995   5.825   7.765   6.800  0.2381  0.1067 -0.1451
  637MOL0    Cl83996   5.900   7.907   6.715  0.1328  0.1995 -0.1937
  637MOL0     C83997   6.034   7.566   5.639  0.4811 -0.0654 -0.0557
  637MOL0     C83998   6.044   7.526   5.504  0.1983  0.1438 -0.1456
  637MOL0     O83999   6.286   7.240   5.348 -0.3011 -0.7664  0.8597
  637MOL0     C84000   6.088   7.299   5.075  0.1274 -0.2450 -0.3097
  637MOL0     C84001   6.056   7.242   4.950 -0.3655  0.5773  0.4868
  637MOL0     N84002   6.188   7.038   4.170  0.1602 -0.2563  0.8372
  637MOL0     N84003   6.142   6.923   4.137 -0.3352  0.6431  0.5244
  637MOL0     C84004   6.201   6.874   3.314 -0.0190 -0.8308  0.5147
  637MOL0     C84005   6.294   6.956   3.237  0.3709 -0.3267 -0.7611
  637MOL0     C84006   6.468   7.135   2.847 -0.2466  0.7930  0.6093
  637MOL0     C84007   6.374   7.203   2.760  0.1171  0.4793 -0.3761
  637MOL0     C84008   6.425   7.272   2.645  0.0229  0.7715 -0.1712
  637MOL0     C84009   6.560   7.260   2.605 -0.3317 -0.3773  0.8696
  637MOL0     O84010   6.577   7.329   2.485 -0.0333 -0.0876 -0.8652
  637MOL0     C84011   6.712   7.361   2.441  0.0886 -0.8108  0.2796
  637MOL0     C84012   6.709   7.492   2.367 -0.3216 -0.8066  0.5398
  637MOL0     C84013   6.844   7.533   2.297 -0.0877  0.1691  0.3922
  637MOL0     C84014   6.965   7.546   2.395 -0.3660 -1.0600  0.0091
  637MOL0     C84015   7.095   7.578   2.327  0.6967 -0.0256 -0.0205
  637MOL0     C84016   7.202   7.604   2.271  0.6307 -0.9466 -0.8840
  637MOL0     C84017   6.648   7.185   2.681  0.0495 -0.3269 -0.1275
  637MOL0     C84018   6.601   7.122   2.792  0.4242  0.4978  0.3478
  637MOL0     H84019   6.059   7.119   3.050  1.7720  0.5204  0.4306
  637MOL0     H84020   5.913   6.963   3.162 -0.4519 -2.8787 -0.5081
  637MOL0     H84021   5.805   6.822   3.295  0.7247  5.0583 -1.2780
  637MOL0     H84022   5.826   6.956   3.410  3.8667  0.7376  0.4288
  637MOL0     H84023   5.814   6.670   3.520  0.1259  1.0991  4.5673
  637MOL0     H84024   5.659   6.747   3.479 -0.3973 -0.4078  2.7939
  637MOL0     H84025   5.721   6.937   3.630  2.9807  0.8420 -0.0520
  637MOL0     H84026   5.847   6.830   3.693  1.6541  0.0983 -3.0680
  637MOL0     H84027   5.536   6.815   3.677 -0.0390  3.7324  1.9115
  637MOL0     H84028   5.634   6.665   3.698 -1.2297  0.2383  0.3680
  637MOL0     H84029   5.530   6.750   3.906 -1.7357  2.6492 -2.1643
  637MOL0     H84030   5.606   6.913   3.878  3.7563  0.9018 -1.4493
  637MOL0     H84031   5.807   6.698   3.889 -1.5125 -3.5470  2.1060
  637MOL0     H84032   5.703   6.675   4.020 -2.2261 -0.6870 -2.1543
  637MOL0     H84033   5.840   6.928   3.952  0.3041 -1.6754 -0.5933
  637MOL0     H84034   5.726   6.918   4.093  1.4724  2.4933  0.5201
  637MOL0     H84035   5.976   6.726   4.080  0.0757 -0.6752 -0.0738
  637MOL0     H84036   5.886   6.770   4.211  0.3909 -0.0210 -0.4419
  637MOL0     H84037   5.867   7.087   4.164 -0.3979 -1.2643  0.2300
  637MOL0     H84038   6.066   7.335   4.192  2.8777  1.2210 -0.5101
  637MOL0     H84039   6.217   7.271   4.255 -0.2121 -0.8391 -3.9520
  637MOL0     H84040   5.963   7.260   4.414 -0.3197 -1.2164  2.5555
  637MOL0     H84041   6.096   7.363   4.447  1.2563 -1.2758  1.0966
  637MOL0     H84042   6.124   7.064   4.504  0.3796  0.3051  0.7228
  637MOL0     H84043   6.251   7.183   4.519  0.6955  3.2919  2.8926
  637MOL0     H84044   5.983   7.201   4.662  0.2435  2.4499  1.8430
  637MOL0     H84045   6.117   7.308   4.691 -2.1067 -0.7008  2.6349
  637MOL0     H84046   6.316   7.032   4.918  2.3572  0.2873  1.4191
  637MOL0     H84047   6.348   7.102   5.152 -0.2277  0.0310 -0.5931
  637MOL0     H84048   6.150   7.204   5.547  0.3640  0.1569 -4.0580
  637MOL0     H84049   6.125   7.274   5.784 -2.7001  2.0626  3.3242
  637MOL0     H84050   5.907   7.380   5.934 -3.5706  1.1362  1.3611
  637MOL0     H84051   5.867   7.555   5.950  0.9887  2.1374 -2.9575
  637MOL0     H84052   6.062   7.568   6.112 -0.4933  0.9839 -0.2768
  637MOL0     H84053   6.071   7.405   6.131  3.2617  1.6496 -1.5199
  637MOL0     H84054   5.810   7.422   6.219  0.8261 -0.4130  2.0368
  637MOL0     H84055   5.832   7.594   6.173  0.6021 -0.1394 -1.5333
  637MOL0     H84056   5.995   7.443   6.382 -1.6727 -0.7052 -0.9788
  637MOL0     H84057   6.022   7.607   6.337  1.1795 -1.9206 -2.3480
  637MOL0     H84058   5.767   7.487   6.474 -0.8946  0.1011 -2.0108
  637MOL0     H84059   5.786   7.660   6.416 -2.1146 -0.6661  0.8104
  637MOL0     H84060   5.975   7.678   6.593  1.3073 -0.7391  1.0989
  637MOL0     H84061   5.948   7.511   6.634  1.5785 -0.1892 -1.5296
  637MOL0     H84062   5.703   7.692   6.630 -1.2146 -0.4160  1.7776
  637MOL0     H84063   5.740   7.564   6.751 -0.6071 -0.4356 -1.1294
  637MOL0     H84064   5.909   7.734   6.863  0.5432  0.2733 -0.4675
  637MOL0     H84065   5.738   7.773   6.865 -0.0940  0.8538 -0.6738
  637MOL0     H84066   6.018   7.671   5.661  1.1142  0.4933 -1.9888
  637MOL0     H84067   6.015   7.592   5.423  0.0368  0.9932  0.5804
  637MOL0     H84068   6.026   7.380   5.111 -0.6880 -0.2804 -1.5783
  637MOL0     H84069   5.986   7.282   4.877  0.5838  1.1613 -0.1172
  637MOL0     H84070   6.236   6.801   3.387 -0.3536  0.7059  2.3178
  637MOL0     H84071   6.400   6.933   3.246  0.2618 -1.2805 -1.7227
  637MOL0     H84072   6.267   7.192   2.778  0.3278 -2.6544 -0.4729
  637MOL0     H84073   6.363   7.321   2.571 -0.4153  1.8085  0.8490
  637MOL0     H84074   6.746   7.282   2.373  0.3337 -0.5460  0.0945
  637MOL0     H84075   6.787   7.357   2.522 -0.8052  1.2031  1.2812
  637MOL0     H84076   6.631   7.490   2.291  1.3814  0.8309 -1.3713
  637MOL0     H84077   6.676   7.568   2.439 -0.9406 -1.1155  0.5824
  637MOL0     H84078   6.820   7.628   2.249 -1.7467  0.1269  1.0964
  637MOL0     H84079   6.859   7.466   2.211  1.7053  0.6213  0.3064
  637MOL0     H84080   6.940   7.614   2.476  0.5408  0.1126 -0.6623
  637MOL0     H84081   6.985   7.450   2.442  2.1718 -0.8190 -0.3966
  637MOL0     H84082   7.296   7.625   2.225  1.4514 -1.5868  0.4415
  637MOL0     H84083   6.751   7.167   2.651  0.8006 -2.6581  3.2364
  637MOL0     H84084   6.670   7.062   2.851 -0.5652  0.7735  1.8079
  638MOL0     O84085   7.860   0.844   4.857  0.2576 -0.2007  0.6018
  638MOL0     C84086   7.749   0.862   4.817  0.2158 -1.6361  0.9018
  638MOL0     O84087   7.718   0.924   4.700  0.3067 -0.4475  0.0650
  638MOL0     C84088   7.817   0.929   4.609  0.3250  0.6065  1.2647
  638MOL0     C84089   7.893   1.042   4.589  0.0065 -1.2120  0.0942
  638MOL0     C84090   7.988   1.059   4.493  0.7363  0.0981  0.3507
  638MOL0     C84091   8.025   0.952   4.412 -0.8950  0.1227 -0.1312
  638MOL0     O84092   8.141   0.972   4.343 -0.4138  0.1376 -0.0770
  638MOL0     C84093   8.173   0.875   4.238 -0.2079 -1.0508  0.4454
  638MOL0     C84094   8.325   0.880   4.208  0.9542 -0.7906 -0.4259
  638MOL0     C84095   8.363   0.759   4.116  0.2110 -0.2191 -0.6473
  638MOL0     C84096   8.519   0.751   4.112 -0.4535  0.6859 -0.3472
  638MOL0     C84097   8.601   0.710   4.242  0.7161  0.1753  0.8221
  638MOL0     C84098   8.547   0.589   4.291  0.0888 -0.7397 -0.9403
  638MOL0     C84099   8.642   0.515   4.387 -0.8426 -0.0655 -0.2245
  638MOL0     C84100   8.710   0.384   4.336  0.6708  0.7250 -0.1799
  638MOL0     N84101   8.799   0.402   4.226 -0.5024  0.2469  0.1163
  638MOL0     C84102   8.932   0.373   4.233  0.4261  0.1280  0.0037
  638MOL0     C84103   8.975   0.359   4.104  0.6309 -1.2242 -0.4047
  638MOL0     C84104   9.124   0.339   4.068 -0.4114  0.2539  0.5145
  638MOL0     C84105   9.174   0.203   4.133  0.5071  0.2523  0.2426
  638MOL0     C84106   9.311   0.172   4.080 -0.7808  0.2004 -0.4553
  638MOL0     C84107   9.434   0.206   4.167 -0.8164  0.3203 -0.1850
  638MOL0     O84108   9.436   0.348   4.183  0.4412 -0.4773 -0.1293
  638MOL0     C84109   9.561   0.403   4.208  0.4592  0.7082 -0.3553
  638MOL0     C84110   9.597   0.518   4.139 -0.5015  0.4144  0.1831
  638MOL0     C84111   9.724   0.567   4.156  0.6539 -1.3875 -0.3398
  638MOL0     C84112   9.830   0.502   4.233 -0.3850 -0.4791  1.0699
  638MOL0     C84113   9.960   0.575   4.239 -0.8287 -0.0724 -0.0019
  638MOL0     O84114   9.966   0.703   4.199 -0.3473 -0.5761 -0.0991
  638MOL0     C84115  10.074   0.782   4.222 -0.3754 -0.5584  0.5219
  638MOL0     C84116  10.039   0.923   4.223  0.5489 -0.6739 -0.6439
  638MOL0     C84117  10.146   1.018   4.219  0.0508 -0.2513 -0.3482
  638MOL0     C84118  10.271   0.974   4.206 -0.6890 -0.1888 -0.8481
  638MOL0     O84119  10.379   1.064   4.172  0.3677  0.8043 -0.7197
  638MOL0     C84120  10.355   1.205   4.188  0.4003 -0.4452  1.7018
  638MOL0     C84121  10.488   1.263   4.139  0.4285 -0.1282 -0.5525
  638MOL0     C84122  10.602   1.240   4.246 -0.1020 -0.1097 -0.7756
  638MOL0     C84123  10.736   1.304   4.200  0.5365 -0.2924  0.2391
  638MOL0     C84124  10.833   1.355   4.310  0.0312 -0.3223  0.2091
  638MOL0     C84125  10.817   1.503   4.339 -0.0656 -0.8289 -0.7881
  638MOL0     C84126  10.880   1.604   4.250 -0.1129 -0.1919  0.0436
  638MOL0     C84127  11.030   1.596   4.215  0.5823 -0.3934 -0.8753
  638MOL0    Cl84128  11.078   1.709   4.088 -0.0624 -0.4540 -0.2860
  638MOL0     C84129  10.313   0.835   4.214  0.3084 -0.8773  0.4677
  638MOL0     C84130  10.210   0.742   4.218 -0.0055 -0.1663  0.6526
  638MOL0     O84131  10.050   0.508   4.293  0.0104  0.4872  0.0792
  638MOL0     C84132   9.789   0.387   4.295  1.6433  0.7688 -0.1968
  638MOL0     C84133   9.657   0.333   4.284  0.0801 -0.1365 -0.2506
  638MOL0     N84134   8.878   0.393   4.018 -0.7242 -0.1125  0.1313
  638MOL0     N84135   8.776   0.421   4.093 -0.7337  0.2145  1.4265
  638MOL0     C84136   7.953   0.832   4.429 -0.2636 -0.4785  0.3785
  638MOL0     C84137   7.845   0.823   4.524 -0.4135 -0.3663  0.1220
  638MOL0     C84138   7.644   0.818   4.908  0.0191 -0.2931  0.8761
  638MOL0     C84139   7.670   0.767   5.036  0.5633  0.0052  0.8201
  638MOL0     C84140   7.566   0.725   5.118 -1.0701  0.4882 -0.2910
  638MOL0     C84141   7.429   0.737   5.073 -0.9749  0.4619 -0.0589
  638MOL0     O84142   7.325   0.692   5.149  0.6264 -0.2578 -0.5354
  638MOL0     C84143   7.338   0.614   5.264  0.3827 -0.5251 -0.7865
  638MOL0     C84144   7.213   0.523   5.269 -0.6688 -0.2161  0.3212
  638MOL0     C84145   7.216   0.410   5.374 -0.4253 -0.7286  0.5615
  638MOL0     C84146   7.083   0.345   5.375 -0.3801 -0.1330 -0.1411
  638MOL0     C84147   7.091   0.240   5.481 -0.2075 -1.0206 -0.4455
  638MOL0     C84148   7.098   0.155   5.572  0.2944 -0.6733  0.5399
  638MOL0     C84149   7.405   0.794   4.957  0.0355 -0.0168  0.0875
  638MOL0     C84150   7.513   0.838   4.866  0.8732 -0.3458 -0.1763
  638MOL0     H84151   7.878   1.119   4.663  1.5171 -1.3079  0.5371
  638MOL0     H84152   8.046   1.147   4.468  2.2931 -1.6559 -2.7886
  638MOL0     H84153   8.115   0.891   4.147  0.2676 -0.5272  0.2228
  638MOL0     H84154   8.160   0.777   4.284  2.1695 -0.9548  1.5126
  638MOL0     H84155   8.375   0.892   4.305 -3.4336  1.9435  1.8752
  638MOL0     H84156   8.342   0.978   4.162  0.0647 -0.8675 -0.9592
  638MOL0     H84157   8.325   0.766   4.014 -1.5522  0.4812  0.0302
  638MOL0     H84158   8.308   0.676   4.160 -2.0623  1.6383  0.2133
  638MOL0     H84159   8.535   0.678   4.032 -0.4958  0.7853 -0.4474
  638MOL0     H84160   8.563   0.848   4.089 -1.4390  1.8079  2.1959
  638MOL0     H84161   8.579   0.799   4.302  1.2222  1.2663 -0.5503
  638MOL0     H84162   8.707   0.706   4.219  0.7386 -0.6424  1.0385
  638MOL0     H84163   8.516   0.530   4.204  0.8972 -0.3477 -1.5095
  638MOL0     H84164   8.451   0.610   4.340  0.5005  0.1248 -0.4887
  638MOL0     H84165   8.715   0.586   4.426 -1.7686  0.1374  1.1888
  638MOL0     H84166   8.593   0.481   4.479 -2.1786  1.6666 -0.2589
  638MOL0     H84167   8.635   0.318   4.292  4.4527 -3.1109 -1.6082
  638MOL0     H84168   8.765   0.329   4.412 -2.5990 -2.0231  0.4244
  638MOL0     H84169   8.981   0.345   4.326 -0.2977  0.6817  0.5626
  638MOL0     H84170   9.186   0.421   4.104  1.4449 -0.9057  0.0563
  638MOL0     H84171   9.132   0.333   3.959  1.5576  0.2555  0.6350
  638MOL0     H84172   9.101   0.128   4.101 -0.0094 -0.2777  2.4721
  638MOL0     H84173   9.163   0.220   4.241  1.7181  2.9324  0.0102
  638MOL0     H84174   9.321   0.067   4.053 -0.7049  0.5759 -1.9759
  638MOL0     H84175   9.322   0.234   3.990 -0.0561  2.2855  1.0078
  638MOL0     H84176   9.524   0.173   4.115  0.3153 -0.7240  2.2816
  638MOL0     H84177   9.439   0.160   4.267 -0.2884  1.4099  0.3070
  638MOL0     H84178   9.524   0.566   4.074 -1.9005 -1.5387  0.2145
  638MOL0     H84179   9.754   0.644   4.086 -3.0056  0.3843 -0.1695
  638MOL0     H84180   9.942   0.973   4.227  1.4819  1.1260  1.1793
  638MOL0     H84181  10.116   1.123   4.213 -0.6898 -0.4933 -1.0189
  638MOL0     H84182  10.320   1.249   4.282  1.4878  0.4970  1.6913
  638MOL0     H84183  10.282   1.242   4.116  0.0846 -1.6730  1.3652
  638MOL0     H84184  10.477   1.372   4.135  0.4425 -0.1694 -2.2774
  638MOL0     H84185  10.521   1.211   4.049 -0.4182 -0.7165 -0.5336
  638MOL0     H84186  10.615   1.139   4.285 -1.3235  0.8284  2.3364
  638MOL0     H84187  10.566   1.307   4.324 -0.7538 -2.2749  0.8553
  638MOL0     H84188  10.779   1.242   4.121  0.3645  1.5270 -1.3837
  638MOL0     H84189  10.705   1.391   4.141  4.0073  0.4768 -0.6666
  638MOL0     H84190  10.934   1.322   4.285 -0.8394 -3.7801  0.7435
  638MOL0     H84191  10.797   1.313   4.404  1.1581 -1.8899 -0.0324
  638MOL0     H84192  10.860   1.520   4.439 -0.2084  0.1735 -0.8874
  638MOL0     H84193  10.710   1.520   4.354 -0.4572 -1.8737 -2.2133
  638MOL0     H84194  10.830   1.611   4.153 -1.2625  0.7825  0.6783
  638MOL0     H84195  10.873   1.695   4.311 -2.0778  0.6874 -1.4001
  638MOL0     H84196  11.068   1.496   4.193 -3.2136 -2.9839  2.8049
  638MOL0     H84197  11.085   1.639   4.299  2.1558 -2.8229 -0.5833
  638MOL0     H84198  10.414   0.802   4.192  0.1144 -0.8262 -0.5153
  638MOL0     H84199  10.238   0.637   4.216 -2.6914 -0.9704  1.1240
  638MOL0     H84200   9.858   0.326   4.352 -0.3576 -2.5616 -1.0201
  638MOL0     H84201   9.653   0.237   4.334  1.7667 -0.1654 -0.1095
  638MOL0     H84202   7.969   0.740   4.375 -0.0019 -0.3060  0.1621
  638MOL0     H84203   7.785   0.734   4.539  1.0421 -1.3108  0.5218
  638MOL0     H84204   7.772   0.751   5.068  0.3498 -2.9296  0.3562
  638MOL0     H84205   7.594   0.679   5.212 -2.0533 -1.2063 -0.7868
  638MOL0     H84206   7.344   0.669   5.358  3.0633 -3.4498  0.9405
  638MOL0     H84207   7.430   0.556   5.253  0.3933 -0.4038 -1.3603
  638MOL0     H84208   7.131   0.590   5.297  0.7464  0.7261  2.4594
  638MOL0     H84209   7.200   0.473   5.173  0.0814 -0.7363  0.4759
  638MOL0     H84210   7.246   0.457   5.468  0.2506  2.3412 -1.0606
  638MOL0     H84211   7.297   0.338   5.361 -1.0497 -1.7425  1.9702
  638MOL0     H84212   7.006   0.421   5.388  0.8317  0.9454  0.9596
  638MOL0     H84213   7.058   0.298   5.279 -0.7601  1.2699 -0.7557
  638MOL0     H84214   7.097   0.066   5.632  2.5847 -2.0084 -1.2751
  638MOL0     H84215   7.306   0.788   4.912  0.6704 -0.4844 -1.3245
  638MOL0     H84216   7.477   0.877   4.771 -3.1423  2.3917  2.1392
  639MOL0     O84217   4.463   5.025  10.961 -0.4030  0.9762 -0.0496
  639MOL0     C84218   4.525   4.946  10.889  0.0757 -0.0055 -0.9423
  639MOL0     O84219   4.470   4.864  10.797 -0.3234 -0.0515  0.5865
  639MOL0     C84220   4.332   4.870  10.782 -0.1987 -0.4330 -0.4678
  639MOL0     C84221   4.261   4.748  10.779 -0.3907  0.3157 -0.3459
  639MOL0     C84222   4.124   4.750  10.775  0.7562 -1.1156  0.9936
  639MOL0     C84223   4.043   4.861  10.770  0.1201 -0.2637 -0.1087
  639MOL0     O84224   3.910   4.834  10.764 -0.7240 -0.0774  0.2191
  639MOL0     C84225   3.811   4.931  10.776 -0.1584 -1.0493 -0.5627
  639MOL0     C84226   3.819   4.995  10.915 -0.6196 -0.3014 -0.4972
  639MOL0     C84227   3.741   5.135  10.912 -0.1071  0.3418 -0.6794
  639MOL0     C84228   3.732   5.170  11.061 -0.3926  0.3650  0.2394
  639MOL0     C84229   3.675   5.312  11.073  0.4857  0.1344  0.1929
  639MOL0     C84230   3.636   5.339  11.218  0.9031 -0.1641 -1.2635
  639MOL0     C84231   3.500   5.280  11.275 -0.6416  0.3099 -1.2218
  639MOL0     C84232   3.504   5.262  11.433  0.0127 -0.4486  0.4465
  639MOL0     N84233   3.462   5.380  11.505 -0.0370  0.4918 -0.1692
  639MOL0     C84234   3.540   5.469  11.563  0.4665 -0.6030 -0.2757
  639MOL0     C84235   3.453   5.550  11.630 -0.5136 -0.4270 -0.6473
  639MOL0     C84236   3.497   5.669  11.715  0.0315 -1.0263 -0.2273
  639MOL0     C84237   3.390   5.777  11.761  0.1687 -0.7623 -0.2252
  639MOL0     C84238   3.317   5.851  11.651  0.5210 -0.5897 -0.3848
  639MOL0     C84239   3.213   5.947  11.706 -0.3076 -0.3725  0.1872
  639MOL0     O84240   3.265   6.054  11.783  0.9203  0.5699  0.3696
  639MOL0     C84241   3.176   6.142  11.842  0.1090 -0.0223  0.2197
  639MOL0     C84242   3.041   6.123  11.872  0.1957  0.1406 -0.6366
  639MOL0     C84243   2.973   6.212  11.952 -0.6798 -0.2523  0.5257
  639MOL0     C84244   3.034   6.326  12.002 -0.0337 -1.0525 -0.1104
  639MOL0     C84245   2.957   6.421  12.095 -0.8904  0.1808  0.2119
  639MOL0     O84246   3.050   6.491  12.165 -0.5978 -0.1217 -0.3255
  639MOL0     C84247   3.012   6.577  12.262  1.2224 -0.2591  0.7805
  639MOL0     C84248   2.934   6.530  12.368 -0.1259  0.9322 -0.0343
  639MOL0     C84249   2.872   6.613  12.458  0.5847 -0.5732 -0.0367
  639MOL0     C84250   2.873   6.753  12.428 -1.2443 -0.2543  0.6742
  639MOL0     O84251   2.800   6.838  12.499 -0.7531  0.3307  0.3467
  639MOL0     C84252   2.659   6.826  12.475  0.6232  0.8601 -1.1885
  639MOL0     C84253   2.603   6.923  12.581  0.0666 -0.4499  0.0620
  639MOL0     C84254   2.617   7.067  12.535 -0.0541  0.8048  0.9485
  639MOL0     C84255   2.588   7.164  12.639 -0.9287  0.2368 -0.1467
  639MOL0     C84256   2.451   7.174  12.698 -0.3976  0.1075 -0.6747
  639MOL0     C84257   2.345   7.212  12.595  0.1406 -0.6620 -0.4108
  639MOL0     C84258   2.237   7.303  12.669 -0.8429  0.9265  0.0575
  639MOL0     C84259   2.151   7.380  12.574 -0.5810 -0.1130  0.0727
  639MOL0    Cl84260   2.039   7.483  12.662 -0.4184  0.4437  0.0638
  639MOL0     C84261   2.955   6.805  12.326  0.9922  0.6194  0.0195
  639MOL0     C84262   3.016   6.714  12.236  0.6457  0.6394  0.8228
  639MOL0     O84263   2.840   6.434  12.090  0.5220  0.2284  0.2818
  639MOL0     C84264   3.169   6.353  11.969  0.7050 -0.2693  1.0101
  639MOL0     C84265   3.231   6.263  11.876 -0.4948  0.9553 -0.1723
  639MOL0     N84266   3.324   5.516  11.604 -0.1455 -0.1264 -0.1089
  639MOL0     N84267   3.332   5.412  11.527 -0.4888  0.4277  0.5881
  639MOL0     C84268   4.110   4.988  10.775 -0.2981 -0.0886  0.4058
  639MOL0     C84269   4.258   4.989  10.766 -0.3546  1.2795 -0.6963
  639MOL0     C84270   4.671   4.929  10.909 -0.2282 -0.1365 -0.8796
  639MOL0     C84271   4.741   4.990  11.012  0.0609 -0.0801 -1.0788
  639MOL0     C84272   4.870   4.959  11.047 -0.6260  0.1678 -0.0426
  639MOL0     C84273   4.948   4.870  10.972 -0.3496 -0.0590  0.4188
  639MOL0     O84274   5.071   4.841  11.016 -0.5646  0.5401  0.4501
  639MOL0     C84275   5.148   4.740  10.948 -0.1469  1.0265  0.2972
  639MOL0     C84276   5.274   4.714  11.030  0.3957  0.5789 -0.1111
  639MOL0     C84277   5.234   4.666  11.174 -0.2447  0.5256 -0.3738
  639MOL0     C84278   5.349   4.584  11.237 -0.1552  0.2983 -0.1086
  639MOL0     C84279   5.312   4.541  11.368  0.4231  0.6557  0.0071
  639MOL0     C84280   5.265   4.489  11.473 -0.0190  0.5755  0.5958
  639MOL0     C84281   4.881   4.804  10.861 -0.2504  0.0234 -0.6729
  639MOL0     C84282   4.748   4.843  10.826 -0.1393  0.1574 -0.4215
  639MOL0     H84283   4.315   4.655  10.763  2.9114  2.3576 -2.2648
  639MOL0     H84284   4.077   4.653  10.783 -0.2434 -0.5204  2.8243
  639MOL0     H84285   3.714   4.880  10.765 -2.8457  3.5037 -0.3521
  639MOL0     H84286   3.816   5.004  10.695  1.1469 -1.7888 -1.1830
  639MOL0     H84287   3.919   5.018  10.953 -1.3411  5.0890 -1.1539
  639MOL0     H84288   3.763   4.924  10.977 -2.9659 -2.0862 -4.3323
  639MOL0     H84289   3.641   5.134  10.868  0.6112  0.8162 -2.3843
  639MOL0     H84290   3.793   5.197  10.838 -1.5644 -0.1252 -2.1570
  639MOL0     H84291   3.677   5.091  11.114  2.2914 -2.0235 -0.2603
  639MOL0     H84292   3.835   5.179  11.096 -0.6804 -1.0966  1.5708
  639MOL0     H84293   3.589   5.322  11.006 -0.7079 -0.9502  1.5075
  639MOL0     H84294   3.758   5.381  11.053 -0.7368  1.2878 -1.1917
  639MOL0     H84295   3.626   5.448  11.222  0.4728 -0.2079 -1.0688
  639MOL0     H84296   3.722   5.327  11.285 -0.5412  4.5092  1.9755
  639MOL0     H84297   3.409   5.327  11.236 -0.1997  2.3674  0.0555
  639MOL0     H84298   3.502   5.177  11.239 -0.8163  0.5721 -2.0214
  639MOL0     H84299   3.607   5.242  11.461 -0.7613 -2.7171  1.9012
  639MOL0     H84300   3.431   5.184  11.458 -3.6659  1.3637 -3.2473
  639MOL0     H84301   3.648   5.462  11.547  0.5557  0.5553 -0.2480
  639MOL0     H84302   3.580   5.716  11.662 -0.1629 -2.0650 -1.5259
  639MOL0     H84303   3.536   5.622  11.805 -2.7956 -1.3696  0.9291
  639MOL0     H84304   3.436   5.857  11.821 -0.3792  1.7301 -2.9012
  639MOL0     H84305   3.322   5.722  11.827 -3.0130 -1.0041 -3.4313
  639MOL0     H84306   3.388   5.904  11.587  2.3949 -0.4477  1.7212
  639MOL0     H84307   3.257   5.780  11.594  0.5891 -2.1634  1.4300
  639MOL0     H84308   3.157   5.878  11.769 -0.9181  0.6910  0.8222
  639MOL0     H84309   3.158   5.988  11.621  1.4433 -0.8582 -1.2539
  639MOL0     H84310   2.988   6.038  11.832 -0.2230  0.3689 -0.5815
  639MOL0     H84311   2.869   6.189  11.968 -0.5415 -3.1460 -1.8686
  639MOL0     H84312   2.928   6.423  12.382  4.1268  0.3122 -1.5839
  639MOL0     H84313   2.805   6.594  12.541 -3.6817 -0.9751 -3.2492
  639MOL0     H84314   2.635   6.724  12.507  0.0138  0.9799 -1.2456
  639MOL0     H84315   2.626   6.852  12.374  1.0672 -1.2810 -1.9431
  639MOL0     H84316   2.661   6.905  12.672 -0.7834 -0.8507  0.5440
  639MOL0     H84317   2.495   6.909  12.598 -0.4071  2.6184  0.0585
  639MOL0     H84318   2.561   7.090  12.444  1.4427 -0.7719 -0.4343
  639MOL0     H84319   2.724   7.063  12.512 -0.0384 -2.6140  1.0449
  639MOL0     H84320   2.656   7.131  12.718  0.0298 -0.0176 -1.0649
  639MOL0     H84321   2.620   7.264  12.608  1.1393  0.6533  2.8800
  639MOL0     H84322   2.441   7.228  12.792  0.5183  3.0180 -2.1198
  639MOL0     H84323   2.419   7.076  12.733 -2.1525 -0.0370 -2.4546
  639MOL0     H84324   2.304   7.124  12.544  1.3486  1.0066 -4.7519
  639MOL0     H84325   2.398   7.261  12.513 -0.0987 -0.3469 -0.3800
  639MOL0     H84326   2.179   7.245  12.741  1.4551  1.3257  2.3516
  639MOL0     H84327   2.280   7.384  12.728 -0.7507  2.0962 -1.5311
  639MOL0     H84328   2.103   7.312  12.503  1.4528 -0.2604 -1.2415
  639MOL0     H84329   2.202   7.448  12.506 -2.8157  1.2058 -0.3885
  639MOL0     H84330   2.962   6.913  12.323  0.1099  0.6776 -0.3171
  639MOL0     H84331   3.065   6.751  12.146  1.1426 -2.1928 -0.1639
  639MOL0     H84332   3.221   6.445  11.993  0.6556  1.1533 -3.4402
  639MOL0     H84333   3.337   6.271  11.854 -0.7631 -1.2243 -2.7015
  639MOL0     H84334   4.053   5.080  10.762 -1.2309 -0.4088  1.9661
  639MOL0     H84335   4.308   5.081  10.738 -2.5788  2.9978  0.6204
  639MOL0     H84336   4.690   5.058  11.080  1.3096 -0.4150  0.2398
  639MOL0     H84337   4.912   5.013  11.131  0.7286 -0.3641 -0.3456
  639MOL0     H84338   5.173   4.767  10.845 -0.5772  0.1402 -0.0443
  639MOL0     H84339   5.085   4.651  10.946  0.2807  0.6941 -2.9513
  639MOL0     H84340   5.337   4.639  10.981 -2.3141 -0.8661 -1.6277
  639MOL0     H84341   5.324   4.811  11.041 -1.2483  1.8288 -2.7555
  639MOL0     H84342   5.143   4.609  11.154 -2.7404  3.7484  0.9542
  639MOL0     H84343   5.208   4.750  11.238 -2.0373  0.9707 -1.6115
  639MOL0     H84344   5.353   4.511  11.156 -0.4223  2.3639 -2.1118
  639MOL0     H84345   5.447   4.633  11.242 -0.0976  0.1136  0.5829
  639MOL0     H84346   5.210   4.442  11.551  2.6348 -0.6865  1.8137
  639MOL0     H84347   4.919   4.721  10.803 -2.2729 -1.5667  0.1463
  639MOL0     H84348   4.701   4.789  10.744 -2.5510  2.2172 -0.5269
  640MOL0     O84349   0.958   9.833  11.422 -0.5905 -0.7577 -0.1758
  640MOL0     C84350   1.021   9.922  11.370  0.1348 -0.3706  0.1389
  640MOL0     O84351   0.973  10.048  11.341 -0.1087 -0.6709 -0.4024
  640MOL0     C84352   0.850  10.086  11.387  0.3878  0.8327 -0.2591
  640MOL0     C84353   0.731  10.026  11.331 -0.6648  0.8094  0.1837
  640MOL0     C84354   0.608  10.067  11.368 -0.0785  0.4700  0.0845
  640MOL0     C84355   0.585  10.167  11.464 -0.7178  0.0295 -0.9665
  640MOL0     O84356   0.457  10.213  11.488  0.1412  0.1481  0.3243
  640MOL0     C84357   0.422  10.299  11.590 -0.4983  0.1001 -0.2988
  640MOL0     C84358   0.271  10.293  11.602 -0.1070 -0.0007  0.5199
  640MOL0     C84359   0.234  10.343  11.740  1.3074 -0.5505  0.1572
  640MOL0     C84360   0.082  10.332  11.758  0.0289  0.3591  0.7064
  640MOL0     C84361   0.043  10.419  11.870  0.4780 -0.0486  0.2975
  640MOL0     C84362   0.067  10.357  12.005 -0.1683 -0.2346 -0.4894
  640MOL0     C84363  -0.007  10.448  12.116 -0.1594 -0.0870  0.6944
  640MOL0     C84364   0.077  10.573  12.162  0.2786  1.1064 -0.1709
  640MOL0     N84365  -0.005  10.640  12.270  0.7710  0.4575  0.0784
  640MOL0     C84366  -0.108  10.728  12.255  0.7453 -0.5721 -0.6229
  640MOL0     C84367  -0.119  10.780  12.381 -1.1380  0.1172 -0.7088
  640MOL0     C84368  -0.224  10.889  12.413  0.3115  0.1168 -0.1446
  640MOL0     C84369  -0.335  10.849  12.515  0.0831 -0.0121 -0.1276
  640MOL0     C84370  -0.293  10.764  12.630 -0.6362 -0.4439 -0.0126
  640MOL0     C84371  -0.387  10.752  12.742 -1.0264  0.0587 -0.0183
  640MOL0     O84372  -0.525  10.757  12.705 -0.5090  0.5313  0.5868
  640MOL0     C84373  -0.606  10.751  12.816 -0.9530 -0.3371 -1.3087
  640MOL0     C84374  -0.744  10.779  12.797 -0.1945 -0.3143  0.0403
  640MOL0     C84375  -0.840  10.791  12.894 -0.2497 -0.1052  0.3664
  640MOL0     C84376  -0.796  10.788  13.026  0.0815 -0.5256 -0.2622
  640MOL0     C84377  -0.889  10.819  13.139  0.1550 -0.0058 -0.2339
  640MOL0     O84378  -0.843  10.793  13.263  0.1062 -0.9682  0.5130
  640MOL0     C84379  -0.934  10.820  13.360 -0.0945  0.8392 -0.0865
  640MOL0     C84380  -1.011  10.717  13.418 -0.9260 -0.3148 -0.2329
  640MOL0     C84381  -1.097  10.746  13.527  0.5095  0.3532  0.5593
  640MOL0     C84382  -1.119  10.874  13.571 -1.0082  0.6481  0.7631
  640MOL0     O84383  -1.212  10.899  13.665 -0.3839 -0.3070 -0.3561
  640MOL0     C84384  -1.286  11.026  13.665  0.7382 -0.4017  0.2977
  640MOL0     C84385  -1.421  11.009  13.589 -0.7948  0.6187  1.3316
  640MOL0     C84386  -1.523  11.127  13.594  0.5262  0.4000 -0.1269
  640MOL0     C84387  -1.486  11.230  13.490 -0.5906  1.0214 -0.1400
  640MOL0     C84388  -1.594  11.346  13.475  0.5843 -0.0534  0.7771
  640MOL0     C84389  -1.623  11.412  13.608  0.0625  1.1539 -0.1367
  640MOL0     C84390  -1.701  11.541  13.594  0.6919  0.0382 -1.5490
  640MOL0     C84391  -1.632  11.649  13.517  0.0078 -0.1926  0.1275
  640MOL0    Cl84392  -1.696  11.820  13.549  0.7309  0.0916  0.2537
  640MOL0     C84393  -1.042  10.973  13.513  0.5622 -0.4889  1.1990
  640MOL0     C84394  -0.954  10.951  13.407  0.1124 -0.5143  0.1722
  640MOL0     O84395  -1.007  10.853  13.120  0.1586  0.2099  0.4622
  640MOL0     C84396  -0.662  10.749  13.055  0.2223  0.6429  0.3840
  640MOL0     C84397  -0.570  10.733  12.949  1.2007 -0.9655 -0.3701
  640MOL0     N84398  -0.029  10.717  12.464 -0.3977 -0.1819  0.3752
  640MOL0     N84399   0.031  10.631  12.402 -0.0351  0.8102  0.3391
  640MOL0     C84400   0.705  10.215  11.532  0.1103 -0.1605  0.0993
  640MOL0     C84401   0.827  10.175  11.485 -0.3540  0.1610 -0.6648
  640MOL0     C84402   1.154   9.887  11.324  0.8020 -0.9367  1.1345
  640MOL0     C84403   1.230   9.784  11.380  0.1303 -0.9657 -0.1804
  640MOL0     C84404   1.355   9.749  11.337 -0.7764 -0.5069 -0.1448
  640MOL0     C84405   1.409   9.813  11.225  0.3396  0.0706  0.2668
  640MOL0     O84406   1.518   9.758  11.174 -0.4258 -0.6822  0.1064
  640MOL0     C84407   1.555   9.751  11.035  0.3703  0.0631  0.1854
  640MOL0     C84408   1.698   9.803  11.003  0.4996  0.5990 -0.8734
  640MOL0     C84409   1.683   9.957  11.020  0.5782  0.4871 -0.6304
  640MOL0     C84410   1.814  10.023  10.997 -0.4262  0.7880  0.6920
  640MOL0     C84411   1.923   9.994  11.096 -0.6485 -0.1693 -0.3905
  640MOL0     C84412   2.026   9.961  11.152 -0.6480  0.1590  0.2075
  640MOL0     C84413   1.334   9.909  11.148 -0.7354  0.1439 -0.3043
  640MOL0     C84414   1.214   9.952  11.208 -0.2702  0.2541 -0.1888
  640MOL0     H84415   0.764   9.941  11.272  1.8470  1.0813  1.0737
  640MOL0     H84416   0.525  10.032  11.307  0.1392 -0.1956  0.1543
  640MOL0     H84417   0.452  10.401  11.565  0.2728 -0.3107 -1.0890
  640MOL0     H84418   0.458  10.268  11.689  3.7506  3.7906 -0.4086
  640MOL0     H84419   0.241  10.189  11.582 -1.6856  1.0092 -3.2779
  640MOL0     H84420   0.235  10.360  11.524  1.9338  1.6821  0.9332
  640MOL0     H84421   0.276  10.442  11.755 -0.2405 -0.2143  2.9166
  640MOL0     H84422   0.277  10.271  11.811  0.5531 -1.7118 -0.5189
  640MOL0     H84423   0.038  10.379  11.670  0.5775  1.4288  0.9972
  640MOL0     H84424   0.028  10.237  11.754 -3.3125  2.1239  0.7492
  640MOL0     H84425  -0.063  10.444  11.856  0.8130  0.7379 -1.0402
  640MOL0     H84426   0.088  10.519  11.874 -1.8698  1.0372  2.0680
  640MOL0     H84427   0.173  10.351  12.032 -0.2552  3.2094  1.0909
  640MOL0     H84428   0.023  10.259  12.024 -1.7541  0.6748  0.8021
  640MOL0     H84429  -0.110  10.465  12.083 -0.1946 -2.3790 -0.6073
  640MOL0     H84430  -0.027  10.383  12.201  0.9928  0.1819  1.1869
  640MOL0     H84431   0.113  10.635  12.079  1.3004 -3.1891 -3.2400
  640MOL0     H84432   0.158  10.531  12.221 -1.9294  0.3384  2.5281
  640MOL0     H84433  -0.149  10.762  12.160  1.6882 -1.7963 -1.5086
  640MOL0     H84434  -0.277  10.922  12.323  0.4819 -0.2047 -0.3628
  640MOL0     H84435  -0.180  10.981  12.455 -0.5053  0.3030  0.3292
  640MOL0     H84436  -0.410  10.800  12.452  0.4798 -1.2382  0.3274
  640MOL0     H84437  -0.375  10.942  12.556  3.4870  0.4970  2.4822
  640MOL0     H84438  -0.274  10.668  12.582 -0.2500  1.4930 -4.1913
  640MOL0     H84439  -0.204  10.801  12.682 -1.2578 -0.8778  1.4008
  640MOL0     H84440  -0.364  10.835  12.811 -0.7034 -1.2388  1.5022
  640MOL0     H84441  -0.358  10.655  12.782  1.3539  1.6048  2.4342
  640MOL0     H84442  -0.781  10.810  12.700  0.7454 -1.9190 -0.8744
  640MOL0     H84443  -0.944  10.817  12.879 -0.9729 -3.1479 -0.6238
  640MOL0     H84444  -1.000  10.614  13.388 -4.5391 -1.4882  1.7796
  640MOL0     H84445  -1.142  10.664  13.581 -0.3830  2.7425  3.7466
  640MOL0     H84446  -1.234  11.116  13.631 -4.3010  1.5276 -3.6444
  640MOL0     H84447  -1.320  11.040  13.768  2.2717 -3.0844  1.2909
  640MOL0     H84448  -1.470  10.916  13.618  0.3976  0.1353  1.8413
  640MOL0     H84449  -1.391  10.995  13.484  1.0934  0.3406  1.8685
  640MOL0     H84450  -1.524  11.165  13.696  2.2690 -1.0478  0.4982
  640MOL0     H84451  -1.618  11.080  13.566  2.1231 -2.3541 -1.4863
  640MOL0     H84452  -1.395  11.278  13.526  0.2754 -2.5349  3.0350
  640MOL0     H84453  -1.469  11.191  13.390  0.6802  0.8951  0.1178
  640MOL0     H84454  -1.681  11.307  13.421  2.3481  0.0285 -2.3751
  640MOL0     H84455  -1.545  11.419  13.410 -0.8395  1.2828  1.1440
  640MOL0     H84456  -1.540  11.417  13.680 -2.0249 -0.9676  2.6704
  640MOL0     H84457  -1.703  11.356  13.658  0.1508  0.5417 -0.6639
  640MOL0     H84458  -1.799  11.523  13.548 -1.3382 -1.0939  2.6927
  640MOL0     H84459  -1.728  11.576  13.694  0.4148  0.1896 -1.6744
  640MOL0     H84460  -1.623  11.639  13.408  2.4090 -0.6657  0.3050
  640MOL0     H84461  -1.532  11.634  13.558  1.9770  0.5477 -3.8817
  640MOL0     H84462  -1.062  11.075  13.542 -0.8156 -0.6920  1.0431
  640MOL0     H84463  -0.898  11.039  13.377 -0.6139 -0.2872 -0.5564
  640MOL0     H84464  -0.629  10.739  13.158 -1.0370 -0.8003  0.6771
  640MOL0     H84465  -0.470  10.710  12.986  0.8750 -0.2187  1.0426
  640MOL0     H84466   0.691  10.295  11.603  3.1661  1.1943 -0.6197
  640MOL0     H84467   0.911  10.232  11.525 -1.2998 -1.2416  3.9312
  640MOL0     H84468   1.184   9.717  11.453 -1.3054  0.3821  0.2143
  640MOL0     H84469   1.417   9.672  11.381 -0.6498  0.2274  1.0110
  640MOL0     H84470   1.481   9.803  10.973 -1.7529 -1.1191  1.6124
  640MOL0     H84471   1.556   9.645  11.008 -2.1770 -0.0870  0.4196
  640MOL0     H84472   1.772   9.755  11.067 -1.5651 -3.1795 -1.0356
  640MOL0     H84473   1.722   9.776  10.899 -3.2214  0.7286 -1.9176
  640MOL0     H84474   1.648   9.973  11.122 -2.3421 -0.8232 -1.2982
  640MOL0     H84475   1.609   9.991  10.947  1.0230  0.7046 -0.9856
  640MOL0     H84476   1.851   9.993  10.899  0.4302 -0.7051  1.4404
  640MOL0     H84477   1.798  10.132  10.999 -4.0597  0.4440 -1.0354
  640MOL0     H84478   2.124   9.935  11.188 -0.9734  0.6036  1.4352
  640MOL0     H84479   1.368   9.953  11.055 -1.8089  3.3253  0.6717
  640MOL0     H84480   1.156  10.027  11.155 -0.9302  1.2230  1.7999
  641MOL0     O84481   7.678   7.222  11.307  0.3440 -0.4796 -0.2251
  641MOL0     C84482   7.627   7.330  11.271  1.0455 -0.9569  0.1822
  641MOL0     O84483   7.677   7.403  11.169  0.9998 -0.3477  0.3825
  641MOL0     C84484   7.799   7.370  11.123 -0.2925  0.0223  0.3930
  641MOL0     C84485   7.805   7.304  10.997  0.5188 -0.8748 -0.2604
  641MOL0     C84486   7.927   7.247  10.952 -0.2209  0.5936 -0.6788
  641MOL0     C84487   8.043   7.261  11.038 -0.2472  0.8113  0.9477
  641MOL0     O84488   8.166   7.222  11.013 -0.9320 -0.1351  0.0476
  641MOL0     C84489   8.205   7.172  10.883  0.7423 -0.6370  0.7758
  641MOL0     C84490   8.353   7.141  10.867 -0.7776 -0.6511 -0.6735
  641MOL0     C84491   8.402   7.087  10.731  0.2116 -0.1288 -0.8488
  641MOL0     C84492   8.557   7.086  10.731  0.4310 -0.0427  0.0960
  641MOL0     C84493   8.600   7.186  10.623 -0.1785  0.0182 -0.1577
  641MOL0     C84494   8.749   7.194  10.638  0.0654  1.2505  0.8146
  641MOL0     C84495   8.802   7.281  10.517 -0.1393  0.6377  0.6228
  641MOL0     C84496   8.717   7.412  10.485  0.0404 -0.1327 -0.7890
  641MOL0     N84497   8.768   7.475  10.362  0.3386  0.1811 -0.9091
  641MOL0     C84498   8.720   7.596  10.321 -0.2002 -0.0816  0.5568
  641MOL0     C84499   8.822   7.646  10.247 -0.1570 -0.5269 -0.1124
  641MOL0     C84500   8.806   7.766  10.155  0.7822  1.1621  0.6556
  641MOL0     C84501   8.860   7.735  10.021 -0.3968  0.4172 -0.6144
  641MOL0     C84502   8.817   7.854   9.937 -0.1063 -0.0179 -0.8126
  641MOL0     C84503   8.880   7.836   9.801  0.3574  0.1877 -0.0142
  641MOL0     O84504   8.824   7.727   9.732 -0.5582 -0.4939 -0.0527
  641MOL0     C84505   8.856   7.700   9.601  0.7601 -0.0737  0.6770
  641MOL0     C84506   8.919   7.789   9.510  0.1411  0.9493 -1.3802
  641MOL0     C84507   8.953   7.749   9.381 -0.3036  0.5728 -0.1427
  641MOL0     C84508   8.902   7.627   9.334  1.3754  0.1853  0.0514
  641MOL0     C84509   8.899   7.587   9.194 -0.9313  0.3745 -0.5065
  641MOL0     O84510   8.859   7.687   9.110  0.5039  1.2212  0.4957
  641MOL0     C84511   8.890   7.681   8.974 -0.7226  0.5702 -0.1061
  641MOL0     C84512   8.963   7.789   8.935 -0.8362  0.5752  1.1877
  641MOL0     C84513   9.005   7.794   8.799 -0.0646 -0.4257  0.9187
  641MOL0     C84514   8.955   7.700   8.697  0.2626 -1.6053 -0.8118
  641MOL0     O84515   8.982   7.721   8.569 -0.5482  0.0542  1.0279
  641MOL0     C84516   8.992   7.610   8.480  0.0932 -0.0231 -0.2538
  641MOL0     C84517   9.069   7.659   8.349  0.7608 -1.5298  0.4376
  641MOL0     C84518   9.101   7.533   8.272  0.4735 -0.7923  0.5969
  641MOL0     C84519   9.155   7.534   8.131 -0.3208  0.2355  0.1562
  641MOL0     C84520   9.151   7.397   8.062 -0.5786 -0.2117  1.0790
  641MOL0     C84521   9.197   7.416   7.913 -0.0329 -1.0373 -0.9384
  641MOL0     C84522   9.341   7.473   7.908 -0.0621  0.3042  0.2524
  641MOL0     C84523   9.388   7.480   7.763 -0.1683 -0.2868  0.7754
  641MOL0    Cl84524   9.396   7.320   7.677 -0.1611 -0.6072  0.0169
  641MOL0     C84525   8.888   7.590   8.750 -0.8740  0.4537 -0.2239
  641MOL0     C84526   8.857   7.577   8.893 -0.0871  0.6643  0.5430
  641MOL0     O84527   8.937   7.471   9.170  0.7351  0.7729  0.1692
  641MOL0     C84528   8.829   7.546   9.417  0.9015  0.7663 -0.4225
  641MOL0     C84529   8.819   7.572   9.552 -0.4955 -0.3223  0.0908
  641MOL0     N84530   8.931   7.562  10.249  0.2083 -0.3541 -0.3323
  641MOL0     N84531   8.896   7.460  10.322 -0.2547 -1.3374  0.6570
  641MOL0     C84532   8.034   7.318  11.163  0.0253 -0.4774  0.4122
  641MOL0     C84533   7.916   7.386  11.200 -0.4622 -0.3094  0.7244
  641MOL0     C84534   7.508   7.402  11.345  0.4190  0.6478  0.4158
  641MOL0     C84535   7.424   7.324  11.434 -0.6109  0.1732  0.1687
  641MOL0     C84536   7.325   7.378  11.507 -0.2680 -0.5447  0.3937
  641MOL0     C84537   7.300   7.518  11.480  0.0177 -0.4913  0.4390
  641MOL0     O84538   7.202   7.575  11.558 -0.1667 -0.4947 -0.5109
  641MOL0     C84539   7.103   7.636  11.477 -0.3031 -0.0348  0.8390
  641MOL0     C84540   6.972   7.546  11.494 -0.7289  0.0099  0.4455
  641MOL0     C84541   6.870   7.582  11.390  0.2339 -0.0308  0.4392
  641MOL0     C84542   6.754   7.481  11.381  0.4223  0.2786 -0.1384
  641MOL0     C84543   6.669   7.487  11.504  0.1815  0.7864  0.3402
  641MOL0     C84544   6.617   7.496  11.613  0.0236 -0.4975 -1.0906
  641MOL0     C84545   7.377   7.600  11.391 -0.4403  0.5995 -1.2203
  641MOL0     C84546   7.483   7.541  11.323  0.4010  1.0654  0.1631
  641MOL0     H84547   7.716   7.301  10.934  0.9824 -1.7786 -0.8949
  641MOL0     H84548   7.946   7.203  10.855 -0.4900  1.5700 -1.1906
  641MOL0     H84549   8.161   7.238  10.807 -2.4878 -3.1115  0.2347
  641MOL0     H84550   8.144   7.086  10.854 -0.2598  0.9709 -2.4398
  641MOL0     H84551   8.392   7.076  10.945  1.1435  1.8744  0.6187
  641MOL0     H84552   8.405   7.236  10.879  0.1467 -0.9981 -1.7344
  641MOL0     H84553   8.359   7.112  10.633 -0.1716  0.3269 -0.5690
  641MOL0     H84554   8.380   6.980  10.738 -3.4666  0.5782  1.3782
  641MOL0     H84555   8.591   7.109  10.832 -5.0884  0.8940  2.1207
  641MOL0     H84556   8.590   6.986  10.699 -1.6564  0.0904 -2.9127
  641MOL0     H84557   8.547   7.281  10.624  1.6381  1.0897 -1.1939
  641MOL0     H84558   8.566   7.146  10.527 -2.9705  1.5772  0.1064
  641MOL0     H84559   8.791   7.093  10.640 -1.0783  0.7135 -0.8310
  641MOL0     H84560   8.769   7.233  10.738 -0.3813 -0.9514  1.8293
  641MOL0     H84561   8.907   7.309  10.521  0.7010 -1.5603 -2.4524
  641MOL0     H84562   8.805   7.213  10.432 -0.6285  0.4619  0.7455
  641MOL0     H84563   8.709   7.486  10.565 -0.0752 -0.5988 -0.3608
  641MOL0     H84564   8.617   7.377  10.458 -0.8591  2.8899 -1.7633
  641MOL0     H84565   8.622   7.640  10.335 -0.7951 -0.5156 -1.7030
  641MOL0     H84566   8.846   7.847  10.216 -1.7993  1.1215  2.6054
  641MOL0     H84567   8.697   7.781  10.148  0.4842  0.2113  2.7158
  641MOL0     H84568   8.828   7.636   9.987 -2.1326  0.9797 -0.6905
  641MOL0     H84569   8.968   7.730  10.039  0.0406 -0.0027 -3.0453
  641MOL0     H84570   8.709   7.858   9.919 -0.3658 -1.9460  0.0754
  641MOL0     H84571   8.840   7.949   9.985 -3.0220  1.1604 -1.5060
  641MOL0     H84572   8.988   7.825   9.803  0.3126 -0.7480 -1.5216
  641MOL0     H84573   8.856   7.928   9.746 -2.9353  1.2855  2.8848
  641MOL0     H84574   8.925   7.894   9.536 -0.1868  1.1483 -2.0952
  641MOL0     H84575   9.023   7.808   9.323 -0.1495  1.2141  0.6816
  641MOL0     H84576   8.990   7.866   9.007 -1.7891  1.4205  0.6725
  641MOL0     H84577   9.059   7.879   8.760 -2.3994  0.8811  0.3335
  641MOL0     H84578   8.893   7.573   8.451 -0.5108  1.7527 -0.5946
  641MOL0     H84579   9.053   7.531   8.524 -0.3801 -2.5097 -3.7056
  641MOL0     H84580   9.159   7.716   8.370 -0.2896  0.3400  0.0905
  641MOL0     H84581   9.005   7.708   8.275  0.9483  0.1822  1.3701
  641MOL0     H84582   9.005   7.480   8.265  0.6871 -0.9048 -2.7238
  641MOL0     H84583   9.179   7.481   8.328  1.8758 -0.2121 -0.7539
  641MOL0     H84584   9.106   7.602   8.061 -1.5575 -2.0570 -1.2915
  641MOL0     H84585   9.262   7.556   8.142 -0.6575  2.7484 -0.7676
  641MOL0     H84586   9.054   7.345   8.062 -1.8218  1.6555 -3.0460
  641MOL0     H84587   9.225   7.333   8.111 -1.5052 -0.8010  1.7549
  641MOL0     H84588   9.127   7.484   7.862  0.7468  1.9783  1.6990
  641MOL0     H84589   9.190   7.319   7.862  1.4822 -1.5686 -0.2033
  641MOL0     H84590   9.351   7.571   7.955 -0.4956  0.1722  0.6285
  641MOL0     H84591   9.404   7.407   7.968 -1.0030  3.3177  5.1024
  641MOL0     H84592   9.487   7.528   7.759  1.3117 -3.0882  1.1689
  641MOL0     H84593   9.327   7.545   7.699  4.3078 -0.3625 -4.3209
  641MOL0     H84594   8.857   7.515   8.679  2.1539 -0.4921 -0.7040
  641MOL0     H84595   8.800   7.496   8.938 -0.7104  1.7508  1.7509
  641MOL0     H84596   8.796   7.446   9.388  2.0462  0.2828 -0.1304
  641MOL0     H84597   8.771   7.504   9.621 -0.9211 -1.2938 -1.1149
  641MOL0     H84598   8.131   7.336  11.209  0.9237 -1.0367 -1.1710
  641MOL0     H84599   7.921   7.441  11.294 -1.5059  1.8634 -0.4174
  641MOL0     H84600   7.451   7.219  11.433  1.2533  0.6039 -1.3215
  641MOL0     H84601   7.269   7.311  11.572 -0.1539  0.4743  1.5827
  641MOL0     H84602   7.127   7.638  11.370 -1.3372  0.1061  0.6006
  641MOL0     H84603   7.091   7.743  11.497 -6.7561 -0.2262 -0.0609
  641MOL0     H84604   6.989   7.440  11.473  1.1533  0.3268  0.1901
  641MOL0     H84605   6.933   7.568  11.594 -0.6446 -0.3664  0.5626
  641MOL0     H84606   6.926   7.598  11.298  2.3023  2.2220  1.9533
  641MOL0     H84607   6.834   7.679  11.424 -2.6227 -1.0811  0.6584
  641MOL0     H84608   6.697   7.500  11.289  2.3349  1.2668 -1.1776
  641MOL0     H84609   6.785   7.377  11.375  2.1870  0.7602  0.1876
  641MOL0     H84610   6.579   7.501  11.713  3.0530 -1.9175  0.2600
  641MOL0     H84611   7.353   7.704  11.373 -3.0732  0.3157  0.1800
  641MOL0     H84612   7.535   7.599  11.248  2.6514  0.3977  1.0993
  642MOL0     O84613   7.967   2.118   5.145  0.2395  0.5599 -0.2358
  642MOL0     C84614   7.877   2.199   5.175 -0.3638  0.1356  0.6925
  642MOL0     O84615   7.896   2.332   5.195 -0.2422  0.0746 -0.0613
  642MOL0     C84616   8.017   2.389   5.182  0.9758 -0.3134 -0.3287
  642MOL0     C84617   8.107   2.361   5.078  0.1114 -0.7141 -0.5088
  642MOL0     C84618   8.247   2.404   5.081  0.2397 -0.2194  0.9099
  642MOL0     C84619   8.287   2.487   5.181 -0.4824  0.1668  0.4804
  642MOL0     O84620   8.417   2.531   5.194 -0.1623 -0.2210 -0.4245
  642MOL0     C84621   8.524   2.467   5.112  0.4749 -0.8965  0.2040
  642MOL0     C84622   8.656   2.549   5.134 -0.6627  0.7561 -1.1825
  642MOL0     C84623   8.620   2.679   5.052 -0.0022 -0.6000 -0.2488
  642MOL0     C84624   8.740   2.777   5.059  0.0381  0.3776  0.6069
  642MOL0     C84625   8.692   2.886   4.964 -0.0424 -0.6518 -0.5209
  642MOL0     C84626   8.745   3.011   5.009 -0.7561 -0.1944 -0.0471
  642MOL0     C84627   8.904   3.014   5.016  0.6794  0.0380 -0.1693
  642MOL0     C84628   8.975   3.071   4.898 -0.0339  0.4701  0.1370
  642MOL0     N84629   9.116   3.092   4.918  0.6465  0.2858  0.7742
  642MOL0     C84630   9.173   3.170   5.015 -0.5344  0.3041 -0.7299
  642MOL0     C84631   9.308   3.172   4.979  0.0710 -0.0212 -0.1187
  642MOL0     C84632   9.414   3.256   5.047  0.8988 -0.3367 -0.1754
  642MOL0     C84633   9.508   3.178   5.128  0.1832  0.2063  0.3918
  642MOL0     C84634   9.585   3.055   5.065 -0.2786  0.2821 -0.8393
  642MOL0     C84635   9.670   3.090   4.944  0.5673  0.2534 -1.2012
  642MOL0     O84636   9.738   3.210   4.989 -0.4576 -0.2845  0.4412
  642MOL0     C84637   9.782   3.287   4.890  1.1578  0.9087 -0.0330
  642MOL0     C84638   9.764   3.419   4.925  0.2572  0.2521 -0.3269
  642MOL0     C84639   9.808   3.520   4.851  0.1849 -0.6889  0.1230
  642MOL0     C84640   9.864   3.497   4.723 -0.3194  0.1903  0.1745
  642MOL0     C84641   9.917   3.608   4.646 -0.7586  0.9476  0.7351
  642MOL0     O84642   9.974   3.573   4.520 -0.3679  0.7361  0.0482
  642MOL0     C84643  10.013   3.689   4.446  0.3627 -0.1011 -0.8410
  642MOL0     C84644  10.149   3.719   4.442  0.1164 -1.4824  0.7166
  642MOL0     C84645  10.185   3.843   4.389 -0.7951 -0.5807  1.0476
  642MOL0     C84646  10.094   3.936   4.341  0.4137  0.2848 -0.0540
  642MOL0     O84647  10.122   4.063   4.308  0.4898 -0.1968 -0.3565
  642MOL0     C84648  10.241   4.101   4.252 -0.2931 -0.3609  0.8215
  642MOL0     C84649  10.321   4.179   4.359 -0.3599  0.8157 -0.2713
  642MOL0     C84650  10.270   4.323   4.379  0.1720 -0.5837 -0.2669
  642MOL0     C84651  10.329   4.403   4.499 -0.0226 -0.2368  0.0666
  642MOL0     C84652  10.240   4.509   4.554 -0.0533 -0.0786 -0.5567
  642MOL0     C84653  10.129   4.451   4.636 -0.1604 -0.2155 -0.2222
  642MOL0     C84654  10.019   4.557   4.643  0.7873 -0.2104 -0.8020
  642MOL0     C84655   9.896   4.498   4.712 -0.2785  0.2972 -0.5260
  642MOL0    Cl84656   9.771   4.620   4.765  0.4297 -0.2411  0.2625
  642MOL0     C84657   9.954   3.892   4.322 -0.8993 -0.7285  0.4872
  642MOL0     C84658   9.920   3.764   4.374  0.1263  0.1639  0.0686
  642MOL0     O84659   9.917   3.718   4.695  0.0556  0.1433  0.1796
  642MOL0     C84660   9.873   3.358   4.682  0.3929 -1.4987  0.0258
  642MOL0     C84661   9.847   3.252   4.768 -0.0501 -0.3790 -0.3781
  642MOL0     N84662   9.327   3.085   4.871  0.2780  0.4646 -0.9435
  642MOL0     N84663   9.206   3.048   4.829 -0.6418  0.6907 -0.1835
  642MOL0     C84664   8.193   2.525   5.275 -0.0141 -0.5335  0.2079
  642MOL0     C84665   8.062   2.467   5.288 -0.1361 -1.2155 -0.0468
  642MOL0     C84666   7.733   2.149   5.175 -0.4521  0.2800 -0.2249
  642MOL0     C84667   7.689   2.037   5.108 -1.2177 -1.8957  0.4892
  642MOL0     C84668   7.560   1.991   5.108  0.0233  0.0831 -0.4651
  642MOL0     C84669   7.472   2.036   5.200  0.3401  0.6867 -0.8233
  642MOL0     O84670   7.341   1.998   5.206  0.6885  0.5243 -0.1639
  642MOL0     C84671   7.304   1.860   5.188 -0.1640  0.2102  1.1336
  642MOL0     C84672   7.280   1.829   5.044 -0.8660  0.0240  0.8152
  642MOL0     C84673   7.137   1.818   5.007  0.4797 -0.6674  0.1277
  642MOL0     C84674   7.045   1.929   5.050 -0.2079 -0.3256 -0.4046
  642MOL0     C84675   6.941   1.944   4.946  0.1277  0.8438  0.5438
  642MOL0     C84676   6.846   1.965   4.860 -0.3049  0.1136 -0.7265
  642MOL0     C84677   7.514   2.144   5.283 -0.0946 -0.2272 -0.5995
  642MOL0     C84678   7.641   2.197   5.272 -0.1255 -0.1205  0.4248
  642MOL0     H84679   8.079   2.294   4.997  1.7282  1.0268 -2.6545
  642MOL0     H84680   8.295   2.379   4.987 -2.1707 -0.0446 -0.4618
  642MOL0     H84681   8.500   2.473   5.005 -1.5469 -0.0026  0.6526
  642MOL0     H84682   8.520   2.361   5.136 -2.0995 -1.7990 -3.3416
  642MOL0     H84683   8.739   2.493   5.090 -0.1282  0.2946  0.3856
  642MOL0     H84684   8.683   2.567   5.238 -1.2046 -2.6089 -0.3323
  642MOL0     H84685   8.534   2.723   5.102  0.2490 -1.9606  1.4997
  642MOL0     H84686   8.597   2.651   4.949  1.2508  0.7600 -0.9367
  642MOL0     H84687   8.762   2.811   5.160 -1.5015 -0.9782  1.4499
  642MOL0     H84688   8.839   2.735   5.038  0.5176  1.4372  0.6663
  642MOL0     H84689   8.585   2.898   4.984  0.1801 -1.3810  1.3513
  642MOL0     H84690   8.715   2.850   4.864 -0.1534 -0.1380 -0.7340
  642MOL0     H84691   8.713   3.017   5.114 -0.2770 -3.4670  0.3870
  642MOL0     H84692   8.695   3.093   4.956  1.0211  0.8739 -0.1853
  642MOL0     H84693   8.931   3.080   5.099 -0.5564  2.4526 -1.5840
  642MOL0     H84694   8.950   2.917   5.038  2.5177  0.8363 -0.3271
  642MOL0     H84695   8.920   3.165   4.882 -1.5135 -0.3163  0.3675
  642MOL0     H84696   8.950   3.009   4.811 -0.0073 -0.1116  0.5435
  642MOL0     H84697   9.128   3.230   5.094  0.2127  0.2230 -0.2303
  642MOL0     H84698   9.368   3.330   5.114 -0.7228  1.8857 -3.4531
  642MOL0     H84699   9.472   3.318   4.978 -0.6980  0.7848 -0.5697
  642MOL0     H84700   9.455   3.142   5.216  3.2731  0.8221  2.7108
  642MOL0     H84701   9.584   3.250   5.161 -0.4758  0.5068  1.2946
  642MOL0     H84702   9.654   3.014   5.139  3.2361  5.3790 -0.8204
  642MOL0     H84703   9.506   2.982   5.046  0.4467 -1.5037  2.2889
  642MOL0     H84704   9.615   3.108   4.851  0.2766  3.3794 -0.5291
  642MOL0     H84705   9.734   3.002   4.932 -0.0159 -0.3618 -0.0678
  642MOL0     H84706   9.718   3.447   5.019  0.6311 -0.6905  0.1462
  642MOL0     H84707   9.792   3.618   4.894 -2.4161 -1.4093  1.0179
  642MOL0     H84708  10.213   3.651   4.498  2.1711 -0.6579 -0.5146
  642MOL0     H84709  10.284   3.880   4.413 -1.9154  3.7284  0.0218
  642MOL0     H84710  10.219   4.173   4.172  0.9722 -0.4181  0.3983
  642MOL0     H84711  10.286   4.011   4.210  1.1688  0.3115  0.9033
  642MOL0     H84712  10.421   4.187   4.317 -0.6524 -1.1699 -1.4730
  642MOL0     H84713  10.326   4.119   4.450 -0.5797  1.4673  0.1826
  642MOL0     H84714  10.162   4.312   4.390  0.0866 -0.0732 -0.5787
  642MOL0     H84715  10.302   4.383   4.293 -1.1498  1.9560  0.9108
  642MOL0     H84716  10.370   4.339   4.579  1.2813  0.5879  0.0980
  642MOL0     H84717  10.417   4.455   4.462 -0.8059  2.1858  1.4095
  642MOL0     H84718  10.201   4.561   4.465 -0.1394  1.9397  0.5960
  642MOL0     H84719  10.302   4.584   4.603  0.1942  0.8842 -2.2566
  642MOL0     H84720  10.167   4.415   4.732 -1.4740 -0.7844  0.1099
  642MOL0     H84721  10.088   4.366   4.583  1.7203 -1.1532 -0.2604
  642MOL0     H84722  10.059   4.634   4.710 -0.5314 -0.4331  0.2990
  642MOL0     H84723   9.995   4.600   4.545  0.7695  0.3168 -0.5733
  642MOL0     H84724   9.931   4.440   4.798 -0.5830  2.3755  1.0836
  642MOL0     H84725   9.833   4.430   4.655 -0.8136 -0.5816  1.0686
  642MOL0     H84726   9.885   3.965   4.280  0.4367  2.2982  3.1434
  642MOL0     H84727   9.817   3.730   4.371  0.4332 -1.2590  2.5292
  642MOL0     H84728   9.937   3.333   4.598  0.7113 -3.9916  0.9142
  642MOL0     H84729   9.868   3.151   4.735 -3.9777 -1.1890 -0.9246
  642MOL0     H84730   8.229   2.589   5.354 -1.5113 -0.0023  0.4873
  642MOL0     H84731   8.004   2.486   5.377  2.3683 -1.0259  1.6469
  642MOL0     H84732   7.745   2.025   5.016 -1.7528  2.8407 -0.7272
  642MOL0     H84733   7.527   1.915   5.038 -0.9960  1.1005 -1.1254
  642MOL0     H84734   7.214   1.835   5.244 -2.4778 -1.6647 -2.9233
  642MOL0     H84735   7.382   1.794   5.228 -1.8608 -2.5127  0.2626
  642MOL0     H84736   7.319   1.907   4.978 -1.3918 -0.1722  0.2573
  642MOL0     H84737   7.331   1.737   5.018  0.3923  1.0289 -0.4224
  642MOL0     H84738   7.095   1.731   5.057 -2.6521 -0.5465 -1.9879
  642MOL0     H84739   7.139   1.794   4.900 -0.0671 -0.8655  0.1618
  642MOL0     H84740   6.994   1.913   5.146  0.0037  0.6969 -0.1047
  642MOL0     H84741   7.099   2.024   5.057 -2.0272  0.9138 -1.8666
  642MOL0     H84742   6.773   1.999   4.789  1.4197  3.9500 -0.9257
  642MOL0     H84743   7.460   2.177   5.371  1.1211 -1.3953  0.6430
  642MOL0     H84744   7.667   2.281   5.335  0.0125 -0.2119  0.4903
  643MOL0     O84745   3.564   1.522   4.034 -0.0529 -0.7516 -0.5908
  643MOL0     C84746   3.509   1.424   3.983 -0.9215  0.4167 -0.1268
  643MOL0     O84747   3.372   1.418   3.954 -0.1521 -0.6317  0.1326
  643MOL0     C84748   3.297   1.533   3.994  0.4367  0.7242 -0.3880
  643MOL0     C84749   3.251   1.535   4.123 -0.4522  0.5850 -0.8162
  643MOL0     C84750   3.199   1.657   4.169  0.2129 -0.1537  0.2136
  643MOL0     C84751   3.179   1.771   4.089 -0.6819  0.1982  1.1010
  643MOL0     O84752   3.121   1.883   4.133 -0.1841  0.6348 -0.2590
  643MOL0     C84753   3.120   1.907   4.272 -0.3747 -0.7881  0.3301
  643MOL0     C84754   3.078   2.047   4.303  0.1835  1.1193 -0.7949
  643MOL0     C84755   3.100   2.077   4.457  0.3147  0.3933  0.7851
  643MOL0     C84756   3.038   2.219   4.476  0.5701  0.4892  0.0949
  643MOL0     C84757   3.058   2.267   4.617 -0.6907  0.2083 -0.6921
  643MOL0     C84758   3.011   2.408   4.643 -0.6251  1.2455 -0.1277
  643MOL0     C84759   2.857   2.409   4.655  0.5461  0.3994  0.1158
  643MOL0     C84760   2.788   2.483   4.539 -0.6700 -0.3950 -0.6737
  643MOL0     N84761   2.639   2.485   4.560  0.4615 -0.0848  0.1826
  643MOL0     C84762   2.567   2.590   4.612 -0.0726 -0.5872  0.1596
  643MOL0     C84763   2.440   2.539   4.626 -0.8245 -0.3574  1.1954
  643MOL0     C84764   2.341   2.611   4.710  0.3089  0.0477  1.4875
  643MOL0     C84765   2.371   2.623   4.856  0.1711 -0.2236  1.2085
  643MOL0     C84766   2.243   2.657   4.927  0.1884 -1.4083  0.7987
  643MOL0     C84767   2.260   2.718   5.070 -0.0753 -1.0488  0.3281
  643MOL0     O84768   2.128   2.716   5.135  0.6852  0.6621  0.4889
  643MOL0     C84769   2.108   2.779   5.261  1.2752 -0.6391  0.0293
  643MOL0     C84770   2.191   2.864   5.332 -0.3640 -1.2234 -0.0552
  643MOL0     C84771   2.151   2.917   5.450 -0.4811  0.4343 -0.5218
  643MOL0     C84772   2.029   2.888   5.511 -0.1024  1.2566 -0.6306
  643MOL0     C84773   1.975   2.946   5.644 -0.1275 -0.9323  0.6394
  643MOL0     O84774   2.060   3.036   5.702  0.6361  0.2363  0.2936
  643MOL0     C84775   2.018   3.138   5.781  0.2473  0.7375 -0.5734
  643MOL0     C84776   2.119   3.211   5.842 -0.2088 -0.3359 -0.0642
  643MOL0     C84777   2.095   3.317   5.936  0.4807  0.3904  1.0829
  643MOL0     C84778   1.958   3.345   5.969  0.1170  0.3168  0.8042
  643MOL0     O84779   1.930   3.427   6.071  0.0031  0.3764  0.1352
  643MOL0     C84780   1.813   3.404   6.143 -0.3352  0.4154  0.2622
  643MOL0     C84781   1.815   3.461   6.290 -0.1620  0.0834  0.2427
  643MOL0     C84782   1.784   3.606   6.288 -0.3481 -0.0325  0.1100
  643MOL0     C84783   1.831   3.672   6.414  0.3418  0.3293 -0.7857
  643MOL0     C84784   1.758   3.802   6.455 -0.2532  0.4233  0.1129
  643MOL0     C84785   1.606   3.795   6.461 -0.2388 -1.3770  0.5819
  643MOL0     C84786   1.554   3.676   6.528 -0.0462 -0.5553 -0.0165
  643MOL0     C84787   1.405   3.666   6.549  0.5715  0.0513 -0.9954
  643MOL0    Cl84788   1.377   3.539   6.670 -0.4111 -0.2985 -0.4448
  643MOL0     C84789   1.857   3.268   5.904 -0.8655  0.0648 -0.2105
  643MOL0     C84790   1.882   3.164   5.819 -0.5563  0.4505 -0.0333
  643MOL0     O84791   1.867   2.918   5.687 -0.1396 -0.1957 -0.2058
  643MOL0     C84792   1.944   2.794   5.447  0.2771 -0.4498  0.0476
  643MOL0     C84793   1.984   2.747   5.320 -0.5684  0.0644 -0.1845
  643MOL0     N84794   2.444   2.407   4.586 -0.1999  0.3285  0.0644
  643MOL0     N84795   2.560   2.376   4.532  0.2590 -0.6180 -0.1895
  643MOL0     C84796   3.234   1.763   3.956  0.1221 -0.0318 -0.9681
  643MOL0     C84797   3.289   1.646   3.907 -0.0806 -0.7264  0.2960
  643MOL0     C84798   3.598   1.310   3.941 -0.3539 -0.3244 -0.8067
  643MOL0     C84799   3.712   1.266   4.016  0.1141  0.6297 -0.0444
  643MOL0     C84800   3.785   1.159   3.969 -0.7832 -0.2265 -0.1666
  643MOL0     C84801   3.755   1.087   3.855  0.1516 -1.0167 -0.0100
  643MOL0     O84802   3.835   0.985   3.803  0.0142 -0.1173 -0.4047
  643MOL0     C84803   3.900   0.917   3.906 -0.2704  0.2442 -0.2726
  643MOL0     C84804   3.975   0.797   3.854 -0.1326  0.0627  0.8740
  643MOL0     C84805   4.079   0.830   3.732 -0.1254  0.3701  0.7276
  643MOL0     C84806   4.184   0.718   3.718  0.0320 -0.3003  0.1802
  643MOL0     C84807   4.273   0.715   3.827  0.2488  0.1033  0.4179
  643MOL0     C84808   4.357   0.715   3.917  0.5955 -0.5430  0.2187
  643MOL0     C84809   3.644   1.128   3.781 -0.2172 -0.3719  0.0261
  643MOL0     C84810   3.566   1.236   3.831  0.3293  0.6189 -0.4481
  643MOL0     H84811   3.249   1.447   4.187 -2.5683  1.1327 -0.0396
  643MOL0     H84812   3.167   1.665   4.272  2.7155  0.2437  1.0251
  643MOL0     H84813   3.212   1.873   4.321 -1.2621  0.3999  2.9996
  643MOL0     H84814   3.043   1.842   4.314 -0.2123 -0.9371  0.3996
  643MOL0     H84815   2.971   2.053   4.281 -0.7081 -2.4540  1.7158
  643MOL0     H84816   3.125   2.131   4.251 -0.2244  1.0926 -1.2196
  643MOL0     H84817   3.207   2.097   4.472  0.0248  1.8751  1.0532
  643MOL0     H84818   3.057   1.999   4.520  0.1344 -1.3127 -1.3064
  643MOL0     H84819   3.085   2.294   4.412  0.7958  0.1869 -0.0961
  643MOL0     H84820   2.932   2.221   4.446  1.0398  2.2604 -1.6489
  643MOL0     H84821   3.166   2.258   4.633 -0.9965 -3.2620  0.1951
  643MOL0     H84822   3.012   2.196   4.687  1.9344 -1.8809 -0.9291
  643MOL0     H84823   3.042   2.461   4.552 -0.1418  1.8672  0.3877
  643MOL0     H84824   3.041   2.455   4.737 -2.3445  0.4644  0.8425
  643MOL0     H84825   2.823   2.305   4.652  0.9798  0.1724  1.7735
  643MOL0     H84826   2.825   2.460   4.747  2.2175 -0.6018  1.3194
  643MOL0     H84827   2.808   2.451   4.437 -2.9364 -1.6111 -0.8148
  643MOL0     H84828   2.809   2.590   4.549 -2.2468 -0.0986 -0.2097
  643MOL0     H84829   2.608   2.687   4.637 -1.5705  0.5152 -1.4765
  643MOL0     H84830   2.250   2.553   4.691  0.3555  0.7072 -1.3019
  643MOL0     H84831   2.314   2.704   4.659  0.8354  1.0041  2.9051
  643MOL0     H84832   2.455   2.692   4.873  0.6843  0.3352 -2.7392
  643MOL0     H84833   2.411   2.529   4.895  1.6358  0.2482  0.9050
  643MOL0     H84834   2.178   2.731   4.879  3.9919  1.8608  0.1883
  643MOL0     H84835   2.183   2.566   4.933  1.7657 -2.7166 -1.5980
  643MOL0     H84836   2.291   2.823   5.069 -0.4230 -0.8974  1.9137
  643MOL0     H84837   2.329   2.659   5.131  0.2848 -0.7521  0.2068
  643MOL0     H84838   2.280   2.899   5.281 -1.2170 -0.2086 -0.8892
  643MOL0     H84839   2.220   2.990   5.493  1.4617  0.0932 -2.8115
  643MOL0     H84840   2.219   3.180   5.815  0.7787  3.8967 -1.9445
  643MOL0     H84841   2.181   3.375   5.969  0.3630  2.0522 -1.3203
  643MOL0     H84842   1.775   3.302   6.147 -0.6423  0.5079 -0.1348
  643MOL0     H84843   1.739   3.464   6.088 -2.1121 -0.7284  1.3001
  643MOL0     H84844   1.913   3.438   6.335  1.4459  0.4494 -2.7960
  643MOL0     H84845   1.735   3.410   6.345 -1.1172 -1.0641 -2.0732
  643MOL0     H84846   1.678   3.615   6.264 -0.2417  1.4432  0.1550
  643MOL0     H84847   1.837   3.659   6.208 -1.1939 -0.5658 -0.8210
  643MOL0     H84848   1.832   3.606   6.501  0.2782  1.3396  0.0052
  643MOL0     H84849   1.938   3.696   6.408 -0.2124  4.0153  1.0444
  643MOL0     H84850   1.793   3.883   6.391  0.0062 -1.9864 -3.0665
  643MOL0     H84851   1.790   3.843   6.551  0.4266 -0.4325  0.2614
  643MOL0     H84852   1.555   3.791   6.364 -1.4597  1.2021  1.0342
  643MOL0     H84853   1.571   3.884   6.513 -0.1938  0.2929 -2.0296
  643MOL0     H84854   1.591   3.589   6.472 -2.6160 -1.4270 -0.5190
  643MOL0     H84855   1.600   3.664   6.626  0.5844 -3.3522 -0.5435
  643MOL0     H84856   1.366   3.636   6.452 -0.0805  0.8436 -0.9785
  643MOL0     H84857   1.364   3.756   6.595 -0.2129 -0.8097  0.0488
  643MOL0     H84858   1.752   3.280   5.927 -0.8621 -0.3852  0.0517
  643MOL0     H84859   1.801   3.109   5.771  2.0580 -3.2609 -0.5688
  643MOL0     H84860   1.843   2.781   5.484 -0.1025  1.6140 -0.1822
  643MOL0     H84861   1.914   2.692   5.259  0.5035  0.9619 -2.3356
  643MOL0     H84862   3.217   1.848   3.890  0.5153 -0.4235 -1.5861
  643MOL0     H84863   3.335   1.647   3.809 -0.4221  0.6584  0.1322
  643MOL0     H84864   3.743   1.312   4.109 -1.7349 -3.0971  2.6802
  643MOL0     H84865   3.874   1.134   4.026 -0.9617  3.3310  1.9692
  643MOL0     H84866   3.833   0.891   3.988  0.6471 -1.5615 -0.0338
  643MOL0     H84867   3.976   0.983   3.948 -1.2936  2.0031 -1.0812
  643MOL0     H84868   4.035   0.751   3.933  1.5463 -4.2683 -2.4979
  643MOL0     H84869   3.902   0.722   3.820 -0.0685 -0.5928  2.1263
  643MOL0     H84870   4.128   0.928   3.730  3.8906 -1.3725 -2.7951
  643MOL0     H84871   4.018   0.834   3.642 -1.0981  0.7538  1.3966
  643MOL0     H84872   4.137   0.620   3.706  1.2301 -0.7544 -1.1802
  643MOL0     H84873   4.248   0.737   3.631  0.7026 -0.9902  0.5183
  643MOL0     H84874   4.420   0.720   4.004 -0.1068 -4.6133  1.1397
  643MOL0     H84875   3.627   1.076   3.687 -1.2608  2.3139 -1.3623
  643MOL0     H84876   3.471   1.261   3.784 -0.0968  0.5489  0.3537
  644MOL0     O84877   2.818   7.370   6.980 -0.7033  0.4791 -0.0467
  644MOL0     C84878   2.779   7.369   7.094 -0.2160 -0.3576 -0.1873
  644MOL0     O84879   2.747   7.267   7.168  0.1999 -0.0661 -0.3147
  644MOL0     C84880   2.758   7.135   7.129 -0.0741  0.4770 -0.6538
  644MOL0     C84881   2.741   7.090   6.993  1.1343 -0.1353  0.3270
  644MOL0     C84882   2.751   6.957   6.970  0.9051 -0.5948 -0.1952
  644MOL0     C84883   2.770   6.863   7.068 -0.6511  0.6071  1.2624
  644MOL0     O84884   2.772   6.730   7.038 -1.0746  0.7806  0.5165
  644MOL0     C84885   2.654   6.664   7.083  0.5278 -0.6093 -0.3129
  644MOL0     C84886   2.667   6.522   7.040 -0.3068 -0.5753  0.7726
  644MOL0     C84887   2.775   6.436   7.108 -0.1957  0.2687  0.2379
  644MOL0     C84888   2.844   6.344   7.006  0.8199  0.1918  0.9260
  644MOL0     C84889   2.927   6.225   7.055 -0.7502  0.9240  0.0437
  644MOL0     C84890   2.832   6.131   7.126  0.2212  0.0825 -1.1597
  644MOL0     C84891   2.886   6.001   7.170 -0.8909 -0.3779  0.3812
  644MOL0     C84892   2.930   5.908   7.062 -0.6883  0.5023 -0.1978
  644MOL0     N84893   2.935   5.770   7.131 -0.4435  0.4796 -0.2378
  644MOL0     C84894   2.832   5.695   7.165  1.0208  0.1668 -1.3939
  644MOL0     C84895   2.884   5.569   7.171 -0.1350  0.7387 -0.1043
  644MOL0     C84896   2.820   5.439   7.219  0.4509 -0.7331  0.8577
  644MOL0     C84897   2.759   5.449   7.355 -0.6827  0.5185  1.1294
  644MOL0     C84898   2.877   5.442   7.450  0.2184 -0.2274  0.5911
  644MOL0     C84899   2.841   5.424   7.600  0.9353  0.3743  1.0438
  644MOL0     O84900   2.766   5.297   7.613  0.2715  0.0004 -0.7323
  644MOL0     C84901   2.832   5.174   7.611 -0.5255 -0.6792 -0.4840
  644MOL0     C84902   2.758   5.067   7.578  0.1692  0.2737  0.9867
  644MOL0     C84903   2.813   4.937   7.555  0.3678 -0.5322 -0.5065
  644MOL0     C84904   2.954   4.918   7.589  0.2436  0.1022 -0.4640
  644MOL0     C84905   3.010   4.782   7.578  0.1080  0.1982  0.1551
  644MOL0     O84906   3.148   4.791   7.574 -0.4152  0.9492 -0.3102
  644MOL0     C84907   3.212   4.680   7.531 -0.4501  0.1150 -0.5668
  644MOL0     C84908   3.186   4.552   7.597 -0.0646  0.3977 -0.3834
  644MOL0     C84909   3.262   4.434   7.564  0.0133 -0.0795  0.3635
  644MOL0     C84910   3.362   4.444   7.465 -0.2240 -0.3967  0.7288
  644MOL0     O84911   3.413   4.322   7.420 -0.0452  0.4506 -0.1779
  644MOL0     C84912   3.549   4.323   7.381  0.6043  1.6574  0.3831
  644MOL0     C84913   3.577   4.171   7.355 -0.1392 -0.4557 -0.0787
  644MOL0     C84914   3.703   4.158   7.274 -0.6153 -0.6373  0.7506
  644MOL0     C84915   3.727   4.020   7.221 -0.6516  0.5768  0.8019
  644MOL0     C84916   3.860   3.997   7.131  0.1280 -1.1379 -0.3370
  644MOL0     C84917   3.952   4.114   7.112  1.1172  0.0194  0.1167
  644MOL0     C84918   4.088   4.071   7.061  0.2413  0.1003 -0.2138
  644MOL0     C84919   4.077   4.008   6.924 -0.4549  0.4953 -0.8212
  644MOL0    Cl84920   4.020   4.119   6.795  0.1548  0.0696  0.1562
  644MOL0     C84921   3.378   4.569   7.398  0.1426 -0.3577 -0.1706
  644MOL0     C84922   3.310   4.679   7.437  0.9406 -1.1948  0.7463
  644MOL0     O84923   2.942   4.685   7.553  0.3921  0.6925  0.6796
  644MOL0     C84924   3.036   5.034   7.604  0.1354 -0.2283 -0.0052
  644MOL0     C84925   2.972   5.155   7.630  0.6153 -0.3279 -0.3202
  644MOL0     N84926   3.020   5.576   7.142 -0.4384  0.7021  0.5627
  644MOL0     N84927   3.050   5.697   7.120  0.2464 -0.0202 -0.1193
  644MOL0     C84928   2.766   6.905   7.199  0.8630  0.3780  0.3713
  644MOL0     C84929   2.757   7.034   7.231 -0.0033  0.0005  0.3659
  644MOL0     C84930   2.781   7.506   7.160  0.7317 -0.1712  0.0137
  644MOL0     C84931   2.695   7.526   7.268  0.0949 -0.7652  0.1792
  644MOL0     C84932   2.698   7.640   7.342  0.3187 -0.3887  0.2920
  644MOL0     C84933   2.794   7.734   7.309  0.2102 -0.0103 -1.1009
  644MOL0     O84934   2.821   7.848   7.375 -0.0544 -0.1937  0.2604
  644MOL0     C84935   2.732   7.902   7.474 -0.0622 -1.6392  0.7047
  644MOL0     C84936   2.642   8.016   7.415 -0.5540  1.0401 -0.4759
  644MOL0     C84937   2.701   8.099   7.308 -0.0845 -0.1334 -0.7752
  644MOL0     C84938   2.595   8.200   7.263 -0.0865 -1.0820  0.3362
  644MOL0     C84939   2.564   8.317   7.347 -0.5519 -0.6853 -0.9912
  644MOL0     C84940   2.551   8.411   7.422  0.3759 -0.2777 -0.6702
  644MOL0     C84941   2.882   7.721   7.200 -0.5163  1.1202  0.3628
  644MOL0     C84942   2.873   7.608   7.123 -0.2505 -0.0527  0.6477
  644MOL0     H84943   2.730   7.158   6.909 -0.7986  0.3122  0.8921
  644MOL0     H84944   2.763   6.927   6.866  1.6257  2.0474 -0.9518
  644MOL0     H84945   2.569   6.704   7.028  0.6690  0.0709 -0.0543
  644MOL0     H84946   2.640   6.667   7.192  0.3143 -1.2671 -0.3151
  644MOL0     H84947   2.673   6.530   6.931  0.0506  1.7038  0.9155
  644MOL0     H84948   2.566   6.488   7.062 -1.3764 -0.3830 -3.1109
  644MOL0     H84949   2.724   6.365   7.174  1.2782 -0.0564  1.0650
  644MOL0     H84950   2.845   6.506   7.154 -3.1916  4.7340 -1.3466
  644MOL0     H84951   2.772   6.307   6.934  2.6008 -0.8588 -0.3988
  644MOL0     H84952   2.894   6.408   6.932  0.9725 -1.3934 -0.3854
  644MOL0     H84953   3.005   6.267   7.119 -0.6979  0.8008  0.0617
  644MOL0     H84954   2.980   6.177   6.972 -0.0978  2.6035 -0.5487
  644MOL0     H84955   2.739   6.109   7.073 -1.5416  0.8233  1.4252
  644MOL0     H84956   2.804   6.184   7.218  3.0442 -2.6344  1.5168
  644MOL0     H84957   2.952   6.014   7.256 -0.2306  0.8198 -0.2819
  644MOL0     H84958   2.803   5.947   7.215  1.1374 -2.4435  1.8524
  644MOL0     H84959   3.029   5.921   7.018 -1.2328 -0.0925 -1.6353
  644MOL0     H84960   2.856   5.914   6.982 -1.9102 -1.2810  0.7176
  644MOL0     H84961   2.728   5.728   7.167  0.7692 -0.4155 -3.3230
  644MOL0     H84962   2.882   5.349   7.214 -2.6779 -2.9969 -0.1189
  644MOL0     H84963   2.740   5.412   7.150 -1.9485 -1.5277  3.7756
  644MOL0     H84964   2.700   5.360   7.376  0.5969 -0.9378 -1.0346
  644MOL0     H84965   2.689   5.533   7.353 -0.5987  0.6156  1.9955
  644MOL0     H84966   2.943   5.361   7.420  2.0606  1.4255 -0.0040
  644MOL0     H84967   2.939   5.530   7.433 -0.1501 -0.3874 -2.1143
  644MOL0     H84968   2.788   5.512   7.635  1.6420  0.6688  1.3830
  644MOL0     H84969   2.932   5.422   7.659  2.1732  2.0353 -0.6999
  644MOL0     H84970   2.650   5.076   7.564  0.0797  0.1054  1.5621
  644MOL0     H84971   2.729   4.877   7.522 -0.5383 -0.1121  0.9244
  644MOL0     H84972   3.101   4.549   7.665 -0.3047 -3.2128 -0.6400
  644MOL0     H84973   3.229   4.339   7.604  1.1006 -2.2138 -3.3252
  644MOL0     H84974   3.614   4.366   7.457  4.6707 -3.3514  0.2777
  644MOL0     H84975   3.562   4.376   7.286  2.4039 -0.4273 -0.6299
  644MOL0     H84976   3.493   4.136   7.293  0.0883  1.1476 -1.3560
  644MOL0     H84977   3.574   4.106   7.443 -3.9232 -1.7700 -0.9906
  644MOL0     H84978   3.789   4.187   7.335  0.4707  1.5572 -1.6441
  644MOL0     H84979   3.708   4.236   7.198  0.1527 -2.1042 -0.7618
  644MOL0     H84980   3.735   3.943   7.299  1.2758 -3.0119 -2.5934
  644MOL0     H84981   3.634   3.986   7.174 -1.4147 -0.3216  2.8502
  644MOL0     H84982   3.819   3.978   7.032 -0.8567  2.0892 -0.6717
  644MOL0     H84983   3.916   3.911   7.168  0.9075 -0.8092 -0.7382
  644MOL0     H84984   3.965   4.175   7.203  1.1293 -0.1190  0.2084
  644MOL0     H84985   3.910   4.180   7.036 -0.1039  2.5158  2.7510
  644MOL0     H84986   4.162   4.152   7.061 -1.1177  1.4284 -1.7101
  644MOL0     H84987   4.129   3.995   7.128  0.0104  0.2168  0.0606
  644MOL0     H84988   4.012   3.920   6.929 -1.3203  1.1238 -0.6497
  644MOL0     H84989   4.174   3.970   6.892 -0.7717 -0.7773 -0.3155
  644MOL0     H84990   3.451   4.572   7.318  0.1549  2.5417 -0.1434
  644MOL0     H84991   3.323   4.775   7.386 -0.6332 -0.7491  1.1199
  644MOL0     H84992   3.143   5.042   7.619  0.0166 -0.4413  1.0456
  644MOL0     H84993   3.030   5.237   7.670 -1.7839  1.1648  0.2710
  644MOL0     H84994   2.766   6.840   7.286 -1.6988  1.9732  1.7247
  644MOL0     H84995   2.762   7.068   7.334 -0.5661  1.3170 -0.0291
  644MOL0     H84996   2.626   7.450   7.304  0.8396 -1.6108 -0.1288
  644MOL0     H84997   2.637   7.653   7.431  2.4952  4.6090  1.3936
  644MOL0     H84998   2.787   7.941   7.561 -2.0651  4.5790 -0.3238
  644MOL0     H84999   2.662   7.828   7.513  0.7375 -2.9934 -0.3725
  644MOL0     H85000   2.561   7.966   7.362  1.2429 -2.5668 -0.1670
  644MOL0     H85001   2.606   8.071   7.502  4.2540 -1.0116  3.3621
  644MOL0     H85002   2.722   8.038   7.220  0.0898 -3.2314  1.2475
  644MOL0     H85003   2.787   8.153   7.348 -3.1850  3.1948  2.0045
  644MOL0     H85004   2.641   8.237   7.171  1.8444  0.3985  1.8244
  644MOL0     H85005   2.500   8.150   7.244 -2.0702  2.4008  0.3364
  644MOL0     H85006   2.544   8.492   7.492  2.8402 -1.0394  0.5965
  644MOL0     H85007   2.959   7.798   7.202  1.9828 -1.1878  2.8938
  644MOL0     H85008   2.936   7.598   7.035 -0.7609  1.6026  0.0781
  645MOL0     O85009   2.180   2.973  10.230  0.3922  0.2846 -0.2237
  645MOL0     C85010   2.172   3.043  10.133  0.9772  0.0111  0.9936
  645MOL0     O85011   2.275   3.081  10.055  0.0395 -0.1915 -0.0591
  645MOL0     C85012   2.408   3.042  10.080  0.1294  0.4667  0.0115
  645MOL0     C85013   2.478   3.004  10.196 -0.2217 -0.0588  0.1383
  645MOL0     C85014   2.614   2.979  10.195 -0.5843 -0.8064 -0.1694
  645MOL0     C85015   2.690   2.976  10.077 -0.3417  0.5021 -0.5676
  645MOL0     O85016   2.828   2.946  10.091  0.3143  0.1722  0.4344
  645MOL0     C85017   2.887   2.889   9.977 -0.0290 -0.7981 -0.7133
  645MOL0     C85018   3.034   2.856  10.004 -0.3769 -0.9152 -0.5621
  645MOL0     C85019   3.046   2.740  10.097  0.3937 -0.4657 -0.5243
  645MOL0     C85020   3.195   2.719  10.117  0.2992  0.0206 -0.5298
  645MOL0     C85021   3.229   2.592  10.191  0.0509  0.2359 -0.2257
  645MOL0     C85022   3.229   2.619  10.347 -0.2630  0.2850 -0.4955
  645MOL0     C85023   3.290   2.492  10.420 -0.2275  0.1606 -0.7922
  645MOL0     C85024   3.268   2.501  10.572  0.0966 -0.0582  0.2276
  645MOL0     N85025   3.373   2.588  10.627  0.4825  0.2781  0.7069
  645MOL0     C85026   3.508   2.571  10.610  0.8993  0.0528  0.8563
  645MOL0     C85027   3.563   2.666  10.686  0.6935 -0.0239  0.5283
  645MOL0     C85028   3.714   2.683  10.719 -0.2620  1.0969 -0.4325
  645MOL0     C85029   3.743   2.613  10.855  0.9248  0.0172 -0.5250
  645MOL0     C85030   3.685   2.470  10.872  0.1695  0.4289  0.2653
  645MOL0     C85031   3.760   2.376  10.779  0.3837 -1.0591  0.2011
  645MOL0     O85032   3.720   2.243  10.823 -0.6354  0.0776 -0.3222
  645MOL0     C85033   3.592   2.196  10.796 -0.6395  1.0766 -0.1328
  645MOL0     C85034   3.505   2.132  10.881  0.2599  0.3000  0.7281
  645MOL0     C85035   3.375   2.101  10.848  0.0274 -0.3376  0.4414
  645MOL0     C85036   3.321   2.133  10.722  0.4919 -0.2028  0.5808
  645MOL0     C85037   3.188   2.092  10.676 -1.0377  1.1524  0.0203
  645MOL0     O85038   3.160   2.114  10.547 -0.0534 -0.0486  0.1002
  645MOL0     C85039   3.035   2.081  10.508  0.1023  0.2361 -0.1084
  645MOL0     C85040   3.019   1.965  10.431 -0.3284 -0.4186 -0.2256
  645MOL0     C85041   2.892   1.928  10.393  0.0027 -0.4434 -0.2888
  645MOL0     C85042   2.784   2.007  10.429 -0.6278  0.2982 -2.1705
  645MOL0     O85043   2.655   1.968  10.396 -0.2989  0.1132  0.1485
  645MOL0     C85044   2.603   1.979  10.263  0.2775  0.4930 -0.2792
  645MOL0     C85045   2.461   2.038  10.298  0.0823  0.3113  0.5543
  645MOL0     C85046   2.383   2.062  10.171 -0.4576  0.0915  0.9284
  645MOL0     C85047   2.230   2.082  10.195 -0.0793  0.3080 -0.3977
  645MOL0     C85048   2.150   2.055  10.065 -0.3049 -0.6245 -1.2187
  645MOL0     C85049   1.997   2.079  10.075 -0.5751 -0.6783  0.0399
  645MOL0     C85050   1.945   1.943  10.138 -0.2720  0.1771 -0.2772
  645MOL0     C85051   1.788   1.929  10.114  0.1183 -0.9946 -0.8198
  645MOL0    Cl85052   1.745   1.863   9.950 -0.2446 -0.2512  0.1940
  645MOL0     C85053   2.804   2.117  10.512 -0.5893 -0.0683 -0.1974
  645MOL0     C85054   2.925   2.162  10.540 -0.6635 -0.1290 -0.9914
  645MOL0     O85055   3.112   2.036  10.762  0.4086 -0.0352  0.6701
  645MOL0     C85056   3.417   2.191  10.634 -0.2323 -0.0224 -0.1754
  645MOL0     C85057   3.544   2.224  10.668  0.8854  0.2579  0.0813
  645MOL0     N85058   3.464   2.741  10.743 -0.5150  0.3978 -0.5528
  645MOL0     N85059   3.348   2.703  10.698 -0.3974 -0.0358  0.8234
  645MOL0     C85060   2.623   2.997   9.952 -0.6386 -0.6033  0.5003
  645MOL0     C85061   2.481   3.038   9.961 -0.0354 -0.2834 -0.4157
  645MOL0     C85062   2.036   3.103  10.102  0.3859  0.5794 -0.7033
  645MOL0     C85063   2.005   3.156   9.980 -1.5267 -1.1867 -0.8814
  645MOL0     C85064   1.888   3.214   9.945 -0.2602 -0.0387  0.9894
  645MOL0     C85065   1.785   3.208  10.033  0.0760  0.4267  0.9105
  645MOL0     O85066   1.673   3.271   9.996 -0.5581  0.9032  1.0924
  645MOL0     C85067   1.556   3.254  10.077 -0.0252 -0.2176 -0.0146
  645MOL0     C85068   1.455   3.356  10.024 -0.2196 -0.4771  0.0348
  645MOL0     C85069   1.333   3.375  10.109  0.6805  0.0168 -0.4314
  645MOL0     C85070   1.228   3.261  10.105 -0.1170  0.7519 -1.2028
  645MOL0     C85071   1.098   3.310  10.138  0.5011  0.8048  0.4440
  645MOL0     C85072   0.983   3.326  10.155 -0.2994  0.0934  0.5497
  645MOL0     C85073   1.804   3.160  10.163  0.1925 -0.0104 -0.1082
  645MOL0     C85074   1.928   3.097  10.196  0.9903 -1.2533  0.2780
  645MOL0     H85075   2.433   2.994  10.294 -0.2299  0.9449  0.2462
  645MOL0     H85076   2.651   2.967  10.296 -2.5778  3.1154  1.2624
  645MOL0     H85077   2.885   2.956   9.891 -0.5646 -1.5750 -1.3280
  645MOL0     H85078   2.835   2.796   9.951  1.8885 -2.1143 -0.0916
  645MOL0     H85079   3.087   2.940  10.049  0.1377 -1.0553 -0.8910
  645MOL0     H85080   3.087   2.835   9.910  0.3428 -0.6931 -0.2176
  645MOL0     H85081   3.005   2.650  10.049  0.3713 -0.9237  0.3415
  645MOL0     H85082   2.999   2.751  10.195 -0.6854  2.0791 -1.2302
  645MOL0     H85083   3.238   2.712  10.016 -1.5100  3.4361 -1.6679
  645MOL0     H85084   3.242   2.805  10.166  0.6421 -1.4289  1.8507
  645MOL0     H85085   3.324   2.549  10.159  0.0339 -0.3927  0.5382
  645MOL0     H85086   3.160   2.512  10.162 -0.9148  0.8683  0.2605
  645MOL0     H85087   3.126   2.642  10.375  0.2386  2.2163 -0.1198
  645MOL0     H85088   3.289   2.703  10.384 -2.5893  1.9341 -0.2788
  645MOL0     H85089   3.235   2.402  10.390 -0.0593 -0.0757 -0.4062
  645MOL0     H85090   3.396   2.480  10.398  0.6598  5.7347 -0.9668
  645MOL0     H85091   3.255   2.400  10.613 -0.4272 -0.5901 -1.2027
  645MOL0     H85092   3.174   2.553  10.594 -0.2551 -0.7545  0.4061
  645MOL0     H85093   3.558   2.491  10.556 -1.8585  0.1457 -2.1546
  645MOL0     H85094   3.749   2.786  10.722  0.1611  0.9767  2.7381
  645MOL0     H85095   3.784   2.636  10.650 -1.8927 -1.9021 -0.2358
  645MOL0     H85096   3.686   2.664  10.933  0.6800 -0.3405 -0.4649
  645MOL0     H85097   3.850   2.620  10.875  0.2983  1.8187  2.9890
  645MOL0     H85098   3.697   2.434  10.975 -1.8274  0.4822  0.5728
  645MOL0     H85099   3.579   2.468  10.843  0.3986  1.9502 -0.7858
  645MOL0     H85100   3.867   2.396  10.794 -0.1005  2.2731 -0.1289
  645MOL0     H85101   3.743   2.406  10.675 -3.5039  0.9196  1.2413
  645MOL0     H85102   3.533   2.090  10.977  0.5557 -0.1566  0.4441
  645MOL0     H85103   3.304   2.050  10.912 -1.0238  0.6146  0.0692
  645MOL0     H85104   3.095   1.890  10.416 -0.4164 -1.4011  3.3559
  645MOL0     H85105   2.877   1.828  10.355 -2.5127 -0.5799  0.8569
  645MOL0     H85106   2.607   1.882  10.213 -2.1691  0.5143 -0.6357
  645MOL0     H85107   2.668   2.043  10.203  1.9473 -1.3950 -0.5999
  645MOL0     H85108   2.470   2.138  10.342  2.0382 -0.3220  1.6987
  645MOL0     H85109   2.405   1.970  10.364 -1.0170  0.3599 -0.2946
  645MOL0     H85110   2.386   1.967  10.118 -2.3419  0.8001 -0.5739
  645MOL0     H85111   2.428   2.140  10.108 -0.1089 -1.0444 -0.2551
  645MOL0     H85112   2.189   2.014  10.271  0.3492 -2.6102 -2.5688
  645MOL0     H85113   2.219   2.186  10.225  0.2853  0.6770 -1.4696
  645MOL0     H85114   2.165   1.951  10.036 -1.8972 -1.4382  0.6346
  645MOL0     H85115   2.193   2.133  10.001  3.6672 -1.0089  0.6830
  645MOL0     H85116   1.959   2.095   9.974  3.5734 -1.8538 -1.9168
  645MOL0     H85117   1.976   2.161  10.144  5.0465  2.3789 -1.2734
  645MOL0     H85118   1.993   1.855  10.094  0.2837  0.2272  0.2230
  645MOL0     H85119   1.976   1.955  10.242 -0.4166 -0.8980 -0.0985
  645MOL0     H85120   1.734   2.021  10.140  2.5555 -0.3285  2.5670
  645MOL0     H85121   1.745   1.859  10.186 -2.0325  3.3294  2.5622
  645MOL0     H85122   2.712   2.160  10.551 -0.3211 -1.8870  2.7647
  645MOL0     H85123   2.935   2.258  10.591  1.0482 -1.0508  0.4934
  645MOL0     H85124   3.395   2.202  10.529  2.2982 -0.7273 -0.8314
  645MOL0     H85125   3.611   2.287  10.609  2.1518 -0.0872  1.0982
  645MOL0     H85126   2.672   2.992   9.855  1.6499  2.5374  1.3409
  645MOL0     H85127   2.423   3.062   9.873 -0.2579 -2.0931 -0.8039
  645MOL0     H85128   2.087   3.158   9.908  0.2941 -2.1186  1.0489
  645MOL0     H85129   1.874   3.256   9.846 -2.5548 -1.7856  0.4956
  645MOL0     H85130   1.576   3.296  10.175  2.6940  2.6923 -1.6498
  645MOL0     H85131   1.522   3.150  10.066  0.0736 -0.3834  1.1444
  645MOL0     H85132   1.489   3.460  10.015 -1.5554 -0.1195 -1.1820
  645MOL0     H85133   1.429   3.318   9.925 -0.5367  1.9351 -0.8888
  645MOL0     H85134   1.304   3.471  10.067  3.9807  1.2995 -0.1192
  645MOL0     H85135   1.362   3.397  10.212 -0.1420  0.1088 -0.2109
  645MOL0     H85136   1.222   3.196  10.018 -0.8380  1.5529 -1.7699
  645MOL0     H85137   1.260   3.205  10.193 -1.4562 -2.2402 -2.4656
  645MOL0     H85138   0.877   3.322  10.172 -0.1536  0.7212  1.7447
  645MOL0     H85139   1.740   3.172  10.249  0.0272 -3.4236  0.3808
  645MOL0     H85140   1.949   3.059  10.295  1.3427 -1.6186  0.0680
  646MOL0     O85141   9.304   9.865   2.268  0.1382  0.2232 -0.1179
  646MOL0     C85142   9.213   9.789   2.229 -0.2100 -0.6904 -1.0536
  646MOL0     O85143   9.126   9.818   2.125 -0.0376  0.1941  0.1247
  646MOL0     C85144   9.140   9.949   2.076  1.4403  0.0287  0.6430
  646MOL0     C85145   9.226   9.981   1.977  0.1634  0.4772  0.0318
  646MOL0     C85146   9.221  10.115   1.921 -0.2367  0.5283  0.1356
  646MOL0     C85147   9.136  10.214   1.973 -0.4886  0.4671  0.5486
  646MOL0     O85148   9.133  10.331   1.909 -0.7358 -0.1481  0.3157
  646MOL0     C85149   9.047  10.437   1.960 -0.1644 -0.3506  0.2217
  646MOL0     C85150   9.066  10.551   1.857  0.2742  0.0055  0.4172
  646MOL0     C85151   9.017  10.497   1.722  0.3245  0.0786 -0.3376
  646MOL0     C85152   8.972  10.602   1.621 -0.5417  0.1633 -0.3162
  646MOL0     C85153   9.075  10.692   1.558  0.3991 -1.0007 -0.4292
  646MOL0     C85154   9.087  10.822   1.643  0.0118  0.3065  0.4078
  646MOL0     C85155   9.202  10.898   1.577 -0.8133  0.2049  0.4024
  646MOL0     C85156   9.174  10.942   1.434  0.1881  0.2787  0.1953
  646MOL0     N85157   9.289  11.016   1.378 -0.1722 -0.3301  0.6623
  646MOL0     C85158   9.277  11.086   1.264 -0.4872 -0.7658 -0.7747
  646MOL0     C85159   9.390  11.163   1.263 -0.4512  0.1987 -0.2397
  646MOL0     C85160   9.419  11.272   1.164  0.4983  0.7290  0.2081
  646MOL0     C85161   9.369  11.410   1.212  0.4705  0.5905 -0.1238
  646MOL0     C85162   9.225  11.428   1.205 -0.2596  0.3034  0.3708
  646MOL0     C85163   9.170  11.469   1.063  0.2441 -0.0101  0.2138
  646MOL0     O85164   9.020  11.455   1.068 -1.1649  0.6176 -0.3772
  646MOL0     C85165   8.949  11.470   0.951  0.6067  0.8269  0.2468
  646MOL0     C85166   8.821  11.427   0.948  0.2081 -0.0439  0.3422
  646MOL0     C85167   8.758  11.397   0.818 -0.3320  0.0896 -0.5915
  646MOL0     C85168   8.821  11.435   0.700  0.4370 -0.0401 -1.0472
  646MOL0     C85169   8.754  11.405   0.573 -0.3964  0.1773 -0.8466
  646MOL0     O85170   8.627  11.349   0.572 -0.7560 -0.0492  0.1789
  646MOL0     C85171   8.577  11.331   0.445  0.1623  0.3455 -0.3392
  646MOL0     C85172   8.634  11.248   0.359 -0.2436  0.8266 -0.1918
  646MOL0     C85173   8.570  11.207   0.236  0.4209  0.2042 -0.0761
  646MOL0     C85174   8.448  11.254   0.208  0.4800  0.5540  0.5236
  646MOL0     O85175   8.396  11.196   0.093 -0.1822 -0.1838 -0.0712
  646MOL0     C85176   8.350  11.289   0.002  0.6088  0.2785 -0.4495
  646MOL0     C85177   8.327  11.229  -0.136  0.5433 -0.1079 -1.2503
  646MOL0     C85178   8.218  11.128  -0.167 -1.3966 -0.2671  0.2186
  646MOL0     C85179   8.075  11.166  -0.181 -0.2013  0.0732  0.2585
  646MOL0     C85180   7.977  11.045  -0.168  0.6957  0.2375 -0.4605
  646MOL0     C85181   7.975  10.952  -0.289  0.2771  1.9811  0.1798
  646MOL0     C85182   7.859  10.852  -0.265  0.5771  0.6931  0.1134
  646MOL0     C85183   7.868  10.746  -0.381  0.5917 -0.8696 -0.6366
  646MOL0    Cl85184   7.702  10.678  -0.396 -0.3951  0.0270  0.2051
  646MOL0     C85185   8.383  11.336   0.296 -0.0651  0.0764 -0.9621
  646MOL0     C85186   8.445  11.375   0.417  0.5895  0.3694 -0.6043
  646MOL0     O85187   8.820  11.451   0.480 -0.4224  0.2325 -0.1198
  646MOL0     C85188   8.937  11.511   0.708 -0.3668  0.3339 -0.2385
  646MOL0     C85189   9.004  11.529   0.831  0.2661 -0.1588 -0.9938
  646MOL0     N85190   9.473  11.133   1.373  0.3241 -0.2418 -0.2662
  646MOL0     N85191   9.411  11.044   1.442 -0.3948 -0.4886 -0.3587
  646MOL0     C85192   9.055  10.180   2.082  0.2418 -0.2211  0.4208
  646MOL0     C85193   9.048  10.045   2.128 -0.0273  0.9343 -0.1920
  646MOL0     C85194   9.198   9.663   2.305 -0.5277  0.0017  0.5312
  646MOL0     C85195   9.184   9.541   2.238  0.9291  0.8036  0.3241
  646MOL0     C85196   9.176   9.417   2.300  0.1246  0.4975 -0.3451
  646MOL0     C85197   9.197   9.409   2.436  0.2492  0.0463 -0.2547
  646MOL0     O85198   9.182   9.282   2.488 -0.7421 -0.9031  0.6020
  646MOL0     C85199   9.182   9.259   2.633  0.4830  0.0654  1.4533
  646MOL0     C85200   9.126   9.126   2.676  0.4854  0.7912  0.1668
  646MOL0     C85201   8.974   9.110   2.705  1.0499 -0.2772 -0.4618
  646MOL0     C85202   8.938   8.967   2.727 -0.2046 -0.0130 -1.1708
  646MOL0     C85203   8.954   8.918   2.860 -0.3288  0.2943 -0.5674
  646MOL0     C85204   8.948   8.876   2.967  0.0281  0.0426 -0.1243
  646MOL0     C85205   9.232   9.524   2.509 -0.8519  0.4268  0.0302
  646MOL0     C85206   9.231   9.654   2.445  0.5196 -0.0775 -0.8133
  646MOL0     H85207   9.275   9.899   1.925 -1.4927 -1.5566  1.5089
  646MOL0     H85208   9.277  10.147   1.834  1.1567  2.5612  1.7046
  646MOL0     H85209   9.083  10.482   2.053 -0.8145 -0.9401  0.7704
  646MOL0     H85210   8.944  10.402   1.972 -0.7967  0.8499 -1.3186
  646MOL0     H85211   9.171  10.581   1.847  0.1686 -0.2514 -1.7450
  646MOL0     H85212   9.017  10.644   1.885  0.8672  0.4913 -0.1193
  646MOL0     H85213   8.929  10.437   1.747 -0.2344  1.3020  0.7397
  646MOL0     H85214   9.086  10.427   1.673 -0.7088 -1.1410 -0.1148
  646MOL0     H85215   8.932  10.548   1.535  0.6520  0.4652 -1.0809
  646MOL0     H85216   8.896  10.657   1.677  0.1929 -0.0332  0.9215
  646MOL0     H85217   9.030  10.718   1.462 -3.4180  4.8352  2.3345
  646MOL0     H85218   9.174  10.649   1.540 -0.6768 -2.7600 -2.6464
  646MOL0     H85219   9.123  10.782   1.738 -0.6128 -4.1608 -0.9970
  646MOL0     H85220   8.987  10.866   1.651 -1.2899 -1.8056 -2.3332
  646MOL0     H85221   9.227  10.991   1.628 -0.1111  0.2571 -0.0139
  646MOL0     H85222   9.290  10.833   1.567 -1.4763 -0.8364  1.1666
  646MOL0     H85223   9.080  10.997   1.436  1.4340  2.5091  1.8879
  646MOL0     H85224   9.156  10.855   1.370 -4.8419  0.9903  0.2485
  646MOL0     H85225   9.191  11.075   1.198  2.2024 -1.3759 -4.4671
  646MOL0     H85226   9.366  11.246   1.072 -1.4372  1.0003  1.2157
  646MOL0     H85227   9.527  11.284   1.150  0.7812 -1.3435  0.3674
  646MOL0     H85228   9.418  11.487   1.152 -0.1565  2.4997  1.6773
  646MOL0     H85229   9.412  11.431   1.311  3.1727  0.0271 -1.0839
  646MOL0     H85230   9.184  11.328   1.220 -0.6984 -0.0926 -2.6849
  646MOL0     H85231   9.186  11.500   1.278 -1.6285  0.0075 -0.0356
  646MOL0     H85232   9.201  11.411   0.976 -2.0223 -0.1677 -0.5489
  646MOL0     H85233   9.211  11.570   1.059  0.7167 -0.1977  0.2923
  646MOL0     H85234   8.770  11.391   1.037  0.6078  0.0313  0.6067
  646MOL0     H85235   8.657  11.359   0.816 -0.1510 -0.3741 -1.2330
  646MOL0     H85236   8.719  11.192   0.395 -1.6610 -1.4427 -0.1942
  646MOL0     H85237   8.623  11.146   0.163 -1.7185 -0.5260 -1.0911
  646MOL0     H85238   8.417  11.375  -0.006 -0.0999  0.9230  0.3478
  646MOL0     H85239   8.257  11.334   0.038  0.9319  1.5734 -1.1463
  646MOL0     H85240   8.421  11.174  -0.149 -0.2496 -1.7265 -0.5547
  646MOL0     H85241   8.330  11.306  -0.213 -0.5923  0.3963 -0.8095
  646MOL0     H85242   8.216  11.053  -0.088  3.6223  2.7739  3.7994
  646MOL0     H85243   8.244  11.085  -0.265  1.7946 -3.1013  2.1023
  646MOL0     H85244   8.036  11.240  -0.109 -1.7612  0.8932 -1.3506
  646MOL0     H85245   8.075  11.218  -0.277  1.8035  0.1374  0.2592
  646MOL0     H85246   7.875  11.080  -0.153 -0.0095 -2.3609  1.5639
  646MOL0     H85247   8.008  10.998  -0.074 -0.5473  1.7683  0.7636
  646MOL0     H85248   8.065  10.897  -0.318 -0.3230 -0.5953  2.7833
  646MOL0     H85249   7.951  11.013  -0.377  0.4982  0.5330 -0.9230
  646MOL0     H85250   7.866  10.800  -0.169 -1.2233 -0.0227 -0.1009
  646MOL0     H85251   7.764  10.905  -0.265  0.7646  1.0840  1.5299
  646MOL0     H85252   7.944  10.669  -0.365 -2.6608 -3.8894  2.4395
  646MOL0     H85253   7.893  10.795  -0.475 -0.0996  0.5589 -0.1076
  646MOL0     H85254   8.279  11.363   0.281 -0.8601 -2.6016 -0.8123
  646MOL0     H85255   8.390  11.423   0.497  1.0131  0.4400 -0.3478
  646MOL0     H85256   8.988  11.564   0.628  0.3105  1.1763  0.7244
  646MOL0     H85257   9.095  11.585   0.847  1.3455 -2.4756  2.2962
  646MOL0     H85258   8.982  10.243   2.133  0.6746  0.2405  0.4787
  646MOL0     H85259   8.968  10.010   2.193  1.7641 -0.1895  1.5252
  646MOL0     H85260   9.156   9.542   2.133 -1.2895 -0.1139  0.8507
  646MOL0     H85261   9.149   9.328   2.244 -0.9355 -0.1223  1.0801
  646MOL0     H85262   9.126   9.342   2.677  0.2052  2.4610 -2.8820
  646MOL0     H85263   9.289   9.264   2.655  0.1894  4.2185  2.7832
  646MOL0     H85264   9.174   9.044   2.623  3.9387  1.5407  1.8453
  646MOL0     H85265   9.166   9.112   2.777  1.3872 -1.6792 -0.4629
  646MOL0     H85266   8.927   9.144   2.612 -3.4902  1.8543  2.2687
  646MOL0     H85267   8.939   9.183   2.778  1.3585 -0.5808 -0.0045
  646MOL0     H85268   8.833   8.941   2.707 -0.4063 -0.8537  0.7450
  646MOL0     H85269   8.993   8.902   2.659 -0.2096  0.7730 -1.9529
  646MOL0     H85270   8.953   8.838   3.067 -0.8033 -0.4250 -0.2485
  646MOL0     H85271   9.257   9.510   2.614  1.5276  2.0823 -0.2388
  646MOL0     H85272   9.258   9.740   2.506  1.9132  0.8153 -2.6213
  647MOL0     O85273   0.274   1.094   0.632  0.4340 -0.9806  0.3585
  647MOL0     C85274   0.254   0.976   0.656 -0.0678 -0.6383  0.3452
  647MOL0     O85275   0.215   0.921   0.768 -0.0593 -0.1942 -0.1448
  647MOL0     C85276   0.204   0.997   0.884  0.7836  0.7605  1.2347
  647MOL0     C85277   0.281   1.106   0.921 -0.9514 -1.0648  0.3931
  647MOL0     C85278   0.272   1.160   1.045  0.7182  0.7587  0.3791
  647MOL0     C85279   0.176   1.119   1.142  0.1999  0.6330  1.0342
  647MOL0     O85280   0.157   1.171   1.267 -0.2973 -0.4264 -0.4134
  647MOL0     C85281   0.034   1.194   1.325  0.9501 -0.8715  0.3330
  647MOL0     C85282   0.029   1.324   1.411 -0.0450 -0.8529 -0.1634
  647MOL0     C85283   0.082   1.439   1.322 -0.7405  0.6070  0.2056
  647MOL0     C85284   0.023   1.567   1.375  0.0750 -0.2373  0.5938
  647MOL0     C85285   0.049   1.707   1.307  0.2299  0.2126  1.2554
  647MOL0     C85286   0.196   1.728   1.269 -0.0570  0.7671 -0.1649
  647MOL0     C85287   0.282   1.719   1.387 -0.0974 -0.8452 -0.3016
  647MOL0     C85288   0.241   1.820   1.505 -0.3844  0.8400 -0.7050
  647MOL0     N85289   0.283   1.781   1.645  0.2480 -0.5211  0.1936
  647MOL0     C85290   0.411   1.786   1.696 -0.6196 -0.8434  0.1999
  647MOL0     C85291   0.419   1.707   1.807 -0.1935 -0.1424  0.3450
  647MOL0     C85292   0.532   1.680   1.898  1.3904  0.5881 -0.6685
  647MOL0     C85293   0.622   1.793   1.927 -0.6153 -0.7136  0.2973
  647MOL0     C85294   0.758   1.746   1.991  0.2559 -0.4109  0.7836
  647MOL0     C85295   0.840   1.844   2.080 -0.8316 -1.2832  0.5788
  647MOL0     O85296   0.771   1.877   2.204 -0.6938 -0.7735  0.1746
  647MOL0     C85297   0.694   1.991   2.226  0.0133 -0.1511  0.0755
  647MOL0     C85298   0.640   2.014   2.357  0.4818  0.3076  0.8448
  647MOL0     C85299   0.572   2.129   2.391  0.1314 -0.2521  0.3281
  647MOL0     C85300   0.531   2.216   2.287  0.2804  1.3538 -0.7467
  647MOL0     C85301   0.445   2.336   2.315 -1.4805  0.0342  0.4407
  647MOL0     O85302   0.412   2.360   2.441 -0.8382 -0.2862 -0.1352
  647MOL0     C85303   0.355   2.470   2.492  0.1540 -0.3748 -0.2375
  647MOL0     C85304   0.295   2.448   2.619 -0.6980 -0.4547 -0.1055
  647MOL0     C85305   0.220   2.546   2.676 -0.0269 -0.3300  0.2554
  647MOL0     C85306   0.190   2.665   2.606  0.7569 -0.5138  0.3525
  647MOL0     O85307   0.089   2.738   2.674 -0.5102 -0.0384  0.1522
  647MOL0     C85308   0.012   2.836   2.598  0.3152 -0.3685 -0.5472
  647MOL0     C85309   0.041   2.984   2.633 -0.2987 -0.2561 -0.3490
  647MOL0     C85310   0.010   3.010   2.783  0.4184  0.4005  0.2534
  647MOL0     C85311   0.053   3.143   2.826 -0.5288 -0.5508 -0.1256
  647MOL0     C85312  -0.014   3.178   2.962 -0.1011  0.0414 -0.7204
  647MOL0     C85313   0.062   3.300   3.024 -0.2421  0.0073  0.9218
  647MOL0     C85314  -0.012   3.342   3.148 -0.2769 -0.0560  0.0056
  647MOL0     C85315   0.075   3.416   3.246  0.6495  0.1999 -0.5848
  647MOL0    Cl85316   0.146   3.290   3.352  0.4031 -0.4282  0.5135
  647MOL0     C85317   0.249   2.686   2.479 -0.0196  0.5524  0.2862
  647MOL0     C85318   0.329   2.588   2.423  0.0792 -0.6418  0.6088
  647MOL0     O85319   0.396   2.385   2.208 -0.3188  0.0925 -0.1265
  647MOL0     C85320   0.577   2.187   2.154 -0.1282  0.6241 -0.1212
  647MOL0     C85321   0.650   2.074   2.123  0.1125 -0.6652  0.0591
  647MOL0     N85322   0.299   1.644   1.814  0.1983  0.0047 -0.4558
  647MOL0     N85323   0.217   1.697   1.736  0.1760 -0.7339 -0.6299
  647MOL0     C85324   0.091   1.010   1.103  0.1919  0.7895 -0.0115
  647MOL0     C85325   0.110   0.946   0.973 -0.4158  0.1408 -0.9043
  647MOL0     C85326   0.288   0.890   0.543  0.5221  0.1936 -0.0879
  647MOL0     C85327   0.260   0.750   0.541  0.8362  0.1655 -0.2370
  647MOL0     C85328   0.257   0.673   0.420 -0.8355 -0.4112 -0.5743
  647MOL0     C85329   0.323   0.720   0.310 -0.0645 -0.1864  1.4284
  647MOL0     O85330   0.304   0.647   0.192  0.4538  0.0329 -0.3569
  647MOL0     C85331   0.335   0.706   0.066 -0.5177 -0.0357  0.7023
  647MOL0     C85332   0.490   0.699   0.048 -0.6704  0.4557  0.2736
  647MOL0     C85333   0.537   0.763  -0.086  0.0145  0.1590  0.6915
  647MOL0     C85334   0.509   0.914  -0.101  0.1947 -0.0865 -0.4820
  647MOL0     C85335   0.547   0.951  -0.239  0.7353  0.3867 -0.1798
  647MOL0     C85336   0.589   1.018  -0.332 -0.3813  0.6664  0.4880
  647MOL0     C85337   0.361   0.851   0.316 -0.8007  0.3309 -0.2309
  647MOL0     C85338   0.349   0.935   0.429 -0.6098  0.6059  0.9809
  647MOL0     H85339   0.356   1.149   0.856 -1.6125  1.3396  1.1028
  647MOL0     H85340   0.346   1.234   1.075 -0.1108  0.4518  3.4689
  647MOL0     H85341   0.004   1.116   1.396  2.7678 -0.9258  1.0851
  647MOL0     H85342  -0.032   1.216   1.240  3.6186 -0.0701 -1.6726
  647MOL0     H85343   0.091   1.295   1.496  3.2347 -0.6075 -2.2740
  647MOL0     H85344  -0.075   1.344   1.438 -0.6089 -2.9370 -0.5836
  647MOL0     H85345   0.044   1.426   1.221  1.2521  1.3523 -0.6864
  647MOL0     H85346   0.189   1.425   1.338 -1.1777 -2.9675  0.6654
  647MOL0     H85347  -0.086   1.572   1.373  0.1420  1.9534 -0.4851
  647MOL0     H85348   0.050   1.573   1.481 -1.3482  0.6630  0.9317
  647MOL0     H85349   0.005   1.782   1.373 -1.1382  2.1984 -1.7078
  647MOL0     H85350  -0.018   1.697   1.221  0.5929 -3.3884  1.2254
  647MOL0     H85351   0.227   1.812   1.206 -1.0066  1.0107 -0.3288
  647MOL0     H85352   0.222   1.645   1.202  3.1601 -1.3863  3.3901
  647MOL0     H85353   0.266   1.630   1.449 -1.0394 -0.7917 -0.4507
  647MOL0     H85354   0.387   1.738   1.366  0.0024  1.9076  2.0601
  647MOL0     H85355   0.132   1.823   1.508 -0.3915 -0.0063  1.1438
  647MOL0     H85356   0.275   1.921   1.481 -3.2761  1.8797 -0.8030
  647MOL0     H85357   0.486   1.851   1.651  0.8584 -1.5545  1.5625
  647MOL0     H85358   0.588   1.605   1.841 -1.0511 -1.1507 -0.9988
  647MOL0     H85359   0.488   1.635   1.987 -0.0779 -1.8072 -2.4602
  647MOL0     H85360   0.566   1.860   1.993 -0.8486  0.3310 -0.9027
  647MOL0     H85361   0.647   1.845   1.833  0.3896 -0.8994  0.4423
  647MOL0     H85362   0.742   1.658   2.054  1.3413 -0.0757  1.5687
  647MOL0     H85363   0.821   1.702   1.914 -1.3361  2.5287 -2.4908
  647MOL0     H85364   0.851   1.937   2.023 -0.4922 -1.7019 -0.0517
  647MOL0     H85365   0.938   1.798   2.099 -2.4009 -5.3695 -0.2291
  647MOL0     H85366   0.660   1.941   2.434  0.6551 -1.2633 -0.6348
  647MOL0     H85367   0.538   2.153   2.491  1.5435  3.1568  0.1306
  647MOL0     H85368   0.318   2.351   2.662  1.0794 -0.3347 -0.6814
  647MOL0     H85369   0.174   2.523   2.772  0.6941 -0.9902  0.4533
  647MOL0     H85370  -0.092   2.808   2.617  0.5075 -2.0859 -1.8093
  647MOL0     H85371   0.027   2.833   2.490 -0.7749  0.4364 -0.7426
  647MOL0     H85372  -0.026   3.052   2.581  1.0312  3.6003  2.4641
  647MOL0     H85373   0.147   3.005   2.617 -0.1290 -0.7000  0.1650
  647MOL0     H85374   0.050   2.935   2.851 -3.1237 -1.9321  0.0567
  647MOL0     H85375  -0.099   3.003   2.794  0.1520 -0.6205 -2.1522
  647MOL0     H85376   0.161   3.145   2.848 -0.8316 -0.5863  1.5214
  647MOL0     H85377   0.029   3.216   2.748 -0.7824  1.3453  1.6099
  647MOL0     H85378  -0.010   3.095   3.033 -1.5837  0.8302  0.3326
  647MOL0     H85379  -0.120   3.198   2.947  0.0409 -0.6625 -3.2207
  647MOL0     H85380   0.070   3.379   2.949  4.8535 -0.7441  0.3169
  647MOL0     H85381   0.162   3.269   3.055 -0.3224  0.5475  1.7576
  647MOL0     H85382  -0.107   3.392   3.127  0.4080  0.2577 -2.6461
  647MOL0     H85383  -0.043   3.244   3.186  3.4547 -2.1573 -1.8035
  647MOL0     H85384   0.017   3.490   3.302  0.2146  2.6840 -3.9946
  647MOL0     H85385   0.151   3.475   3.193 -0.5230  1.5278 -0.8613
  647MOL0     H85386   0.233   2.776   2.421  0.0841  2.0030  2.4180
  647MOL0     H85387   0.377   2.609   2.328  2.4730  2.3578  2.2903
  647MOL0     H85388   0.554   2.253   2.072  2.4472  0.8302 -0.7847
  647MOL0     H85389   0.676   2.056   2.019 -0.0264 -1.2685  0.1241
  647MOL0     H85390   0.011   0.992   1.174 -0.0941  1.1454 -0.2387
  647MOL0     H85391   0.045   0.866   0.941  0.6916 -1.0923 -0.1344
  647MOL0     H85392   0.205   0.709   0.625 -2.3290  3.9055 -0.1961
  647MOL0     H85393   0.203   0.580   0.410  0.2532 -1.2347  0.7632
  647MOL0     H85394   0.303   0.811   0.065  2.7958  1.0945  0.5007
  647MOL0     H85395   0.278   0.654  -0.011  0.0365  1.3364 -0.6727
  647MOL0     H85396   0.550   0.753   0.121  0.7896  0.2718 -0.7377
  647MOL0     H85397   0.518   0.593   0.055 -1.5368  0.3290  4.3017
  647MOL0     H85398   0.489   0.717  -0.173 -2.2418 -0.6560  2.2643
  647MOL0     H85399   0.645   0.751  -0.098  0.0153 -0.4892  1.3260
  647MOL0     H85400   0.406   0.948  -0.093  0.4343  1.2361 -2.4095
  647MOL0     H85401   0.562   0.979  -0.031 -0.7370  1.2246 -0.9460
  647MOL0     H85402   0.623   1.087  -0.407  1.8723  0.1490  0.9547
  647MOL0     H85403   0.423   0.894   0.238  0.6145  3.0675  2.2072
  647MOL0     H85404   0.388   1.035   0.411  1.8471 -0.3171  0.7359
  648MOL0     O85405   3.493   5.225   8.874 -0.0890 -0.0365 -0.3180
  648MOL0     C85406   3.374   5.200   8.876 -0.6604 -0.0451  0.1832
  648MOL0     O85407   3.316   5.124   8.784  0.2263  0.3261 -0.0091
  648MOL0     C85408   3.390   5.090   8.670 -0.2332 -0.1253 -0.4920
  648MOL0     C85409   3.484   4.983   8.672  0.6574  0.8415  0.0343
  648MOL0     C85410   3.546   4.938   8.561  0.2263  0.4060  0.2041
  648MOL0     C85411   3.534   5.018   8.451 -0.7103 -1.1974  0.1526
  648MOL0     O85412   3.603   4.983   8.345 -0.6993 -0.3018  0.0526
  648MOL0     C85413   3.749   5.000   8.344  0.5369  1.2501  0.0558
  648MOL0     C85414   3.807   5.141   8.296  0.3259 -0.2958 -0.3483
  648MOL0     C85415   3.717   5.218   8.192  1.1007 -0.0958  0.0698
  648MOL0     C85416   3.788   5.322   8.119  0.0346 -1.0030 -0.1955
  648MOL0     C85417   3.699   5.414   8.045  0.0709  0.0641  0.1124
  648MOL0     C85418   3.762   5.514   7.948  0.3459  1.0153 -0.7957
  648MOL0     C85419   3.661   5.576   7.850  0.0542  0.0870  0.2415
  648MOL0     C85420   3.617   5.506   7.717  0.3528  0.4610  0.5794
  648MOL0     N85421   3.738   5.462   7.637  0.4354  0.1021  0.3087
  648MOL0     C85422   3.752   5.331   7.594  0.0890 -0.6657 -0.2114
  648MOL0     C85423   3.878   5.348   7.532  0.4562 -0.9699 -0.2858
  648MOL0     C85424   3.961   5.240   7.462 -0.7354  0.0682  0.1748
  648MOL0     C85425   3.890   5.101   7.452  0.0317  0.2682 -0.3186
  648MOL0     C85426   3.992   5.017   7.372 -0.0803 -0.8256 -0.6376
  648MOL0     C85427   4.115   4.983   7.452  0.6234  0.3493  0.0876
  648MOL0     O85428   4.190   4.870   7.400  0.3742  0.4194 -0.8225
  648MOL0     C85429   4.165   4.740   7.426  0.2548 -0.6424 -0.7523
  648MOL0     C85430   4.055   4.694   7.505 -0.5302  0.1636  0.1982
  648MOL0     C85431   4.045   4.558   7.544  0.7910 -0.7087  0.1301
  648MOL0     C85432   4.146   4.461   7.505  0.0114 -1.3072  0.0743
  648MOL0     C85433   4.124   4.327   7.549 -1.0372 -0.2073  0.1189
  648MOL0     O85434   4.006   4.289   7.592 -0.3982  0.1891  0.6911
  648MOL0     C85435   3.978   4.154   7.613 -0.8879 -0.6956 -0.2712
  648MOL0     C85436   3.925   4.108   7.728 -0.6786 -1.2368  0.7196
  648MOL0     C85437   3.882   3.983   7.748 -0.9608  0.9856 -0.4851
  648MOL0     C85438   3.908   3.896   7.641  0.9931  1.0177  0.3141
  648MOL0     O85439   3.880   3.765   7.654  0.4866  0.1164  0.6739
  648MOL0     C85440   3.894   3.700   7.773  0.4875 -0.6639  0.2052
  648MOL0     C85441   3.921   3.561   7.727  1.3717 -0.2174  1.0046
  648MOL0     C85442   3.792   3.482   7.660 -0.9386  0.0177 -0.2287
  648MOL0     C85443   3.691   3.440   7.769 -0.1456 -0.3078  0.8363
  648MOL0     C85444   3.551   3.383   7.723 -0.3234  0.0582  0.0741
  648MOL0     C85445   3.442   3.495   7.692 -0.6443  0.5166 -0.8498
  648MOL0     C85446   3.310   3.431   7.636 -0.2421  0.2365  0.6042
  648MOL0     C85447   3.206   3.533   7.590 -0.4434 -0.0720  0.4858
  648MOL0    Cl85448   3.236   3.566   7.417  0.1311 -0.6896 -0.0517
  648MOL0     C85449   3.964   3.938   7.525  0.2986 -0.1493  0.3907
  648MOL0     C85450   4.007   4.069   7.505  0.2459  0.1713  0.4342
  648MOL0     O85451   4.226   4.257   7.560  0.4790  0.1248 -0.3078
  648MOL0     C85452   4.250   4.514   7.423  0.8213  0.4225  0.6291
  648MOL0     C85453   4.255   4.649   7.390 -0.1335  0.2227 -0.1170
  648MOL0     N85454   3.926   5.478   7.544 -0.0401  1.2576  0.1044
  648MOL0     N85455   3.846   5.542   7.613 -0.0516  0.4450  0.3589
  648MOL0     C85456   3.440   5.119   8.440  0.1468 -0.7280 -0.1180
  648MOL0     C85457   3.359   5.148   8.543  0.1583  0.2604 -0.7911
  648MOL0     C85458   3.280   5.251   8.988  0.6224  1.0142  0.4109
  648MOL0     C85459   3.309   5.377   9.054 -0.1506  0.5857  0.1922
  648MOL0     C85460   3.226   5.420   9.156  0.6168 -0.4048 -1.1268
  648MOL0     C85461   3.113   5.348   9.196  0.5118 -0.1946  0.0274
  648MOL0     O85462   3.048   5.403   9.305 -0.8006 -0.1793 -0.0857
  648MOL0     C85463   2.962   5.313   9.366  0.6691 -1.0824 -0.1437
  648MOL0     C85464   2.906   5.386   9.493  0.4235 -0.0234 -0.5493
  648MOL0     C85465   2.802   5.304   9.564 -0.0771 -0.0161  1.0141
  648MOL0     C85466   2.721   5.395   9.649 -0.1051  0.0699 -0.1260
  648MOL0     C85467   2.610   5.318   9.711  0.4890 -0.4021 -0.5258
  648MOL0     C85468   2.503   5.261   9.743  0.7368 -0.4880 -0.2988
  648MOL0     C85469   3.079   5.240   9.129  0.4748  0.5596  0.8461
  648MOL0     C85470   3.162   5.185   9.032 -0.5710  1.2582  0.0603
  648MOL0     H85471   3.498   4.947   8.773 -0.7639 -0.2315 -0.1125
  648MOL0     H85472   3.615   4.854   8.564 -1.7007 -1.2823 -0.2325
  648MOL0     H85473   3.789   4.924   8.277 -0.2546  0.3416  0.5839
  648MOL0     H85474   3.786   4.959   8.439  2.4934  1.1180 -0.7294
  648MOL0     H85475   3.913   5.134   8.269  0.6604 -0.2237  0.8790
  648MOL0     H85476   3.809   5.191   8.393  2.0326 -0.3425 -0.3361
  648MOL0     H85477   3.626   5.254   8.241  0.2683 -0.9907 -0.7747
  648MOL0     H85478   3.687   5.140   8.121  2.2055  0.9114 -1.5500
  648MOL0     H85479   3.846   5.374   8.196  0.1352 -1.1134 -0.1962
  648MOL0     H85480   3.865   5.280   8.054  2.9069 -0.4884  2.6590
  648MOL0     H85481   3.637   5.473   8.113 -2.1468 -0.8726 -0.9910
  648MOL0     H85482   3.620   5.356   7.998  1.9141 -2.9273  0.4563
  648MOL0     H85483   3.839   5.469   7.885  0.5307  1.4800 -0.9091
  648MOL0     H85484   3.798   5.592   8.016  1.1053 -0.6968  0.8623
  648MOL0     H85485   3.573   5.589   7.914 -1.1027 -0.7357 -1.1215
  648MOL0     H85486   3.701   5.676   7.828  3.1352 -0.5924  2.2174
  648MOL0     H85487   3.571   5.575   7.645  2.8617 -0.1233 -1.7338
  648MOL0     H85488   3.557   5.416   7.732 -0.3678  0.8366  0.0367
  648MOL0     H85489   3.693   5.244   7.618  1.1405 -0.6279  2.9784
  648MOL0     H85490   4.056   5.229   7.515  0.0809 -1.2454 -1.4438
  648MOL0     H85491   3.985   5.286   7.366 -1.3280  1.7468  0.7861
  648MOL0     H85492   3.795   5.102   7.397  0.9221  2.6848 -1.9851
  648MOL0     H85493   3.868   5.065   7.553 -2.0909 -0.0014 -0.8334
  648MOL0     H85494   3.941   4.926   7.339  3.4760 -3.2901  0.1485
  648MOL0     H85495   4.033   5.055   7.278  2.9387 -1.4464  0.3307
  648MOL0     H85496   4.080   4.961   7.553 -0.8456 -1.3658 -0.7317
  648MOL0     H85497   4.186   5.065   7.468  1.1520  0.0379 -0.5941
  648MOL0     H85498   3.971   4.757   7.533  0.3016  0.8177  1.3079
  648MOL0     H85499   3.962   4.527   7.607  1.9378 -4.1398  0.1217
  648MOL0     H85500   3.933   4.178   7.811  1.7987 -0.3490 -0.1676
  648MOL0     H85501   3.853   3.953   7.849 -2.9832 -0.3298 -1.3998
  648MOL0     H85502   3.806   3.714   7.838  1.2186 -1.9534  1.5371
  648MOL0     H85503   3.978   3.744   7.829 -1.3125  3.0216  0.3730
  648MOL0     H85504   3.942   3.504   7.818  0.7925  1.1169  2.0063
  648MOL0     H85505   4.008   3.552   7.662  1.1503  3.2201  0.0423
  648MOL0     H85506   3.834   3.402   7.599  1.7323  0.6037  0.6971
  648MOL0     H85507   3.742   3.544   7.586  0.3526  0.5459 -0.6894
  648MOL0     H85508   3.748   3.366   7.826 -0.2710  1.4617  3.4511
  648MOL0     H85509   3.674   3.519   7.842 -0.2514 -2.0506  2.7790
  648MOL0     H85510   3.505   3.326   7.805 -0.8699  2.4108  1.4825
  648MOL0     H85511   3.564   3.322   7.633  0.6183  1.0995 -0.5086
  648MOL0     H85512   3.487   3.565   7.621  0.4368  0.5704 -0.1414
  648MOL0     H85513   3.406   3.552   7.778 -3.3840 -1.4159 -0.5758
  648MOL0     H85514   3.314   3.359   7.554 -1.5476  0.1734  0.5702
  648MOL0     H85515   3.257   3.388   7.722  0.7527 -0.9958  0.6262
  648MOL0     H85516   3.208   3.632   7.638 -2.7440  0.4353 -0.3226
  648MOL0     H85517   3.106   3.489   7.597 -0.9251  1.2602  3.0952
  648MOL0     H85518   3.966   3.860   7.450  0.7338  2.0943 -2.0578
  648MOL0     H85519   4.067   4.106   7.422  2.5373 -0.1802  1.8290
  648MOL0     H85520   4.326   4.441   7.397 -1.6945 -1.4389 -2.1960
  648MOL0     H85521   4.339   4.684   7.332  0.5042  1.0229  1.2515
  648MOL0     H85522   3.415   5.156   8.341 -2.2174  0.4468  0.8416
  648MOL0     H85523   3.284   5.224   8.521  2.5815  2.9154 -0.4991
  648MOL0     H85524   3.404   5.420   9.026 -1.9109  2.2722 -4.1002
  648MOL0     H85525   3.250   5.503   9.222 -1.3114  0.9112 -1.9856
  648MOL0     H85526   3.023   5.228   9.396 -3.3045 -3.1288  3.0733
  648MOL0     H85527   2.879   5.290   9.299  1.4511 -0.4305 -1.3993
  648MOL0     H85528   2.983   5.417   9.563 -2.7944  0.4747  3.1098
  648MOL0     H85529   2.857   5.475   9.452  3.5989  3.1522  1.9203
  648MOL0     H85530   2.846   5.236   9.638 -2.7063 -0.4919  2.2827
  648MOL0     H85531   2.744   5.241   9.496  0.7289 -0.2649  0.5524
  648MOL0     H85532   2.787   5.434   9.726 -0.6012 -0.4472  0.5706
  648MOL0     H85533   2.695   5.485   9.593 -0.7096 -0.3778 -0.5826
  648MOL0     H85534   2.404   5.221   9.752  1.3291 -1.5443  2.2027
  648MOL0     H85535   2.991   5.177   9.139 -0.7521  1.3350 -3.0532
  648MOL0     H85536   3.121   5.096   8.986  1.7225  0.6246 -0.9197
  649MOL0     O85537   9.089   7.844   6.824  0.3133 -0.8783  0.1307
  649MOL0     C85538   9.196   7.820   6.880  0.4083  0.9311 -1.4641
  649MOL0     O85539   9.217   7.735   6.989 -0.4264 -0.0603 -0.3508
  649MOL0     C85540   9.128   7.633   6.991 -0.3862  0.7662 -0.2710
  649MOL0     C85541   9.035   7.584   6.898 -0.6322 -0.2583 -0.4324
  649MOL0     C85542   8.934   7.493   6.945 -0.1570 -0.2804  0.6157
  649MOL0     C85543   8.921   7.458   7.077 -0.7366 -0.7567 -0.9871
  649MOL0     O85544   8.823   7.366   7.112  0.4089 -0.1627 -0.1285
  649MOL0     C85545   8.702   7.355   7.034  0.2240  0.2020 -0.4373
  649MOL0     C85546   8.589   7.281   7.107 -0.1943  0.6632 -0.4141
  649MOL0     C85547   8.641   7.139   7.140 -0.0645 -0.2956 -0.4733
  649MOL0     C85548   8.535   7.046   7.194 -0.8769  0.4640  0.6472
  649MOL0     C85549   8.499   7.077   7.333 -0.4940  0.6671  0.0290
  649MOL0     C85550   8.360   7.032   7.368 -0.1403 -0.3926 -0.9828
  649MOL0     C85551   8.326   7.088   7.514  0.8146  0.4825 -0.5909
  649MOL0     C85552   8.188   7.064   7.562  0.5310  0.0756  0.0217
  649MOL0     N85553   8.152   6.917   7.574  0.2741 -0.0767  0.1487
  649MOL0     C85554   8.083   6.852   7.482  0.0551  0.0597  0.2394
  649MOL0     C85555   8.092   6.724   7.520  0.3600 -0.2233  0.0756
  649MOL0     C85556   8.041   6.609   7.449  1.1368  0.3541 -0.5871
  649MOL0     C85557   8.070   6.606   7.296  0.7021 -0.5923 -0.3437
  649MOL0     C85558   8.116   6.478   7.240  0.1235 -0.1176  0.1026
  649MOL0     C85559   8.153   6.474   7.094  0.0261 -0.5065 -0.7994
  649MOL0     O85560   8.065   6.387   7.029  0.4391 -0.5646 -0.1702
  649MOL0     C85561   8.093   6.358   6.898  0.1308 -0.4448 -0.3480
  649MOL0     C85562   7.997   6.299   6.820  0.5804 -0.0529  0.1407
  649MOL0     C85563   8.011   6.269   6.687 -0.5084 -0.1344  1.2621
  649MOL0     C85564   8.135   6.293   6.627 -0.2464  0.7098 -0.3464
  649MOL0     C85565   8.159   6.263   6.480 -0.5454 -0.3045 -0.2608
  649MOL0     O85566   8.052   6.217   6.405  0.0175  0.1400  0.4706
  649MOL0     C85567   8.073   6.164   6.280  0.1360 -0.2920  0.2043
  649MOL0     C85568   7.995   6.210   6.173  0.3387 -0.2548  0.5931
  649MOL0     C85569   8.018   6.170   6.041  0.7200 -1.0173 -0.4190
  649MOL0     C85570   8.105   6.064   6.013 -0.4114 -0.7714  0.0127
  649MOL0     O85571   8.119   6.024   5.877  0.0067 -0.4024 -0.1337
  649MOL0     C85572   8.158   5.886   5.855 -0.2451  0.2039 -0.3075
  649MOL0     C85573   8.061   5.774   5.898  0.7900 -0.3574  0.2471
  649MOL0     C85574   7.935   5.778   5.811 -0.3823  0.0854  0.8439
  649MOL0     C85575   7.819   5.697   5.867 -0.5820 -0.6600 -1.0883
  649MOL0     C85576   7.847   5.560   5.937 -0.0542 -0.0227 -0.3346
  649MOL0     C85577   7.941   5.459   5.870 -0.7636 -0.6167 -0.0935
  649MOL0     C85578   7.947   5.311   5.923 -0.1609 -0.3849  0.5232
  649MOL0     C85579   8.051   5.229   5.856 -1.3767  0.1982  0.8170
  649MOL0    Cl85580   8.203   5.281   5.916 -0.1995  0.3223 -0.3388
  649MOL0     C85581   8.177   6.007   6.121 -0.1472 -0.0832  0.0866
  649MOL0     C85582   8.152   6.055   6.251  0.9411 -0.0394 -0.0563
  649MOL0     O85583   8.267   6.289   6.439 -0.1554 -0.5397  0.5658
  649MOL0     C85584   8.238   6.354   6.701 -0.4363  0.8224  0.8898
  649MOL0     C85585   8.213   6.381   6.830  1.0470 -0.0613  0.0553
  649MOL0     N85586   8.132   6.722   7.654  0.8191  0.4486  0.0142
  649MOL0     N85587   8.156   6.840   7.680  0.1080 -0.4010 -0.1849
  649MOL0     C85588   9.030   7.491   7.165  0.0263 -0.1593 -0.2454
  649MOL0     C85589   9.131   7.569   7.117 -1.3576 -0.7584 -0.1852
  649MOL0     C85590   9.307   7.889   6.822  0.4577  0.5727  0.5438
  649MOL0     C85591   9.302   7.931   6.688  0.2402  0.5094  0.7268
  649MOL0     C85592   9.416   7.972   6.622 -0.7305  0.6720  0.7584
  649MOL0     C85593   9.538   7.995   6.682  0.2290  0.3012 -0.6186
  649MOL0     O85594   9.645   8.047   6.609  0.3030  0.3681 -0.3724
  649MOL0     C85595   9.767   8.090   6.674  0.3337 -0.2687  0.8356
  649MOL0     C85596   9.883   7.980   6.690  0.2561  0.0233 -0.6432
  649MOL0     C85597   9.968   7.975   6.561 -0.1047 -0.1888  0.9166
  649MOL0     C85598  10.121   7.931   6.579  0.5235  0.7600  0.3302
  649MOL0     C85599  10.135   7.803   6.657  0.9499  0.2872  0.4456
  649MOL0     C85600  10.138   7.698   6.719 -1.1312  0.3594 -0.4116
  649MOL0     C85601   9.543   7.957   6.822 -0.5596  0.4696  0.8880
  649MOL0     C85602   9.430   7.897   6.888 -0.0161 -0.4926 -0.4081
  649MOL0     H85603   9.039   7.618   6.795  0.8110  2.5164  0.4261
  649MOL0     H85604   8.859   7.452   6.879 -0.7527 -1.3415  1.8973
  649MOL0     H85605   8.728   7.304   6.941 -0.0637  0.5694 -0.7218
  649MOL0     H85606   8.666   7.455   7.010 -0.0738  0.7712  2.1117
  649MOL0     H85607   8.497   7.284   7.049 -1.1692  0.2822  1.0500
  649MOL0     H85608   8.564   7.326   7.203  1.5541 -1.9230  1.4092
  649MOL0     H85609   8.720   7.157   7.214 -1.3054  3.6416  0.1035
  649MOL0     H85610   8.685   7.089   7.053  2.1975 -0.1677  0.5284
  649MOL0     H85611   8.454   7.041   7.120  0.2942 -0.9163 -0.6150
  649MOL0     H85612   8.576   6.946   7.203 -0.6203  0.6045  1.0152
  649MOL0     H85613   8.495   7.181   7.365 -0.9733  0.5541  0.3612
  649MOL0     H85614   8.570   7.024   7.398  1.1334  1.4894 -1.0282
  649MOL0     H85615   8.353   6.922   7.370  0.4472 -0.4255 -0.2123
  649MOL0     H85616   8.293   7.083   7.298 -0.9731  0.2749  0.2726
  649MOL0     H85617   8.399   7.047   7.584 -2.0488 -2.1476  1.0742
  649MOL0     H85618   8.357   7.193   7.507 -0.3833  0.7767 -2.2091
  649MOL0     H85619   8.110   7.103   7.497  0.1157  1.6533  1.4098
  649MOL0     H85620   8.164   7.101   7.662  1.1690 -0.7914  0.5104
  649MOL0     H85621   8.038   6.895   7.393 -2.1143 -0.5385  0.9977
  649MOL0     H85622   7.933   6.605   7.467  1.4584 -1.2640  1.3736
  649MOL0     H85623   8.088   6.519   7.489 -2.6382 -2.6862 -2.3219
  649MOL0     H85624   8.128   6.695   7.274 -3.1081  2.6083  1.2692
  649MOL0     H85625   7.975   6.621   7.245 -1.6141 -2.6377  2.9274
  649MOL0     H85626   8.200   6.442   7.301  1.5205  2.9432  0.1523
  649MOL0     H85627   8.044   6.398   7.258 -0.8741  0.7985  0.2587
  649MOL0     H85628   8.257   6.442   7.086 -0.0608 -0.4997 -2.3692
  649MOL0     H85629   8.146   6.578   7.061  0.4263  1.3646  4.1610
  649MOL0     H85630   7.908   6.263   6.870  2.0855 -1.0214  2.2836
  649MOL0     H85631   7.928   6.233   6.626 -1.0257 -1.7922  2.8393
  649MOL0     H85632   7.925   6.289   6.200 -1.0042 -1.5672  1.0825
  649MOL0     H85633   7.942   6.223   5.984  3.1058  1.4699 -1.4899
  649MOL0     H85634   8.256   5.861   5.898  0.0682 -2.1217 -2.1631
  649MOL0     H85635   8.168   5.867   5.748 -1.1546 -2.4243  0.0040
  649MOL0     H85636   8.051   5.757   6.005 -4.0922  0.2788  0.1121
  649MOL0     H85637   8.121   5.689   5.862  2.2072  0.7779 -0.2038
  649MOL0     H85638   7.967   5.750   5.711 -1.5054 -0.8711  0.7376
  649MOL0     H85639   7.890   5.878   5.803  0.9317  0.7230  1.0673
  649MOL0     H85640   7.771   5.756   5.946 -0.5550 -1.1636 -0.6870
  649MOL0     H85641   7.749   5.697   5.783 -1.1671 -1.5594 -0.6188
  649MOL0     H85642   7.750   5.511   5.952 -1.1168  1.5691 -1.5538
  649MOL0     H85643   7.865   5.589   6.041 -5.3446  0.2168  0.8265
  649MOL0     H85644   8.045   5.495   5.867 -1.3747  1.3453  0.3539
  649MOL0     H85645   7.910   5.447   5.766 -2.2787 -1.7723  0.4597
  649MOL0     H85646   7.966   5.309   6.030  2.1541 -0.5585  0.1525
  649MOL0     H85647   7.861   5.247   5.899  2.2030 -3.2374 -0.9730
  649MOL0     H85648   8.033   5.228   5.748 -0.7173 -0.5687  0.7052
  649MOL0     H85649   8.037   5.128   5.897 -0.7202 -0.4382 -0.4653
  649MOL0     H85650   8.253   5.931   6.108 -0.7987 -0.6630 -0.4216
  649MOL0     H85651   8.218   6.024   6.331  1.4021 -0.0571 -0.4438
  649MOL0     H85652   8.343   6.370   6.677 -0.2229  1.7311  2.3101
  649MOL0     H85653   8.294   6.431   6.882 -0.4799  2.6204  0.0541
  649MOL0     H85654   9.029   7.451   7.266  0.1748 -1.0929 -0.6022
  649MOL0     H85655   9.210   7.599   7.185 -2.5516  2.2513  0.0701
  649MOL0     H85656   9.216   7.915   6.623 -0.4528 -3.9081  2.3838
  649MOL0     H85657   9.412   7.986   6.514 -1.2491 -0.2134  0.6585
  649MOL0     H85658   9.752   8.135   6.773  3.5057  0.8711  0.8850
  649MOL0     H85659   9.817   8.176   6.629  3.3570 -0.4404  3.4875
  649MOL0     H85660   9.954   8.020   6.763 -2.0302  1.9882  0.6420
  649MOL0     H85661   9.843   7.882   6.718  0.7915 -1.4154 -4.3892
  649MOL0     H85662   9.968   8.067   6.502  3.1045 -2.1621 -2.5255
  649MOL0     H85663   9.916   7.904   6.497  1.4058 -0.5474  0.0515
  649MOL0     H85664  10.168   7.908   6.483  3.0845 -2.0144  2.0941
  649MOL0     H85665  10.169   8.019   6.623 -0.0335  0.2753  1.9859
  649MOL0     H85666  10.152   7.602   6.764  1.0510 -0.1150 -1.9269
  649MOL0     H85667   9.638   7.970   6.872  0.7539 -1.0721 -1.0469
  649MOL0     H85668   9.450   7.866   6.990 -0.6786  2.9145  0.8951
  650MOL0     O85669  11.283   1.418  11.059  0.3447  0.5457  0.3395
  650MOL0     C85670  11.297   1.375  10.945 -0.0525  0.2135  0.5329
  650MOL0     O85671  11.372   1.434  10.845 -0.1964 -0.1140 -0.0291
  650MOL0     C85672  11.441   1.547  10.876  0.2712  0.6851  0.0135
  650MOL0     C85673  11.579   1.546  10.897 -0.1510  0.0918  0.3211
  650MOL0     C85674  11.648   1.672  10.912 -0.8141 -0.3871 -1.3948
  650MOL0     C85675  11.574   1.791  10.920 -0.0669 -0.2485 -0.0691
  650MOL0     O85676  11.641   1.908  10.937 -0.3096  0.1026  0.3454
  650MOL0     C85677  11.585   2.027  10.872  1.0871  0.4807  0.5074
  650MOL0     C85678  11.706   2.112  10.870 -0.7074  0.1886  0.1412
  650MOL0     C85679  11.666   2.257  10.853 -0.4704 -0.4868 -0.6134
  650MOL0     C85680  11.774   2.363  10.888 -0.2788 -1.3911  0.2915
  650MOL0     C85681  11.769   2.415  11.032  0.0889  0.7035  0.2827
  650MOL0     C85682  11.676   2.535  11.046  0.3533 -1.0062  0.1315
  650MOL0     C85683  11.670   2.582  11.187 -0.1866  0.5222  0.2719
  650MOL0     C85684  11.544   2.525  11.263  0.5226 -0.6214 -0.6254
  650MOL0     N85685  11.493   2.638  11.344  0.5664  0.6799  0.5984
  650MOL0     C85686  11.520   2.657  11.474 -0.0147 -0.4190 -0.7147
  650MOL0     C85687  11.468   2.776  11.511  0.4071 -0.7846 -0.3454
  650MOL0     C85688  11.458   2.857  11.639  0.3769 -0.4764 -1.0016
  650MOL0     C85689  11.592   2.890  11.698  0.0713 -0.6333 -0.0972
  650MOL0     C85690  11.663   2.775  11.755  0.4667  0.6501  0.2151
  650MOL0     C85691  11.767   2.818  11.843 -0.5467  0.7006  0.2167
  650MOL0     O85692  11.807   2.708  11.923 -0.2182 -0.1721 -0.0214
  650MOL0     C85693  11.928   2.716  11.991  0.1958 -0.0913  0.0670
  650MOL0     C85694  11.939   2.766  12.124 -0.4573  0.9766  0.2429
  650MOL0     C85695  12.066   2.777  12.188 -0.3290  0.8591  0.0106
  650MOL0     C85696  12.178   2.732  12.113 -0.3454 -0.0840 -0.1753
  650MOL0     C85697  12.314   2.722  12.160  0.7595  0.0400  0.2467
  650MOL0     O85698  12.407   2.660  12.082 -0.1039 -0.4048  0.7574
  650MOL0     C85699  12.540   2.632  12.122  0.0874  0.2543 -0.0277
  650MOL0     C85700  12.609   2.700  12.222 -0.3211  0.5210 -0.0992
  650MOL0     C85701  12.732   2.651  12.265  0.1154 -0.0426 -0.1066
  650MOL0     C85702  12.805   2.546  12.212  0.9479  0.2398 -0.7511
  650MOL0     O85703  12.926   2.507  12.264  0.3146  0.9322  0.6857
  650MOL0     C85704  13.001   2.400  12.196  1.2776 -0.3618 -1.0602
  650MOL0     C85705  13.119   2.358  12.279 -0.4856 -0.2822 -0.3789
  650MOL0     C85706  13.244   2.457  12.276  0.8775 -0.1476 -0.3930
  650MOL0     C85707  13.302   2.480  12.133  0.3606  0.0273  0.3492
  650MOL0     C85708  13.447   2.508  12.152  0.1296 -0.4228  1.1306
  650MOL0     C85709  13.475   2.656  12.172  0.3184 -1.3108 -0.2865
  650MOL0     C85710  13.571   2.664  12.292 -0.6390 -0.0001  0.6165
  650MOL0     C85711  13.637   2.797  12.305 -0.9140 -0.1972  0.4089
  650MOL0    Cl85712  13.742   2.829  12.153  0.4200  0.2613 -0.1536
  650MOL0     C85713  12.729   2.471  12.124  0.1663  0.7135  0.3587
  650MOL0     C85714  12.606   2.513  12.070  0.5586 -0.2526  0.5668
  650MOL0     O85715  12.326   2.757  12.274 -0.1820  0.7860 -0.3293
  650MOL0     C85716  12.159   2.683  11.982  0.2190 -0.3141  0.3595
  650MOL0     C85717  12.039   2.684  11.923 -0.3743  0.9078 -0.4146
  650MOL0     N85718  11.403   2.828  11.397  0.8625  0.2364 -0.8423
  650MOL0     N85719  11.413   2.743  11.300 -0.2485  0.6341 -0.7531
  650MOL0     C85720  11.436   1.789  10.910 -0.6036 -0.0726 -0.7355
  650MOL0     C85721  11.373   1.663  10.897 -0.1451  0.7505 -0.3472
  650MOL0     C85722  11.225   1.253  10.909 -0.2405 -0.0661  0.1046
  650MOL0     C85723  11.197   1.232  10.774  0.3326 -0.7099 -0.1606
  650MOL0     C85724  11.124   1.127  10.725 -0.5824  0.1492  0.1570
  650MOL0     C85725  11.079   1.027  10.815  0.0189  0.0034  0.1089
  650MOL0     O85726  11.011   0.920  10.771 -0.0312 -0.5954 -0.6433
  650MOL0     C85727  11.091   0.801  10.763  0.6482 -0.9146 -0.1920
  650MOL0     C85728  11.008   0.684  10.718  0.0906 -1.5685 -0.0105
  650MOL0     C85729  10.920   0.714  10.593  0.1592 -0.0070 -1.2801
  650MOL0     C85730  10.875   0.590  10.517  0.3960 -0.0628  0.3421
  650MOL0     C85731  10.800   0.501  10.606 -0.2816  0.7413 -0.6511
  650MOL0     C85732  10.753   0.411  10.687  0.4723 -0.3643  0.5847
  650MOL0     C85733  11.111   1.039  10.955  0.2216 -0.6350  0.9198
  650MOL0     C85734  11.174   1.162  10.997  0.1176  0.1933  0.1153
  650MOL0     H85735  11.628   1.450  10.889 -0.6002 -0.2675  1.6039
  650MOL0     H85736  11.756   1.675  10.919 -0.8613 -1.3229  0.4943
  650MOL0     H85737  11.499   2.053  10.934  1.6164 -3.5387  3.3642
  650MOL0     H85738  11.557   2.003  10.770 -1.6643  0.3827  1.2264
  650MOL0     H85739  11.767   2.071  10.789 -1.9030 -2.3805  0.4527
  650MOL0     H85740  11.754   2.103  10.968  1.4148 -2.0912 -1.0118
  650MOL0     H85741  11.581   2.284  10.916  0.4404 -1.2402  0.9884
  650MOL0     H85742  11.637   2.272  10.748 -2.0083  0.1273 -0.1350
  650MOL0     H85743  11.876   2.330  10.864  1.1089 -0.6772  4.3349
  650MOL0     H85744  11.757   2.453  10.827  0.7403 -1.4230 -0.0691
  650MOL0     H85745  11.866   2.453  11.064  1.2199 -2.0799  0.4219
  650MOL0     H85746  11.745   2.325  11.090 -0.7591  0.3909 -0.5319
  650MOL0     H85747  11.581   2.520  10.995 -1.1276 -0.2113  2.5092
  650MOL0     H85748  11.725   2.613  10.985 -4.1420  2.0076 -0.1162
  650MOL0     H85749  11.756   2.550  11.247  0.1881  0.2035 -0.4265
  650MOL0     H85750  11.670   2.691  11.188 -3.0309  0.6501 -1.6166
  650MOL0     H85751  11.588   2.438  11.313  3.3146 -1.7500 -4.5716
  650MOL0     H85752  11.467   2.479  11.201 -0.5843 -1.7404  1.4685
  650MOL0     H85753  11.567   2.597  11.552  3.8249  3.1875  0.1430
  650MOL0     H85754  11.392   2.818  11.717  0.6358 -1.4997 -1.2768
  650MOL0     H85755  11.407   2.946  11.600 -0.8798 -0.3934  0.6550
  650MOL0     H85756  11.564   2.958  11.779 -3.0811 -0.3378 -1.3153
  650MOL0     H85757  11.659   2.940  11.627 -1.5729  2.3697  0.3081
  650MOL0     H85758  11.594   2.705  11.804 -2.7517  2.1453 -1.8831
  650MOL0     H85759  11.715   2.714  11.680 -0.1037  1.3863 -0.7965
  650MOL0     H85760  11.727   2.902  11.901 -2.6503  0.0705 -0.2389
  650MOL0     H85761  11.856   2.865  11.800  0.5226  2.0202  3.5012
  650MOL0     H85762  11.851   2.793  12.181  0.8840  0.9791  2.4195
  650MOL0     H85763  12.076   2.809  12.291 -1.5573 -1.3475  0.8876
  650MOL0     H85764  12.572   2.788  12.275 -2.5605 -0.8831  0.7924
  650MOL0     H85765  12.785   2.720  12.330  3.3131 -0.0918 -2.4073
  650MOL0     H85766  13.040   2.430  12.098  1.4882 -1.7801 -1.4373
  650MOL0     H85767  12.943   2.310  12.176  1.3854  0.0804 -3.7668
  650MOL0     H85768  13.160   2.273  12.223  1.0323  1.3173 -1.8163
  650MOL0     H85769  13.087   2.334  12.381  1.5721 -1.2412  0.1041
  650MOL0     H85770  13.315   2.414  12.349 -1.6930 -2.8329  0.7384
  650MOL0     H85771  13.207   2.552  12.314 -1.8249 -0.1046 -2.8332
  650MOL0     H85772  13.301   2.391  12.070  3.7128 -0.7673  1.2568
  650MOL0     H85773  13.250   2.558  12.076  0.5157 -1.4400 -1.9163
  650MOL0     H85774  13.506   2.476  12.065  0.5253  1.2511  0.7354
  650MOL0     H85775  13.491   2.446  12.230  1.0746  0.9170  1.7026
  650MOL0     H85776  13.387   2.712  12.206  1.7094 -0.5013  2.2407
  650MOL0     H85777  13.505   2.707  12.081 -2.0715  2.9803  1.0302
  650MOL0     H85778  13.520   2.641  12.386 -0.9263 -2.7479 -0.1042
  650MOL0     H85779  13.651   2.590  12.287  0.7522  1.5112 -0.7162
  650MOL0     H85780  13.707   2.801  12.388  0.1185  1.3192 -0.4789
  650MOL0     H85781  13.568   2.881  12.316 -0.1393  0.8044 -1.7567
  650MOL0     H85782  12.773   2.381  12.081  1.1762  2.5338 -2.6615
  650MOL0     H85783  12.570   2.440  11.999 -0.0932 -4.2592  4.5362
  650MOL0     H85784  12.239   2.640  11.922  0.4278  1.8687 -1.0578
  650MOL0     H85785  12.033   2.651  11.820 -2.7731  1.1510 -0.3913
  650MOL0     H85786  11.382   1.883  10.913  1.9410  1.4456  0.9316
  650MOL0     H85787  11.264   1.666  10.887 -0.1967 -0.2665 -0.1927
  650MOL0     H85788  11.229   1.311  10.707 -0.6335 -2.5716 -3.0110
  650MOL0     H85789  11.099   1.118  10.620 -0.4656  1.3696  0.0112
  650MOL0     H85790  11.154   0.776  10.849  2.4641  1.3391 -0.7786
  650MOL0     H85791  11.165   0.811  10.683 -0.6675  1.5156 -1.2039
  650MOL0     H85792  11.073   0.599  10.697  0.0412 -1.6963  0.3477
  650MOL0     H85793  10.946   0.654  10.803  0.5860  2.1879  1.8975
  650MOL0     H85794  10.975   0.790  10.537  0.4086 -0.5195 -1.7359
  650MOL0     H85795  10.827   0.766  10.618 -1.4332 -1.3832 -3.9283
  650MOL0     H85796  10.823   0.606  10.422 -0.7133 -3.6038  0.1972
  650MOL0     H85797  10.969   0.541  10.487  0.6898  0.5309  0.2796
  650MOL0     H85798  10.716   0.323  10.737  4.6435 -2.9916 -0.3933
  650MOL0     H85799  11.088   0.963  11.030 -2.1734 -1.7332 -0.7899
  650MOL0     H85800  11.188   1.166  11.105  0.1025  1.6988  0.0736
  651MOL0     O85801   3.859   3.871  10.828  0.3894  0.7667 -0.6303
  651MOL0     C85802   3.957   3.801  10.822  0.1971 -1.0149  1.0301
  651MOL0     O85803   4.002   3.711  10.915  0.2443 -0.4612 -0.3718
  651MOL0     C85804   3.947   3.702  11.034  0.3144 -0.3635 -0.2117
  651MOL0     C85805   3.942   3.812  11.121 -0.0777 -0.3341 -0.2059
  651MOL0     C85806   3.907   3.793  11.252 -0.4338 -0.0808  0.1119
  651MOL0     C85807   3.871   3.669  11.305  0.2015  0.0075 -0.5860
  651MOL0     O85808   3.826   3.653  11.441  0.1153 -0.3676  0.2087
  651MOL0     C85809   3.798   3.777  11.520 -0.1105  0.2465 -0.4347
  651MOL0     C85810   3.714   3.740  11.634  0.8320  1.5589  0.5586
  651MOL0     C85811   3.791   3.645  11.725  0.6029 -0.9764  0.1940
  651MOL0     C85812   3.698   3.586  11.840 -0.2850  0.2676  0.1606
  651MOL0     C85813   3.676   3.675  11.957  0.3161 -0.2903  0.7762
  651MOL0     C85814   3.797   3.736  12.036 -0.0507 -0.6037 -0.5858
  651MOL0     C85815   3.899   3.637  12.078  0.5192 -0.1648  0.3210
  651MOL0     C85816   3.843   3.528  12.158  0.3411 -0.8537 -0.2396
  651MOL0     N85817   3.788   3.567  12.282  0.0523 -0.6966  0.3979
  651MOL0     C85818   3.851   3.647  12.367 -0.6119  1.3120  0.6262
  651MOL0     C85819   3.757   3.672  12.465  0.2688 -0.0510 -0.3329
  651MOL0     C85820   3.781   3.765  12.576  0.5006 -0.1579  0.6567
  651MOL0     C85821   3.921   3.745  12.652  0.6496  0.0278  0.0802
  651MOL0     C85822   4.009   3.858  12.625 -0.9571 -0.7832 -0.0745
  651MOL0     C85823   4.155   3.805  12.642  0.3224 -0.3745  0.1674
  651MOL0     O85824   4.260   3.897  12.621 -0.2452 -0.7932 -0.2482
  651MOL0     C85825   4.239   4.027  12.666 -0.8529  0.7103 -0.1001
  651MOL0     C85826   4.172   4.053  12.792 -0.3901 -0.2029 -0.9124
  651MOL0     C85827   4.170   4.184  12.844  0.5245  0.0851  1.0868
  651MOL0     C85828   4.232   4.289  12.762 -0.4815 -0.6076 -0.5250
  651MOL0     C85829   4.235   4.430  12.813 -1.0428  0.4450  0.5533
  651MOL0     O85830   4.162   4.468  12.923 -0.2762 -0.1292 -0.3318
  651MOL0     C85831   4.152   4.590  12.961  0.5078 -0.5659  0.4773
  651MOL0     C85832   4.060   4.620  13.064  0.2370  0.2112  1.4107
  651MOL0     C85833   4.035   4.748  13.113  0.1178  0.2577  0.2859
  651MOL0     C85834   4.124   4.850  13.079  0.7040 -0.4842 -0.6801
  651MOL0     O85835   4.107   4.975  13.138  0.2895 -0.1554  0.6144
  651MOL0     C85836   4.142   4.996  13.277 -0.1652  0.4418 -0.4287
  651MOL0     C85837   4.293   5.016  13.301 -1.2901  0.1817 -0.2872
  651MOL0     C85838   4.313   5.171  13.286  0.2970  0.0040 -0.9932
  651MOL0     C85839   4.455   5.203  13.299  0.7034 -0.1267  0.1034
  651MOL0     C85840   4.476   5.350  13.337  0.5157  0.4359 -0.0911
  651MOL0     C85841   4.614   5.374  13.391  0.8314  0.2728  0.4230
  651MOL0     C85842   4.620   5.523  13.420  0.6491 -0.4406  0.7096
  651MOL0     C85843   4.753   5.559  13.464 -0.3172  0.4656  0.2758
  651MOL0    Cl85844   4.782   5.724  13.420  0.3291 -0.1669  0.3687
  651MOL0     C85845   4.227   4.823  12.991  0.9060 -0.3336  0.8281
  651MOL0     C85846   4.233   4.704  12.923  1.5481  0.4628  1.1508
  651MOL0     O85847   4.301   4.505  12.736 -0.3005  1.1239 -0.5535
  651MOL0     C85848   4.303   4.264  12.640 -0.0839  0.1493 -0.2992
  651MOL0     C85849   4.298   4.129  12.592 -0.2776  0.1799 -0.4889
  651MOL0     N85850   3.632   3.630  12.423  0.3634  0.1739  0.5448
  651MOL0     N85851   3.652   3.561  12.314 -0.2350 -0.2462  0.5764
  651MOL0     C85852   3.868   3.563  11.221 -0.5707  0.8550 -1.1562
  651MOL0     C85853   3.918   3.576  11.091 -0.3514  0.8375 -0.4112
  651MOL0     C85854   4.037   3.815  10.695 -0.8789  0.3589 -0.0842
  651MOL0     C85855   4.163   3.733  10.668  1.1996  0.4223 -0.4315
  651MOL0     C85856   4.228   3.766  10.550  0.7716  0.4965 -0.6862
  651MOL0     C85857   4.189   3.870  10.459 -0.1834 -0.7617 -0.5182
  651MOL0     O85858   4.258   3.916  10.351  0.7716 -0.7446 -0.0241
  651MOL0     C85859   4.270   3.816  10.245  0.2789 -1.4682  0.3653
  651MOL0     C85860   4.287   3.889  10.110  0.2295  0.2515 -0.2452
  651MOL0     C85861   4.417   3.967  10.088  0.2994  0.1401 -0.1459
  651MOL0     C85862   4.410   4.063   9.968 -0.9829 -0.3585 -0.0159
  651MOL0     C85863   4.352   4.003   9.850  0.5165  0.3312 -0.4914
  651MOL0     C85864   4.295   3.968   9.754 -0.6080  0.8289  0.2281
  651MOL0     C85865   4.093   3.959  10.501  0.6266 -0.4100  0.3133
  651MOL0     C85866   4.013   3.919  10.609  0.1988  0.2334 -0.1778
  651MOL0     H85867   3.987   3.901  11.077 -0.5916 -0.6215 -1.3540
  651MOL0     H85868   3.912   3.878  11.319 -0.4980  0.4776 -0.5824
  651MOL0     H85869   3.741   3.850  11.462 -0.6239  1.7863  1.8925
  651MOL0     H85870   3.890   3.824  11.556 -1.8853  1.2870  3.2766
  651MOL0     H85871   3.635   3.675  11.595 -0.6937  3.2679  0.6547
  651MOL0     H85872   3.671   3.824  11.690 -1.0931  1.6956 -1.0166
  651MOL0     H85873   3.868   3.711  11.765 -1.1724  2.4718 -1.6213
  651MOL0     H85874   3.840   3.564  11.670  1.5071  0.1483 -0.7040
  651MOL0     H85875   3.602   3.564  11.791 -0.2985 -1.8502  1.0376
  651MOL0     H85876   3.739   3.489  11.867  2.8154  1.2876 -0.4563
  651MOL0     H85877   3.628   3.614  12.035  3.5739 -0.6798  2.6747
  651MOL0     H85878   3.619   3.763  11.924 -0.6975  0.1755  3.5018
  651MOL0     H85879   3.754   3.785  12.124 -0.2783  0.6757 -1.3904
  651MOL0     H85880   3.860   3.801  11.974  0.7274 -2.0538 -1.3834
  651MOL0     H85881   3.938   3.583  11.991 -1.2703 -1.7026  0.4140
  651MOL0     H85882   3.972   3.692  12.137  1.6778 -1.5326  0.2087
  651MOL0     H85883   3.940   3.481  12.176  1.2585  1.2715  0.7578
  651MOL0     H85884   3.782   3.447  12.119 -1.6754  0.4659  0.0194
  651MOL0     H85885   3.950   3.684  12.346 -1.4307  2.0558 -2.3867
  651MOL0     H85886   3.707   3.729  12.648 -0.2406  0.7267  0.3588
  651MOL0     H85887   3.756   3.870  12.557  2.4798  0.8638  3.0890
  651MOL0     H85888   3.973   3.656  12.617  0.0205 -1.1704  2.0760
  651MOL0     H85889   3.892   3.738  12.757 -2.1058  1.4093 -0.4875
  651MOL0     H85890   3.991   3.899  12.525 -0.0371  0.6916  0.3247
  651MOL0     H85891   3.987   3.942  12.692  1.1484  1.6927 -2.2335
  651MOL0     H85892   4.161   3.711  12.588  1.7521  0.4463 -1.1884
  651MOL0     H85893   4.157   3.778  12.748 -0.6675 -0.3067  0.2064
  651MOL0     H85894   4.111   3.987  12.852 -4.3222  0.7796 -3.5040
  651MOL0     H85895   4.119   4.212  12.936  2.3174  1.6234  1.6785
  651MOL0     H85896   4.001   4.535  13.098 -0.2322 -0.5408 -1.1016
  651MOL0     H85897   3.966   4.779  13.191 -0.9079  0.4844 -0.6797
  651MOL0     H85898   4.114   4.908  13.335 -0.8606  2.0091  1.7235
  651MOL0     H85899   4.077   5.077  13.310  1.9520  1.5248  1.3021
  651MOL0     H85900   4.348   4.959  13.226 -0.6612  1.1955 -0.6164
  651MOL0     H85901   4.318   4.990  13.405 -0.8742 -4.3225 -1.3187
  651MOL0     H85902   4.241   5.207  13.360  0.6353  0.2671 -0.7869
  651MOL0     H85903   4.267   5.197  13.190 -1.5779 -0.5965 -0.2964
  651MOL0     H85904   4.507   5.152  13.380  1.3812 -0.3044 -0.4269
  651MOL0     H85905   4.507   5.178  13.205  1.4509 -0.3667  0.5730
  651MOL0     H85906   4.401   5.372  13.414 -1.5698  4.3225 -2.8859
  651MOL0     H85907   4.458   5.403  13.243  0.5121  0.7446  0.0830
  651MOL0     H85908   4.684   5.340  13.314  3.5989  3.5203  1.2517
  651MOL0     H85909   4.633   5.315  13.481 -4.0175  0.0563  1.5751
  651MOL0     H85910   4.607   5.576  13.325  0.1231  0.6558  1.3757
  651MOL0     H85911   4.548   5.557  13.495 -2.1440 -1.4296 -1.3498
  651MOL0     H85912   4.831   5.499  13.417 -1.6789 -0.1019 -1.4020
  651MOL0     H85913   4.751   5.550  13.573  1.1686 -3.9771  0.1513
  651MOL0     H85914   4.297   4.902  12.965  0.4686 -0.2576 -0.1453
  651MOL0     H85915   4.312   4.705  12.849  2.2570 -0.3009  1.8754
  651MOL0     H85916   4.353   4.344  12.586  1.0579 -0.5533 -0.3084
  651MOL0     H85917   4.343   4.096  12.498 -0.1021 -3.5149  0.7431
  651MOL0     H85918   3.839   3.470  11.268 -2.2653  2.3357  0.8966
  651MOL0     H85919   3.921   3.480  11.040 -3.5795  0.5936 -0.3397
  651MOL0     H85920   4.204   3.652  10.728  0.1015  1.7328  2.2249
  651MOL0     H85921   4.324   3.726  10.517  0.0313  0.1939 -2.5824
  651MOL0     H85922   4.173   3.766  10.245  1.1970 -3.3918 -0.5699
  651MOL0     H85923   4.354   3.752  10.273  3.2260  2.9271  2.8405
  651MOL0     H85924   4.281   3.800  10.048  2.2172 -1.3313  1.6570
  651MOL0     H85925   4.202   3.957  10.106 -0.7829 -0.7234  2.3014
  651MOL0     H85926   4.486   3.885  10.063 -1.5967 -1.3437 -0.7023
  651MOL0     H85927   4.453   4.012  10.181  2.6337  0.7959 -1.2884
  651MOL0     H85928   4.341   4.142   9.999 -1.1527 -1.3781  2.4739
  651MOL0     H85929   4.507   4.109   9.943 -0.7829 -1.4739 -1.4292
  651MOL0     H85930   4.224   3.956   9.675 -4.0412  0.1590  3.1504
  651MOL0     H85931   4.073   4.047  10.441  0.0661 -2.5312 -2.8548
  651MOL0     H85932   3.939   3.993  10.637  1.0521  1.4762 -1.0784
  652MOL0     O85933  10.476   1.214   9.316 -0.0058 -0.0247  0.1228
  652MOL0     C85934  10.499   1.308   9.243 -0.0497  0.5638 -0.6373
  652MOL0     O85935  10.589   1.313   9.148 -0.0641 -0.0506  0.5308
  652MOL0     C85936  10.645   1.197   9.090  0.3085  0.3250  0.1332
  652MOL0     C85937  10.777   1.210   9.037  0.3898  0.1064  1.0211
  652MOL0     C85938  10.838   1.109   8.965 -0.5232  0.2939  0.5003
  652MOL0     C85939  10.771   0.983   8.950  0.5196  0.0480  0.8003
  652MOL0     O85940  10.833   0.888   8.874 -0.1485  0.0781  0.0177
  652MOL0     C85941  10.787   0.755   8.875  0.9185 -0.5225  0.3987
  652MOL0     C85942  10.861   0.684   8.769 -0.3966 -0.2983  0.5788
  652MOL0     C85943  10.827   0.538   8.775  0.1201 -0.6914  0.1819
  652MOL0     C85944  10.911   0.453   8.687 -0.6720  0.9133  0.8562
  652MOL0     C85945  10.908   0.500   8.539 -0.7600 -0.5061 -0.0957
  652MOL0     C85946  10.996   0.410   8.455 -0.1247 -0.6752 -0.2451
  652MOL0     C85947  11.052   0.465   8.326 -0.7720 -0.0166  0.1080
  652MOL0     C85948  11.145   0.370   8.235  0.4315  1.0983  0.4247
  652MOL0     N85949  11.158   0.393   8.087 -0.3185 -1.0089  0.0235
  652MOL0     C85950  11.233   0.324   8.001 -0.1396  0.1173  0.3811
  652MOL0     C85951  11.179   0.352   7.877 -0.5213  0.4615  0.1116
  652MOL0     C85952  11.227   0.307   7.747  0.1011  0.5749 -0.1372
  652MOL0     C85953  11.252   0.157   7.748  0.1717 -0.2691  0.3813
  652MOL0     C85954  11.398   0.129   7.796  0.4125 -0.7617 -0.3063
  652MOL0     C85955  11.403   0.002   7.878  0.1140 -0.4404  0.2278
  652MOL0     O85956  11.364   0.021   8.006 -0.1640 -0.0863  0.6123
  652MOL0     C85957  11.369  -0.082   8.091 -0.8829  0.1154  0.4756
  652MOL0     C85958  11.250  -0.132   8.134  0.2350 -0.2891 -0.5077
  652MOL0     C85959  11.250  -0.242   8.225  0.2057 -0.0207  0.6382
  652MOL0     C85960  11.363  -0.304   8.270 -0.1673 -0.2621 -0.1672
  652MOL0     C85961  11.352  -0.433   8.343 -0.9521 -0.1580  0.4597
  652MOL0     O85962  11.255  -0.528   8.302  0.6993 -0.2622  0.0962
  652MOL0     C85963  11.234  -0.649   8.375  0.9896 -0.6428 -0.1871
  652MOL0     C85964  11.157  -0.748   8.322  0.3992 -0.8346 -0.7858
  652MOL0     C85965  11.126  -0.861   8.386  0.1882  0.0817 -0.3570
  652MOL0     C85966  11.188  -0.899   8.498 -0.6293  0.3011  0.1531
  652MOL0     O85967  11.167  -1.028   8.535  0.0307 -0.1175  0.1944
  652MOL0     C85968  11.245  -1.085   8.645 -0.2579 -0.7903  0.4314
  652MOL0     C85969  11.198  -1.230   8.682  0.0732 -0.8073  0.0246
  652MOL0     C85970  11.272  -1.336   8.610 -0.1721 -0.3483  1.0537
  652MOL0     C85971  11.220  -1.472   8.661 -0.4322  0.0556 -0.5079
  652MOL0     C85972  11.085  -1.522   8.645  0.4747  0.6839 -0.3905
  652MOL0     C85973  10.989  -1.487   8.767 -0.0983 -0.3096  0.1934
  652MOL0     C85974  10.853  -1.521   8.741 -0.7346 -0.1016 -0.2786
  652MOL0     C85975  10.764  -1.515   8.872 -1.0558 -0.0429  0.8316
  652MOL0    Cl85976  10.765  -1.344   8.930  0.0193  0.0216 -0.0211
  652MOL0     C85977  11.266  -0.796   8.561  0.2603  0.7843  0.4137
  652MOL0     C85978  11.281  -0.673   8.503  1.0705  1.0339 -0.8023
  652MOL0     O85979  11.442  -0.459   8.421  0.0908  0.5760  0.5922
  652MOL0     C85980  11.480  -0.243   8.246  0.9546  0.2941  0.0143
  652MOL0     C85981  11.485  -0.137   8.152  0.3463 -0.2454  0.0689
  652MOL0     N85982  11.081   0.452   7.888 -0.2217 -0.1144 -0.5039
  652MOL0     N85983  11.067   0.470   8.019  0.1920  0.3103 -0.0842
  652MOL0     C85984  10.647   0.968   9.007 -0.8660 -0.2850  0.3065
  652MOL0     C85985  10.583   1.070   9.079 -0.4451 -0.2265  0.4024
  652MOL0     C85986  10.431   1.434   9.291  0.0038  1.2613 -0.4353
  652MOL0     C85987  10.317   1.424   9.368  0.1809  0.4854  0.8034
  652MOL0     C85988  10.260   1.546   9.414  0.6303 -0.0490  0.1937
  652MOL0     C85989  10.304   1.670   9.382  0.8556  0.2721 -0.2410
  652MOL0     O85990  10.246   1.790   9.420 -1.0589  0.1755 -0.4255
  652MOL0     C85991  10.114   1.785   9.479 -0.0483 -0.1186  0.3162
  652MOL0     C85992  10.021   1.857   9.377 -0.1341 -0.2343  0.5428
  652MOL0     C85993   9.978   1.789   9.254 -0.3401  0.1144 -0.9359
  652MOL0     C85994   9.856   1.855   9.183  0.0080 -0.0433 -0.0571
  652MOL0     C85995   9.898   1.985   9.128 -0.5534  0.1435  0.4779
  652MOL0     C85996   9.927   2.089   9.077 -0.0726 -0.5858 -0.2669
  652MOL0     C85997  10.433   1.674   9.314  0.5042  0.2402 -0.2361
  652MOL0     C85998  10.488   1.560   9.254  0.2252 -0.0328 -0.3404
  652MOL0     H85999  10.844   1.292   9.057  1.4222 -0.2169 -0.8870
  652MOL0     H86000  10.937   1.117   8.921  0.2225 -0.1323  2.0497
  652MOL0     H86001  10.681   0.751   8.849 -0.2037 -0.9871  4.3041
  652MOL0     H86002  10.798   0.714   8.976 -3.2432 -3.0624  0.0746
  652MOL0     H86003  10.964   0.710   8.795 -0.8340  0.5577  1.5374
  652MOL0     H86004  10.833   0.731   8.674 -1.4653 -0.0280  1.0145
  652MOL0     H86005  10.721   0.514   8.759  0.3373 -1.9341  0.5368
  652MOL0     H86006  10.831   0.514   8.881 -1.9903 -1.3356  0.1602
  652MOL0     H86007  11.010   0.444   8.732 -0.7691  2.9050  1.5624
  652MOL0     H86008  10.863   0.354   8.684  0.3555  0.4326 -0.5083
  652MOL0     H86009  10.947   0.602   8.530 -1.7942 -0.2537 -2.8560
  652MOL0     H86010  10.809   0.494   8.491 -0.9964  0.5755  0.2225
  652MOL0     H86011  10.936   0.323   8.424 -2.4916  0.3776  1.0817
  652MOL0     H86012  11.088   0.391   8.510  0.4472  1.1864 -0.5040
  652MOL0     H86013  10.965   0.491   8.266 -1.5547 -1.2071  0.6884
  652MOL0     H86014  11.095   0.563   8.350  0.0981 -0.1579 -0.7881
  652MOL0     H86015  11.111   0.266   8.236 -3.2009  2.0558 -2.0288
  652MOL0     H86016  11.249   0.375   8.267  1.6218  2.9994 -3.1915
  652MOL0     H86017  11.314   0.253   8.019 -0.0570  0.4871  1.5046
  652MOL0     H86018  11.308   0.371   7.711  1.7730 -1.2548  0.1657
  652MOL0     H86019  11.134   0.320   7.690  0.2167  0.2660 -0.3965
  652MOL0     H86020  11.231   0.118   7.648  1.6868  1.2161 -0.5805
  652MOL0     H86021  11.189   0.099   7.815 -1.4870 -1.3289 -1.9576
  652MOL0     H86022  11.464   0.129   7.709  0.8530  2.4830 -0.1230
  652MOL0     H86023  11.436   0.205   7.866  0.1660 -2.1055  1.3378
  652MOL0     H86024  11.509  -0.024   7.879  0.5178  0.9699 -1.3817
  652MOL0     H86025  11.351  -0.087   7.844  1.5244 -1.2482  0.1220
  652MOL0     H86026  11.159  -0.090   8.091  0.5919 -1.1208 -2.1745
  652MOL0     H86027  11.148  -0.275   8.244 -0.0852  1.5052  2.0222
  652MOL0     H86028  11.115  -0.733   8.223  0.2359  0.8201 -0.4933
  652MOL0     H86029  11.060  -0.931   8.337 -2.5125  1.8231  0.5504
  652MOL0     H86030  11.236  -1.020   8.732 -2.1717 -1.1172  0.5350
  652MOL0     H86031  11.350  -1.100   8.622  0.5000 -1.7024  3.9375
  652MOL0     H86032  11.091  -1.220   8.659  0.5892 -0.0134 -2.1838
  652MOL0     H86033  11.194  -1.239   8.791 -1.3256 -1.2869 -0.0466
  652MOL0     H86034  11.379  -1.323   8.631 -0.4360  1.1798  1.5281
  652MOL0     H86035  11.267  -1.337   8.500 -1.3131 -2.2119  1.0710
  652MOL0     H86036  11.286  -1.546   8.615  1.7565  0.6856  1.4306
  652MOL0     H86037  11.238  -1.476   8.768 -1.0703 -4.0311 -0.4206
  652MOL0     H86038  11.085  -1.631   8.641 -1.0016  0.6929 -4.0930
  652MOL0     H86039  11.049  -1.474   8.554 -0.7173 -0.9818 -0.8388
  652MOL0     H86040  10.992  -1.379   8.788  1.1282 -0.0867 -0.9661
  652MOL0     H86041  11.029  -1.543   8.852 -0.9711  0.7375  1.3422
  652MOL0     H86042  10.824  -1.453   8.660  0.6345  0.8055 -0.0481
  652MOL0     H86043  10.843  -1.623   8.703 -1.2940  0.4129 -1.5807
  652MOL0     H86044  10.794  -1.586   8.950 -4.3537 -2.8640 -0.1758
  652MOL0     H86045  10.662  -1.546   8.850 -1.3054 -0.8811  2.9067
  652MOL0     H86046  11.322  -0.830   8.648  2.3178  0.6633 -0.8729
  652MOL0     H86047  11.337  -0.602   8.562  1.3795  1.6700 -1.8556
  652MOL0     H86048  11.571  -0.285   8.287  2.3981  0.4464 -2.7501
  652MOL0     H86049  11.586  -0.113   8.119  1.3604  0.9477  3.5526
  652MOL0     H86050  10.591   0.876   8.998 -0.2528 -0.4417 -3.3902
  652MOL0     H86051  10.485   1.060   9.125 -0.6291  1.0424  0.3256
  652MOL0     H86052  10.278   1.325   9.388  1.2113 -0.4659 -1.4808
  652MOL0     H86053  10.171   1.537   9.475  0.3623 -0.7488 -0.2831
  652MOL0     H86054  10.113   1.846   9.570 -1.2546  2.0564 -1.0572
  652MOL0     H86055  10.074   1.688   9.513 -0.8399 -0.1960 -0.7976
  652MOL0     H86056   9.934   1.884   9.438  1.1604  5.7391  0.3398
  652MOL0     H86057  10.064   1.947   9.333  2.4725 -2.3471 -1.6280
  652MOL0     H86058   9.976   1.680   9.269 -0.8041  0.1499 -0.7066
  652MOL0     H86059  10.052   1.795   9.174 -1.9108 -2.4405 -2.7543
  652MOL0     H86060   9.831   1.782   9.107  2.2555  1.0887 -2.0060
  652MOL0     H86061   9.770   1.874   9.249  0.0706  1.6541 -0.4134
  652MOL0     H86062   9.943   2.186   9.035  0.5887  1.2602  3.8274
  652MOL0     H86063  10.475   1.772   9.294  0.4354  0.2334 -0.4123
  652MOL0     H86064  10.574   1.576   9.191 -0.3060 -1.7057 -1.5607
  653MOL0     O86065   5.762   0.962   5.662 -0.3894 -0.5679 -0.0559
  653MOL0     C86066   5.699   0.903   5.575  0.0464  0.8181  0.0577
  653MOL0     O86067   5.570   0.941   5.525 -0.4434 -0.4079  0.4914
  653MOL0     C86068   5.508   1.049   5.569 -0.3838 -0.3566 -0.0332
  653MOL0     C86069   5.549   1.172   5.524 -0.4341  0.5810 -0.3987
  653MOL0     C86070   5.473   1.289   5.560 -0.8559  0.1762 -0.7182
  653MOL0     C86071   5.362   1.283   5.644  0.4856  0.3636 -0.3258
  653MOL0     O86072   5.286   1.396   5.676 -0.2923  0.8039  0.1112
  653MOL0     C86073   5.274   1.426   5.819 -0.3467 -0.1424  1.3117
  653MOL0     C86074   5.405   1.488   5.851  1.2040  0.9058 -0.1769
  653MOL0     C86075   5.396   1.577   5.971  0.2381 -0.1307 -0.2021
  653MOL0     C86076   5.529   1.640   5.976  0.7280 -0.1279 -0.6322
  653MOL0     C86077   5.514   1.751   6.074 -0.0964  0.4743  0.3156
  653MOL0     C86078   5.650   1.809   6.100  0.7985  0.3174 -0.4711
  653MOL0     C86079   5.640   1.945   6.177 -0.7571  0.1332  0.1206
  653MOL0     C86080   5.767   2.019   6.146  0.1811 -1.0114  0.5774
  653MOL0     N86081   5.870   1.976   6.241 -0.6228 -0.2242 -0.3075
  653MOL0     C86082   5.885   2.015   6.370 -0.5279 -0.6408 -0.8459
  653MOL0     C86083   5.956   1.921   6.436  0.3179 -0.0728 -0.2713
  653MOL0     C86084   5.992   1.914   6.576  0.5894 -0.2074 -0.0968
  653MOL0     C86085   5.860   1.891   6.654 -0.8439 -0.4911 -0.4424
  653MOL0     C86086   5.876   1.895   6.806 -0.8463 -0.2233 -0.5386
  653MOL0     C86087   5.985   1.794   6.874 -0.0950 -0.0960  0.1080
  653MOL0     O86088   5.958   1.658   6.842  0.0817 -0.2787  0.4409
  653MOL0     C86089   6.028   1.550   6.903 -0.4051 -1.4465  1.1280
  653MOL0     C86090   6.018   1.438   6.834 -0.4499  0.4293 -0.1577
  653MOL0     C86091   6.081   1.324   6.888 -0.0476  0.2863  0.4634
  653MOL0     C86092   6.157   1.319   7.009 -0.0499  0.8819 -0.8265
  653MOL0     C86093   6.199   1.183   7.060  1.0059 -0.3051  0.5730
  653MOL0     O86094   6.198   1.079   6.974  0.8214 -0.1973  0.0149
  653MOL0     C86095   6.262   0.963   7.009  0.1161  0.1652 -0.0963
  653MOL0     C86096   6.394   0.941   6.954 -0.6235  0.6286 -0.7814
  653MOL0     C86097   6.461   0.818   6.989 -0.1699 -0.3903  0.0346
  653MOL0     C86098   6.404   0.725   7.077  0.0440  0.9965  0.1176
  653MOL0     O86099   6.478   0.621   7.135  0.3764 -0.6803  0.6612
  653MOL0     C86100   6.435   0.519   7.222  1.2966 -0.1913  0.5185
  653MOL0     C86101   6.543   0.414   7.240 -0.9718 -0.1587  0.0068
  653MOL0     C86102   6.504   0.304   7.340 -0.7431  0.6639  0.4327
  653MOL0     C86103   6.607   0.273   7.446  0.0870 -0.2039 -0.0061
  653MOL0     C86104   6.587   0.361   7.574  0.0828 -0.5142 -0.0929
  653MOL0     C86105   6.706   0.361   7.666 -0.0781  0.7459  0.2257
  653MOL0     C86106   6.685   0.452   7.776 -1.1695  0.8342 -0.3308
  653MOL0     C86107   6.704   0.604   7.736  0.6122 -0.6052  0.7734
  653MOL0    Cl86108   6.694   0.706   7.885 -0.1148  0.3765  0.0566
  653MOL0     C86109   6.271   0.755   7.132 -0.5864  0.4096  0.7979
  653MOL0     C86110   6.204   0.872   7.098  0.2141  1.0608 -0.0430
  653MOL0     O86111   6.223   1.180   7.187 -0.8828  0.1893 -0.4647
  653MOL0     C86112   6.168   1.441   7.081 -1.0427  0.4666  0.5346
  653MOL0     C86113   6.105   1.558   7.025 -0.2644 -0.2218 -0.0290
  653MOL0     N86114   5.987   1.823   6.344 -0.2469 -0.1246  0.0848
  653MOL0     N86115   5.939   1.854   6.227  0.5816 -0.3533 -0.0896
  653MOL0     C86116   5.313   1.156   5.673 -0.1111 -1.1138 -0.1981
  653MOL0     C86117   5.383   1.050   5.633 -0.4816  0.1109 -0.1717
  653MOL0     C86118   5.757   0.773   5.526  0.2220  0.6145  0.9234
  653MOL0     C86119   5.889   0.733   5.551 -0.1115 -0.3338  0.2435
  653MOL0     C86120   5.933   0.604   5.516 -0.9042  0.2270 -0.2846
  653MOL0     C86121   5.855   0.507   5.462  0.4276 -1.2083  0.2553
  653MOL0     O86122   5.890   0.380   5.437  0.2133  0.4564  0.0851
  653MOL0     C86123   6.026   0.335   5.471  0.4769  0.4169  0.8587
  653MOL0     C86124   6.037   0.184   5.471  0.2181 -0.7177  0.3026
  653MOL0     C86125   6.156   0.122   5.546  0.2705 -0.4989  0.1288
  653MOL0     C86126   6.293   0.174   5.504  0.3117  0.5571  0.6167
  653MOL0     C86127   6.391   0.085   5.559  0.1637 -0.0814  0.0306
  653MOL0     C86128   6.475  -0.001   5.590  1.0364 -0.0486 -0.0441
  653MOL0     C86129   5.732   0.548   5.419 -0.6164 -0.4159 -0.2015
  653MOL0     C86130   5.681   0.676   5.448  0.1572 -0.2052 -0.5696
  653MOL0     H86131   5.625   1.176   5.448  0.7003 -1.7745  0.5163
  653MOL0     H86132   5.492   1.388   5.519  1.1172 -1.0722 -3.0339
  653MOL0     H86133   5.264   1.338   5.883  0.1157 -0.9739  0.2642
  653MOL0     H86134   5.185   1.488   5.833 -1.4188 -1.0385 -1.1221
  653MOL0     H86135   5.454   1.531   5.763  1.2742 -1.4815 -1.4110
  653MOL0     H86136   5.469   1.407   5.887 -0.3701  0.7280  2.4710
  653MOL0     H86137   5.369   1.527   6.064  0.3768 -2.0335 -1.1408
  653MOL0     H86138   5.316   1.649   5.948 -3.0267 -2.1392  3.6236
  653MOL0     H86139   5.606   1.570   6.009 -0.7563 -1.3722  0.3346
  653MOL0     H86140   5.559   1.694   5.887 -2.0397  5.1871  1.2105
  653MOL0     H86141   5.458   1.727   6.166 -1.1150  3.4844  0.6236
  653MOL0     H86142   5.466   1.840   6.031 -1.1755  0.3665  1.2269
  653MOL0     H86143   5.703   1.827   6.006  6.0988 -1.5922  1.7992
  653MOL0     H86144   5.700   1.734   6.161  0.8661  0.5994 -0.1734
  653MOL0     H86145   5.550   2.001   6.149  0.3666  1.4666 -0.9570
  653MOL0     H86146   5.635   1.930   6.285  1.4969  0.5540  0.3318
  653MOL0     H86147   5.744   2.123   6.169 -0.6528 -1.0256 -0.1509
  653MOL0     H86148   5.798   2.024   6.041  2.0350 -0.3888  1.1208
  653MOL0     H86149   5.861   2.115   6.405  0.9065  0.4266 -2.7072
  653MOL0     H86150   6.038   2.010   6.602 -1.0298  0.1454  1.7005
  653MOL0     H86151   6.072   1.840   6.588  1.7904  0.5499 -2.6280
  653MOL0     H86152   5.807   1.796   6.640  0.1921 -1.5657  2.2621
  653MOL0     H86153   5.794   1.974   6.631  2.3943  2.2823 -0.4797
  653MOL0     H86154   5.913   1.996   6.826  1.3031 -1.2705  1.3593
  653MOL0     H86155   5.782   1.868   6.854  0.0916 -0.5727  1.2063
  653MOL0     H86156   5.990   1.812   6.982  0.0362  1.3978 -0.1287
  653MOL0     H86157   6.081   1.815   6.826 -1.2648 -2.3172 -3.5265
  653MOL0     H86158   5.962   1.452   6.742  2.3752  1.3138 -1.8861
  653MOL0     H86159   6.075   1.237   6.823 -0.8832  0.3528  0.4482
  653MOL0     H86160   6.443   1.007   6.882 -1.5683  1.3517 -0.7947
  653MOL0     H86161   6.556   0.789   6.945 -0.3636  1.8249 -2.0484
  653MOL0     H86162   6.360   0.465   7.164  3.3629  0.0723 -2.6720
  653MOL0     H86163   6.394   0.556   7.316  1.1668  0.0318  0.3751
  653MOL0     H86164   6.629   0.474   7.271 -1.0965  2.0709 -3.4660
  653MOL0     H86165   6.571   0.366   7.146 -0.6268 -2.0107  1.0038
  653MOL0     H86166   6.486   0.211   7.286 -0.3848  0.7032  0.2430
  653MOL0     H86167   6.404   0.323   7.380 -0.3017 -0.7929  2.4460
  653MOL0     H86168   6.609   0.169   7.477  0.8544 -0.0676  0.4171
  653MOL0     H86169   6.705   0.298   7.403  0.7369 -3.2563 -0.5274
  653MOL0     H86170   6.499   0.323   7.626 -1.3980 -0.9807 -2.7618
  653MOL0     H86171   6.573   0.461   7.531 -2.6619 -0.5819  0.4616
  653MOL0     H86172   6.797   0.386   7.612  1.2454  1.0538  2.4964
  653MOL0     H86173   6.716   0.262   7.712 -5.5138 -0.9254 -1.3907
  653MOL0     H86174   6.588   0.434   7.824  0.0536  0.5016  2.1986
  653MOL0     H86175   6.759   0.429   7.853 -1.8911  0.8459  0.3843
  653MOL0     H86176   6.630   0.639   7.663  2.5935 -0.2662 -1.1888
  653MOL0     H86177   6.803   0.609   7.690 -0.3095  1.2135 -1.2057
  653MOL0     H86178   6.240   0.691   7.214  0.7318 -0.3340  0.7469
  653MOL0     H86179   6.112   0.895   7.151  1.4245 -2.3320  4.0097
  653MOL0     H86180   6.212   1.442   7.180 -1.9129 -0.1120  0.9420
  653MOL0     H86181   6.114   1.651   7.080 -1.9423 -1.1993  2.0126
  653MOL0     H86182   5.224   1.149   5.735  2.2828 -3.2388  3.4273
  653MOL0     H86183   5.345   0.956   5.671  0.9262 -0.9898 -1.3762
  653MOL0     H86184   5.960   0.796   5.604  2.8515 -2.1322 -1.2608
  653MOL0     H86185   6.033   0.592   5.555 -0.0330  4.2792 -0.8616
  653MOL0     H86186   6.051   0.370   5.571 -0.6569  0.6530  1.0720
  653MOL0     H86187   6.091   0.385   5.398  2.1708  0.2775  2.2234
  653MOL0     H86188   5.948   0.135   5.510  0.5201 -3.6209 -2.3328
  653MOL0     H86189   6.050   0.161   5.365 -2.7260 -2.5903  0.2479
  653MOL0     H86190   6.156   0.015   5.525  2.9846 -0.2795 -1.4219
  653MOL0     H86191   6.153   0.149   5.652  1.5372  3.0242 -0.6078
  653MOL0     H86192   6.300   0.156   5.397  0.1881  2.9717  0.1671
  653MOL0     H86193   6.315   0.275   5.539  1.1614  0.3250  0.8060
  653MOL0     H86194   6.533  -0.085   5.620 -0.2796 -0.6549  0.9195
  653MOL0     H86195   5.665   0.485   5.361 -1.9752  0.5378  0.2731
  653MOL0     H86196   5.580   0.706   5.422 -0.6170 -0.8501  1.5130
  654MOL0     O86197   1.014   5.376   8.784  0.3062  0.1374  0.3191
  654MOL0     C86198   1.005   5.353   8.904 -0.2805  0.5568  0.2929
  654MOL0     O86199   1.065   5.422   8.998  0.4382 -0.8130  0.4823
  654MOL0     C86200   1.146   5.531   8.962  0.3444 -0.0311 -0.6493
  654MOL0     C86201   1.130   5.617   8.857  0.3779 -0.4985  0.3181
  654MOL0     C86202   1.221   5.721   8.830 -0.5111 -0.4888 -0.6956
  654MOL0     C86203   1.316   5.754   8.920 -0.8960  0.0673 -0.3087
  654MOL0     O86204   1.387   5.869   8.904 -0.7458 -0.3211 -0.4953
  654MOL0     C86205   1.522   5.882   8.964 -0.9252  0.2413  0.6854
  654MOL0     C86206   1.594   6.003   8.906  0.1936 -0.1477 -0.5583
  654MOL0     C86207   1.612   6.129   8.999 -0.1603  0.2574  0.2136
  654MOL0     C86208   1.700   6.088   9.121 -0.6807 -0.2761  0.0046
  654MOL0     C86209   1.757   6.213   9.191  0.3539  0.2197 -0.4860
  654MOL0     C86210   1.878   6.283   9.116  0.8214  0.7275 -0.0303
  654MOL0     C86211   1.909   6.426   9.182  0.1843  0.9786  0.1234
  654MOL0     C86212   1.781   6.517   9.186  0.5527  0.0104  0.0844
  654MOL0     N86213   1.729   6.536   9.037  0.0686  0.5533  0.1356
  654MOL0     C86214   1.800   6.567   8.927  0.5180 -0.5826 -0.3393
  654MOL0     C86215   1.713   6.561   8.825 -0.0533 -1.0638 -0.3189
  654MOL0     C86216   1.737   6.596   8.678 -0.7458  0.1741 -0.7413
  654MOL0     C86217   1.671   6.737   8.662  0.4085 -0.2928  0.7638
  654MOL0     C86218   1.757   6.855   8.719 -0.5214 -0.4078  0.3577
  654MOL0     C86219   1.727   6.890   8.862  0.1853  0.0053 -0.4812
  654MOL0     O86220   1.591   6.917   8.886  0.2732 -0.6909 -0.2975
  654MOL0     C86221   1.553   6.978   9.000 -1.1959  0.5594  0.4486
  654MOL0     C86222   1.430   7.034   9.005  0.7885 -1.0640 -0.6511
  654MOL0     C86223   1.382   7.098   9.115 -0.2003 -0.6993 -0.0526
  654MOL0     C86224   1.456   7.100   9.230 -0.4394  0.1925  0.3121
  654MOL0     C86225   1.409   7.169   9.344  0.4928  0.4131  0.4935
  654MOL0     O86226   1.290   7.237   9.330 -0.0517 -0.5122 -0.4269
  654MOL0     C86227   1.253   7.313   9.443 -0.7620 -0.2336  0.0864
  654MOL0     C86228   1.248   7.456   9.444  0.5525 -0.7462  0.5089
  654MOL0     C86229   1.188   7.516   9.561  0.0681  0.0445 -0.2279
  654MOL0     C86230   1.138   7.448   9.670 -0.8073  0.0755  0.0882
  654MOL0     O86231   1.079   7.524   9.767 -0.2560  0.9850  0.5214
  654MOL0     C86232   1.001   7.442   9.855 -0.0335  0.2368 -1.1513
  654MOL0     C86233   0.942   7.542   9.948 -0.2325 -0.3142 -0.1909
  654MOL0     C86234   0.872   7.488  10.076 -0.5135  0.7149 -0.9274
  654MOL0     C86235   0.852   7.592  10.183 -0.1315  0.9071  1.0780
  654MOL0     C86236   0.793   7.518  10.305  0.5075 -0.3244 -0.2834
  654MOL0     C86237   0.828   7.608  10.421 -0.0656  0.0051 -0.4402
  654MOL0     C86238   0.757   7.556  10.550 -0.1341  0.1192  0.4968
  654MOL0     C86239   0.606   7.555  10.551  0.4329  0.7471 -0.2775
  654MOL0    Cl86240   0.535   7.720  10.552  0.0215  0.0310 -0.0611
  654MOL0     C86241   1.161   7.306   9.664 -0.0120 -0.2712 -1.3115
  654MOL0     C86242   1.215   7.245   9.552 -0.1206 -1.0484  0.5372
  654MOL0     O86243   1.491   7.178   9.439  1.5760 -0.2243  0.2625
  654MOL0     C86244   1.579   7.031   9.235  0.1640  0.6083  1.0062
  654MOL0     C86245   1.633   6.973   9.121  0.3579 -0.6537 -0.0667
  654MOL0     N86246   1.584   6.534   8.878  0.6758 -0.3017  0.3564
  654MOL0     N86247   1.602   6.512   8.999 -0.7671 -0.2433  0.9847
  654MOL0     C86248   1.331   5.678   9.035  0.4200 -0.2920 -0.4017
  654MOL0     C86249   1.246   5.567   9.048  0.1962 -0.6285 -0.7527
  654MOL0     C86250   0.921   5.230   8.925 -0.2620 -0.2212 -0.2358
  654MOL0     C86251   0.941   5.154   9.037  0.0097 -0.6478 -0.5216
  654MOL0     C86252   0.857   5.037   9.054 -0.7636 -0.0395 -0.5405
  654MOL0     C86253   0.747   5.009   8.971 -0.8799  0.7385 -0.0693
  654MOL0     O86254   0.658   4.913   9.004 -0.1184  0.0732  0.1112
  654MOL0     C86255   0.683   4.833   9.118 -0.3100 -0.2826  0.5088
  654MOL0     C86256   0.780   4.723   9.077 -0.1256  0.6007  0.0588
  654MOL0     C86257   0.803   4.630   9.198  0.2185  0.0046 -0.8019
  654MOL0     C86258   0.902   4.668   9.303 -0.3122  0.1733  0.2461
  654MOL0     C86259   1.032   4.711   9.244 -0.1744  0.0026 -0.1177
  654MOL0     C86260   1.132   4.752   9.182 -0.7057  0.6369  0.0673
  654MOL0     C86261   0.714   5.101   8.864 -0.3631 -0.5377 -0.9052
  654MOL0     C86262   0.808   5.207   8.843 -0.1842 -0.2336  0.1973
  654MOL0     H86263   1.046   5.610   8.789  2.5766 -1.5479 -2.4872
  654MOL0     H86264   1.209   5.778   8.738 -0.6517 -1.0268 -1.0166
  654MOL0     H86265   1.579   5.793   8.934 -0.4006  0.9933 -0.6613
  654MOL0     H86266   1.510   5.880   9.072 -5.0458  0.7103  0.4024
  654MOL0     H86267   1.541   6.052   8.824 -0.7207 -1.9290 -1.0762
  654MOL0     H86268   1.689   5.959   8.873  0.9794 -1.5098  3.0497
  654MOL0     H86269   1.513   6.162   9.030 -0.5154 -0.6567  0.0920
  654MOL0     H86270   1.669   6.206   8.947 -0.1693  1.0332  1.3131
  654MOL0     H86271   1.630   6.035   9.188  1.2420 -0.3331  2.0987
  654MOL0     H86272   1.777   6.012   9.105 -0.4729 -0.7119  2.6070
  654MOL0     H86273   1.769   6.189   9.297 -0.2325  0.6675 -0.3098
  654MOL0     H86274   1.671   6.280   9.196 -1.3851 -1.9628  0.9094
  654MOL0     H86275   1.857   6.287   9.009 -0.9695 -1.7546  0.1548
  654MOL0     H86276   1.973   6.230   9.130  2.5161  3.4456 -0.5708
  654MOL0     H86277   1.947   6.417   9.284  0.6149  2.2389  0.0886
  654MOL0     H86278   2.000   6.466   9.134 -1.9985  0.9978 -4.5338
  654MOL0     H86279   1.811   6.618   9.217  0.9739 -0.1797  0.3036
  654MOL0     H86280   1.703   6.479   9.252 -0.4681 -1.6125 -1.9483
  654MOL0     H86281   1.907   6.582   8.918  0.3398  1.4628  0.4821
  654MOL0     H86282   1.691   6.524   8.610 -2.1103  1.3139 -1.0884
  654MOL0     H86283   1.844   6.593   8.659 -1.3082 -0.3965 -4.5211
  654MOL0     H86284   1.579   6.736   8.721  0.4955 -2.9410  0.9540
  654MOL0     H86285   1.646   6.748   8.556 -0.3815  1.8047  1.1097
  654MOL0     H86286   1.862   6.825   8.713 -1.3218 -3.4109 -0.6469
  654MOL0     H86287   1.745   6.937   8.647 -1.9326 -1.5853 -0.8159
  654MOL0     H86288   1.785   6.982   8.877 -0.3881  0.4283 -0.7784
  654MOL0     H86289   1.768   6.820   8.934  2.4489  0.8032 -0.9236
  654MOL0     H86290   1.353   7.021   8.930  0.6686 -1.0161 -0.5378
  654MOL0     H86291   1.295   7.159   9.094 -0.3690 -1.2847 -1.0982
  654MOL0     H86292   1.269   7.515   9.355  0.5793 -1.9974 -0.3372
  654MOL0     H86293   1.188   7.624   9.572 -1.2323  0.1860 -1.4225
  654MOL0     H86294   1.062   7.365   9.903  1.1884  0.7574 -1.8188
  654MOL0     H86295   0.931   7.384   9.794 -0.7416  0.3442 -0.4499
  654MOL0     H86296   0.882   7.611   9.888  0.6874  1.1691  0.5316
  654MOL0     H86297   1.033   7.599   9.972 -0.0919 -0.2551 -0.8387
  654MOL0     H86298   0.931   7.404  10.115  0.5945  1.8521 -0.0338
  654MOL0     H86299   0.780   7.438  10.043  2.4089 -1.8036 -6.7152
  654MOL0     H86300   0.950   7.636  10.205  0.0281 -0.9124  4.5085
  654MOL0     H86301   0.787   7.672  10.147  0.1811  1.6855  2.1984
  654MOL0     H86302   0.833   7.417  10.311 -1.4100 -1.0719  0.4890
  654MOL0     H86303   0.685   7.515  10.288  0.4945 -0.5666 -0.1576
  654MOL0     H86304   0.807   7.714  10.403  0.7261 -0.3461 -4.3616
  654MOL0     H86305   0.935   7.600  10.446 -0.5007  1.9651  2.6217
  654MOL0     H86306   0.794   7.460  10.587  2.6697  1.2250  0.7636
  654MOL0     H86307   0.785   7.629  10.626  0.3782  2.1117 -1.5047
  654MOL0     H86308   0.570   7.508  10.643 -1.1755 -1.3659 -1.8719
  654MOL0     H86309   0.563   7.502  10.465 -0.1326 -0.5018  0.7485
  654MOL0     H86310   1.130   7.244   9.747 -1.2045  0.6550 -1.0418
  654MOL0     H86311   1.223   7.137   9.558 -5.6999 -1.7122  4.9218
  654MOL0     H86312   1.647   7.039   9.319  3.4919 -2.4439 -1.0799
  654MOL0     H86313   1.727   6.920   9.127  1.4558  0.9499 -2.0087
  654MOL0     H86314   1.394   5.706   9.119  0.8659 -0.8581 -0.5447
  654MOL0     H86315   1.257   5.513   9.142  0.6348  2.3169  1.0164
  654MOL0     H86316   1.013   5.169   9.117 -0.5963 -1.3640  0.1809
  654MOL0     H86317   0.888   4.972   9.135 -2.6471  1.9704  1.9778
  654MOL0     H86318   0.582   4.799   9.141 -0.2387 -2.0493 -1.4634
  654MOL0     H86319   0.707   4.882   9.213 -3.5007 -1.1962  1.9136
  654MOL0     H86320   0.730   4.680   8.991 -2.5262  0.2467  1.5381
  654MOL0     H86321   0.878   4.754   9.039  0.0176 -0.8164 -0.7699
  654MOL0     H86322   0.831   4.529   9.169 -0.0221 -0.5026  0.6696
  654MOL0     H86323   0.707   4.623   9.251 -0.2527 -0.8645 -1.7417
  654MOL0     H86324   0.859   4.756   9.351  0.6217  1.2007 -0.7751
  654MOL0     H86325   0.912   4.593   9.383 -0.0551 -1.1735 -1.0155
  654MOL0     H86326   1.221   4.795   9.139 -0.8318 -1.1700 -2.2476
  654MOL0     H86327   0.615   5.110   8.820 -0.3457 -1.2386 -1.1066
  654MOL0     H86328   0.786   5.267   8.756 -0.2197 -4.1919 -2.7771
  655MOL0     O86329   6.010   9.662   0.911  0.2888  0.6897 -0.1599
  655MOL0     C86330   6.079   9.624   1.009  0.8042 -0.4078  0.0040
  655MOL0     O86331   6.041   9.520   1.100  0.0645  0.0262  0.3645
  655MOL0     C86332   5.917   9.486   1.117  0.5357  0.6700  0.0035
  655MOL0     C86333   5.806   9.577   1.115  0.7230 -0.0461  0.5515
  655MOL0     C86334   5.679   9.532   1.156 -0.1397  0.4028  0.5336
  655MOL0     C86335   5.668   9.408   1.202  0.0142 -0.6029 -0.3180
  655MOL0     O86336   5.555   9.353   1.257  0.6735  0.2832 -0.4635
  655MOL0     C86337   5.445   9.435   1.301 -0.4974  0.1872 -0.6790
  655MOL0     C86338   5.476   9.505   1.433 -0.1225  0.1099 -0.3474
  655MOL0     C86339   5.451   9.424   1.557 -0.9518  0.0269  0.2373
  655MOL0     C86340   5.302   9.401   1.591  0.4831  0.2234 -0.9093
  655MOL0     C86341   5.280   9.344   1.740  0.2610  0.1897 -0.4151
  655MOL0     C86342   5.395   9.268   1.808 -0.3766  0.5816  0.2565
  655MOL0     C86343   5.338   9.211   1.943  0.6582 -0.0904 -0.3690
  655MOL0     C86344   5.437   9.127   2.017  0.4774 -0.4155  0.4069
  655MOL0     N86345   5.557   9.195   2.064  0.0261  0.4693 -0.6317
  655MOL0     C86346   5.670   9.194   1.986  1.2646 -0.1189 -1.0895
  655MOL0     C86347   5.751   9.254   2.065 -1.1781 -0.8765  0.9263
  655MOL0     C86348   5.878   9.285   1.996  0.1019  0.7701  0.0182
  655MOL0     C86349   5.878   9.436   1.965 -0.2812  0.2748 -1.7129
  655MOL0     C86350   5.781   9.471   1.854  0.1722  0.4219  0.3300
  655MOL0     C86351   5.776   9.619   1.838  0.1876  0.3434 -0.5109
  655MOL0     O86352   5.676   9.648   1.750  0.6403 -0.5375  0.5777
  655MOL0     C86353   5.633   9.778   1.746 -0.8414  0.5604  0.3498
  655MOL0     C86354   5.508   9.800   1.693  0.1313  0.0236  0.3780
  655MOL0     C86355   5.449   9.924   1.691 -0.2367  0.0655  0.1870
  655MOL0     C86356   5.521  10.041   1.729  0.6001  0.5078 -0.3767
  655MOL0     C86357   5.462  10.181   1.709 -0.0496 -0.1756  0.2112
  655MOL0     O86358   5.324  10.172   1.704 -0.0970 -0.5544 -0.3992
  655MOL0     C86359   5.247  10.290   1.714 -1.2465 -0.3647 -0.4074
  655MOL0     C86360   5.120  10.284   1.658 -1.0188 -0.2794  0.5241
  655MOL0     C86361   5.031  10.394   1.668 -1.3438 -0.6259  0.2467
  655MOL0     C86362   5.080  10.516   1.716  0.7349 -0.1932  0.4358
  655MOL0     O86363   4.981  10.620   1.711  0.1904  0.3184  0.0360
  655MOL0     C86364   4.934  10.645   1.839 -0.7208 -0.3279  0.5448
  655MOL0     C86365   4.883  10.790   1.843  0.5629 -0.1791 -0.4623
  655MOL0     C86366   4.988  10.894   1.787 -0.0356 -0.1357  0.3801
  655MOL0     C86367   4.975  11.049   1.812  0.5644  0.3888 -0.8824
  655MOL0     C86368   5.099  11.117   1.767  0.2994  0.5800  0.1450
  655MOL0     C86369   5.102  11.128   1.610  0.7360 -0.2676 -0.2727
  655MOL0     C86370   5.246  11.179   1.569  0.0229  0.4570  0.7095
  655MOL0     C86371   5.226  11.250   1.437 -0.5711 -0.6427  0.9433
  655MOL0    Cl86372   5.114  11.397   1.445  0.6157 -0.5592  0.2454
  655MOL0     C86373   5.208  10.521   1.765 -0.5382 -0.2569 -1.0387
  655MOL0     C86374   5.290  10.411   1.772 -0.2467 -0.6686 -0.2610
  655MOL0     O86375   5.530  10.278   1.718 -0.2249 -0.5611  0.1684
  655MOL0     C86376   5.659  10.024   1.782  0.1615  1.0577 -0.4535
  655MOL0     C86377   5.709   9.890   1.787 -0.6096  0.3810 -0.8019
  655MOL0     N86378   5.697   9.281   2.185  0.1883  0.0200 -0.3232
  655MOL0     N86379   5.580   9.245   2.185  0.5199 -0.0311  0.0587
  655MOL0     C86380   5.774   9.321   1.205  0.2566  1.1282  0.4785
  655MOL0     C86381   5.901   9.357   1.157 -0.0429 -0.4754  0.3547
  655MOL0     C86382   6.199   9.696   1.039  0.5129 -0.1162  0.2328
  655MOL0     C86383   6.271   9.770   0.944  0.6609 -0.1778 -0.9561
  655MOL0     C86384   6.388   9.844   0.980 -0.2398  0.3125  0.4336
  655MOL0     C86385   6.435   9.833   1.111 -0.4376 -0.0544 -0.2814
  655MOL0     O86386   6.564   9.884   1.153 -0.4967 -0.5245 -0.1942
  655MOL0     C86387   6.560  10.005   1.224  1.0498  0.1089  0.3626
  655MOL0     C86388   6.671  10.101   1.179  0.3302 -0.1111 -0.2964
  655MOL0     C86389   6.619  10.240   1.154  0.9480 -0.9619 -0.7542
  655MOL0     C86390   6.730  10.329   1.089  0.4749  0.4214  0.3900
  655MOL0     C86391   6.686  10.471   1.072  0.0767 -1.1690 -0.0846
  655MOL0     C86392   6.679  10.596   1.080  0.8362 -0.0562  0.4827
  655MOL0     C86393   6.364   9.754   1.209 -0.8868 -1.5341  1.0641
  655MOL0     C86394   6.246   9.695   1.174 -0.1834 -1.0538 -0.0242
  655MOL0     H86395   5.819   9.682   1.093  0.7204 -0.3708 -1.1323
  655MOL0     H86396   5.597   9.602   1.164  2.6148  3.7971  1.8527
  655MOL0     H86397   5.355   9.374   1.318  1.5373 -2.4079  1.7301
  655MOL0     H86398   5.425   9.514   1.228 -3.0172  0.6786  0.4331
  655MOL0     H86399   5.414   9.595   1.443  0.0871  0.1600  0.6226
  655MOL0     H86400   5.579   9.541   1.431 -0.9227  2.5987 -2.1588
  655MOL0     H86401   5.483   9.476   1.647 -1.6658  0.1635  0.4239
  655MOL0     H86402   5.493   9.324   1.554 -1.3593 -0.1228 -1.8145
  655MOL0     H86403   5.243   9.492   1.592  3.2736  2.2084  0.9749
  655MOL0     H86404   5.254   9.323   1.531 -0.0405 -3.7110  3.9915
  655MOL0     H86405   5.197   9.273   1.738 -0.3301  0.8415  0.3255
  655MOL0     H86406   5.242   9.423   1.806  3.0514  1.0765  0.2750
  655MOL0     H86407   5.482   9.332   1.820 -0.9354  1.2161  1.0532
  655MOL0     H86408   5.423   9.185   1.742 -0.2222  1.6970 -1.1265
  655MOL0     H86409   5.303   9.300   1.996  0.9927  1.8066 -3.1309
  655MOL0     H86410   5.254   9.143   1.922  0.8627 -0.8759  1.1877
  655MOL0     H86411   5.471   9.045   1.953  3.3185  1.0564 -0.0953
  655MOL0     H86412   5.385   9.102   2.110 -0.1515  1.4833  0.6104
  655MOL0     H86413   5.689   9.146   1.891 -0.7120  1.2507 -2.2376
  655MOL0     H86414   5.898   9.226   1.906  0.0999 -0.0209  0.5262
  655MOL0     H86415   5.960   9.271   2.068 -0.5572 -0.1078  0.6200
  655MOL0     H86416   5.978   9.465   1.930  1.3006 -0.6232  1.6768
  655MOL0     H86417   5.849   9.491   2.055  1.2332 -1.8198  0.1599
  655MOL0     H86418   5.829   9.428   1.765  2.4720 -1.4245  2.3346
  655MOL0     H86419   5.677   9.440   1.866 -0.1910 -0.1993 -3.2105
  655MOL0     H86420   5.871   9.642   1.789 -0.2526 -0.3133 -1.7244
  655MOL0     H86421   5.775   9.669   1.935 -3.0981 -0.8645  0.2131
  655MOL0     H86422   5.440   9.725   1.655 -4.5203  5.4197 -3.6336
  655MOL0     H86423   5.350   9.926   1.646 -0.1249 -2.2137 -0.2598
  655MOL0     H86424   5.087  10.194   1.608 -1.0412 -0.9693  1.7384
  655MOL0     H86425   4.925  10.389   1.645 -0.6944 -1.3658 -3.1176
  655MOL0     H86426   5.016  10.635   1.912 -1.4792 -1.7921  1.2398
  655MOL0     H86427   4.857  10.571   1.864 -4.1871  2.9988  0.6037
  655MOL0     H86428   4.864  10.813   1.948 -2.0664  5.1302 -1.7433
  655MOL0     H86429   4.785  10.802   1.794  1.1112  0.5797 -1.4021
  655MOL0     H86430   5.022  10.876   1.685  0.5757  0.5062  0.4649
  655MOL0     H86431   5.079  10.870   1.842  1.0445  3.0316  0.1721
  655MOL0     H86432   4.888  11.093   1.761 -0.4316 -0.4664  0.0206
  655MOL0     H86433   4.971  11.072   1.919  2.5855 -0.2753 -0.6370
  655MOL0     H86434   5.184  11.075   1.821  0.1999  0.4171  0.1750
  655MOL0     H86435   5.103  11.222   1.799 -1.4014  0.6279  0.3101
  655MOL0     H86436   5.022  11.199   1.590 -1.8801 -1.7199  3.6843
  655MOL0     H86437   5.080  11.028   1.570 -0.5250 -0.0774 -0.1122
  655MOL0     H86438   5.304  11.251   1.627  1.0165  3.1907 -3.3059
  655MOL0     H86439   5.306  11.090   1.548 -2.5502 -1.2915  0.2670
  655MOL0     H86440   5.186  11.190   1.355  0.2317  1.5655 -1.2204
  655MOL0     H86441   5.328  11.268   1.401 -0.9229 -0.9536 -0.2564
  655MOL0     H86442   5.247  10.618   1.795  0.4312 -0.5628 -1.2670
  655MOL0     H86443   5.383  10.422   1.826  0.5472 -2.3638 -1.1911
  655MOL0     H86444   5.718  10.113   1.805  0.6059  1.5749 -3.2640
  655MOL0     H86445   5.809   9.877   1.827 -0.6831  1.5175 -0.1746
  655MOL0     H86446   5.766   9.227   1.257 -2.1898  1.2172  0.3961
  655MOL0     H86447   5.988   9.293   1.146  2.1338  2.5855 -1.7294
  655MOL0     H86448   6.230   9.779   0.845  1.0604 -0.9187 -1.2042
  655MOL0     H86449   6.455   9.896   0.913 -0.5250 -0.5376 -0.5294
  655MOL0     H86450   6.575   9.983   1.330 -1.9801 -1.4491  0.5630
  655MOL0     H86451   6.464  10.055   1.211  1.0069  0.4752  1.9275
  655MOL0     H86452   6.758  10.110   1.243  0.9410  1.4041 -1.2830
  655MOL0     H86453   6.716  10.059   1.088  0.0049 -1.2636  0.0578
  655MOL0     H86454   6.582  10.277   1.250 -0.2208  0.1568 -1.6020
  655MOL0     H86455   6.534  10.256   1.087 -0.1653 -1.7959  0.4054
  655MOL0     H86456   6.827  10.317   1.138  2.0088 -1.0786 -2.7058
  655MOL0     H86457   6.760  10.283   0.994  1.7164  1.5001  0.2420
  655MOL0     H86458   6.655  10.697   1.106 -1.9159 -0.9738  1.9400
  655MOL0     H86459   6.414   9.750   1.306 -0.1404  0.5525  0.8257
  655MOL0     H86460   6.198   9.647   1.259  1.8189  1.3395  2.6528
  656MOL0     O86461   4.707   9.472  11.359 -0.0139 -0.6664  0.2675
  656MOL0     C86462   4.728   9.404  11.265 -0.3552  0.1113 -0.1586
  656MOL0     O86463   4.769   9.452  11.139 -0.1860  0.0042 -1.1267
  656MOL0     C86464   4.816   9.584  11.125  0.4369 -0.3196 -0.7875
  656MOL0     C86465   4.927   9.628  11.207  0.5871 -0.0315 -0.6856
  656MOL0     C86466   4.970   9.761  11.202  0.2823  0.2887 -0.0767
  656MOL0     C86467   4.926   9.837  11.098  0.3288 -0.6310 -0.5444
  656MOL0     O86468   4.965   9.966  11.086 -0.2577 -0.7749  0.4187
  656MOL0     C86469   5.034  10.010  10.965 -0.2028  0.2300 -0.7169
  656MOL0     C86470   5.074  10.150  10.948 -0.2495 -1.2320  0.2948
  656MOL0     C86471   5.091  10.234  11.080 -0.3150  1.1223 -0.0367
  656MOL0     C86472   5.069  10.385  11.062  0.2365  0.3627  0.6475
  656MOL0     C86473   5.078  10.460  11.196  0.3847  0.0863  0.4348
  656MOL0     C86474   5.109  10.603  11.162 -0.1715 -0.6084 -0.4158
  656MOL0     C86475   5.162  10.691  11.282 -0.5039  0.1328 -0.4219
  656MOL0     C86476   5.227  10.827  11.261 -0.6126 -0.0494 -0.6754
  656MOL0     N86477   5.294  10.864  11.391  0.4616 -0.4477 -0.3296
  656MOL0     C86478   5.307  10.998  11.422  0.2879  0.8741  0.9380
  656MOL0     C86479   5.330  11.009  11.557 -0.0519  0.2779 -0.2868
  656MOL0     C86480   5.339  11.124  11.650  0.8430  0.0990  1.2977
  656MOL0     C86481   5.205  11.149  11.736 -1.2406  0.1507  0.4453
  656MOL0     C86482   5.087  11.171  11.640  0.5640  0.6339 -0.2928
  656MOL0     C86483   4.962  11.227  11.717 -0.7254 -0.8906  0.2562
  656MOL0     O86484   4.921  11.159  11.838 -0.2600  0.2277 -0.2655
  656MOL0     C86485   4.783  11.134  11.859 -0.0759 -0.4303  0.1117
  656MOL0     C86486   4.765  11.036  11.965  0.1414  0.3138 -0.2004
  656MOL0     C86487   4.644  10.985  11.998  0.2518  0.5292 -0.4718
  656MOL0     C86488   4.528  11.029  11.923  0.4214  0.4052 -0.6244
  656MOL0     C86489   4.403  10.978  11.953  0.0266 -0.8935  0.0574
  656MOL0     O86490   4.291  11.043  11.892  0.2377 -0.1830 -0.3554
  656MOL0     C86491   4.176  10.984  11.916 -0.5262 -0.2140 -0.4167
  656MOL0     C86492   4.081  11.070  11.970  0.3735 -0.5197 -0.8732
  656MOL0     C86493   3.959  11.019  12.016  0.1527  0.4483 -0.0558
  656MOL0     C86494   3.943  10.882  12.026 -0.1913 -0.4057  0.4064
  656MOL0     O86495   3.822  10.848  12.079 -0.0694  0.5376  0.4576
  656MOL0     C86496   3.814  10.850  12.223 -0.6587 -0.2536 -0.0952
  656MOL0     C86497   3.664  10.847  12.267 -0.0228 -0.0119  0.3946
  656MOL0     C86498   3.596  10.726  12.223  0.2221  0.0155  1.0568
  656MOL0     C86499   3.448  10.740  12.195 -0.6021 -0.1345 -0.6894
  656MOL0     C86500   3.396  10.603  12.158  0.5011  0.6278  0.4629
  656MOL0     C86501   3.243  10.601  12.155 -0.4073  0.5649 -0.0897
  656MOL0     C86502   3.185  10.471  12.084 -0.2510  0.2926 -0.4449
  656MOL0     C86503   3.040  10.496  12.049 -0.6131  0.4794  0.6424
  656MOL0    Cl86504   2.995  10.366  11.940 -0.5772 -0.1259  0.0237
  656MOL0     C86505   4.036  10.792  11.964  0.1420 -0.0214 -0.4270
  656MOL0     C86506   4.154  10.845  11.903  1.0026  0.4032  0.7158
  656MOL0     O86507   4.404  10.885  12.032 -1.1685  0.5347  0.2135
  656MOL0     C86508   4.547  11.120  11.818 -0.3300 -0.6379 -0.0325
  656MOL0     C86509   4.674  11.168  11.779  0.8397  0.2871  0.4603
  656MOL0     N86510   5.342  10.878  11.601  0.5947  0.6763 -0.0498
  656MOL0     N86511   5.323  10.788  11.503  0.0509 -0.2926  0.5657
  656MOL0     C86512   4.836   9.788  10.997 -0.2006  0.2273 -0.2478
  656MOL0     C86513   4.784   9.658  11.010  1.2070 -0.6629 -1.0163
  656MOL0     C86514   4.709   9.259  11.283  0.7537  0.5776 -0.0427
  656MOL0     C86515   4.727   9.174  11.172 -0.0840  0.1276 -0.3766
  656MOL0     C86516   4.696   9.041  11.174 -0.2633 -1.1485 -0.7612
  656MOL0     C86517   4.646   8.989  11.289 -0.0901  0.3636 -0.2176
  656MOL0     O86518   4.624   8.853  11.281 -0.2718  0.0516 -1.0670
  656MOL0     C86519   4.588   8.777  11.395  0.6045 -0.2390 -0.1354
  656MOL0     C86520   4.598   8.629  11.368  0.2795  0.5863 -0.4261
  656MOL0     C86521   4.516   8.585  11.250  0.6715  0.2243 -0.3706
  656MOL0     C86522   4.509   8.435  11.230 -0.0307  0.1516  0.1112
  656MOL0     C86523   4.369   8.381  11.233 -0.6179  0.3271  0.7461
  656MOL0     C86524   4.252   8.340  11.231  0.4937 -0.1602  0.3974
  656MOL0     C86525   4.641   9.064  11.408  0.1674 -0.1574 -0.1195
  656MOL0     C86526   4.667   9.204  11.403 -0.0489  0.6337 -0.1341
  656MOL0     H86527   4.958   9.571  11.294 -2.9904 -1.0913  0.0480
  656MOL0     H86528   5.034   9.816  11.270  0.3205 -1.7467  1.6371
  656MOL0     H86529   4.985   9.968  10.876  0.6852  2.1313 -2.1907
  656MOL0     H86530   5.129   9.958  10.976  0.7132  2.2087  1.4831
  656MOL0     H86531   5.003  10.201  10.883  0.2753 -0.8388  0.0166
  656MOL0     H86532   5.169  10.150  10.893 -1.1984 -1.3430 -1.4081
  656MOL0     H86533   5.197  10.221  11.105 -0.1998  0.0413 -1.0124
  656MOL0     H86534   5.032  10.192  11.162  3.5146  0.4880  2.7030
  656MOL0     H86535   5.147  10.414  10.991 -2.4279  1.0682 -2.2169
  656MOL0     H86536   4.976  10.421  11.018  0.2970  0.3064  0.4734
  656MOL0     H86537   5.162  10.410  11.246  0.3054  1.7963  2.3555
  656MOL0     H86538   4.990  10.445  11.258  0.8557 -0.6061  0.9546
  656MOL0     H86539   5.028  10.652  11.108  1.3774  1.7816 -0.7066
  656MOL0     H86540   5.186  10.621  11.086 -0.8959  1.9503 -0.6047
  656MOL0     H86541   5.087  10.714  11.358  2.5866  0.5293  2.7654
  656MOL0     H86542   5.235  10.625  11.329 -1.0429 -1.1338 -1.3003
  656MOL0     H86543   5.170  10.915  11.227  2.6989  2.9321  0.9214
  656MOL0     H86544   5.310  10.806  11.193 -1.4707 -1.4835 -1.3390
  656MOL0     H86545   5.286  11.080  11.354  0.0794 -1.7424 -2.4097
  656MOL0     H86546   5.351  11.214  11.589  1.2736  0.1735  1.4939
  656MOL0     H86547   5.432  11.116  11.707 -1.0673  0.3374  4.6721
  656MOL0     H86548   5.232  11.233  11.801 -1.8444 -1.2134  2.5491
  656MOL0     H86549   5.188  11.062  11.800  0.2842  0.0469  0.7393
  656MOL0     H86550   5.126  11.245  11.570  0.7389  0.1994 -0.6568
  656MOL0     H86551   5.082  11.079  11.582  2.2715 -0.5076  1.2446
  656MOL0     H86552   4.882  11.239  11.644 -1.7235 -0.9943  1.3011
  656MOL0     H86553   4.982  11.330  11.748 -2.6495 -1.2657  3.1485
  656MOL0     H86554   4.850  11.003  12.023 -0.7166  0.5947  1.2703
  656MOL0     H86555   4.639  10.916  12.081  0.4011  0.2003 -0.7380
  656MOL0     H86556   4.078  11.178  11.967  0.5794 -0.4415 -4.9593
  656MOL0     H86557   3.883  11.077  12.068 -0.2709 -0.0634 -0.1041
  656MOL0     H86558   3.870  10.933  12.266  0.2501 -1.6713  1.5598
  656MOL0     H86559   3.848  10.753  12.262 -3.0783 -1.0398  0.3033
  656MOL0     H86560   3.623  10.933  12.213 -0.2423 -0.1069  0.4127
  656MOL0     H86561   3.630  10.866  12.369 -2.4652  3.3705 -0.8746
  656MOL0     H86562   3.614  10.645  12.294  4.4351 -0.0243  0.1951
  656MOL0     H86563   3.640  10.701  12.126 -0.3549 -1.4750  1.1517
  656MOL0     H86564   3.398  10.762  12.290  0.6345 -1.5918  0.3435
  656MOL0     H86565   3.440  10.822  12.123 -1.0193  1.7426  1.3799
  656MOL0     H86566   3.450  10.537  12.227  1.3061  1.0844  0.2820
  656MOL0     H86567   3.436  10.587  12.057 -1.5108 -1.8104 -0.0415
  656MOL0     H86568   3.196  10.687  12.106  0.6995  2.6459  2.2782
  656MOL0     H86569   3.202  10.600  12.256 -3.1237  1.0829 -1.0997
  656MOL0     H86570   3.239  10.429  11.998  0.0509  0.0649 -0.1474
  656MOL0     H86571   3.178  10.394  12.162  1.8782 -0.7832 -1.2180
  656MOL0     H86572   3.019  10.590  11.998 -3.4228 -1.0688 -1.2918
  656MOL0     H86573   2.983  10.487  12.142  0.1927  0.1264  1.1246
  656MOL0     H86574   3.997  10.690  11.966  1.5575 -0.5790  0.6547
  656MOL0     H86575   4.220  10.768  11.867  1.0563  0.9311 -0.3562
  656MOL0     H86576   4.459  11.144  11.759  1.2915 -1.7780 -3.1538
  656MOL0     H86577   4.668  11.226  11.687  5.2466  0.0447 -0.2141
  656MOL0     H86578   4.799   9.853  10.918  1.7847  0.5787 -0.9376
  656MOL0     H86579   4.720   9.607  10.939 -0.8997 -1.3189  1.2384
  656MOL0     H86580   4.764   9.214  11.078 -0.7972 -2.8637 -2.0681
  656MOL0     H86581   4.708   8.988  11.080 -1.1892 -1.2943 -0.8064
  656MOL0     H86582   4.483   8.805  11.408  0.2106 -1.0641 -1.3313
  656MOL0     H86583   4.649   8.807  11.481  0.2340  3.8624 -1.1031
  656MOL0     H86584   4.704   8.604  11.355 -0.2185 -0.3575 -3.4996
  656MOL0     H86585   4.545   8.576  11.448 -1.0284  0.3741 -1.3974
  656MOL0     H86586   4.563   8.622  11.158 -3.1281  0.7051 -2.3434
  656MOL0     H86587   4.416   8.629  11.248 -0.3725 -1.9600 -3.0067
  656MOL0     H86588   4.557   8.414  11.135 -1.6457 -0.0804 -0.6854
  656MOL0     H86589   4.558   8.392  11.318  1.3639  0.3574 -0.5539
  656MOL0     H86590   4.164   8.279  11.237  1.2238 -1.2060  0.7902
  656MOL0     H86591   4.608   9.025  11.503 -1.7320  0.9059 -0.2859
  656MOL0     H86592   4.648   9.264  11.491 -2.3276  1.1467 -0.8981
  657MOL0     O86593   3.785   6.628   0.859  0.9361 -0.0638  0.6975
  657MOL0     C86594   3.839   6.558   0.941  0.5102  0.0832 -0.5476
  657MOL0     O86595   3.920   6.594   1.041  0.0936 -0.1245 -0.6130
  657MOL0     C86596   3.904   6.733   1.078 -0.7655  0.5414 -0.5804
  657MOL0     C86597   3.930   6.839   0.989 -0.3671 -0.7458 -0.1382
  657MOL0     C86598   3.923   6.968   1.042  0.0924 -0.4491 -0.5640
  657MOL0     C86599   3.895   6.999   1.181  0.8977 -0.4148  1.6331
  657MOL0     O86600   3.889   7.132   1.204  0.1065  0.3606 -0.6252
  657MOL0     C86601   3.885   7.171   1.343  0.3824 -0.2646 -0.0359
  657MOL0     C86602   3.932   7.307   1.362 -0.3912 -0.2011  0.5718
  657MOL0     C86603   3.875   7.403   1.251 -0.0383 -0.4208 -0.4054
  657MOL0     C86604   3.873   7.546   1.302 -0.1003  0.2560 -0.1610
  657MOL0     C86605   3.756   7.586   1.391  0.2836 -0.5198 -0.2878
  657MOL0     C86606   3.791   7.674   1.512 -0.4737  0.1422  0.9635
  657MOL0     C86607   3.828   7.818   1.492  0.2446  0.7523  0.8971
  657MOL0     C86608   3.709   7.910   1.446  0.0648  0.1815  0.2241
  657MOL0     N86609   3.702   8.027   1.529 -0.4960 -0.7095  0.3172
  657MOL0     C86610   3.676   8.152   1.481 -0.7567  0.4054  0.0353
  657MOL0     C86611   3.678   8.231   1.599  0.0725  0.1204  0.4376
  657MOL0     C86612   3.674   8.378   1.603 -0.0262 -0.8069  0.0557
  657MOL0     C86613   3.707   8.435   1.739 -1.2980 -0.6666  0.3279
  657MOL0     C86614   3.644   8.584   1.767 -0.1427  0.4945  0.8201
  657MOL0     C86615   3.647   8.616   1.914 -1.2260 -0.4564  1.0047
  657MOL0     O86616   3.785   8.637   1.955  0.2869 -0.5256 -0.0958
  657MOL0     C86617   3.806   8.713   2.070 -0.2622 -0.5383  0.0116
  657MOL0     C86618   3.764   8.672   2.197 -0.7726  0.7524  0.5007
  657MOL0     C86619   3.805   8.736   2.310 -0.1336 -0.7976  0.0734
  657MOL0     C86620   3.875   8.857   2.314 -0.0810  0.3736  0.4398
  657MOL0     C86621   3.913   8.940   2.432 -0.5387 -0.2811  0.1614
  657MOL0     O86622   3.965   9.067   2.422 -0.0186  0.1718 -0.3605
  657MOL0     C86623   3.965   9.135   2.546 -1.4509  0.2291  1.0146
  657MOL0     C86624   3.860   9.147   2.635 -0.5477 -0.0832  0.3401
  657MOL0     C86625   3.873   9.230   2.745  0.1615 -0.1877  0.0775
  657MOL0     C86626   3.995   9.296   2.772  0.0101  0.5046  0.0913
  657MOL0     O86627   4.015   9.374   2.881 -0.4567  0.3812  0.8471
  657MOL0     C86628   3.992   9.510   2.864  0.6171  0.1352  0.1673
  657MOL0     C86629   4.087   9.584   2.961 -0.4863  0.1604 -0.6470
  657MOL0     C86630   4.005   9.698   3.029  0.7444 -0.5909 -0.4935
  657MOL0     C86631   4.074   9.781   3.138 -0.0828  0.0999 -0.8905
  657MOL0     C86632   3.990   9.903   3.187 -0.1341 -0.4682 -0.4114
  657MOL0     C86633   4.078  10.000   3.280  0.9399  0.6362 -0.3232
  657MOL0     C86634   3.988  10.111   3.350  0.1441 -0.1026  0.3320
  657MOL0     C86635   4.072  10.223   3.419  0.4342 -0.3721 -1.3773
  657MOL0    Cl86636   4.147  10.327   3.287  0.0513 -0.1327  0.0216
  657MOL0     C86637   4.101   9.277   2.685  0.1903  0.1281  0.8873
  657MOL0     C86638   4.091   9.204   2.569  1.4496 -0.6561  0.6546
  657MOL0     O86639   3.908   8.873   2.537  1.2690 -0.0909 -0.6652
  657MOL0     C86640   3.914   8.899   2.189  0.1421 -0.4844 -0.6037
  657MOL0     C86641   3.879   8.835   2.065 -0.1709 -0.0343 -0.3928
  657MOL0     N86642   3.693   8.140   1.711 -0.1088  0.5920  0.0417
  657MOL0     N86643   3.697   8.025   1.668 -0.0879 -0.6460 -0.9246
  657MOL0     C86644   3.878   6.888   1.264  0.5522  0.1313 -0.0278
  657MOL0     C86645   3.876   6.759   1.210 -0.4115 -0.8650  0.1623
  657MOL0     C86646   3.799   6.417   0.932 -0.3803 -0.1404  0.1578
  657MOL0     C86647   3.811   6.328   1.042  0.0456  0.7310  0.0464
  657MOL0     C86648   3.786   6.191   1.025  0.1739  0.7775  0.1055
  657MOL0     C86649   3.725   6.138   0.913  0.5076  0.5390  0.4399
  657MOL0     O86650   3.663   6.010   0.896 -0.6443  0.3072 -1.0758
  657MOL0     C86651   3.618   5.946   1.017 -0.1436  0.5039 -0.8803
  657MOL0     C86652   3.501   6.010   1.086  0.3256 -0.1118  1.5644
  657MOL0     C86653   3.462   5.931   1.215  0.8599  0.0200  0.2318
  657MOL0     C86654   3.363   6.017   1.299 -1.2291 -0.2132 -0.6752
  657MOL0     C86655   3.231   6.044   1.238 -0.4717  0.2637 -0.1202
  657MOL0     C86656   3.120   6.055   1.191  0.9805  0.0490 -0.6401
  657MOL0     C86657   3.711   6.230   0.806 -0.6184 -0.3076  0.4084
  657MOL0     C86658   3.746   6.368   0.812  0.4744 -0.3935 -0.1218
  657MOL0     H86659   3.930   6.812   0.884 -3.8673  0.8067 -0.6868
  657MOL0     H86660   3.957   7.054   0.984  0.5211  0.0676  0.4315
  657MOL0     H86661   3.945   7.099   1.399 -0.0820  0.2155  1.1127
  657MOL0     H86662   3.782   7.156   1.379  0.8808 -4.3601  0.1600
  657MOL0     H86663   4.041   7.314   1.354 -0.6114  2.4512 -1.6315
  657MOL0     H86664   3.905   7.328   1.466 -2.9050 -0.2242 -0.0054
  657MOL0     H86665   3.768   7.382   1.240 -0.8526  1.5907  2.4469
  657MOL0     H86666   3.925   7.375   1.158 -0.5780  2.2545 -1.5895
  657MOL0     H86667   3.960   7.553   1.367 -1.2917 -1.5904  1.7744
  657MOL0     H86668   3.882   7.607   1.212  1.2906  2.4032  1.3636
  657MOL0     H86669   3.699   7.504   1.436 -0.5878  1.9100  3.5599
  657MOL0     H86670   3.689   7.646   1.329 -0.8146 -0.9830  0.4160
  657MOL0     H86671   3.875   7.623   1.560  1.1129  0.3432 -1.4360
  657MOL0     H86672   3.697   7.663   1.567 -0.6425 -2.3126  0.3323
  657MOL0     H86673   3.884   7.858   1.577  1.5639 -2.5615  1.7460
  657MOL0     H86674   3.892   7.812   1.404 -0.8543 -1.6317  0.1747
  657MOL0     H86675   3.615   7.854   1.458 -0.2491  0.5377 -0.5546
  657MOL0     H86676   3.714   7.950   1.345  0.0112  3.1207  1.2887
  657MOL0     H86677   3.660   8.183   1.378 -3.9128  0.9398  0.5678
  657MOL0     H86678   3.571   8.407   1.582  0.5093  2.5349  1.4745
  657MOL0     H86679   3.732   8.422   1.522 -0.8361  1.0604  0.4315
  657MOL0     H86680   3.816   8.433   1.750 -1.4134 -3.4653  1.7405
  657MOL0     H86681   3.646   8.374   1.806 -3.0705  1.6557  0.9941
  657MOL0     H86682   3.702   8.657   1.708  1.1488 -2.1091 -1.3779
  657MOL0     H86683   3.539   8.586   1.737 -0.5995 -1.0265  2.2135
  657MOL0     H86684   3.609   8.530   1.970 -1.0050  0.2137  2.2409
  657MOL0     H86685   3.578   8.697   1.936 -0.2977 -0.3361  3.9764
  657MOL0     H86686   3.718   8.574   2.203  2.1307 -0.9507 -2.1009
  657MOL0     H86687   3.784   8.696   2.409 -0.7637  2.5915  1.4775
  657MOL0     H86688   3.771   9.091   2.612 -0.8854  0.0742  1.2410
  657MOL0     H86689   3.793   9.241   2.818  0.9131 -1.2834  1.1026
  657MOL0     H86690   3.892   9.524   2.905  0.6293  0.1758  0.1828
  657MOL0     H86691   4.002   9.555   2.764 -1.5924 -0.6789 -0.4746
  657MOL0     H86692   4.182   9.619   2.918  0.9542  0.2992  2.3381
  657MOL0     H86693   4.107   9.510   3.040 -1.8722  0.8112  0.3530
  657MOL0     H86694   3.915   9.653   3.071 -2.2129  3.9906 -1.1945
  657MOL0     H86695   3.967   9.769   2.955 -2.9664 -0.7540  1.0778
  657MOL0     H86696   4.101   9.725   3.228 -3.2935  1.3118  0.9818
  657MOL0     H86697   4.156   9.818   3.077 -0.6031 -0.2041 -1.8068
  657MOL0     H86698   3.902   9.886   3.250  1.0458  0.4979  1.5947
  657MOL0     H86699   3.953   9.958   3.099  0.6052  0.7376  0.0015
  657MOL0     H86700   4.158  10.043   3.219  1.9751 -0.4156  0.2527
  657MOL0     H86701   4.130   9.942   3.356  1.8722 -0.7850 -1.9705
  657MOL0     H86702   3.920  10.148   3.272  2.2839 -0.6781 -1.9686
  657MOL0     H86703   3.918  10.074   3.424 -0.4642 -0.9792 -0.6552
  657MOL0     H86704   4.153  10.176   3.476  1.7719 -0.8949 -3.6271
  657MOL0     H86705   4.009  10.279   3.490  0.3595 -0.5932 -1.2647
  657MOL0     H86706   4.202   9.313   2.697  1.0853 -1.9975  0.1893
  657MOL0     H86707   4.164   9.195   2.489 -1.3443  0.8875 -2.3060
  657MOL0     H86708   3.974   8.988   2.176 -1.5682  0.3814 -3.2317
  657MOL0     H86709   3.893   8.878   1.966  1.0600  0.0913 -0.1862
  657MOL0     H86710   3.855   6.907   1.368  1.2834 -1.6458  0.5032
  657MOL0     H86711   3.866   6.673   1.276 -2.4851 -2.8008 -2.4715
  657MOL0     H86712   3.854   6.363   1.136 -2.6708  0.1525  1.6161
  657MOL0     H86713   3.796   6.116   1.103  0.8763 -2.1273 -2.5842
  657MOL0     H86714   3.699   5.945   1.091 -2.5674 -0.5956  1.9448
  657MOL0     H86715   3.610   5.844   0.980  0.5304  0.5777 -1.2482
  657MOL0     H86716   3.530   6.111   1.117  2.8385  0.1383 -1.2169
  657MOL0     H86717   3.415   5.994   1.020  0.4484 -0.7490  1.5597
  657MOL0     H86718   3.549   5.902   1.275  0.9781 -0.5803 -0.2174
  657MOL0     H86719   3.418   5.837   1.182  2.8821 -1.1318  0.6140
  657MOL0     H86720   3.360   5.958   1.391 -0.1680 -0.4162 -0.7612
  657MOL0     H86721   3.409   6.115   1.317  3.9194 -2.4177 -0.0735
  657MOL0     H86722   3.019   6.056   1.154  0.4288  1.5121  0.7462
  657MOL0     H86723   3.668   6.192   0.714 -0.3104 -2.6623  1.1639
  657MOL0     H86724   3.735   6.438   0.730 -1.5766  0.3104  0.6943
  658MOL0     O86725   0.772  11.115   7.971  0.8073  0.3395  0.4991
  658MOL0     C86726   0.849  11.077   7.884  0.1629  0.1417  0.7958
  658MOL0     O86727   0.840  10.952   7.836  1.0758 -0.4081 -0.3129
  658MOL0     C86728   0.734  10.876   7.880  0.1413 -0.4614 -0.6590
  658MOL0     C86729   0.718  10.836   8.015  0.6817  0.1956  0.3189
  658MOL0     C86730   0.612  10.745   8.043  0.6775 -0.3598  0.1892
  658MOL0     C86731   0.526  10.699   7.937  0.2829  0.9819 -0.4465
  658MOL0     O86732   0.426  10.608   7.958  0.3764 -0.1415 -0.1157
  658MOL0     C86733   0.404  10.540   8.085 -0.4690 -0.6691  0.1781
  658MOL0     C86734   0.277  10.465   8.068  0.5151 -0.6736  0.3264
  658MOL0     C86735   0.264  10.357   7.966 -0.5831  0.3221 -0.1088
  658MOL0     C86736   0.260  10.415   7.815  0.5563 -0.5593 -0.3604
  658MOL0     C86737   0.193  10.312   7.726  0.2532  0.0743 -0.0388
  658MOL0     C86738   0.288  10.185   7.693 -0.7723  0.1965  0.2953
  658MOL0     C86739   0.375  10.203   7.564 -0.0907 -0.8613 -0.7400
  658MOL0     C86740   0.480  10.091   7.568  0.5388  0.1471  0.1923
  658MOL0     N86741   0.550  10.085   7.441 -0.4891 -0.5830  0.0877
  658MOL0     C86742   0.634  10.181   7.390  0.4369 -0.2089 -0.4562
  658MOL0     C86743   0.696  10.121   7.287 -0.1098 -0.5339 -0.3998
  658MOL0     C86744   0.811  10.194   7.212  0.0631  0.1972 -0.0831
  658MOL0     C86745   0.757  10.309   7.127 -0.4302 -0.7329  1.1384
  658MOL0     C86746   0.705  10.436   7.189 -0.4905  0.2999 -0.5046
  658MOL0     C86747   0.670  10.554   7.102  0.4002 -0.7278  0.1224
  658MOL0     O86748   0.531  10.586   7.101  0.8805 -0.0557  0.4523
  658MOL0     C86749   0.497  10.711   7.053 -0.1180 -0.6443 -1.0351
  658MOL0     C86750   0.584  10.804   6.980  0.8632 -0.9335 -0.2066
  658MOL0     C86751   0.537  10.918   6.916 -1.0655 -0.5300  0.1666
  658MOL0     C86752   0.399  10.949   6.921 -0.4761 -0.2185 -0.6462
  658MOL0     C86753   0.360  11.063   6.834  1.8899  0.2933  0.1028
  658MOL0     O86754   0.458  11.147   6.790  0.1743 -0.2193 -0.8311
  658MOL0     C86755   0.427  11.250   6.713  0.6848 -0.4800 -0.0941
  658MOL0     C86756   0.315  11.336   6.742  0.5460  0.0970  0.7172
  658MOL0     C86757   0.271  11.448   6.662  0.2279  0.2185  0.6036
  658MOL0     C86758   0.345  11.476   6.555 -0.5142  0.7060 -0.1871
  658MOL0     O86759   0.305  11.589   6.486  0.4355 -0.0352 -0.1862
  658MOL0     C86760   0.333  11.602   6.348 -0.4107 -0.3327  0.9151
  658MOL0     C86761   0.262  11.727   6.290 -0.0980  0.3715  0.4428
  658MOL0     C86762   0.307  11.745   6.148 -0.8351  0.1827  0.1817
  658MOL0     C86763   0.448  11.792   6.140 -0.3991 -0.0012  0.2843
  658MOL0     C86764   0.492  11.812   5.993  0.8561  0.4281 -0.3258
  658MOL0     C86765   0.643  11.841   5.984 -0.8542 -0.1045  0.5840
  658MOL0     C86766   0.669  11.908   5.845  0.0032 -0.8404 -0.5486
  658MOL0     C86767   0.813  11.939   5.824  0.1356 -0.6907 -0.1536
  658MOL0    Cl86768   0.815  12.013   5.658 -0.0523 -0.6884  0.4204
  658MOL0     C86769   0.456  11.398   6.521 -0.1166 -0.9457  0.7773
  658MOL0     C86770   0.505  11.293   6.606 -1.6490  0.4141  0.5084
  658MOL0     O86771   0.239  11.071   6.812  0.6192 -0.7801 -0.1873
  658MOL0     C86772   0.314  10.879   7.004 -0.0838  0.6678  0.4191
  658MOL0     C86773   0.367  10.760   7.055 -0.0553  0.8728 -0.0327
  658MOL0     N86774   0.639  10.003   7.273 -0.0389 -0.6014 -0.3387
  658MOL0     N86775   0.552   9.972   7.368 -0.1188 -0.3016 -0.7465
  658MOL0     C86776   0.562  10.727   7.808 -0.6345  0.8743  0.5449
  658MOL0     C86777   0.660  10.818   7.780  0.0140 -0.1845  0.0534
  658MOL0     C86778   0.945  11.180   7.831 -0.0988  1.1796 -0.2130
  658MOL0     C86779   0.946  11.318   7.875 -0.2676  0.4934  0.0538
  658MOL0     C86780   1.052  11.409   7.834 -0.0738 -0.9200  0.1574
  658MOL0     C86781   1.152  11.371   7.747 -0.1960  0.4253  0.1331
  658MOL0     O86782   1.269  11.446   7.719 -0.3648 -0.7345 -0.5953
  658MOL0     C86783   1.308  11.562   7.788  1.0239 -0.3308  0.1587
  658MOL0     C86784   1.361  11.532   7.934 -0.2168  0.6050  1.5268
  658MOL0     C86785   1.428  11.664   7.982  0.1884  0.0310  1.0975
  658MOL0     C86786   1.460  11.658   8.129  0.0856 -0.1464  0.4408
  658MOL0     C86787   1.487  11.790   8.181 -0.6078 -0.1166  0.2791
  658MOL0     C86788   1.504  11.905   8.218 -0.2540  0.6668 -0.7743
  658MOL0     C86789   1.151  11.232   7.700  0.5370  0.6124 -0.9303
  658MOL0     C86790   1.049  11.142   7.745 -0.2120  1.0025  0.1582
  658MOL0     H86791   0.770  10.876   8.101  1.5830 -0.0863 -0.0853
  658MOL0     H86792   0.602  10.714   8.147  0.5832  0.2726  0.3726
  658MOL0     H86793   0.395  10.597   8.178  1.4488 -0.4975  0.3084
  658MOL0     H86794   0.491  10.476   8.101  1.6584  1.6741 -1.1513
  658MOL0     H86795   0.211  10.547   8.039  2.6003  1.8097  2.1333
  658MOL0     H86796   0.248  10.429   8.167 -2.9285 -0.1704 -0.3775
  658MOL0     H86797   0.175  10.301   7.993 -0.5787  1.1967  1.9547
  658MOL0     H86798   0.344  10.284   7.980 -0.7460 -0.0610 -1.1107
  658MOL0     H86799   0.200  10.506   7.807 -0.9689 -1.2694  1.9805
  658MOL0     H86800   0.361  10.446   7.786 -0.4199  1.0470 -2.2460
  658MOL0     H86801   0.166  10.371   7.638  0.1609  0.9844  0.5859
  658MOL0     H86802   0.098  10.285   7.773 -0.1677  2.1624  0.4253
  658MOL0     H86803   0.237  10.088   7.697  0.1824 -0.2722  2.5792
  658MOL0     H86804   0.362  10.178   7.773  1.0556 -1.1133 -1.4417
  658MOL0     H86805   0.311  10.183   7.477 -3.8797  0.0151  1.6391
  658MOL0     H86806   0.431  10.297   7.565 -2.5280  0.6808  0.9333
  658MOL0     H86807   0.437   9.990   7.572  1.4406 -0.4401 -2.5604
  658MOL0     H86808   0.546  10.113   7.652 -0.9100  2.8069  0.7293
  658MOL0     H86809   0.655  10.271   7.447  0.7640  0.3634 -1.4434
  658MOL0     H86810   0.865  10.117   7.157 -0.7748 -0.4851  0.0283
  658MOL0     H86811   0.872  10.236   7.293  1.5663 -0.0644 -1.0370
  658MOL0     H86812   0.681  10.273   7.058 -0.9771 -0.1021  1.3997
  658MOL0     H86813   0.842  10.342   7.066  0.4596 -0.3971  2.5090
  658MOL0     H86814   0.615  10.408   7.245  0.5368 -2.2252 -0.0023
  658MOL0     H86815   0.784  10.469   7.257  0.8329 -1.2826 -1.2087
  658MOL0     H86816   0.687  10.551   6.995 -0.6623  4.1635 -0.4266
  658MOL0     H86817   0.735  10.636   7.133  1.3738 -0.5727 -2.1634
  658MOL0     H86818   0.690  10.779   6.976  0.8976 -0.7006 -0.9260
  658MOL0     H86819   0.612  10.955   6.847 -0.7838  0.4696  0.9766
  658MOL0     H86820   0.259  11.308   6.831 -1.9372 -2.5845 -1.4845
  658MOL0     H86821   0.182  11.507   6.684 -1.4935 -1.3105 -1.7369
  658MOL0     H86822   0.296  11.518   6.288 -1.8652  1.4574 -0.8535
  658MOL0     H86823   0.441  11.614   6.338 -0.5687  0.7988  0.3952
  658MOL0     H86824   0.286  11.818   6.345 -1.0727  2.0522 -1.7476
  658MOL0     H86825   0.154  11.708   6.293 -0.2480  0.8485 -1.1089
  658MOL0     H86826   0.252  11.815   6.083  1.2764 -0.9487 -3.0699
  658MOL0     H86827   0.284  11.654   6.092  1.4255  0.2251 -0.9225
  658MOL0     H86828   0.455  11.886   6.196 -1.2700  1.7055 -2.2695
  658MOL0     H86829   0.520  11.721   6.181  0.7319  0.2446 -1.1903
  658MOL0     H86830   0.423  11.880   5.941 -0.3510 -1.1099 -0.8257
  658MOL0     H86831   0.467  11.721   5.936 -0.4222  2.0089 -2.4665
  658MOL0     H86832   0.706  11.752   5.990  0.3113  0.6860  0.2840
  658MOL0     H86833   0.666  11.911   6.065 -0.4216 -0.8512  1.1161
  658MOL0     H86834   0.627  11.843   5.768 -1.1465  0.1613 -0.8103
  658MOL0     H86835   0.602  11.995   5.844 -0.1651 -0.9677 -0.4179
  658MOL0     H86836   0.878  11.851   5.824  1.7413  0.4560 -0.5386
  658MOL0     H86837   0.860  12.016   5.885  1.4604 -0.6930 -1.1364
  658MOL0     H86838   0.517  11.426   6.436 -0.1534 -1.4157  0.5924
  658MOL0     H86839   0.598  11.237   6.602 -2.3973 -0.7719 -1.8460
  658MOL0     H86840   0.212  10.910   7.022 -0.1254 -0.1788  1.7715
  658MOL0     H86841   0.295  10.694   7.103  1.2133 -3.0429 -2.9841
  658MOL0     H86842   0.514  10.684   7.720  1.1424  1.1840 -0.6472
  658MOL0     H86843   0.691  10.843   7.679  1.7661  1.4068  0.9272
  658MOL0     H86844   0.885  11.358   7.954 -0.7819  2.2602 -1.1662
  658MOL0     H86845   1.049  11.507   7.880 -0.0441  0.0819 -1.8570
  658MOL0     H86846   1.229  11.638   7.780 -0.2908 -1.6985 -0.2614
  658MOL0     H86847   1.397  11.603   7.739  1.4758 -0.4098  0.9140
  658MOL0     H86848   1.276  11.496   7.993 -0.1733 -0.5405  0.9169
  658MOL0     H86849   1.425  11.447   7.910 -3.3788 -0.8825 -2.7986
  658MOL0     H86850   1.359  11.746   7.962  2.5563  1.3608 -2.8985
  658MOL0     H86851   1.514  11.667   7.914  2.3353 -2.4688  3.4450
  658MOL0     H86852   1.366  11.633   8.179 -1.6368  5.5649  0.8724
  658MOL0     H86853   1.538  11.586   8.154  0.8062  0.2679 -0.5447
  658MOL0     H86854   1.523  12.001   8.262  0.6226  0.0061  0.3392
  658MOL0     H86855   1.210  11.196   7.617 -1.8525 -0.6007 -2.2204
  658MOL0     H86856   1.054  11.047   7.693 -1.1619  1.5757 -1.0410
  659MOL0     O86857   2.027   1.313   7.404  0.5904 -0.3347  0.1118
  659MOL0     C86858   1.917   1.282   7.348  0.0431  0.4608 -0.0590
  659MOL0     O86859   1.800   1.355   7.349 -0.8599 -0.0971  0.8672
  659MOL0     C86860   1.812   1.485   7.395 -0.7730  0.7662 -1.4929
  659MOL0     C86861   1.883   1.575   7.323  0.0776  0.1861 -0.6090
  659MOL0     C86862   1.897   1.703   7.372  0.3878 -0.0353 -0.4514
  659MOL0     C86863   1.831   1.742   7.493  0.0133 -0.9893 -0.3315
  659MOL0     O86864   1.845   1.872   7.538 -0.0241 -0.3663  0.0513
  659MOL0     C86865   1.828   1.911   7.677  0.5890  0.0930  0.8133
  659MOL0     C86866   1.823   2.065   7.690  0.0081  0.3363 -0.3776
  659MOL0     C86867   1.775   2.115   7.831  0.6419  0.5072 -0.1924
  659MOL0     C86868   1.726   2.257   7.818  0.1520 -0.2664  0.5453
  659MOL0     C86869   1.696   2.314   7.958 -0.0704  0.0733 -0.0936
  659MOL0     C86870   1.576   2.408   7.949  0.2674  0.0030 -0.2109
  659MOL0     C86871   1.562   2.525   8.060  0.9733 -0.0839  0.1388
  659MOL0     C86872   1.681   2.619   8.071 -1.0148 -0.8152 -0.3206
  659MOL0     N86873   1.692   2.699   7.948  0.0621  0.1058  0.2800
  659MOL0     C86874   1.617   2.800   7.917  0.5226  0.6639  0.2465
  659MOL0     C86875   1.659   2.841   7.792 -0.0899 -0.0514  0.6578
  659MOL0     C86876   1.602   2.973   7.727  0.4283 -0.0280 -0.3351
  659MOL0     C86877   1.678   3.000   7.601 -0.4826  0.7023 -0.2038
  659MOL0     C86878   1.607   3.104   7.515  0.1652  0.2112 -0.5647
  659MOL0     C86879   1.699   3.132   7.394  0.2886 -0.1529 -0.5217
  659MOL0     O86880   1.634   3.194   7.288  0.1818 -0.4440  1.2497
  659MOL0     C86881   1.706   3.192   7.162  1.7200  0.2709  0.5038
  659MOL0     C86882   1.629   3.219   7.044  0.7739  0.5544 -0.1068
  659MOL0     C86883   1.685   3.208   6.917 -0.2453 -0.4245  0.2674
  659MOL0     C86884   1.827   3.185   6.911 -0.2095 -0.1598  0.0142
  659MOL0     C86885   1.900   3.167   6.776 -0.5908 -0.2497 -0.3543
  659MOL0     O86886   2.039   3.142   6.780 -0.2077  0.3792 -0.2392
  659MOL0     C86887   2.117   3.144   6.665  0.2903 -1.0595  0.2954
  659MOL0     C86888   2.231   3.065   6.656 -1.0515  0.4667 -0.6016
  659MOL0     C86889   2.320   3.079   6.547  0.7376 -0.7282 -0.3007
  659MOL0     C86890   2.282   3.157   6.433 -0.3859  0.8940  0.0338
  659MOL0     O86891   2.357   3.147   6.316  0.1332  1.0763  0.3662
  659MOL0     C86892   2.483   3.224   6.319  0.6602 -0.0039 -0.0949
  659MOL0     C86893   2.496   3.324   6.208  0.7373  0.7294  0.3862
  659MOL0     C86894   2.539   3.270   6.070 -1.1467 -0.2415 -0.3959
  659MOL0     C86895   2.692   3.249   6.069  0.4059  0.4014 -0.7142
  659MOL0     C86896   2.743   3.226   5.934  0.2528  0.4192  0.4241
  659MOL0     C86897   2.675   3.088   5.880 -0.7164  0.9152  0.1015
  659MOL0     C86898   2.765   3.033   5.765  0.3353 -0.8693  0.2455
  659MOL0     C86899   2.698   2.911   5.687  0.6837 -0.2477 -0.3280
  659MOL0    Cl86900   2.718   2.753   5.767  0.1281  0.2891 -0.4971
  659MOL0     C86901   2.169   3.234   6.440 -0.3550 -0.3866  0.2236
  659MOL0     C86902   2.095   3.236   6.554  0.0089  0.9941 -0.5603
  659MOL0     O86903   1.841   3.199   6.676 -0.1844 -0.4594  0.4893
  659MOL0     C86904   1.902   3.169   7.025 -0.9072  0.3676 -0.8776
  659MOL0     C86905   1.844   3.169   7.148 -0.1821 -0.4776 -0.9389
  659MOL0     N86906   1.754   2.757   7.749 -0.2765  0.2508 -0.8360
  659MOL0     N86907   1.775   2.671   7.847 -0.0457 -0.8345 -0.6108
  659MOL0     C86908   1.759   1.644   7.568 -0.6824  0.6643  0.6608
  659MOL0     C86909   1.754   1.513   7.524  0.2699  0.8915 -0.4279
  659MOL0     C86910   1.917   1.154   7.286 -0.1333  0.5874  0.1226
  659MOL0     C86911   2.022   1.066   7.298  0.5670 -0.5202 -0.7078
  659MOL0     C86912   2.013   0.941   7.244  0.4113  0.0352 -0.6464
  659MOL0     C86913   1.907   0.893   7.166 -0.6162  0.2980  0.8191
  659MOL0     O86914   1.926   0.768   7.117  0.8626  0.0439 -0.4256
  659MOL0     C86915   1.919   0.743   6.979  0.1787  0.0381  0.0275
  659MOL0     C86916   1.853   0.603   6.955  0.9189 -0.9037 -0.2445
  659MOL0     C86917   1.949   0.491   7.005  0.8210 -0.2078 -0.3905
  659MOL0     C86918   1.894   0.397   7.110  1.0492 -0.0198  0.2109
  659MOL0     C86919   1.994   0.319   7.184  0.4926  0.0211  0.4771
  659MOL0     C86920   2.078   0.249   7.224  0.6331 -0.0787  0.1129
  659MOL0     C86921   1.793   0.984   7.150 -0.3572 -0.4839 -0.6102
  659MOL0     C86922   1.801   1.111   7.216  0.3851  0.1642 -0.6912
  659MOL0     H86923   1.934   1.536   7.235 -0.5751  1.8143 -1.7475
  659MOL0     H86924   1.961   1.774   7.321  0.7854 -0.8709 -1.1569
  659MOL0     H86925   1.900   1.861   7.742 -0.9570 -3.1273  0.2205
  659MOL0     H86926   1.734   1.881   7.724  1.5238  1.6835  3.9630
  659MOL0     H86927   1.751   2.097   7.614 -3.1928 -3.1650  0.8844
  659MOL0     H86928   1.922   2.106   7.667  0.8937 -0.6417  1.4807
  659MOL0     H86929   1.852   2.112   7.909 -0.0246 -1.1422  0.4506
  659MOL0     H86930   1.686   2.061   7.866  0.3017  1.8959  1.2055
  659MOL0     H86931   1.793   2.319   7.758 -1.5636  0.4400 -0.7200
  659MOL0     H86932   1.640   2.244   7.753  1.3771 -3.0622 -0.6494
  659MOL0     H86933   1.791   2.356   7.991  0.1541 -0.2651 -0.2987
  659MOL0     H86934   1.674   2.238   8.034 -1.5419  3.4633  3.1927
  659MOL0     H86935   1.495   2.335   7.943  0.7903 -0.5084 -1.0881
  659MOL0     H86936   1.589   2.463   7.855 -2.7624  1.3274  0.0346
  659MOL0     H86937   1.470   2.582   8.041  0.0083 -0.5093  3.0089
  659MOL0     H86938   1.540   2.482   8.158 -3.6009  1.5651  0.0984
  659MOL0     H86939   1.775   2.565   8.082 -0.7130 -0.3160 -0.3964
  659MOL0     H86940   1.671   2.685   8.158  1.7377  0.1849 -0.6661
  659MOL0     H86941   1.551   2.868   7.970 -1.5717 -0.8013 -0.3640
  659MOL0     H86942   1.615   3.065   7.785 -0.0820  2.1580 -3.4640
  659MOL0     H86943   1.495   2.963   7.712  0.5964 -1.5969 -0.7242
  659MOL0     H86944   1.697   2.913   7.539  2.2557 -0.0702  1.5455
  659MOL0     H86945   1.781   3.027   7.626  0.1650  0.0328 -2.0453
  659MOL0     H86946   1.516   3.050   7.488 -0.7916  1.4856 -0.0088
  659MOL0     H86947   1.599   3.202   7.562 -1.2438  1.1636 -2.6648
  659MOL0     H86948   1.728   3.033   7.357 -3.7042 -0.9339 -2.0205
  659MOL0     H86949   1.787   3.192   7.420 -0.7069  1.6987 -1.2547
  659MOL0     H86950   1.523   3.236   7.053  0.5755 -1.3662  2.2836
  659MOL0     H86951   1.636   3.228   6.823 -0.0002 -2.3381 -0.3123
  659MOL0     H86952   2.257   2.998   6.738  2.7133  1.3588 -0.8858
  659MOL0     H86953   2.407   3.014   6.541 -0.4143 -2.3235 -0.2663
  659MOL0     H86954   2.568   3.156   6.326 -0.0751 -0.8427  1.1926
  659MOL0     H86955   2.491   3.282   6.411 -2.5186 -0.4209  0.5594
  659MOL0     H86956   2.557   3.409   6.240  0.1414  1.3411 -0.0706
  659MOL0     H86957   2.397   3.369   6.196 -0.8399 -2.4201  0.4042
  659MOL0     H86958   2.514   3.347   5.996  1.0942 -0.0164 -0.9996
  659MOL0     H86959   2.489   3.179   6.037 -0.5081 -0.4580 -0.7719
  659MOL0     H86960   2.745   3.339   6.103  1.3729  1.3044 -4.1701
  659MOL0     H86961   2.723   3.163   6.128  0.6518  1.1996  0.3602
  659MOL0     H86962   2.850   3.205   5.942  0.5997  0.2578 -2.9960
  659MOL0     H86963   2.713   3.310   5.870 -1.6508  0.2297  1.0023
  659MOL0     H86964   2.573   3.099   5.842 -0.7877  0.8130  0.2605
  659MOL0     H86965   2.679   3.015   5.962  0.4293 -1.1466 -1.7043
  659MOL0     H86966   2.786   3.116   5.697  1.9307 -0.1301  1.5568
  659MOL0     H86967   2.866   3.017   5.804  1.3618 -0.7476 -2.2009
  659MOL0     H86968   2.744   2.901   5.588 -0.9623 -0.6213 -1.1033
  659MOL0     H86969   2.591   2.925   5.667  1.1389  0.6038 -2.4957
  659MOL0     H86970   2.138   3.289   6.352 -1.1305 -0.4891  0.4325
  659MOL0     H86971   2.014   3.308   6.561 -0.1403  1.0162 -2.2449
  659MOL0     H86972   2.005   3.141   7.003 -0.8041  0.8571 -1.0455
  659MOL0     H86973   1.909   3.141   7.230 -0.1886 -0.3064 -0.8743
  659MOL0     H86974   1.705   1.682   7.654 -1.1431 -1.7558  1.5119
  659MOL0     H86975   1.699   1.435   7.576 -1.8623  1.1829 -2.0779
  659MOL0     H86976   2.111   1.096   7.352 -1.5764  0.3060  2.6568
  659MOL0     H86977   2.091   0.876   7.281 -0.1805  1.0285  2.7169
  659MOL0     H86978   2.020   0.733   6.938 -0.0134 -2.7264  0.0696
  659MOL0     H86979   1.856   0.822   6.937 -2.9708 -1.9946  0.6097
  659MOL0     H86980   1.765   0.595   7.019 -0.1857  0.6318 -1.4881
  659MOL0     H86981   1.827   0.576   6.852 -0.4758  0.4633 -0.2878
  659MOL0     H86982   2.028   0.546   7.057  0.3136  2.1240 -1.9052
  659MOL0     H86983   1.986   0.439   6.916  2.2168 -0.9946  0.6286
  659MOL0     H86984   1.838   0.460   7.180  0.6013 -1.1644  0.9013
  659MOL0     H86985   1.825   0.322   7.070 -2.4361  3.1839 -0.3449
  659MOL0     H86986   2.156   0.181   7.255 -0.3524 -0.9138  0.8184
  659MOL0     H86987   1.702   0.960   7.097  0.7438 -0.1366 -2.7618
  659MOL0     H86988   1.715   1.176   7.233  0.4876 -0.0362  0.7156
  660MOL0     O86989   1.319   6.184   5.163 -0.3242 -0.1279 -0.0652
  660MOL0     C86990   1.447   6.181   5.171 -0.2130  0.5637 -0.7075
  660MOL0     O86991   1.520   6.152   5.289 -0.5087  0.1682 -0.0734
  660MOL0     C86992   1.443   6.138   5.409  0.1264  0.6420 -0.0209
  660MOL0     C86993   1.330   6.056   5.438 -0.3692  0.4932 -0.1407
  660MOL0     C86994   1.292   6.035   5.564  0.0514 -0.2020 -0.1124
  660MOL0     C86995   1.364   6.096   5.677  0.2558  1.5179  0.5073
  660MOL0     O86996   1.324   6.086   5.806 -0.4962 -0.3682 -0.5367
  660MOL0     C86997   1.205   6.014   5.838 -0.4607 -0.1352 -0.4765
  660MOL0     C86998   1.202   6.022   5.988  0.3971 -0.0954  1.4549
  660MOL0     C86999   1.103   5.919   6.041 -0.3590  0.7505 -0.5749
  660MOL0     C87000   0.954   5.924   5.996  0.8818  0.8349 -0.3315
  660MOL0     C87001   0.846   5.844   6.074 -0.3662  0.1182 -0.0130
  660MOL0     C87002   0.853   5.884   6.224  0.5810  1.0628  0.1269
  660MOL0     C87003   0.722   5.840   6.299  0.5384 -0.0111  0.6265
  660MOL0     C87004   0.739   5.691   6.322  0.1834  0.6726  0.4493
  660MOL0     N87005   0.607   5.643   6.386 -0.8807  0.6528  0.5723
  660MOL0     C87006   0.577   5.615   6.518  0.4325 -0.2988  0.4668
  660MOL0     C87007   0.460   5.561   6.516  0.5961  0.3064  0.4489
  660MOL0     C87008   0.368   5.554   6.630 -0.0292 -0.1240  0.4332
  660MOL0     C87009   0.252   5.646   6.614 -0.1109  0.3152 -0.7865
  660MOL0     C87010   0.155   5.591   6.720 -0.8798 -0.2323  0.2764
  660MOL0     C87011   0.018   5.653   6.719  0.7884 -0.5368 -0.1535
  660MOL0     O87012  -0.063   5.618   6.608  0.1447 -0.1378  0.1270
  660MOL0     C87013  -0.185   5.683   6.586 -0.0181 -0.6755 -0.1653
  660MOL0     C87014  -0.248   5.680   6.459 -0.0105 -0.4239  0.8108
  660MOL0     C87015  -0.367   5.749   6.432  0.2803  1.3830 -0.1569
  660MOL0     C87016  -0.437   5.807   6.548 -0.9352  0.0604  0.3848
  660MOL0     C87017  -0.559   5.880   6.532  0.8864  0.1951 -0.2047
  660MOL0     O87018  -0.577   5.937   6.410 -0.1048  0.1303 -0.0638
  660MOL0     C87019  -0.675   6.031   6.397 -0.3293  0.6903 -0.0162
  660MOL0     C87020  -0.633   6.167   6.374 -0.0881 -0.3847 -0.0651
  660MOL0     C87021  -0.728   6.259   6.334  0.4404 -0.3252 -0.4762
  660MOL0     C87022  -0.859   6.217   6.298  0.4219  0.7987 -0.1131
  660MOL0     O87023  -0.951   6.296   6.237  0.0055  0.2238 -0.1371
  660MOL0     C87024  -0.936   6.432   6.217 -0.4189  0.1365 -0.3297
  660MOL0     C87025  -0.846   6.471   6.097  0.5061  0.5807 -0.0728
  660MOL0     C87026  -0.893   6.609   6.058  0.6880  0.2738  0.4811
  660MOL0     C87027  -0.767   6.691   6.030 -0.1999 -0.1795  0.7841
  660MOL0     C87028  -0.797   6.821   5.959 -1.1386  0.3675  0.2225
  660MOL0     C87029  -0.906   6.899   6.033  0.0362  1.0257  0.6089
  660MOL0     C87030  -0.919   7.043   5.996  0.6454 -1.1713  0.4246
  660MOL0     C87031  -1.004   7.129   6.100  0.0284  0.2697  0.0863
  660MOL0    Cl87032  -0.993   7.304   6.052 -0.1520  0.5872  0.9306
  660MOL0     C87033  -0.896   6.084   6.319 -0.4294 -0.4267  0.1247
  660MOL0     C87034  -0.806   5.990   6.363 -0.0345  0.4785 -0.0810
  660MOL0     O87035  -0.634   5.894   6.626  0.3388  0.6006  0.4879
  660MOL0     C87036  -0.378   5.795   6.673  0.5259  0.3418 -0.6489
  660MOL0     C87037  -0.257   5.730   6.689  0.0032  1.1450 -0.4024
  660MOL0     N87038   0.418   5.553   6.385  0.5220 -0.4183  0.7306
  660MOL0     N87039   0.511   5.599   6.306 -0.5290 -0.8958  0.0695
  660MOL0     C87040   1.466   6.185   5.649 -0.5628  0.2953 -0.3773
  660MOL0     C87041   1.499   6.203   5.517 -0.4122 -0.3055  0.0319
  660MOL0     C87042   1.522   6.214   5.042  0.2165  0.4771  0.9801
  660MOL0     C87043   1.466   6.186   4.908 -0.0352 -0.1158  0.3084
  660MOL0     C87044   1.534   6.227   4.794  0.0676  0.2304 -0.2985
  660MOL0     C87045   1.649   6.302   4.801  0.1153 -0.0146 -0.0564
  660MOL0     O87046   1.718   6.341   4.692  0.1742  0.6093  0.6796
  660MOL0     C87047   1.740   6.486   4.684 -0.4330 -0.1398  0.6086
  660MOL0     C87048   1.885   6.511   4.656  0.7737 -0.2019  0.4026
  660MOL0     C87049   1.915   6.663   4.634  0.0044  1.1254 -0.1995
  660MOL0     C87050   2.048   6.681   4.553  0.1934  1.0504 -0.4912
  660MOL0     C87051   2.165   6.720   4.637  0.5567  0.1854  0.3705
  660MOL0     C87052   2.256   6.765   4.697 -0.5715  0.2892 -1.1489
  660MOL0     C87053   1.710   6.326   4.925  0.0105  0.0447  0.2853
  660MOL0     C87054   1.646   6.284   5.042 -0.6397 -0.0432  0.2317
  660MOL0     H87055   1.278   6.000   5.360 -0.1234 -0.5189  0.3952
  660MOL0     H87056   1.210   5.965   5.581 -1.7727  1.8466  0.0169
  660MOL0     H87057   1.206   5.907   5.812  2.6722 -0.0109 -1.3747
  660MOL0     H87058   1.122   6.063   5.788  1.4511 -0.4256 -4.2849
  660MOL0     H87059   1.173   6.126   6.006 -0.4245  0.3270 -1.7425
  660MOL0     H87060   1.302   6.002   6.028  0.4395 -1.5681  0.6844
  660MOL0     H87061   1.090   5.945   6.147 -1.2505 -0.7650 -0.2817
  660MOL0     H87062   1.135   5.814   6.036 -0.9503  0.5196  0.2731
  660MOL0     H87063   0.918   6.027   6.001 -0.8638  0.2893 -0.8471
  660MOL0     H87064   0.953   5.897   5.890 -0.1602  3.1062 -0.9726
  660MOL0     H87065   0.873   5.739   6.060 -2.7787 -0.3986 -1.3127
  660MOL0     H87066   0.743   5.852   6.038 -0.5569  3.4858  0.9278
  660MOL0     H87067   0.846   5.992   6.234  1.1946  0.9172  2.6781
  660MOL0     H87068   0.947   5.854   6.271 -1.0715 -1.2773  2.2208
  660MOL0     H87069   0.707   5.889   6.396 -1.0601  2.2211 -0.6605
  660MOL0     H87070   0.635   5.859   6.235  1.4764  1.3112 -0.2942
  660MOL0     H87071   0.816   5.666   6.396  1.8359  1.8975 -0.7878
  660MOL0     H87072   0.744   5.630   6.232 -0.8133 -4.2784  3.4187
  660MOL0     H87073   0.618   5.637   6.616  0.8815 -3.1529  1.0031
  660MOL0     H87074   0.420   5.571   6.725 -1.8769  1.5699  1.2225
  660MOL0     H87075   0.341   5.449   6.636  2.0028 -0.7052  0.2085
  660MOL0     H87076   0.205   5.663   6.517  1.3320  2.1530 -1.2207
  660MOL0     H87077   0.278   5.751   6.633  1.4342  0.3498 -2.7931
  660MOL0     H87078   0.144   5.482   6.715 -1.0589 -0.3313  2.1330
  660MOL0     H87079   0.199   5.609   6.819 -2.7952 -2.0043  1.5600
  660MOL0     H87080   0.031   5.762   6.720  3.4925 -0.7199 -2.3489
  660MOL0     H87081  -0.024   5.618   6.814  1.1507 -0.7742 -0.0825
  660MOL0     H87082  -0.200   5.627   6.377 -0.4250  2.2358 -1.2708
  660MOL0     H87083  -0.428   5.736   6.343 -0.3185 -0.4993  0.4977
  660MOL0     H87084  -0.528   6.186   6.390 -0.2017 -0.1908  0.4648
  660MOL0     H87085  -0.699   6.363   6.331 -2.0967  0.4310 -0.6747
  660MOL0     H87086  -0.898   6.498   6.296  0.0121  0.9718 -1.2036
  660MOL0     H87087  -1.035   6.475   6.201  0.5425  2.6623  0.0453
  660MOL0     H87088  -0.844   6.404   6.011  2.9442  2.3632 -1.5350
  660MOL0     H87089  -0.745   6.480   6.139  0.7163 -0.1895 -0.4001
  660MOL0     H87090  -0.953   6.660   6.134  0.5681 -0.8964  1.1884
  660MOL0     H87091  -0.956   6.596   5.970  2.4866  0.8855 -0.9617
  660MOL0     H87092  -0.711   6.725   6.118 -0.4040  2.7695 -0.1354
  660MOL0     H87093  -0.703   6.628   5.968  0.5886 -0.1182  1.5128
  660MOL0     H87094  -0.846   6.798   5.864 -0.9386 -0.4009  0.2986
  660MOL0     H87095  -0.707   6.884   5.958 -0.5649 -0.4402 -1.1235
  660MOL0     H87096  -0.878   6.901   6.139 -0.6468  3.5576  0.7960
  660MOL0     H87097  -1.002   6.849   6.021  0.0603  1.5522 -2.7020
  660MOL0     H87098  -0.822   7.091   5.982  0.2287 -0.4242  0.0156
  660MOL0     H87099  -0.971   7.033   5.900 -1.4337 -1.6501  1.5470
  660MOL0     H87100  -0.967   7.102   6.200  0.2295 -0.9077 -0.3010
  660MOL0     H87101  -1.105   7.088   6.090  1.6441 -3.5518 -2.6768
  660MOL0     H87102  -0.999   6.052   6.309 -0.9546  0.8975  1.0228
  660MOL0     H87103  -0.845   5.890   6.376 -0.3641  0.5704 -0.3450
  660MOL0     H87104  -0.416   5.848   6.759  0.0731  2.8415 -2.2659
  660MOL0     H87105  -0.210   5.733   6.786 -0.1335 -1.6299 -0.1524
  660MOL0     H87106   1.503   6.250   5.728 -2.8213 -0.3661  1.2993
  660MOL0     H87107   1.581   6.273   5.503 -1.7958  0.7915 -4.1782
  660MOL0     H87108   1.374   6.128   4.916 -0.7553  1.2044  2.7121
  660MOL0     H87109   1.495   6.214   4.693 -1.7343 -1.4233  0.5479
  660MOL0     H87110   1.717   6.542   4.775  3.2859 -0.3063  1.8302
  660MOL0     H87111   1.674   6.517   4.602  1.0079  1.4196 -0.0028
  660MOL0     H87112   1.935   6.469   4.744  0.3519 -3.6519 -0.8455
  660MOL0     H87113   1.917   6.457   4.566  2.5842 -0.3313  1.0790
  660MOL0     H87114   1.915   6.716   4.730  0.1942  0.6693  0.0576
  660MOL0     H87115   1.837   6.710   4.574  1.1421  1.9448 -1.0933
  660MOL0     H87116   2.077   6.600   4.485 -1.3922  0.8637 -0.9758
  660MOL0     H87117   2.034   6.765   4.484 -0.9490  1.0410 -0.2839
  660MOL0     H87118   2.335   6.799   4.761 -1.0789  0.7421 -0.7472
  660MOL0     H87119   1.802   6.382   4.938  0.1686 -0.3606  0.9260
  660MOL0     H87120   1.707   6.297   5.131 -0.3451  2.5013 -0.2732
  661MOL0     O87121   0.937   2.443   9.214 -0.3190  0.6702  0.8964
  661MOL0     C87122   0.883   2.333   9.223 -0.9050 -0.5170  0.5640
  661MOL0     O87123   0.954   2.221   9.274 -0.6773  0.6754 -0.5597
  661MOL0     C87124   1.092   2.228   9.295  0.4328 -0.1561 -0.3633
  661MOL0     C87125   1.137   2.276   9.417  0.5201  0.0674 -0.1647
  661MOL0     C87126   1.271   2.284   9.440 -0.6000  0.5944  0.0722
  661MOL0     C87127   1.368   2.252   9.345 -0.7678  0.0286  0.7341
  661MOL0     O87128   1.512   2.256   9.361  1.4067 -0.2786  0.1030
  661MOL0     C87129   1.574   2.313   9.479  0.1542  0.6416 -0.5961
  661MOL0     C87130   1.731   2.299   9.485  0.3480  0.3562  0.3973
  661MOL0     C87131   1.787   2.294   9.625  0.1414 -0.5031  1.1277
  661MOL0     C87132   1.788   2.152   9.685 -0.6811 -0.6106 -0.4238
  661MOL0     C87133   1.928   2.077   9.663 -0.9626 -0.0043 -0.1807
  661MOL0     C87134   1.986   2.060   9.518  0.1783 -0.9212 -0.6306
  661MOL0     C87135   2.134   2.014   9.512  0.3023  0.6770  0.7563
  661MOL0     C87136   2.145   1.939   9.383  0.2060  0.0795 -0.3592
  661MOL0     N87137   2.278   1.899   9.362  0.1136  0.8727 -0.1381
  661MOL0     C87138   2.322   1.771   9.365 -0.7983 -0.2445 -0.0565
  661MOL0     C87139   2.445   1.775   9.306  0.0202  0.5468 -0.2332
  661MOL0     C87140   2.531   1.664   9.257 -0.1035  0.1666 -0.2566
  661MOL0     C87141   2.528   1.676   9.097 -0.0035  0.5170  0.4464
  661MOL0     C87142   2.383   1.671   9.044 -0.1111 -0.5809  0.6027
  661MOL0     C87143   2.391   1.709   8.892  0.0255  0.0227  0.0161
  661MOL0     O87144   2.261   1.749   8.840 -0.3979  0.0027  0.3593
  661MOL0     C87145   2.225   1.874   8.801  0.9950  0.2857 -0.2077
  661MOL0     C87146   2.089   1.883   8.782  0.4786  0.2434 -0.2458
  661MOL0     C87147   2.038   2.010   8.750 -0.5847  0.6768  0.2156
  661MOL0     C87148   2.126   2.120   8.730  0.0424  0.5536 -0.5498
  661MOL0     C87149   2.072   2.242   8.675 -0.0674  0.4307  0.6900
  661MOL0     O87150   1.940   2.250   8.664  0.4521 -0.2026  0.6055
  661MOL0     C87151   1.899   2.378   8.605 -0.0672 -0.4810 -0.0821
  661MOL0     C87152   1.903   2.496   8.684  0.1683 -1.1213  0.3091
  661MOL0     C87153   1.868   2.612   8.620 -0.7240  0.8007  0.0416
  661MOL0     C87154   1.828   2.611   8.482  0.2309 -0.2389  1.1306
  661MOL0     O87155   1.806   2.725   8.415  0.2997 -0.0682  0.3237
  661MOL0     C87156   1.738   2.823   8.498  0.5854  0.0661 -0.5304
  661MOL0     C87157   1.655   2.909   8.402  1.5970  0.7164  0.1706
  661MOL0     C87158   1.747   3.013   8.338  0.6769 -0.2565 -0.8687
  661MOL0     C87159   1.668   3.122   8.264  0.5053 -0.5825  0.4336
  661MOL0     C87160   1.733   3.165   8.130  1.2571  0.3905 -0.2162
  661MOL0     C87161   1.667   3.278   8.061 -0.6874  0.1774  0.1221
  661MOL0     C87162   1.738   3.327   7.934  0.8049  0.5664 -0.9276
  661MOL0     C87163   1.629   3.384   7.848  0.7479  0.0046 -0.2663
  661MOL0    Cl87164   1.705   3.483   7.727  0.1927  0.2495 -0.0466
  661MOL0     C87165   1.815   2.490   8.416 -0.3592  0.6054  0.5489
  661MOL0     C87166   1.850   2.375   8.474 -0.5045 -0.3174 -0.4428
  661MOL0     O87167   2.150   2.333   8.642 -0.0465 -0.4325  0.2224
  661MOL0     C87168   2.265   2.099   8.745 -0.1405 -0.4219  0.1176
  661MOL0     C87169   2.318   1.971   8.784  0.0455 -0.8855  0.1482
  661MOL0     N87170   2.465   1.908   9.272 -1.2703 -0.4410  0.1646
  661MOL0     N87171   2.374   1.977   9.318  0.0202 -0.1822  0.3393
  661MOL0     C87172   1.326   2.206   9.220 -0.6582 -0.5187  1.3115
  661MOL0     C87173   1.187   2.203   9.193 -0.5679 -0.5250  0.9882
  661MOL0     C87174   0.740   2.316   9.191 -0.1753 -0.1877 -0.6141
  661MOL0     C87175   0.672   2.196   9.211  1.0534 -0.0246  0.5605
  661MOL0     C87176   0.529   2.195   9.180 -0.7288  0.1603 -0.4798
  661MOL0     C87177   0.460   2.306   9.132 -1.1696 -0.6676  0.9613
  661MOL0     O87178   0.330   2.313   9.123  0.4676  0.7919 -0.0857
  661MOL0     C87179   0.268   2.373   9.011  0.5659  0.3510  0.0881
  661MOL0     C87180   0.125   2.319   8.965  0.9086  0.2686 -1.0198
  661MOL0     C87181   0.134   2.179   8.887  0.3957  0.0538 -0.0418
  661MOL0     C87182  -0.010   2.149   8.846  0.0565  0.3128  0.0321
  661MOL0     C87183  -0.020   2.022   8.769 -0.5424 -1.4936  0.4424
  661MOL0     C87184  -0.021   1.917   8.721 -0.3208  0.5728 -0.0830
  661MOL0     C87185   0.539   2.418   9.104  0.2023 -0.5282  0.1491
  661MOL0     C87186   0.665   2.428   9.140 -0.0033 -0.1948 -0.2879
  661MOL0     H87187   1.071   2.310   9.496 -1.6505 -3.7634 -0.0833
  661MOL0     H87188   1.300   2.339   9.529  4.2159  1.1033 -1.5164
  661MOL0     H87189   1.532   2.259   9.565 -1.6732  0.9339 -1.2757
  661MOL0     H87190   1.545   2.418   9.490  2.3977  1.3447 -0.8615
  661MOL0     H87191   1.771   2.387   9.435 -1.9732 -0.1617 -2.6966
  661MOL0     H87192   1.759   2.211   9.425 -1.2484 -3.2899  4.4169
  661MOL0     H87193   1.731   2.352   9.699  1.6994 -1.8158  3.4543
  661MOL0     H87194   1.890   2.331   9.628  0.1549 -0.3575 -0.1688
  661MOL0     H87195   1.757   2.154   9.789 -1.5121  2.2569 -0.6548
  661MOL0     H87196   1.702   2.104   9.636 -3.7766  3.7491  0.1190
  661MOL0     H87197   1.909   1.979   9.705  0.5697 -0.4070 -0.3654
  661MOL0     H87198   2.002   2.127   9.726 -1.9114 -2.5027  3.1729
  661MOL0     H87199   1.973   2.156   9.467 -1.6437  0.6292  2.4643
  661MOL0     H87200   1.928   1.982   9.466 -3.1692 -0.2186  1.6983
  661MOL0     H87201   2.199   2.102   9.515  0.8374  0.4018 -1.3378
  661MOL0     H87202   2.157   1.943   9.592 -2.2807 -0.2029  0.7931
  661MOL0     H87203   2.131   2.007   9.299  6.1509  1.5133 -0.6134
  661MOL0     H87204   2.085   1.847   9.378  0.8506 -0.5220  2.0457
  661MOL0     H87205   2.272   1.685   9.407 -2.8337  1.5493  1.4188
  661MOL0     H87206   2.498   1.569   9.298  0.7682  0.9860  2.5440
  661MOL0     H87207   2.636   1.672   9.288 -0.5111  2.5675  0.6761
  661MOL0     H87208   2.591   1.591   9.067 -3.2609 -2.4150  1.1950
  661MOL0     H87209   2.566   1.773   9.064 -3.0162  1.7808  0.3812
  661MOL0     H87210   2.353   1.567   9.060  0.6422 -0.8942  0.0665
  661MOL0     H87211   2.313   1.740   9.091  0.0955  1.0746 -1.3585
  661MOL0     H87212   2.429   1.626   8.832 -2.7417  0.0242 -1.9124
  661MOL0     H87213   2.474   1.781   8.885  0.5060 -0.4107  0.9707
  661MOL0     H87214   2.033   1.791   8.800 -0.9052 -0.0146 -4.7620
  661MOL0     H87215   1.932   2.027   8.733 -0.8088  2.7292  3.0671
  661MOL0     H87216   1.931   2.495   8.789 -0.8685  1.0709  0.6675
  661MOL0     H87217   1.895   2.696   8.683  0.3370  0.1360  0.5069
  661MOL0     H87218   1.807   2.879   8.561 -1.8703  0.6837  1.8259
  661MOL0     H87219   1.668   2.772   8.565  0.8366 -2.8899 -2.3163
  661MOL0     H87220   1.581   2.960   8.464  0.6337 -1.0586  0.5521
  661MOL0     H87221   1.592   2.851   8.335  0.4927  2.6901 -0.5421
  661MOL0     H87222   1.832   2.980   8.278  2.6420  2.4243  0.2546
  661MOL0     H87223   1.790   3.059   8.428 -3.0187 -1.5417  1.7989
  661MOL0     H87224   1.562   3.095   8.257  0.0466 -0.0790  3.6449
  661MOL0     H87225   1.659   3.212   8.327  1.8527 -0.4821  0.5093
  661MOL0     H87226   1.735   3.084   8.056 -1.7142 -0.4015  0.4053
  661MOL0     H87227   1.832   3.205   8.149  0.3581  3.2909 -1.1275
  661MOL0     H87228   1.641   3.360   8.128 -2.1420 -0.2800  0.1712
  661MOL0     H87229   1.574   3.239   8.019 -0.7381  2.3158 -1.8959
  661MOL0     H87230   1.805   3.401   7.978  4.0865 -1.0401 -2.8260
  661MOL0     H87231   1.800   3.250   7.887 -1.1785  0.1518 -3.0225
  661MOL0     H87232   1.566   3.441   7.917 -2.0541 -0.7621 -2.0128
  661MOL0     H87233   1.574   3.301   7.801  2.8245 -1.4279 -0.2948
  661MOL0     H87234   1.765   2.479   8.320 -2.0467  4.9543  0.7062
  661MOL0     H87235   1.847   2.276   8.430 -1.4291  0.8587 -3.2851
  661MOL0     H87236   2.333   2.179   8.715 -2.6522  2.2784  1.0889
  661MOL0     H87237   2.422   1.955   8.809 -0.0221 -1.0637  0.3107
  661MOL0     H87238   1.403   2.169   9.153 -1.5293  1.7046 -1.1309
  661MOL0     H87239   1.148   2.167   9.099 -0.4613 -0.6620  0.9950
  661MOL0     H87240   0.732   2.116   9.254  1.0359 -0.1239  0.4011
  661MOL0     H87241   0.464   2.110   9.201  0.3548 -0.5552  0.1475
  661MOL0     H87242   0.331   2.366   8.922 -1.0610 -3.3862 -0.9722
  661MOL0     H87243   0.255   2.477   9.041 -1.1400 -0.1127  1.1266
  661MOL0     H87244   0.068   2.307   9.058  2.5531 -1.8638 -0.2093
  661MOL0     H87245   0.071   2.389   8.900  0.6530  0.8732 -0.1777
  661MOL0     H87246   0.171   2.097   8.949  0.1225  1.0862  1.5302
  661MOL0     H87247   0.189   2.188   8.793  1.9188  0.7316  0.8624
  661MOL0     H87248  -0.077   2.145   8.933 -0.6001 -1.0971 -0.5098
  661MOL0     H87249  -0.040   2.227   8.775 -0.4258 -1.1350 -1.4050
  661MOL0     H87250  -0.018   1.815   8.688  0.7362 -0.1297  1.9987
  661MOL0     H87251   0.509   2.514   9.062  2.0978 -0.0828 -0.2545
  661MOL0     H87252   0.715   2.523   9.123  2.9779 -1.7851 -1.1132
  662MOL0     O87253   8.166   4.834   6.771  0.1227 -0.4575 -0.5969
  662MOL0     C87254   8.284   4.801   6.780 -1.3773  0.1829 -0.4501
  662MOL0     O87255   8.363   4.796   6.899  0.5609 -0.0294 -0.3089
  662MOL0     C87256   8.308   4.873   7.004 -1.1644  0.2286 -0.0012
  662MOL0     C87257   8.192   4.829   7.068  0.7983  0.3807 -0.7499
  662MOL0     C87258   8.125   4.913   7.157  0.1560  0.2628  0.7740
  662MOL0     C87259   8.184   5.036   7.188 -0.9510  0.6044 -0.5253
  662MOL0     O87260   8.107   5.102   7.281  0.7819 -0.2115 -0.5985
  662MOL0     C87261   8.152   5.232   7.330 -0.2395  0.2499 -0.7519
  662MOL0     C87262   8.061   5.336   7.267 -0.2722 -0.2254 -0.6962
  662MOL0     C87263   7.934   5.357   7.338  1.3674  0.7936 -0.0003
  662MOL0     C87264   7.866   5.486   7.285 -0.3466  0.2663 -1.0892
  662MOL0     C87265   7.714   5.480   7.291 -1.5408  0.1987  0.0301
  662MOL0     C87266   7.654   5.601   7.226 -0.8093 -0.5285 -0.3707
  662MOL0     C87267   7.515   5.647   7.278  0.4959 -0.8765  0.4265
  662MOL0     C87268   7.483   5.802   7.262 -0.8972  0.6996  0.0403
  662MOL0     N87269   7.453   5.846   7.119 -0.3724  0.6066  0.2974
  662MOL0     C87270   7.348   5.915   7.068  1.2265  0.6439 -0.2164
  662MOL0     C87271   7.376   5.922   6.937  0.0505 -0.5870  0.1139
  662MOL0     C87272   7.294   6.010   6.850 -0.0343 -0.1172 -0.2590
  662MOL0     C87273   7.303   5.988   6.700 -0.7050  0.4174 -0.2282
  662MOL0     C87274   7.186   6.055   6.612 -0.6906  0.1853 -0.3770
  662MOL0     C87275   7.104   5.940   6.543 -0.3648 -0.8726  0.0439
  662MOL0     O87276   7.193   5.884   6.444  0.2583 -0.0700 -0.5500
  662MOL0     C87277   7.168   5.751   6.431  0.2742 -0.2984 -0.1559
  662MOL0     C87278   7.284   5.677   6.402 -0.2425 -0.9620  0.7881
  662MOL0     C87279   7.268   5.542   6.354  0.2946  0.0070 -0.5019
  662MOL0     C87280   7.141   5.479   6.336 -1.3270  0.3738 -1.4819
  662MOL0     C87281   7.130   5.339   6.286 -0.0829  0.4568  0.0072
  662MOL0     O87282   7.248   5.267   6.266  0.1412 -0.1764 -0.0295
  662MOL0     C87283   7.245   5.132   6.236  0.7477 -0.0232 -0.2253
  662MOL0     C87284   7.155   5.083   6.138 -0.5437  0.5745  0.2329
  662MOL0     C87285   7.141   4.944   6.109 -0.2320 -0.7244 -0.0393
  662MOL0     C87286   7.219   4.855   6.188 -0.6803  0.1217 -0.3546
  662MOL0     O87287   7.206   4.723   6.154  0.8454  0.7741 -0.3031
  662MOL0     C87288   7.223   4.628   6.262  0.5868  0.9999 -0.9299
  662MOL0     C87289   7.225   4.481   6.215  0.1564 -0.8509 -0.0855
  662MOL0     C87290   7.360   4.423   6.168  0.1746  1.1365  0.6439
  662MOL0     C87291   7.334   4.267   6.171  0.4848  0.3874 -0.4769
  662MOL0     C87292   7.458   4.188   6.115 -1.4691 -0.0548 -0.8021
  662MOL0     C87293   7.575   4.174   6.218  0.4822 -0.0974  0.5669
  662MOL0     C87294   7.677   4.100   6.139  1.1519  0.1528  0.3857
  662MOL0     C87295   7.812   4.109   6.211 -0.4077 -0.7563  1.4814
  662MOL0    Cl87296   7.925   3.984   6.146  0.0709 -0.1224 -0.3019
  662MOL0     C87297   7.320   4.899   6.281  0.4453 -0.1983  0.6178
  662MOL0     C87298   7.334   5.042   6.303  1.1057  0.3038  1.2500
  662MOL0     O87299   7.014   5.302   6.260 -0.1807  0.4069  0.2453
  662MOL0     C87300   7.029   5.555   6.372 -0.3957 -1.7733  1.1847
  662MOL0     C87301   7.039   5.695   6.411  0.3361 -0.0889  0.9389
  662MOL0     N87302   7.493   5.852   6.908  0.3240  0.0910 -0.0269
  662MOL0     N87303   7.548   5.827   7.020  1.0988 -0.0581 -0.1707
  662MOL0     C87304   8.302   5.077   7.123 -0.3997 -0.2826 -0.4147
  662MOL0     C87305   8.365   4.990   7.032 -0.9795 -0.1091 -0.0955
  662MOL0     C87306   8.338   4.740   6.655  0.3729 -0.0317  0.9688
  662MOL0     C87307   8.477   4.714   6.638  0.7572 -0.4593  0.0629
  662MOL0     C87308   8.526   4.673   6.513  0.3975  0.5958 -0.5333
  662MOL0     C87309   8.440   4.641   6.403 -0.6258 -0.7666 -0.4412
  662MOL0     O87310   8.479   4.622   6.273  0.1014  0.0836  0.4268
  662MOL0     C87311   8.621   4.622   6.250  0.7788 -0.3098 -0.7301
  662MOL0     C87312   8.664   4.579   6.117  0.1537 -0.4740 -0.6742
  662MOL0     C87313   8.789   4.500   6.121 -1.1337  0.0270 -0.2640
  662MOL0     C87314   8.829   4.465   5.981 -0.4530 -0.0805  0.4828
  662MOL0     C87315   8.887   4.584   5.926 -0.4696  0.4844  0.2578
  662MOL0     C87316   8.952   4.685   5.905  0.6902 -0.8773  0.2212
  662MOL0     C87317   8.310   4.659   6.425 -0.0011  0.5025 -0.2752
  662MOL0     C87318   8.256   4.709   6.543 -0.3102 -0.1021  0.7552
  662MOL0     H87319   8.160   4.728   7.046  2.5856 -0.7466  1.4571
  662MOL0     H87320   8.027   4.895   7.200  1.0397 -1.0532  2.3293
  662MOL0     H87321   8.258   5.251   7.310  0.3772 -3.3723 -1.5457
  662MOL0     H87322   8.141   5.238   7.439 -0.5039  1.5073 -0.8371
  662MOL0     H87323   8.042   5.305   7.164  0.5806 -0.8056 -0.6895
  662MOL0     H87324   8.105   5.436   7.270 -2.7498  0.9601 -1.0134
  662MOL0     H87325   7.948   5.369   7.445  2.2000  0.8322 -0.1092
  662MOL0     H87326   7.867   5.271   7.332 -1.5567  2.9579 -0.5981
  662MOL0     H87327   7.902   5.580   7.329 -2.8411  1.3265 -1.0964
  662MOL0     H87328   7.874   5.503   7.177 -3.5641  2.3370 -1.1483
  662MOL0     H87329   7.688   5.472   7.397  2.7859  1.3958  1.3787
  662MOL0     H87330   7.680   5.395   7.232 -0.3283 -0.4371  0.2183
  662MOL0     H87331   7.658   5.590   7.118 -1.4292 -3.5660 -0.1612
  662MOL0     H87332   7.716   5.691   7.238 -2.5446  0.5802  0.7342
  662MOL0     H87333   7.433   5.601   7.221  0.5692 -3.1737  2.0104
  662MOL0     H87334   7.499   5.623   7.384  2.4275 -3.0959  0.3087
  662MOL0     H87335   7.562   5.862   7.308 -1.3473  1.7850 -0.5548
  662MOL0     H87336   7.393   5.813   7.323 -1.7746 -1.5574 -0.7240
  662MOL0     H87337   7.276   5.962   7.133  0.0480 -1.3087 -0.0477
  662MOL0     H87338   7.330   6.112   6.871  2.7451 -1.2454  0.8983
  662MOL0     H87339   7.189   5.997   6.876 -0.1671 -3.4917 -2.0193
  662MOL0     H87340   7.296   5.883   6.670  0.0794  0.3289 -0.1155
  662MOL0     H87341   7.405   6.020   6.676  1.1362 -1.4898  4.0597
  662MOL0     H87342   7.129   6.103   6.693 -0.0167 -0.5548  0.5618
  662MOL0     H87343   7.221   6.134   6.546  3.6312  1.1493  2.6079
  662MOL0     H87344   7.008   5.975   6.505  0.3780  0.6259 -0.5476
  662MOL0     H87345   7.075   5.875   6.626  0.0528 -1.6352 -0.3943
  662MOL0     H87346   7.374   5.736   6.389 -3.1507  3.4260 -2.8117
  662MOL0     H87347   7.353   5.484   6.318 -1.2180 -1.0753 -2.5420
  662MOL0     H87348   7.100   5.154   6.077 -1.6938 -1.6689 -1.4587
  662MOL0     H87349   7.072   4.904   6.035 -0.3210  0.5482 -0.6695
  662MOL0     H87350   7.134   4.637   6.326  2.1479  0.9127  1.3470
  662MOL0     H87351   7.311   4.643   6.325  1.3386  0.3712 -1.8109
  662MOL0     H87352   7.163   4.470   6.126 -1.5563  0.0953  0.9345
  662MOL0     H87353   7.187   4.429   6.303  0.4038 -2.3478 -0.8389
  662MOL0     H87354   7.438   4.467   6.231 -0.0820  0.9518  1.0986
  662MOL0     H87355   7.377   4.449   6.063 -1.2448  0.7905  0.3008
  662MOL0     H87356   7.290   4.243   6.269  2.1536  0.3870  0.3079
  662MOL0     H87357   7.263   4.239   6.093  2.3768 -1.5409 -1.6071
  662MOL0     H87358   7.491   4.241   6.025  2.1739 -0.7571 -0.0332
  662MOL0     H87359   7.424   4.090   6.080  3.2836 -3.3907  2.6670
  662MOL0     H87360   7.536   4.119   6.304 -2.7351  2.1006  0.6962
  662MOL0     H87361   7.614   4.273   6.244 -0.0661  0.6086 -1.1530
  662MOL0     H87362   7.664   3.992   6.128  2.5634  0.1507 -1.7505
  662MOL0     H87363   7.685   4.142   6.039  3.9280 -0.1977  0.3909
  662MOL0     H87364   7.805   4.102   6.320 -0.5009  3.2553  1.9098
  662MOL0     H87365   7.850   4.207   6.182 -0.8964 -0.8254  0.5632
  662MOL0     H87366   7.386   4.836   6.339  0.4711  0.6247  1.5043
  662MOL0     H87367   7.394   5.087   6.381 -1.0579  3.5808  1.2421
  662MOL0     H87368   6.929   5.512   6.372 -1.6699  0.9419 -0.1313
  662MOL0     H87369   6.949   5.741   6.450 -0.0490 -0.4294  0.4673
  662MOL0     H87370   8.342   5.177   7.137  2.1048 -1.5766  2.9629
  662MOL0     H87371   8.435   5.027   6.958 -1.3063  0.0978 -0.3011
  662MOL0     H87372   8.548   4.718   6.720 -2.9572 -3.0916  3.8204
  662MOL0     H87373   8.635   4.671   6.514  0.6655  3.2116  4.0859
  662MOL0     H87374   8.662   4.543   6.314 -0.3114  0.3959  0.8888
  662MOL0     H87375   8.659   4.720   6.279  0.7138 -0.3902 -0.3763
  662MOL0     H87376   8.584   4.516   6.077  1.9623 -1.2320 -3.4195
  662MOL0     H87377   8.670   4.667   6.052  2.5254  1.1299  1.5402
  662MOL0     H87378   8.776   4.405   6.174 -0.7270 -0.0412 -0.2775
  662MOL0     H87379   8.868   4.548   6.180 -2.0965 -0.8205  1.8222
  662MOL0     H87380   8.900   4.382   5.990 -2.5963 -2.1111 -0.2555
  662MOL0     H87381   8.743   4.433   5.921  0.1511 -2.1973  0.6835
  662MOL0     H87382   8.989   4.785   5.902 -0.8884 -0.2841 -0.6886
  662MOL0     H87383   8.253   4.646   6.333  2.1821 -0.6860 -1.5536
  662MOL0     H87384   8.149   4.725   6.546 -0.4943 -0.0052 -2.5313
  663MOL0     O87385  10.185   9.203   4.813 -0.0733 -0.3994 -1.2120
  663MOL0     C87386  10.110   9.115   4.772  0.6464 -0.0557 -0.2764
  663MOL0     O87387  10.056   9.015   4.854 -0.3988 -0.3897  0.4684
  663MOL0     C87388  10.104   8.987   4.976  0.0803 -0.0886 -0.4008
  663MOL0     C87389  10.161   9.086   5.067  0.1105 -0.4459  0.4078
  663MOL0     C87390  10.202   9.050   5.199  1.3164 -0.6414  0.0831
  663MOL0     C87391  10.170   8.923   5.249  0.6077 -0.3985  0.2807
  663MOL0     O87392  10.198   8.879   5.377  0.6214  0.4966 -0.4180
  663MOL0     C87393  10.289   8.955   5.444 -0.8137  0.0402 -0.1846
  663MOL0     C87394  10.237   9.025   5.570 -0.9429 -0.4079  0.3518
  663MOL0     C87395  10.336   9.076   5.682  0.0333  0.5278 -0.5514
  663MOL0     C87396  10.266   9.147   5.800 -0.3491 -0.3980 -0.4858
  663MOL0     C87397  10.214   9.289   5.768  0.3809  0.4059 -0.2037
  663MOL0     C87398  10.325   9.396   5.746  0.9824  0.2035  0.4091
  663MOL0     C87399  10.271   9.527   5.687  0.0410  0.2339  0.0299
  663MOL0     C87400  10.216   9.516   5.550 -0.3850 -0.0025  0.2389
  663MOL0     N87401  10.152   9.634   5.498 -0.5359 -0.8567 -0.1878
  663MOL0     C87402  10.013   9.654   5.514  1.0079  0.3156  0.7690
  663MOL0     C87403   9.984   9.754   5.430 -0.2748  0.3365 -0.1744
  663MOL0     C87404   9.836   9.795   5.416 -0.4791 -0.1637  0.1365
  663MOL0     C87405   9.831   9.933   5.353  0.3042  0.6888  0.0857
  663MOL0     C87406   9.833  10.051   5.458 -0.2858  0.2840  0.2112
  663MOL0     C87407   9.980  10.095   5.491 -0.8246 -0.5957 -0.0782
  663MOL0     O87408   9.953  10.200   5.586 -1.2345  0.7274  0.4232
  663MOL0     C87409  10.052  10.244   5.671  0.3087 -0.5748  0.4998
  663MOL0     C87410  10.182  10.189   5.675  0.3319  1.1355 -0.5314
  663MOL0     C87411  10.272  10.231   5.766 -0.0334 -0.2513 -0.3538
  663MOL0     C87412  10.241  10.339   5.849  0.5017  0.0290 -0.0533
  663MOL0     C87413  10.342  10.390   5.951 -0.2801 -0.7434 -0.1262
  663MOL0     O87414  10.328  10.509   6.009 -0.2416 -0.2475  0.9420
  663MOL0     C87415  10.440  10.554   6.078 -0.1355  0.1986  0.7341
  663MOL0     C87416  10.564  10.580   6.004 -0.9096 -0.1078 -0.6246
  663MOL0     C87417  10.666  10.654   6.070 -0.7835  1.0671 -0.6534
  663MOL0     C87418  10.648  10.691   6.205  0.3125 -0.3148 -0.3808
  663MOL0     O87419  10.747  10.762   6.262 -0.5252 -0.8042 -0.1193
  663MOL0     C87420  10.716  10.895   6.289  1.2146  0.3926  0.0107
  663MOL0     C87421  10.824  11.005   6.267  0.9806  0.6900  0.5517
  663MOL0     C87422  10.954  11.004   6.355  0.4787 -0.4377 -0.1584
  663MOL0     C87423  11.049  10.897   6.305 -0.0803 -1.1622 -0.7708
  663MOL0     C87424  11.196  10.931   6.349  0.6426  0.2164  0.4633
  663MOL0     C87425  11.215  10.935   6.503 -0.1621 -0.1553 -0.4167
  663MOL0     C87426  11.364  10.920   6.536  0.1627  0.2357 -0.4628
  663MOL0     C87427  11.394  10.913   6.683 -0.7013  0.7594  1.6879
  663MOL0    Cl87428  11.330  11.047   6.774  0.1345 -0.0805  0.2014
  663MOL0     C87429  10.535  10.654   6.272 -0.4331 -0.2818 -0.0689
  663MOL0     C87430  10.437  10.588   6.210  0.6754 -0.2238  0.3023
  663MOL0     O87431  10.436  10.312   5.963 -0.2721 -0.6629  0.1508
  663MOL0     C87432  10.115  10.399   5.848  0.7415  0.3834 -0.3010
  663MOL0     C87433  10.021  10.348   5.748  0.0830 -1.0085 -0.7786
  663MOL0     N87434  10.097   9.778   5.349 -0.2759 -0.2578  0.2574
  663MOL0     N87435  10.191   9.710   5.395  0.6631  0.2723  0.6012
  663MOL0     C87436  10.101   8.834   5.167 -0.1954  1.0832  0.3745
  663MOL0     C87437  10.083   8.862   5.028  0.7035  0.4593  0.1672
  663MOL0     C87438  10.065   9.125   4.638  0.6462  0.1359 -0.1068
  663MOL0     C87439   9.945   9.079   4.590  0.3818  0.1200 -0.1871
  663MOL0     C87440   9.909   9.089   4.456  1.3026  0.4323  0.7790
  663MOL0     C87441   9.991   9.153   4.364  0.6038  0.7632 -0.0745
  663MOL0     O87442   9.946   9.145   4.236  0.5761  0.3094 -0.4754
  663MOL0     C87443   9.994   9.241   4.143  0.5069 -0.2835  0.3839
  663MOL0     C87444   9.930   9.383   4.158 -0.4600 -0.5412  0.1058
  663MOL0     C87445   9.986   9.466   4.046  0.2323 -1.3964  0.7316
  663MOL0     C87446   9.946   9.435   3.903 -0.2897  0.3866 -0.0702
  663MOL0     C87447  10.005   9.538   3.814  0.7359 -0.3325 -1.2296
  663MOL0     C87448  10.033   9.637   3.743  0.3129  0.4263  0.3036
  663MOL0     C87449  10.115   9.189   4.405  0.1605  0.0386  0.5493
  663MOL0     C87450  10.149   9.186   4.542 -0.4246 -1.4999  0.2778
  663MOL0     H87451  10.181   9.188   5.038  2.5736 -1.0666 -0.3820
  663MOL0     H87452  10.236   9.129   5.265 -1.7317  0.4871  0.4675
  663MOL0     H87453  10.343   9.027   5.381  1.5165 -0.9845  0.5204
  663MOL0     H87454  10.361   8.881   5.481  0.0871  1.5101  1.1230
  663MOL0     H87455  10.161   8.961   5.617  0.6352 -1.2039  1.9153
  663MOL0     H87456  10.183   9.115   5.539  0.3740  1.6299  3.5125
  663MOL0     H87457  10.399   9.141   5.621  0.6286 -0.1507 -0.6641
  663MOL0     H87458  10.394   8.989   5.712 -0.5305 -0.6929 -2.7583
  663MOL0     H87459  10.184   9.086   5.840  1.6988  0.3615  5.9045
  663MOL0     H87460  10.340   9.154   5.879  1.3874  2.1364 -2.1912
  663MOL0     H87461  10.143   9.328   5.842 -0.4579  1.9055 -1.7262
  663MOL0     H87462  10.152   9.282   5.678 -2.7842 -1.7733  1.8988
  663MOL0     H87463  10.412   9.365   5.689  1.7091  4.0526 -0.8869
  663MOL0     H87464  10.361   9.428   5.844 -0.2834  2.2926  0.2717
  663MOL0     H87465  10.201   9.568   5.760  0.5692  0.5867  0.3406
  663MOL0     H87466  10.360   9.589   5.679  0.1268 -0.0390 -1.4156
  663MOL0     H87467  10.137   9.441   5.552 -0.7902  0.3987 -0.3604
  663MOL0     H87468  10.290   9.489   5.473 -0.2310 -0.2932  0.4853
  663MOL0     H87469   9.945   9.597   5.576 -0.6791  2.6265  1.1492
  663MOL0     H87470   9.778   9.796   5.508  0.4353 -2.1300  0.7766
  663MOL0     H87471   9.804   9.728   5.336 -1.7047  0.3247  0.2032
  663MOL0     H87472   9.735   9.938   5.301 -1.2977  1.5851  2.9180
  663MOL0     H87473   9.917   9.941   5.286 -0.1815 -0.8901 -0.7850
  663MOL0     H87474   9.784  10.139   5.414  0.6434  0.4577 -0.5220
  663MOL0     H87475   9.767  10.036   5.544  0.0042  2.4171  0.8599
  663MOL0     H87476  10.017  10.137   5.397 -0.2866  2.0036  1.2024
  663MOL0     H87477  10.044  10.012   5.521  0.6409  0.5071 -0.0747
  663MOL0     H87478  10.213  10.108   5.610 -0.8898 -0.3871  0.7022
  663MOL0     H87479  10.363  10.172   5.769  1.1033  1.4288 -0.8973
  663MOL0     H87480  10.576  10.538   5.905 -3.1761  0.0130 -1.0032
  663MOL0     H87481  10.764  10.677   6.028 -0.7548 -0.0446 -1.2468
  663MOL0     H87482  10.697  10.893   6.396 -3.4790  1.0316 -0.5963
  663MOL0     H87483  10.624  10.930   6.240  1.7757  0.3534 -1.0934
  663MOL0     H87484  10.776  11.100   6.291 -0.8559  0.2048 -0.9386
  663MOL0     H87485  10.858  11.012   6.163 -0.6277 -0.4720 -0.0994
  663MOL0     H87486  10.935  10.982   6.460  3.5146  0.0013  0.5882
  663MOL0     H87487  10.993  11.105   6.342 -1.5846  0.2263 -1.7241
  663MOL0     H87488  11.020  10.802   6.349 -1.7330 -1.4131 -2.2996
  663MOL0     H87489  11.052  10.900   6.195 -0.3782  1.3956 -0.7628
  663MOL0     H87490  11.240  11.027   6.318  3.2070 -0.4728  1.6658
  663MOL0     H87491  11.257  10.856   6.298 -2.1141 -0.5734 -1.9631
  663MOL0     H87492  11.156  10.854   6.548  0.7044  0.9522  3.0026
  663MOL0     H87493  11.173  11.023   6.551  0.0708 -0.1785 -0.1667
  663MOL0     H87494  11.417  10.835   6.491  1.3727  0.8725 -0.2712
  663MOL0     H87495  11.413  11.012   6.504 -3.2547  2.5546  0.4633
  663MOL0     H87496  11.502  10.899   6.698 -0.0328  0.9317 -1.9885
  663MOL0     H87497  11.346  10.825   6.727 -2.1975  1.2173  1.0272
  663MOL0     H87498  10.532  10.694   6.373  5.3996  0.0486  0.3249
  663MOL0     H87499  10.348  10.561   6.267 -0.8230  1.2766 -1.1787
  663MOL0     H87500  10.086  10.479   5.914  0.9713 -2.8927  4.2013
  663MOL0     H87501   9.920  10.383   5.734  0.7000  0.9598 -0.6377
  663MOL0     H87502  10.084   8.735   5.209 -3.4620 -0.1729 -3.3145
  663MOL0     H87503  10.027   8.799   4.960 -2.0882  1.2936  1.5473
  663MOL0     H87504   9.878   9.046   4.669 -0.7490  6.2395  1.9607
  663MOL0     H87505   9.817   9.048   4.416  1.1741  2.2249 -0.9063
  663MOL0     H87506   9.953   9.206   4.048  0.1646  0.7203  0.1392
  663MOL0     H87507  10.102   9.243   4.130  0.6453 -1.0871  1.3153
  663MOL0     H87508   9.822   9.370   4.164 -0.2233 -1.9998  3.5525
  663MOL0     H87509   9.964   9.422   4.254 -1.7091 -0.9143  0.7100
  663MOL0     H87510  10.095   9.473   4.046  0.1851  1.5191 -2.0848
  663MOL0     H87511   9.961   9.567   4.080  3.5427  0.8073 -2.5297
  663MOL0     H87512   9.989   9.336   3.884 -2.3628 -0.7972  1.1371
  663MOL0     H87513   9.838   9.443   3.889 -0.7056  2.2434  3.2096
  663MOL0     H87514  10.057   9.725   3.687 -0.4118  1.4531  1.5419
  663MOL0     H87515  10.195   9.221   4.339 -0.9055 -0.8590 -1.2602
  663MOL0     H87516  10.250   9.224   4.558 -0.0736 -2.3672  0.1329
  664MOL0     O87517  11.243   7.034   0.838 -0.6048 -0.2115 -1.1432
  664MOL0     C87518  11.203   6.945   0.763 -0.1476 -0.3235  0.2041
  664MOL0     O87519  11.077   6.887   0.775 -0.3438  0.4638  0.6522
  664MOL0     C87520  11.007   6.913   0.894  0.5853 -0.3700 -0.0718
  664MOL0     C87521  10.960   7.033   0.933 -0.0915  0.3459 -0.1017
  664MOL0     C87522  10.904   7.052   1.063  0.0244 -0.2856  0.9222
  664MOL0     C87523  10.888   6.945   1.159  0.4486 -1.1919  0.1459
  664MOL0     O87524  10.841   6.957   1.284  0.1556  0.3142 -0.1488
  664MOL0     C87525  10.795   7.071   1.354  0.1876  0.5345 -0.3572
  664MOL0     C87526  10.797   7.035   1.502  0.1969 -0.4934  0.9891
  664MOL0     C87527  10.839   7.149   1.588 -0.9231 -0.0559  0.8940
  664MOL0     C87528  10.846   7.099   1.742 -0.5868 -0.7418  1.2685
  664MOL0     C87529  10.901   7.207   1.838 -0.7397 -0.7248 -1.1731
  664MOL0     C87530  11.042   7.267   1.823 -0.1404  0.1593 -0.3568
  664MOL0     C87531  11.068   7.383   1.923 -0.9794  0.3590 -0.6417
  664MOL0     C87532  11.175   7.489   1.870 -0.4422 -0.4583  0.4219
  664MOL0     N87533  11.294   7.418   1.809  0.6109  0.1011  0.7135
  664MOL0     C87534  11.408   7.380   1.871  1.4459 -0.8595  0.3213
  664MOL0     C87535  11.470   7.309   1.774  0.1444 -0.5419  0.7884
  664MOL0     C87536  11.587   7.222   1.821  0.6710 -0.4649  0.2912
  664MOL0     C87537  11.649   7.132   1.704 -0.0445  0.4275 -0.1403
  664MOL0     C87538  11.753   7.045   1.783  0.4772  0.6416  0.1802
  664MOL0     C87539  11.837   6.983   1.665 -0.2580  0.1205 -0.1490
  664MOL0     O87540  11.896   7.070   1.581  0.6980  0.7410  0.4166
  664MOL0     C87541  12.018   7.116   1.632  0.2186 -0.3154  0.2017
  664MOL0     C87542  12.136   7.066   1.577  0.7444  0.1915 -1.5877
  664MOL0     C87543  12.265   7.106   1.624 -0.1207 -0.5447 -0.1377
  664MOL0     C87544  12.279   7.201   1.717  0.6283 -0.4431  0.1822
  664MOL0     C87545  12.407   7.224   1.783 -0.5647  0.4724  0.2675
  664MOL0     O87546  12.513   7.137   1.736  0.5920  0.1432  0.0993
  664MOL0     C87547  12.615   7.146   1.820 -0.6242  0.4818 -0.4225
  664MOL0     C87548  12.648   7.030   1.889 -0.6398 -0.2613  0.5690
  664MOL0     C87549  12.767   7.016   1.951  0.7184  1.1729  0.0655
  664MOL0     C87550  12.854   7.119   1.959  1.2534 -0.5996  0.1954
  664MOL0     O87551  12.979   7.101   2.011  0.6911  0.4212  0.1397
  664MOL0     C87552  13.051   7.205   2.068  0.2334  0.0797  0.2360
  664MOL0     C87553  13.084   7.151   2.209 -0.0863  0.1231  0.4042
  664MOL0     C87554  12.971   7.076   2.283  1.0990  0.4786  0.7393
  664MOL0     C87555  13.002   7.047   2.427 -0.0515 -0.4053  0.1433
  664MOL0     C87556  12.870   7.044   2.506  1.0136 -0.2684 -0.1578
  664MOL0     C87557  12.805   7.183   2.534 -0.2668  0.7044  0.2690
  664MOL0     C87558  12.875   7.260   2.651  0.7452  0.2565  0.1314
  664MOL0     C87559  12.811   7.399   2.676 -0.6385 -0.3294  0.0901
  664MOL0    Cl87560  12.897   7.471   2.819  0.3399  0.2106 -0.2536
  664MOL0     C87561  12.819   7.240   1.901  0.6401 -0.1949 -0.1212
  664MOL0     C87562  12.704   7.259   1.818 -1.0441  0.5617  0.0108
  664MOL0     O87563  12.408   7.316   1.859 -0.6506  0.1385  0.6446
  664MOL0     C87564  12.160   7.270   1.757  0.2810 -0.3331  0.7350
  664MOL0     C87565  12.032   7.225   1.710 -0.5063 -0.4461 -0.4885
  664MOL0     N87566  11.406   7.307   1.654 -0.0853  0.3271  0.2019
  664MOL0     N87567  11.300   7.380   1.677  0.4412  0.8531 -0.2435
  664MOL0     C87568  10.922   6.823   1.112 -0.8284 -0.0174 -0.1080
  664MOL0     C87569  10.993   6.806   0.984 -0.5032  0.2697 -0.3957
  664MOL0     C87570  11.289   6.904   0.648  0.4881  0.1179  0.8122
  664MOL0     C87571  11.393   6.986   0.610 -0.1185  0.3297  0.2212
  664MOL0     C87572  11.480   6.945   0.506  0.7900 -0.3821  1.0007
  664MOL0     C87573  11.476   6.821   0.447  0.0507  1.2013  1.2183
  664MOL0     O87574  11.585   6.785   0.359  0.0553  0.1014  0.2169
  664MOL0     C87575  11.575   6.649   0.306 -0.2959 -0.5229  0.0900
  664MOL0     C87576  11.476   6.638   0.194 -0.3264 -0.1173  0.6333
  664MOL0     C87577  11.433   6.767   0.121  0.9334  0.4696  0.0710
  664MOL0     C87578  11.279   6.775   0.094  0.3406  0.4364 -0.8189
  664MOL0     C87579  11.236   6.645   0.031 -0.2872  0.8781  0.1163
  664MOL0     C87580  11.193   6.546  -0.019 -0.4772 -0.2878 -0.4659
  664MOL0     C87581  11.356   6.743   0.473  0.1943 -0.5742 -0.0302
  664MOL0     C87582  11.262   6.788   0.561  0.7929 -0.5167 -1.0049
  664MOL0     H87583  10.960   7.125   0.875  3.2107 -1.5083 -3.4900
  664MOL0     H87584  10.878   7.154   1.088  1.6221  0.3702  0.0335
  664MOL0     H87585  10.692   7.107   1.350  0.2723  0.8473  0.1039
  664MOL0     H87586  10.858   7.158   1.336  3.6866 -1.1163  2.5232
  664MOL0     H87587  10.869   6.956   1.522 -0.8286 -1.2575  1.7516
  664MOL0     H87588  10.698   6.994   1.524  0.4437 -2.4251 -1.1593
  664MOL0     H87589  10.782   7.241   1.576  0.1511  0.4950 -0.2729
  664MOL0     H87590  10.933   7.186   1.547 -1.2157 -1.4055 -1.1797
  664MOL0     H87591  10.752   7.055   1.776 -1.5477 -0.7610 -1.2078
  664MOL0     H87592  10.923   7.021   1.746  1.6288  0.9824 -2.1696
  664MOL0     H87593  10.888   7.159   1.935  0.7166 -2.1532 -1.6531
  664MOL0     H87594  10.833   7.292   1.850  0.1729 -0.0898 -0.3138
  664MOL0     H87595  11.040   7.298   1.718 -0.6262 -3.4100 -1.5506
  664MOL0     H87596  11.123   7.194   1.833  1.0654  1.6570  1.7355
  664MOL0     H87597  10.975   7.437   1.940 -1.4076 -0.1178 -1.4078
  664MOL0     H87598  11.093   7.341   2.021 -0.9525  0.9592 -0.3921
  664MOL0     H87599  11.210   7.568   1.937  0.1600  0.9300 -1.4531
  664MOL0     H87600  11.116   7.532   1.788 -0.7709 -0.8067  0.4694
  664MOL0     H87601  11.435   7.371   1.976  0.6033 -1.1326  0.5146
  664MOL0     H87602  11.544   7.151   1.892 -1.3705  1.2878  0.9258
  664MOL0     H87603  11.665   7.283   1.866  1.6480 -0.4063 -1.4071
  664MOL0     H87604  11.690   7.192   1.623 -1.2731 -0.7063 -1.6567
  664MOL0     H87605  11.569   7.077   1.655  1.8781 -0.1937 -2.8331
  664MOL0     H87606  11.814   7.103   1.852 -0.3538  2.0390 -0.2273
  664MOL0     H87607  11.715   6.955   1.833  3.5978 -1.0800 -0.2482
  664MOL0     H87608  11.777   6.912   1.608  3.5661  0.1313 -4.8101
  664MOL0     H87609  11.918   6.919   1.703 -2.3867 -2.5681  0.1508
  664MOL0     H87610  12.134   6.987   1.503 -2.6798 -0.6085 -0.8191
  664MOL0     H87611  12.356   7.071   1.577 -0.1375  0.0316 -0.6117
  664MOL0     H87612  12.584   6.942   1.893  0.6819 -1.2231  0.9219
  664MOL0     H87613  12.771   6.926   2.012 -4.2219  1.3525  1.0146
  664MOL0     H87614  12.988   7.291   2.092  2.9168  1.2982  3.8400
  664MOL0     H87615  13.142   7.225   2.010  0.6931  0.0803  0.9460
  664MOL0     H87616  13.118   7.235   2.270  0.0243  0.5788 -0.2713
  664MOL0     H87617  13.167   7.081   2.199 -0.4213 -0.6432  2.5228
  664MOL0     H87618  12.955   6.988   2.220  1.2573  2.5692 -2.4758
  664MOL0     H87619  12.880   7.136   2.271  2.0645  1.9080  0.3123
  664MOL0     H87620  13.057   6.953   2.433  2.1498  0.6074 -2.3170
  664MOL0     H87621  13.055   7.129   2.475 -2.2799 -0.3261  2.6779
  664MOL0     H87622  12.877   7.000   2.605  1.8647 -3.3916 -1.4943
  664MOL0     H87623  12.793   6.987   2.452  0.4225  0.7186 -0.3856
  664MOL0     H87624  12.705   7.163   2.574 -0.5685  2.2186  0.3145
  664MOL0     H87625  12.817   7.241   2.442  2.4401  1.0880  0.7765
  664MOL0     H87626  12.859   7.202   2.743 -3.1520  3.3823  1.7409
  664MOL0     H87627  12.983   7.263   2.637  1.1124 -0.3029  2.4170
  664MOL0     H87628  12.707   7.375   2.697 -0.6770 -4.5624 -3.6247
  664MOL0     H87629  12.814   7.467   2.590  1.7140  0.4550  0.7052
  664MOL0     H87630  12.885   7.325   1.887 -0.4055  0.7436  0.4026
  664MOL0     H87631  12.704   7.343   1.749 -2.3964  0.5517 -0.0204
  664MOL0     H87632  12.174   7.355   1.823 -0.3318  2.8462 -2.9053
  664MOL0     H87633  11.950   7.274   1.761  0.0995 -1.3883  1.4961
  664MOL0     H87634  10.929   6.749   1.191  4.2305  2.8576  2.6248
  664MOL0     H87635  11.037   6.710   0.958  0.1200  0.9076 -1.7578
  664MOL0     H87636  11.413   7.081   0.659  2.2344  1.0124 -1.8528
  664MOL0     H87637  11.557   7.018   0.484 -1.5714  1.8954 -0.2202
  664MOL0     H87638  11.556   6.577   0.385  3.5696  0.0484  1.7387
  664MOL0     H87639  11.672   6.619   0.265  0.5055 -0.8829  2.1532
  664MOL0     H87640  11.512   6.562   0.124  0.7130 -3.3792  4.3464
  664MOL0     H87641  11.382   6.590   0.224 -0.7543 -0.4629 -1.1499
  664MOL0     H87642  11.503   6.772   0.037  1.4326  1.1292  0.5166
  664MOL0     H87643  11.448   6.858   0.180 -0.9656  0.5646  0.4869
  664MOL0     H87644  11.237   6.779   0.195  3.8731 -2.1976  0.9793
  664MOL0     H87645  11.243   6.855   0.028  1.8643  0.3222 -1.8367
  664MOL0     H87646  11.148   6.465  -0.072  0.2781 -0.9873 -0.0711
  664MOL0     H87647  11.337   6.643   0.436  1.0530  0.5466 -3.9148
  664MOL0     H87648  11.163   6.743   0.565  0.1881  0.7982  2.8393
  665MOL0     O87649   0.639   3.836   8.370  0.6196  0.8144 -0.2471
  665MOL0     C87650   0.705   3.836   8.474  0.7164 -0.3663  0.9234
  665MOL0     O87651   0.823   3.902   8.494  0.3816 -0.5281  0.3480
  665MOL0     C87652   0.865   3.989   8.401 -0.1922  0.0969  0.2416
  665MOL0     C87653   0.921   4.107   8.455 -0.4620  0.5971  0.1392
  665MOL0     C87654   0.979   4.204   8.367  0.1977  0.1970 -0.0553
  665MOL0     C87655   1.010   4.172   8.241 -0.1279 -0.6551  0.1870
  665MOL0     O87656   1.078   4.255   8.159 -0.8007  0.3740 -0.5337
  665MOL0     C87657   1.006   4.380   8.130 -0.4899  0.3306 -0.0778
  665MOL0     C87658   1.060   4.471   8.014 -0.5446 -0.3867 -1.2565
  665MOL0     C87659   1.084   4.397   7.877 -0.6225  0.2916 -0.2293
  665MOL0     C87660   1.161   4.476   7.773 -0.0958 -0.1479 -0.3186
  665MOL0     C87661   1.307   4.491   7.807 -0.6249  0.4461  0.1571
  665MOL0     C87662   1.385   4.578   7.697 -0.4026  0.4750 -0.5997
  665MOL0     C87663   1.523   4.630   7.753  0.4661 -0.7955  0.2533
  665MOL0     C87664   1.614   4.668   7.628 -0.2677 -0.2296 -0.4205
  665MOL0     N87665   1.753   4.668   7.670 -0.1411 -0.1326 -0.4578
  665MOL0     C87666   1.794   4.728   7.787  0.0802 -0.2879 -0.0893
  665MOL0     C87667   1.929   4.729   7.777  1.1145 -0.3154  1.0682
  665MOL0     C87668   2.013   4.773   7.896  0.6006  0.4546  0.4649
  665MOL0     C87669   2.117   4.875   7.856  0.3271 -0.0662  0.4292
  665MOL0     C87670   2.265   4.819   7.840  0.5380  0.4322  0.9442
  665MOL0     C87671   2.348   4.928   7.777 -0.1730 -0.0621 -0.0648
  665MOL0     O87672   2.355   5.044   7.856 -0.9735  0.1195  0.1430
  665MOL0     C87673   2.392   5.160   7.795  0.9568 -0.0831  0.1580
  665MOL0     C87674   2.413   5.182   7.659 -0.5645  0.0757 -1.3088
  665MOL0     C87675   2.438   5.307   7.598 -0.0421 -0.0012 -0.5481
  665MOL0     C87676   2.442   5.428   7.674 -0.1850 -0.4932 -0.3917
  665MOL0     C87677   2.472   5.566   7.626 -0.1942  0.8652 -0.7699
  665MOL0     O87678   2.464   5.597   7.495  0.1708  0.1078  0.3340
  665MOL0     C87679   2.475   5.725   7.451 -0.8195  0.3334  0.0515
  665MOL0     C87680   2.446   5.844   7.514  0.1091  0.3650 -0.0980
  665MOL0     C87681   2.475   5.969   7.454 -0.3550  0.0043  0.4319
  665MOL0     C87682   2.514   5.975   7.319  0.2828  0.6193 -0.5596
  665MOL0     O87683   2.542   6.089   7.254 -0.3124 -0.0105 -0.1311
  665MOL0     C87684   2.454   6.203   7.269  0.5348  0.0239 -0.0509
  665MOL0     C87685   2.305   6.163   7.231 -0.9727  0.7789 -0.3153
  665MOL0     C87686   2.204   6.278   7.228 -0.0183  0.4805  0.5326
  665MOL0     C87687   2.153   6.308   7.374 -0.6761  0.0578 -1.0360
  665MOL0     C87688   2.078   6.437   7.383 -0.3070  0.3566 -0.2672
  665MOL0     C87689   2.177   6.561   7.375  0.0677  0.7643  0.6493
  665MOL0     C87690   2.092   6.697   7.395 -0.0461 -0.2615 -0.2177
  665MOL0     C87691   2.162   6.829   7.334  0.2192 -0.3515 -0.2305
  665MOL0    Cl87692   2.067   6.971   7.389 -0.1198 -0.2006 -0.0787
  665MOL0     C87693   2.533   5.856   7.253  0.0940 -0.0651 -0.5573
  665MOL0     C87694   2.511   5.739   7.318 -0.6210  0.1284  0.8947
  665MOL0     O87695   2.507   5.636   7.720  0.3328 -1.1613 -0.7406
  665MOL0     C87696   2.419   5.403   7.810 -0.2704 -0.4792  0.0503
  665MOL0     C87697   2.385   5.278   7.869 -0.8525 -0.2035  0.7709
  665MOL0     N87698   1.971   4.675   7.650  0.3805 -1.1065 -0.3244
  665MOL0     N87699   1.862   4.649   7.587 -0.2283  0.1732  0.4867
  665MOL0     C87700   0.970   4.046   8.185  0.8287  0.1909 -0.6916
  665MOL0     C87701   0.884   3.964   8.268 -0.0381  0.1020  0.3413
  665MOL0     C87702   0.642   3.780   8.590  0.2034  0.8274  0.4913
  665MOL0     C87703   0.713   3.776   8.708 -0.9071 -0.2933 -0.0452
  665MOL0     C87704   0.661   3.731   8.827  0.2186 -0.3843 -0.5496
  665MOL0     C87705   0.528   3.691   8.826 -0.2244  0.6446  0.2472
  665MOL0     O87706   0.473   3.647   8.950 -0.3003  0.2078  0.6859
  665MOL0     C87707   0.340   3.590   8.940  0.5824 -0.4822  0.2564
  665MOL0     C87708   0.285   3.581   9.085  0.3846 -0.1067  0.6976
  665MOL0     C87709   0.357   3.469   9.155  0.1941  0.0860  0.3146
  665MOL0     C87710   0.280   3.418   9.278 -0.1186 -0.6259  0.3927
  665MOL0     C87711   0.186   3.319   9.235  0.4449 -0.8665  0.2247
  665MOL0     C87712   0.120   3.234   9.174  0.2957 -1.1165  0.6014
  665MOL0     C87713   0.459   3.693   8.702 -1.0792  0.6115 -0.8479
  665MOL0     C87714   0.515   3.736   8.585  0.2748  0.9520 -0.2031
  665MOL0     H87715   0.915   4.149   8.555  0.6113  1.2183 -0.0377
  665MOL0     H87716   0.998   4.300   8.414 -1.5301  0.5184  0.0597
  665MOL0     H87717   1.005   4.441   8.221 -1.8976  1.0897 -0.5782
  665MOL0     H87718   0.906   4.347   8.103 -0.7273  1.0224 -0.0577
  665MOL0     H87719   1.153   4.515   8.053 -1.8076  2.2819 -0.9938
  665MOL0     H87720   0.993   4.555   7.996  1.9437  2.0125 -0.1381
  665MOL0     H87721   0.984   4.377   7.837 -0.6229 -3.4190  1.1670
  665MOL0     H87722   1.137   4.301   7.883 -2.0744 -0.4637  2.1703
  665MOL0     H87723   1.140   4.446   7.670 -0.5741  0.7495 -0.4998
  665MOL0     H87724   1.126   4.580   7.777 -1.3769 -0.2690 -4.0779
  665MOL0     H87725   1.356   4.394   7.824 -0.7156  0.3923  0.1069
  665MOL0     H87726   1.320   4.552   7.897 -0.7219  1.8740 -0.7754
  665MOL0     H87727   1.324   4.666   7.675  0.9590  1.5401 -0.2721
  665MOL0     H87728   1.401   4.531   7.599 -1.8737  2.4724 -1.8682
  665MOL0     H87729   1.513   4.726   7.805 -1.2621 -0.2264 -1.0499
  665MOL0     H87730   1.565   4.549   7.813 -0.9453 -1.5383  0.2805
  665MOL0     H87731   1.601   4.772   7.596 -0.8261 -0.5716 -1.3484
  665MOL0     H87732   1.606   4.600   7.542  2.2880 -1.1416 -0.0210
  665MOL0     H87733   1.732   4.778   7.861  0.7589  2.1142 -1.0606
  665MOL0     H87734   2.063   4.685   7.937  2.4183  0.0859 -2.3170
  665MOL0     H87735   1.934   4.814   7.960 -0.2123  2.1181 -1.5136
  665MOL0     H87736   2.117   4.954   7.932 -2.9601 -0.4112  0.9591
  665MOL0     H87737   2.068   4.919   7.768 -1.1063  1.9015  2.1150
  665MOL0     H87738   2.305   4.798   7.940  2.5325  0.4146  0.1900
  665MOL0     H87739   2.273   4.723   7.790  0.3687  0.9802 -0.1672
  665MOL0     H87740   2.292   4.947   7.685 -0.4740 -2.2530 -0.3805
  665MOL0     H87741   2.457   4.924   7.764 -0.1359  1.7105 -0.5704
  665MOL0     H87742   2.421   5.090   7.603  2.9923  0.3783 -1.5162
  665MOL0     H87743   2.454   5.320   7.491 -1.6482  2.5233 -0.5772
  665MOL0     H87744   2.411   5.839   7.617  4.6526 -1.4006  1.6021
  665MOL0     H87745   2.445   6.060   7.505 -4.6515 -1.6261  1.2432
  665MOL0     H87746   2.483   6.292   7.212  0.9929 -0.5669 -0.7502
  665MOL0     H87747   2.437   6.234   7.373  0.0561  0.4358 -0.2440
  665MOL0     H87748   2.281   6.078   7.296 -1.9337 -1.7348 -3.6986
  665MOL0     H87749   2.331   6.119   7.134  1.6586  0.8812  0.2601
  665MOL0     H87750   2.125   6.235   7.165  0.2967 -1.0029  1.1058
  665MOL0     H87751   2.238   6.366   7.173 -0.7701  1.7829  2.0575
  665MOL0     H87752   2.096   6.219   7.402  0.1368 -0.5392 -1.2359
  665MOL0     H87753   2.236   6.303   7.445 -1.1399 -3.3083 -0.5531
  665MOL0     H87754   2.024   6.434   7.478 -1.1494  1.2349 -0.7055
  665MOL0     H87755   2.004   6.436   7.304 -2.1569 -1.2440  1.3772
  665MOL0     H87756   2.227   6.565   7.277  0.9295  2.8814  1.1157
  665MOL0     H87757   2.262   6.549   7.443 -1.4801 -0.6050  2.4174
  665MOL0     H87758   1.992   6.681   7.355 -0.2879  0.7662 -0.0652
  665MOL0     H87759   2.074   6.710   7.502 -1.6151  1.9616 -0.6818
  665MOL0     H87760   2.156   6.841   7.226  0.6004 -0.4699 -0.2686
  665MOL0     H87761   2.266   6.815   7.367 -0.5328 -1.8731  1.7758
  665MOL0     H87762   2.560   5.858   7.148 -2.1446 -1.6350 -1.2343
  665MOL0     H87763   2.515   5.661   7.242 -1.9938  1.5966 -0.7604
  665MOL0     H87764   2.426   5.490   7.875  1.1567 -0.0884 -0.5789
  665MOL0     H87765   2.369   5.278   7.977 -1.8611  1.2205  0.6489
  665MOL0     H87766   1.006   4.023   8.086 -3.4264  2.3339 -2.9971
  665MOL0     H87767   0.857   3.870   8.220 -1.0809 -0.9187  2.7470
  665MOL0     H87768   0.816   3.811   8.713 -0.1945 -2.2493 -0.0491
  665MOL0     H87769   0.718   3.724   8.919 -1.2431  1.5641  0.5804
  665MOL0     H87770   0.340   3.489   8.897 -3.9606 -1.1635  1.3764
  665MOL0     H87771   0.280   3.671   8.897  0.0510 -0.9985  0.0114
  665MOL0     H87772   0.301   3.681   9.125 -0.2237 -0.1250  0.9852
  665MOL0     H87773   0.178   3.559   9.092 -0.2262  2.6909  1.4378
  665MOL0     H87774   0.453   3.512   9.184 -0.6771  3.1508 -0.8997
  665MOL0     H87775   0.389   3.391   9.085  1.6889 -0.2139  1.2888
  665MOL0     H87776   0.347   3.397   9.362  1.0089  2.4579  0.4005
  665MOL0     H87777   0.218   3.501   9.313  1.9965  1.1576  0.1811
  665MOL0     H87778   0.068   3.160   9.116 -3.6806  0.4873  1.7679
  665MOL0     H87779   0.353   3.668   8.701 -0.2111 -4.0228 -0.1077
  665MOL0     H87780   0.457   3.733   8.494  3.4312 -1.4803 -2.3206
  666MOL0     O87781   4.081  11.037   6.779 -0.3272 -0.8366 -0.8588
  666MOL0     C87782   4.039  11.002   6.895 -0.4861 -0.4688 -0.4816
  666MOL0     O87783   4.057  11.085   7.007  0.2155  1.2437 -0.3578
  666MOL0     C87784   4.118  11.208   7.001 -0.4977 -0.0034 -0.3786
  666MOL0     C87785   4.053  11.320   7.062  0.2333  0.3478  0.3437
  666MOL0     C87786   4.104  11.447   7.049 -0.9236  0.0408  0.7697
  666MOL0     C87787   4.224  11.470   6.987 -0.6871  0.2689  0.6143
  666MOL0     O87788   4.268  11.602   6.968 -0.0474 -0.0679 -0.9112
  666MOL0     C87789   4.384  11.641   6.890 -1.0228  0.1057 -0.0223
  666MOL0     C87790   4.410  11.795   6.903 -0.2389  0.3185  0.5018
  666MOL0     C87791   4.531  11.830   6.824 -0.1721  0.0232 -0.1152
  666MOL0     C87792   4.533  11.970   6.755  0.1379 -0.9757 -0.3025
  666MOL0     C87793   4.671  12.000   6.691  1.2284 -0.1679 -0.3032
  666MOL0     C87794   4.734  11.904   6.592 -0.2310  0.5501 -0.1504
  666MOL0     C87795   4.815  11.985   6.487  0.3583  0.4632  0.2668
  666MOL0     C87796   4.952  12.035   6.545  0.7218 -0.2027  0.3647
  666MOL0     N87797   5.014  12.135   6.452 -0.0326  0.4996  1.0883
  666MOL0     C87798   5.045  12.116   6.318  0.1389  0.1452  0.2172
  666MOL0     C87799   5.124  12.223   6.288 -0.0168 -0.8356  0.7117
  666MOL0     C87800   5.174  12.254   6.147 -0.6262 -0.0052 -0.7177
  666MOL0     C87801   5.070  12.279   6.042  0.6070  0.6862  1.2304
  666MOL0     C87802   5.131  12.293   5.906  0.0212 -0.1718 -0.1427
  666MOL0     C87803   5.033  12.299   5.791 -0.0032  0.4489 -0.0309
  666MOL0     O87804   5.107  12.311   5.666 -0.3803  0.3977  0.3413
  666MOL0     C87805   5.027  12.305   5.558  0.8991 -0.6648  0.0549
  666MOL0     C87806   5.093  12.325   5.434  0.9338  0.3999  1.0334
  666MOL0     C87807   5.014  12.306   5.321  0.5869 -0.4450  0.4050
  666MOL0     C87808   4.879  12.269   5.321 -0.3128  0.2291 -0.0976
  666MOL0     C87809   4.807  12.240   5.191 -0.2944 -0.2471 -0.9515
  666MOL0     O87810   4.874  12.270   5.072  0.4509  0.3327 -0.1057
  666MOL0     C87811   4.808  12.254   4.952 -0.8055 -0.7491 -0.1855
  666MOL0     C87812   4.832  12.137   4.876  0.8699 -0.0468  0.7398
  666MOL0     C87813   4.757  12.119   4.761 -0.5024  0.1019  0.6612
  666MOL0     C87814   4.674  12.225   4.717  0.2550  0.0045 -0.1725
  666MOL0     O87815   4.615  12.216   4.597  0.2697  0.1431  0.2990
  666MOL0     C87816   4.687  12.136   4.493 -0.2822 -1.0405 -0.0330
  666MOL0     C87817   4.682  12.205   4.352 -0.2955 -0.0544  0.0240
  666MOL0     C87818   4.724  12.351   4.360  0.3908 -0.4906 -0.3122
  666MOL0     C87819   4.693  12.420   4.227 -0.1884 -0.1368 -0.0220
  666MOL0     C87820   4.764  12.552   4.212  0.7916 -0.5195 -0.5599
  666MOL0     C87821   4.692  12.656   4.301 -0.5711  0.0848 -0.8049
  666MOL0     C87822   4.747  12.801   4.262 -0.6229  0.5947  0.6899
  666MOL0     C87823   4.881  12.849   4.318 -0.4628 -0.3093  0.1881
  666MOL0    Cl87824   4.901  13.004   4.233  0.1206 -0.0502  0.1502
  666MOL0     C87825   4.639  12.343   4.797 -0.2295  0.6341  1.3819
  666MOL0     C87826   4.710  12.350   4.922  0.7348 -0.4276 -0.2288
  666MOL0     O87827   4.701  12.175   5.200 -1.3372 -0.8508  0.2677
  666MOL0     C87828   4.812  12.263   5.446  0.7014  0.3224  0.1186
  666MOL0     C87829   4.884  12.289   5.564 -0.0732  0.3782 -0.3682
  666MOL0     N87830   5.140  12.298   6.403 -0.7802  0.6385  0.1468
  666MOL0     N87831   5.065  12.256   6.498  0.1271  0.0254 -1.5871
  666MOL0     C87832   4.295  11.357   6.937  0.3568 -0.1878  0.1422
  666MOL0     C87833   4.238  11.230   6.941  0.8835  0.0312  0.0833
  666MOL0     C87834   3.966  10.876   6.909 -0.0514  0.3389 -0.9264
  666MOL0     C87835   3.893  10.825   6.804  0.0419  0.5843  0.4354
  666MOL0     C87836   3.828  10.712   6.808  0.3091  0.8309 -0.4530
  666MOL0     C87837   3.829  10.635   6.930 -0.1978 -0.6490  0.2969
  666MOL0     O87838   3.777  10.511   6.948  0.2814  0.4448  0.2694
  666MOL0     C87839   3.847  10.391   6.888 -0.2319 -0.2719 -0.1550
  666MOL0     C87840   3.807  10.389   6.748  0.7590 -0.5825  0.2497
  666MOL0     C87841   3.844  10.250   6.674  0.3025 -1.0841 -1.0439
  666MOL0     C87842   3.990  10.201   6.690 -0.0157  0.7002 -0.0307
  666MOL0     C87843   3.975  10.055   6.670 -0.2316  0.0357  0.4386
  666MOL0     C87844   3.978   9.936   6.657 -0.6096 -0.3046 -0.4280
  666MOL0     C87845   3.903  10.681   7.042 -0.3672  0.5271 -0.3171
  666MOL0     C87846   3.971  10.799   7.031 -0.2617  0.4044 -0.4489
  666MOL0     H87847   3.955  11.314   7.108 -0.5308 -0.0568 -1.2663
  666MOL0     H87848   4.045  11.523   7.098  0.0795  1.5489 -0.2654
  666MOL0     H87849   4.363  11.632   6.782  0.2836  2.5962 -0.5498
  666MOL0     H87850   4.478  11.590   6.914 -0.4713  1.2323  0.2564
  666MOL0     H87851   4.424  11.817   7.009  3.5201  0.8872  0.0327
  666MOL0     H87852   4.319  11.837   6.860  0.2077 -0.6106 -1.5068
  666MOL0     H87853   4.536  11.747   6.753 -3.0732 -1.8782  1.6682
  666MOL0     H87854   4.612  11.821   6.897  0.5444  0.7026 -0.8047
  666MOL0     H87855   4.469  11.959   6.667  3.0780 -1.8899 -2.5339
  666MOL0     H87856   4.498  12.053   6.816 -0.0481 -0.5159 -1.0150
  666MOL0     H87857   4.730  12.017   6.781  0.8746  0.0283 -0.1040
  666MOL0     H87858   4.662  12.098   6.644 -5.4685 -1.6774 -3.3245
  666MOL0     H87859   4.660  11.852   6.530  2.4417  0.8569 -3.9650
  666MOL0     H87860   4.795  11.840   6.656 -2.4420  1.0285  2.6703
  666MOL0     H87861   4.845  11.920   6.404  3.3089  0.0927  1.4673
  666MOL0     H87862   4.755  12.066   6.446  1.4996  0.7344 -0.9433
  666MOL0     H87863   5.014  11.946   6.556 -1.8945 -2.1101  0.4600
  666MOL0     H87864   4.944  12.090   6.639 -0.7166 -2.7421  1.8228
  666MOL0     H87865   5.026  12.027   6.260  2.7088 -0.7689  0.6511
  666MOL0     H87866   5.231  12.166   6.116  1.8912  0.2286  2.7183
  666MOL0     H87867   5.236  12.344   6.155  1.7068 -1.6999  3.7454
  666MOL0     H87868   5.019  12.368   6.079  1.6219  2.5740 -1.5894
  666MOL0     H87869   4.998  12.197   6.031  1.6476 -0.0031 -1.5677
  666MOL0     H87870   5.202  12.375   5.921  1.2033 -1.4432  1.6888
  666MOL0     H87871   5.187  12.202   5.880  0.8031 -0.4043  2.1600
  666MOL0     H87872   4.977  12.393   5.791 -2.2525 -0.7806 -1.4142
  666MOL0     H87873   4.965  12.213   5.786  2.8297 -1.9918  0.4228
  666MOL0     H87874   5.201  12.340   5.437  1.2228 -1.5636  2.2716
  666MOL0     H87875   5.061  12.318   5.224 -0.2691 -1.2709 -0.1329
  666MOL0     H87876   4.902  12.065   4.918  1.8237  0.6815  0.4482
  666MOL0     H87877   4.769  12.031   4.698  0.9200 -0.7927  2.0977
  666MOL0     H87878   4.639  12.039   4.484 -2.0855 -0.4135  1.9419
  666MOL0     H87879   4.794  12.124   4.512 -0.5486 -1.6462  1.2180
  666MOL0     H87880   4.584  12.191   4.304  0.2183  1.6670 -1.6762
  666MOL0     H87881   4.767  12.164   4.297  0.2570  0.7783  0.2376
  666MOL0     H87882   4.832  12.357   4.377  0.1345 -0.4253  1.4982
  666MOL0     H87883   4.678  12.404   4.444  0.4981  4.8904 -3.1646
  666MOL0     H87884   4.728  12.355   4.146  1.4387  0.3697  0.2366
  666MOL0     H87885   4.586  12.438   4.208 -0.8372 -2.0546  1.4870
  666MOL0     H87886   4.752  12.580   4.107  1.8781 -0.1390 -0.6019
  666MOL0     H87887   4.872  12.538   4.227  0.7171 -0.9760 -0.4366
  666MOL0     H87888   4.697  12.650   4.410  2.9306  1.2918 -0.7766
  666MOL0     H87889   4.585  12.653   4.276 -1.1077 -0.7481  1.3691
  666MOL0     H87890   4.750  12.801   4.153  0.2195 -4.5591  0.4627
  666MOL0     H87891   4.680  12.875   4.308 -5.3656 -2.0286 -1.2328
  666MOL0     H87892   4.965  12.782   4.301  0.3793  0.0564  2.5218
  666MOL0     H87893   4.876  12.871   4.426 -0.1244 -1.8231  0.5296
  666MOL0     H87894   4.575  12.426   4.768 -0.7823 -0.9471 -2.5924
  666MOL0     H87895   4.701  12.436   4.987 -0.1719 -0.4262 -0.3393
  666MOL0     H87896   4.707  12.237   5.444  0.8922 -0.5648 -2.5686
  666MOL0     H87897   4.834  12.307   5.658  0.7813  1.3779 -0.0805
  666MOL0     H87898   4.392  11.365   6.889  0.0336 -3.0801 -1.1914
  666MOL0     H87899   4.288  11.148   6.890  1.9769  0.5850  0.2352
  666MOL0     H87900   3.887  10.876   6.708  2.9484  0.7758  0.2770
  666MOL0     H87901   3.764  10.671   6.730 -0.0833 -3.6337  1.9015
  666MOL0     H87902   3.815  10.299   6.937 -0.3073 -0.0728  0.1777
  666MOL0     H87903   3.956  10.400   6.897 -0.4861  1.2153  5.8578
  666MOL0     H87904   3.700  10.412   6.742  0.8177 -0.0297  1.1244
  666MOL0     H87905   3.866  10.466   6.696  1.5613 -0.4859  1.2493
  666MOL0     H87906   3.830  10.257   6.566 -0.3110  0.4557 -0.8965
  666MOL0     H87907   3.756  10.192   6.701 -1.0680  0.8832 -1.0651
  666MOL0     H87908   4.049  10.254   6.615  2.9365 -0.3710  1.3995
  666MOL0     H87909   4.035  10.210   6.789  0.1339 -2.2759  0.2624
  666MOL0     H87910   3.967   9.831   6.640  1.6380 -1.0905  2.2984
  666MOL0     H87911   3.901  10.615   7.128 -1.3586  2.8458  1.5556
  666MOL0     H87912   4.046  10.833   7.100  0.0299  0.0940 -0.6112
  667MOL0     O87913   4.221   6.617   3.735 -0.3834 -0.4260  0.0700
  667MOL0     C87914   4.240   6.547   3.837  0.9557 -0.3055  0.2078
  667MOL0     O87915   4.137   6.514   3.931  0.4813 -0.7781  0.1028
  667MOL0     C87916   4.020   6.584   3.914  1.0165  0.2159 -0.3417
  667MOL0     C87917   3.978   6.637   4.038 -0.2525  0.6493 -0.0687
  667MOL0     C87918   3.856   6.711   4.040  0.6955  0.7171 -0.3944
  667MOL0     C87919   3.772   6.705   3.927 -0.3914 -0.1464  1.1291
  667MOL0     O87920   3.658   6.781   3.927 -0.1628  0.4752  0.3567
  667MOL0     C87921   3.537   6.711   3.904 -1.1723  1.1701  0.0126
  667MOL0     C87922   3.411   6.806   3.914  0.5562  0.1632 -1.0073
  667MOL0     C87923   3.371   6.846   4.057 -0.2914 -0.2323 -0.0847
  667MOL0     C87924   3.237   6.927   4.079 -0.0484 -0.6058  1.4245
  667MOL0     C87925   3.214   6.923   4.223  0.2715  0.8793 -0.5915
  667MOL0     C87926   3.083   7.003   4.249 -0.6841 -0.5544 -0.1142
  667MOL0     C87927   3.062   6.979   4.401 -0.3880  0.0824 -0.4732
  667MOL0     C87928   3.145   7.069   4.485  0.2341 -0.8360 -1.0358
  667MOL0     N87929   3.107   7.212   4.483  0.1865 -0.2739  0.5384
  667MOL0     C87930   3.159   7.306   4.397 -0.9232  0.1725 -0.2680
  667MOL0     C87931   3.086   7.420   4.426  0.7949  0.0037 -0.6646
  667MOL0     C87932   3.108   7.560   4.376 -0.6152  1.0862 -0.6297
  667MOL0     C87933   3.126   7.562   4.225 -0.0385 -0.1816  0.3774
  667MOL0     C87934   3.140   7.697   4.173 -0.8324 -0.1418  0.3841
  667MOL0     C87935   3.282   7.741   4.204  0.2007  0.0426 -0.2827
  667MOL0     O87936   3.372   7.658   4.121 -0.7353 -0.4184 -0.1411
  667MOL0     C87937   3.433   7.717   4.010 -0.6119 -0.4931 -0.4380
  667MOL0     C87938   3.564   7.669   3.987  0.5781 -1.2351  0.1600
  667MOL0     C87939   3.644   7.686   3.877  0.1010 -0.0579  0.6076
  667MOL0     C87940   3.582   7.757   3.771 -0.2809 -0.2678  0.1613
  667MOL0     C87941   3.645   7.750   3.641 -0.0648  0.1258 -0.0991
  667MOL0     O87942   3.761   7.687   3.649  1.3569  0.0299  0.2420
  667MOL0     C87943   3.856   7.718   3.560  0.6076 -0.2611 -1.1903
  667MOL0     C87944   3.917   7.624   3.483  0.8581  0.3040 -0.2772
  667MOL0     C87945   4.019   7.656   3.389 -0.1777  0.2164  0.3387
  667MOL0     C87946   4.075   7.781   3.391 -0.6011  0.1058  0.4533
  667MOL0     O87947   4.175   7.803   3.312  0.0874  0.2815 -0.2107
  667MOL0     C87948   4.302   7.846   3.366  0.0944  0.3449  0.3048
  667MOL0     C87949   4.421   7.766   3.297  0.7184 -0.6444 -0.2432
  667MOL0     C87950   4.425   7.774   3.146 -1.1785  0.1146 -0.2095
  667MOL0     C87951   4.343   7.654   3.093 -0.3895 -0.4811 -0.7166
  667MOL0     C87952   4.331   7.645   2.947 -0.4550  0.2673 -0.1628
  667MOL0     C87953   4.227   7.530   2.914  0.4933  0.3598  0.6947
  667MOL0     C87954   4.295   7.428   2.806  0.6250 -0.1252  0.6262
  667MOL0     C87955   4.360   7.294   2.870  0.4028  0.4200 -0.8131
  667MOL0    Cl87956   4.467   7.338   3.005 -0.0404  0.0610  0.2090
  667MOL0     C87957   4.005   7.874   3.466 -0.3613 -0.5610  0.2999
  667MOL0     C87958   3.899   7.848   3.551  0.3799 -0.1302 -1.3555
  667MOL0     O87959   3.606   7.822   3.553 -0.0789  0.1334  0.8155
  667MOL0     C87960   3.445   7.815   3.788 -0.6573 -0.3253  0.0367
  667MOL0     C87961   3.380   7.799   3.903  0.6217 -0.3335  0.2175
  667MOL0     N87962   2.983   7.382   4.513 -0.0570  0.1507  0.3503
  667MOL0     N87963   2.993   7.262   4.540 -0.5855  0.3571 -0.1462
  667MOL0     C87964   3.815   6.647   3.807  0.5098 -0.7009 -0.3040
  667MOL0     C87965   3.939   6.581   3.799 -0.6132  0.5132 -0.1235
  667MOL0     C87966   4.373   6.534   3.885 -0.1479 -0.0987 -0.3395
  667MOL0     C87967   4.483   6.608   3.836  0.0525  0.1869 -0.0693
  667MOL0     C87968   4.603   6.611   3.899  0.2636 -0.7960  0.2381
  667MOL0     C87969   4.621   6.539   4.021  0.8800 -0.1321  0.6558
  667MOL0     O87970   4.740   6.537   4.099  0.2130 -0.0037 -0.1829
  667MOL0     C87971   4.854   6.614   4.054  1.2242 -0.3378 -0.0675
  667MOL0     C87972   4.973   6.565   4.133  0.2993 -0.1063  0.0988
  667MOL0     C87973   5.026   6.425   4.095 -0.3889  0.3442 -0.0198
  667MOL0     C87974   5.143   6.374   4.175  0.3477  0.1777 -0.3749
  667MOL0     C87975   5.264   6.463   4.180  0.1156  0.3761  1.2276
  667MOL0     C87976   5.379   6.500   4.171 -0.1838 -0.1917  0.1580
  667MOL0     C87977   4.515   6.461   4.071  1.1684  0.2812  0.5889
  667MOL0     C87978   4.388   6.452   4.003 -0.4158  0.3616  0.6960
  667MOL0     H87979   4.049   6.624   4.119  0.9033 -0.6150 -1.2460
  667MOL0     H87980   3.823   6.764   4.129 -0.0846 -1.3192  0.5970
  667MOL0     H87981   3.530   6.634   3.982 -2.4346 -0.0020 -1.1880
  667MOL0     H87982   3.548   6.650   3.814  0.9219 -0.3779  1.2366
  667MOL0     H87983   3.322   6.761   3.870  0.2642 -1.1151  0.7647
  667MOL0     H87984   3.421   6.896   3.853 -1.8502  1.9333  0.9490
  667MOL0     H87985   3.456   6.889   4.110 -1.7448 -0.3162  2.5233
  667MOL0     H87986   3.345   6.752   4.106 -0.9289  1.2378  2.6095
  667MOL0     H87987   3.241   7.027   4.034  0.3104 -1.7482 -1.3060
  667MOL0     H87988   3.156   6.877   4.025  1.3752 -1.4739 -0.0042
  667MOL0     H87989   3.297   6.963   4.283  1.3049 -1.5210 -0.2822
  667MOL0     H87990   3.203   6.821   4.261 -1.3999  0.8538 -1.0708
  667MOL0     H87991   3.008   6.958   4.183 -0.8765 -0.8840  0.3264
  667MOL0     H87992   3.105   7.110   4.240 -0.2464 -0.2754  3.0213
  667MOL0     H87993   2.964   7.007   4.441  0.9344  1.6122  1.9756
  667MOL0     H87994   3.082   6.874   4.424 -3.7253 -0.6939 -0.5831
  667MOL0     H87995   3.250   7.064   4.454  0.8941 -0.3185  0.9416
  667MOL0     H87996   3.146   7.042   4.591 -0.4769  1.3887 -0.4085
  667MOL0     H87997   3.243   7.316   4.328 -1.5003  4.3777 -0.6410
  667MOL0     H87998   3.198   7.589   4.431  0.8343 -3.2352 -0.2775
  667MOL0     H87999   3.032   7.634   4.403  0.9304  2.1148  1.0813
  667MOL0     H88000   3.034   7.521   4.182 -2.8815  5.9483 -0.4824
  667MOL0     H88001   3.219   7.508   4.206  0.6874  0.7368  1.2948
  667MOL0     H88002   3.132   7.689   4.064  0.5793 -0.8110  0.3016
  667MOL0     H88003   3.060   7.761   4.210 -2.4006 -1.5495 -0.4197
  667MOL0     H88004   3.302   7.743   4.311 -3.8736  4.1541  0.6924
  667MOL0     H88005   3.296   7.847   4.181  1.6561 -0.4176 -1.7259
  667MOL0     H88006   3.596   7.602   4.066 -0.8796 -1.2223  0.7941
  667MOL0     H88007   3.747   7.652   3.877  0.2497  0.3916  0.3391
  667MOL0     H88008   3.875   7.524   3.480 -4.0400  2.0583  0.2190
  667MOL0     H88009   4.057   7.577   3.325 -0.7877  0.6473 -0.5760
  667MOL0     H88010   4.311   7.839   3.475  1.9757 -1.4050  0.0894
  667MOL0     H88011   4.314   7.953   3.350  1.0545  1.2819  5.5774
  667MOL0     H88012   4.435   7.666   3.338  1.6012 -0.6633 -0.5793
  667MOL0     H88013   4.512   7.816   3.333 -1.1672  2.4249  0.6192
  667MOL0     H88014   4.528   7.769   3.108 -1.8134 -1.4790 -1.8050
  667MOL0     H88015   4.381   7.867   3.109 -1.8584 -0.5111 -1.0145
  667MOL0     H88016   4.383   7.561   3.133 -1.6249 -1.7688 -2.3269
  667MOL0     H88017   4.239   7.651   3.126 -0.6044  1.7263 -1.0577
  667MOL0     H88018   4.427   7.635   2.895 -0.8184  0.1963 -0.8236
  667MOL0     H88019   4.285   7.741   2.922 -1.5188  0.0369  0.8400
  667MOL0     H88020   4.136   7.572   2.870 -0.6315 -0.2299  2.3304
  667MOL0     H88021   4.198   7.475   3.004 -2.8121  1.6491  0.5413
  667MOL0     H88022   4.218   7.380   2.745  0.2076 -1.1232  1.8834
  667MOL0     H88023   4.360   7.490   2.745  0.4783  1.9430  2.4483
  667MOL0     H88024   4.423   7.243   2.797  0.3465 -2.4624  1.0216
  667MOL0     H88025   4.284   7.222   2.902  1.2806 -0.0112  0.3589
  667MOL0     H88026   4.041   7.976   3.460  1.1564 -1.1468 -1.7705
  667MOL0     H88027   3.850   7.932   3.598  2.3107 -0.5516  1.7056
  667MOL0     H88028   3.400   7.874   3.709 -0.1968 -2.3066 -1.8101
  667MOL0     H88029   3.280   7.841   3.913  0.0733 -2.0310  2.5786
  667MOL0     H88030   3.759   6.671   3.718 -3.9318  2.2476  2.8447
  667MOL0     H88031   3.959   6.534   3.703 -3.2860  1.4932 -1.2508
  667MOL0     H88032   4.470   6.682   3.757  2.0665 -0.3221 -0.9427
  667MOL0     H88033   4.676   6.677   3.853  0.1296  0.0290  1.1977
  667MOL0     H88034   4.839   6.722   4.060  0.3442 -0.5276  2.1484
  667MOL0     H88035   4.873   6.594   3.948  1.5972 -1.2055  0.1484
  667MOL0     H88036   5.058   6.633   4.133  2.2766 -2.4519  0.5375
  667MOL0     H88037   4.929   6.562   4.233 -3.2945  2.2802 -1.2073
  667MOL0     H88038   5.057   6.424   3.990 -1.1468  0.2475 -0.2538
  667MOL0     H88039   4.944   6.353   4.109  0.8921 -1.0890  0.3533
  667MOL0     H88040   5.102   6.333   4.268 -2.9580  1.7534 -1.0035
  667MOL0     H88041   5.175   6.277   4.135  0.4778  0.3927 -0.7958
  667MOL0     H88042   5.475   6.546   4.178 -0.4063  1.4513 -4.0751
  667MOL0     H88043   4.531   6.399   4.158 -2.0270 -1.8272 -0.1453
  667MOL0     H88044   4.304   6.387   4.028  0.2632 -1.4826 -1.5074
  668MOL0     O88045   0.315   9.989   0.437  0.1917  0.1776 -0.0980
  668MOL0     C88046   0.408   9.988   0.517 -0.8937 -0.1353  1.0759
  668MOL0     O88047   0.406  10.047   0.639 -0.2334  0.0524 -0.1172
  668MOL0     C88048   0.289  10.078   0.716  0.5050  0.7473  0.3703
  668MOL0     C88049   0.152  10.036   0.691  0.3910 -0.1666 -0.1543
  668MOL0     C88050   0.052  10.058   0.788  1.1722 -0.5323 -0.6765
  668MOL0     C88051   0.078  10.131   0.907  0.4848  0.1957 -0.1656
  668MOL0     O88052  -0.029  10.139   0.992 -0.9830  0.5637 -0.6036
  668MOL0     C88053  -0.026  10.228   1.107  1.6276  0.3098 -0.1498
  668MOL0     C88054  -0.140  10.326   1.094 -0.1444 -0.1777  0.0954
  668MOL0     C88055  -0.270  10.276   1.147  0.1106  0.6723  0.5660
  668MOL0     C88056  -0.277  10.304   1.297 -0.4547 -0.5232 -0.1178
  668MOL0     C88057  -0.376  10.219   1.369 -0.1943 -0.3679  0.0187
  668MOL0     C88058  -0.307  10.102   1.443  0.1808  0.5388  0.3152
  668MOL0     C88059  -0.397   9.986   1.504  0.0360 -0.6367  1.2417
  668MOL0     C88060  -0.465  10.043   1.634  0.7470  0.2330  0.1967
  668MOL0     N88061  -0.572   9.948   1.678  0.5336 -0.1181 -0.1146
  668MOL0     C88062  -0.656   9.864   1.606 -0.3101  0.0163  0.2141
  668MOL0     C88063  -0.752   9.821   1.689  1.2315  0.2766  0.0525
  668MOL0     C88064  -0.861   9.723   1.650  0.2374  0.7157 -0.3839
  668MOL0     C88065  -1.000   9.798   1.602 -0.0693  0.3471 -0.0174
  668MOL0     C88066  -1.059   9.875   1.715  0.7622 -0.6434 -0.5610
  668MOL0     C88067  -1.181   9.959   1.682  0.9343 -0.3106  0.5131
  668MOL0     O88068  -1.285   9.876   1.637 -0.2990 -0.7775  0.5574
  668MOL0     C88069  -1.364   9.926   1.532 -0.1300  0.2234  0.2199
  668MOL0     C88070  -1.308   9.977   1.414  0.0053  0.3759 -0.8835
  668MOL0     C88071  -1.389  10.015   1.306  0.2701 -0.0057  0.2594
  668MOL0     C88072  -1.528  10.007   1.318  0.3126 -0.6626  0.6249
  668MOL0     C88073  -1.616  10.047   1.207 -1.0203 -0.1404 -0.1664
  668MOL0     O88074  -1.733  10.093   1.237  0.1340  0.3414  0.3396
  668MOL0     C88075  -1.814  10.114   1.125  0.3003 -0.6291 -0.0572
  668MOL0     C88076  -1.814  10.241   1.061  0.2261  0.5807 -0.4114
  668MOL0     C88077  -1.896  10.273   0.960  0.0980 -0.7515  0.4563
  668MOL0     C88078  -1.987  10.178   0.917  0.3255  0.1297  0.0755
  668MOL0     O88079  -2.080  10.199   0.814 -1.0545 -0.3072 -0.5463
  668MOL0     C88080  -2.145  10.327   0.802 -0.0855  0.0770 -0.3937
  668MOL0     C88081  -2.143  10.374   0.650  1.4363 -0.6828 -1.2822
  668MOL0     C88082  -2.212  10.515   0.644  0.5652  0.1188  1.3237
  668MOL0     C88083  -2.360  10.525   0.654  0.5972  0.2388  0.4471
  668MOL0     C88084  -2.413  10.670   0.642  0.0447  0.7275  0.0403
  668MOL0     C88085  -2.400  10.707   0.505  0.9512  0.0623 -0.6303
  668MOL0     C88086  -2.520  10.809   0.463 -0.1286 -0.1401 -0.5251
  668MOL0     C88087  -2.507  10.862   0.325  0.4015 -0.3550  0.3002
  668MOL0    Cl88088  -2.668  10.934   0.270 -0.2255  0.2368 -0.2241
  668MOL0     C88089  -1.981  10.048   0.974 -0.2640  0.2059 -0.0610
  668MOL0     C88090  -1.886  10.012   1.068 -0.0606 -0.4292  0.5349
  668MOL0     O88091  -1.564  10.036   1.091 -0.1268  0.1569 -1.1325
  668MOL0     C88092  -1.589   9.955   1.437  0.6905  0.2512 -0.3227
  668MOL0     C88093  -1.509   9.916   1.539  0.6253 -0.0150 -0.3446
  668MOL0     N88094  -0.715   9.869   1.816  1.0103 -0.4942  0.6836
  668MOL0     N88095  -0.598   9.925   1.809  0.0092  0.0501  0.2383
  668MOL0     C88096   0.209  10.179   0.931 -0.2674  0.6235 -0.0014
  668MOL0     C88097   0.310  10.144   0.836 -0.0435 -0.3092 -0.1858
  668MOL0     C88098   0.532   9.918   0.473  0.5219  0.0879 -0.0492
  668MOL0     C88099   0.623   9.872   0.565 -0.3604  0.0429 -0.3249
  668MOL0     C88100   0.745   9.816   0.521  0.0383  0.4465 -0.0226
  668MOL0     C88101   0.771   9.794   0.380  0.8480  0.8869  0.5456
  668MOL0     O88102   0.890   9.756   0.332 -0.4849 -0.5665 -0.6366
  668MOL0     C88103   0.903   9.616   0.326 -0.3705 -1.0586  0.1028
  668MOL0     C88104   1.035   9.576   0.267 -1.0287  0.1826  0.4874
  668MOL0     C88105   1.028   9.417   0.278 -0.7985  0.3889 -0.2213
  668MOL0     C88106   1.145   9.374   0.186 -0.3422  0.6996  0.5762
  668MOL0     C88107   1.119   9.229   0.153 -1.0486  0.7378 -0.2338
  668MOL0     C88108   1.118   9.110   0.122  0.7185  0.2190 -0.4456
  668MOL0     C88109   0.666   9.836   0.296  0.4592 -0.1756  0.6470
  668MOL0     C88110   0.556   9.910   0.339  0.2185  0.9572 -0.2617
  668MOL0     H88111   0.117   9.993   0.598 -0.9864 -4.0354  1.9534
  668MOL0     H88112  -0.047  10.018   0.768  0.9372 -0.9411  1.1039
  668MOL0     H88113   0.065  10.282   1.136  2.0668  0.1620 -1.2078
  668MOL0     H88114  -0.056  10.161   1.188  1.4975  2.0039  1.2608
  668MOL0     H88115  -0.151  10.344   0.986 -0.5487  0.3932  0.2250
  668MOL0     H88116  -0.124  10.419   1.148 -2.6797  0.0372  0.6111
  668MOL0     H88117  -0.274  10.168   1.130  2.3063  0.5911  0.2273
  668MOL0     H88118  -0.343  10.328   1.085  1.1511  2.2911  0.6407
  668MOL0     H88119  -0.179  10.294   1.344 -0.5579  2.2523  0.8713
  668MOL0     H88120  -0.316  10.405   1.313 -1.4905 -0.6308 -1.7621
  668MOL0     H88121  -0.431  10.164   1.292  2.0778 -2.0679 -0.4914
  668MOL0     H88122  -0.434  10.284   1.435 -0.3664  0.1038 -0.5762
  668MOL0     H88123  -0.242  10.140   1.521 -2.3938 -1.2453  3.6163
  668MOL0     H88124  -0.239  10.053   1.372 -0.3606 -0.0981  0.2278
  668MOL0     H88125  -0.473   9.937   1.443 -1.5156 -0.4458  2.9602
  668MOL0     H88126  -0.326   9.905   1.527 -1.2377 -1.4347  2.5099
  668MOL0     H88127  -0.520  10.131   1.602 -0.7572 -0.5804  0.4717
  668MOL0     H88128  -0.399  10.064   1.719 -0.9098  2.0687  1.1094
  668MOL0     H88129  -0.654   9.848   1.499  3.7355 -0.2283  0.1726
  668MOL0     H88130  -0.878   9.681   1.750  0.1546  0.1760 -0.6208
  668MOL0     H88131  -0.818   9.657   1.575 -1.5007  1.5742 -2.2460
  668MOL0     H88132  -1.067   9.724   1.557 -0.2352  1.3607 -1.4797
  668MOL0     H88133  -0.967   9.872   1.529 -0.3254  1.5478  1.0599
  668MOL0     H88134  -1.099   9.805   1.788 -1.6575  2.4280  1.3432
  668MOL0     H88135  -0.981   9.933   1.766  0.9134 -0.4260 -1.0296
  668MOL0     H88136  -1.157  10.039   1.611 -0.6255  2.2074  2.6063
  668MOL0     H88137  -1.215  10.019   1.768 -2.5997  1.7239 -2.0339
  668MOL0     H88138  -1.203  10.001   1.417 -0.3576  2.0781 -1.0423
  668MOL0     H88139  -1.330  10.037   1.218  2.7237  2.6237  2.3708
  668MOL0     H88140  -1.751  10.319   1.103 -0.8458  0.8229  0.8154
  668MOL0     H88141  -1.894  10.368   0.908 -1.3725 -1.0509 -0.2034
  668MOL0     H88142  -2.094  10.407   0.856  2.0703  1.1858 -3.7446
  668MOL0     H88143  -2.243  10.316   0.849 -0.1547  2.7562  0.2697
  668MOL0     H88144  -2.183  10.297   0.583 -0.3833 -3.2391  2.3720
  668MOL0     H88145  -2.041  10.388   0.614  2.2030 -3.2014 -0.3051
  668MOL0     H88146  -2.180  10.541   0.543  0.0091 -3.1157  0.1787
  668MOL0     H88147  -2.164  10.579   0.718  4.1475  1.4290 -1.8566
  668MOL0     H88148  -2.404  10.471   0.569 -0.8422  1.2295  0.5304
  668MOL0     H88149  -2.394  10.492   0.753  1.4703  0.6839  0.9061
  668MOL0     H88150  -2.353  10.730   0.711  2.5176 -0.5622 -0.8746
  668MOL0     H88151  -2.520  10.666   0.667  0.2731 -0.1320  0.8915
  668MOL0     H88152  -2.411  10.624   0.435  2.2999 -0.9647  0.3297
  668MOL0     H88153  -2.299  10.742   0.484  3.1289 -2.6515  3.8841
  668MOL0     H88154  -2.618  10.764   0.485  0.8733 -3.1857 -1.7327
  668MOL0     H88155  -2.525  10.884   0.542 -0.3427 -1.3447  0.6532
  668MOL0     H88156  -2.454  10.799   0.252  0.4439  2.4687 -2.2892
  668MOL0     H88157  -2.443  10.951   0.331  1.4733 -1.0973  0.2774
  668MOL0     H88158  -2.055   9.980   0.934  0.2781 -1.1309  1.1294
  668MOL0     H88159  -1.882   9.910   1.104 -3.1019 -0.3910  1.2192
  668MOL0     H88160  -1.697   9.946   1.442  0.8457 -3.3429 -0.2410
  668MOL0     H88161  -1.552   9.890   1.635  0.8154  0.6247 -0.0826
  668MOL0     H88162   0.225  10.235   1.023  0.9317 -0.1388  0.2757
  668MOL0     H88163   0.408  10.173   0.873 -0.0022 -1.3225  0.5567
  668MOL0     H88164   0.616   9.885   0.673  0.3490 -2.1193  0.0128
  668MOL0     H88165   0.828   9.798   0.588  0.7655  0.8771 -0.7777
  668MOL0     H88166   0.822   9.583   0.261 -2.8376  2.9224  0.7868
  668MOL0     H88167   0.892   9.572   0.426  0.1407 -3.7318 -0.9377
  668MOL0     H88168   1.028   9.619   0.167 -0.3961  0.1848  0.4359
  668MOL0     H88169   1.112   9.630   0.324 -0.4302  1.0612 -1.0847
  668MOL0     H88170   0.929   9.388   0.242 -1.5827  2.6390 -0.0731
  668MOL0     H88171   1.040   9.384   0.382 -2.6040 -0.2899 -0.1971
  668MOL0     H88172   1.154   9.434   0.095  2.3664 -2.5359 -1.4927
  668MOL0     H88173   1.239   9.382   0.241  1.0080 -1.6280 -1.2371
  668MOL0     H88174   1.133   9.005   0.105  1.7060  0.4346 -0.9695
  668MOL0     H88175   0.669   9.819   0.189 -1.9722 -0.4432  0.5648
  668MOL0     H88176   0.486   9.949   0.265 -1.1541  0.8461  0.9187
  669MOL0     O88177  10.635   7.416   1.779  0.5592  0.1982  0.2417
  669MOL0     C88178  10.656   7.507   1.700  0.9512 -0.2572  0.7214
  669MOL0     O88179  10.704   7.621   1.742 -0.0648 -0.2576  0.3315
  669MOL0     C88180  10.698   7.677   1.869  0.3208  0.0654  0.0658
  669MOL0     C88181  10.601   7.645   1.965  0.2582 -0.1095  0.0013
  669MOL0     C88182  10.597   7.710   2.093 -0.6660  0.0324  0.3435
  669MOL0     C88183  10.700   7.803   2.125  0.3241  0.1755 -0.8304
  669MOL0     O88184  10.683   7.868   2.247  0.8774  0.0517 -0.3715
  669MOL0     C88185  10.722   8.009   2.261  0.4570 -0.3511 -0.4865
  669MOL0     C88186  10.816   7.997   2.375  0.1158  0.4173 -1.7782
  669MOL0     C88187  10.862   8.139   2.423 -0.1324  0.3649  0.0166
  669MOL0     C88188  10.949   8.135   2.552  0.1188  0.8037  0.4075
  669MOL0     C88189  11.016   8.272   2.586  0.4722  0.0985  0.0053
  669MOL0     C88190  11.121   8.249   2.703 -0.7451 -1.0647 -0.3724
  669MOL0     C88191  11.195   8.389   2.731 -0.1057  1.2968  0.0171
  669MOL0     C88192  11.283   8.385   2.850 -0.2003  0.9629 -0.8070
  669MOL0     N88193  11.347   8.515   2.861  0.5129 -0.1653 -0.7967
  669MOL0     C88194  11.292   8.619   2.934 -0.0485  0.2824  0.4443
  669MOL0     C88195  11.392   8.713   2.926  0.2106 -0.3450 -0.1649
  669MOL0     C88196  11.394   8.848   2.999  0.0560  0.1896 -0.5530
  669MOL0     C88197  11.498   8.865   3.113 -0.3046  0.5128  0.2570
  669MOL0     C88198  11.437   8.805   3.243  0.6595 -0.7049  0.3006
  669MOL0     C88199  11.522   8.836   3.365 -0.0413  0.7885 -0.9876
  669MOL0     O88200  11.479   8.754   3.478 -0.9296  1.1275  0.8072
  669MOL0     C88201  11.589   8.670   3.516  0.5908  0.3825  0.1742
  669MOL0     C88202  11.677   8.717   3.612  1.0926 -0.0060  0.2644
  669MOL0     C88203  11.784   8.646   3.662  1.1115 -0.3369 -0.2845
  669MOL0     C88204  11.793   8.511   3.623 -0.6798 -0.3954 -0.0181
  669MOL0     C88205  11.889   8.422   3.698 -0.3302 -0.0595  0.1453
  669MOL0     O88206  11.974   8.479   3.795 -0.1557 -0.7836  0.1945
  669MOL0     C88207  12.056   8.400   3.865  0.7263 -1.0765 -0.0060
  669MOL0     C88208  12.005   8.289   3.933 -0.1434  0.3379  0.1215
  669MOL0     C88209  12.089   8.209   4.000  0.0890 -0.3967  0.2456
  669MOL0     C88210  12.227   8.239   4.020  0.0827  0.5144  0.5999
  669MOL0     O88211  12.303   8.158   4.103 -0.5920 -0.5078  0.2247
  669MOL0     C88212  12.330   8.230   4.224  0.1809 -0.1583  0.3369
  669MOL0     C88213  12.477   8.269   4.249  0.3037 -0.1050 -0.9831
  669MOL0     C88214  12.569   8.149   4.239  0.0042  1.0359 -0.5095
  669MOL0     C88215  12.721   8.167   4.226  0.2223 -0.1379 -0.2469
  669MOL0     C88216  12.774   8.303   4.174 -1.2980  0.6502  0.4506
  669MOL0     C88217  12.931   8.302   4.170  0.1002 -0.1056 -0.0947
  669MOL0     C88218  12.990   8.446   4.145 -1.0382 -0.0807 -0.1874
  669MOL0     C88219  13.148   8.444   4.160  0.0259 -0.1025 -0.2369
  669MOL0    Cl88220  13.192   8.404   4.316  0.1159  0.0147  0.2326
  669MOL0     C88221  12.272   8.352   3.947  0.1644  0.3203 -0.3930
  669MOL0     C88222  12.192   8.431   3.861 -0.6442 -0.5934  0.5043
  669MOL0     O88223  11.908   8.316   3.645  0.5086  0.0713  0.5619
  669MOL0     C88224  11.702   8.454   3.534  0.0625  0.1472  0.5875
  669MOL0     C88225  11.607   8.540   3.474 -0.5615  0.0935  0.1250
  669MOL0     N88226  11.489   8.669   2.842 -0.1167  0.4542 -0.5711
  669MOL0     N88227  11.460   8.548   2.802 -0.5013  0.2040 -0.1424
  669MOL0     C88228  10.794   7.828   2.029  0.4394 -0.2432  0.0615
  669MOL0     C88229  10.804   7.771   1.902 -0.1804  0.2602  0.3264
  669MOL0     C88230  10.640   7.473   1.564  0.0805 -0.2268 -0.5859
  669MOL0     C88231  10.565   7.358   1.521  0.7463 -0.7209 -0.9717
  669MOL0     C88232  10.560   7.321   1.394 -0.4558 -0.3602 -0.3506
  669MOL0     C88233  10.619   7.404   1.294  0.1180  0.2626 -0.1409
  669MOL0     O88234  10.601   7.372   1.159 -0.3067  0.4364  0.3203
  669MOL0     C88235  10.477   7.328   1.115  0.3202 -0.2180  0.4617
  669MOL0     C88236  10.487   7.239   0.991  0.4083  0.2687 -0.4785
  669MOL0     C88237  10.553   7.314   0.866 -0.6491  0.2551 -0.1175
  669MOL0     C88238  10.700   7.313   0.864  0.2444  0.4768 -0.7995
  669MOL0     C88239  10.747   7.366   0.735  0.2966 -0.4942  0.3306
  669MOL0     C88240  10.788   7.406   0.631  0.0848 -1.0398 -0.3893
  669MOL0     C88241  10.683   7.519   1.338  0.1663  0.5156 -0.4365
  669MOL0     C88242  10.698   7.554   1.471  0.4397  0.0950  0.2665
  669MOL0     H88243  10.533   7.562   1.953 -1.2134  1.2482 -1.5154
  669MOL0     H88244  10.513   7.694   2.159 -2.1454  4.1877 -0.2149
  669MOL0     H88245  10.633   8.069   2.280  0.1795  1.0660 -5.1251
  669MOL0     H88246  10.777   8.072   2.190  1.9117  0.2580  1.0868
  669MOL0     H88247  10.907   7.941   2.351 -0.3582 -1.3820  0.3314
  669MOL0     H88248  10.764   7.956   2.461  0.1053  3.8928  0.0411
  669MOL0     H88249  10.780   8.206   2.451  0.4759  1.9896 -1.8129
  669MOL0     H88250  10.905   8.188   2.336 -1.4365 -0.4807 -1.1446
  669MOL0     H88251  10.898   8.096   2.640  0.3475 -1.8160 -0.5288
  669MOL0     H88252  11.023   8.058   2.526 -0.7472  0.2563 -0.5126
  669MOL0     H88253  10.935   8.339   2.617  0.7554 -0.0863  1.1687
  669MOL0     H88254  11.057   8.315   2.494  2.4126 -1.0047  0.3079
  669MOL0     H88255  11.196   8.171   2.685 -0.2427 -1.1124  1.7081
  669MOL0     H88256  11.066   8.219   2.793 -1.3096 -1.6951 -0.9154
  669MOL0     H88257  11.241   8.425   2.639 -1.1834  2.4407 -0.0988
  669MOL0     H88258  11.123   8.468   2.751  0.8422  2.6435 -1.6413
  669MOL0     H88259  11.358   8.306   2.845 -2.8571 -1.7968 -0.3624
  669MOL0     H88260  11.224   8.359   2.939 -1.1296 -0.1431 -1.7163
  669MOL0     H88261  11.199   8.626   2.990  0.5204  0.1155  1.4495
  669MOL0     H88262  11.293   8.867   3.036  0.9150 -0.8758  2.7941
  669MOL0     H88263  11.434   8.917   2.925  1.5617  2.3236  2.0341
  669MOL0     H88264  11.515   8.973   3.117  2.8255  0.0903  0.8023
  669MOL0     H88265  11.581   8.808   3.071  0.1921  0.2212  1.5944
  669MOL0     H88266  11.338   8.849   3.260  0.9225  1.8197 -3.4859
  669MOL0     H88267  11.437   8.695   3.246  1.6107 -0.9732 -3.9181
  669MOL0     H88268  11.511   8.937   3.404  2.1267  1.0047 -0.8122
  669MOL0     H88269  11.629   8.825   3.345  0.1128  2.7849 -1.4184
  669MOL0     H88270  11.660   8.817   3.652  0.2813 -0.7383  1.8344
  669MOL0     H88271  11.846   8.688   3.741  2.1995  0.1234 -1.3629
  669MOL0     H88272  11.899   8.264   3.930  0.3617 -2.1219  0.5327
  669MOL0     H88273  12.047   8.130   4.062 -1.4168  2.0727  2.5830
  669MOL0     H88274  12.307   8.150   4.295 -3.0292  0.0838 -0.2574
  669MOL0     H88275  12.262   8.315   4.229  1.9946  1.3020  1.2553
  669MOL0     H88276  12.490   8.310   4.350  3.9783 -2.9540 -0.0717
  669MOL0     H88277  12.504   8.343   4.174  0.8453  2.3301  1.4304
  669MOL0     H88278  12.535   8.108   4.143 -0.5723  2.5143 -0.9749
  669MOL0     H88279  12.549   8.066   4.308  1.6869 -0.2491 -1.4901
  669MOL0     H88280  12.773   8.151   4.320  1.2415 -0.7586 -0.9022
  669MOL0     H88281  12.750   8.085   4.159  1.2740 -0.7953  0.9846
  669MOL0     H88282  12.731   8.386   4.231  1.4440  3.5277 -1.3540
  669MOL0     H88283  12.730   8.315   4.075  1.1134 -1.7377 -1.0474
  669MOL0     H88284  12.951   8.245   4.079 -1.5751  3.9514 -3.3433
  669MOL0     H88285  12.971   8.256   4.260  2.4061  0.5006 -0.7470
  669MOL0     H88286  12.967   8.472   4.041  1.3315  1.6593 -0.3557
  669MOL0     H88287  12.948   8.518   4.215 -0.1385  0.8359 -0.5676
  669MOL0     H88288  13.174   8.545   4.127  0.3971 -0.6129 -1.5887
  669MOL0     H88289  13.189   8.382   4.079  1.9556  3.1767 -1.9957
  669MOL0     H88290  12.377   8.382   3.944  0.0361  0.7331 -2.7670
  669MOL0     H88291  12.242   8.509   3.805  2.4930 -2.6586  0.1757
  669MOL0     H88292  11.728   8.354   3.500  2.1432  1.0600 -0.6577
  669MOL0     H88293  11.547   8.504   3.391 -1.1167  4.0688 -1.4514
  669MOL0     H88294  10.872   7.898   2.057  0.9178  0.8795 -3.6095
  669MOL0     H88295  10.882   7.801   1.833 -1.2870  0.6088 -0.8032
  669MOL0     H88296  10.525   7.296   1.601  1.2454 -0.2589 -0.3498
  669MOL0     H88297  10.496   7.234   1.380 -1.4388  0.5948 -2.2628
  669MOL0     H88298  10.407   7.412   1.105  0.9441  0.0548 -2.8075
  669MOL0     H88299  10.435   7.264   1.193  2.0967 -1.4140  0.4744
  669MOL0     H88300  10.534   7.144   1.017 -1.1258  0.1848  2.3980
  669MOL0     H88301  10.381   7.216   0.976 -0.4078  0.1214  4.1685
  669MOL0     H88302  10.509   7.413   0.849  0.3452  0.5469 -1.0751
  669MOL0     H88303  10.524   7.251   0.781 -0.8193 -2.6234  1.9272
  669MOL0     H88304  10.738   7.379   0.943  0.1071 -0.9472  0.4966
  669MOL0     H88305  10.747   7.216   0.878 -0.0475  0.2661 -1.2607
  669MOL0     H88306  10.831   7.446   0.542 -1.6775 -1.3858 -1.4514
  669MOL0     H88307  10.737   7.580   1.266  1.1202  0.8038  0.4919
  669MOL0     H88308  10.757   7.643   1.492 -0.4263  1.0015 -0.9870
  670MOL0     O88309   5.090  10.498   8.397  0.9279  0.2854 -0.7517
  670MOL0     C88310   5.053  10.615   8.382  0.7375 -0.6373 -0.8509
  670MOL0     O88311   4.996  10.675   8.271 -0.1410  0.3203 -0.0635
  670MOL0     C88312   4.976  10.589   8.163 -1.2589  0.5136  0.0545
  670MOL0     C88313   4.849  10.535   8.153  0.8198  0.0244 -0.4659
  670MOL0     C88314   4.831  10.441   8.061 -0.5511  0.6309  0.4044
  670MOL0     C88315   4.927  10.388   7.970 -1.2985 -1.1101 -0.0316
  670MOL0     O88316   4.894  10.304   7.870 -0.5783  0.1889 -0.0253
  670MOL0     C88317   4.981  10.265   7.765  0.9901  0.4332 -0.6884
  670MOL0     C88318   4.944  10.132   7.702 -0.5272  0.0929 -0.4108
  670MOL0     C88319   5.062  10.070   7.628 -0.1798 -0.0396  0.4500
  670MOL0     C88320   5.023   9.982   7.515 -0.3048 -1.1371  0.4260
  670MOL0     C88321   5.135   9.877   7.483  0.3346 -1.0178  0.0957
  670MOL0     C88322   5.248   9.947   7.390 -0.3536 -0.1188  0.1324
  670MOL0     C88323   5.365   9.857   7.368 -0.4687  0.2763 -0.0232
  670MOL0     C88324   5.446   9.910   7.256 -0.2294  0.3447  0.8208
  670MOL0     N88325   5.431   9.830   7.136 -0.4800  0.1876  0.2922
  670MOL0     C88326   5.511   9.718   7.095  0.2809 -0.5929 -0.0101
  670MOL0     C88327   5.482   9.710   6.959 -0.2426  0.8208 -1.2560
  670MOL0     C88328   5.549   9.610   6.867 -0.3981 -0.3257  0.5390
  670MOL0     C88329   5.633   9.687   6.761  0.3256  0.0136 -1.1520
  670MOL0     C88330   5.641   9.613   6.626  0.2703 -0.1257  0.9715
  670MOL0     C88331   5.768   9.530   6.607  1.1701 -0.9052 -0.1714
  670MOL0     O88332   5.762   9.414   6.692 -0.0752 -0.1468 -0.1983
  670MOL0     C88333   5.872   9.333   6.693  1.7423 -0.2993 -0.4470
  670MOL0     C88334   5.871   9.208   6.756  0.6467  0.3775  0.6389
  670MOL0     C88335   5.972   9.117   6.737  0.8824  0.0985  0.2280
  670MOL0     C88336   6.083   9.149   6.662  0.0243 -0.7314 -0.7096
  670MOL0     C88337   6.199   9.056   6.660 -0.6655  0.9999  0.6435
  670MOL0     O88338   6.284   9.084   6.561 -0.8160  0.1447 -0.0160
  670MOL0     C88339   6.414   9.027   6.590  0.3072  0.2871 -0.8100
  670MOL0     C88340   6.500   9.109   6.650  0.5398 -0.3808  0.8021
  670MOL0     C88341   6.607   9.055   6.719  0.1813  0.6971  0.7069
  670MOL0     C88342   6.638   8.908   6.713  1.1421 -0.7311  0.0646
  670MOL0     O88343   6.754   8.845   6.765 -0.2999 -0.0323 -0.7924
  670MOL0     C88344   6.845   8.924   6.843 -0.5125 -0.8105  0.2382
  670MOL0     C88345   6.959   8.841   6.901 -0.6316 -0.1811  0.0320
  670MOL0     C88346   6.923   8.738   6.999  0.3328  0.9328 -0.2326
  670MOL0     C88347   6.937   8.798   7.141 -0.5251  0.0208 -0.5603
  670MOL0     C88348   6.893   8.716   7.264 -0.0383 -0.5606  0.1964
  670MOL0     C88349   6.869   8.813   7.378  0.3473 -0.5844 -0.1106
  670MOL0     C88350   6.986   8.909   7.411 -0.4482  0.0135  0.2628
  670MOL0     C88351   6.977   8.984   7.539  0.0518  0.2510  0.1636
  670MOL0    Cl88352   7.053   8.885   7.664  0.3875 -0.0921 -0.0640
  670MOL0     C88353   6.557   8.829   6.633  0.2829 -0.0286 -0.2065
  670MOL0     C88354   6.443   8.886   6.575  0.8894  0.1079 -0.8300
  670MOL0     O88355   6.206   8.954   6.732 -0.0939  0.5463  0.4866
  670MOL0     C88356   6.102   9.281   6.619  0.1428  0.8888  0.2652
  670MOL0     C88357   5.981   9.367   6.627 -0.0460  0.6962  0.3982
  670MOL0     N88358   5.369   9.790   6.927 -0.1873  0.0942  0.2464
  670MOL0     N88359   5.347   9.873   7.024 -0.2996 -0.3910  0.0463
  670MOL0     C88360   5.065  10.436   7.989  0.2834 -0.2706  0.8572
  670MOL0     C88361   5.086  10.531   8.091  1.0900 -1.0373  0.6619
  670MOL0     C88362   5.063  10.715   8.498  1.0133  0.0088  0.1425
  670MOL0     C88363   5.010  10.844   8.489  0.1223 -0.4774  0.7495
  670MOL0     C88364   5.016  10.942   8.593 -0.1849 -0.3586  0.9723
  670MOL0     C88365   5.074  10.896   8.709  0.6544 -0.3099 -1.1506
  670MOL0     O88366   5.084  10.967   8.832 -0.6732  0.3886  0.9615
  670MOL0     C88367   5.164  11.090   8.815 -0.4400  0.5528  0.1059
  670MOL0     C88368   5.090  11.208   8.883 -0.2505  1.2628 -0.0074
  670MOL0     C88369   5.098  11.185   9.039 -0.3194  0.8724 -0.1794
  670MOL0     C88370   5.057  11.303   9.128 -0.1307  0.3568 -0.2427
  670MOL0     C88371   4.927  11.352   9.105  0.3807  0.0084  0.7888
  670MOL0     C88372   4.815  11.382   9.084  1.0329  0.0234 -0.7197
  670MOL0     C88373   5.113  10.765   8.729  0.2052 -0.6032  0.1884
  670MOL0     C88374   5.104  10.673   8.625  0.3515 -0.0771 -0.2693
  670MOL0     H88375   4.762  10.571   8.207 -0.4229 -1.8036 -1.1580
  670MOL0     H88376   4.730  10.403   8.045 -0.8031  1.5518 -0.3189
  670MOL0     H88377   5.087  10.253   7.790  0.1154 -2.6170  2.4579
  670MOL0     H88378   4.966  10.339   7.686  2.4903  1.3645 -0.1356
  670MOL0     H88379   4.855  10.148   7.641 -0.2548  2.5606 -0.2802
  670MOL0     H88380   4.924  10.058   7.780  2.2078  0.7277  1.0197
  670MOL0     H88381   5.116  10.005   7.698 -0.8259  1.0488  2.0109
  670MOL0     H88382   5.135  10.138   7.584  2.3658 -2.8413  0.0307
  670MOL0     H88383   4.936   9.926   7.549 -0.8186  0.8936  2.7775
  670MOL0     H88384   5.002  10.053   7.434 -0.2814  1.0101  2.2102
  670MOL0     H88385   5.081   9.808   7.417 -0.3054  1.9414 -2.7304
  670MOL0     H88386   5.172   9.812   7.564  0.2724  0.3882  1.2979
  670MOL0     H88387   5.286  10.038   7.437 -2.9932 -0.9064  4.3407
  670MOL0     H88388   5.207   9.974   7.292 -0.8782  0.1422  0.4182
  670MOL0     H88389   5.445   9.852   7.443  3.0075  0.3838 -3.4214
  670MOL0     H88390   5.330   9.758   7.337  2.2712 -0.7753 -0.0343
  670MOL0     H88391   5.549   9.910   7.292 -0.0899  0.0633  0.4261
  670MOL0     H88392   5.418  10.014   7.237 -1.0216  0.0043  0.1002
  670MOL0     H88393   5.597   9.677   7.146  0.3781 -2.9204 -1.8949
  670MOL0     H88394   5.476   9.541   6.825  0.5544 -0.0932 -1.6256
  670MOL0     H88395   5.615   9.563   6.940  1.0008  1.9400  0.8454
  670MOL0     H88396   5.730   9.702   6.809  1.1376 -4.5920 -0.9253
  670MOL0     H88397   5.579   9.782   6.747  2.0391  2.1734  4.0692
  670MOL0     H88398   5.554   9.555   6.592 -0.8625  2.2264 -0.3596
  670MOL0     H88399   5.649   9.685   6.544  2.2044 -2.4189 -1.0107
  670MOL0     H88400   5.842   9.610   6.616 -0.9626  1.1398  0.1503
  670MOL0     H88401   5.790   9.503   6.503  1.1644  1.2137 -0.7681
  670MOL0     H88402   5.790   9.168   6.817  1.0177 -0.6962  0.4615
  670MOL0     H88403   5.966   9.017   6.777 -0.0744  0.3935  0.8673
  670MOL0     H88404   6.488   9.216   6.638 -3.3987 -0.9154 -1.9149
  670MOL0     H88405   6.669   9.121   6.780  5.0740 -1.1717 -1.6727
  670MOL0     H88406   6.788   8.985   6.914  0.4579  1.2164 -0.6260
  670MOL0     H88407   6.889   8.991   6.769  0.2485 -1.7576 -0.1797
  670MOL0     H88408   7.027   8.912   6.949 -1.8017  0.6695  0.5080
  670MOL0     H88409   7.004   8.800   6.810  1.8901 -0.5504  1.3748
  670MOL0     H88410   7.002   8.662   6.999 -0.9458 -0.4510  0.4428
  670MOL0     H88411   6.824   8.696   6.980  0.2663  0.6904  0.6004
  670MOL0     H88412   7.042   8.826   7.149 -0.4555  0.3222 -2.2571
  670MOL0     H88413   6.876   8.889   7.145 -0.2921  0.1495  0.8092
  670MOL0     H88414   6.964   8.639   7.294  0.4212 -1.0209 -1.9290
  670MOL0     H88415   6.801   8.662   7.241 -1.2751  1.7868 -0.7077
  670MOL0     H88416   6.830   8.754   7.461  0.7743  0.0717  0.5696
  670MOL0     H88417   6.780   8.871   7.352 -1.1823 -2.3380  0.9737
  670MOL0     H88418   7.080   8.855   7.402 -0.1159  0.6253  0.0086
  670MOL0     H88419   6.989   8.989   7.336  0.3096  0.1445  0.4192
  670MOL0     H88420   6.871   9.007   7.553  0.4491  1.5228  1.3048
  670MOL0     H88421   7.038   9.074   7.523 -0.4035  0.2895 -1.5145
  670MOL0     H88422   6.583   8.724   6.631  1.2316  0.2151 -1.8475
  670MOL0     H88423   6.367   8.819   6.537 -2.5417  2.0158  1.9893
  670MOL0     H88424   6.194   9.308   6.568  0.8702 -0.3879  0.8526
  670MOL0     H88425   5.991   9.458   6.569  1.9819  0.7848  0.8175
  670MOL0     H88426   5.151  10.397   7.935 -0.0742 -0.4561  0.4157
  670MOL0     H88427   5.187  10.572   8.093  1.1534 -1.1723  0.3645
  670MOL0     H88428   4.977  10.890   8.396  2.2892  2.0083  1.0646
  670MOL0     H88429   4.980  11.044   8.586  1.2313  0.1566  0.8898
  670MOL0     H88430   5.180  11.125   8.713 -0.5761  0.7901  0.1652
  670MOL0     H88431   5.257  11.089   8.872 -1.2868  0.0987  1.5443
  670MOL0     H88432   5.142  11.298   8.849  1.7048 -0.8734 -3.1524
  670MOL0     H88433   4.985  11.209   8.853 -0.3156 -2.1621 -0.2667
  670MOL0     H88434   5.199  11.150   9.064 -1.3171 -5.1347 -2.8313
  670MOL0     H88435   5.030  11.101   9.059  0.0970  0.7621  0.8762
  670MOL0     H88436   5.067  11.279   9.235  0.0115 -2.2085 -0.7668
  670MOL0     H88437   5.124  11.384   9.099  2.2418 -0.5418  2.2280
  670MOL0     H88438   4.710  11.402   9.080  0.7795 -0.4056  1.9933
  670MOL0     H88439   5.149  10.721   8.822  2.5955 -3.2622 -1.7787
  670MOL0     H88440   5.125  10.569   8.648 -0.3222  0.2259  1.9795
  671MOL0     O88441   9.406   0.632   3.184 -0.2919 -0.1737  0.5708
  671MOL0     C88442   9.474   0.643   3.287  1.6387  0.3620 -0.1711
  671MOL0     O88443   9.414   0.652   3.413 -0.9843 -0.0623 -0.3507
  671MOL0     C88444   9.281   0.623   3.432 -1.0772  0.2321  0.0245
  671MOL0     C88445   9.244   0.574   3.562 -0.3698  0.0947  0.0950
  671MOL0     C88446   9.105   0.549   3.597  0.1345  1.4612 -0.0346
  671MOL0     C88447   9.007   0.585   3.505 -0.0073 -0.0837  0.2610
  671MOL0     O88448   8.886   0.537   3.542 -0.4701  0.4010  0.0116
  671MOL0     C88449   8.774   0.614   3.503  0.5037 -0.3316 -0.6535
  671MOL0     C88450   8.703   0.657   3.630  0.6914  0.3398 -0.4772
  671MOL0     C88451   8.588   0.756   3.605  0.9947  0.8607 -1.2465
  671MOL0     C88452   8.487   0.764   3.724  0.9891  0.0105  0.2135
  671MOL0     C88453   8.397   0.889   3.705  0.0306  0.0489  0.3824
  671MOL0     C88454   8.469   1.021   3.736 -0.0995  0.4912  0.1547
  671MOL0     C88455   8.371   1.146   3.714 -0.7803 -0.7833  1.0302
  671MOL0     C88456   8.408   1.208   3.567  0.7740 -0.4782  0.5353
  671MOL0     N88457   8.330   1.152   3.456 -0.2112  0.0896 -0.0879
  671MOL0     C88458   8.220   1.203   3.385 -0.7288 -0.7430  0.0709
  671MOL0     C88459   8.209   1.129   3.274 -0.5346  0.5466 -0.4302
  671MOL0     C88460   8.087   1.120   3.190 -0.1418  0.1749 -0.2239
  671MOL0     C88461   7.983   1.040   3.267  0.9551 -0.2717  0.2091
  671MOL0     C88462   8.022   0.904   3.319 -0.1649 -0.1065  0.8232
  671MOL0     C88463   8.050   0.903   3.468 -0.3315 -0.3318 -0.2217
  671MOL0     O88464   8.032   0.757   3.495 -0.1372 -0.4536  0.0475
  671MOL0     C88465   8.007   0.731   3.629  0.1594 -0.2456  0.1179
  671MOL0     C88466   8.040   0.821   3.737  0.4358 -0.2583  0.2436
  671MOL0     C88467   8.010   0.781   3.872 -0.2188  0.0415 -0.0671
  671MOL0     C88468   7.948   0.663   3.899  0.4702  0.6561  0.2800
  671MOL0     C88469   7.929   0.622   4.034  0.8940  0.1644 -1.2686
  671MOL0     O88470   7.830   0.518   4.061  0.1536 -0.3792 -0.5838
  671MOL0     C88471   7.750   0.539   4.181 -0.0340  0.0698  0.5704
  671MOL0     C88472   7.706   0.664   4.222 -0.3148 -0.2840 -0.0918
  671MOL0     C88473   7.623   0.688   4.336  0.3586 -0.3808  0.0740
  671MOL0     C88474   7.572   0.571   4.397 -0.1869 -0.3272  1.0588
  671MOL0     O88475   7.483   0.583   4.496 -0.0320 -0.0566  0.0800
  671MOL0     C88476   7.391   0.474   4.540 -0.5342 -0.7998  0.4114
  671MOL0     C88477   7.291   0.535   4.642 -0.5499  0.8147  0.4594
  671MOL0     C88478   7.197   0.648   4.593 -1.0853 -0.1626 -0.2940
  671MOL0     C88479   7.069   0.632   4.664 -0.5740 -0.1015 -0.2726
  671MOL0     C88480   7.076   0.658   4.810  0.0308 -0.3533  0.1490
  671MOL0     C88481   6.941   0.625   4.880 -0.3309  0.6468 -0.1196
  671MOL0     C88482   6.856   0.751   4.872  0.1656  0.3323 -0.5152
  671MOL0     C88483   6.711   0.742   4.916  0.5778 -0.2097  0.3726
  671MOL0    Cl88484   6.596   0.710   4.780  0.3353  0.2537 -0.2494
  671MOL0     C88485   7.618   0.444   4.360  0.3370  0.3441  0.7836
  671MOL0     C88486   7.711   0.428   4.249  0.8863 -0.0601 -0.3237
  671MOL0     O88487   8.001   0.666   4.124  0.3117 -0.5538 -0.0972
  671MOL0     C88488   7.917   0.582   3.796 -0.5039  0.1031  0.3892
  671MOL0     C88489   7.951   0.611   3.663  0.7119 -0.5483  0.0133
  671MOL0     N88490   8.320   1.040   3.273  0.3599 -0.5457 -0.4814
  671MOL0     N88491   8.384   1.057   3.377 -1.1404  0.3665  0.2642
  671MOL0     C88492   9.045   0.647   3.376  0.3712 -0.4205  0.0137
  671MOL0     C88493   9.182   0.659   3.330 -0.5230 -0.4199 -0.7234
  671MOL0     C88494   9.620   0.667   3.276  0.7506  0.8653  0.0536
  671MOL0     C88495   9.680   0.618   3.159  0.3600  0.0344  0.7501
  671MOL0     C88496   9.818   0.650   3.139 -0.1786 -0.9497 -0.1579
  671MOL0     C88497   9.898   0.722   3.231  0.0005  0.5498 -0.5987
  671MOL0     O88498  10.034   0.744   3.216  0.5332  0.0240  0.6100
  671MOL0     C88499  10.109   0.637   3.150 -0.2376  0.1161  0.9870
  671MOL0     C88500  10.254   0.628   3.205 -0.2668  0.2245 -0.4446
  671MOL0     C88501  10.327   0.757   3.177  0.1560  0.7383 -0.7936
  671MOL0     C88502  10.424   0.786   3.297 -0.3990 -0.2313  0.1851
  671MOL0     C88503  10.475   0.916   3.285 -0.0406 -0.7433  0.4112
  671MOL0     C88504  10.510   1.035   3.276 -0.1347  0.4108 -0.5519
  671MOL0     C88505   9.834   0.749   3.351 -0.0856 -0.5323  0.9278
  671MOL0     C88506   9.700   0.727   3.371 -0.0311  0.5718  0.2124
  671MOL0     H88507   9.327   0.549   3.626  0.9457 -1.9932 -2.2506
  671MOL0     H88508   9.067   0.507   3.689  1.6811  0.4404  0.1823
  671MOL0     H88509   8.714   0.555   3.433 -0.9932 -4.0310  3.2723
  671MOL0     H88510   8.809   0.706   3.454  1.5827 -0.9776 -1.1259
  671MOL0     H88511   8.776   0.719   3.683 -1.3626  1.9984  0.5948
  671MOL0     H88512   8.678   0.568   3.689 -0.1261  1.7439  1.4222
  671MOL0     H88513   8.528   0.724   3.519  1.3482 -1.7163 -0.6156
  671MOL0     H88514   8.633   0.853   3.585  0.8660  1.6700  1.8400
  671MOL0     H88515   8.417   0.680   3.724  4.1429 -2.9642 -2.4457
  671MOL0     H88516   8.532   0.767   3.823  0.2461  4.4855  0.6013
  671MOL0     H88517   8.305   0.873   3.762 -0.2104  1.4866  0.4426
  671MOL0     H88518   8.369   0.888   3.599 -3.0275  0.0774  1.0939
  671MOL0     H88519   8.555   1.042   3.671 -1.8465  1.0821 -2.0573
  671MOL0     H88520   8.509   1.021   3.838 -0.0327  0.6640  0.1283
  671MOL0     H88521   8.265   1.119   3.719 -1.3167  1.2287  1.4438
  671MOL0     H88522   8.390   1.222   3.790 -0.8793  0.2450  0.0518
  671MOL0     H88523   8.514   1.202   3.541  1.2615 -0.4241  2.3515
  671MOL0     H88524   8.387   1.315   3.579 -0.6693 -0.3764 -2.1037
  671MOL0     H88525   8.155   1.281   3.423  1.5265  0.9406  0.7183
  671MOL0     H88526   8.123   1.065   3.102 -0.0442  2.2841 -1.5825
  671MOL0     H88527   8.041   1.219   3.176 -0.9776 -0.0705  0.7040
  671MOL0     H88528   7.906   1.011   3.195  2.0335 -0.1040 -1.0588
  671MOL0     H88529   7.937   1.103   3.344 -1.0997 -2.4364  0.8628
  671MOL0     H88530   7.939   0.834   3.306 -2.2483  1.2482  4.7975
  671MOL0     H88531   8.105   0.867   3.259 -1.3395  0.3622 -1.2038
  671MOL0     H88532   7.975   0.963   3.520 -3.3404 -1.8814 -2.4554
  671MOL0     H88533   8.155   0.928   3.486 -0.4050  1.0201 -1.4705
  671MOL0     H88534   8.087   0.917   3.721 -1.8295  0.7985 -0.5374
  671MOL0     H88535   8.035   0.841   3.959 -0.1368 -2.0199  1.3827
  671MOL0     H88536   7.739   0.756   4.175 -1.6650  2.0125  3.0748
  671MOL0     H88537   7.596   0.784   4.380 -1.0965 -0.8469  0.2266
  671MOL0     H88538   7.440   0.392   4.594  0.2857  0.9027  2.4329
  671MOL0     H88539   7.322   0.437   4.464 -0.3564  0.4181 -0.3728
  671MOL0     H88540   7.352   0.574   4.724  0.3087 -0.1745  0.3126
  671MOL0     H88541   7.241   0.442   4.671  0.7794  0.7726  2.9715
  671MOL0     H88542   7.167   0.625   4.490 -0.8558 -2.8642  0.1713
  671MOL0     H88543   7.244   0.746   4.599 -0.3907 -0.5901  1.8404
  671MOL0     H88544   6.998   0.701   4.618 -3.0348 -3.3481 -1.7735
  671MOL0     H88545   7.036   0.528   4.661  2.6454 -1.2767  0.6777
  671MOL0     H88546   7.111   0.757   4.838 -0.9112  0.9947 -3.0162
  671MOL0     H88547   7.152   0.595   4.857  0.9818 -1.9367 -3.1685
  671MOL0     H88548   6.959   0.592   4.983 -1.0704 -1.6949 -0.6727
  671MOL0     H88549   6.894   0.536   4.836  2.3773 -0.7118 -0.4460
  671MOL0     H88550   6.905   0.821   4.941 -2.1408 -1.0645  2.7443
  671MOL0     H88551   6.851   0.789   4.770 -0.3802 -0.7260 -0.8915
  671MOL0     H88552   6.668   0.825   4.973 -3.2540 -0.2155 -2.1384
  671MOL0     H88553   6.689   0.654   4.976 -0.2163  1.0423  1.9855
  671MOL0     H88554   7.576   0.360   4.414  0.0769  1.6524  2.7263
  671MOL0     H88555   7.757   0.333   4.221  0.2194 -0.7077  0.7448
  671MOL0     H88556   7.869   0.486   3.815 -0.5570  0.2373  0.9562
  671MOL0     H88557   7.932   0.543   3.581  0.0468  0.6266 -0.8483
  671MOL0     H88558   8.973   0.698   3.313  0.4127  3.7079  2.8696
  671MOL0     H88559   9.195   0.710   3.235 -0.2555 -3.2575 -2.3139
  671MOL0     H88560   9.632   0.559   3.081  2.5253 -1.7207  0.6321
  671MOL0     H88561   9.862   0.622   3.044 -3.3129  1.0425 -2.3894
  671MOL0     H88562  10.104   0.655   3.042  2.3633  2.7501  1.1878
  671MOL0     H88563  10.067   0.537   3.158 -2.1301  0.5536 -1.8688
  671MOL0     H88564  10.264   0.607   3.312 -0.4206  2.7082  0.1227
  671MOL0     H88565  10.294   0.539   3.156  0.4922  0.3368 -0.0437
  671MOL0     H88566  10.253   0.837   3.178 -1.5731 -0.7835  0.3194
  671MOL0     H88567  10.375   0.739   3.081 -0.6807 -1.1758 -0.8905
  671MOL0     H88568  10.378   0.786   3.396  2.0500 -0.7349  1.3860
  671MOL0     H88569  10.503   0.711   3.295 -0.2900 -0.1118 -0.5775
  671MOL0     H88570  10.549   1.134   3.259 -1.7109  1.3575  1.0413
  671MOL0     H88571   9.890   0.814   3.418 -2.1251  2.1607  0.2270
  671MOL0     H88572   9.657   0.767   3.462 -2.3820 -0.1013 -0.5475
  672MOL0     O88573   3.974   7.168   8.022 -0.0762  1.1879  0.5581
  672MOL0     C88574   3.983   7.121   7.909  1.0117 -0.3556 -0.4284
  672MOL0     O88575   3.989   7.188   7.789 -0.3265 -0.4171 -0.1277
  672MOL0     C88576   3.997   7.324   7.788 -0.3557  0.3101 -0.9297
  672MOL0     C88577   4.038   7.417   7.883 -0.0293 -0.2419  0.9186
  672MOL0     C88578   4.030   7.553   7.851 -0.7821 -0.1977 -0.5861
  672MOL0     C88579   3.978   7.599   7.730 -0.4949  0.6631 -0.8244
  672MOL0     O88580   3.972   7.733   7.706  0.1680 -0.9943  0.7818
  672MOL0     C88581   3.908   7.783   7.587 -0.4437 -0.1582  0.4592
  672MOL0     C88582   3.956   7.927   7.551 -0.4468 -0.1123 -0.1225
  672MOL0     C88583   3.950   8.028   7.653 -0.5319 -1.3804 -0.7557
  672MOL0     C88584   4.009   8.164   7.611 -0.0109 -0.9837  0.7544
  672MOL0     C88585   4.025   8.257   7.729  1.0399 -0.0594  0.1569
  672MOL0     C88586   4.059   8.405   7.695 -0.0229 -0.4719  0.5838
  672MOL0     C88587   3.942   8.490   7.633  0.2169 -0.2755  0.2306
  672MOL0     C88588   4.002   8.584   7.530  0.5272 -0.8739 -0.3739
  672MOL0     N88589   3.897   8.646   7.450  0.3485 -0.0242  0.1385
  672MOL0     C88590   3.808   8.578   7.369 -0.1860  0.9639  0.3646
  672MOL0     C88591   3.717   8.664   7.325  0.3880  0.2421 -0.3974
  672MOL0     C88592   3.614   8.639   7.225  0.4660  0.1595  0.3031
  672MOL0     C88593   3.483   8.608   7.294 -0.1603  0.2444 -0.1594
  672MOL0     C88594   3.361   8.649   7.209  0.5649  0.1019 -0.1897
  672MOL0     C88595   3.241   8.636   7.293  0.0763  0.5122 -0.1591
  672MOL0     O88596   3.231   8.499   7.329 -0.3059  0.1588 -0.0972
  672MOL0     C88597   3.123   8.456   7.404 -0.4081 -0.0121 -1.0991
  672MOL0     C88598   3.126   8.317   7.444  0.0533  0.4214 -0.7253
  672MOL0     C88599   3.022   8.267   7.528 -0.7288 -1.0696  0.0639
  672MOL0     C88600   2.909   8.339   7.567 -0.6292 -0.1569  0.0196
  672MOL0     C88601   2.811   8.293   7.664  0.4848  0.7902  0.5013
  672MOL0     O88602   2.715   8.377   7.710  0.3801 -0.1134 -0.0689
  672MOL0     C88603   2.617   8.349   7.793 -0.1582  1.1585  0.0647
  672MOL0     C88604   2.617   8.421   7.914 -0.1861  0.9602  0.2075
  672MOL0     C88605   2.524   8.396   8.016  0.1439 -0.1063  0.2844
  672MOL0     C88606   2.415   8.308   8.003  0.0751 -0.1093  0.6213
  672MOL0     O88607   2.330   8.293   8.114 -0.1077  0.0056  0.3873
  672MOL0     C88608   2.396   8.269   8.232 -0.6953 -0.1563  0.2126
  672MOL0     C88609   2.305   8.174   8.313  0.3285 -0.6851 -0.0068
  672MOL0     C88610   2.364   8.156   8.447  0.3039 -0.1464 -0.3195
  672MOL0     C88611   2.457   8.037   8.457 -0.3752  0.4927  1.2978
  672MOL0     C88612   2.528   8.039   8.591 -0.5925 -0.1525  0.2824
  672MOL0     C88613   2.612   8.166   8.616 -1.0849  0.2877 -1.1533
  672MOL0     C88614   2.711   8.142   8.727  0.4373  0.4175 -0.2951
  672MOL0     C88615   2.761   8.286   8.774 -0.3470 -0.0455 -0.3002
  672MOL0    Cl88616   2.853   8.388   8.652 -0.1190  0.3937  0.2939
  672MOL0     C88617   2.412   8.242   7.879 -0.0051  0.6372  0.2228
  672MOL0     C88618   2.518   8.255   7.780  0.4299 -0.0929 -0.5116
  672MOL0     O88619   2.818   8.173   7.703  0.0715  0.7587 -0.2138
  672MOL0     C88620   2.898   8.469   7.517 -0.6241 -0.0895 -0.0047
  672MOL0     C88621   3.003   8.519   7.440 -0.2777  1.0850 -0.7558
  672MOL0     N88622   3.748   8.784   7.393 -0.4463 -0.1460  1.2182
  672MOL0     N88623   3.857   8.780   7.460 -0.4354  1.0279  0.2378
  672MOL0     C88624   3.940   7.502   7.637 -1.0028 -0.3270  0.0033
  672MOL0     C88625   3.949   7.367   7.663 -0.1021 -0.8346 -0.8307
  672MOL0     C88626   3.974   6.972   7.892  0.0178 -0.3877  0.8621
  672MOL0     C88627   3.973   6.912   7.765 -0.1917 -0.0512 -0.3919
  672MOL0     C88628   3.962   6.772   7.755  0.4480  0.7716  0.0719
  672MOL0     C88629   3.939   6.682   7.863 -0.0492  1.2692  0.1012
  672MOL0     O88630   3.934   6.548   7.869 -0.0261  0.2726  0.5068
  672MOL0     C88631   3.958   6.474   7.744  0.4701  0.1255 -0.7819
  672MOL0     C88632   3.832   6.480   7.664 -0.0174 -0.2260 -0.6298
  672MOL0     C88633   3.829   6.355   7.579  0.4046 -1.1777 -0.7473
  672MOL0     C88634   3.722   6.341   7.472 -0.4122 -0.6641 -0.8451
  672MOL0     C88635   3.756   6.226   7.388  0.2651  0.2083 -0.6056
  672MOL0     C88636   3.791   6.131   7.316 -0.3475  1.5144 -0.5238
  672MOL0     C88637   3.935   6.752   7.985 -0.1359  0.5041  0.6762
  672MOL0     C88638   3.960   6.887   8.002  0.7296 -0.1569  0.5612
  672MOL0     H88639   4.078   7.378   7.976  1.2147 -3.7265 -0.9016
  672MOL0     H88640   4.077   7.621   7.921 -1.7157 -0.0702 -0.0661
  672MOL0     H88641   3.799   7.775   7.595 -0.5268  1.8020  2.0298
  672MOL0     H88642   3.937   7.722   7.501 -1.1467 -2.1382  1.5322
  672MOL0     H88643   3.900   7.951   7.460  0.3253  1.3692 -0.2473
  672MOL0     H88644   4.064   7.916   7.535 -0.3547 -0.6063  0.7713
  672MOL0     H88645   4.008   7.998   7.740 -0.8779 -0.1612 -0.0856
  672MOL0     H88646   3.849   8.052   7.687 -0.2108 -2.5987  1.1908
  672MOL0     H88647   4.103   8.157   7.554 -0.9745  2.5360 -1.5815
  672MOL0     H88648   3.946   8.218   7.540  0.8453  1.7484  1.9439
  672MOL0     H88649   4.104   8.216   7.793  0.3870  0.5819  1.4217
  672MOL0     H88650   3.930   8.257   7.782 -0.3847 -0.9154 -2.2343
  672MOL0     H88651   4.146   8.401   7.629 -0.1099 -1.1650  0.5018
  672MOL0     H88652   4.101   8.452   7.784  0.1680 -0.8417  0.6918
  672MOL0     H88653   3.880   8.418   7.578  1.8713 -1.3140 -0.3567
  672MOL0     H88654   3.885   8.539   7.712  1.4992 -0.3264  1.2277
  672MOL0     H88655   4.061   8.523   7.461 -2.6004 -0.4389 -3.7057
  672MOL0     H88656   4.058   8.665   7.578 -1.3355  2.2791 -3.0517
  672MOL0     H88657   3.830   8.476   7.337  0.4961  1.0536  0.5304
  672MOL0     H88658   3.623   8.550   7.162 -1.3094 -0.9070  1.4575
  672MOL0     H88659   3.597   8.728   7.163  0.4287 -0.1468 -0.1342
  672MOL0     H88660   3.482   8.644   7.397 -0.3701 -0.8987  0.2536
  672MOL0     H88661   3.470   8.500   7.301 -0.4993  0.1645 -1.6446
  672MOL0     H88662   3.385   8.753   7.185  1.5484 -0.2402 -0.7438
  672MOL0     H88663   3.345   8.605   7.110 -2.0192  1.3304 -0.4087
  672MOL0     H88664   3.150   8.664   7.239 -0.0069  1.1187  0.2856
  672MOL0     H88665   3.243   8.688   7.388 -0.0689 -2.3323  1.5135
  672MOL0     H88666   3.209   8.254   7.413 -0.5056  0.5414 -2.6282
  672MOL0     H88667   3.018   8.162   7.557  0.2930 -1.1619 -0.0851
  672MOL0     H88668   2.685   8.506   7.914 -2.6299  3.0091 -0.5135
  672MOL0     H88669   2.547   8.453   8.105 -1.1593 -0.7516  1.0693
  672MOL0     H88670   2.412   8.364   8.284  3.2307 -0.8379  0.5971
  672MOL0     H88671   2.494   8.222   8.218 -0.6821  0.5064 -2.4960
  672MOL0     H88672   2.288   8.072   8.277  1.2156 -2.3682  3.8283
  672MOL0     H88673   2.210   8.225   8.330  1.3613  1.4922 -0.4234
  672MOL0     H88674   2.285   8.142   8.521 -0.7726 -1.1737 -1.6034
  672MOL0     H88675   2.411   8.252   8.470 -0.7279  0.3707 -0.2853
  672MOL0     H88676   2.402   7.944   8.442 -1.2632  1.1880  0.0387
  672MOL0     H88677   2.529   8.033   8.374 -2.9819  1.8562 -1.1972
  672MOL0     H88678   2.597   7.956   8.607  3.0242  2.6002  0.2637
  672MOL0     H88679   2.454   8.026   8.671 -0.5499  1.3276  0.5886
  672MOL0     H88680   2.553   8.255   8.641  1.9763  1.5039  2.5202
  672MOL0     H88681   2.671   8.190   8.527 -2.6112  1.2900 -1.9591
  672MOL0     H88682   2.657   8.109   8.816  2.8666 -1.5879  0.5633
  672MOL0     H88683   2.787   8.064   8.723 -0.9968 -0.9663 -1.8209
  672MOL0     H88684   2.841   8.273   8.848 -1.4285 -2.4640  0.5285
  672MOL0     H88685   2.674   8.347   8.800 -0.1517 -0.6520  2.0526
  672MOL0     H88686   2.314   8.199   7.861 -0.1393  1.4589 -1.1340
  672MOL0     H88687   2.512   8.214   7.679 -2.9574  3.8768 -2.2536
  672MOL0     H88688   2.812   8.532   7.539 -2.2145 -3.0011  3.1805
  672MOL0     H88689   2.979   8.615   7.397 -6.1377 -0.6088 -2.0798
  672MOL0     H88690   3.901   7.520   7.537 -0.5525 -2.7222 -0.6657
  672MOL0     H88691   3.912   7.299   7.587  0.7602 -1.8904 -0.3311
  672MOL0     H88692   3.997   6.951   7.667  1.3547 -1.1226 -0.4821
  672MOL0     H88693   3.987   6.732   7.658  1.1138  1.4079 -0.0327
  672MOL0     H88694   3.983   6.370   7.768 -0.3311  0.1694  0.3141
  672MOL0     H88695   4.039   6.519   7.686  3.3573 -3.8812 -0.2990
  672MOL0     H88696   3.742   6.487   7.726  0.9989 -0.4888  0.9472
  672MOL0     H88697   3.839   6.563   7.594  0.4951  0.6132  0.3942
  672MOL0     H88698   3.825   6.266   7.643  2.7311  0.4235  1.8843
  672MOL0     H88699   3.929   6.349   7.534  0.5953  1.1509 -0.7537
  672MOL0     H88700   3.628   6.320   7.525  1.5133 -1.3052  2.6013
  672MOL0     H88701   3.717   6.429   7.408 -3.2845  0.6804  1.0082
  672MOL0     H88702   3.826   6.048   7.258 -1.0918  0.7384  0.1151
  672MOL0     H88703   3.921   6.689   8.073 -1.0659  0.5742  0.5799
  672MOL0     H88704   3.987   6.928   8.099 -1.4001 -0.9209  1.5214
  673MOL0     O88705   1.351   3.524   5.294  1.1221  0.3549  0.6398
  673MOL0     C88706   1.340   3.416   5.359 -0.6440 -0.1287  0.2295
  673MOL0     O88707   1.402   3.390   5.479  0.1749 -0.4614 -0.2480
  673MOL0     C88708   1.483   3.469   5.562 -0.2991  1.0037  0.3077
  673MOL0     C88709   1.486   3.442   5.693 -0.1375  0.3797 -0.7698
  673MOL0     C88710   1.579   3.505   5.774  0.2164  0.0793 -0.0764
  673MOL0     C88711   1.666   3.606   5.715  0.8044  0.1112 -0.3158
  673MOL0     O88712   1.747   3.675   5.799  1.1736 -0.2141 -0.2919
  673MOL0     C88713   1.779   3.809   5.776  0.1175 -0.4740 -0.4539
  673MOL0     C88714   1.841   3.873   5.899 -0.1861 -0.1414  0.3063
  673MOL0     C88715   1.734   3.920   5.993 -0.4334 -0.6954 -0.0425
  673MOL0     C88716   1.800   3.983   6.116  0.1461  0.2859  0.5196
  673MOL0     C88717   1.919   4.089   6.092 -0.1635  0.6861 -0.4211
  673MOL0     C88718   1.947   4.174   6.216 -0.6129 -0.8697  0.2407
  673MOL0     C88719   1.839   4.234   6.303  0.8439  0.4789 -0.0223
  673MOL0     C88720   1.895   4.261   6.440 -1.2640 -1.1387 -0.3269
  673MOL0     N88721   1.832   4.379   6.501 -0.7845  0.3278  0.0276
  673MOL0     C88722   1.698   4.401   6.524 -0.8189  0.2822  0.3453
  673MOL0     C88723   1.694   4.517   6.607  0.1352 -0.0194 -0.1096
  673MOL0     C88724   1.575   4.590   6.673 -0.0976 -0.1581  0.2069
  673MOL0     C88725   1.509   4.508   6.792 -0.4055 -1.0435  0.3783
  673MOL0     C88726   1.504   4.350   6.773  0.4061 -0.4463  0.3948
  673MOL0     C88727   1.416   4.277   6.882  0.1826 -0.4440 -0.1775
  673MOL0     O88728   1.277   4.320   6.892  0.0986  1.0617 -0.1015
  673MOL0     C88729   1.215   4.341   7.015 -0.0619 -0.0636 -0.0860
  673MOL0     C88730   1.075   4.361   7.006 -0.7139  0.2753 -0.8041
  673MOL0     C88731   0.999   4.378   7.121 -0.7075  0.2437 -0.0172
  673MOL0     C88732   1.058   4.384   7.242  0.0254 -0.5599 -0.1841
  673MOL0     C88733   0.962   4.403   7.355 -0.2192  0.6015 -1.2016
  673MOL0     O88734   0.840   4.454   7.326  0.6140  0.2731  0.1174
  673MOL0     C88735   0.739   4.494   7.408  0.3654  0.9634  1.3083
  673MOL0     C88736   0.613   4.458   7.353  0.4927 -0.3065  0.5634
  673MOL0     C88737   0.506   4.505   7.428  0.2597  0.2550  0.3291
  673MOL0     C88738   0.519   4.573   7.552 -0.0746  0.7402 -0.2061
  673MOL0     O88739   0.402   4.608   7.618  1.5420 -0.4729  0.4795
  673MOL0     C88740   0.403   4.647   7.759 -0.3178  0.5363 -0.0557
  673MOL0     C88741   0.272   4.687   7.813  0.5498 -0.7250  0.1796
  673MOL0     C88742   0.169   4.572   7.849  0.4062  0.1277  0.1733
  673MOL0     C88743   0.185   4.518   7.989 -0.6192 -0.5122  0.2379
  673MOL0     C88744   0.079   4.409   8.037 -0.0431  0.4303  1.4476
  673MOL0     C88745  -0.072   4.447   8.026  0.1581  0.3928 -0.3259
  673MOL0     C88746  -0.163   4.317   8.040  0.2014 -0.3359 -0.0735
  673MOL0     C88747  -0.140   4.202   7.928 -0.4015 -1.1239 -0.1926
  673MOL0    Cl88748  -0.200   4.261   7.777  0.1836 -0.4534 -0.0727
  673MOL0     C88749   0.643   4.601   7.597  0.6432 -0.3016  0.1163
  673MOL0     C88750   0.756   4.558   7.532  0.4449 -0.5266  1.0610
  673MOL0     O88751   1.011   4.399   7.475 -0.5536 -0.0995  0.0508
  673MOL0     C88752   1.197   4.373   7.259 -0.1814 -0.2294 -0.7539
  673MOL0     C88753   1.275   4.345   7.142  0.1800 -0.0692 -0.7075
  673MOL0     N88754   1.819   4.573   6.608  0.2149  0.6352 -0.1139
  673MOL0     N88755   1.904   4.483   6.559  0.2726 -0.3281 -0.1368
  673MOL0     C88756   1.662   3.631   5.574 -1.3229  0.3963 -0.3301
  673MOL0     C88757   1.569   3.559   5.498  0.1521  0.1946 -1.2004
  673MOL0     C88758   1.263   3.306   5.299  0.0093  0.0036  0.2165
  673MOL0     C88759   1.153   3.349   5.228  0.0372  0.3330  0.5737
  673MOL0     C88760   1.091   3.245   5.150 -0.5662 -0.8141  0.1568
  673MOL0     C88761   1.141   3.114   5.146 -0.0697 -0.0454  0.5228
  673MOL0     O88762   1.084   3.010   5.084  0.0653 -0.2183  0.6689
  673MOL0     C88763   0.973   3.010   4.992 -0.3486  0.5211 -0.4055
  673MOL0     C88764   0.900   2.872   5.011 -0.7371  0.0976 -0.5310
  673MOL0     C88765   0.872   2.842   5.170  0.5520 -0.3745 -0.1190
  673MOL0     C88766   0.802   2.963   5.235 -0.4141  0.5199  0.9103
  673MOL0     C88767   0.755   2.930   5.370  0.0032  0.0181 -0.5420
  673MOL0     C88768   0.699   2.909   5.474  0.7599 -0.4445 -0.4816
  673MOL0     C88769   1.241   3.079   5.229  0.1878  0.9992  0.2245
  673MOL0     C88770   1.307   3.172   5.304  0.0376  0.1173  0.7024
  673MOL0     H88771   1.404   3.376   5.717 -1.1707  2.2873  1.2702
  673MOL0     H88772   1.592   3.484   5.880 -0.8833 -0.1131  0.0263
  673MOL0     H88773   1.692   3.868   5.747  0.8670 -0.3409 -2.6261
  673MOL0     H88774   1.861   3.800   5.704  0.1779 -0.9793 -0.3275
  673MOL0     H88775   1.905   3.956   5.868  2.5484 -2.0198  0.5789
  673MOL0     H88776   1.912   3.805   5.947  1.5706 -0.2142 -2.2452
  673MOL0     H88777   1.659   3.844   6.017  0.7162 -1.2359  2.0687
  673MOL0     H88778   1.677   3.999   5.944 -1.8487  0.7548  3.6272
  673MOL0     H88779   1.722   4.025   6.180  0.5581  0.6550  0.7938
  673MOL0     H88780   1.851   3.910   6.180  1.0087 -1.2031 -1.7311
  673MOL0     H88781   1.884   4.155   6.012 -3.6571 -1.3677 -0.8068
  673MOL0     H88782   2.011   4.039   6.058 -2.2778 -3.9741 -0.0790
  673MOL0     H88783   2.019   4.252   6.187  1.4893 -3.8639 -3.4767
  673MOL0     H88784   2.005   4.110   6.283  0.5038  1.2784  1.4567
  673MOL0     H88785   1.798   4.319   6.248  0.6475  0.8445  0.6737
  673MOL0     H88786   1.756   4.166   6.324  0.7253  0.7679  0.4747
  673MOL0     H88787   2.002   4.280   6.428 -1.8153  0.4426 -4.3413
  673MOL0     H88788   1.891   4.171   6.501 -0.2848 -1.9702 -1.4436
  673MOL0     H88789   1.617   4.337   6.494 -1.5483  0.9030  0.9573
  673MOL0     H88790   1.499   4.624   6.602  0.1942  0.5963  0.2505
  673MOL0     H88791   1.615   4.683   6.713 -1.7594  1.5276 -1.8470
  673MOL0     H88792   1.407   4.541   6.815 -0.4526 -1.0318  0.1565
  673MOL0     H88793   1.574   4.520   6.879  0.2334  1.0002 -0.3163
  673MOL0     H88794   1.469   4.309   6.678 -0.5908  0.8464  0.1785
  673MOL0     H88795   1.604   4.312   6.797  0.3704  0.2001  1.5915
  673MOL0     H88796   1.466   4.276   6.979  1.9482 -3.1709 -0.9848
  673MOL0     H88797   1.411   4.170   6.858  0.6546 -0.2829 -1.0443
  673MOL0     H88798   1.014   4.356   6.916 -3.8236 -1.6448  1.2097
  673MOL0     H88799   0.891   4.382   7.126 -0.6783 -0.0113  1.5705
  673MOL0     H88800   0.623   4.401   7.261  4.5586 -0.9531  1.2189
  673MOL0     H88801   0.404   4.483   7.399 -0.2557  0.3640  1.9765
  673MOL0     H88802   0.479   4.719   7.789 -0.5443  0.8042 -0.1133
  673MOL0     H88803   0.426   4.562   7.823 -1.8929  0.4408  0.4261
  673MOL0     H88804   0.226   4.741   7.730  2.1018 -0.0698 -0.2889
  673MOL0     H88805   0.295   4.747   7.902  2.1635 -2.2249  0.8415
  673MOL0     H88806   0.197   4.496   7.775  0.2982 -1.0606  1.3168
  673MOL0     H88807   0.066   4.610   7.842  0.0238 -0.5452  1.6658
  673MOL0     H88808   0.282   4.468   7.999 -0.3692 -0.5996 -2.0086
  673MOL0     H88809   0.208   4.602   8.056  1.6814  2.4174 -3.7237
  673MOL0     H88810   0.103   4.360   8.131 -1.4607 -0.3615  1.4300
  673MOL0     H88811   0.100   4.331   7.963 -1.8734  0.9963  0.2697
  673MOL0     H88812  -0.103   4.504   7.938 -0.8749  1.4686  0.7035
  673MOL0     H88813  -0.092   4.518   8.107  2.3591 -0.8044  1.3764
  673MOL0     H88814  -0.142   4.270   8.136  2.2684 -2.1021 -1.2888
  673MOL0     H88815  -0.270   4.337   8.036 -0.4782 -3.0857  1.7817
  673MOL0     H88816  -0.201   4.119   7.967 -2.2622 -1.8462 -4.0688
  673MOL0     H88817  -0.033   4.185   7.915  0.2444  2.0405  0.1715
  673MOL0     H88818   0.646   4.663   7.686  1.2752  0.1731 -0.2286
  673MOL0     H88819   0.848   4.601   7.570 -0.3645  0.7133  1.7096
  673MOL0     H88820   1.251   4.381   7.353 -0.7856  1.7129 -0.5356
  673MOL0     H88821   1.380   4.320   7.148 -0.0894 -0.9714  3.7087
  673MOL0     H88822   1.715   3.715   5.530  2.7276 -2.3232 -1.2631
  673MOL0     H88823   1.546   3.578   5.393  2.1165  1.1407 -1.5092
  673MOL0     H88824   1.121   3.451   5.244 -1.2295  0.4764 -2.3080
  673MOL0     H88825   1.006   3.276   5.090 -1.5958 -2.6493  0.5598
  673MOL0     H88826   1.007   3.028   4.889 -0.9853  4.2635 -0.0942
  673MOL0     H88827   0.905   3.091   5.021 -1.4092 -0.9660  1.4630
  673MOL0     H88828   0.810   2.868   4.950 -0.7524  4.3259 -1.1082
  673MOL0     H88829   0.966   2.792   4.975 -0.7924 -0.2727  0.1763
  673MOL0     H88830   0.968   2.816   5.216  4.2426  2.9508 -4.8849
  673MOL0     H88831   0.800   2.759   5.174  0.8812 -0.6791 -0.4801
  673MOL0     H88832   0.877   3.043   5.237 -3.2382  3.6140 -2.5837
  673MOL0     H88833   0.714   2.995   5.178  0.9455 -0.1406 -1.6973
  673MOL0     H88834   0.657   2.892   5.571  0.2634 -4.4391 -1.2173
  673MOL0     H88835   1.269   2.974   5.228  0.9416  1.1564 -2.4484
  673MOL0     H88836   1.391   3.154   5.369 -0.9760 -2.2411  1.4648
  674MOL0     O88837   7.336   7.371   7.724  0.3933  0.4327  0.2677
  674MOL0     C88838   7.348   7.298   7.628  0.9050  0.0160 -0.3437
  674MOL0     O88839   7.463   7.234   7.589 -0.5571 -0.1594  0.3585
  674MOL0     C88840   7.559   7.203   7.683 -0.8588  0.7400  0.2573
  674MOL0     C88841   7.523   7.175   7.818 -0.1713  0.8704 -0.1160
  674MOL0     C88842   7.618   7.151   7.911  0.2345 -0.9885 -0.3359
  674MOL0     C88843   7.757   7.147   7.870 -0.5899  0.0782 -0.2987
  674MOL0     O88844   7.852   7.130   7.968 -0.0193 -0.3341  0.1332
  674MOL0     C88845   7.954   7.230   7.966  1.1858 -0.4242 -0.0994
  674MOL0     C88846   7.979   7.260   8.115  0.0532 -0.7538  0.7913
  674MOL0     C88847   8.032   7.128   8.181 -0.3472  0.3489 -0.1479
  674MOL0     C88848   8.066   7.150   8.330 -0.2499 -0.4251  0.6279
  674MOL0     C88849   7.955   7.193   8.427 -0.6710  0.1167  0.2174
  674MOL0     C88850   7.837   7.089   8.421  0.0531 -0.3910 -0.9917
  674MOL0     C88851   7.738   7.138   8.530  0.0753 -0.6360 -0.4718
  674MOL0     C88852   7.640   7.239   8.482 -0.1401 -0.1816  0.3092
  674MOL0     N88853   7.533   7.248   8.584 -0.7693 -0.2023  0.0237
  674MOL0     C88854   7.427   7.165   8.587  0.4178  0.5488 -0.9401
  674MOL0     C88855   7.334   7.222   8.673  0.1514 -0.4495  0.1244
  674MOL0     C88856   7.197   7.171   8.715 -0.7533  0.1022 -0.3525
  674MOL0     C88857   7.149   7.048   8.643 -1.1347  0.3160  0.5391
  674MOL0     C88858   6.992   7.049   8.642 -0.2738 -0.1945  0.0610
  674MOL0     C88859   6.943   6.938   8.551 -0.1898 -0.3032 -0.3605
  674MOL0     O88860   6.980   6.814   8.613 -0.0155  0.5139 -0.1143
  674MOL0     C88861   6.883   6.717   8.612  0.2536 -0.0487 -0.4095
  674MOL0     C88862   6.886   6.614   8.704 -0.5202 -0.7416 -0.0580
  674MOL0     C88863   6.779   6.526   8.715 -0.8461  0.2541  0.1951
  674MOL0     C88864   6.666   6.530   8.633  0.1113  0.1363 -0.3318
  674MOL0     C88865   6.564   6.425   8.648  0.3595 -0.4026  0.1614
  674MOL0     O88866   6.566   6.340   8.753  0.0846  1.4320 -0.8409
  674MOL0     C88867   6.465   6.247   8.763 -0.4826  0.3086 -0.6202
  674MOL0     C88868   6.483   6.113   8.741  0.2457 -0.7901  0.1695
  674MOL0     C88869   6.383   6.023   8.726  1.2795  0.0201 -0.0844
  674MOL0     C88870   6.245   6.067   8.772  0.1558 -0.1793  0.5373
  674MOL0     O88871   6.141   5.980   8.775 -0.1278 -0.4606 -1.2331
  674MOL0     C88872   6.162   5.842   8.781 -0.5423 -0.1380  1.1627
  674MOL0     C88873   6.039   5.763   8.793 -0.1255  0.6067  0.3035
  674MOL0     C88874   5.957   5.774   8.920  0.2096  0.4069  0.2272
  674MOL0     C88875   5.818   5.704   8.907  0.4732  0.7638 -0.6047
  674MOL0     C88876   5.754   5.700   9.049  0.1557  0.4221  0.9569
  674MOL0     C88877   5.600   5.671   9.038 -0.3800 -0.7294  0.2662
  674MOL0     C88878   5.563   5.534   9.004 -0.6012  0.7428 -0.9635
  674MOL0     C88879   5.415   5.540   8.970  0.0705  0.2257 -0.2767
  674MOL0    Cl88880   5.311   5.560   9.116 -0.0866 -0.2510  0.2284
  674MOL0     C88881   6.231   6.205   8.796 -0.1234 -0.1328 -0.5776
  674MOL0     C88882   6.335   6.298   8.785 -0.2012  0.8658 -0.1366
  674MOL0     O88883   6.484   6.429   8.554  0.4617 -0.7461 -0.0268
  674MOL0     C88884   6.663   6.630   8.536 -0.2805 -0.2156 -0.1056
  674MOL0     C88885   6.780   6.717   8.520  1.0856 -0.3331 -0.0043
  674MOL0     N88886   7.384   7.343   8.725  0.3256  0.0993  0.8250
  674MOL0     N88887   7.501   7.354   8.672  0.2888  0.0671 -0.5617
  674MOL0     C88888   7.794   7.167   7.740  0.2458  0.2952  0.2668
  674MOL0     C88889   7.691   7.190   7.646 -1.0833  0.0098 -0.1001
  674MOL0     C88890   7.230   7.285   7.541  0.0771 -1.4887  0.0967
  674MOL0     C88891   7.244   7.214   7.422  0.6745 -0.0161  0.0062
  674MOL0     C88892   7.128   7.203   7.335 -0.1617  0.0156  0.0338
  674MOL0     C88893   7.001   7.243   7.375  0.1652 -0.1767 -0.0718
  674MOL0     O88894   6.902   7.242   7.280 -0.1829  0.6794 -0.1328
  674MOL0     C88895   6.766   7.201   7.321  0.2630 -0.7229 -0.0770
  674MOL0     C88896   6.752   7.079   7.410  0.0604  0.1475 -1.0717
  674MOL0     C88897   6.776   6.943   7.331  0.6221  0.9672  0.1989
  674MOL0     C88898   6.752   6.819   7.423 -0.6862  1.1805  0.4643
  674MOL0     C88899   6.611   6.804   7.433  1.1016  0.8783 -0.5475
  674MOL0     C88900   6.498   6.796   7.467 -0.2675 -0.6474  0.6762
  674MOL0     C88901   6.991   7.304   7.493  0.8886 -0.7996 -0.6076
  674MOL0     C88902   7.108   7.338   7.572  0.4496 -0.5842  0.1258
  674MOL0     H88903   7.420   7.160   7.849 -0.3776  1.3778 -0.5678
  674MOL0     H88904   7.579   7.131   8.011 -1.6808 -0.0547 -0.8519
  674MOL0     H88905   7.920   7.326   7.924  2.4936  1.2552  2.3850
  674MOL0     H88906   8.046   7.193   7.921  0.7496  0.6361 -1.9972
  674MOL0     H88907   7.888   7.306   8.154  2.0341  4.4905 -0.0416
  674MOL0     H88908   8.041   7.347   8.135 -3.4402  2.5786 -1.4319
  674MOL0     H88909   8.124   7.100   8.129 -1.6797  0.5230 -2.7526
  674MOL0     H88910   7.957   7.050   8.162 -1.5441  1.7186 -1.4066
  674MOL0     H88911   8.105   7.052   8.360  1.4136  0.5699  1.8404
  674MOL0     H88912   8.150   7.220   8.335 -0.6000  0.0766 -0.1398
  674MOL0     H88913   7.914   7.294   8.425  1.3595  1.0129 -2.0564
  674MOL0     H88914   8.002   7.185   8.526 -2.6846  0.1848  1.2203
  674MOL0     H88915   7.872   6.988   8.442 -0.1133 -0.6844 -2.0476
  674MOL0     H88916   7.793   7.095   8.320 -1.8203 -1.0611 -0.2591
  674MOL0     H88917   7.678   7.052   8.563 -0.7590 -0.0121 -0.3519
  674MOL0     H88918   7.784   7.188   8.615 -1.3171 -0.2558  0.0769
  674MOL0     H88919   7.594   7.208   8.388  0.4028 -1.7824  0.5424
  674MOL0     H88920   7.692   7.335   8.469  0.0800 -0.1099  1.5647
  674MOL0     H88921   7.402   7.079   8.527 -3.6359  1.1276 -0.3690
  674MOL0     H88922   7.132   7.257   8.701 -0.1905  0.4643 -0.7838
  674MOL0     H88923   7.192   7.134   8.818 -1.8759 -0.0328 -0.4417
  674MOL0     H88924   7.179   6.958   8.698  1.4341  0.2053 -0.8803
  674MOL0     H88925   7.171   7.037   8.536 -2.3889  1.9893  0.0632
  674MOL0     H88926   6.943   7.055   8.740 -0.8737 -0.9685 -0.1819
  674MOL0     H88927   6.959   7.144   8.600  1.2611  1.2751  1.9720
  674MOL0     H88928   6.999   6.943   8.457  2.5095 -0.5854  1.1098
  674MOL0     H88929   6.838   6.958   8.531 -1.1061 -2.8084  1.4315
  674MOL0     H88930   6.971   6.615   8.772 -0.8726  0.3649  0.4029
  674MOL0     H88931   6.783   6.444   8.786  0.4973  1.7757  1.9600
  674MOL0     H88932   6.587   6.094   8.715  0.8408  2.2930 -0.0688
  674MOL0     H88933   6.419   5.923   8.701  3.4254  1.1051 -1.5779
  674MOL0     H88934   6.216   5.818   8.874 -0.9577 -1.2648  1.1262
  674MOL0     H88935   6.225   5.810   8.698 -1.9299 -0.6328  0.2693
  674MOL0     H88936   6.061   5.656   8.786  0.7337  0.7329  0.9061
  674MOL0     H88937   5.975   5.789   8.709 -0.1896 -0.7778 -0.1011
  674MOL0     H88938   5.949   5.875   8.961 -2.3107 -0.1384  1.2684
  674MOL0     H88939   6.005   5.720   9.002 -2.4533 -0.4168  1.3441
  674MOL0     H88940   5.750   5.753   8.836 -0.5151  1.3444  0.7013
  674MOL0     H88941   5.823   5.601   8.871 -0.3748  0.2225  0.7485
  674MOL0     H88942   5.762   5.802   9.088  0.0467  0.8248 -0.0464
  674MOL0     H88943   5.809   5.633   9.115  1.9831 -1.1257 -1.9215
  674MOL0     H88944   5.570   5.739   8.958 -0.2301 -0.9928 -0.0180
  674MOL0     H88945   5.552   5.714   9.126  1.9279  3.7008 -0.3520
  674MOL0     H88946   5.612   5.490   8.917  0.5790 -1.6880  0.8018
  674MOL0     H88947   5.573   5.474   9.095  2.2991  2.9593  0.3733
  674MOL0     H88948   5.384   5.448   8.920  0.3260 -1.6090  2.6856
  674MOL0     H88949   5.378   5.612   8.897  1.7159  1.7146  0.2811
  674MOL0     H88950   6.129   6.233   8.822 -0.9913 -1.9475 -1.8193
  674MOL0     H88951   6.308   6.402   8.800 -0.5363  1.0739 -1.9753
  674MOL0     H88952   6.586   6.642   8.460  0.4876 -1.8452 -1.1871
  674MOL0     H88953   6.770   6.779   8.431  1.3051  0.2387  0.3632
  674MOL0     H88954   7.900   7.173   7.721  0.5210  1.3087  1.9546
  674MOL0     H88955   7.713   7.203   7.541 -1.5178 -3.1354 -0.6642
  674MOL0     H88956   7.338   7.171   7.389  2.7110  2.6658  1.8249
  674MOL0     H88957   7.145   7.163   7.236  1.6371 -1.4901  0.8776
  674MOL0     H88958   6.689   7.173   7.248 -1.0192  0.4909  0.7563
  674MOL0     H88959   6.715   7.292   7.355 -1.3332 -0.9654 -1.6396
  674MOL0     H88960   6.810   7.089   7.502 -0.7388 -0.7582 -0.4561
  674MOL0     H88961   6.646   7.071   7.436  0.0300  0.8286 -0.9851
  674MOL0     H88962   6.882   6.953   7.305  1.2960  2.2226  3.0912
  674MOL0     H88963   6.711   6.942   7.244 -1.2040 -0.0109  1.5104
  674MOL0     H88964   6.798   6.738   7.367  0.5764  2.7584 -0.8801
  674MOL0     H88965   6.781   6.840   7.527 -0.4013  1.1291  0.3960
  674MOL0     H88966   6.400   6.788   7.510  0.1257 -2.3615  1.3561
  674MOL0     H88967   6.895   7.322   7.541  0.3154 -2.1710 -1.1757
  674MOL0     H88968   7.093   7.394   7.663 -0.4675  0.0325 -0.3820
  675MOL0     O88969   7.941   0.221   0.633 -0.3343 -0.6347  0.8700
  675MOL0     C88970   8.021   0.145   0.684  0.1662  0.1762 -0.5731
  675MOL0     O88971   8.159   0.149   0.673 -0.4136  0.4861 -0.6513
  675MOL0     C88972   8.199   0.250   0.596 -0.0751 -0.0139  0.2738
  675MOL0     C88973   8.204   0.225   0.454 -0.2868 -1.2275 -0.7060
  675MOL0     C88974   8.235   0.329   0.365 -0.7530 -0.3799  0.2736
  675MOL0     C88975   8.265   0.456   0.416  0.0958 -0.0541 -0.5494
  675MOL0     O88976   8.286   0.554   0.317  0.2657  0.3836  0.3886
  675MOL0     C88977   8.336   0.687   0.366  0.7360  0.0799  0.4101
  675MOL0     C88978   8.230   0.790   0.386 -0.1342 -0.1182 -0.0357
  675MOL0     C88979   8.285   0.923   0.423  0.7674  0.2068  0.2265
  675MOL0     C88980   8.176   1.035   0.430  0.1191 -0.4946 -0.2822
  675MOL0     C88981   8.240   1.169   0.473  0.1964  0.3391  0.1585
  675MOL0     C88982   8.273   1.166   0.622  0.2744 -0.2627  0.2246
  675MOL0     C88983   8.357   1.288   0.650  0.1708 -0.4974 -0.2358
  675MOL0     C88984   8.384   1.305   0.799 -0.0712 -0.4923  0.2010
  675MOL0     N88985   8.456   1.427   0.822 -1.0508  0.4756  0.3147
  675MOL0     C88986   8.419   1.555   0.864 -0.2620  0.4632 -0.4381
  675MOL0     C88987   8.536   1.627   0.897  0.2565 -0.5118  0.1358
  675MOL0     C88988   8.543   1.767   0.939  0.7929 -0.0120  0.1552
  675MOL0     C88989   8.423   1.817   1.040  0.2948 -0.2096  1.0186
  675MOL0     C88990   8.451   1.976   1.059  0.3876  0.4921  0.4096
  675MOL0     C88991   8.323   2.053   1.115  0.0749 -0.5968  0.1967
  675MOL0     O88992   8.365   2.194   1.137  0.3924  0.6828  0.4324
  675MOL0     C88993   8.287   2.272   1.061  0.3180  0.5943  0.0687
  675MOL0     C88994   8.221   2.383   1.126  0.4021  0.1340 -0.4367
  675MOL0     C88995   8.125   2.460   1.056  0.2107 -0.1036  1.5398
  675MOL0     C88996   8.090   2.436   0.920 -0.2352  0.8424 -0.2623
  675MOL0     C88997   7.981   2.503   0.850  0.3097 -0.9338 -0.7519
  675MOL0     O88998   7.969   2.494   0.705 -0.3103 -0.3331 -0.3038
  675MOL0     C88999   7.899   2.590   0.641 -0.1630  0.4468  0.7324
  675MOL0     C89000   7.848   2.562   0.512  0.4477  0.7400 -0.6778
  675MOL0     C89001   7.783   2.654   0.435 -0.3667  0.8431  0.0707
  675MOL0     C89002   7.760   2.784   0.471  0.1631 -1.2064  0.1673
  675MOL0     O89003   7.697   2.885   0.393 -0.3569  0.4237 -0.5513
  675MOL0     C89004   7.745   2.892   0.259 -0.2792  0.0345 -0.4837
  675MOL0     C89005   7.684   3.008   0.188  0.5966 -0.3052 -0.7003
  675MOL0     C89006   7.771   3.026   0.066 -0.8128  0.5249 -0.1477
  675MOL0     C89007   7.710   3.141  -0.006 -0.8102 -0.9210 -0.1301
  675MOL0     C89008   7.788   3.181  -0.137 -0.5186 -0.3966 -0.1722
  675MOL0     C89009   7.751   3.328  -0.163 -0.7950  1.4087  0.0612
  675MOL0     C89010   7.807   3.374  -0.300 -0.1460 -0.2947  0.4521
  675MOL0     C89011   7.774   3.523  -0.335  0.2053  0.3216  0.7575
  675MOL0    Cl89012   7.603   3.516  -0.385  0.1659 -0.1249  0.1609
  675MOL0     C89013   7.801   2.813   0.599 -0.6533  0.4843  0.2448
  675MOL0     C89014   7.879   2.723   0.686 -0.4901 -0.9302  0.2854
  675MOL0     O89015   7.890   2.539   0.919  0.5234  0.2427  0.4318
  675MOL0     C89016   8.167   2.334   0.854  0.9020 -0.5314 -0.0706
  675MOL0     C89017   8.264   2.257   0.919 -0.9301  0.8562 -0.1045
  675MOL0     N89018   8.647   1.546   0.857  0.2541 -0.6375 -0.0694
  675MOL0     N89019   8.588   1.439   0.815 -1.0854  0.3553 -0.4455
  675MOL0     C89020   8.257   0.477   0.554  0.3484  0.1247 -0.4852
  675MOL0     C89021   8.229   0.379   0.649 -0.2338 -0.6104  0.3403
  675MOL0     C89022   7.963   0.036   0.762  0.6969 -0.8734 -0.0388
  675MOL0     C89023   7.825   0.013   0.781 -0.3238  0.1141 -0.0118
  675MOL0     C89024   7.775  -0.103   0.825  0.8098 -0.1893 -0.1333
  675MOL0     C89025   7.858  -0.200   0.880  0.0955  0.5766 -0.1963
  675MOL0     O89026   7.804  -0.313   0.930 -0.5682  0.8236 -0.3873
  675MOL0     C89027   7.676  -0.363   0.883  0.0928 -0.3271 -0.1533
  675MOL0     C89028   7.700  -0.406   0.736  0.6737  0.3064  0.0288
  675MOL0     C89029   7.581  -0.480   0.675  1.1249 -0.9503  0.0505
  675MOL0     C89030   7.444  -0.418   0.707  0.1460 -1.2146  0.0904
  675MOL0     C89031   7.448  -0.284   0.656 -0.7335 -0.7611 -0.1170
  675MOL0     C89032   7.413  -0.179   0.605 -0.1989  0.7037 -0.3511
  675MOL0     C89033   7.995  -0.176   0.891  0.0160  0.5332 -0.4314
  675MOL0     C89034   8.049  -0.064   0.822  0.7225 -0.3612 -0.7463
  675MOL0     H89035   8.212   0.126   0.409 -0.4739 -0.7609 -1.8033
  675MOL0     H89036   8.244   0.319   0.258  0.3468  0.1696  0.2967
  675MOL0     H89037   8.399   0.726   0.285 -0.2539 -3.2620 -2.2153
  675MOL0     H89038   8.407   0.668   0.447 -0.8378 -2.0876  1.3743
  675MOL0     H89039   8.161   0.747   0.459  2.0416 -1.7663  1.1870
  675MOL0     H89040   8.179   0.802   0.290  0.9724  2.8493 -0.3560
  675MOL0     H89041   8.350   0.963   0.345 -0.3219  0.7572 -0.4232
  675MOL0     H89042   8.338   0.899   0.515 -0.0954 -2.6522  0.0603
  675MOL0     H89043   8.124   1.040   0.334 -0.3715 -2.0507 -0.1288
  675MOL0     H89044   8.099   1.015   0.505  0.2124 -1.2326 -0.3775
  675MOL0     H89045   8.174   1.256   0.465  0.6333  0.6869  0.2803
  675MOL0     H89046   8.323   1.189   0.404  0.8510 -1.8890  0.2236
  675MOL0     H89047   8.319   1.069   0.644  0.3379 -0.1401  0.6399
  675MOL0     H89048   8.182   1.165   0.683 -1.4371 -2.4097 -2.1377
  675MOL0     H89049   8.454   1.284   0.601  1.0240 -4.4586  1.4195
  675MOL0     H89050   8.294   1.373   0.621  1.8642  0.3757 -1.5218
  675MOL0     H89051   8.448   1.225   0.838  3.6233  1.5856 -1.0881
  675MOL0     H89052   8.290   1.311   0.855  1.8325  2.0758  3.5210
  675MOL0     H89053   8.318   1.584   0.893  0.1063  2.1377 -0.7512
  675MOL0     H89054   8.554   1.830   0.850 -1.9816  0.5675  0.1090
  675MOL0     H89055   8.641   1.780   0.986  1.9713 -1.3438 -1.8084
  675MOL0     H89056   8.432   1.776   1.141  1.6742  2.9981  2.3459
  675MOL0     H89057   8.325   1.812   0.993  1.0844 -2.8514 -0.5776
  675MOL0     H89058   8.533   1.988   1.130  0.1822 -1.6722  1.0782
  675MOL0     H89059   8.478   2.029   0.967 -1.4123  1.4055  0.3611
  675MOL0     H89060   8.299   2.007   1.211 -1.9626 -2.6789 -1.2150
  675MOL0     H89061   8.235   2.030   1.055  0.1147 -0.0259 -0.0876
  675MOL0     H89062   8.230   2.395   1.233 -0.8719 -0.5297 -0.2362
  675MOL0     H89063   8.069   2.543   1.099  2.1001  1.2106  1.6025
  675MOL0     H89064   7.851   2.460   0.476  0.5358 -0.7248  2.9712
  675MOL0     H89065   7.754   2.617   0.337 -2.9163 -0.1725  1.1106
  675MOL0     H89066   7.727   2.797   0.208  0.5873  0.2806 -1.2806
  675MOL0     H89067   7.854   2.900   0.264 -0.2314 -0.6697 -0.2403
  675MOL0     H89068   7.708   3.086   0.261 -0.7057 -0.0181 -0.5567
  675MOL0     H89069   7.578   2.997   0.166  0.4652 -0.4004 -0.0447
  675MOL0     H89070   7.762   2.933   0.009 -3.3397  0.9666 -0.5914
  675MOL0     H89071   7.877   3.050   0.079 -0.9521  2.2646 -1.9220
  675MOL0     H89072   7.602   3.131  -0.025 -1.4260  0.7292  2.1458
  675MOL0     H89073   7.731   3.229   0.054  0.8931 -1.0270 -0.5329
  675MOL0     H89074   7.761   3.115  -0.220  0.6569  1.4388 -2.1039
  675MOL0     H89075   7.896   3.173  -0.119 -0.7097  3.2165  5.0657
  675MOL0     H89076   7.807   3.404  -0.108  0.6265 -0.2207  0.9340
  675MOL0     H89077   7.642   3.326  -0.153 -0.6295 -0.6477  2.2602
  675MOL0     H89078   7.916   3.370  -0.299 -0.1409 -0.5065  1.9511
  675MOL0     H89079   7.772   3.308  -0.380  0.8061 -1.5375  1.0349
  675MOL0     H89080   7.838   3.567  -0.412  1.2047  0.6113  1.7182
  675MOL0     H89081   7.783   3.593  -0.250  0.3208  4.0170 -2.0423
  675MOL0     H89082   7.787   2.918   0.623  2.3325  1.1773 -0.6514
  675MOL0     H89083   7.920   2.773   0.773 -0.7487  3.5706 -1.8706
  675MOL0     H89084   8.153   2.316   0.748  0.8408  0.9076 -0.3302
  675MOL0     H89085   8.322   2.184   0.864 -0.6051 -0.6472  2.1084
  675MOL0     H89086   8.282   0.571   0.602  2.6399  1.0385 -3.1967
  675MOL0     H89087   8.223   0.407   0.754  0.3418  3.1122 -0.4744
  675MOL0     H89088   7.753   0.082   0.739  0.2934  0.6281 -0.2536
  675MOL0     H89089   7.668  -0.118   0.819  0.5922  1.7282 -2.6001
  675MOL0     H89090   7.589  -0.298   0.897 -1.9786 -2.0010 -3.7645
  675MOL0     H89091   7.645  -0.446   0.948 -1.8319  1.3645  1.2272
  675MOL0     H89092   7.738  -0.324   0.673 -1.3787  2.3203  1.2563
  675MOL0     H89093   7.785  -0.475   0.735  0.7050  0.3280  0.9524
  675MOL0     H89094   7.592  -0.582   0.713  1.9267 -0.2748  1.7235
  675MOL0     H89095   7.591  -0.479   0.566 -2.2487 -0.4188 -0.3415
  675MOL0     H89096   7.359  -0.462   0.654 -1.7021  2.1492  0.0236
  675MOL0     H89097   7.424  -0.439   0.812  1.6369  0.6463  0.8146
  675MOL0     H89098   7.378  -0.087   0.561  1.3417  0.3331 -2.5215
  675MOL0     H89099   8.055  -0.247   0.947 -1.2673 -1.6140 -1.6531
  675MOL0     H89100   8.155  -0.046   0.816  0.4795  2.6554  1.4805
  676MOL0     O89101   8.865   1.229   2.651  0.4893  0.4582  0.0311
  676MOL0     C89102   8.842   1.334   2.714  0.3228  0.3755 -0.2747
  676MOL0     O89103   8.916   1.388   2.818  0.4951 -0.1394 -0.2305
  676MOL0     C89104   9.022   1.323   2.877  0.0584  0.3821  0.3125
  676MOL0     C89105   9.124   1.252   2.807  0.6532 -0.2630 -1.1284
  676MOL0     C89106   9.226   1.193   2.875  0.9189  0.7976  1.1639
  676MOL0     C89107   9.216   1.188   3.014  0.2990 -0.0638 -0.8942
  676MOL0     O89108   9.312   1.147   3.105 -0.0632 -0.2469  0.1184
  676MOL0     C89109   9.431   1.065   3.057  0.8749 -0.4082  0.0373
  676MOL0     C89110   9.515   1.035   3.176 -0.2233 -0.1260  0.6388
  676MOL0     C89111   9.624   1.141   3.182 -0.4489 -1.0662 -0.0837
  676MOL0     C89112   9.704   1.148   3.311  0.3700 -0.2275  0.3525
  676MOL0     C89113   9.842   1.210   3.298  0.4776  0.0004  0.3496
  676MOL0     C89114   9.950   1.095   3.300 -0.2456  0.1445  0.8623
  676MOL0     C89115  10.084   1.125   3.240  0.5251  1.3207  0.3460
  676MOL0     C89116  10.152   1.234   3.318  0.4969  0.2009 -0.2013
  676MOL0     N89117  10.178   1.208   3.461 -0.3266 -0.0674  0.1948
  676MOL0     C89118  10.138   1.293   3.561  0.1111  0.4783  0.2119
  676MOL0     C89119  10.140   1.218   3.678  1.0399 -0.1040  0.1726
  676MOL0     C89120  10.091   1.256   3.812  0.6184 -0.4703 -1.3410
  676MOL0     C89121  10.054   1.140   3.900 -0.1901 -0.6383 -0.6684
  676MOL0     C89122   9.936   1.061   3.848  0.3868  0.5099  0.8700
  676MOL0     C89123   9.931   0.904   3.878  1.7739 -0.1955  0.3925
  676MOL0     O89124   9.805   0.857   3.819  0.1530  0.2474  0.2630
  676MOL0     C89125   9.687   0.882   3.888 -0.2691 -0.2065  0.3975
  676MOL0     C89126   9.675   0.907   4.030 -0.0637 -1.0767  0.1719
  676MOL0     C89127   9.561   0.883   4.106 -0.6569  0.1539  0.3847
  676MOL0     C89128   9.448   0.822   4.047 -0.2441 -0.1019  0.7063
  676MOL0     C89129   9.333   0.777   4.122  0.4181 -0.0020 -0.6377
  676MOL0     O89130   9.307   0.852   4.235 -0.5128  0.7587 -0.3320
  676MOL0     C89131   9.194   0.821   4.315  0.1197 -0.0269  0.6209
  676MOL0     C89132   9.193   0.880   4.443 -0.9791  0.5015 -0.1224
  676MOL0     C89133   9.099   0.831   4.541  1.0951 -0.6540  0.1550
  676MOL0     C89134   8.995   0.746   4.502 -0.2215  0.0820 -0.0892
  676MOL0     O89135   8.884   0.709   4.579  0.1030 -0.6168 -0.0729
  676MOL0     C89136   8.861   0.762   4.710 -0.3391 -0.7822 -0.2372
  676MOL0     C89137   8.719   0.741   4.764 -0.2775 -0.5839  0.0751
  676MOL0     C89138   8.711   0.793   4.906 -0.3260 -0.6614 -0.0393
  676MOL0     C89139   8.733   0.662   4.986  0.0633  0.2292  0.1230
  676MOL0     C89140   8.766   0.697   5.141 -0.3336  0.9002  0.8360
  676MOL0     C89141   8.686   0.611   5.241 -0.0303  0.2306 -0.2592
  676MOL0     C89142   8.693   0.683   5.374  0.2715 -0.0673 -0.2465
  676MOL0     C89143   8.583   0.628   5.472  0.8657  0.6922 -0.1089
  676MOL0    Cl89144   8.601   0.448   5.523  0.2468  0.5051  0.1612
  676MOL0     C89145   8.973   0.731   4.363  0.9473 -0.4020  0.0247
  676MOL0     C89146   9.072   0.755   4.276  0.8596 -0.5873 -0.8402
  676MOL0     O89147   9.269   0.682   4.085  0.2337 -0.3866  0.5453
  676MOL0     C89148   9.455   0.793   3.907  0.1355  0.0225 -1.2000
  676MOL0     C89149   9.567   0.819   3.837 -0.5477 -0.0714  0.3439
  676MOL0     N89150  10.187   1.096   3.642 -0.2729 -0.3224 -0.9141
  676MOL0     N89151  10.192   1.088   3.512 -0.8396  0.0282 -0.4431
  676MOL0     C89152   9.116   1.252   3.088 -0.0198  0.3365  0.5361
  676MOL0     C89153   9.021   1.334   3.010 -0.2773 -0.5440  0.3281
  676MOL0     C89154   8.738   1.419   2.664  0.1042 -0.2822 -0.4675
  676MOL0     C89155   8.711   1.551   2.717 -0.0548 -0.2785 -0.3896
  676MOL0     C89156   8.613   1.627   2.656  0.3865  0.3869 -0.8086
  676MOL0     C89157   8.530   1.579   2.556 -0.4322 -0.4275 -0.4060
  676MOL0     O89158   8.422   1.648   2.507  0.3076  0.0808  0.4970
  676MOL0     C89159   8.356   1.727   2.617 -0.6990 -0.1947 -0.2515
  676MOL0     C89160   8.223   1.782   2.554 -1.3963  0.4774 -0.6384
  676MOL0     C89161   8.175   1.901   2.640  0.3306  0.2716  0.0851
  676MOL0     C89162   8.066   1.980   2.571 -0.2942 -0.0266  0.6367
  676MOL0     C89163   7.974   2.062   2.646  0.8944 -0.7622 -0.4322
  676MOL0     C89164   7.898   2.134   2.712  0.0541  0.2733  0.5773
  676MOL0     C89165   8.552   1.452   2.504  0.3621 -0.1841 -0.3257
  676MOL0     C89166   8.648   1.374   2.565 -0.2237 -0.2872 -0.8474
  676MOL0     H89167   9.127   1.255   2.698 -0.1677 -2.7878 -1.2760
  676MOL0     H89168   9.320   1.179   2.822  0.6363  0.3396  0.7697
  676MOL0     H89169   9.490   1.110   2.976 -0.3435 -2.8195 -2.3327
  676MOL0     H89170   9.390   0.969   3.024 -1.9865  1.3230 -1.8676
  676MOL0     H89171   9.575   0.943   3.166  1.1358  0.4518  2.7550
  676MOL0     H89172   9.459   1.033   3.270 -1.0910  0.8469  0.1514
  676MOL0     H89173   9.587   1.243   3.172  1.1028 -0.5123 -0.5928
  676MOL0     H89174   9.679   1.140   3.087  0.5134  2.4660  0.3171
  676MOL0     H89175   9.654   1.197   3.395  3.8556  1.8578  1.3954
  676MOL0     H89176   9.705   1.041   3.337 -1.0017  0.5349  4.1846
  676MOL0     H89177   9.854   1.271   3.387  2.5970  2.5632 -1.5339
  676MOL0     H89178   9.836   1.275   3.210 -2.9573 -0.4467  0.1230
  676MOL0     H89179   9.912   1.013   3.237  3.6215 -0.1018 -1.4812
  676MOL0     H89180   9.956   1.069   3.406 -1.6431  1.0582  1.1872
  676MOL0     H89181  10.143   1.033   3.243 -0.4341  0.7177  1.4995
  676MOL0     H89182  10.066   1.166   3.140  1.5779  0.3466 -0.2734
  676MOL0     H89183  10.090   1.322   3.304 -0.2731  0.3260  3.1280
  676MOL0     H89184  10.253   1.242   3.275  1.0191 -2.2151  0.4233
  676MOL0     H89185  10.099   1.394   3.557 -1.1934  0.0110  0.5685
  676MOL0     H89186   9.995   1.308   3.798  0.9276  0.0476 -1.5619
  676MOL0     H89187  10.161   1.319   3.867  1.0283  0.0098 -2.3834
  676MOL0     H89188  10.039   1.187   3.998  2.5967  0.6726 -0.7465
  676MOL0     H89189  10.135   1.066   3.905 -1.4397 -1.9612  0.9329
  676MOL0     H89190   9.842   1.108   3.876  0.9539  2.8095 -0.7599
  676MOL0     H89191   9.939   1.064   3.739  1.8089 -0.3357  0.8613
  676MOL0     H89192   9.944   0.871   3.982  1.1348 -1.3907  0.1132
  676MOL0     H89193  10.016   0.866   3.821  2.6734  1.5406  0.5208
  676MOL0     H89194   9.755   0.952   4.089 -1.1902  0.7577  0.3663
  676MOL0     H89195   9.555   0.906   4.211 -3.8351 -2.6129  0.9972
  676MOL0     H89196   9.278   0.939   4.475  0.0181 -0.4011 -1.0392
  676MOL0     H89197   9.102   0.864   4.644  2.9424 -2.5170  0.7771
  676MOL0     H89198   8.887   0.868   4.708  1.5752 -0.9901  3.4078
  676MOL0     H89199   8.924   0.713   4.786 -1.9101  0.1605  1.7579
  676MOL0     H89200   8.695   0.634   4.755 -0.6490 -0.4686 -0.4058
  676MOL0     H89201   8.646   0.785   4.695  0.2375  1.0212  0.5254
  676MOL0     H89202   8.613   0.833   4.934 -0.4781 -0.7000 -0.5163
  676MOL0     H89203   8.797   0.855   4.932  2.2501 -3.1524 -2.0125
  676MOL0     H89204   8.646   0.596   4.983 -0.1992  0.5787  0.0621
  676MOL0     H89205   8.822   0.609   4.952 -0.5048  0.1912 -1.3396
  676MOL0     H89206   8.733   0.801   5.153 -0.2891  1.1956 -1.1808
  676MOL0     H89207   8.874   0.684   5.158 -1.0351 -1.5806  4.6789
  676MOL0     H89208   8.735   0.513   5.247  1.9900  1.2971  1.6838
  676MOL0     H89209   8.582   0.602   5.207 -0.0382  2.6944 -1.0351
  676MOL0     H89210   8.790   0.661   5.418 -0.7800 -1.4446  1.5117
  676MOL0     H89211   8.669   0.790   5.364 -0.8750 -0.3716 -1.0497
  676MOL0     H89212   8.487   0.645   5.423  1.6845 -0.0102 -2.0437
  676MOL0     H89213   8.571   0.689   5.562 -1.9646 -0.0261  0.0952
  676MOL0     H89214   8.889   0.676   4.321  0.2407 -0.1259  1.0216
  676MOL0     H89215   9.046   0.745   4.171 -1.8535  5.5477 -1.2042
  676MOL0     H89216   9.372   0.731   3.873  1.4162 -1.2018 -2.2316
  676MOL0     H89217   9.564   0.786   3.734  3.6758 -1.8738  0.6142
  676MOL0     H89218   9.122   1.234   3.195  1.4942  2.7475  0.9443
  676MOL0     H89219   8.964   1.409   3.063 -0.8862  0.0534 -1.1195
  676MOL0     H89220   8.763   1.604   2.796  2.8623 -1.3200 -1.4708
  676MOL0     H89221   8.609   1.731   2.686 -2.8378 -0.4118  2.1377
  676MOL0     H89222   8.417   1.813   2.644 -0.2335 -0.1891 -1.2881
  676MOL0     H89223   8.340   1.673   2.711 -2.2217 -0.0653 -0.4056
  676MOL0     H89224   8.244   1.804   2.450  1.2798 -3.4046 -1.1400
  676MOL0     H89225   8.154   1.696   2.553 -1.9418  0.8998 -0.3320
  676MOL0     H89226   8.259   1.971   2.650  1.3431 -0.6669 -1.4166
  676MOL0     H89227   8.144   1.875   2.741 -0.8009  2.9468  0.5243
  676MOL0     H89228   8.115   2.055   2.508 -0.4694 -1.0274 -0.7167
  676MOL0     H89229   8.008   1.915   2.506 -0.0676 -0.5125  0.9200
  676MOL0     H89230   7.834   2.198   2.771  2.2945  1.2798  2.0626
  676MOL0     H89231   8.504   1.421   2.412  0.0621 -2.1661  0.4513
  676MOL0     H89232   8.666   1.269   2.542  1.8318 -0.0167 -0.6994
  677MOL0     O89233   1.252   4.587   3.308 -0.3188  0.3758 -0.3444
  677MOL0     C89234   1.265   4.548   3.190  0.4456 -0.9740 -0.2326
  677MOL0     O89235   1.365   4.589   3.095  0.0494  0.0646  0.3045
  677MOL0     C89236   1.435   4.697   3.125 -0.5390  0.6013  0.1552
  677MOL0     C89237   1.380   4.822   3.153 -0.8822  0.2682  0.4688
  677MOL0     C89238   1.464   4.931   3.194 -0.4989  0.4248  0.0539
  677MOL0     C89239   1.597   4.911   3.212  0.3959 -0.5986  1.5391
  677MOL0     O89240   1.670   5.019   3.252 -0.2545  0.4031  0.3713
  677MOL0     C89241   1.732   5.026   3.383 -0.0395  0.3247 -0.8859
  677MOL0     C89242   1.872   5.096   3.371 -0.3720  0.0036 -0.6238
  677MOL0     C89243   1.860   5.248   3.325 -0.5613  0.3459 -0.3646
  677MOL0     C89244   1.768   5.337   3.409  0.4175 -1.1855  0.5208
  677MOL0     C89245   1.764   5.473   3.341 -0.3104 -0.0783 -0.1161
  677MOL0     C89246   1.888   5.568   3.354  0.3030 -0.5867  0.2854
  677MOL0     C89247   1.948   5.598   3.498  0.1782  0.2452  0.2531
  677MOL0     C89248   2.080   5.672   3.500  0.0891  0.4147  0.0366
  677MOL0     N89249   2.187   5.588   3.449  0.0082 -0.0472  0.5149
  677MOL0     C89250   2.238   5.483   3.527 -0.0027  0.2704 -0.2609
  677MOL0     C89251   2.318   5.421   3.441 -0.6944  0.3013 -0.5022
  677MOL0     C89252   2.419   5.318   3.490 -0.4828 -0.0905 -0.4860
  677MOL0     C89253   2.545   5.387   3.560 -0.5209 -0.7804  0.5614
  677MOL0     C89254   2.664   5.415   3.462 -0.2190  0.2585  0.7245
  677MOL0     C89255   2.808   5.390   3.524 -0.0943 -0.5342 -0.0545
  677MOL0     O89256   2.856   5.506   3.591  0.5256  0.0859 -0.9881
  677MOL0     C89257   2.933   5.493   3.707 -0.0578 -0.1883  0.5136
  677MOL0     C89258   2.922   5.605   3.791 -0.8046 -0.1854  1.0436
  677MOL0     C89259   2.989   5.619   3.912 -0.3459  0.8665  0.3089
  677MOL0     C89260   3.080   5.509   3.940 -0.3901 -0.5608 -0.7760
  677MOL0     C89261   3.167   5.529   4.058  0.3533  0.1199  0.5500
  677MOL0     O89262   3.122   5.621   4.144  1.2191  0.2156 -0.0794
  677MOL0     C89263   3.190   5.651   4.258  0.6212  0.7640 -0.1181
  677MOL0     C89264   3.103   5.675   4.370  0.2542 -0.3598 -0.4897
  677MOL0     C89265   3.163   5.718   4.485  0.1025  0.0177 -0.1224
  677MOL0     C89266   3.302   5.727   4.515  0.3628 -0.1503  0.2702
  677MOL0     O89267   3.360   5.760   4.634  0.5010 -0.0299 -0.7023
  677MOL0     C89268   3.342   5.660   4.740 -0.6837  0.0139 -0.3203
  677MOL0     C89269   3.473   5.577   4.719 -0.6070 -0.6354 -0.6824
  677MOL0     C89270   3.606   5.659   4.756 -0.9273 -0.1782 -0.5847
  677MOL0     C89271   3.656   5.625   4.903 -0.0565 -0.8553  0.2657
  677MOL0     C89272   3.732   5.746   4.953  0.5556  0.4144  0.9029
  677MOL0     C89273   3.817   5.711   5.072 -0.1770 -0.1267 -0.4453
  677MOL0     C89274   3.960   5.663   5.039  0.0753 -1.1124  0.2044
  677MOL0     C89275   4.000   5.519   4.988 -0.0360 -0.4672 -0.2805
  677MOL0    Cl89276   4.181   5.499   4.977  0.1143 -0.2706  0.3534
  677MOL0     C89277   3.384   5.691   4.402 -0.7668 -0.4029 -0.7835
  677MOL0     C89278   3.325   5.661   4.276  0.2341 -0.2432  0.1402
  677MOL0     O89279   3.247   5.443   4.083  0.5093 -0.1925  0.4877
  677MOL0     C89280   3.104   5.409   3.849 -0.0627 -0.8917  0.1571
  677MOL0     C89281   3.029   5.394   3.732  0.1250  0.6309 -0.3464
  677MOL0     N89282   2.319   5.482   3.322 -0.4207 -0.2455  0.0773
  677MOL0     N89283   2.234   5.574   3.314 -0.2893 -0.6006 -0.7213
  677MOL0     C89284   1.655   4.789   3.177  1.0752  0.0464 -0.9213
  677MOL0     C89285   1.575   4.677   3.147  0.9499  0.5037 -0.3252
  677MOL0     C89286   1.173   4.440   3.154 -0.3935 -0.9811  0.1673
  677MOL0     C89287   1.094   4.375   3.250  0.4791 -0.5300  0.3684
  677MOL0     C89288   1.010   4.280   3.203 -0.3983  1.0571  0.4696
  677MOL0     C89289   1.002   4.242   3.072 -0.1561  0.2859 -0.4387
  677MOL0     O89290   0.912   4.149   3.037  0.0763  1.2621 -0.0932
  677MOL0     C89291   0.972   4.023   3.027  0.3169 -0.7034  0.0190
  677MOL0     C89292   0.860   3.938   2.955  0.0249 -0.2496 -0.5089
  677MOL0     C89293   0.922   3.808   2.902 -0.1261  0.1203 -1.5087
  677MOL0     C89294   0.817   3.719   2.859  0.3111 -0.0143 -0.0387
  677MOL0     C89295   0.870   3.611   2.777 -0.1827 -0.4421 -0.0600
  677MOL0     C89296   0.913   3.518   2.706 -1.0227  0.4565  0.0649
  677MOL0     C89297   1.080   4.307   2.978  0.0858 -0.2331 -0.5242
  677MOL0     C89298   1.173   4.406   3.016  0.4300  0.9760  0.8989
  677MOL0     H89299   1.274   4.819   3.134 -1.0096 -1.8828  1.2410
  677MOL0     H89300   1.434   5.033   3.216  0.5526  0.6192  0.6911
  677MOL0     H89301   1.752   4.924   3.417 -2.1438 -0.0934 -0.7637
  677MOL0     H89302   1.659   5.073   3.449 -1.9189  3.1154 -4.5528
  677MOL0     H89303   1.942   5.048   3.302 -1.4170 -1.9663 -0.3820
  677MOL0     H89304   1.916   5.083   3.470 -0.9475 -0.9387 -0.4801
  677MOL0     H89305   1.827   5.251   3.221 -0.5884  1.2030 -0.3403
  677MOL0     H89306   1.959   5.294   3.319 -0.8730  1.2343  0.9072
  677MOL0     H89307   1.671   5.288   3.398 -0.8662  1.6437 -2.0700
  677MOL0     H89308   1.797   5.336   3.514 -0.4496  0.4881  0.8128
  677MOL0     H89309   1.678   5.524   3.387  0.2763  2.0129 -1.1744
  677MOL0     H89310   1.730   5.471   3.237 -1.4552  0.0208  0.2439
  677MOL0     H89311   1.860   5.668   3.319  5.8346  0.0594 -3.3834
  677MOL0     H89312   1.973   5.550   3.288  0.0791  1.6406 -0.7066
  677MOL0     H89313   1.877   5.671   3.539  2.0855  1.7998  0.9712
  677MOL0     H89314   1.944   5.506   3.556  0.8149 -1.2978 -2.0356
  677MOL0     H89315   2.093   5.713   3.601 -2.6859  2.8727 -0.4912
  677MOL0     H89316   2.069   5.756   3.431  0.9583  0.4734 -0.0469
  677MOL0     H89317   2.204   5.449   3.624 -1.9202  1.6351 -0.3813
  677MOL0     H89318   2.459   5.270   3.401  2.0778  4.5843 -2.2209
  677MOL0     H89319   2.371   5.241   3.551  0.1080 -0.8384 -0.9480
  677MOL0     H89320   2.583   5.310   3.628  1.1124 -1.0798 -0.6371
  677MOL0     H89321   2.515   5.472   3.621 -0.6679 -0.2078 -0.2940
  677MOL0     H89322   2.656   5.337   3.386  0.1898  1.3032 -0.4151
  677MOL0     H89323   2.660   5.517   3.424  2.1242  0.9030  1.9655
  677MOL0     H89324   2.883   5.361   3.449  1.8926  3.9280 -0.1129
  677MOL0     H89325   2.800   5.313   3.602 -0.1046  1.8769  2.5020
  677MOL0     H89326   2.842   5.665   3.749  1.0499  0.8904 -1.1447
  677MOL0     H89327   2.982   5.707   3.974  1.3354  1.7070 -0.6276
  677MOL0     H89328   2.996   5.657   4.379  0.3799 -0.7107  0.3858
  677MOL0     H89329   3.107   5.734   4.577 -0.0279 -0.8298 -0.0440
  677MOL0     H89330   3.252   5.597   4.735 -1.4451  0.9012  1.3790
  677MOL0     H89331   3.339   5.689   4.845  2.4919 -1.9827  0.4733
  677MOL0     H89332   3.481   5.549   4.613  0.6591 -0.5909 -0.6242
  677MOL0     H89333   3.462   5.485   4.777 -0.0859  0.0125  0.4851
  677MOL0     H89334   3.610   5.767   4.739 -1.5564 -0.1411 -0.5075
  677MOL0     H89335   3.685   5.617   4.693  0.0917 -4.4612  3.0306
  677MOL0     H89336   3.574   5.587   4.965 -1.4457  1.1197 -0.2438
  677MOL0     H89337   3.729   5.544   4.897 -0.6862 -1.4051 -0.1783
  677MOL0     H89338   3.653   5.815   4.983  1.0823  0.5552  2.0098
  677MOL0     H89339   3.788   5.783   4.866 -1.9744  1.0739 -0.5762
  677MOL0     H89340   3.761   5.631   5.121 -3.1468  1.6052 -0.7205
  677MOL0     H89341   3.837   5.791   5.145 -0.7472 -0.5950  0.2342
  677MOL0     H89342   4.001   5.731   4.964  0.7136  1.7923  2.9617
  677MOL0     H89343   4.022   5.679   5.127  0.4056 -0.9683 -0.0558
  677MOL0     H89344   3.947   5.500   4.894  0.4880  0.2595 -0.7282
  677MOL0     H89345   3.962   5.441   5.056  1.6620 -1.0164  0.0711
  677MOL0     H89346   3.489   5.688   4.426 -0.7471  0.7921 -0.6468
  677MOL0     H89347   3.393   5.640   4.193 -0.4161 -0.1802 -0.4216
  677MOL0     H89348   3.189   5.343   3.868  1.3665 -0.0218 -2.6133
  677MOL0     H89349   3.043   5.317   3.657 -0.1198  0.2772 -0.0307
  677MOL0     H89350   1.763   4.781   3.191  0.6160 -0.7273  3.9326
  677MOL0     H89351   1.624   4.586   3.113 -0.7181 -0.1188 -1.2098
  677MOL0     H89352   1.099   4.409   3.353  1.7706  0.6222 -0.0333
  677MOL0     H89353   0.943   4.228   3.270 -0.0717 -2.1107 -1.4574
  677MOL0     H89354   1.014   3.976   3.116 -2.5124 -1.5961  1.0116
  677MOL0     H89355   1.063   4.032   2.968  1.3719 -1.4006  1.4839
  677MOL0     H89356   0.769   3.919   3.012  0.1669  0.4582 -0.0313
  677MOL0     H89357   0.836   3.995   2.864  0.8970  1.2860  0.1778
  677MOL0     H89358   0.988   3.764   2.977 -0.3755  1.2889 -0.5662
  677MOL0     H89359   0.979   3.844   2.816  2.4743 -0.9377 -0.3288
  677MOL0     H89360   0.768   3.676   2.946 -1.2229  0.4835 -0.6211
  677MOL0     H89361   0.745   3.779   2.803  1.3692 -1.0243 -2.6152
  677MOL0     H89362   0.945   3.452   2.629 -3.1027  1.2114 -1.5548
  677MOL0     H89363   1.064   4.272   2.877  0.3219 -2.6496  0.2223
  677MOL0     H89364   1.233   4.463   2.944 -1.0199  1.0103 -0.3185
  678MOL0     O89365   9.264   5.105  10.636  0.2240  0.0176 -0.0321
  678MOL0     C89366   9.373   5.050  10.639  0.3613  0.7621 -0.5015
  678MOL0     O89367   9.444   5.006  10.540  0.2956 -0.0783 -0.6269
  678MOL0     C89368   9.374   4.980  10.423 -0.3964 -0.3506 -0.2600
  678MOL0     C89369   9.448   5.011  10.305  0.4153  0.1435  0.5549
  678MOL0     C89370   9.385   4.992  10.180 -1.3226  0.1214  0.3705
  678MOL0     C89371   9.251   4.945  10.166 -0.7502 -0.2227  0.9630
  678MOL0     O89372   9.177   4.932  10.049 -0.5553  0.3410  0.2190
  678MOL0     C89373   9.238   4.942   9.921  0.8157 -0.9911 -0.7144
  678MOL0     C89374   9.161   4.846   9.831 -0.1231 -0.5205 -0.0956
  678MOL0     C89375   9.190   4.874   9.682  0.0248 -0.6165  0.9841
  678MOL0     C89376   9.120   4.777   9.583 -0.1866  0.6553  0.3379
  678MOL0     C89377   9.107   4.851   9.456  0.7678  0.6412  0.3166
  678MOL0     C89378   9.216   4.845   9.359 -0.9802  0.1362  0.0768
  678MOL0     C89379   9.267   4.707   9.319 -1.1397  0.3576  0.6738
  678MOL0     C89380   9.339   4.724   9.189  0.0250  0.1091  0.9123
  678MOL0     N89381   9.370   4.598   9.120  0.1152  0.1851 -0.1611
  678MOL0     C89382   9.306   4.476   9.116 -0.8096 -0.4184  0.4918
  678MOL0     C89383   9.367   4.406   9.018 -0.1284  0.0826  1.0542
  678MOL0     C89384   9.307   4.293   8.946  0.2407  0.4098 -0.5831
  678MOL0     C89385   9.221   4.344   8.823  0.5714  0.0329 -0.5229
  678MOL0     C89386   9.136   4.235   8.746  0.3329 -0.0777 -0.6978
  678MOL0     C89387   9.248   4.146   8.677  0.3930  0.2900  0.4275
  678MOL0     O89388   9.198   4.020   8.635 -0.3717 -0.8938 -0.0856
  678MOL0     C89389   9.179   3.912   8.721 -0.9704 -0.2202  0.2074
  678MOL0     C89390   9.119   3.792   8.674 -0.5479  0.2168  0.0629
  678MOL0     C89391   9.110   3.678   8.760 -0.1843  0.0989  0.9221
  678MOL0     C89392   9.149   3.688   8.891 -0.6500 -0.1835 -0.3927
  678MOL0     C89393   9.135   3.571   8.983 -0.0951 -1.1018 -0.3042
  678MOL0     O89394   9.092   3.457   8.913 -0.0084 -0.0363  0.9672
  678MOL0     C89395   9.062   3.334   8.972 -0.9745  1.0368 -0.5197
  678MOL0     C89396   8.936   3.278   8.954 -0.5216  0.9639 -0.1511
  678MOL0     C89397   8.906   3.153   9.001 -0.3273  0.7840  0.4683
  678MOL0     C89398   9.006   3.083   9.074  0.1803  0.1022 -0.2251
  678MOL0     O89399   8.970   2.970   9.130  0.7243  0.1825 -0.6108
  678MOL0     C89400   9.065   2.869   9.167  0.1554 -0.1104  0.1009
  678MOL0     C89401   8.984   2.739   9.197  0.2787 -0.2424 -0.4279
  678MOL0     C89402   9.070   2.629   9.247  0.4807 -0.7993 -0.2151
  678MOL0     C89403   8.986   2.521   9.297  0.0130  0.2496  1.1729
  678MOL0     C89404   9.067   2.396   9.347 -0.8143  0.5192 -0.4278
  678MOL0     C89405   9.097   2.411   9.500 -0.0366  0.1463  0.2440
  678MOL0     C89406   9.217   2.323   9.534 -0.9817 -1.0788 -0.5536
  678MOL0     C89407   9.242   2.327   9.686 -0.5777  0.5158 -0.5782
  678MOL0    Cl89408   9.108   2.265   9.785 -0.1809 -0.4739 -0.2728
  678MOL0     C89409   9.139   3.137   9.097  0.2130  0.6649  0.1689
  678MOL0     C89410   9.167   3.269   9.048 -0.4837 -0.2123 -0.1433
  678MOL0     O89411   9.167   3.571   9.107 -0.2905  1.1982  0.1043
  678MOL0     C89412   9.199   3.801   8.945  1.3477  0.1554 -0.6542
  678MOL0     C89413   9.215   3.910   8.865 -1.3210  0.4099  0.8487
  678MOL0     N89414   9.461   4.490   8.962 -0.7809 -0.2155  0.1587
  678MOL0     N89415   9.462   4.600   9.030 -0.3666  0.6279  0.3292
  678MOL0     C89416   9.186   4.924  10.287 -0.6371  0.6848  0.8492
  678MOL0     C89417   9.244   4.939  10.410  0.9116  0.7903 -0.7383
  678MOL0     C89418   9.427   5.045  10.775 -0.8720 -0.2948 -0.8506
  678MOL0     C89419   9.348   5.070  10.891 -0.4415  1.2872 -0.9660
  678MOL0     C89420   9.410   5.074  11.019  0.3696 -1.2318  0.1067
  678MOL0     C89421   9.540   5.032  11.030  0.6395 -0.0996  0.3097
  678MOL0     O89422   9.584   5.019  11.159  0.2691 -0.6562 -0.0827
  678MOL0     C89423   9.725   5.038  11.187 -0.7581  0.6413 -0.2039
  678MOL0     C89424   9.749   5.065  11.337 -0.6121  1.0286 -0.4451
  678MOL0     C89425   9.764   4.937  11.431  0.6717 -0.0441 -0.0247
  678MOL0     C89426   9.651   4.830  11.453  0.5948  0.3948  0.9623
  678MOL0     C89427   9.703   4.736  11.559 -0.3965 -0.6793 -0.1499
  678MOL0     C89428   9.744   4.659  11.645  0.6238  0.0749  0.0114
  678MOL0     C89429   9.622   5.006  10.918 -0.1759  0.1198 -0.5203
  678MOL0     C89430   9.566   5.009  10.788  1.1570  0.3264  0.1506
  678MOL0     H89431   9.551   5.042  10.317  0.1393  0.9322  0.9313
  678MOL0     H89432   9.446   5.018  10.095 -0.4054 -1.2650  0.5680
  678MOL0     H89433   9.345   4.924   9.931  0.8485  0.3817  2.1589
  678MOL0     H89434   9.220   5.047   9.897  1.2508 -1.0599 -1.3700
  678MOL0     H89435   9.054   4.852   9.854  0.0544 -1.2567  1.0324
  678MOL0     H89436   9.194   4.744   9.853  0.3496 -0.6942 -1.5046
  678MOL0     H89437   9.299   4.868   9.671 -0.0587 -0.4745 -0.0124
  678MOL0     H89438   9.158   4.977   9.665  0.4327 -0.3989  1.5102
  678MOL0     H89439   9.177   4.685   9.571 -1.6547 -0.1869 -0.4286
  678MOL0     H89440   9.023   4.752   9.627  0.1367 -3.7434 -1.0014
  678MOL0     H89441   9.077   4.955   9.471 -2.6504 -0.3018  0.7410
  678MOL0     H89442   9.019   4.809   9.407  1.4488 -2.1125  1.2613
  678MOL0     H89443   9.290   4.915   9.399 -3.2175  2.8342 -0.2315
  678MOL0     H89444   9.174   4.891   9.269 -0.1887  3.5751  1.3088
  678MOL0     H89445   9.327   4.669   9.403  1.7248  4.0257  0.5563
  678MOL0     H89446   9.178   4.646   9.300  0.6461 -2.8870  1.9906
  678MOL0     H89447   9.428   4.788   9.199  0.0977  0.5458 -1.7195
  678MOL0     H89448   9.270   4.774   9.120  0.9243  1.9345  1.2591
  678MOL0     H89449   9.212   4.442   9.158 -0.7623  0.1667  1.0887
  678MOL0     H89450   9.248   4.237   9.019 -0.8495  2.0343 -0.1704
  678MOL0     H89451   9.398   4.236   8.924  1.9992  3.7923 -3.0035
  678MOL0     H89452   9.285   4.400   8.755  0.7845 -0.6793 -0.9088
  678MOL0     H89453   9.148   4.415   8.865 -0.1689 -0.3197 -1.2003
  678MOL0     H89454   9.074   4.180   8.817  1.4796  2.1465  2.3176
  678MOL0     H89455   9.059   4.274   8.679 -0.3929 -1.8196 -0.9168
  678MOL0     H89456   9.338   4.131   8.738  1.2068  0.1151 -0.7737
  678MOL0     H89457   9.282   4.210   8.595  0.8347  0.3069  0.6216
  678MOL0     H89458   9.093   3.765   8.573 -3.0710 -0.4701  0.8268
  678MOL0     H89459   9.063   3.592   8.716 -1.9288  1.6875 -0.4890
  678MOL0     H89460   8.860   3.337   8.902 -0.9224 -0.5541 -1.3800
  678MOL0     H89461   8.811   3.105   8.976  0.1745 -0.5926  1.1238
  678MOL0     H89462   9.121   2.896   9.256 -1.9402 -1.5073  1.9509
  678MOL0     H89463   9.130   2.846   9.081  0.3365 -0.9556  0.4481
  678MOL0     H89464   8.936   2.708   9.103 -0.6799  0.7892 -0.2970
  678MOL0     H89465   8.912   2.752   9.279  1.0502  3.5204 -0.1730
  678MOL0     H89466   9.133   2.666   9.329  2.1764 -5.8566  1.1629
  678MOL0     H89467   9.150   2.598   9.179  0.2912 -0.5141 -0.5689
  678MOL0     H89468   8.925   2.564   9.377 -0.9739  1.6904 -0.2981
  678MOL0     H89469   8.931   2.486   9.209  2.2544  2.5037 -1.3113
  678MOL0     H89470   9.163   2.390   9.295 -1.3074 -2.9111 -1.1613
  678MOL0     H89471   9.010   2.303   9.333 -2.7921  2.0455 -3.7850
  678MOL0     H89472   9.003   2.386   9.549 -0.7000 -1.5419 -1.7109
  678MOL0     H89473   9.121   2.513   9.531 -0.3004 -0.6123  3.2198
  678MOL0     H89474   9.201   2.219   9.503 -0.9353 -1.1474 -0.3478
  678MOL0     H89475   9.302   2.366   9.480  1.3545 -2.7348  1.6149
  678MOL0     H89476   9.270   2.431   9.707  1.2591  0.1621 -1.1140
  678MOL0     H89477   9.329   2.268   9.716 -0.1775  1.1198 -0.5407
  678MOL0     H89478   9.212   3.094   9.164  1.8696 -0.0117 -1.9693
  678MOL0     H89479   9.248   3.332   9.082 -1.2802  1.5361 -1.3351
  678MOL0     H89480   9.242   3.800   9.044 -0.7088  1.0825  0.2909
  678MOL0     H89481   9.254   4.000   8.912  1.7094  0.5261 -1.5920
  678MOL0     H89482   9.088   4.878  10.285 -0.7975  0.5239  4.9475
  678MOL0     H89483   9.182   4.911  10.494  2.3784 -1.3027 -0.2523
  678MOL0     H89484   9.242   5.091  10.888 -0.9844 -1.0883 -0.4830
  678MOL0     H89485   9.355   5.107  11.107 -0.8192 -0.6387 -0.8273
  678MOL0     H89486   9.764   5.100  11.105  0.7348 -2.9528 -2.4780
  678MOL0     H89487   9.776   4.942  11.179 -0.5344  0.2434  4.0390
  678MOL0     H89488   9.840   5.122  11.358 -0.6028  0.3125  1.7043
  678MOL0     H89489   9.670   5.124  11.384 -0.1233 -0.5502  2.6352
  678MOL0     H89490   9.788   4.965  11.534  0.0578 -1.3737  0.5011
  678MOL0     H89491   9.853   4.895  11.383 -0.1762 -2.2497  0.2193
  678MOL0     H89492   9.564   4.876  11.501 -1.8335 -2.5768 -0.2998
  678MOL0     H89493   9.621   4.784  11.359  0.8021 -0.7396  1.4365
  678MOL0     H89494   9.745   4.586  11.723 -0.3502  0.9131  0.8451
  678MOL0     H89495   9.724   4.974  10.936 -0.8785 -1.8152  0.2707
  678MOL0     H89496   9.637   4.966  10.719  0.5129 -2.1149  0.9205
  679MOL0     O89497   2.440   2.566   8.629  0.3025  0.1523 -0.1947
  679MOL0     C89498   2.501   2.462   8.613 -0.9205 -1.4509  0.0004
  679MOL0     O89499   2.545   2.370   8.713  0.1048  0.2208  0.0502
  679MOL0     C89500   2.569   2.392   8.845  0.2578  0.3759 -1.0066
  679MOL0     C89501   2.558   2.282   8.933 -0.0399 -0.4958  0.4198
  679MOL0     C89502   2.599   2.286   9.068 -0.5298 -0.0984  0.1148
  679MOL0     C89503   2.659   2.402   9.111 -0.2467  0.1836  0.0631
  679MOL0     O89504   2.718   2.418   9.235  0.6762  0.7554 -0.1491
  679MOL0     C89505   2.775   2.301   9.297 -0.9170  0.8206  0.4602
  679MOL0     C89506   2.855   2.334   9.419 -0.2543  0.3899  0.1751
  679MOL0     C89507   3.002   2.363   9.393 -0.2755 -0.3777  0.6673
  679MOL0     C89508   3.086   2.380   9.523  0.3935 -0.1538  0.0075
  679MOL0     C89509   3.042   2.504   9.603 -0.1464 -0.3964 -0.6800
  679MOL0     C89510   3.053   2.637   9.535 -1.1485 -0.7468  0.5178
  679MOL0     C89511   3.041   2.756   9.643  0.1784 -0.0695  0.8654
  679MOL0     C89512   3.016   2.882   9.570 -0.4223 -0.3173 -0.8554
  679MOL0     N89513   3.125   2.904   9.474  0.1757 -0.4130 -0.3676
  679MOL0     C89514   3.254   2.949   9.494  0.2219  0.2295  0.2790
  679MOL0     C89515   3.310   2.940   9.381 -1.5496  0.4403  0.4859
  679MOL0     C89516   3.452   2.985   9.350 -0.4425  0.0196  0.0467
  679MOL0     C89517   3.519   2.906   9.227 -0.5713  0.1855 -0.1872
  679MOL0     C89518   3.678   2.914   9.231 -0.1393  0.1008  0.3345
  679MOL0     C89519   3.723   2.824   9.110  0.6010 -0.4200  0.1456
  679MOL0     O89520   3.868   2.846   9.107  0.2490 -0.0967  0.3216
  679MOL0     C89521   3.946   2.804   8.996 -0.1524  0.3477 -0.1476
  679MOL0     C89522   3.896   2.720   8.896  0.2436  0.0778 -0.2788
  679MOL0     C89523   3.977   2.690   8.786  0.1351  0.0600 -0.9467
  679MOL0     C89524   4.117   2.731   8.777  0.2189  0.4884 -1.0565
  679MOL0     C89525   4.194   2.674   8.661 -0.3856 -0.0649  0.3386
  679MOL0     O89526   4.319   2.730   8.638  0.6788  0.4055 -0.0165
  679MOL0     C89527   4.416   2.666   8.564 -0.1929 -0.1965  0.2619
  679MOL0     C89528   4.426   2.526   8.535  0.2424 -0.3001 -0.4045
  679MOL0     C89529   4.511   2.473   8.442 -0.8005 -0.2245  1.1757
  679MOL0     C89530   4.601   2.560   8.375 -0.8945  0.7291  0.2784
  679MOL0     O89531   4.692   2.536   8.273  0.4531  0.2614  1.0119
  679MOL0     C89532   4.645   2.449   8.171  0.7125 -0.1281  0.3958
  679MOL0     C89533   4.508   2.500   8.119  1.0113 -0.6555 -0.3836
  679MOL0     C89534   4.451   2.398   8.016  0.5162 -0.3569  0.1519
  679MOL0     C89535   4.416   2.470   7.884  0.6591 -0.2736 -0.5008
  679MOL0     C89536   4.375   2.369   7.775 -0.0089 -0.4355  0.4434
  679MOL0     C89537   4.379   2.433   7.636  1.0283  1.3273  0.2629
  679MOL0     C89538   4.350   2.314   7.531  0.0068 -0.9837 -0.4565
  679MOL0     C89539   4.476   2.236   7.483  0.6276  0.0707 -0.1835
  679MOL0    Cl89540   4.405   2.093   7.398 -0.1259  0.3681 -0.2241
  679MOL0     C89541   4.603   2.689   8.415 -0.6924  1.0883 -0.3339
  679MOL0     C89542   4.514   2.745   8.509 -0.5756 -0.0486 -0.0332
  679MOL0     O89543   4.134   2.584   8.589 -0.4987 -0.8409 -0.4739
  679MOL0     C89544   4.168   2.816   8.877  0.7606  0.2760 -0.8361
  679MOL0     C89545   4.081   2.851   8.985  0.3565  0.6028 -0.0176
  679MOL0     N89546   3.221   2.900   9.292 -0.1238 -0.0498 -0.0522
  679MOL0     N89547   3.106   2.878   9.350 -0.0080  0.6565 -0.0731
  679MOL0     C89548   2.666   2.513   9.024  0.1165  0.1184 -0.4285
  679MOL0     C89549   2.618   2.509   8.895 -0.5798 -0.6242 -1.0116
  679MOL0     C89550   2.541   2.432   8.469  1.0049 -0.1325 -0.4603
  679MOL0     C89551   2.621   2.326   8.430 -0.0871  0.6986 -0.3186
  679MOL0     C89552   2.661   2.304   8.302  0.4857 -1.2755  0.0125
  679MOL0     C89553   2.614   2.386   8.193  0.4668  0.4682  0.8213
  679MOL0     O89554   2.646   2.364   8.065  0.5362 -0.1486  0.1032
  679MOL0     C89555   2.582   2.246   8.017  0.6416 -0.0638 -0.3834
  679MOL0     C89556   2.492   2.283   7.905  0.1192 -0.2578  0.1816
  679MOL0     C89557   2.457   2.156   7.820 -0.2028  1.0227 -0.3494
  679MOL0     C89558   2.349   2.191   7.722 -0.1701 -0.6639  0.2810
  679MOL0     C89559   2.222   2.227   7.788 -0.8474 -0.4750  0.9875
  679MOL0     C89560   2.120   2.241   7.845  0.5937  0.2439  1.2043
  679MOL0     C89561   2.521   2.477   8.220  0.0384  0.1215 -0.8345
  679MOL0     C89562   2.490   2.507   8.358 -0.2405 -0.0263 -0.1900
  679MOL0     H89563   2.526   2.190   8.886 -2.4002  0.7283 -0.5165
  679MOL0     H89564   2.576   2.211   9.143 -0.4245 -0.0879  0.1575
  679MOL0     H89565   2.840   2.234   9.240  1.3923  1.0383  2.6542
  679MOL0     H89566   2.696   2.237   9.338  0.7420 -1.5979  0.1090
  679MOL0     H89567   2.850   2.257   9.495  2.3138 -0.4630 -0.4329
  679MOL0     H89568   2.815   2.429   9.455  1.6152  0.7586  1.4005
  679MOL0     H89569   2.998   2.456   9.335  2.7811 -0.7250 -0.2906
  679MOL0     H89570   3.050   2.291   9.327 -0.5585  0.8189 -0.8973
  679MOL0     H89571   3.081   2.297   9.594  1.4593  1.6849  2.3730
  679MOL0     H89572   3.193   2.390   9.503  1.8326 -5.7173  2.8427
  679MOL0     H89573   3.094   2.511   9.699 -1.8956  3.5308  0.1901
  679MOL0     H89574   2.938   2.500   9.635 -0.5122  2.0867 -1.3376
  679MOL0     H89575   2.985   2.658   9.452  1.1215 -0.2073 -1.2987
  679MOL0     H89576   3.153   2.638   9.489 -0.7595  0.5305  1.3495
  679MOL0     H89577   2.955   2.734   9.707 -0.0527  2.1015  1.3780
  679MOL0     H89578   3.139   2.755   9.693  0.2416  1.0016  0.7815
  679MOL0     H89579   3.014   2.975   9.628  0.0005  0.7811 -2.5216
  679MOL0     H89580   2.921   2.870   9.518 -2.3850  0.5777  2.2561
  679MOL0     H89581   3.289   2.987   9.590  1.9365  2.6484 -1.2175
  679MOL0     H89582   3.526   2.968   9.429  1.8992 -0.4368 -2.0896
  679MOL0     H89583   3.449   3.092   9.329  1.2160 -0.0036 -0.5044
  679MOL0     H89584   3.496   2.956   9.132 -2.4237  1.1456  0.7043
  679MOL0     H89585   3.484   2.805   9.204  1.4282 -0.3149 -1.2856
  679MOL0     H89586   3.710   3.009   9.187 -0.2078 -0.9383 -2.1165
  679MOL0     H89587   3.714   2.884   9.330 -0.9162  2.0934  1.2744
  679MOL0     H89588   3.685   2.869   9.018  0.1751  0.7609  0.8707
  679MOL0     H89589   3.699   2.718   9.123  0.5502 -0.1705  2.6181
  679MOL0     H89590   3.795   2.681   8.907 -0.0295  1.0550  0.9264
  679MOL0     H89591   3.930   2.614   8.725 -1.3351 -0.9423  1.3053
  679MOL0     H89592   4.362   2.454   8.585  1.1550  0.4240  1.9585
  679MOL0     H89593   4.523   2.366   8.424 -0.2665 -0.1555  1.1228
  679MOL0     H89594   4.628   2.343   8.192  0.2964 -0.1427  0.0042
  679MOL0     H89595   4.709   2.453   8.083  0.2420 -2.6155 -0.1390
  679MOL0     H89596   4.516   2.602   8.079 -0.3427 -0.8296 -1.1665
  679MOL0     H89597   4.433   2.495   8.199  2.5060 -2.7656  0.9819
  679MOL0     H89598   4.366   2.352   8.068  1.2928  0.6375  2.4721
  679MOL0     H89599   4.518   2.314   7.997 -0.0599 -0.7125 -0.3334
  679MOL0     H89600   4.337   2.542   7.909 -2.4635 -4.7868  5.2723
  679MOL0     H89601   4.499   2.526   7.840 -0.6303 -0.4084 -3.3036
  679MOL0     H89602   4.271   2.344   7.797 -0.0901 -1.1388 -0.6659
  679MOL0     H89603   4.433   2.277   7.785  1.4389  0.5281  1.3856
  679MOL0     H89604   4.473   2.485   7.615  0.1846  1.9673 -2.3832
  679MOL0     H89605   4.295   2.503   7.629  2.3933  2.9124 -1.0642
  679MOL0     H89606   4.289   2.235   7.576 -0.6286 -0.2156  0.0613
  679MOL0     H89607   4.297   2.362   7.449 -1.7658  0.7528  1.5771
  679MOL0     H89608   4.551   2.215   7.560  2.2734  1.7987 -1.2262
  679MOL0     H89609   4.533   2.294   7.410  1.0707  0.7754  0.7090
  679MOL0     H89610   4.678   2.750   8.365  0.3755 -1.3231 -1.8252
  679MOL0     H89611   4.529   2.849   8.538  1.1913 -0.0800 -0.7056
  679MOL0     H89612   4.274   2.838   8.884  0.3915  1.5934  4.2211
  679MOL0     H89613   4.119   2.918   9.061  0.7406  2.4295 -1.7240
  679MOL0     H89614   2.721   2.595   9.069 -2.5084  0.6638  2.0787
  679MOL0     H89615   2.627   2.596   8.831 -2.8248  1.6180  1.4760
  679MOL0     H89616   2.648   2.252   8.505 -4.7010  0.7908  1.8272
  679MOL0     H89617   2.727   2.221   8.279  0.6201 -1.4713  1.0669
  679MOL0     H89618   2.517   2.192   8.085  2.2633 -0.5327  0.8470
  679MOL0     H89619   2.663   2.183   7.979  1.0445  0.7418 -0.8938
  679MOL0     H89620   2.400   2.335   7.936 -1.8544 -1.5322 -3.0155
  679MOL0     H89621   2.537   2.355   7.836 -0.5153  0.9862  1.0161
  679MOL0     H89622   2.415   2.073   7.878  1.7904 -4.0431 -5.1822
  679MOL0     H89623   2.545   2.123   7.764 -1.0069 -0.2182 -0.9444
  679MOL0     H89624   2.376   2.280   7.664 -1.4552  0.6866  1.6445
  679MOL0     H89625   2.327   2.111   7.651 -3.9960  2.2127 -2.1389
  679MOL0     H89626   2.024   2.264   7.886 -0.0063  2.4091 -1.1934
  679MOL0     H89627   2.469   2.529   8.140 -1.3341 -0.6916 -0.5210
  679MOL0     H89628   2.430   2.594   8.383  1.1844 -0.0705  4.1428
  680MOL0     O89629   5.867   4.014   0.928  0.2452  1.0588 -0.1845
  680MOL0     C89630   5.939   4.028   0.833 -1.3612  0.1018 -0.0335
  680MOL0     O89631   5.923   3.964   0.715  0.1440  0.6631 -0.3056
  680MOL0     C89632   5.842   3.856   0.691 -0.2183 -0.8314 -1.6075
  680MOL0     C89633   5.884   3.791   0.570 -0.4441 -0.2459  0.1102
  680MOL0     C89634   5.812   3.681   0.532 -0.1478 -0.2847 -0.4524
  680MOL0     C89635   5.709   3.634   0.619  0.2632 -0.2347  0.7446
  680MOL0     O89636   5.658   3.505   0.603  0.3342 -0.5283  0.0663
  680MOL0     C89637   5.517   3.507   0.573 -1.1760  0.3931 -0.4305
  680MOL0     C89638   5.481   3.423   0.442 -0.7577 -0.1537 -0.7455
  680MOL0     C89639   5.329   3.417   0.413 -1.2158 -0.9969  0.3425
  680MOL0     C89640   5.245   3.319   0.505 -0.1746  0.2418 -0.3758
  680MOL0     C89641   5.093   3.354   0.471  0.3329 -0.3308 -0.7772
  680MOL0     C89642   4.998   3.242   0.535 -0.3310 -0.1983  0.3412
  680MOL0     C89643   5.038   3.206   0.676  0.0933  0.3678 -0.7764
  680MOL0     C89644   5.034   3.333   0.765  0.4146 -0.4608  0.5323
  680MOL0     N89645   4.895   3.382   0.809 -0.1047  0.3217 -0.2063
  680MOL0     C89646   4.823   3.465   0.727  0.9077  0.4314 -0.1231
  680MOL0     C89647   4.730   3.515   0.809  0.3314  0.7035  0.4683
  680MOL0     C89648   4.623   3.614   0.760  0.5890  0.0724  0.4529
  680MOL0     C89649   4.663   3.764   0.766  0.4089  0.6627 -0.6804
  680MOL0     C89650   4.578   3.855   0.674 -0.3706  0.7018 -0.6260
  680MOL0     C89651   4.657   3.980   0.647 -0.5345 -0.5356 -1.1843
  680MOL0     O89652   4.668   4.052   0.770 -1.1024 -0.9417  0.4159
  680MOL0     C89653   4.612   4.173   0.790  0.3651  0.9707  0.7516
  680MOL0     C89654   4.617   4.224   0.919  0.0474 -0.1185 -0.1688
  680MOL0     C89655   4.565   4.350   0.951 -0.0546  0.6826  0.0691
  680MOL0     C89656   4.485   4.419   0.861 -0.2505  0.4192  0.6453
  680MOL0     C89657   4.434   4.561   0.891 -0.8697  1.1353 -1.4443
  680MOL0     O89658   4.469   4.606   1.023 -0.2762 -0.0639  0.3007
  680MOL0     C89659   4.444   4.734   1.039 -1.1400 -0.5514  0.5369
  680MOL0     C89660   4.523   4.830   0.963  0.1193  0.6164  1.1251
  680MOL0     C89661   4.499   4.971   0.954  0.6871  0.2889 -0.2953
  680MOL0     C89662   4.383   5.015   1.024 -1.5223  0.9657  0.1503
  680MOL0     O89663   4.349   5.153   1.022 -0.5024 -0.0137  0.0045
  680MOL0     C89664   4.413   5.248   0.934 -0.2043 -0.1150  0.0195
  680MOL0     C89665   4.302   5.361   0.898 -0.1092 -0.3108 -0.1172
  680MOL0     C89666   4.266   5.426   1.024  0.1220 -0.3571 -1.5490
  680MOL0     C89667   4.206   5.569   1.027 -0.6599  0.6905  0.2396
  680MOL0     C89668   4.118   5.615   0.908  0.5378  0.0305 -0.3075
  680MOL0     C89669   4.067   5.751   0.932 -0.1504 -0.5531  0.3700
  680MOL0     C89670   3.953   5.790   0.838 -0.0185 -0.4879  0.1957
  680MOL0     C89671   3.982   5.794   0.688  0.0315  0.7211 -0.5921
  680MOL0    Cl89672   4.102   5.922   0.645  0.2061  0.1422 -0.4574
  680MOL0     C89673   4.315   4.928   1.111 -0.4696 -0.3158 -0.6033
  680MOL0     C89674   4.344   4.791   1.111  0.4277 -0.3292 -0.5704
  680MOL0     O89675   4.378   4.631   0.809 -0.0202  0.3210 -0.2674
  680MOL0     C89676   4.454   4.364   0.736 -0.1953  0.6745 -0.4629
  680MOL0     C89677   4.522   4.246   0.701  0.0093  1.1802 -0.2076
  680MOL0     N89678   4.751   3.476   0.941 -0.2401  0.1180  0.0151
  680MOL0     N89679   4.856   3.399   0.941 -0.6420  0.4334 -0.1986
  680MOL0     C89680   5.688   3.686   0.742  0.5668  0.6776  0.6304
  680MOL0     C89681   5.752   3.799   0.774  0.2804  0.5683 -0.6688
  680MOL0     C89682   6.049   4.138   0.825  0.6893  0.0843  0.2928
  680MOL0     C89683   6.112   4.177   0.705  0.0651 -0.6216  0.1817
  680MOL0     C89684   6.214   4.277   0.703  0.1231 -0.1380  0.4455
  680MOL0     C89685   6.248   4.343   0.812  1.7899  1.0503 -0.0365
  680MOL0     O89686   6.339   4.437   0.830 -0.9511  0.3623 -0.1853
  680MOL0     C89687   6.418   4.473   0.711 -0.0878  0.4092 -0.4872
  680MOL0     C89688   6.540   4.554   0.764  0.2970  0.1702 -0.3258
  680MOL0     C89689   6.650   4.476   0.835  0.5054  0.6449  0.2542
  680MOL0     C89690   6.773   4.554   0.888 -0.7770 -0.3653 -0.1148
  680MOL0     C89691   6.866   4.607   0.783  0.3162  0.8923 -0.0164
  680MOL0     C89692   6.925   4.611   0.677  0.0518  0.7728  0.1024
  680MOL0     C89693   6.177   4.321   0.927  0.8787  0.3851  0.4544
  680MOL0     C89694   6.081   4.216   0.937 -0.0307 -1.5876 -0.9983
  680MOL0     H89695   5.961   3.826   0.502  1.9253 -0.9479  2.2597
  680MOL0     H89696   5.838   3.628   0.440  1.0147 -0.0247 -0.2890
  680MOL0     H89697   5.474   3.607   0.573  1.2096  1.5341 -2.3070
  680MOL0     H89698   5.464   3.461   0.657 -0.0034 -2.2348 -1.0104
  680MOL0     H89699   5.520   3.324   0.466 -3.3996 -1.4327 -1.4554
  680MOL0     H89700   5.536   3.455   0.353 -0.9128 -2.1754 -1.6191
  680MOL0     H89701   5.317   3.371   0.314 -2.6276  1.3986 -0.7033
  680MOL0     H89702   5.286   3.517   0.410 -0.4713 -0.5776 -4.5502
  680MOL0     H89703   5.256   3.215   0.476 -0.8137  0.0676  0.0030
  680MOL0     H89704   5.270   3.335   0.611 -1.4380 -3.8264  0.6896
  680MOL0     H89705   5.077   3.368   0.363 -2.7545 -1.0547 -0.5101
  680MOL0     H89706   5.073   3.451   0.517 -0.9284 -1.4646  1.2142
  680MOL0     H89707   5.015   3.148   0.483  1.2453 -1.8657  3.5224
  680MOL0     H89708   4.894   3.275   0.536  0.6706  3.4786 -0.1823
  680MOL0     H89709   4.964   3.144   0.728  0.6158  0.5742  0.2391
  680MOL0     H89710   5.134   3.154   0.680 -2.0295 -3.9895 -0.1815
  680MOL0     H89711   5.093   3.415   0.725  0.2302  0.1630  1.4903
  680MOL0     H89712   5.084   3.312   0.860  1.3045  0.7591  0.3433
  680MOL0     H89713   4.845   3.482   0.622  0.2640 -1.1037 -0.5397
  680MOL0     H89714   4.540   3.602   0.830 -1.8528  1.4871 -1.9523
  680MOL0     H89715   4.588   3.580   0.662 -0.4209 -0.9144  1.1296
  680MOL0     H89716   4.770   3.771   0.744  0.6620  4.4321  1.0840
  680MOL0     H89717   4.657   3.801   0.869 -2.5707  4.0462 -1.8897
  680MOL0     H89718   4.549   3.819   0.575 -2.1309 -0.8355  0.3719
  680MOL0     H89719   4.485   3.882   0.726 -0.0793  1.0743 -0.2948
  680MOL0     H89720   4.620   4.045   0.567  0.4676 -1.1405 -2.1617
  680MOL0     H89721   4.756   3.942   0.621 -0.5470 -0.2181 -1.7186
  680MOL0     H89722   4.667   4.159   0.990 -0.2294 -0.0612  0.0798
  680MOL0     H89723   4.611   4.387   1.041  1.2935 -2.0537  0.6135
  680MOL0     H89724   4.612   4.800   0.909 -0.4555  1.5258 -0.4006
  680MOL0     H89725   4.563   5.039   0.900  1.0863 -0.5190 -0.8587
  680MOL0     H89726   4.429   5.197   0.839 -1.5518 -0.0102 -0.2757
  680MOL0     H89727   4.508   5.288   0.970 -0.2982 -0.7213  0.9574
  680MOL0     H89728   4.215   5.316   0.848  0.1975 -1.8780  0.6841
  680MOL0     H89729   4.327   5.439   0.825 -0.1808  0.1762  0.3731
  680MOL0     H89730   4.358   5.425   1.084  2.0304  0.1351 -4.2900
  680MOL0     H89731   4.190   5.362   1.070 -4.0625  3.9591 -1.7098
  680MOL0     H89732   4.145   5.562   1.118 -3.5548 -1.1758 -1.6712
  680MOL0     H89733   4.285   5.640   1.050  0.9653 -2.0008  3.9341
  680MOL0     H89734   4.035   5.545   0.896  0.6692 -0.5101  1.5822
  680MOL0     H89735   4.181   5.613   0.819  2.9179  2.3655  1.1881
  680MOL0     H89736   4.148   5.822   0.915  0.4634 -1.4850 -0.7467
  680MOL0     H89737   4.024   5.777   1.029 -0.6172  1.2774 -0.2862
  680MOL0     H89738   3.872   5.719   0.856  1.1474 -2.4193 -1.5756
  680MOL0     H89739   3.909   5.886   0.865 -2.3564 -1.6741  0.8164
  680MOL0     H89740   3.882   5.814   0.649 -1.7994 -2.7384  1.8180
  680MOL0     H89741   4.003   5.691   0.658  0.2712  1.1398 -1.9363
  680MOL0     H89742   4.228   4.952   1.171  0.3909 -0.4729  0.7460
  680MOL0     H89743   4.283   4.731   1.178 -0.3469 -1.2332 -2.0304
  680MOL0     H89744   4.400   4.417   0.659  4.0180  0.0482 -4.3088
  680MOL0     H89745   4.508   4.205   0.601 -1.7984  1.4971 -0.1267
  680MOL0     H89746   5.612   3.654   0.813 -0.8395  0.3642 -0.9493
  680MOL0     H89747   5.737   3.832   0.876 -2.5256 -3.0238  0.2986
  680MOL0     H89748   6.094   4.124   0.612 -1.7436  3.9894 -2.4219
  680MOL0     H89749   6.260   4.293   0.606  0.1061 -2.3019  0.0250
  680MOL0     H89750   6.351   4.528   0.644 -1.1811  0.9857  1.0155
  680MOL0     H89751   6.454   4.382   0.663 -5.3719 -1.3801 -1.7899
  680MOL0     H89752   6.574   4.608   0.675  3.5459 -3.1223 -1.3510
  680MOL0     H89753   6.500   4.632   0.829 -1.2320 -0.2290 -0.7434
  680MOL0     H89754   6.693   4.399   0.770  2.5217  0.5052  1.6701
  680MOL0     H89755   6.605   4.430   0.924  0.2986  1.5463  0.6255
  680MOL0     H89756   6.755   4.634   0.961 -0.4676  1.6404 -2.1243
  680MOL0     H89757   6.822   4.481   0.954 -1.1033  3.4627  4.9700
  680MOL0     H89758   6.975   4.623   0.583 -0.9806 -1.1901 -0.7426
  680MOL0     H89759   6.187   4.376   1.020  0.3403  0.0954  0.6945
  680MOL0     H89760   6.031   4.206   1.033 -2.1056 -1.1828 -2.0000
  681MOL0     O89761   1.098   2.455   4.164 -0.5458 -0.2216 -0.1356
  681MOL0     C89762   1.067   2.340   4.159  0.6586  1.0539  0.5751
  681MOL0     O89763   1.048   2.271   4.038 -0.2938 -0.5297  0.5745
  681MOL0     C89764   1.077   2.320   3.914  1.0313  0.0903 -0.9612
  681MOL0     C89765   1.009   2.443   3.880 -0.6360  0.3031 -0.1473
  681MOL0     C89766   1.040   2.508   3.764  0.0318 -0.5077  0.4650
  681MOL0     C89767   1.137   2.457   3.681  0.9176  0.8205 -0.1659
  681MOL0     O89768   1.167   2.504   3.556 -0.8743  0.0492 -0.8132
  681MOL0     C89769   1.152   2.638   3.531  0.4926  0.1246 -0.3714
  681MOL0     C89770   1.254   2.678   3.420 -0.5485  0.4598 -0.3032
  681MOL0     C89771   1.215   2.632   3.284  0.6565 -0.1477 -0.1396
  681MOL0     C89772   1.102   2.723   3.228 -0.2147 -0.0205 -0.4384
  681MOL0     C89773   1.080   2.680   3.084 -0.4393  0.2835 -0.1674
  681MOL0     C89774   0.964   2.583   3.055 -0.5758  0.0160  0.1013
  681MOL0     C89775   0.970   2.437   3.084  0.2281 -0.7932  0.3370
  681MOL0     C89776   0.834   2.389   3.142 -0.4446  0.7088  0.3722
  681MOL0     N89777   0.854   2.247   3.196 -0.2341  0.0487 -0.0976
  681MOL0     C89778   0.967   2.206   3.273 -0.2162 -0.4243  0.3865
  681MOL0     C89779   0.934   2.079   3.306  0.5957 -0.0469 -0.2756
  681MOL0     C89780   1.010   1.980   3.396 -0.2855  0.6074 -0.2668
  681MOL0     C89781   0.968   1.991   3.540 -0.2676 -0.7640 -0.4671
  681MOL0     C89782   1.021   1.875   3.623  0.6050 -0.8000  0.6895
  681MOL0     C89783   0.982   1.895   3.778  0.2926 -0.0605  0.2417
  681MOL0     O89784   1.015   1.775   3.853  0.2172  0.5006 -0.1190
  681MOL0     C89785   0.976   1.752   3.984 -0.0203  0.9082  0.0028
  681MOL0     C89786   1.016   1.631   4.045  0.8218  0.3476 -0.0091
  681MOL0     C89787   0.972   1.608   4.170  0.3939  0.1740 -0.7583
  681MOL0     C89788   0.890   1.699   4.239  0.2306  0.1130  0.5348
  681MOL0     C89789   0.843   1.648   4.374  0.9677 -0.5232  0.3893
  681MOL0     O89790   0.897   1.542   4.430 -0.4506  0.0063 -0.5304
  681MOL0     C89791   0.857   1.509   4.561  0.4090  0.1454 -0.4084
  681MOL0     C89792   0.855   1.591   4.681  0.6735  0.5245 -0.5012
  681MOL0     C89793   0.794   1.549   4.802 -0.8307 -0.0783  0.9381
  681MOL0     C89794   0.721   1.435   4.804 -0.3413 -0.1262  0.1159
  681MOL0     O89795   0.643   1.404   4.914 -0.9640  0.2996 -0.0287
  681MOL0     C89796   0.636   1.492   5.026 -0.2654  0.4364  0.0983
  681MOL0     C89797   0.584   1.417   5.150 -0.3470 -0.6136  1.5070
  681MOL0     C89798   0.619   1.461   5.293 -0.5313  0.6070  0.2743
  681MOL0     C89799   0.550   1.359   5.375 -0.2535 -0.1972  0.0948
  681MOL0     C89800   0.563   1.396   5.523  0.4405 -0.1520  0.9198
  681MOL0     C89801   0.427   1.470   5.564  0.2782 -0.5477 -0.3656
  681MOL0     C89802   0.448   1.539   5.695 -0.2761  0.1085  0.4717
  681MOL0     C89803   0.326   1.627   5.713  0.9346 -0.6009 -0.6030
  681MOL0    Cl89804   0.363   1.753   5.840 -0.1727  0.2196 -0.2239
  681MOL0     C89805   0.723   1.348   4.699 -0.2840  0.7728  0.4506
  681MOL0     C89806   0.791   1.384   4.582 -0.0463 -1.1226 -0.0925
  681MOL0     O89807   0.749   1.712   4.426  0.5896 -0.6458  0.1490
  681MOL0     C89808   0.859   1.817   4.185  0.1686 -0.5919  0.3996
  681MOL0     C89809   0.910   1.847   4.060  1.2615 -0.0077 -0.6509
  681MOL0     N89810   0.802   2.052   3.262  0.4325 -0.2774 -0.3154
  681MOL0     N89811   0.755   2.146   3.187 -1.3392  0.0809 -0.1537
  681MOL0     C89812   1.211   2.348   3.719 -0.1727 -0.3246 -0.0223
  681MOL0     C89813   1.175   2.274   3.831  0.2427 -0.8315  0.0295
  681MOL0     C89814   1.031   2.259   4.276  0.5385 -0.5390 -0.1349
  681MOL0     C89815   0.992   2.321   4.393  0.0990  0.1380  0.0822
  681MOL0     C89816   0.967   2.247   4.508 -0.0091 -0.1715  0.5174
  681MOL0     C89817   0.970   2.104   4.508  0.6940 -0.4752  0.0049
  681MOL0     O89818   0.919   2.038   4.615 -0.1729 -0.8584  0.1396
  681MOL0     C89819   0.919   2.093   4.748 -0.1629  0.2010  0.2294
  681MOL0     C89820   0.828   2.007   4.844  0.0740 -0.8339 -0.2285
  681MOL0     C89821   0.826   2.058   4.986 -0.2172  0.2250 -0.9587
  681MOL0     C89822   0.744   1.974   5.094  0.3150  0.6268 -0.1920
  681MOL0     C89823   0.808   1.843   5.124 -0.5625 -0.3000 -0.3193
  681MOL0     C89824   0.873   1.740   5.156 -0.2533 -0.2377  0.4374
  681MOL0     C89825   1.008   2.043   4.390 -0.2308  0.2097  0.0338
  681MOL0     C89826   1.047   2.119   4.274  0.3383  0.2732 -1.0529
  681MOL0     H89827   0.941   2.484   3.954  0.8265 -0.3871  1.7020
  681MOL0     H89828   0.995   2.604   3.737  0.6594 -0.5429 -0.7907
  681MOL0     H89829   1.167   2.689   3.626  1.3827 -0.2976 -0.2757
  681MOL0     H89830   1.058   2.660   3.479  0.2185 -1.8966 -0.8136
  681MOL0     H89831   1.346   2.625   3.445 -0.2668  1.5534  1.0801
  681MOL0     H89832   1.284   2.783   3.422 -0.2814  0.5584 -3.5766
  681MOL0     H89833   1.182   2.528   3.288 -0.9728  0.0683 -3.8618
  681MOL0     H89834   1.297   2.655   3.215  0.8875  4.3002  1.2724
  681MOL0     H89835   1.004   2.719   3.276 -0.3722 -0.0962 -0.7628
  681MOL0     H89836   1.126   2.830   3.233  0.7258 -0.2389 -0.1129
  681MOL0     H89837   1.167   2.624   3.051 -1.2956 -0.1866 -1.7184
  681MOL0     H89838   1.069   2.776   3.032 -0.9361  0.9763  1.1318
  681MOL0     H89839   0.951   2.579   2.946 -0.1323  0.5592  0.0230
  681MOL0     H89840   0.870   2.627   3.090 -0.7823 -0.3889  0.0562
  681MOL0     H89841   0.994   2.394   2.987  0.1193  0.1094 -0.1049
  681MOL0     H89842   1.047   2.434   3.162  1.2043  0.6493 -0.5352
  681MOL0     H89843   0.757   2.405   3.066  0.4672  2.0772 -0.3123
  681MOL0     H89844   0.800   2.453   3.224  0.0203  1.1038  0.2630
  681MOL0     H89845   1.042   2.270   3.319 -1.2026  0.7288  0.4496
  681MOL0     H89846   1.118   1.998   3.395  0.5199 -3.0775  1.9264
  681MOL0     H89847   1.009   1.878   3.358  2.3676  1.0105 -1.6087
  681MOL0     H89848   0.859   1.982   3.540 -0.2223 -1.3868 -0.3713
  681MOL0     H89849   0.987   2.084   3.595 -0.7594 -1.0394  0.1867
  681MOL0     H89850   0.988   1.781   3.576  0.5712 -0.5294  0.1684
  681MOL0     H89851   1.129   1.877   3.605  0.4074 -4.5236 -2.3011
  681MOL0     H89852   0.875   1.915   3.780 -0.2039 -1.9370 -2.2407
  681MOL0     H89853   1.024   1.986   3.823 -1.2271  1.3820 -1.1507
  681MOL0     H89854   1.074   1.560   3.988  2.6105  0.6281  1.3558
  681MOL0     H89855   1.007   1.516   4.215  1.3253 -0.4992 -2.7393
  681MOL0     H89856   0.891   1.693   4.678 -1.6381  1.3977 -1.1505
  681MOL0     H89857   0.800   1.632   4.872  2.2544 -0.4849  1.3113
  681MOL0     H89858   0.569   1.571   4.992 -2.3208 -0.9061  0.8457
  681MOL0     H89859   0.735   1.530   5.054 -0.2210  2.0662 -2.0348
  681MOL0     H89860   0.611   1.312   5.138 -3.9474 -1.3368 -3.2151
  681MOL0     H89861   0.475   1.425   5.143 -0.2731  0.6680  1.5220
  681MOL0     H89862   0.567   1.555   5.313 -2.6875  0.3094 -3.0314
  681MOL0     H89863   0.724   1.466   5.321  0.1524  0.5067 -2.0527
  681MOL0     H89864   0.444   1.360   5.350 -0.0005 -0.6999 -1.0600
  681MOL0     H89865   0.582   1.257   5.353  1.3731 -0.1355  1.9072
  681MOL0     H89866   0.642   1.467   5.548 -0.0251 -0.2881  2.9671
  681MOL0     H89867   0.584   1.304   5.578  1.6282  0.1358  0.9669
  681MOL0     H89868   0.351   1.394   5.580 -0.7140  0.2925 -0.9505
  681MOL0     H89869   0.399   1.552   5.497 -0.3224 -1.0533 -0.7338
  681MOL0     H89870   0.468   1.468   5.776  0.9259  0.4838  0.5187
  681MOL0     H89871   0.531   1.610   5.685 -3.0013  3.6954  0.9063
  681MOL0     H89872   0.229   1.581   5.732 -0.4922  3.0684  2.2179
  681MOL0     H89873   0.303   1.688   5.625 -0.9892  0.9710  0.8919
  681MOL0     H89874   0.674   1.252   4.715 -0.9323  1.2345  1.3270
  681MOL0     H89875   0.801   1.316   4.498  1.5912 -3.4637  1.8677
  681MOL0     H89876   0.804   1.891   4.241  2.8278  1.0302  1.0464
  681MOL0     H89877   0.893   1.947   4.020  2.8513  0.5272 -0.0515
  681MOL0     H89878   1.289   2.321   3.648  0.2249  1.3135 -0.2409
  681MOL0     H89879   1.215   2.176   3.851 -0.2877 -0.6101  2.5445
  681MOL0     H89880   0.987   2.430   4.388 -0.7438  0.2587  2.3147
  681MOL0     H89881   0.938   2.311   4.591  0.3583  1.9426 -0.9194
  681MOL0     H89882   0.882   2.195   4.764  1.8573  0.9412  0.4803
  681MOL0     H89883   1.021   2.091   4.787 -0.8992 -2.6119  2.3422
  681MOL0     H89884   0.723   2.015   4.816 -1.4012 -1.3977  4.3229
  681MOL0     H89885   0.869   1.905   4.843  2.0334 -0.1111  0.5633
  681MOL0     H89886   0.776   2.155   4.984  0.0818  0.3815 -0.7100
  681MOL0     H89887   0.924   2.079   5.029 -2.1830  0.1077  4.1903
  681MOL0     H89888   0.729   2.029   5.188 -1.5061 -0.6727  0.3329
  681MOL0     H89889   0.641   1.971   5.059 -0.0450 -3.1744  0.8248
  681MOL0     H89890   0.914   1.656   5.208 -0.7447 -1.5567 -1.2322
  681MOL0     H89891   1.006   1.934   4.389  0.2010  0.1564  1.5525
  681MOL0     H89892   1.077   2.071   4.182 -0.0432 -2.6754  0.2160
  682MOL0     O89893   6.300   1.958   3.813 -0.4106  0.2364 -0.0687
  682MOL0     C89894   6.405   1.901   3.828 -0.4055 -0.0307 -0.0466
  682MOL0     O89895   6.465   1.853   3.947  0.0316 -0.5982  1.1003
  682MOL0     C89896   6.389   1.822   4.059 -0.3418  0.1414  0.2489
  682MOL0     C89897   6.415   1.903   4.168  0.7304  0.1312 -1.2592
  682MOL0     C89898   6.340   1.878   4.287 -0.2633  0.1374 -0.0970
  682MOL0     C89899   6.248   1.773   4.287 -1.1437  0.7498 -0.2813
  682MOL0     O89900   6.171   1.758   4.399  0.1736  0.7781  0.3779
  682MOL0     C89901   6.154   1.628   4.457 -0.3800 -0.6004  0.3457
  682MOL0     C89902   6.283   1.572   4.521  0.8461 -0.4549 -0.0513
  682MOL0     C89903   6.313   1.648   4.648  0.0743 -0.4322  1.7118
  682MOL0     C89904   6.439   1.598   4.730 -1.0538  0.6756 -0.3426
  682MOL0     C89905   6.579   1.614   4.668 -0.0489 -0.2191  0.9026
  682MOL0     C89906   6.604   1.738   4.579  0.3394 -0.8526 -0.1149
  682MOL0     C89907   6.754   1.755   4.542  0.3037 -0.5961  0.2744
  682MOL0     C89908   6.765   1.880   4.448 -0.4775 -0.2225  0.7504
  682MOL0     N89909   6.903   1.907   4.400 -0.4457  0.3400 -0.2328
  682MOL0     C89910   6.944   1.929   4.275 -1.4689  0.4077 -0.5420
  682MOL0     C89911   7.085   1.926   4.275  0.4577  0.1162 -0.4754
  682MOL0     C89912   7.181   1.919   4.156  0.8827 -0.5715 -0.3131
  682MOL0     C89913   7.279   2.040   4.150 -0.3196  0.7454 -0.5055
  682MOL0     C89914   7.377   2.037   4.028 -0.0357  0.1748 -0.0313
  682MOL0     C89915   7.457   2.170   3.998 -0.5060 -0.3150  0.1657
  682MOL0     O89916   7.539   2.173   4.117 -0.1841 -1.1225 -0.0806
  682MOL0     C89917   7.625   2.277   4.121 -0.4116 -0.8611 -0.6977
  682MOL0     C89918   7.653   2.378   4.025  1.3113  0.7859 -0.5762
  682MOL0     C89919   7.755   2.476   4.042  1.1101 -0.0756 -2.0832
  682MOL0     C89920   7.828   2.477   4.166  0.2164 -0.0542 -0.1556
  682MOL0     C89921   7.936   2.568   4.191  0.0733 -0.6178 -0.5054
  682MOL0     O89922   7.936   2.677   4.110 -0.8077  0.6513 -0.7496
  682MOL0     C89923   7.995   2.796   4.143 -0.2318 -0.4709  0.8228
  682MOL0     C89924   8.035   2.841   4.268 -0.0083 -0.5408  0.0989
  682MOL0     C89925   8.097   2.968   4.293  0.1007  0.2524  0.1279
  682MOL0     C89926   8.128   3.055   4.185 -0.7698 -0.4176  0.6055
  682MOL0     O89927   8.201   3.172   4.204  0.6185  0.0660  0.0768
  682MOL0     C89928   8.173   3.241   4.337  0.3820 -0.7776  0.7039
  682MOL0     C89929   8.226   3.387   4.334  0.0920 -0.2329  0.7403
  682MOL0     C89930   8.165   3.465   4.451  0.2186 -0.1730 -0.1290
  682MOL0     C89931   8.162   3.619   4.430 -0.2499  0.7942  0.1622
  682MOL0     C89932   8.121   3.695   4.559 -0.8900  0.1658  0.0563
  682MOL0     C89933   8.131   3.850   4.541  0.1200  0.7479  0.0102
  682MOL0     C89934   8.114   3.933   4.663  0.2476 -0.6125 -0.6941
  682MOL0     C89935   8.162   4.082   4.648  0.5578  0.9518  0.3130
  682MOL0    Cl89936   8.075   4.190   4.762  0.8802 -0.2762  0.4921
  682MOL0     C89937   8.086   3.013   4.055  0.9332  0.1830 -0.0992
  682MOL0     C89938   8.024   2.880   4.039 -0.4546  0.5252 -0.2114
  682MOL0     O89939   8.020   2.543   4.283  0.0146  0.2385 -0.1943
  682MOL0     C89940   7.780   2.387   4.270 -0.6264 -0.4230  0.3300
  682MOL0     C89941   7.679   2.290   4.247 -0.6463 -0.5329 -0.7564
  682MOL0     N89942   7.115   1.880   4.407  0.2450  0.5428  0.4815
  682MOL0     N89943   7.008   1.868   4.473 -0.6708 -0.0212 -0.7369
  682MOL0     C89944   6.230   1.692   4.175  0.0756  0.3125 -0.0962
  682MOL0     C89945   6.303   1.713   4.062 -0.1974 -0.4617  0.2175
  682MOL0     C89946   6.479   1.877   3.708 -0.7377  0.8305 -1.1260
  682MOL0     C89947   6.484   1.975   3.604  0.7927  0.6305  0.3833
  682MOL0     C89948   6.572   1.951   3.501 -0.4435  0.2174  0.1907
  682MOL0     C89949   6.658   1.839   3.499  0.5637 -0.1903  0.0081
  682MOL0     O89950   6.743   1.823   3.393 -0.0107 -0.0557  0.2651
  682MOL0     C89951   6.748   1.696   3.337 -0.3706 -0.1248  0.4537
  682MOL0     C89952   6.828   1.686   3.212 -0.5885 -0.2429 -0.2618
  682MOL0     C89953   6.774   1.781   3.103  0.0682 -0.2704  0.6593
  682MOL0     C89954   6.828   1.921   3.120  0.2467  0.0829 -0.2575
  682MOL0     C89955   6.965   1.937   3.068  0.6436  0.9331  0.5858
  682MOL0     C89956   7.077   1.957   3.018  0.7280  0.1448 -0.4531
  682MOL0     C89957   6.651   1.747   3.600 -0.3683  0.5361  0.2986
  682MOL0     C89958   6.570   1.764   3.708  0.4400  0.3576  0.2886
  682MOL0     H89959   6.478   1.990   4.149 -1.0374  1.5554 -0.8012
  682MOL0     H89960   6.334   1.931   4.382 -0.6188  2.2636 -1.2490
  682MOL0     H89961   6.106   1.563   4.383 -1.3231 -0.8866  1.1875
  682MOL0     H89962   6.074   1.649   4.528  0.6618  0.8210  1.1522
  682MOL0     H89963   6.375   1.586   4.463  1.2024  1.6549  0.9323
  682MOL0     H89964   6.268   1.467   4.548 -3.2590  0.3568  1.5679
  682MOL0     H89965   6.229   1.644   4.718 -1.1979 -1.3930  0.1620
  682MOL0     H89966   6.333   1.750   4.614  4.7502 -2.5681 -3.5272
  682MOL0     H89967   6.442   1.659   4.821 -2.0270  1.8150 -1.0486
  682MOL0     H89968   6.419   1.494   4.759  1.2715  0.0002 -0.9015
  682MOL0     H89969   6.598   1.527   4.605  0.5720 -0.1296  0.9574
  682MOL0     H89970   6.660   1.617   4.742  1.7652  1.6205 -1.0196
  682MOL0     H89971   6.557   1.825   4.627 -1.2127 -2.3036  1.1233
  682MOL0     H89972   6.549   1.716   4.487  1.5552 -4.1084 -0.2095
  682MOL0     H89973   6.806   1.778   4.635 -4.4688 -0.0135  3.1201
  682MOL0     H89974   6.789   1.667   4.486  1.0411 -0.5273  0.6203
  682MOL0     H89975   6.732   1.970   4.502  3.4383  1.5912  0.4411
  682MOL0     H89976   6.700   1.860   4.362  2.5607 -2.0933 -1.2616
  682MOL0     H89977   6.888   1.940   4.182  1.2686 -1.2068 -2.5389
  682MOL0     H89978   7.119   1.924   4.067  0.2663  2.1268  0.1792
  682MOL0     H89979   7.238   1.826   4.160 -0.2418 -1.2724 -0.1372
  682MOL0     H89980   7.340   2.046   4.240 -2.0542  0.8127  0.7164
  682MOL0     H89981   7.213   2.127   4.143 -0.7487  0.3083 -2.4299
  682MOL0     H89982   7.456   1.962   4.020  0.6636  0.9307 -0.3672
  682MOL0     H89983   7.324   2.018   3.934  0.4322  0.9083 -0.4581
  682MOL0     H89984   7.396   2.260   3.990  1.2384  0.8958 -0.1613
  682MOL0     H89985   7.516   2.148   3.908  1.9373  1.8159  1.0928
  682MOL0     H89986   7.587   2.376   3.939 -1.2586 -2.6113  1.1946
  682MOL0     H89987   7.777   2.541   3.959  0.5739 -1.0214 -2.9924
  682MOL0     H89988   8.017   2.784   4.359  2.6506 -0.2898  0.8682
  682MOL0     H89989   8.161   2.974   4.381  2.3969 -0.7584 -1.3913
  682MOL0     H89990   8.213   3.194   4.427 -0.9157  1.2939  2.4440
  682MOL0     H89991   8.065   3.229   4.341 -0.1905  0.9734 -3.6158
  682MOL0     H89992   8.199   3.436   4.239  1.2309 -0.1827  0.4328
  682MOL0     H89993   8.335   3.389   4.336  0.0889  0.8165  3.3932
  682MOL0     H89994   8.220   3.448   4.544  0.2109 -0.1879 -0.1272
  682MOL0     H89995   8.063   3.429   4.464  0.5426 -2.2527 -2.5203
  682MOL0     H89996   8.265   3.649   4.409 -0.0087 -0.0447  0.1094
  682MOL0     H89997   8.095   3.641   4.346 -1.5005 -1.3485  0.5227
  682MOL0     H89998   8.174   3.656   4.646 -1.1592 -1.8223 -0.5990
  682MOL0     H89999   8.018   3.662   4.576 -0.1599 -3.1684 -1.0551
  682MOL0     H90000   8.056   3.860   4.462 -0.5168 -1.7766  0.1958
  682MOL0     H90001   8.232   3.871   4.505 -0.6410  1.7531 -1.6282
  682MOL0     H90002   8.009   3.932   4.695 -0.2122 -1.4011 -2.1706
  682MOL0     H90003   8.166   3.892   4.750  1.5574  1.3870 -0.4723
  682MOL0     H90004   8.127   4.112   4.549 -2.0713  0.5993  1.0474
  682MOL0     H90005   8.270   4.087   4.658  0.6031 -0.8179  1.1494
  682MOL0     H90006   8.094   3.075   3.967  0.8162  1.2341  0.6050
  682MOL0     H90007   7.996   2.837   3.943 -2.0092 -0.3298  0.5860
  682MOL0     H90008   7.838   2.389   4.362  0.0600  1.4518 -0.1026
  682MOL0     H90009   7.666   2.213   4.323 -1.8076 -2.0323 -2.3830
  682MOL0     H90010   6.162   1.608   4.182 -1.5779  1.6440  0.5506
  682MOL0     H90011   6.304   1.636   3.986 -0.5481 -0.1231 -0.1346
  682MOL0     H90012   6.417   2.060   3.617 -0.5005 -0.1225 -1.0004
  682MOL0     H90013   6.565   2.028   3.425  0.1988 -1.7446 -1.9531
  682MOL0     H90014   6.649   1.651   3.328 -0.5384  0.4041 -0.5795
  682MOL0     H90015   6.812   1.651   3.413  0.4454  3.0581  1.8186
  682MOL0     H90016   6.931   1.711   3.239 -0.5442 -2.8868  2.6076
  682MOL0     H90017   6.832   1.586   3.168 -0.9834 -0.9961  1.3276
  682MOL0     H90018   6.666   1.794   3.104  0.2345  2.8795 -3.0767
  682MOL0     H90019   6.809   1.746   3.006 -0.2845 -0.7699  0.7063
  682MOL0     H90020   6.754   1.988   3.076 -1.9128 -2.4791 -0.7564
  682MOL0     H90021   6.840   1.948   3.226  0.0194 -0.2545 -0.1424
  682MOL0     H90022   7.169   1.970   2.965  0.9057  1.0339  0.0568
  682MOL0     H90023   6.727   1.670   3.601  0.7094  1.3999 -2.7926
  682MOL0     H90024   6.585   1.705   3.797  1.8571 -1.5743 -1.1399
  683MOL0     O90025   5.685   5.479  11.396  0.2306 -0.1791  1.1301
  683MOL0     C90026   5.693   5.409  11.495  0.0034  0.0364  0.2104
  683MOL0     O90027   5.808   5.338  11.539  0.0425 -0.6548  0.1604
  683MOL0     C90028   5.910   5.323  11.447 -0.6065 -0.7610 -0.2663
  683MOL0     C90029   6.034   5.319  11.512 -0.1453  0.0693 -1.2168
  683MOL0     C90030   6.151   5.327  11.431 -0.4414 -0.4976  1.0114
  683MOL0     C90031   6.138   5.346  11.296  0.3956  0.5824  0.1631
  683MOL0     O90032   6.251   5.369  11.213  0.2211  0.5837 -0.1074
  683MOL0     C90033   6.377   5.405  11.280  0.7188 -0.3202  0.3808
  683MOL0     C90034   6.447   5.477  11.176  0.6178 -0.1079  0.0368
  683MOL0     C90035   6.527   5.374  11.093  0.1868  0.0277 -0.0457
  683MOL0     C90036   6.648   5.324  11.180  0.3299 -0.7406  0.4291
  683MOL0     C90037   6.730   5.224  11.090 -0.7194 -0.0608 -0.5000
  683MOL0     C90038   6.787   5.298  10.969 -0.3000  1.4718  0.4159
  683MOL0     C90039   6.915   5.224  10.915 -0.6552  0.0904  0.5492
  683MOL0     C90040   6.961   5.304  10.790 -0.1210 -0.0490  0.7949
  683MOL0     N90041   6.882   5.294  10.671  0.2006 -0.2988 -0.1686
  683MOL0     C90042   6.777   5.371  10.630 -0.4887  0.9466  0.4132
  683MOL0     C90043   6.718   5.311  10.521 -0.8883 -0.4484 -0.2258
  683MOL0     C90044   6.590   5.360  10.458 -0.0345 -0.3505 -0.2654
  683MOL0     C90045   6.489   5.422  10.548  0.2089 -0.0461 -1.1287
  683MOL0     C90046   6.436   5.300  10.633 -0.0912  0.2335  0.6056
  683MOL0     C90047   6.298   5.330  10.698  0.2492  0.1077  1.5685
  683MOL0     O90048   6.306   5.448  10.779  0.0470  0.4739 -0.0760
  683MOL0     C90049   6.197   5.503  10.840  0.1253  0.1010  0.3147
  683MOL0     C90050   6.215   5.628  10.896  0.6869 -0.3814 -0.4121
  683MOL0     C90051   6.117   5.694  10.967 -1.1523  0.0636 -0.5158
  683MOL0     C90052   5.989   5.642  10.972 -0.1689 -0.3497 -0.0300
  683MOL0     C90053   5.886   5.711  11.045 -0.8737 -1.3216 -0.3431
  683MOL0     O90054   5.929   5.793  11.146 -0.3586  0.4153  0.0331
  683MOL0     C90055   5.820   5.843  11.214 -1.1462  0.5398  0.5416
  683MOL0     C90056   5.771   5.783  11.333  0.2255 -1.8450  0.8478
  683MOL0     C90057   5.661   5.841  11.398  0.1387  0.3965  0.2722
  683MOL0     C90058   5.612   5.963  11.354 -1.3246  0.6834 -1.1300
  683MOL0     O90059   5.516   6.008  11.440  0.0132  0.0470  0.7676
  683MOL0     C90060   5.444   6.133  11.409 -0.2622 -0.5383 -0.2242
  683MOL0     C90061   5.335   6.180  11.507 -0.7088  0.8403  0.3810
  683MOL0     C90062   5.300   6.334  11.497  1.2225  0.5269  0.2943
  683MOL0     C90063   5.378   6.403  11.608  0.7766 -0.2403 -0.6482
  683MOL0     C90064   5.533   6.423  11.597 -0.5192  0.5879  0.4073
  683MOL0     C90065   5.610   6.478  11.716  0.2915 -0.1995 -0.1872
  683MOL0     C90066   5.757   6.489  11.682 -0.6748  0.1522 -1.1111
  683MOL0     C90067   5.840   6.524  11.812 -0.9452 -0.3149  0.5917
  683MOL0    Cl90068   5.895   6.384  11.902 -0.7710  0.2790 -0.3976
  683MOL0     C90069   5.665   6.035  11.245 -0.4597 -1.2641 -0.7373
  683MOL0     C90070   5.767   5.972  11.171  0.3366  0.0991 -0.2766
  683MOL0     O90071   5.773   5.692  11.004 -0.0578 -0.0341 -0.0320
  683MOL0     C90072   5.966   5.512  10.925 -0.2424 -0.0091 -0.3750
  683MOL0     C90073   6.071   5.443  10.853 -0.2305 -0.4159  0.0897
  683MOL0     N90074   6.799   5.199  10.494  0.3737 -0.4079  0.1466
  683MOL0     N90075   6.894   5.192  10.580 -0.5087 -0.6768 -0.5144
  683MOL0     C90076   6.014   5.317  11.238 -0.6202 -0.0245 -0.5016
  683MOL0     C90077   5.901   5.295  11.311 -0.3696  0.0864 -0.2186
  683MOL0     C90078   5.562   5.391  11.574  1.0452 -0.2999 -0.6362
  683MOL0     C90079   5.438   5.456  11.524 -0.2258  0.0900 -0.3602
  683MOL0     C90080   5.325   5.437  11.598 -0.0582 -0.0291 -0.5165
  683MOL0     C90081   5.311   5.366  11.718 -0.3744  0.2983  0.5681
  683MOL0     O90082   5.180   5.326  11.755 -0.3470 -0.1662  0.4960
  683MOL0     C90083   5.173   5.189  11.814 -0.7855  0.2636  0.5053
  683MOL0     C90084   5.033   5.134  11.824  0.3246  0.1362 -0.1253
  683MOL0     C90085   4.942   5.235  11.899 -1.4201 -0.1965 -0.7384
  683MOL0     C90086   4.984   5.270  12.053 -0.1661  0.1837 -0.2132
  683MOL0     C90087   4.981   5.153  12.150  0.5212  0.1944  0.1407
  683MOL0     C90088   4.953   5.073  12.234  0.1413  0.1896 -0.5522
  683MOL0     C90089   5.431   5.303  11.761 -0.2068  0.0029 -0.7173
  683MOL0     C90090   5.548   5.315  11.694 -0.7042 -0.7027  0.2093
  683MOL0     H90091   6.040   5.326  11.620  0.1962 -0.0019 -1.2308
  683MOL0     H90092   6.252   5.337  11.469  1.6855  2.4519 -4.1848
  683MOL0     H90093   6.435   5.321  11.318 -1.4081 -1.2114  1.8205
  683MOL0     H90094   6.356   5.478  11.359  0.4224  0.9511 -0.8451
  683MOL0     H90095   6.517   5.554  11.210 -0.7036  1.1321  0.0015
  683MOL0     H90096   6.376   5.535  11.117  3.1072  2.9054 -0.2836
  683MOL0     H90097   6.552   5.421  10.997 -0.5805  2.7597  0.9784
  683MOL0     H90098   6.457   5.292  11.075 -0.8365  0.6043  1.1973
  683MOL0     H90099   6.713   5.410  11.202  2.0658 -1.9210  0.1886
  683MOL0     H90100   6.618   5.284  11.277 -1.8261  1.5830  0.8074
  683MOL0     H90101   6.671   5.135  11.067  1.2764 -2.2186  2.1215
  683MOL0     H90102   6.821   5.193  11.142 -0.6684 -0.2242 -0.6842
  683MOL0     H90103   6.803   5.406  10.976  1.3636  1.6408 -3.4924
  683MOL0     H90104   6.701   5.284  10.903 -0.8612 -3.3616  1.8111
  683MOL0     H90105   6.988   5.221  10.996 -2.1872 -3.3734  2.0271
  683MOL0     H90106   6.903   5.119  10.887 -0.2939 -0.2858  1.7402
  683MOL0     H90107   7.057   5.272  10.750 -0.8033  0.6651 -1.6079
  683MOL0     H90108   6.985   5.406  10.821 -0.1353 -0.7091  3.1507
  683MOL0     H90109   6.731   5.448  10.691 -1.0079  0.1584  1.0534
  683MOL0     H90110   6.538   5.271  10.420 -0.7646 -0.0477  0.0150
  683MOL0     H90111   6.620   5.425  10.375 -2.5807  0.9996 -0.2010
  683MOL0     H90112   6.420   5.483  10.490  1.6932  2.7436 -0.1473
  683MOL0     H90113   6.545   5.499  10.602  1.4232 -0.9798 -0.9952
  683MOL0     H90114   6.422   5.214  10.566 -1.3973  2.4514 -2.2427
  683MOL0     H90115   6.509   5.278  10.711  0.1577 -0.5023  0.1776
  683MOL0     H90116   6.250   5.251  10.755 -2.3040  1.4442  1.4332
  683MOL0     H90117   6.227   5.340  10.615  2.3886  3.7612 -0.0791
  683MOL0     H90118   6.315   5.670  10.892  0.8531 -0.1121  3.3203
  683MOL0     H90119   6.141   5.790  11.014  2.6441 -0.5761 -0.7922
  683MOL0     H90120   5.807   5.691  11.377 -1.8095 -1.9575  2.4113
  683MOL0     H90121   5.617   5.791  11.484 -0.6853 -2.9669 -1.9339
  683MOL0     H90122   5.379   6.119  11.322 -1.8772  1.1431  0.6180
  683MOL0     H90123   5.508   6.218  11.384  0.5677 -2.0308 -3.7581
  683MOL0     H90124   5.376   6.151  11.605  0.6998  3.8081  0.7735
  683MOL0     H90125   5.250   6.115  11.488 -1.6812  2.4721 -1.1780
  683MOL0     H90126   5.193   6.349  11.514  1.5073 -0.0374  3.0656
  683MOL0     H90127   5.326   6.374  11.399 -1.6405  2.2461  0.1179
  683MOL0     H90128   5.325   6.497  11.622  1.3310 -0.0190  0.0566
  683MOL0     H90129   5.354   6.345  11.698 -3.5981 -0.1744 -1.5359
  683MOL0     H90130   5.547   6.479  11.504  2.8540 -0.0973  0.3719
  683MOL0     H90131   5.579   6.325  11.578  0.2181  1.3312 -1.9414
  683MOL0     H90132   5.588   6.416  11.803 -4.1747  0.8505 -0.3158
  683MOL0     H90133   5.571   6.574  11.750  0.1125 -0.0660 -0.7506
  683MOL0     H90134   5.804   6.395  11.649 -0.0274 -0.1235  0.5265
  683MOL0     H90135   5.769   6.559  11.599  2.7955 -3.3371 -3.9906
  683MOL0     H90136   5.781   6.602  11.861  1.5639  2.2166 -0.1505
  683MOL0     H90137   5.928   6.583  11.784 -0.7442 -1.5237 -1.5795
  683MOL0     H90138   5.631   6.135  11.222  3.4833 -0.0087 -2.0130
  683MOL0     H90139   5.807   6.033  11.091 -4.5834  1.0693 -2.3635
  683MOL0     H90140   5.864   5.475  10.937 -0.0930  0.4203  3.6473
  683MOL0     H90141   6.050   5.349  10.803  2.0004 -0.9066 -0.0674
  683MOL0     H90142   6.013   5.303  11.130 -2.1932  3.5883 -1.1046
  683MOL0     H90143   5.806   5.268  11.267 -0.8229  0.7167  0.3474
  683MOL0     H90144   5.444   5.507  11.428 -0.4146 -0.4615 -0.6708
  683MOL0     H90145   5.228   5.466  11.559 -0.9501 -2.0298  0.0754
  683MOL0     H90146   5.212   5.192  11.916 -0.7262  2.1954  0.4561
  683MOL0     H90147   5.236   5.118  11.759 -1.4500  2.1135 -2.8994
  683MOL0     H90148   5.005   5.118  11.719  2.4470 -0.3881 -0.6682
  683MOL0     H90149   5.018   5.033  11.864 -2.9672  0.9266  0.9485
  683MOL0     H90150   4.841   5.195  11.908 -2.5175  2.2570 -1.0796
  683MOL0     H90151   4.933   5.332  11.848  0.6493  1.0208  1.0625
  683MOL0     H90152   5.081   5.320  12.052  2.3475 -4.2312  0.7040
  683MOL0     H90153   4.905   5.337  12.089  0.1044  1.1225 -1.2763
  683MOL0     H90154   4.918   5.015  12.317  0.4511  0.7197 -0.0443
  683MOL0     H90155   5.431   5.252  11.857  0.2044  1.5533  0.1436
  683MOL0     H90156   5.642   5.273  11.727  0.0843 -0.6338 -1.7773
  684MOL0     O90157   5.890   7.343   9.771 -0.0158  0.1474 -0.3272
  684MOL0     C90158   5.784   7.401   9.793 -0.4931 -0.3429  0.7651
  684MOL0     O90159   5.738   7.445   9.917 -0.5847  0.3222 -0.3771
  684MOL0     C90160   5.815   7.405  10.028  0.0100  0.0978 -0.0990
  684MOL0     C90161   5.754   7.319  10.125 -0.1925  0.2135  0.6235
  684MOL0     C90162   5.818   7.296  10.241  0.2201 -0.1933  0.4108
  684MOL0     C90163   5.952   7.343  10.258  0.0418  0.5408 -0.0306
  684MOL0     O90164   6.016   7.285  10.369 -0.3236  0.1153  0.2086
  684MOL0     C90165   5.983   7.322  10.499 -0.4734 -0.2314  0.4355
  684MOL0     C90166   5.972   7.201  10.596 -0.3541  0.6720 -0.6794
  684MOL0     C90167   5.879   7.229  10.716 -0.3989 -0.2988 -0.4370
  684MOL0     C90168   5.742   7.212  10.662  0.1720 -1.1379 -0.1452
  684MOL0     C90169   5.643   7.246  10.773 -0.1443 -0.0831  0.5272
  684MOL0     C90170   5.616   7.399  10.788 -0.3763 -0.4558  0.1731
  684MOL0     C90171   5.497   7.440  10.883 -0.3116 -0.3169  0.3667
  684MOL0     C90172   5.362   7.419  10.834 -0.2722 -0.4440  0.0776
  684MOL0     N90173   5.324   7.484  10.709 -0.0507  0.4930 -0.5495
  684MOL0     C90174   5.338   7.424  10.583 -0.7691  0.2678  0.0106
  684MOL0     C90175   5.329   7.534  10.499 -0.3367  0.7924 -0.8336
  684MOL0     C90176   5.351   7.537  10.346  0.6696 -0.2922 -0.2276
  684MOL0     C90177   5.498   7.522  10.315  0.2399 -0.0310 -0.2611
  684MOL0     C90178   5.587   7.648  10.357  0.1655 -0.0828  0.4410
  684MOL0     C90179   5.731   7.614  10.306 -0.0128 -0.2344  0.0035
  684MOL0     O90180   5.803   7.725  10.350  0.1196 -0.0670 -0.0801
  684MOL0     C90181   5.859   7.820  10.274  1.0552  0.3510 -0.4590
  684MOL0     C90182   5.941   7.790  10.173  0.3625 -0.4142 -0.8518
  684MOL0     C90183   5.987   7.893  10.091  0.3926 -0.5995  1.2452
  684MOL0     C90184   5.947   8.028  10.102  0.7541  0.8797 -1.0446
  684MOL0     C90185   5.980   8.139  10.013 -0.0274  0.7912 -0.4958
  684MOL0     O90186   6.071   8.109   9.918 -0.2121  1.7845  0.1867
  684MOL0     C90187   6.107   8.186   9.812  0.4287  0.1313  0.1476
  684MOL0     C90188   6.232   8.168   9.750  1.2610  0.1786  0.3189
  684MOL0     C90189   6.269   8.240   9.633  0.6901  0.2555 -0.1706
  684MOL0     C90190   6.173   8.321   9.568 -0.9259 -1.1748 -0.7677
  684MOL0     O90191   6.213   8.399   9.462 -0.2596  1.2073 -0.8053
  684MOL0     C90192   6.113   8.470   9.397  0.7553 -0.2160 -0.0358
  684MOL0     C90193   6.182   8.543   9.278 -0.5494 -0.3103  0.4622
  684MOL0     C90194   6.229   8.436   9.181 -0.5930  0.2189  0.8062
  684MOL0     C90195   6.275   8.509   9.050  0.7550  0.1212  0.6048
  684MOL0     C90196   6.335   8.413   8.939  0.7712  0.1090 -0.0932
  684MOL0     C90197   6.417   8.493   8.843  0.7873  0.1717  0.1935
  684MOL0     C90198   6.447   8.407   8.718 -0.4352 -0.6429  0.8180
  684MOL0     C90199   6.486   8.497   8.604  0.0921 -1.2392 -0.1833
  684MOL0    Cl90200   6.572   8.646   8.635  0.2436  0.4034  0.2742
  684MOL0     C90201   6.041   8.325   9.623 -0.1109 -1.1224  1.1863
  684MOL0     C90202   6.011   8.271   9.744 -0.3712 -0.2387  0.5150
  684MOL0     O90203   5.922   8.245  10.017 -0.0602 -0.0798  0.2087
  684MOL0     C90204   5.851   8.055  10.217 -0.0368 -0.3675 -0.3416
  684MOL0     C90205   5.817   7.948  10.302  0.3790  0.1009 -0.0941
  684MOL0     N90206   5.309   7.652  10.576  0.1649 -0.2621 -0.2956
  684MOL0     N90207   5.312   7.617  10.703  0.6341  0.0655  0.4438
  684MOL0     C90208   6.022   7.411  10.155 -0.2524 -0.0229  0.5881
  684MOL0     C90209   5.945   7.450  10.043  0.3865  0.8264 -0.5407
  684MOL0     C90210   5.697   7.424   9.672 -0.0636 -0.4060 -0.6244
  684MOL0     C90211   5.568   7.470   9.687 -0.6546 -0.1530  0.0348
  684MOL0     C90212   5.486   7.492   9.572  0.2263 -0.1551 -1.1023
  684MOL0     C90213   5.544   7.470   9.449  0.7842 -1.1089  0.4312
  684MOL0     O90214   5.471   7.479   9.333 -0.0116 -0.2473  0.5564
  684MOL0     C90215   5.344   7.539   9.319 -0.8031  1.0942  0.0457
  684MOL0     C90216   5.365   7.689   9.336  0.6757  0.4510  0.5468
  684MOL0     C90217   5.229   7.774   9.341 -0.9891  0.5509  0.6499
  684MOL0     C90218   5.261   7.916   9.381  0.6361 -0.1534 -0.5423
  684MOL0     C90219   5.146   8.000   9.345  0.4439  0.1049 -0.3422
  684MOL0     C90220   5.039   8.062   9.317 -0.5095  0.4072 -0.6720
  684MOL0     C90221   5.672   7.417   9.428 -0.4126  0.1302  0.1409
  684MOL0     C90222   5.751   7.399   9.540 -0.3494  0.5910 -0.3463
  684MOL0     H90223   5.649   7.292  10.124 -0.0035 -0.6324 -1.5880
  684MOL0     H90224   5.771   7.236  10.319  3.4441 -3.7140 -0.0331
  684MOL0     H90225   5.890   7.379  10.487  0.7116  1.5873 -0.6326
  684MOL0     H90226   6.057   7.390  10.544  0.6838 -2.3085  1.8239
  684MOL0     H90227   6.068   7.183  10.647 -1.0525  0.8606  0.7642
  684MOL0     H90228   5.946   7.105  10.551  1.4959 -0.6869  0.9669
  684MOL0     H90229   5.897   7.334  10.743  2.2526 -1.0268  1.0402
  684MOL0     H90230   5.895   7.162  10.801  1.6830  2.3973  1.4512
  684MOL0     H90231   5.712   7.264  10.570  0.5799  0.5556  0.6479
  684MOL0     H90232   5.745   7.104  10.645  2.0029 -1.2996  1.0228
  684MOL0     H90233   5.686   7.202  10.864  3.2507 -5.7248 -3.1307
  684MOL0     H90234   5.547   7.196  10.759 -1.1479  1.5438  1.2904
  684MOL0     H90235   5.591   7.446  10.693  0.0889  0.7484  0.6233
  684MOL0     H90236   5.701   7.451  10.832 -1.2091 -0.1120  1.4190
  684MOL0     H90237   5.521   7.396  10.980  3.0692  1.3353  0.4046
  684MOL0     H90238   5.506   7.547  10.907 -3.2656 -0.3809  2.2710
  684MOL0     H90239   5.292   7.445  10.914  0.2543  0.0341  0.3941
  684MOL0     H90240   5.340   7.313  10.819  1.9726 -0.6545 -2.5129
  684MOL0     H90241   5.370   7.322  10.567 -2.6675 -0.2782 -0.4966
  684MOL0     H90242   5.307   7.633  10.316  0.0403 -0.0077  1.4653
  684MOL0     H90243   5.297   7.453  10.303  0.9832  0.3553 -1.9729
  684MOL0     H90244   5.517   7.506  10.209  4.3559  1.5296  0.0987
  684MOL0     H90245   5.528   7.433  10.371  1.7600  1.8750  2.1605
  684MOL0     H90246   5.552   7.745  10.322  0.0425  0.2458  1.4487
  684MOL0     H90247   5.588   7.662  10.465  1.0588  4.0209  0.0483
  684MOL0     H90248   5.729   7.592  10.199  1.4335 -1.1363  0.1304
  684MOL0     H90249   5.762   7.524  10.359 -3.9751 -1.3882  0.7460
  684MOL0     H90250   5.974   7.687  10.161 -0.0773 -0.8089  1.0530
  684MOL0     H90251   6.065   7.863  10.021  2.6937 -0.8797  3.7588
  684MOL0     H90252   6.294   8.103   9.812  0.1178 -1.5243 -0.2420
  684MOL0     H90253   6.372   8.231   9.600  0.2660  2.6085 -2.3981
  684MOL0     H90254   6.089   8.556   9.460  2.2970  1.4618 -1.5988
  684MOL0     H90255   6.024   8.413   9.369  1.4966 -1.3574 -0.1527
  684MOL0     H90256   6.264   8.612   9.301  2.3957 -1.9191 -3.8522
  684MOL0     H90257   6.106   8.597   9.221  0.7307 -0.5090 -1.5331
  684MOL0     H90258   6.158   8.356   9.159  0.8292 -1.2331  1.2618
  684MOL0     H90259   6.310   8.378   9.228  2.4211 -0.5672 -4.4556
  684MOL0     H90260   6.196   8.574   9.012  3.2493  1.8747 -2.0022
  684MOL0     H90261   6.356   8.578   9.074  0.3128  0.5587  0.8534
  684MOL0     H90262   6.254   8.355   8.893  2.2514 -0.4489 -2.1526
  684MOL0     H90263   6.405   8.346   8.990  1.3011 -0.4572 -1.4967
  684MOL0     H90264   6.513   8.517   8.890  0.3461  0.3501  1.0265
  684MOL0     H90265   6.372   8.585   8.803  2.1522  1.3065  1.1613
  684MOL0     H90266   6.528   8.336   8.737  2.0177  1.6310 -0.4212
  684MOL0     H90267   6.356   8.362   8.679 -0.9610  0.6711  0.4692
  684MOL0     H90268   6.400   8.536   8.548  1.1829  2.6500  0.5531
  684MOL0     H90269   6.537   8.433   8.531 -0.7622 -1.0157 -0.9966
  684MOL0     H90270   5.956   8.375   9.576  0.7883 -0.8025 -0.1399
  684MOL0     H90271   5.911   8.274   9.787 -2.1243 -0.8176 -3.1510
  684MOL0     H90272   5.818   8.158  10.229 -7.0780 -2.0106 -1.1264
  684MOL0     H90273   5.747   7.964  10.384  1.3595  1.6872  0.4957
  684MOL0     H90274   6.128   7.434  10.163  0.1661 -1.0424 -1.3761
  684MOL0     H90275   5.978   7.532   9.979  0.8992  5.8148  5.1636
  684MOL0     H90276   5.530   7.490   9.786  3.6813  0.8564  1.7161
  684MOL0     H90277   5.390   7.539   9.590  1.5596  2.1668  0.6716
  684MOL0     H90278   5.274   7.508   9.396  2.5106 -0.2024  2.7875
  684MOL0     H90279   5.301   7.502   9.225 -1.2033  0.8281  0.3321
  684MOL0     H90280   5.408   7.705   9.435 -0.5922  0.5479  1.0988
  684MOL0     H90281   5.428   7.727   9.255  1.3097  0.8072  1.2039
  684MOL0     H90282   5.158   7.727   9.410 -1.1039  0.9511  0.8016
  684MOL0     H90283   5.188   7.763   9.240 -1.1685  0.0658  0.7697
  684MOL0     H90284   5.271   7.913   9.490 -0.5217 -1.5885 -0.4443
  684MOL0     H90285   5.356   7.961   9.349  1.8052 -1.8866  0.3515
  684MOL0     H90286   4.960   8.116   9.268 -1.4781  0.0197  0.4197
  684MOL0     H90287   5.706   7.406   9.325  3.7350  2.7245  0.9556
  684MOL0     H90288   5.847   7.351   9.526 -2.8509 -4.1785 -3.9644
  685MOL0     O90289   9.982   2.864   3.046  0.3897 -0.3104 -0.7686
  685MOL0     C90290  10.044   2.818   3.140 -0.9043  0.3537  0.6541
  685MOL0     O90291  10.018   2.841   3.275  0.1138  0.5042  0.7058
  685MOL0     C90292   9.938   2.946   3.312 -0.7120  0.4875  0.8466
  685MOL0     C90293   9.796   2.941   3.289 -0.7960  0.3581  0.0640
  685MOL0     C90294   9.720   3.051   3.320  0.0429 -0.5935  0.1212
  685MOL0     C90295   9.777   3.155   3.395 -0.1481  0.4222 -0.8930
  685MOL0     O90296   9.701   3.256   3.453 -0.4210  0.5788 -1.0399
  685MOL0     C90297   9.567   3.240   3.489 -0.1910 -0.0960 -0.3966
  685MOL0     C90298   9.496   3.367   3.536  0.4336  0.3018 -0.6352
  685MOL0     C90299   9.351   3.320   3.549  0.4487 -0.0443  0.3734
  685MOL0     C90300   9.253   3.438   3.586 -0.9913  0.4489 -0.1459
  685MOL0     C90301   9.249   3.546   3.478 -0.2253  0.0243 -0.4341
  685MOL0     C90302   9.246   3.691   3.524 -0.1848  0.1756 -0.4046
  685MOL0     C90303   9.387   3.745   3.562  0.4404  0.7092 -0.0122
  685MOL0     C90304   9.386   3.865   3.662  0.0336  0.7706  0.0029
  685MOL0     N90305   9.333   3.981   3.595  0.0691 -1.2264 -0.0358
  685MOL0     C90306   9.375   4.050   3.488  0.1346 -0.6211  0.4921
  685MOL0     C90307   9.297   4.160   3.485  0.8387  0.0045  0.0632
  685MOL0     C90308   9.301   4.257   3.370  0.5371 -0.1843  0.0697
  685MOL0     C90309   9.221   4.217   3.247 -0.0849  0.5748  1.2292
  685MOL0     C90310   9.200   4.328   3.146 -0.3818 -0.4670 -0.4708
  685MOL0     C90311   9.063   4.404   3.167 -0.1305  0.3033 -0.5598
  685MOL0     O90312   9.072   4.503   3.267  0.1705  0.3445 -0.2834
  685MOL0     C90313   8.983   4.607   3.262 -0.0367  0.1344 -0.0218
  685MOL0     C90314   8.876   4.609   3.170 -0.5686  0.3837 -0.3533
  685MOL0     C90315   8.800   4.719   3.157 -0.1204  0.3291 -0.3634
  685MOL0     C90316   8.839   4.829   3.242 -1.0662 -0.2331  0.4828
  685MOL0     C90317   8.768   4.958   3.225 -0.2360  0.4280  0.7300
  685MOL0     O90318   8.718   4.973   3.099 -0.2331 -1.0342 -0.0577
  685MOL0     C90319   8.699   5.095   3.047 -0.0415 -0.4652 -0.7996
  685MOL0     C90320   8.794   5.195   3.042  0.9909  0.0026  0.9342
  685MOL0     C90321   8.775   5.313   2.979  0.0939 -0.3379  0.5685
  685MOL0     C90322   8.666   5.334   2.900  0.0235  1.4302 -0.1175
  685MOL0     O90323   8.675   5.454   2.833  0.6640 -0.5013 -0.2711
  685MOL0     C90324   8.551   5.530   2.827  0.3478  0.4429  0.1273
  685MOL0     C90325   8.600   5.650   2.748 -0.3824  0.1333 -0.2811
  685MOL0     C90326   8.484   5.751   2.717 -0.5255  0.0686  0.5509
  685MOL0     C90327   8.540   5.873   2.649 -0.4968  0.9791  0.2640
  685MOL0     C90328   8.437   5.982   2.622 -0.6516 -0.4426  0.3526
  685MOL0     C90329   8.500   6.121   2.593 -0.0148  0.3518  0.0147
  685MOL0     C90330   8.582   6.170   2.721 -0.1741 -0.0676  1.1315
  685MOL0     C90331   8.562   6.317   2.764  0.9096  0.5612  0.6736
  685MOL0    Cl90332   8.523   6.426   2.635 -0.5193  0.0803 -0.2088
  685MOL0     C90333   8.572   5.231   2.898 -0.0921  0.1264  0.4558
  685MOL0     C90334   8.585   5.112   2.965 -0.0004 -0.1061  0.8335
  685MOL0     O90335   8.767   5.046   3.314 -0.0089  0.1472 -0.4947
  685MOL0     C90336   8.948   4.830   3.323 -0.3695 -0.2209 -0.5618
  685MOL0     C90337   9.030   4.713   3.334 -0.1175  0.0702  1.4597
  685MOL0     N90338   9.209   4.154   3.584 -0.7005 -0.2856  0.3120
  685MOL0     N90339   9.225   4.044   3.646  0.8940 -0.1744 -0.9159
  685MOL0     C90340   9.915   3.158   3.419 -0.6034  0.1941  0.5221
  685MOL0     C90341  10.002   3.056   3.378  0.3434  0.2021  0.7764
  685MOL0     C90342  10.166   2.735   3.107 -0.7780  0.3316 -0.4004
  685MOL0     C90343  10.225   2.741   2.981 -0.3770 -0.1109  0.5529
  685MOL0     C90344  10.319   2.647   2.936 -0.7008 -0.4153 -0.1281
  685MOL0     C90345  10.363   2.547   3.026  0.3160 -0.6650  0.2023
  685MOL0     O90346  10.465   2.454   2.997 -0.1784 -0.1057  0.0280
  685MOL0     C90347  10.493   2.428   2.861 -0.3921 -0.2652  0.0569
  685MOL0     C90348  10.570   2.296   2.855 -0.1830  0.3307 -0.4622
  685MOL0     C90349  10.473   2.201   2.771 -0.3851 -0.5954  0.2498
  685MOL0     C90350  10.534   2.060   2.771  0.1417  0.1130  0.0606
  685MOL0     C90351  10.658   2.054   2.690 -0.2111  0.0014  0.6305
  685MOL0     C90352  10.754   2.027   2.623  0.1347  0.1794  0.1810
  685MOL0     C90353  10.315   2.551   3.145  0.7636  0.5839 -0.0565
  685MOL0     C90354  10.222   2.645   3.195 -0.9211  0.3068 -1.1408
  685MOL0     H90355   9.760   2.859   3.228 -0.5744  1.6049 -1.8136
  685MOL0     H90356   9.614   3.048   3.296  0.1431  1.6746 -0.8707
  685MOL0     H90357   9.560   3.170   3.572 -2.6958 -0.2536 -0.6375
  685MOL0     H90358   9.502   3.190   3.416 -1.7007  0.9510  0.1858
  685MOL0     H90359   9.513   3.436   3.453 -1.2602  1.1907 -0.2964
  685MOL0     H90360   9.542   3.414   3.623 -0.7279  0.8284 -0.2872
  685MOL0     H90361   9.338   3.243   3.625 -4.8371 -0.0564 -0.1692
  685MOL0     H90362   9.312   3.277   3.456 -1.6413  0.6183  0.8962
  685MOL0     H90363   9.149   3.409   3.605 -1.1715  0.7010 -0.7137
  685MOL0     H90364   9.311   3.473   3.671  0.5389  0.8906 -1.3347
  685MOL0     H90365   9.166   3.527   3.409  0.2997  1.2036 -1.4287
  685MOL0     H90366   9.334   3.541   3.409  1.0648 -0.4100  1.1288
  685MOL0     H90367   9.180   3.694   3.612  0.6098  0.3375  0.2004
  685MOL0     H90368   9.193   3.748   3.448 -1.2290 -1.7747 -1.2022
  685MOL0     H90369   9.448   3.668   3.611 -0.3822 -1.0252 -1.6106
  685MOL0     H90370   9.433   3.770   3.466 -0.5618  0.3681 -0.6015
  685MOL0     H90371   9.489   3.887   3.691  0.0039 -2.6349  3.5820
  685MOL0     H90372   9.336   3.829   3.753 -1.1664 -0.6322 -1.1558
  685MOL0     H90373   9.450   4.037   3.411 -0.6163 -1.8266 -0.0557
  685MOL0     H90374   9.401   4.278   3.332  0.8022  0.1636  0.9476
  685MOL0     H90375   9.254   4.349   3.405 -2.5674 -0.3365 -3.0614
  685MOL0     H90376   9.127   4.162   3.260 -2.0489  3.3803 -0.1518
  685MOL0     H90377   9.282   4.136   3.206 -2.5752 -0.4973 -0.5674
  685MOL0     H90378   9.276   4.406   3.154  0.9218 -1.4654 -2.5442
  685MOL0     H90379   9.214   4.289   3.045  1.7685 -0.4091 -0.2310
  685MOL0     H90380   8.975   4.341   3.184  0.3866 -0.3444 -0.2588
  685MOL0     H90381   9.054   4.458   3.072  1.5824 -0.0009 -0.9228
  685MOL0     H90382   8.831   4.522   3.123 -1.1022  1.3338 -1.7038
  685MOL0     H90383   8.706   4.721   3.103 -1.1356 -0.4068  1.3023
  685MOL0     H90384   8.880   5.169   3.102  1.3130  1.9227  1.3801
  685MOL0     H90385   8.857   5.385   2.980  0.8435 -1.0433 -2.1269
  685MOL0     H90386   8.508   5.559   2.924  0.8691  2.2341 -0.1234
  685MOL0     H90387   8.479   5.479   2.763 -2.1324  1.0775  2.2171
  685MOL0     H90388   8.652   5.617   2.658 -2.2489 -1.6008 -0.8044
  685MOL0     H90389   8.669   5.712   2.806  2.4565 -1.8455 -1.3238
  685MOL0     H90390   8.445   5.774   2.816 -2.3494 -3.6446  0.8888
  685MOL0     H90391   8.404   5.702   2.661 -3.6018  0.8475  3.9201
  685MOL0     H90392   8.616   5.916   2.716 -1.3034  2.0327  0.5293
  685MOL0     H90393   8.587   5.852   2.552 -1.3595  2.5249 -0.5232
  685MOL0     H90394   8.361   5.985   2.700 -0.4437  0.4665  0.5265
  685MOL0     H90395   8.363   5.965   2.543  0.8410  2.4706 -1.8873
  685MOL0     H90396   8.426   6.195   2.561  0.3967  0.4478 -0.7493
  685MOL0     H90397   8.575   6.113   2.514  0.2049 -2.2228  0.4113
  685MOL0     H90398   8.567   6.102   2.805  2.1461 -1.4515  0.5090
  685MOL0     H90399   8.685   6.152   2.690 -0.2792  0.5079  0.4103
  685MOL0     H90400   8.655   6.357   2.806  0.6513  0.6677  1.1457
  685MOL0     H90401   8.484   6.314   2.840  0.8500 -0.1145  0.5932
  685MOL0     H90402   8.497   5.257   2.825 -2.3360 -1.2379  2.1450
  685MOL0     H90403   8.512   5.032   2.963 -3.4053  2.7429  0.5329
  685MOL0     H90404   8.998   4.914   3.371  3.1009 -1.5462 -1.5333
  685MOL0     H90405   9.127   4.714   3.382  1.2249  1.0594 -1.1169
  685MOL0     H90406   9.946   3.242   3.480 -0.5300 -0.4347  1.3659
  685MOL0     H90407  10.107   3.054   3.404  0.7784  1.8311 -0.6687
  685MOL0     H90408  10.188   2.805   2.902  2.1156 -0.6327 -1.1578
  685MOL0     H90409  10.355   2.646   2.834  0.8933  1.6456  0.3499
  685MOL0     H90410  10.558   2.511   2.830 -2.4908  1.7960  0.8056
  685MOL0     H90411  10.409   2.435   2.792  1.7178 -0.6293 -2.6917
  685MOL0     H90412  10.664   2.296   2.801  0.2648 -1.4072  0.2523
  685MOL0     H90413  10.580   2.269   2.961  0.1997 -0.3126 -0.6570
  685MOL0     H90414  10.462   2.242   2.670 -5.8838 -1.0136  0.3882
  685MOL0     H90415  10.378   2.202   2.825  0.3685  0.7384  1.6269
  685MOL0     H90416  10.542   2.039   2.878  0.6333 -0.2591 -0.0456
  685MOL0     H90417  10.469   1.982   2.729  1.2575 -0.4418 -0.7118
  685MOL0     H90418  10.821   2.010   2.541 -0.6342 -0.0023 -0.4114
  685MOL0     H90419  10.336   2.462   3.204  0.1187  0.6534  0.2823
  685MOL0     H90420  10.195   2.641   3.300  0.5608  2.7763 -0.5798
  686MOL0     O90421   7.384   6.004   0.653 -0.0012  1.3201  0.2758
  686MOL0     C90422   7.271   6.001   0.696 -0.3535  0.0855  0.2336
  686MOL0     O90423   7.159   6.047   0.625  0.6271  0.8777  0.2660
  686MOL0     C90424   7.169   6.105   0.505  0.0960 -0.6727  1.2130
  686MOL0     C90425   7.208   6.027   0.397 -0.5259  0.1599  0.3692
  686MOL0     C90426   7.235   6.079   0.272  0.1997  0.3548  0.1468
  686MOL0     C90427   7.237   6.216   0.252 -0.7914  0.6806  0.1333
  686MOL0     O90428   7.291   6.287   0.147  0.0869  0.2070 -0.2858
  686MOL0     C90429   7.373   6.220   0.048 -0.0199  0.0047 -0.4723
  686MOL0     C90430   7.308   6.200  -0.088 -0.6968  0.4804 -0.5459
  686MOL0     C90431   7.300   6.332  -0.168  1.0709 -0.4778 -0.0240
  686MOL0     C90432   7.183   6.420  -0.126 -1.0840  0.4319 -0.4474
  686MOL0     C90433   7.197   6.560  -0.188  0.2051  0.2065  0.4856
  686MOL0     C90434   7.060   6.628  -0.184  0.5437 -0.6882 -0.5034
  686MOL0     C90435   7.049   6.776  -0.159 -0.2071  0.0622  0.3868
  686MOL0     C90436   7.083   6.851  -0.289  0.1240 -1.0436  0.1842
  686MOL0     N90437   7.224   6.846  -0.340  0.3688  0.0862 -0.0660
  686MOL0     C90438   7.325   6.926  -0.293  0.7474  0.0789  0.4642
  686MOL0     C90439   7.419   6.900  -0.378 -0.3553  0.0329 -0.6126
  686MOL0     C90440   7.558   6.963  -0.367  0.8897 -0.3543 -0.6416
  686MOL0     C90441   7.630   6.908  -0.243 -0.2675 -0.0235  0.9302
  686MOL0     C90442   7.782   6.943  -0.250 -0.1004 -0.4992  0.3009
  686MOL0     C90443   7.850   6.923  -0.120 -0.8552  0.1877  0.0931
  686MOL0     O90444   7.827   6.784  -0.080 -0.4770  0.0504  0.1670
  686MOL0     C90445   7.902   6.675  -0.109 -0.4448  0.6892  0.1252
  686MOL0     C90446   7.886   6.547  -0.055  0.0307  0.2176  0.0858
  686MOL0     C90447   7.969   6.446  -0.087  0.1959  0.0521  0.7180
  686MOL0     C90448   8.073   6.464  -0.182 -1.0383 -0.6497 -0.2126
  686MOL0     C90449   8.176   6.369  -0.226 -0.7389 -1.0195  0.0124
  686MOL0     O90450   8.202   6.266  -0.141  0.2250  0.8879 -0.5589
  686MOL0     C90451   8.274   6.157  -0.184  0.4498  0.0236  0.3047
  686MOL0     C90452   8.320   6.072  -0.085  0.3497 -0.6854  0.1772
  686MOL0     C90453   8.370   5.941  -0.121 -0.5305 -0.6367  0.1197
  686MOL0     C90454   8.373   5.894  -0.253  0.1459  0.4669 -0.2964
  686MOL0     O90455   8.420   5.766  -0.280  0.0086  0.0619 -0.3803
  686MOL0     C90456   8.533   5.771  -0.374  0.1220  0.0378 -0.0023
  686MOL0     C90457   8.666   5.823  -0.320 -0.2129 -0.8348 -0.8097
  686MOL0     C90458   8.699   5.741  -0.194 -0.1755 -0.5327 -0.1163
  686MOL0     C90459   8.826   5.789  -0.136 -0.3943  0.5382 -0.0569
  686MOL0     C90460   8.844   5.752   0.017  1.3962  0.4808 -0.1708
  686MOL0     C90461   8.988   5.782   0.051 -0.8309  0.2472 -0.1224
  686MOL0     C90462   9.036   5.710   0.175 -0.4456  0.2661  0.2276
  686MOL0     C90463   9.189   5.693   0.198  0.4813  0.7348  0.4065
  686MOL0    Cl90464   9.247   5.848   0.251  0.0849  0.0785 -0.3352
  686MOL0     C90465   8.325   5.976  -0.347  0.0060 -1.3553  0.4303
  686MOL0     C90466   8.283   6.103  -0.316  0.7809 -0.6289  0.0651
  686MOL0     O90467   8.242   6.395  -0.333 -0.1416  0.5904 -0.2050
  686MOL0     C90468   8.088   6.593  -0.240 -0.0895 -0.6455  0.1981
  686MOL0     C90469   8.010   6.696  -0.200  0.2613 -0.1244 -0.4485
  686MOL0     N90470   7.382   6.817  -0.480 -0.1020  1.5484  0.5331
  686MOL0     N90471   7.260   6.793  -0.459  0.2537  0.2826 -0.0035
  686MOL0     C90472   7.191   6.293   0.356 -0.1476  0.3919  0.4025
  686MOL0     C90473   7.150   6.234   0.479 -0.1868 -0.5854  0.6230
  686MOL0     C90474   7.246   5.956   0.834 -0.1568  0.6781  0.5852
  686MOL0     C90475   7.344   5.907   0.910 -1.0407 -0.8291 -0.0377
  686MOL0     C90476   7.324   5.886   1.046  0.0792  0.8723  0.2095
  686MOL0     C90477   7.194   5.875   1.107  0.0710 -0.7687 -0.0454
  686MOL0     O90478   7.178   5.835   1.238  0.3294  0.0330  0.6632
  686MOL0     C90479   7.051   5.835   1.291 -0.1864  0.2312 -0.4663
  686MOL0     C90480   7.048   5.774   1.436  0.4465 -0.3493  0.4388
  686MOL0     C90481   7.188   5.732   1.486 -1.1446 -0.1553  0.7179
  686MOL0     C90482   7.174   5.659   1.618  0.2743 -0.1735  0.0448
  686MOL0     C90483   7.148   5.747   1.728 -0.0787  0.2749  1.0462
  686MOL0     C90484   7.128   5.811   1.827  0.4392  0.1410 -0.0453
  686MOL0     C90485   7.093   5.899   1.014 -0.1654  0.7765 -0.1387
  686MOL0     C90486   7.116   5.951   0.892 -0.5529 -0.3363  1.2508
  686MOL0     H90487   7.223   5.920   0.389 -1.2859  0.1610 -1.6128
  686MOL0     H90488   7.249   6.007   0.192  3.3340 -0.8180  1.5898
  686MOL0     H90489   7.419   6.126   0.082  4.4249  2.1476  0.2304
  686MOL0     H90490   7.465   6.278   0.036 -0.5760  0.6595 -1.7473
  686MOL0     H90491   7.209   6.160  -0.062 -1.4977  2.2101 -0.8181
  686MOL0     H90492   7.374   6.134  -0.144  1.2131  0.4879  1.5527
  686MOL0     H90493   7.271   6.298  -0.268 -0.5690  2.0773 -0.5046
  686MOL0     H90494   7.395   6.384  -0.155  0.7542  0.0174  0.3416
  686MOL0     H90495   7.081   6.382  -0.139 -1.4217  1.3142 -0.4499
  686MOL0     H90496   7.199   6.442  -0.020  2.2247  1.5780 -1.0855
  686MOL0     H90497   7.241   6.554  -0.288  0.8013  0.1061  0.7488
  686MOL0     H90498   7.273   6.616  -0.132  1.6056 -1.2668  0.1473
  686MOL0     H90499   7.014   6.595  -0.090  0.1663  2.0573  0.3581
  686MOL0     H90500   6.999   6.598  -0.269 -0.2491 -0.6361  0.0349
  686MOL0     H90501   6.943   6.784  -0.135 -0.1338  0.6550  0.5172
  686MOL0     H90502   7.117   6.811  -0.081  0.9969  1.2369 -1.1253
  686MOL0     H90503   7.056   6.957  -0.279  1.1494 -0.7242 -0.3048
  686MOL0     H90504   7.017   6.805  -0.363  0.6102 -1.2327 -0.1292
  686MOL0     H90505   7.332   6.977  -0.198  0.1713  1.1175 -0.0322
  686MOL0     H90506   7.550   7.072  -0.358 -1.4418 -0.4899 -0.4021
  686MOL0     H90507   7.617   6.928  -0.453  3.4691 -1.9926  1.6494
  686MOL0     H90508   7.613   6.801  -0.232  0.6362 -0.4503 -1.3090
  686MOL0     H90509   7.576   6.946  -0.156 -1.1581  2.5248 -0.6143
  686MOL0     H90510   7.824   6.872  -0.321  0.9411  0.3564  0.0343
  686MOL0     H90511   7.805   7.041  -0.293  2.6371 -2.0165 -2.0842
  686MOL0     H90512   7.813   6.994  -0.046  2.7517  3.6165 -1.0433
  686MOL0     H90513   7.959   6.933  -0.125 -0.3847 -0.1072  5.0402
  686MOL0     H90514   7.807   6.526   0.016  1.1991 -0.1073  1.3360
  686MOL0     H90515   7.972   6.348  -0.041  1.7656 -1.6679 -2.6780
  686MOL0     H90516   8.315   6.111   0.017 -0.6157 -4.0743  1.5751
  686MOL0     H90517   8.403   5.864  -0.052  0.6004 -2.2770 -2.1503
  686MOL0     H90518   8.506   5.839  -0.456 -1.4765 -0.7133 -0.1366
  686MOL0     H90519   8.548   5.674  -0.423 -2.7812 -1.0623  1.0751
  686MOL0     H90520   8.665   5.930  -0.301  6.6921  0.1589 -3.4211
  686MOL0     H90521   8.742   5.799  -0.395  0.0180 -0.5931 -0.6520
  686MOL0     H90522   8.717   5.635  -0.214  2.1502  0.2017 -2.5033
  686MOL0     H90523   8.620   5.746  -0.118  2.6930  0.0007  3.1010
  686MOL0     H90524   8.915   5.760  -0.192 -0.5309 -2.3698  1.0879
  686MOL0     H90525   8.832   5.898  -0.141  1.6622  0.6970  2.9078
  686MOL0     H90526   8.816   5.647   0.034 -0.0857  0.9295  0.3258
  686MOL0     H90527   8.771   5.811   0.074  0.6284 -1.1315  0.5842
  686MOL0     H90528   9.007   5.889   0.050 -1.2374  0.3208 -0.8460
  686MOL0     H90529   9.051   5.728  -0.020 -1.3756 -1.6023  0.7178
  686MOL0     H90530   8.997   5.769   0.259  0.5198  0.4040  0.5840
  686MOL0     H90531   8.984   5.614   0.182  2.6280 -1.4054  3.5868
  686MOL0     H90532   9.243   5.669   0.106 -0.1169  1.5749 -0.1707
  686MOL0     H90533   9.204   5.612   0.271 -1.4484 -0.3953 -0.3577
  686MOL0     H90534   8.326   5.940  -0.449  1.4558 -4.2488  1.3319
  686MOL0     H90535   8.256   6.162  -0.404  0.0650  0.4772  1.0002
  686MOL0     H90536   8.156   6.614  -0.322 -0.7738  2.5173  0.3120
  686MOL0     H90537   8.026   6.790  -0.253 -0.6878  1.2648  1.5925
  686MOL0     H90538   7.203   6.399   0.337  1.1801  0.7711  2.8863
  686MOL0     H90539   7.122   6.306   0.556  1.3288 -0.2287  0.8772
  686MOL0     H90540   7.444   5.913   0.868 -2.0336  0.4581 -2.3912
  686MOL0     H90541   7.413   5.864   1.103 -0.3796  1.9987  1.4221
  686MOL0     H90542   6.986   5.765   1.238 -2.8648  2.3983 -0.3049
  686MOL0     H90543   7.017   5.938   1.275  3.3337  1.7662  0.9316
  686MOL0     H90544   7.008   5.841   1.513  1.5502 -0.2423  0.9313
  686MOL0     H90545   6.977   5.691   1.442 -0.2752  0.3756  3.8114
  686MOL0     H90546   7.262   5.812   1.490 -0.2700 -0.7838 -1.5343
  686MOL0     H90547   7.228   5.657   1.417  0.2294  0.5811  0.6634
  686MOL0     H90548   7.096   5.584   1.602  1.5157 -0.9754 -2.9843
  686MOL0     H90549   7.267   5.608   1.642 -0.2969 -1.3926 -0.2412
  686MOL0     H90550   7.109   5.867   1.917  1.1974  1.2113 -0.5307
  686MOL0     H90551   6.991   5.889   1.052  0.4524  0.2091  1.4549
  686MOL0     H90552   7.032   5.982   0.830 -1.5048 -4.3335  0.2907
  687MOL0     O90553   8.442   2.592  11.020  0.0358 -0.4698 -0.3530
  687MOL0     C90554   8.454   2.605  10.898 -0.3551  0.6639 -0.0070
  687MOL0     O90555   8.573   2.581  10.834 -0.4325  0.1185  0.2364
  687MOL0     C90556   8.650   2.482  10.893 -0.5699  0.2680 -0.2098
  687MOL0     C90557   8.618   2.350  10.866 -0.0749 -0.2084 -0.1215
  687MOL0     C90558   8.694   2.249  10.923 -0.3590 -0.0155  0.2185
  687MOL0     C90559   8.811   2.275  10.997  1.3367 -0.0500 -0.0968
  687MOL0     O90560   8.884   2.171  11.037  0.0840 -0.8748 -0.4457
  687MOL0     C90561   8.966   2.108  10.946 -0.3078 -0.7678 -0.6085
  687MOL0     C90562   9.045   2.000  11.030 -0.8543  0.0461 -0.0905
  687MOL0     C90563   8.978   1.869  11.086 -0.0236 -0.8675 -0.0089
  687MOL0     C90564   8.914   1.771  10.982  0.4568 -0.2211 -0.6120
  687MOL0     C90565   9.016   1.738  10.874 -0.4043 -0.7592 -0.1805
  687MOL0     C90566   8.947   1.639  10.771 -0.7112 -0.7273  0.0337
  687MOL0     C90567   9.010   1.654  10.634 -0.2519  0.1277 -0.8343
  687MOL0     C90568   8.986   1.528  10.533 -0.6341 -0.4704  0.3349
  687MOL0     N90569   9.048   1.570  10.409 -0.1876  0.1219 -0.4426
  687MOL0     C90570   9.001   1.655  10.308  0.8318  0.4307  0.0338
  687MOL0     C90571   9.101   1.686  10.222  0.1774  0.3251  0.2901
  687MOL0     C90572   9.090   1.762  10.095  0.2277 -0.2380  0.9678
  687MOL0     C90573   9.003   1.690   9.997 -1.0520 -0.1169 -0.4292
  687MOL0     C90574   8.973   1.756   9.866 -0.0225  0.2955 -0.0367
  687MOL0     C90575   9.089   1.819   9.779  0.0773  1.1447  0.2646
  687MOL0     O90576   9.222   1.811   9.834 -0.3827 -0.3924  0.6738
  687MOL0     C90577   9.288   1.694   9.799  0.6951  0.1137  0.5948
  687MOL0     C90578   9.427   1.693   9.830  0.2841  0.6975 -0.7572
  687MOL0     C90579   9.518   1.589   9.807  0.9256  0.3149  0.4455
  687MOL0     C90580   9.465   1.468   9.758  0.7930 -0.2396 -0.6532
  687MOL0     C90581   9.554   1.354   9.735  0.3960  0.7325 -0.0723
  687MOL0     O90582   9.484   1.243   9.691  0.0759 -0.3081 -0.4333
  687MOL0     C90583   9.548   1.184   9.587 -0.9719 -0.2396 -0.8171
  687MOL0     C90584   9.492   1.210   9.465  0.0418  0.5647  1.4235
  687MOL0     C90585   9.542   1.134   9.364  0.2586 -0.2485 -0.6730
  687MOL0     C90586   9.641   1.031   9.380  0.6072 -0.7741  0.0834
  687MOL0     O90587   9.683   0.958   9.280  0.0683  0.0591 -0.1579
  687MOL0     C90588   9.605   0.925   9.164  0.3081  0.3337 -0.6357
  687MOL0     C90589   9.480   0.842   9.189  0.3488 -0.1219 -0.0112
  687MOL0     C90590   9.515   0.724   9.288  0.2283 -0.3022 -0.0891
  687MOL0     C90591   9.421   0.607   9.256  0.7777 -0.1867 -0.1978
  687MOL0     C90592   9.410   0.516   9.379 -0.4342 -0.4262 -0.2516
  687MOL0     C90593   9.530   0.417   9.389  0.9809  0.2209  0.4130
  687MOL0     C90594   9.502   0.313   9.509  0.5908 -0.1994  0.3205
  687MOL0     C90595   9.527   0.172   9.461 -0.5891  0.4335  0.1065
  687MOL0    Cl90596   9.708   0.154   9.429  0.4900 -0.0083 -0.0010
  687MOL0     C90597   9.696   1.015   9.507  0.8967 -0.0402  0.8312
  687MOL0     C90598   9.638   1.084   9.612 -0.6488  0.0992  0.3181
  687MOL0     O90599   9.674   1.373   9.731 -0.1882  0.2834 -0.6659
  687MOL0     C90600   9.324   1.461   9.737 -0.0677  0.5831  0.7426
  687MOL0     C90601   9.239   1.574   9.754  0.9503  0.9716  0.0216
  687MOL0     N90602   9.204   1.608  10.266 -0.2196  0.3176 -0.0808
  687MOL0     N90603   9.182   1.547  10.380  0.2921 -0.6268 -0.6271
  687MOL0     C90604   8.838   2.409  11.036 -0.0900  0.3411 -0.7085
  687MOL0     C90605   8.764   2.508  10.969 -0.5413 -0.7071 -0.8495
  687MOL0     C90606   8.341   2.647  10.805 -0.9803 -0.0242 -0.1507
  687MOL0     C90607   8.350   2.649  10.660  0.0542  0.4451 -0.3497
  687MOL0     C90608   8.248   2.682  10.572 -0.4181  0.3240  0.0112
  687MOL0     C90609   8.127   2.712  10.622  0.7562  0.2244  0.2869
  687MOL0     O90610   8.015   2.734  10.542 -0.1334 -0.4961 -0.1300
  687MOL0     C90611   8.040   2.831  10.436  0.8033 -0.3387 -0.0807
  687MOL0     C90612   7.973   2.785  10.308  0.6659  0.3515 -0.1036
  687MOL0     C90613   8.027   2.662  10.254 -1.0538 -0.3429  0.3014
  687MOL0     C90614   7.948   2.589  10.139  0.5549  0.1148  0.6195
  687MOL0     C90615   7.906   2.674  10.031 -0.0721  0.0842 -0.2536
  687MOL0     C90616   7.879   2.746   9.935  0.8230  0.4391 -0.3305
  687MOL0     C90617   8.112   2.717  10.759 -0.2931  0.9916 -0.8665
  687MOL0     C90618   8.214   2.682  10.851 -0.0580  1.3726  0.1115
  687MOL0     H90619   8.538   2.317  10.800  0.3901 -0.0919 -0.7628
  687MOL0     H90620   8.654   2.148  10.913 -3.7183  1.0434  1.4582
  687MOL0     H90621   9.032   2.180  10.898 -2.2377  2.7934  1.6866
  687MOL0     H90622   8.908   2.069  10.861 -0.0297 -1.6716 -0.3986
  687MOL0     H90623   9.082   2.046  11.122 -0.3524 -1.2257  0.3531
  687MOL0     H90624   9.130   1.973  10.967 -1.6241 -0.7252 -0.8391
  687MOL0     H90625   8.890   1.907  11.139 -1.9238 -1.6973 -2.3896
  687MOL0     H90626   9.055   1.818  11.144  2.1311  2.5146  0.3739
  687MOL0     H90627   8.885   1.680  11.035 -1.2302 -0.0080 -1.0769
  687MOL0     H90628   8.831   1.819  10.928 -0.3618  2.6378  2.8428
  687MOL0     H90629   9.110   1.693  10.908  1.4013 -0.0041 -3.7788
  687MOL0     H90630   9.049   1.825  10.818  1.1555 -1.0305  0.2655
  687MOL0     H90631   8.841   1.663  10.760 -0.7449 -1.1958 -0.7536
  687MOL0     H90632   8.950   1.534  10.802  0.1875 -0.9990 -0.9207
  687MOL0     H90633   8.975   1.748  10.589  0.7108  0.1229 -1.6199
  687MOL0     H90634   9.118   1.660  10.645 -0.0132 -0.8077 -2.3483
  687MOL0     H90635   8.878   1.511  10.523 -1.1804  1.6819  1.8063
  687MOL0     H90636   9.043   1.441  10.563 -0.6929 -0.6533 -0.0758
  687MOL0     H90637   8.894   1.671  10.298  0.4394 -0.9294  1.6283
  687MOL0     H90638   9.183   1.804  10.053 -1.0021 -0.2215 -1.9990
  687MOL0     H90639   9.047   1.860  10.119 -1.9540  0.5024 -4.4125
  687MOL0     H90640   8.909   1.657  10.044 -1.2164  0.4766 -0.3375
  687MOL0     H90641   9.051   1.599   9.960  2.4868  0.8129  1.5113
  687MOL0     H90642   8.903   1.696   9.808 -2.3112  0.8369  1.9638
  687MOL0     H90643   8.910   1.838   9.903  1.2186 -0.1924  3.5656
  687MOL0     H90644   9.070   1.920   9.743 -1.7550  0.4857 -0.7552
  687MOL0     H90645   9.087   1.772   9.680 -1.0702  3.8832 -1.1148
  687MOL0     H90646   9.463   1.776   9.891 -1.2035 -0.2754  1.6053
  687MOL0     H90647   9.620   1.608   9.840  0.2677  3.5713  0.9146
  687MOL0     H90648   9.410   1.277   9.440  1.4513  0.8479 -3.4321
  687MOL0     H90649   9.504   1.143   9.262  2.6352 -2.9752 -1.9484
  687MOL0     H90650   9.660   0.861   9.094 -0.5398  0.1204 -1.1254
  687MOL0     H90651   9.588   1.017   9.108 -1.8646 -0.3210 -1.1488
  687MOL0     H90652   9.447   0.792   9.098  2.3721 -1.1183 -0.2567
  687MOL0     H90653   9.399   0.893   9.242  3.0477 -0.6143  5.2586
  687MOL0     H90654   9.527   0.768   9.387 -2.6576  2.8397 -0.9207
  687MOL0     H90655   9.612   0.680   9.262 -0.3329 -2.3043  1.0923
  687MOL0     H90656   9.316   0.632   9.242 -0.2875 -1.5327  3.9746
  687MOL0     H90657   9.452   0.561   9.162 -0.4276  3.3317 -2.5023
  687MOL0     H90658   9.317   0.460   9.383 -1.3436  1.0823  1.3362
  687MOL0     H90659   9.401   0.573   9.472 -0.0402  1.0823 -1.1043
  687MOL0     H90660   9.623   0.474   9.392  1.6212 -0.5169 -2.4518
  687MOL0     H90661   9.530   0.352   9.301 -1.0955 -0.8254  1.1175
  687MOL0     H90662   9.570   0.334   9.591 -1.9513 -0.8970  2.7717
  687MOL0     H90663   9.402   0.311   9.553  0.8888 -1.4808  0.9739
  687MOL0     H90664   9.480   0.147   9.366 -1.4720 -2.1051  1.1319
  687MOL0     H90665   9.498   0.096   9.534 -1.4428 -0.3900 -1.0622
  687MOL0     H90666   9.776   0.945   9.528  1.5669  0.7407  0.9444
  687MOL0     H90667   9.683   1.070   9.709  3.3086  0.2436 -1.2959
  687MOL0     H90668   9.294   1.366   9.694 -2.4591  1.4682  0.2903
  687MOL0     H90669   9.136   1.560   9.723  0.1691  2.1859  1.9108
  687MOL0     H90670   8.920   2.445  11.098 -0.6645 -1.1631  1.0323
  687MOL0     H90671   8.792   2.613  10.980  1.6583 -1.2495 -0.9537
  687MOL0     H90672   8.438   2.597  10.625  2.1314  1.9803  2.2006
  687MOL0     H90673   8.266   2.667  10.466 -0.8500  1.6953 -0.2686
  687MOL0     H90674   8.145   2.859  10.421  0.8641 -0.7292 -0.3886
  687MOL0     H90675   7.999   2.921  10.483  1.3504 -0.0970 -0.0532
  687MOL0     H90676   7.867   2.770  10.332  0.4064  0.6926 -0.9825
  687MOL0     H90677   7.961   2.859  10.227  0.8772 -0.7550 -1.1831
  687MOL0     H90678   8.048   2.592  10.336 -2.0236 -0.6405  0.3106
  687MOL0     H90679   8.125   2.686  10.210 -1.4302  1.6994  0.4713
  687MOL0     H90680   8.002   2.500  10.107 -0.9556 -0.7039  0.3017
  687MOL0     H90681   7.850   2.553  10.170  0.9979 -1.6626  0.0619
  687MOL0     H90682   7.853   2.804   9.848 -1.6506  3.9822  2.4744
  687MOL0     H90683   8.016   2.758  10.791 -0.8864  1.4886 -3.1483
  687MOL0     H90684   8.215   2.683  10.959  4.8084 -3.4263  0.5080
  688MOL0     O90685  10.985   9.667   0.089 -0.3870  0.6281 -0.3593
  688MOL0     C90686  10.944   9.679  -0.026 -0.4996  0.7898 -0.2537
  688MOL0     O90687  10.821   9.734  -0.065  0.3195 -0.8022 -0.2211
  688MOL0     C90688  10.743   9.787   0.038 -1.0656 -0.5642  0.3397
  688MOL0     C90689  10.747   9.919   0.052 -0.3421  0.5073 -0.6460
  688MOL0     C90690  10.676   9.986   0.154 -0.7596 -0.4433 -0.2503
  688MOL0     C90691  10.601   9.910   0.238  0.4362 -0.3307 -0.0227
  688MOL0     O90692  10.521   9.957   0.342 -0.2951 -0.0031 -0.1024
  688MOL0     C90693  10.523  10.095   0.374 -0.0737 -0.1257  0.9502
  688MOL0     C90694  10.485  10.112   0.515 -0.2323 -0.0309  0.7787
  688MOL0     C90695  10.332  10.132   0.535  0.4892  0.0985  0.4425
  688MOL0     C90696  10.307  10.284   0.508  0.0373 -0.3533 -0.2228
  688MOL0     C90697  10.166  10.328   0.483 -0.3730  1.4415 -0.2817
  688MOL0     C90698  10.068  10.297   0.601  0.1101  0.3394  0.1043
  688MOL0     C90699   9.917  10.331   0.573 -0.3273 -0.3150 -0.4214
  688MOL0     C90700   9.826  10.299   0.700  0.1478 -0.2173  1.0234
  688MOL0     N90701   9.862  10.374   0.821 -0.6337  0.2189  0.5989
  688MOL0     C90702   9.981  10.359   0.896 -0.0505 -0.4927  0.1188
  688MOL0     C90703   9.984  10.483   0.968 -0.0626  0.4650  0.1348
  688MOL0     C90704  10.086  10.509   1.076  0.3973  0.2911 -0.3087
  688MOL0     C90705  10.048  10.444   1.200 -0.3578 -0.1492 -0.6474
  688MOL0     C90706  10.167  10.447   1.310  0.0750  0.7006  0.1557
  688MOL0     C90707  10.114  10.399   1.448  1.2766 -0.0842  0.6853
  688MOL0     O90708  10.220  10.429   1.529  0.1620  1.0056 -0.4046
  688MOL0     C90709  10.217  10.379   1.653 -0.6183 -0.7342  0.4507
  688MOL0     C90710  10.112  10.298   1.716 -0.1654  0.4918  0.0413
  688MOL0     C90711  10.126  10.250   1.847  0.8488 -0.6144  0.8682
  688MOL0     C90712  10.238  10.283   1.924  0.2020  0.2783 -0.2885
  688MOL0     C90713  10.254  10.255   2.067  0.3872  0.3179  0.8148
  688MOL0     O90714  10.365  10.282   2.140  0.4259 -0.5741 -0.2514
  688MOL0     C90715  10.380  10.215   2.259  0.2919  0.0091  0.6224
  688MOL0     C90716  10.416  10.079   2.252  0.5309 -0.1857 -0.5841
  688MOL0     C90717  10.439  10.001   2.373 -0.7188  0.0004 -0.3055
  688MOL0     C90718  10.436  10.073   2.501 -0.3366  0.9872  0.0365
  688MOL0     O90719  10.464  10.013   2.626  0.3349  0.0955 -0.7646
  688MOL0     C90720  10.495   9.873   2.635 -0.2276 -0.3824  0.5440
  688MOL0     C90721  10.487   9.825   2.780 -0.3323  1.0868 -0.2159
  688MOL0     C90722  10.609   9.877   2.865  0.7885 -0.5550 -0.0784
  688MOL0     C90723  10.591   9.851   3.012 -0.6689  0.2905  0.3308
  688MOL0     C90724  10.715   9.895   3.098  0.3311 -0.4024  0.1647
  688MOL0     C90725  10.705   9.840   3.239  0.2953  0.7438 -0.4690
  688MOL0     C90726  10.823   9.884   3.333  0.8455 -1.0511  0.6930
  688MOL0     C90727  10.816  10.034   3.372 -1.6297  0.1788  0.0802
  688MOL0    Cl90728  10.661  10.104   3.396  0.2815  0.1596 -0.2811
  688MOL0     C90729  10.391  10.202   2.501 -0.5280 -0.2955 -0.0208
  688MOL0     C90730  10.362  10.271   2.384  0.6126 -0.3147 -0.3529
  688MOL0     O90731  10.147  10.222   2.114  0.0599 -0.5934 -0.2010
  688MOL0     C90732  10.335  10.360   1.863  0.4265 -0.0363  0.1728
  688MOL0     C90733  10.320  10.424   1.737 -0.3027 -0.0534  0.8045
  688MOL0     N90734   9.875  10.564   0.931  0.4882  0.1601  0.4796
  688MOL0     N90735   9.803  10.490   0.846  0.1747 -0.3298  0.1474
  688MOL0     C90736  10.593   9.773   0.226 -1.5215  0.3905 -0.3467
  688MOL0     C90737  10.661   9.712   0.119  0.1075 -0.2031  0.1871
  688MOL0     C90738  11.051   9.665  -0.124  0.6435  0.2654 -0.0664
  688MOL0     C90739  11.029   9.689  -0.257  0.0729  0.6686  0.6499
  688MOL0     C90740  11.129   9.684  -0.353 -0.2891 -0.1041 -0.5720
  688MOL0     C90741  11.256   9.638  -0.322 -0.6963  0.6236 -0.0066
  688MOL0     O90742  11.365   9.653  -0.411  0.4367  0.4878  0.1078
  688MOL0     C90743  11.501   9.643  -0.374  0.4910  0.3676 -0.2659
  688MOL0     C90744  11.606   9.657  -0.487 -0.6993  0.1894  0.3685
  688MOL0     C90745  11.590   9.538  -0.586 -0.4559 -0.2438 -0.7225
  688MOL0     C90746  11.676   9.553  -0.706  0.3272 -0.3915  0.3637
  688MOL0     C90747  11.802   9.488  -0.678  0.2087  0.1896  0.6822
  688MOL0     C90748  11.908   9.418  -0.654  0.3235 -0.1079 -0.3275
  688MOL0     C90749  11.282   9.613  -0.189  0.1912 -0.0200  0.1561
  688MOL0     C90750  11.181   9.626  -0.091  0.6846  0.2227  0.0192
  688MOL0     H90751  10.805   9.965  -0.028  0.5180 -1.4633 -1.2176
  688MOL0     H90752  10.670  10.094   0.148  1.2693 -0.3168 -0.7615
  688MOL0     H90753  10.469  10.142   0.291  1.6285 -0.9560 -0.7114
  688MOL0     H90754  10.625  10.130   0.356  0.7867 -2.5510  0.7425
  688MOL0     H90755  10.549  10.189   0.559  0.1828  2.2233 -3.2859
  688MOL0     H90756  10.517  10.018   0.562  0.6298 -0.5759 -0.8303
  688MOL0     H90757  10.310  10.114   0.640 -1.1795 -1.1632 -0.0713
  688MOL0     H90758  10.269  10.066   0.474 -0.9505 -1.7376  3.6520
  688MOL0     H90759  10.335  10.337   0.599  0.3715  2.8897 -2.0605
  688MOL0     H90760  10.369  10.307   0.421 -0.9040  0.7240 -0.6327
  688MOL0     H90761  10.129  10.274   0.395 -0.5912 -1.8976  1.7091
  688MOL0     H90762  10.161  10.437   0.468  1.4853  1.3501 -1.9111
  688MOL0     H90763  10.107  10.354   0.686 -1.2214  2.5931 -0.7269
  688MOL0     H90764  10.068  10.188   0.615 -0.5452 -0.4121 -4.2827
  688MOL0     H90765   9.912  10.438   0.549 -3.8108 -0.1251  0.6265
  688MOL0     H90766   9.883  10.289   0.478  2.0592 -1.0511 -1.0234
  688MOL0     H90767   9.843  10.192   0.716 -0.1258 -0.1275  1.9820
  688MOL0     H90768   9.718  10.309   0.689  0.1520  0.3296  1.4115
  688MOL0     H90769  10.060  10.284   0.900  1.1865  0.8479  2.2679
  688MOL0     H90770  10.109  10.615   1.088 -0.5684  0.2597  2.3615
  688MOL0     H90771  10.179  10.462   1.044  1.7786  3.3345 -1.1202
  688MOL0     H90772  10.032  10.336   1.202  2.0880 -0.5840 -1.3522
  688MOL0     H90773   9.954  10.494   1.226 -0.4766  0.5559 -2.3203
  688MOL0     H90774  10.242  10.375   1.276  0.3803  1.7342 -1.4677
  688MOL0     H90775  10.206  10.548   1.320 -1.0510  1.0686  1.1484
  688MOL0     H90776  10.084  10.293   1.449 -1.3322  0.5777  0.6304
  688MOL0     H90777  10.023  10.455   1.471  0.0768 -0.5424 -2.4753
  688MOL0     H90778  10.024  10.279   1.656  1.0036 -0.4528 -1.4655
  688MOL0     H90779  10.046  10.191   1.891 -0.2970 -1.7325 -2.3787
  688MOL0     H90780  10.425  10.045   2.149 -3.9155 -2.9548 -0.3318
  688MOL0     H90781  10.475   9.899   2.376  3.0068  1.1937  1.6128
  688MOL0     H90782  10.589   9.847   2.586 -0.4186  0.5623 -0.3697
  688MOL0     H90783  10.425   9.817   2.573 -0.3692  1.1235 -0.7318
  688MOL0     H90784  10.487   9.716   2.789 -3.3815  1.1850  4.4518
  688MOL0     H90785  10.384   9.854   2.803  0.2522  2.8721  0.2763
  688MOL0     H90786  10.623   9.985   2.854 -0.5713 -0.1586  1.7081
  688MOL0     H90787  10.699   9.826   2.829 -0.3058 -0.5020 -3.1827
  688MOL0     H90788  10.502   9.903   3.050 -0.0967  1.5396  0.0017
  688MOL0     H90789  10.580   9.744   3.033  1.9024 -0.3573 -1.2119
  688MOL0     H90790  10.723  10.003   3.087  1.4584 -0.5633 -0.8352
  688MOL0     H90791  10.807   9.864   3.048  0.7921 -1.2094  1.4520
  688MOL0     H90792  10.712   9.731   3.232  2.0675  0.8549 -0.9816
  688MOL0     H90793  10.609   9.873   3.279 -0.6792 -3.7205  1.4381
  688MOL0     H90794  10.809   9.825   3.425 -2.6928 -0.4337  0.7209
  688MOL0     H90795  10.918   9.869   3.281 -0.0899  2.0444 -2.2771
  688MOL0     H90796  10.881  10.088   3.303 -0.3537  0.8436  1.7156
  688MOL0     H90797  10.877  10.044   3.463  0.2366  3.6667 -1.3716
  688MOL0     H90798  10.374  10.261   2.591  0.3259  1.2824 -0.8563
  688MOL0     H90799  10.330  10.374   2.387 -0.7773 -0.7353  1.8380
  688MOL0     H90800  10.425  10.370   1.922  0.7909 -1.2053 -0.1723
  688MOL0     H90801  10.398  10.491   1.703  1.0940 -1.3574  1.3182
  688MOL0     H90802  10.539   9.705   0.292 -4.0190  0.8665 -1.7690
  688MOL0     H90803  10.664   9.606   0.095 -0.6708 -0.1390 -0.2262
  688MOL0     H90804  10.925   9.711  -0.277 -1.0639  2.8747  6.8574
  688MOL0     H90805  11.111   9.694  -0.459 -0.7767 -2.3144 -0.7562
  688MOL0     H90806  11.517   9.549  -0.321  3.1484  0.5977 -0.4971
  688MOL0     H90807  11.511   9.717  -0.294 -0.6745 -0.4500  0.6671
  688MOL0     H90808  11.584   9.749  -0.542 -0.4173  0.6325  0.9851
  688MOL0     H90809  11.701   9.680  -0.440 -0.6285  1.1958 -0.2298
  688MOL0     H90810  11.484   9.542  -0.614 -0.9664 -1.9584  0.8309
  688MOL0     H90811  11.602   9.443  -0.534  0.0950  1.0932  1.7634
  688MOL0     H90812  11.630   9.496  -0.788  0.1865  0.1064  0.0881
  688MOL0     H90813  11.695   9.659  -0.728 -2.1774 -0.0615 -0.5520
  688MOL0     H90814  11.988   9.369  -0.602  1.6758  3.5859  1.4219
  688MOL0     H90815  11.370   9.576  -0.139  1.6881  2.3695 -0.5570
  688MOL0     H90816  11.196   9.599   0.013 -2.5000 -1.1953  0.2225
  689MOL0     O90817   1.860   6.877   8.008  0.2921  0.5204 -0.0888
  689MOL0     C90818   1.807   6.969   7.955 -0.1649  0.4524 -1.3563
  689MOL0     O90819   1.718   6.969   7.855  0.5672  0.0882 -0.2503
  689MOL0     C90820   1.705   6.851   7.798  0.7871  0.2323  0.1493
  689MOL0     C90821   1.764   6.814   7.681 -0.4169  0.2842 -0.4861
  689MOL0     C90822   1.770   6.681   7.638 -0.4029 -0.7563  0.0268
  689MOL0     C90823   1.711   6.580   7.709  0.0501  0.3330 -0.2029
  689MOL0     O90824   1.712   6.458   7.654 -0.8655 -0.0366 -1.2789
  689MOL0     C90825   1.632   6.347   7.698  0.4048  0.0754  0.0563
  689MOL0     C90826   1.657   6.211   7.640 -0.7201  0.7841  0.3265
  689MOL0     C90827   1.560   6.096   7.690  0.3276  0.6301 -0.3359
  689MOL0     C90828   1.628   6.024   7.808 -0.4732  0.1343 -0.1591
  689MOL0     C90829   1.553   5.905   7.857 -1.2764  1.1263 -0.2869
  689MOL0     C90830   1.597   5.872   7.999 -0.5644 -0.4265 -1.1008
  689MOL0     C90831   1.737   5.806   7.999  0.8042  0.2975 -0.1293
  689MOL0     C90832   1.786   5.807   8.139 -0.4530  0.6514  0.0808
  689MOL0     N90833   1.711   5.726   8.228 -0.8764  0.7028 -0.5297
  689MOL0     C90834   1.603   5.750   8.299  0.4923 -0.4459  0.0644
  689MOL0     C90835   1.554   5.633   8.347 -0.0635  0.5469 -0.3920
  689MOL0     C90836   1.436   5.606   8.437 -0.4063  0.2592 -0.3983
  689MOL0     C90837   1.321   5.529   8.369  0.7791  0.5868  0.3310
  689MOL0     C90838   1.342   5.377   8.354 -0.2904 -0.9683  0.2789
  689MOL0     C90839   1.350   5.299   8.485  0.4102 -0.0306  0.6297
  689MOL0     O90840   1.345   5.157   8.454  0.4600  0.2985  0.0493
  689MOL0     C90841   1.235   5.083   8.457  0.7062  0.1343  0.3780
  689MOL0     C90842   1.103   5.136   8.488 -0.2878 -0.4001 -0.4352
  689MOL0     C90843   0.999   5.048   8.470 -0.4769  0.2176  0.5276
  689MOL0     C90844   1.021   4.912   8.417  0.7097 -0.8321 -0.4438
  689MOL0     C90845   0.904   4.813   8.391  0.4242  0.5365 -0.5567
  689MOL0     O90846   0.906   4.680   8.362  0.5449 -0.2624  0.4098
  689MOL0     C90847   0.794   4.612   8.307 -0.0535  0.3304  0.5387
  689MOL0     C90848   0.746   4.501   8.365 -0.1293 -0.9119 -0.2213
  689MOL0     C90849   0.622   4.446   8.344 -0.2835 -0.0654  0.8993
  689MOL0     C90850   0.539   4.507   8.257  0.1842  0.0097  0.0707
  689MOL0     O90851   0.415   4.461   8.238  0.1224  1.0067  0.1070
  689MOL0     C90852   0.337   4.444   8.353  0.4339  0.4368 -0.2490
  689MOL0     C90853   0.319   4.296   8.387 -0.1200 -0.4809  0.5035
  689MOL0     C90854   0.303   4.200   8.273  0.5129  0.1955  0.7008
  689MOL0     C90855   0.316   4.057   8.297  0.5175  0.2303 -0.0781
  689MOL0     C90856   0.231   4.004   8.426  0.4010 -0.1528  0.4423
  689MOL0     C90857   0.084   4.043   8.410 -0.1462  0.7623  0.8586
  689MOL0     C90858   0.006   3.980   8.294 -0.2163  1.0224  0.7125
  689MOL0     C90859  -0.147   4.022   8.299 -0.1267 -0.0674 -0.0856
  689MOL0    Cl90860  -0.236   3.899   8.397 -0.4147  0.1324  0.0193
  689MOL0     C90861   0.585   4.622   8.189  0.8241  0.6854 -0.1386
  689MOL0     C90862   0.715   4.667   8.212  0.4278  0.2444  1.0209
  689MOL0     O90863   0.797   4.874   8.403 -0.4469 -0.9930 -0.0252
  689MOL0     C90864   1.151   4.871   8.392 -0.2918 -0.6979  1.1628
  689MOL0     C90865   1.256   4.956   8.416  0.3886  0.1442  0.0026
  689MOL0     N90866   1.632   5.531   8.290 -0.2159 -0.7497  0.3855
  689MOL0     N90867   1.724   5.594   8.225 -1.0222 -0.1741  1.1060
  689MOL0     C90868   1.655   6.613   7.830  0.5156 -0.1875  0.9602
  689MOL0     C90869   1.639   6.749   7.872 -0.4890 -0.6062 -0.3423
  689MOL0     C90870   1.836   7.100   8.020  0.1458 -0.2775 -0.3255
  689MOL0     C90871   1.752   7.211   7.999  0.9758 -0.9726 -0.1044
  689MOL0     C90872   1.768   7.329   8.073 -1.0775  0.2018  0.1290
  689MOL0     C90873   1.875   7.349   8.166  0.5574  0.3826  0.5756
  689MOL0     O90874   1.910   7.461   8.240 -0.5710 -0.4596 -0.1350
  689MOL0     C90875   1.840   7.584   8.212  0.0059 -0.0929 -0.8334
  689MOL0     C90876   1.917   7.693   8.287  0.3169  0.0126 -0.5911
  689MOL0     C90877   2.051   7.729   8.243  0.2909 -0.3528  0.6733
  689MOL0     C90878   2.057   7.833   8.118  0.8523  0.6740 -0.2632
  689MOL0     C90879   2.026   7.968   8.166 -0.4600  0.4168  0.2547
  689MOL0     C90880   1.995   8.081   8.198 -0.2846  0.6475 -0.1539
  689MOL0     C90881   1.964   7.238   8.181 -0.2168 -0.7002 -0.0868
  689MOL0     C90882   1.941   7.119   8.110  0.5983  0.0287  0.6981
  689MOL0     H90883   1.827   6.880   7.622 -0.5699  0.4875 -0.4246
  689MOL0     H90884   1.826   6.671   7.545 -1.2255  0.5703 -0.6384
  689MOL0     H90885   1.526   6.371   7.696 -0.0000 -1.2159  2.4648
  689MOL0     H90886   1.654   6.328   7.803 -0.5899 -1.4366  0.0244
  689MOL0     H90887   1.759   6.181   7.665  1.2119  3.2286 -3.4927
  689MOL0     H90888   1.653   6.208   7.530 -3.4391 -0.5387  0.3837
  689MOL0     H90889   1.537   6.014   7.621 -4.3433 -0.2938  1.8878
  689MOL0     H90890   1.470   6.141   7.732 -1.4424 -2.3507 -0.6166
  689MOL0     H90891   1.730   5.999   7.778 -0.6653 -2.1508  0.9292
  689MOL0     H90892   1.636   6.086   7.897  1.0778 -2.0210  1.3014
  689MOL0     H90893   1.578   5.818   7.796  2.5877  0.3348  2.1184
  689MOL0     H90894   1.445   5.921   7.861 -1.6506 -1.3190  1.8786
  689MOL0     H90895   1.524   5.801   8.038  2.1072 -2.5600  0.4430
  689MOL0     H90896   1.613   5.961   8.062  4.6628 -0.7434 -1.5101
  689MOL0     H90897   1.746   5.706   7.954 -1.2514 -0.2461  0.5239
  689MOL0     H90898   1.810   5.865   7.943  1.2828  1.4491  1.6488
  689MOL0     H90899   1.793   5.914   8.162 -1.1896  1.0839 -1.5283
  689MOL0     H90900   1.886   5.763   8.136 -1.8833 -2.9330 -0.3357
  689MOL0     H90901   1.559   5.846   8.326  0.6563 -0.2927 -0.2073
  689MOL0     H90902   1.382   5.695   8.471 -4.4129 -2.5666  1.4529
  689MOL0     H90903   1.477   5.558   8.527  3.3592  2.1804 -0.9012
  689MOL0     H90904   1.309   5.569   8.268  2.1111 -1.1116 -0.5613
  689MOL0     H90905   1.222   5.537   8.414 -1.7496  0.9147 -4.5795
  689MOL0     H90906   1.257   5.344   8.294  0.6541 -2.8526 -0.0767
  689MOL0     H90907   1.431   5.351   8.297 -0.7070  1.3142 -1.5768
  689MOL0     H90908   1.269   5.335   8.549  2.0892  2.2069  1.6435
  689MOL0     H90909   1.434   5.332   8.548 -0.5239  2.2877  0.7378
  689MOL0     H90910   1.081   5.235   8.525 -1.8454  1.2969 -5.1574
  689MOL0     H90911   0.896   5.077   8.487 -0.6133 -0.1169  0.2906
  689MOL0     H90912   0.802   4.462   8.450 -1.1024 -2.1320 -0.1229
  689MOL0     H90913   0.606   4.357   8.403  0.8682 -0.6701  0.3375
  689MOL0     H90914   0.236   4.480   8.334 -0.1180 -0.0969  1.4903
  689MOL0     H90915   0.378   4.493   8.442  2.3355 -2.0529  0.3766
  689MOL0     H90916   0.247   4.281   8.468  0.8985  1.3621  1.8327
  689MOL0     H90917   0.412   4.260   8.432 -0.1209 -0.1723  0.7575
  689MOL0     H90918   0.374   4.229   8.196  0.9596 -1.0997  0.5891
  689MOL0     H90919   0.206   4.206   8.222  0.1093 -0.1062  1.4176
  689MOL0     H90920   0.288   3.996   8.211  2.7700  0.9692 -1.4433
  689MOL0     H90921   0.421   4.029   8.316  0.8871  1.3974 -0.3320
  689MOL0     H90922   0.281   4.046   8.514  1.9839  0.7713 -0.8367
  689MOL0     H90923   0.244   3.896   8.436  2.4665  0.0404  0.4160
  689MOL0     H90924   0.063   4.149   8.393  0.4338  0.3337 -3.5955
  689MOL0     H90925   0.056   4.008   8.510  0.2990 -1.1315  0.3553
  689MOL0     H90926   0.050   4.014   8.200  0.2482 -0.2582  0.4504
  689MOL0     H90927   0.021   3.872   8.288 -0.4246  1.0523 -0.4145
  689MOL0     H90928  -0.182   4.031   8.196 -0.0373 -0.7469 -0.1841
  689MOL0     H90929  -0.172   4.118   8.343  0.6627  0.5779 -0.9903
  689MOL0     H90930   0.518   4.673   8.121 -0.5407  2.6704  2.5108
  689MOL0     H90931   0.740   4.755   8.154 -1.7598 -1.3966 -2.7690
  689MOL0     H90932   1.178   4.774   8.352 -0.0786  0.2828 -1.2966
  689MOL0     H90933   1.356   4.935   8.381  0.4672 -0.2940  0.4649
  689MOL0     H90934   1.604   6.532   7.882  0.4760 -0.5423  0.3854
  689MOL0     H90935   1.600   6.782   7.968  2.0215  4.4614 -0.7333
  689MOL0     H90936   1.670   7.220   7.929  0.6235 -1.9673  0.1615
  689MOL0     H90937   1.702   7.412   8.047 -1.4024  0.0560  0.4766
  689MOL0     H90938   1.735   7.573   8.242  0.0173  0.2851 -0.6522
  689MOL0     H90939   1.850   7.618   8.109 -0.1160 -1.1915 -1.2213
  689MOL0     H90940   1.843   7.774   8.279  0.1113  0.0773  1.3895
  689MOL0     H90941   1.911   7.664   8.393  0.5465  2.3159  0.1008
  689MOL0     H90942   2.103   7.637   8.214 -1.7754 -1.0665 -1.0853
  689MOL0     H90943   2.107   7.763   8.331 -0.3823  0.4576  0.8037
  689MOL0     H90944   2.155   7.832   8.070  0.2049  1.5214 -1.6545
  689MOL0     H90945   1.982   7.807   8.043  0.4135  0.2755  0.3101
  689MOL0     H90946   1.975   8.182   8.226  0.1477  1.6391 -3.0931
  689MOL0     H90947   2.048   7.234   8.250  0.3543 -3.2922 -0.8435
  689MOL0     H90948   2.013   7.041   8.133  1.8353  1.6894  2.8093
  690MOL0     O90949   1.730   3.275   4.889 -0.8738 -0.4885  0.4117
  690MOL0     C90950   1.685   3.288   5.001  0.8121  0.0596 -0.6270
  690MOL0     O90951   1.555   3.256   5.037 -0.3350 -0.7182  1.0931
  690MOL0     C90952   1.480   3.193   4.939  0.7548 -0.7852 -0.7625
  690MOL0     C90953   1.387   3.270   4.866  1.2465  0.4588 -1.0180
  690MOL0     C90954   1.303   3.201   4.773 -0.4442 -0.5191  0.5819
  690MOL0     C90955   1.317   3.064   4.752 -1.6124 -0.5076 -0.3343
  690MOL0     O90956   1.239   2.991   4.667 -0.6271 -0.3927  0.0726
  690MOL0     C90957   1.194   3.042   4.542  0.8205 -0.8070  0.1986
  690MOL0     C90958   1.114   2.934   4.460  0.1045  0.6573 -0.0331
  690MOL0     C90959   0.993   2.996   4.370 -0.7296  1.0191  0.0295
  690MOL0     C90960   0.873   3.015   4.459 -0.2774  0.5941 -1.3680
  690MOL0     C90961   0.746   3.044   4.390 -0.0512  0.6316 -0.1386
  690MOL0     C90962   0.751   3.178   4.318 -1.4357  1.0292 -0.2824
  690MOL0     C90963   0.622   3.226   4.248 -0.8897 -0.1916  0.5732
  690MOL0     C90964   0.507   3.225   4.348  0.5786  0.3529  0.7016
  690MOL0     N90965   0.394   3.307   4.297 -0.1950  0.1476 -0.1446
  690MOL0     C90966   0.400   3.428   4.235 -0.2062 -0.7431  0.5344
  690MOL0     C90967   0.273   3.470   4.200 -0.1613 -0.1759  0.2388
  690MOL0     C90968   0.231   3.605   4.153 -0.4413  0.1105 -0.1997
  690MOL0     C90969   0.181   3.683   4.277  0.0654 -0.1563  0.6288
  690MOL0     C90970   0.029   3.679   4.300 -0.0451  0.4041 -0.4877
  690MOL0     C90971  -0.016   3.771   4.419  0.4084  0.0791  0.3304
  690MOL0     O90972   0.065   3.731   4.542  0.0108 -0.1998  0.1036
  690MOL0     C90973  -0.006   3.676   4.639  0.2215  0.2085 -0.5702
  690MOL0     C90974   0.045   3.690   4.770  0.5944 -1.0920  1.4613
  690MOL0     C90975  -0.002   3.617   4.878  1.0529  0.2703  1.4201
  690MOL0     C90976  -0.111   3.530   4.860  0.2802 -0.1125 -0.7998
  690MOL0     C90977  -0.178   3.458   4.982  0.8702  1.4901 -0.7703
  690MOL0     O90978  -0.242   3.338   4.947 -0.0815 -0.5820 -0.7311
  690MOL0     C90979  -0.247   3.231   5.026  0.0308  0.6457 -0.4385
  690MOL0     C90980  -0.342   3.139   4.974  0.3753 -0.2418  0.5702
  690MOL0     C90981  -0.390   3.034   5.048 -0.2464  0.4570 -0.9900
  690MOL0     C90982  -0.331   3.008   5.169  0.1261  0.4901 -0.2251
  690MOL0     O90983  -0.377   2.904   5.253  0.9301 -0.2757  0.3941
  690MOL0     C90984  -0.383   2.773   5.194  0.0790 -0.3076 -0.7061
  690MOL0     C90985  -0.492   2.682   5.263 -0.7920  0.2715  0.2049
  690MOL0     C90986  -0.627   2.745   5.295 -0.0658  1.2711  0.1251
  690MOL0     C90987  -0.715   2.641   5.367  0.5871  1.0865  0.3348
  690MOL0     C90988  -0.861   2.689   5.399 -0.2577  0.4622  0.3815
  690MOL0     C90989  -0.931   2.578   5.475  0.4393  1.3895  0.2224
  690MOL0     C90990  -1.088   2.592   5.483  0.8331 -0.0906 -0.2156
  690MOL0     C90991  -1.124   2.609   5.633  0.2120 -0.1678 -0.2954
  690MOL0    Cl90992  -1.133   2.445   5.719 -0.4614 -0.2844  0.2238
  690MOL0     C90993  -0.240   3.091   5.226 -1.0204  0.6115 -0.2196
  690MOL0     C90994  -0.199   3.208   5.153  0.1478  0.1752  0.0663
  690MOL0     O90995  -0.141   3.488   5.094  0.2686  0.6150 -0.0297
  690MOL0     C90996  -0.181   3.526   4.734 -0.1509 -0.3087 -0.0162
  690MOL0     C90997  -0.128   3.596   4.623  0.1446  0.4468 -1.4485
  690MOL0     N90998   0.190   3.361   4.235 -0.4158  0.9944 -0.5863
  690MOL0     N90999   0.261   3.266   4.292  0.2993  0.3561 -0.3816
  690MOL0     C91000   1.398   2.990   4.838 -0.6521 -0.2543  0.0849
  690MOL0     C91001   1.462   3.055   4.936  0.0124  0.4003 -0.1363
  690MOL0     C91002   1.776   3.319   5.124  0.9554  0.6141  0.0149
  690MOL0     C91003   1.919   3.320   5.109  0.1372  0.0985 -0.2772
  690MOL0     C91004   2.002   3.347   5.220 -0.6190  0.1300 -0.2781
  690MOL0     C91005   1.954   3.382   5.345 -0.5582  0.4651  0.2364
  690MOL0     O91006   2.042   3.421   5.455 -0.1128  0.3519  0.1170
  690MOL0     C91007   1.984   3.482   5.570  1.1173 -0.1270 -0.1412
  690MOL0     C91008   2.081   3.581   5.629  0.0239 -0.5338  0.1209
  690MOL0     C91009   2.220   3.529   5.656 -0.2695  0.4738  0.0700
  690MOL0     C91010   2.311   3.649   5.678 -0.1943  0.1290  1.2002
  690MOL0     C91011   2.442   3.595   5.717 -0.0688  0.3853  0.6761
  690MOL0     C91012   2.551   3.579   5.763  0.8781  0.3229 -0.2080
  690MOL0     C91013   1.818   3.370   5.360  0.1056 -0.6436 -0.2336
  690MOL0     C91014   1.730   3.340   5.251 -0.2074 -0.9906  0.1193
  690MOL0     H91015   1.376   3.378   4.869  1.7017  0.5447 -2.1331
  690MOL0     H91016   1.225   3.242   4.709  1.7454  3.9901  0.3984
  690MOL0     H91017   1.274   3.087   4.482  0.1954 -2.4703 -2.0261
  690MOL0     H91018   1.124   3.124   4.561 -1.3469 -2.0669 -1.8128
  690MOL0     H91019   1.074   2.860   4.530 -4.6994  0.9768 -2.0319
  690MOL0     H91020   1.169   2.873   4.388 -2.0509 -0.1078 -1.1209
  690MOL0     H91021   0.977   2.920   4.293 -0.8329  0.7960  0.2717
  690MOL0     H91022   1.033   3.079   4.311 -1.3964 -0.1853 -2.2603
  690MOL0     H91023   0.846   2.930   4.521 -2.3881 -0.7318 -3.9174
  690MOL0     H91024   0.884   3.100   4.527  2.1769 -0.4813 -0.2793
  690MOL0     H91025   0.661   3.038   4.459 -0.7778  3.1982 -0.6954
  690MOL0     H91026   0.713   2.972   4.314 -1.3153 -0.3953  1.3372
  690MOL0     H91027   0.823   3.165   4.237 -1.3398  0.8552 -0.1712
  690MOL0     H91028   0.795   3.260   4.376  1.3858 -0.0074 -0.7600
  690MOL0     H91029   0.634   3.332   4.225 -0.4327 -0.0716  1.3124
  690MOL0     H91030   0.611   3.175   4.152  1.7610 -0.2036  0.1887
  690MOL0     H91031   0.542   3.273   4.440 -0.0239  2.5219 -0.1227
  690MOL0     H91032   0.465   3.127   4.373 -0.7429  0.2809 -1.5996
  690MOL0     H91033   0.488   3.493   4.241 -1.5945  1.1915  0.9695
  690MOL0     H91034   0.154   3.627   4.078  0.3383  3.4897 -0.1511
  690MOL0     H91035   0.321   3.659   4.122  0.9932 -2.0261 -0.0178
  690MOL0     H91036   0.208   3.787   4.254  0.6437 -1.0406 -3.5711
  690MOL0     H91037   0.233   3.651   4.368  0.7253  0.9731  0.6747
  690MOL0     H91038  -0.032   3.710   4.215  2.0262  4.7020 -0.6577
  690MOL0     H91039   0.016   3.575   4.332  2.2690  0.4128  0.7794
  690MOL0     H91040  -0.120   3.748   4.442  0.0697  1.8524  0.7261
  690MOL0     H91041  -0.008   3.877   4.392  0.0149  0.7348  2.5444
  690MOL0     H91042   0.131   3.754   4.788 -0.0079  0.7251 -1.5763
  690MOL0     H91043   0.041   3.627   4.977 -1.1154  2.9440  2.2133
  690MOL0     H91044  -0.372   3.159   4.871 -3.2725 -1.6914  1.1995
  690MOL0     H91045  -0.468   2.969   5.010 -1.1773  1.0603 -0.1664
  690MOL0     H91046  -0.285   2.725   5.204 -0.5635 -1.8509 -1.5048
  690MOL0     H91047  -0.412   2.789   5.090  2.8893 -1.4785 -1.7651
  690MOL0     H91048  -0.449   2.646   5.357 -2.1314  2.5703  1.7883
  690MOL0     H91049  -0.512   2.600   5.193 -1.2045  1.7163 -1.4210
  690MOL0     H91050  -0.673   2.782   5.203  2.1004 -1.0638 -2.0408
  690MOL0     H91051  -0.620   2.823   5.372  1.2002  0.8853  0.4205
  690MOL0     H91052  -0.717   2.549   5.307  3.2306  1.9517 -1.2506
  690MOL0     H91053  -0.657   2.614   5.455 -0.0872 -0.7807  0.2605
  690MOL0     H91054  -0.909   2.729   5.309  0.6040  0.0750 -0.2581
  690MOL0     H91055  -0.856   2.771   5.472 -0.7426  0.6818  0.1736
  690MOL0     H91056  -0.888   2.569   5.575 -0.4035 -1.7228  0.4258
  690MOL0     H91057  -0.907   2.481   5.430  0.3868  1.7937 -0.6859
  690MOL0     H91058  -1.124   2.683   5.434 -1.2071  0.9634  2.8812
  690MOL0     H91059  -1.144   2.507   5.444 -1.7459  0.3255  2.2382
  690MOL0     H91060  -1.230   2.635   5.636 -0.7161 -3.5010  1.7100
  690MOL0     H91061  -1.057   2.685   5.674 -0.9078  1.2181 -0.9339
  690MOL0     H91062  -0.209   3.057   5.324 -6.2629 -1.2095  1.1813
  690MOL0     H91063  -0.132   3.281   5.198 -1.3051  0.8789  1.1606
  690MOL0     H91064  -0.275   3.472   4.737 -0.8647  0.9275  1.4793
  690MOL0     H91065  -0.157   3.575   4.521  2.9480 -0.3350 -2.1832
  690MOL0     H91066   1.406   2.882   4.829  1.2283 -0.3474  1.9222
  690MOL0     H91067   1.507   2.985   5.005  0.2007  0.6010 -0.0545
  690MOL0     H91068   1.965   3.306   5.011 -0.0892  0.5966 -0.4604
  690MOL0     H91069   2.107   3.349   5.194 -1.0496  2.2204 -2.2154
  690MOL0     H91070   1.960   3.408   5.646 -0.3052 -0.1343 -0.5543
  690MOL0     H91071   1.893   3.537   5.542  0.0617 -1.9964 -0.5759
  690MOL0     H91072   2.083   3.665   5.558 -1.1644  2.0884  2.9599
  690MOL0     H91073   2.032   3.628   5.714 -0.6779 -0.6932 -0.1859
  690MOL0     H91074   2.252   3.463   5.574 -0.9606  0.9775 -0.6176
  690MOL0     H91075   2.221   3.464   5.744  3.3415  1.0786  0.6261
  690MOL0     H91076   2.319   3.708   5.586  0.9341 -1.2584  0.3636
  690MOL0     H91077   2.268   3.718   5.751 -5.5802  0.2572 -1.6112
  690MOL0     H91078   2.651   3.571   5.801  1.1083  1.9534 -0.3773
  690MOL0     H91079   1.773   3.383   5.458 -1.8243  1.3121 -1.2794
  690MOL0     H91080   1.621   3.339   5.247 -0.2616 -0.3889 -5.2731
  691MOL0     O91081   8.555   8.526  10.426  0.7041  1.0137 -0.0718
  691MOL0     C91082   8.507   8.436  10.356  0.7968 -0.4242  0.0337
  691MOL0     O91083   8.413   8.345  10.395  0.0399 -0.3071 -0.6567
  691MOL0     C91084   8.400   8.307  10.525 -0.5666  0.1167 -0.0639
  691MOL0     C91085   8.519   8.243  10.577  0.1455 -0.9474 -0.6558
  691MOL0     C91086   8.517   8.204  10.710  0.4819  1.5212 -0.3189
  691MOL0     C91087   8.405   8.226  10.782 -0.7368  0.2552  0.0069
  691MOL0     O91088   8.388   8.183  10.916  0.2387  0.6392  0.5654
  691MOL0     C91089   8.479   8.085  10.965 -0.3938 -0.2152 -0.5496
  691MOL0     C91090   8.459   7.936  10.919  0.2250 -0.2261 -0.0070
  691MOL0     C91091   8.365   7.847  11.001  0.6388  1.1092 -0.2174
  691MOL0     C91092   8.222   7.888  11.040  0.7384  0.2437 -0.0441
  691MOL0     C91093   8.165   7.776  11.122 -0.1358  0.4204  0.5726
  691MOL0     C91094   8.018   7.772  11.176  0.3536 -0.2681 -0.1951
  691MOL0     C91095   7.920   7.743  11.064  0.0416  0.2858  0.0392
  691MOL0     C91096   7.782   7.709  11.120 -0.9613  0.7049  0.1390
  691MOL0     N91097   7.706   7.818  11.168 -0.0744 -1.1090  0.0641
  691MOL0     C91098   7.735   7.917  11.265  0.5981 -0.2543  0.2496
  691MOL0     C91099   7.624   7.992  11.249 -0.0737  0.3820 -0.4453
  691MOL0     C91100   7.588   8.097  11.344 -0.6878  0.2714 -0.0772
  691MOL0     C91101   7.674   8.222  11.335 -0.1003  1.1472 -0.5068
  691MOL0     C91102   7.630   8.343  11.409 -0.0420 -0.2872  0.2498
  691MOL0     C91103   7.513   8.418  11.342 -0.2031 -0.3669  0.0945
  691MOL0     O91104   7.504   8.538  11.410  0.0652  0.1857 -1.4077
  691MOL0     C91105   7.400   8.621  11.394  0.8142 -0.2413  0.9758
  691MOL0     C91106   7.270   8.568  11.348 -0.8792  1.1314  0.3641
  691MOL0     C91107   7.171   8.663  11.319 -0.1204  0.3352  0.3094
  691MOL0     C91108   7.200   8.796  11.323  1.4365  0.2812  0.7128
  691MOL0     C91109   7.106   8.893  11.261 -0.5295  0.5469  0.0823
  691MOL0     O91110   7.011   8.842  11.168  0.6682  0.4823 -0.1899
  691MOL0     C91111   6.936   8.934  11.108  0.2930  0.0992 -0.3105
  691MOL0     C91112   6.833   8.990  11.176 -1.0713  1.2729 -0.1756
  691MOL0     C91113   6.752   9.077  11.114 -0.1868  1.3829 -0.2433
  691MOL0     C91114   6.766   9.117  10.985 -0.0960  0.6781  0.3820
  691MOL0     O91115   6.677   9.201  10.938  0.1004 -0.5563 -1.0451
  691MOL0     C91116   6.706   9.289  10.830 -0.6031  1.0694 -0.3159
  691MOL0     C91117   6.598   9.389  10.800  0.9428  0.3385 -0.0991
  691MOL0     C91118   6.623   9.464  10.672  0.0944  0.8037  0.0061
  691MOL0     C91119   6.499   9.548  10.635 -0.2211  0.6570 -1.1046
  691MOL0     C91120   6.521   9.627  10.502 -0.5622 -0.0804 -0.1477
  691MOL0     C91121   6.387   9.658  10.428  0.0819  0.4170  0.4412
  691MOL0     C91122   6.405   9.734  10.294 -0.1333  0.2112  0.1063
  691MOL0     C91123   6.293   9.685  10.203  0.1795  0.7636  0.9175
  691MOL0    Cl91124   6.126   9.747  10.244 -0.0016 -0.2648  0.1512
  691MOL0     C91125   6.866   9.055  10.912  0.3304 -0.4527 -0.4219
  691MOL0     C91126   6.954   8.952  10.968 -0.0378  0.1973 -0.1181
  691MOL0     O91127   7.122   9.007  11.297  0.0537 -0.4039 -0.2341
  691MOL0     C91128   7.315   8.844  11.380 -1.5220 -0.2269  0.8453
  691MOL0     C91129   7.416   8.752  11.423  0.4396 -0.5766 -0.4586
  691MOL0     N91130   7.544   7.955  11.147 -0.3685 -0.3123  0.6080
  691MOL0     N91131   7.588   7.841  11.106  0.0517 -0.0108 -0.2864
  691MOL0     C91132   8.292   8.287  10.729  0.7447 -0.3097  0.1044
  691MOL0     C91133   8.288   8.331  10.598 -0.0617  1.2505 -0.3113
  691MOL0     C91134   8.542   8.440  10.211  0.5296 -2.0969 -0.8234
  691MOL0     C91135   8.608   8.550  10.152 -0.6648  0.2861  0.2804
  691MOL0     C91136   8.597   8.574  10.008 -0.3142  0.5926  0.8123
  691MOL0     C91137   8.548   8.471   9.926 -0.1170  0.4299 -0.4725
  691MOL0     O91138   8.547   8.459   9.790 -0.1622 -0.0692  1.0502
  691MOL0     C91139   8.642   8.547   9.716  0.5165 -0.3702  0.1884
  691MOL0     C91140   8.621   8.543   9.562  0.4674 -0.3811 -0.1633
  691MOL0     C91141   8.714   8.638   9.476 -0.0582 -0.5553  0.1809
  691MOL0     C91142   8.682   8.784   9.464  0.0949  0.3737 -0.0754
  691MOL0     C91143   8.546   8.794   9.416  0.4555  0.1831 -0.6469
  691MOL0     C91144   8.432   8.782   9.368 -1.1121  0.5270  0.4393
  691MOL0     C91145   8.499   8.359   9.993  0.7934  0.3474 -0.6033
  691MOL0     C91146   8.493   8.343  10.132 -0.3108  1.6246 -0.1617
  691MOL0     H91147   8.607   8.227  10.515  0.4726 -0.1476 -0.4118
  691MOL0     H91148   8.599   8.152  10.758  0.4977  3.1841  1.6051
  691MOL0     H91149   8.448   8.092  11.069  1.5030 -0.1350  0.0417
  691MOL0     H91150   8.585   8.113  10.959 -0.7339  1.5276  0.8037
  691MOL0     H91151   8.554   7.893  10.887  1.4702 -0.2102  3.2835
  691MOL0     H91152   8.406   7.957  10.825  3.2419  1.0642 -1.5664
  691MOL0     H91153   8.424   7.827  11.091  2.1219  1.0871 -1.1477
  691MOL0     H91154   8.346   7.755  10.945  0.3057 -0.2631  2.0296
  691MOL0     H91155   8.222   7.971  11.111 -0.0270  0.8787 -0.7722
  691MOL0     H91156   8.160   7.916  10.956  1.4803  0.3074 -0.5809
  691MOL0     H91157   8.230   7.769  11.210  0.8795  4.5292  0.3946
  691MOL0     H91158   8.177   7.683  11.066 -1.1894  1.0534 -0.7795
  691MOL0     H91159   7.994   7.871  11.215  0.1238 -0.0071 -0.9743
  691MOL0     H91160   8.009   7.700  11.258  1.0786  0.6621  0.7240
  691MOL0     H91161   7.905   7.823  10.992 -1.4354 -0.8154 -0.9355
  691MOL0     H91162   7.958   7.661  11.003  0.5043  2.8290 -3.4140
  691MOL0     H91163   7.801   7.651  11.210  3.3468  2.4998  0.6125
  691MOL0     H91164   7.722   7.643  11.057 -2.3969  0.9204  1.2279
  691MOL0     H91165   7.808   7.935  11.343  0.4822  0.9787  0.0849
  691MOL0     H91166   7.594   8.054  11.444 -0.9786  0.0711 -0.1448
  691MOL0     H91167   7.487   8.135  11.325 -0.2484  2.1140  0.9550
  691MOL0     H91168   7.695   8.240  11.229  1.3620 -3.3465 -1.1881
  691MOL0     H91169   7.768   8.193  11.382 -0.5440  3.0373  1.6910
  691MOL0     H91170   7.588   8.320  11.507  0.0617  0.3453  0.4521
  691MOL0     H91171   7.710   8.418  11.416 -1.1816  1.4544 -3.1491
  691MOL0     H91172   7.424   8.354  11.346 -0.5001 -0.0019 -0.4066
  691MOL0     H91173   7.546   8.425  11.237  3.9922 -3.3221  0.9732
  691MOL0     H91174   7.237   8.465  11.335 -0.3913  1.0351 -0.1719
  691MOL0     H91175   7.074   8.629  11.286 -1.0207  2.1591  0.9780
  691MOL0     H91176   6.829   8.974  11.283 -1.2714  0.6542 -0.2699
  691MOL0     H91177   6.655   9.113  11.148 -0.9131  1.1562 -1.9852
  691MOL0     H91178   6.731   9.234  10.739  2.0658  2.8429 -0.7754
  691MOL0     H91179   6.798   9.336  10.866  1.2507 -1.4056 -1.5274
  691MOL0     H91180   6.608   9.459  10.883 -1.0794  1.6191 -0.8593
  691MOL0     H91181   6.501   9.338  10.801 -0.3880  2.6608  2.3457
  691MOL0     H91182   6.659   9.396  10.594  1.6161 -0.9439  2.0982
  691MOL0     H91183   6.701   9.540  10.675 -1.6280  2.7655 -1.8360
  691MOL0     H91184   6.416   9.479  10.622  0.0513 -0.0094  0.3735
  691MOL0     H91185   6.466   9.625  10.706 -1.8947  0.5042 -1.6832
  691MOL0     H91186   6.581   9.567  10.432  0.6210  0.4377  0.3948
  691MOL0     H91187   6.574   9.722  10.519 -0.2468 -0.1669 -0.6207
  691MOL0     H91188   6.317   9.716  10.488 -0.8100  0.2288 -0.3971
  691MOL0     H91189   6.333   9.566  10.407 -1.5084  1.1068  1.3615
  691MOL0     H91190   6.405   9.841  10.316  3.6777 -0.2191  3.1772
  691MOL0     H91191   6.499   9.712  10.242  0.1810 -2.3388  1.5906
  691MOL0     H91192   6.290   9.576  10.198  0.9793  0.7614 -2.4257
  691MOL0     H91193   6.317   9.711  10.099 -1.8074 -1.4325 -0.1914
  691MOL0     H91194   6.882   9.083  10.808 -1.8640  0.5465 -0.5417
  691MOL0     H91195   7.022   8.885  10.916 -0.3128 -2.1232  2.2823
  691MOL0     H91196   7.340   8.949  11.386  1.5713 -0.7268 -0.8524
  691MOL0     H91197   7.509   8.789  11.465  1.7578 -1.0125 -2.7971
  691MOL0     H91198   8.211   8.322  10.792  0.1042  0.4129 -1.0711
  691MOL0     H91199   8.205   8.389  10.558 -0.5779  0.7120 -0.0534
  691MOL0     H91200   8.650   8.632  10.209  0.7626  1.1145 -1.8251
  691MOL0     H91201   8.632   8.672   9.976 -0.2455  1.4766  3.3849
  691MOL0     H91202   8.741   8.516   9.752  0.3725  1.0804  1.9789
  691MOL0     H91203   8.640   8.653   9.741  4.2110  0.2166 -1.3148
  691MOL0     H91204   8.615   8.439   9.529  0.4513 -0.0329 -1.3062
  691MOL0     H91205   8.517   8.573   9.553  0.9965  1.8350  0.3996
  691MOL0     H91206   8.705   8.603   9.372 -3.3021  0.1644  0.1130
  691MOL0     H91207   8.818   8.623   9.506 -0.1230  3.1774  3.0601
  691MOL0     H91208   8.684   8.839   9.559  0.2280  0.2779 -0.0233
  691MOL0     H91209   8.746   8.834   9.391 -2.0737  2.2991 -0.8001
  691MOL0     H91210   8.330   8.784   9.337 -0.8016 -1.4027 -0.9414
  691MOL0     H91211   8.448   8.292   9.924  0.5337  1.0120 -1.0677
  691MOL0     H91212   8.439   8.263  10.181 -0.1649  1.9268  0.5085
  692MOL0     O91213   1.682  10.913  10.911 -1.0087 -0.3893 -0.4683
  692MOL0     C91214   1.742  10.837  10.832 -0.5603 -0.3866  0.0329
  692MOL0     O91215   1.688  10.787  10.716 -0.6974  0.1143  1.1447
  692MOL0     C91216   1.565  10.808  10.684  1.0541  0.4619  0.9241
  692MOL0     C91217   1.516  10.931  10.632 -0.6141 -0.2910 -0.0778
  692MOL0     C91218   1.393  10.933  10.573 -0.4388  0.4613  0.1220
  692MOL0     C91219   1.326  10.812  10.543  0.5731 -0.4996  0.1616
  692MOL0     O91220   1.205  10.808  10.475 -0.2823  0.1768  0.4615
  692MOL0     C91221   1.196  10.892  10.367  0.1194  0.7676 -0.4146
  692MOL0     C91222   1.068  10.868  10.290 -0.5426  0.4596 -0.8204
  692MOL0     C91223   0.951  10.903  10.392  0.5103 -0.0291 -0.0454
  692MOL0     C91224   0.950  11.060  10.418  0.2387  0.4015 -0.3615
  692MOL0     C91225   0.815  11.096  10.475  0.1419 -0.5197  0.6685
  692MOL0     C91226   0.805  11.243  10.525  0.3601 -0.9992 -0.4643
  692MOL0     C91227   0.757  11.348  10.430  0.4192  0.3781  1.1394
  692MOL0     C91228   0.869  11.433  10.374 -0.1559 -0.1374 -0.1395
  692MOL0     N91229   0.918  11.546  10.460 -0.1561  1.0990  0.1741
  692MOL0     C91230   0.926  11.547  10.600 -1.4551 -0.5085 -0.2559
  692MOL0     C91231   0.974  11.677  10.626  0.2830 -0.2116  0.6097
  692MOL0     C91232   1.031  11.746  10.747  0.3635 -0.3887 -0.0336
  692MOL0     C91233   1.186  11.728  10.759 -0.2657  0.3501  0.3255
  692MOL0     C91234   1.244  11.831  10.863  0.8879  0.5614 -0.0442
  692MOL0     C91235   1.398  11.813  10.862 -0.3594  0.6538  0.5383
  692MOL0     O91236   1.447  11.921  10.946  0.7490 -0.5423  0.3937
  692MOL0     C91237   1.463  11.893  11.078  0.2232 -0.6569 -1.8561
  692MOL0     C91238   1.411  11.784  11.142 -0.6404 -0.5022 -0.8272
  692MOL0     C91239   1.413  11.770  11.283  0.5409 -1.1867  0.3042
  692MOL0     C91240   1.466  11.865  11.366 -0.6995 -0.1859 -0.2621
  692MOL0     C91241   1.471  11.847  11.514  0.4485  0.7498  0.2799
  692MOL0     O91242   1.364  11.775  11.573  0.2092  0.1089 -0.4190
  692MOL0     C91243   1.313  11.825  11.688  0.7897  0.5875 -0.0891
  692MOL0     C91244   1.318  11.961  11.732 -0.1362 -0.5124  0.0950
  692MOL0     C91245   1.278  12.003  11.864 -0.4299  0.2425  0.7916
  692MOL0     C91246   1.206  11.908  11.946 -0.0032  1.1633 -0.2828
  692MOL0     O91247   1.165  11.942  12.075 -0.1126 -0.3870 -0.1939
  692MOL0     C91248   1.118  11.841  12.156 -0.1236  0.6167 -1.3415
  692MOL0     C91249   1.093  11.886  12.307  1.1253  0.1133  0.3909
  692MOL0     C91250   1.039  11.764  12.388 -0.5106  0.3629 -0.3035
  692MOL0     C91251   1.011  11.803  12.533  0.0139  0.3452  0.2505
  692MOL0     C91252   0.954  11.680  12.617 -0.0747 -0.0063  0.2218
  692MOL0     C91253   0.922  11.729  12.760  0.1806 -0.6408 -0.2724
  692MOL0     C91254   0.860  11.614  12.847 -0.0933 -0.2058 -0.4740
  692MOL0     C91255   0.747  11.522  12.790  0.7349 -0.3962 -0.3531
  692MOL0    Cl91256   0.667  11.424  12.928  0.1442 -0.0311 -0.1828
  692MOL0     C91257   1.189  11.775  11.902 -1.1311  0.1242  0.4582
  692MOL0     C91258   1.246  11.737  11.775  0.0732  0.1101  0.0110
  692MOL0     O91259   1.568  11.897  11.576 -1.6208  0.6862  0.2755
  692MOL0     C91260   1.530  11.981  11.307 -0.3636  0.6568 -0.2717
  692MOL0     C91261   1.526  11.992  11.157  0.5718 -0.7334 -0.8634
  692MOL0     N91262   0.994  11.745  10.511  0.2600  0.1780  0.2558
  692MOL0     N91263   0.951  11.666  10.415 -0.2409  0.4550  0.8955
  692MOL0     C91264   1.359  10.697  10.611  0.1375  0.0397  0.3626
  692MOL0     C91265   1.482  10.701  10.679  1.0075  0.2844 -0.1221
  692MOL0     C91266   1.886  10.822  10.842  0.2495 -0.4000 -0.1445
  692MOL0     C91267   1.975  10.739  10.767  0.1147 -0.6086  0.4733
  692MOL0     C91268   2.113  10.741  10.784  0.4291 -0.8880  0.0257
  692MOL0     C91269   2.162  10.809  10.888 -0.7923  0.0116  0.5425
  692MOL0     O91270   2.300  10.805  10.897  0.2370  0.3189 -0.1705
  692MOL0     C91271   2.363  10.893  10.996 -0.1717  0.4016  1.0598
  692MOL0     C91272   2.512  10.886  10.961 -0.2731  0.1827 -0.9138
  692MOL0     C91273   2.582  10.748  10.983  0.1351 -0.5805 -0.1927
  692MOL0     C91274   2.731  10.758  10.940  0.5512  0.1499 -1.1185
  692MOL0     C91275   2.793  10.625  10.972  0.5692  0.5439  0.0216
  692MOL0     C91276   2.840  10.512  10.988  0.0816 -0.3117  0.3057
  692MOL0     C91277   2.080  10.888  10.970  0.3264  0.1728 -0.4407
  692MOL0     C91278   1.944  10.903  10.941 -0.1334  0.2388 -0.3372
  692MOL0     H91279   1.585  11.014  10.626  0.4730 -0.9503  2.2549
  692MOL0     H91280   1.374  11.029  10.527  2.1072  1.3824  0.8587
  692MOL0     H91281   1.283  10.877  10.303 -1.9686 -1.7287 -2.9577
  692MOL0     H91282   1.205  10.993  10.408  2.4869  0.4033  0.1156
  692MOL0     H91283   1.076  10.768  10.246 -0.2276  0.6872 -1.2885
  692MOL0     H91284   1.058  10.948  10.216 -1.8079 -1.3950 -2.7589
  692MOL0     H91285   0.958  10.857  10.491  1.9337  0.4325  0.0878
  692MOL0     H91286   0.853  10.885  10.347  0.5986  4.6095 -2.6712
  692MOL0     H91287   1.025  11.085  10.494 -1.3079  0.0001  1.3651
  692MOL0     H91288   0.969  11.111  10.323  2.7648 -0.0437 -0.1622
  692MOL0     H91289   0.811  11.031  10.563  2.8378  1.3284  2.3174
  692MOL0     H91290   0.739  11.072  10.400  2.4090  1.3503 -2.4353
  692MOL0     H91291   0.909  11.273  10.544 -0.2086  1.1810 -0.5962
  692MOL0     H91292   0.732  11.234  10.606 -2.2832 -0.6724 -2.6856
  692MOL0     H91293   0.722  11.294  10.341 -0.5943 -0.5972  2.1034
  692MOL0     H91294   0.677  11.406  10.478  0.5633  1.2152  0.3939
  692MOL0     H91295   0.829  11.472  10.279  0.5868 -2.6655 -1.5790
  692MOL0     H91296   0.945  11.368  10.329 -0.6453 -1.7588  1.2791
  692MOL0     H91297   0.913  11.466  10.671 -5.1376 -0.1399 -0.3480
  692MOL0     H91298   0.979  11.715  10.837  2.0094 -1.8477  0.4772
  692MOL0     H91299   1.028  11.855  10.734  2.2409 -0.2322  0.4319
  692MOL0     H91300   1.229  11.727  10.659 -0.7661 -0.6061  0.1048
  692MOL0     H91301   1.197  11.624  10.791 -2.2793 -0.9800 -2.8174
  692MOL0     H91302   1.219  11.937  10.850  1.8856  0.8905  0.5448
  692MOL0     H91303   1.205  11.793  10.957 -2.1646  1.4926 -0.8289
  692MOL0     H91304   1.437  11.822  10.760  0.1796 -0.6276  0.6097
  692MOL0     H91305   1.430  11.712  10.891 -1.2116  0.1628 -0.2156
  692MOL0     H91306   1.369  11.697  11.093  0.8364 -2.4946  1.2159
  692MOL0     H91307   1.361  11.688  11.332  0.6940 -0.6417  1.4099
  692MOL0     H91308   1.372  12.023  11.661 -4.1125 -1.8156 -4.6231
  692MOL0     H91309   1.307  12.099  11.907  1.4847 -0.2107  0.5795
  692MOL0     H91310   1.197  11.765  12.160 -0.9511 -0.5984 -4.8269
  692MOL0     H91311   1.026  11.800  12.114  0.7113 -1.2977 -1.4339
  692MOL0     H91312   1.022  11.969  12.300 -1.6042 -1.8858  2.1065
  692MOL0     H91313   1.183  11.922  12.358  0.2101  0.6942  1.6513
  692MOL0     H91314   1.115  11.686  12.393 -0.0383  0.8406  0.0660
  692MOL0     H91315   0.949  11.719  12.344 -0.3028 -3.3192  2.5829
  692MOL0     H91316   1.106  11.828  12.581  0.2715 -2.2493  1.2687
  692MOL0     H91317   0.934  11.880  12.530 -0.7546 -0.4300 -0.4117
  692MOL0     H91318   1.019  11.592  12.614 -0.6821 -0.4389 -0.9582
  692MOL0     H91319   0.866  11.641  12.564 -1.0794  0.3079  1.6065
  692MOL0     H91320   0.842  11.803  12.749  0.0920 -0.8487 -1.0842
  692MOL0     H91321   0.998  11.770  12.826  0.4230 -0.8006 -0.4504
  692MOL0     H91322   0.940  11.555  12.893 -0.8812 -1.8554 -1.1694
  692MOL0     H91323   0.797  11.660  12.924 -2.5741 -3.1033 -0.6296
  692MOL0     H91324   0.799  11.454  12.722  1.2360 -0.0881 -0.2787
  692MOL0     H91325   0.669  11.570  12.731 -0.9467 -2.6831 -0.1060
  692MOL0     H91326   1.132  11.700  11.955 -0.9420  1.3014  2.4458
  692MOL0     H91327   1.235  11.636  11.737  0.6042  0.2065 -0.4176
  692MOL0     H91328   1.562  12.062  11.372  1.4752 -0.9917  0.9626
  692MOL0     H91329   1.548  12.086  11.108  0.7929  0.5704  1.5621
  692MOL0     H91330   1.289  10.618  10.637 -1.6659  2.1477  2.4369
  692MOL0     H91331   1.517  10.620  10.743 -1.0450 -0.0379  0.6903
  692MOL0     H91332   1.935  10.681  10.683  1.7464 -0.8153 -0.1893
  692MOL0     H91333   2.174  10.675  10.724  1.6506 -0.4417  0.7559
  692MOL0     H91334   2.362  10.858  11.100 -0.4629 -3.5468 -0.1213
  692MOL0     H91335   2.322  10.993  10.980 -2.3531 -0.8486 -2.0515
  692MOL0     H91336   2.516  10.916  10.856  0.7604  4.8056  0.2382
  692MOL0     H91337   2.569  10.960  11.017  0.0536 -1.8089  1.5779
  692MOL0     H91338   2.533  10.671  10.922  2.0262 -0.9277 -1.3411
  692MOL0     H91339   2.567  10.722  11.088 -1.0919  0.6477 -0.0339
  692MOL0     H91340   2.733  10.789  10.835  2.0704  3.4687 -0.2536
  692MOL0     H91341   2.783  10.829  11.005 -1.1175  1.8392 -1.5384
  692MOL0     H91342   2.873  10.411  11.000  1.6087  0.0198 -0.8387
  692MOL0     H91343   2.120  10.946  11.052 -0.7685  0.3829 -0.0406
  692MOL0     H91344   1.889  10.963  11.012  0.7745 -0.0325  0.6283
  693MOL0     O91345   6.214   6.454   2.370 -0.0045 -0.4029 -0.2685
  693MOL0     C91346   6.236   6.387   2.466 -0.3295 -0.5334  0.3370
  693MOL0     O91347   6.143   6.322   2.540  0.3983  0.0174  0.9983
  693MOL0     C91348   6.011   6.339   2.506 -0.1630  0.6490 -1.7479
  693MOL0     C91349   5.953   6.457   2.470 -0.1023  0.7795  0.4414
  693MOL0     C91350   5.820   6.460   2.434  0.2475  0.3340 -1.0417
  693MOL0     C91351   5.739   6.337   2.445 -0.5360  0.0693  0.4266
  693MOL0     O91352   5.605   6.336   2.428 -0.3193  0.1412  0.5245
  693MOL0     C91353   5.546   6.408   2.319  0.1869  0.6607  0.7710
  693MOL0     C91354   5.602   6.381   2.179 -0.1961 -0.5795  0.3022
  693MOL0     C91355   5.601   6.233   2.144  1.2468 -0.4126  1.2753
  693MOL0     C91356   5.635   6.212   1.999 -0.5947 -0.0528 -0.5112
  693MOL0     C91357   5.641   6.066   1.970  1.2284  0.8080  0.2622
  693MOL0     C91358   5.750   6.032   1.860 -0.3737 -0.2085  0.1967
  693MOL0     C91359   5.698   6.070   1.714 -0.2769  0.6666  0.1242
  693MOL0     C91360   5.779   6.176   1.636  0.3886 -0.8009 -0.1746
  693MOL0     N91361   5.862   6.277   1.709  0.6137  0.0285  1.3095
  693MOL0     C91362   5.809   6.401   1.742 -0.5680 -0.4491  0.4180
  693MOL0     C91363   5.923   6.471   1.765 -0.3701  0.5946  0.3850
  693MOL0     C91364   5.941   6.611   1.784 -0.1879  0.1813 -0.9035
  693MOL0     C91365   5.910   6.642   1.923  1.6107 -0.3043 -0.5443
  693MOL0     C91366   6.013   6.600   2.024 -0.6889 -0.5184  0.1622
  693MOL0     C91367   5.982   6.677   2.150 -0.0807  0.5255 -0.9723
  693MOL0     O91368   6.047   6.793   2.135 -0.2792 -0.4808 -0.0885
  693MOL0     C91369   6.028   6.894   2.226 -0.4737 -0.9813 -0.8326
  693MOL0     C91370   5.993   6.881   2.361  0.8059  0.0399 -0.0355
  693MOL0     C91371   5.978   6.995   2.439  1.4904 -0.0620 -0.9682
  693MOL0     C91372   6.012   7.122   2.394 -0.7988  0.1069  0.5643
  693MOL0     C91373   5.987   7.236   2.483  0.5560  0.0256  0.2158
  693MOL0     O91374   5.930   7.215   2.605 -0.8769  0.8419  0.0940
  693MOL0     C91375   5.891   7.326   2.668  0.4653  0.2349  0.6456
  693MOL0     C91376   5.971   7.384   2.764 -0.5094 -0.2221 -0.1455
  693MOL0     C91377   5.926   7.487   2.859  0.2652  0.1440  0.3121
  693MOL0     C91378   5.794   7.528   2.846  0.2481 -0.1047 -0.4287
  693MOL0     O91379   5.730   7.618   2.933 -0.9991  0.0604  0.0423
  693MOL0     C91380   5.803   7.677   3.039  0.4329 -0.6979 -0.9799
  693MOL0     C91381   5.812   7.587   3.165  0.2768 -0.2724  0.1405
  693MOL0     C91382   5.685   7.500   3.174  0.1699  0.4626 -0.0381
  693MOL0     C91383   5.667   7.438   3.324 -0.6106  0.0014  0.5748
  693MOL0     C91384   5.636   7.287   3.323  0.4116  0.6651  0.7470
  693MOL0     C91385   5.492   7.247   3.290 -0.4440 -0.7762 -0.1257
  693MOL0     C91386   5.473   7.092   3.291 -0.3271 -0.0300 -0.0154
  693MOL0     C91387   5.483   7.051   3.439 -0.1694 -0.0710 -0.5336
  693MOL0    Cl91388   5.413   6.883   3.455  0.2871  0.4407 -0.6769
  693MOL0     C91389   5.711   7.466   2.743  0.1065 -0.9820 -0.4235
  693MOL0     C91390   5.759   7.373   2.657  1.2854 -0.0246 -0.0708
  693MOL0     O91391   5.993   7.346   2.421  0.4277 -0.0816  0.3458
  693MOL0     C91392   6.066   7.130   2.266 -0.9646  0.8748  0.0001
  693MOL0     C91393   6.078   7.019   2.183  0.5004  0.4202  0.0786
  693MOL0     N91394   6.034   6.387   1.758  0.5021  0.2227  0.6628
  693MOL0     N91395   5.997   6.270   1.726 -0.4967  0.2126 -0.5676
  693MOL0     C91396   5.806   6.217   2.478 -0.2401 -0.3810  1.6737
  693MOL0     C91397   5.942   6.215   2.507  0.7672 -0.1289  0.2109
  693MOL0     C91398   6.374   6.335   2.487 -0.9848 -0.1745 -0.0902
  693MOL0     C91399   6.386   6.205   2.542  0.5124  0.0684 -0.3166
  693MOL0     C91400   6.512   6.148   2.543  0.3383  1.1054 -0.1773
  693MOL0     C91401   6.618   6.219   2.486 -0.6109 -0.5353  0.0626
  693MOL0     O91402   6.740   6.156   2.491  0.2129 -0.1339  0.6813
  693MOL0     C91403   6.860   6.233   2.520 -0.7981 -0.6148 -0.4596
  693MOL0     C91404   6.858   6.274   2.671 -0.6579 -0.8152  0.3085
  693MOL0     C91405   6.988   6.331   2.726  0.4754 -0.2262 -0.5678
  693MOL0     C91406   7.066   6.433   2.641 -0.0640  0.8233 -0.1266
  693MOL0     C91407   7.180   6.357   2.592 -0.5526 -0.4808  0.9948
  693MOL0     C91408   7.263   6.284   2.537  0.0380 -0.9336 -0.5131
  693MOL0     C91409   6.607   6.344   2.427 -0.6594  0.0111  0.1881
  693MOL0     C91410   6.491   6.408   2.426 -0.1008  0.6305 -0.5337
  693MOL0     H91411   6.014   6.546   2.455  1.4887 -0.1901  0.8609
  693MOL0     H91412   5.783   6.559   2.408 -0.1210 -0.1676 -2.5541
  693MOL0     H91413   5.547   6.514   2.348  0.1350  0.8132  0.2311
  693MOL0     H91414   5.442   6.381   2.336 -0.2049  2.9760  2.7454
  693MOL0     H91415   5.699   6.430   2.171 -1.2620  1.4079 -1.3726
  693MOL0     H91416   5.535   6.432   2.110 -0.2230 -2.0266 -0.7907
  693MOL0     H91417   5.505   6.180   2.145 -0.1501  1.5252 -3.1038
  693MOL0     H91418   5.680   6.197   2.210  1.3180  0.2235  1.5458
  693MOL0     H91419   5.572   6.274   1.934  2.1305  1.2162 -2.1275
  693MOL0     H91420   5.734   6.258   1.996 -1.1717  1.3897  0.8789
  693MOL0     H91421   5.540   6.033   1.942  1.7202  0.3604 -1.0460
  693MOL0     H91422   5.666   6.008   2.060 -0.2792 -2.2052 -1.0959
  693MOL0     H91423   5.764   5.924   1.863 -1.6647 -0.6569 -4.1478
  693MOL0     H91424   5.840   6.086   1.891 -0.8870  0.5419  0.4123
  693MOL0     H91425   5.681   5.984   1.648  1.1445 -1.0129  1.8196
  693MOL0     H91426   5.602   6.123   1.720  1.0914  3.7963 -2.6158
  693MOL0     H91427   5.720   6.228   1.561  1.1231 -0.8752 -0.8198
  693MOL0     H91428   5.849   6.130   1.565  2.8329  1.4286  0.6130
  693MOL0     H91429   5.708   6.441   1.735 -1.0682 -1.7433 -0.0848
  693MOL0     H91430   5.874   6.663   1.715 -0.7022 -0.7860 -1.1430
  693MOL0     H91431   6.047   6.638   1.773  0.3006 -1.3257 -0.1483
  693MOL0     H91432   5.816   6.593   1.949 -0.7110  2.1448 -3.4854
  693MOL0     H91433   5.877   6.745   1.939  1.0230 -0.6998  0.8929
  693MOL0     H91434   6.015   6.491   2.032 -1.9698 -0.5665  0.1425
  693MOL0     H91435   6.111   6.632   1.988 -1.0139 -2.4580 -2.7514
  693MOL0     H91436   6.028   6.616   2.229  1.5919  0.6168 -1.8445
  693MOL0     H91437   5.874   6.678   2.165 -0.5139 -2.7514 -2.9938
  693MOL0     H91438   5.963   6.781   2.390 -1.1362  0.9803  1.4639
  693MOL0     H91439   5.927   6.985   2.535 -0.5675 -0.5564 -2.0393
  693MOL0     H91440   6.071   7.343   2.764 -1.2115 -2.0136  0.1295
  693MOL0     H91441   5.992   7.519   2.939 -0.0994  1.8796 -0.0202
  693MOL0     H91442   5.752   7.771   3.063 -0.1573 -0.9280 -1.3404
  693MOL0     H91443   5.906   7.711   3.018  0.8899 -1.6929 -0.4003
  693MOL0     H91444   5.821   7.642   3.259  1.1213  0.1169 -0.1592
  693MOL0     H91445   5.904   7.529   3.152 -0.2267 -1.0874  0.1474
  693MOL0     H91446   5.697   7.419   3.100 -0.5408 -0.4321  0.7887
  693MOL0     H91447   5.595   7.557   3.148  1.1932  1.6453 -1.1363
  693MOL0     H91448   5.763   7.451   3.375  0.4760 -2.0465 -0.8238
  693MOL0     H91449   5.602   7.514   3.369  0.6644  3.5831 -3.0014
  693MOL0     H91450   5.666   7.258   3.424  3.2527  1.9539  0.3713
  693MOL0     H91451   5.699   7.236   3.249 -1.5009  2.2175 -2.1440
  693MOL0     H91452   5.468   7.277   3.188  1.2796  0.1556 -0.2965
  693MOL0     H91453   5.423   7.303   3.354  0.3708 -0.0363  0.1202
  693MOL0     H91454   5.371   7.060   3.269 -0.7787 -2.5477  4.5976
  693MOL0     H91455   5.558   7.053   3.235 -0.2764 -0.6293  0.4712
  693MOL0     H91456   5.427   7.114   3.508  1.3396 -0.6833  1.3277
  693MOL0     H91457   5.585   7.067   3.475 -0.8311  2.9519  0.2120
  693MOL0     H91458   5.606   7.492   2.729  0.0188 -0.0484  1.6381
  693MOL0     H91459   5.708   7.317   2.580  0.4448 -1.1368  1.2368
  693MOL0     H91460   6.099   7.226   2.229  1.9663  0.6254  1.6125
  693MOL0     H91461   6.105   7.020   2.078 -1.5536  0.1693 -0.4954
  693MOL0     H91462   5.756   6.123   2.460 -1.7777  0.7143 -0.0956
  693MOL0     H91463   5.991   6.123   2.537  3.1517  0.6433 -1.0839
  693MOL0     H91464   6.302   6.143   2.572 -0.8321  1.6176 -0.7584
  693MOL0     H91465   6.521   6.048   2.585 -0.8559  1.9275  2.1826
  693MOL0     H91466   6.855   6.326   2.464 -4.1532 -0.0837  0.5116
  693MOL0     H91467   6.943   6.163   2.505 -0.4141 -0.7484  1.8705
  693MOL0     H91468   6.780   6.344   2.700 -0.7633  0.0670 -1.9123
  693MOL0     H91469   6.836   6.183   2.728 -1.1086 -0.8357  0.1009
  693MOL0     H91470   7.054   6.255   2.767 -3.0510 -1.6208  3.1451
  693MOL0     H91471   6.970   6.385   2.819  0.6960  0.6364 -1.0069
  693MOL0     H91472   7.006   6.467   2.556 -3.9767 -2.1954  1.1406
  693MOL0     H91473   7.101   6.518   2.701  1.9920 -1.4020  2.0829
  693MOL0     H91474   7.351   6.229   2.509 -0.9465 -2.1393 -1.3467
  693MOL0     H91475   6.700   6.387   2.390 -0.2758  1.0713  2.2232
  693MOL0     H91476   6.480   6.499   2.367 -0.8915 -0.1778 -1.6727
  694MOL0     O91477   6.404   6.489   4.511 -1.2103 -0.1488 -0.1141
  694MOL0     C91478   6.306   6.474   4.582  0.4766 -0.2699 -0.1638
  694MOL0     O91479   6.312   6.490   4.718  0.2228  0.3431 -0.0580
  694MOL0     C91480   6.433   6.525   4.774  0.7653  0.7240  0.2184
  694MOL0     C91481   6.500   6.633   4.726 -0.2617 -0.0232  0.5749
  694MOL0     C91482   6.629   6.672   4.773 -0.3918  0.9400 -0.4550
  694MOL0     C91483   6.677   6.597   4.885 -0.1552  0.1871  0.7950
  694MOL0     O91484   6.789   6.658   4.929 -0.1704 -1.1163  0.0206
  694MOL0     C91485   6.851   6.633   5.055 -0.2483  0.0098  0.1020
  694MOL0     C91486   7.001   6.685   5.064 -0.5326  0.0320 -0.5506
  694MOL0     C91487   7.049   6.646   5.203 -0.3680 -0.6110  0.3506
  694MOL0     C91488   7.183   6.718   5.230  1.1399 -0.3127  0.8420
  694MOL0     C91489   7.300   6.656   5.150 -0.2289 -0.8852  0.6261
  694MOL0     C91490   7.430   6.721   5.164 -0.0122 -0.2125 -0.0686
  694MOL0     C91491   7.449   6.864   5.121 -0.4996  0.4382 -0.0524
  694MOL0     C91492   7.395   6.986   5.204 -0.1468  0.2134  0.7924
  694MOL0     N91493   7.509   7.062   5.263  0.6713 -0.1437 -0.6664
  694MOL0     C91494   7.556   7.058   5.393 -0.3823 -0.4720  0.8455
  694MOL0     C91495   7.640   7.161   5.401  0.1181 -0.1700  0.2108
  694MOL0     C91496   7.712   7.204   5.524 -0.1096  0.3081  0.0104
  694MOL0     C91497   7.703   7.356   5.541 -0.6543  0.2087 -0.1902
  694MOL0     C91498   7.739   7.410   5.684 -0.2171 -0.6363 -0.9918
  694MOL0     C91499   7.686   7.557   5.711 -0.6532  0.3236 -0.2397
  694MOL0     O91500   7.581   7.596   5.629  0.5172  0.0227 -0.5144
  694MOL0     C91501   7.459   7.651   5.667 -0.8074  0.4313  1.1870
  694MOL0     C91502   7.371   7.672   5.559  0.4669  1.2738  0.2142
  694MOL0     C91503   7.249   7.731   5.585 -0.1863  1.1433  0.1711
  694MOL0     C91504   7.204   7.771   5.711 -0.2945  1.3727  0.5181
  694MOL0     C91505   7.073   7.832   5.731  0.1288  0.6497  0.2977
  694MOL0     O91506   7.027   7.823   5.857  0.8453  0.3534  0.6817
  694MOL0     C91507   6.909   7.890   5.894 -0.7707  0.6253  0.1529
  694MOL0     C91508   6.933   7.964   6.016  0.9392  0.3237  0.1991
  694MOL0     C91509   6.828   8.043   6.066 -0.8581  0.3787 -0.6439
  694MOL0     C91510   6.702   8.034   6.015  0.3115 -0.4098 -0.5243
  694MOL0     O91511   6.588   8.096   6.067  0.1442  0.9051 -0.0178
  694MOL0     C91512   6.613   8.158   6.192 -0.1359 -0.1411 -0.6962
  694MOL0     C91513   6.481   8.208   6.238  0.9316  0.1217  0.1655
  694MOL0     C91514   6.487   8.280   6.370  0.5182  0.6673 -0.2767
  694MOL0     C91515   6.342   8.319   6.410 -0.7979 -0.1274  0.7739
  694MOL0     C91516   6.310   8.355   6.551  0.3873 -1.3523 -0.5579
  694MOL0     C91517   6.368   8.490   6.589  0.5561  0.0404  0.1419
  694MOL0     C91518   6.358   8.517   6.745  0.5869 -0.5677 -1.2580
  694MOL0     C91519   6.242   8.608   6.789  0.0119 -0.1918 -0.1098
  694MOL0    Cl91520   6.082   8.575   6.698  0.6521 -0.2375 -0.0732
  694MOL0     C91521   6.685   7.936   5.915 -0.4772 -0.3340 -0.2289
  694MOL0     C91522   6.777   7.865   5.849  0.5873  0.3207  0.2062
  694MOL0     O91523   7.011   7.882   5.637  0.1470  0.0122  0.0106
  694MOL0     C91524   7.290   7.741   5.821  0.7130 -0.0875 -0.8803
  694MOL0     C91525   7.410   7.677   5.798 -0.3070  0.5930 -0.5613
  694MOL0     N91526   7.652   7.224   5.278 -0.6508  0.7238 -0.6092
  694MOL0     N91527   7.573   7.159   5.196  0.1662  0.2197 -0.0506
  694MOL0     C91528   6.607   6.503   4.949 -0.3837 -0.0141 -0.5581
  694MOL0     C91529   6.486   6.467   4.893 -0.0905  0.6499  0.4970
  694MOL0     C91530   6.173   6.438   4.515 -0.3743 -0.5585 -0.4109
  694MOL0     C91531   6.069   6.378   4.589 -0.3402  0.5860  0.3404
  694MOL0     C91532   5.948   6.344   4.528 -0.1847  0.1410 -0.4212
  694MOL0     C91533   5.927   6.361   4.393  0.4511 -0.0450  1.1354
  694MOL0     O91534   5.808   6.322   4.338 -0.3659 -0.3368  1.0881
  694MOL0     C91535   5.716   6.228   4.398 -0.0797  0.3460  0.3810
  694MOL0     C91536   5.617   6.316   4.485  0.6247 -0.2907  0.0498
  694MOL0     C91537   5.485   6.249   4.517 -0.5281 -0.1353  0.3389
  694MOL0     C91538   5.389   6.325   4.604 -0.3800  0.2215 -0.5996
  694MOL0     C91539   5.459   6.367   4.725  0.4169  0.1831  0.2866
  694MOL0     C91540   5.515   6.365   4.831  0.5176  0.4845  0.7760
  694MOL0     C91541   6.040   6.421   4.316  0.1512  0.0818  0.1896
  694MOL0     C91542   6.148   6.466   4.377  0.4971 -0.2704 -1.0242
  694MOL0     H91543   6.468   6.698   4.646 -0.4202 -0.3983  0.3335
  694MOL0     H91544   6.681   6.752   4.721 -2.1802  1.4587 -1.5745
  694MOL0     H91545   6.845   6.527   5.079 -1.2306  0.4583  2.0235
  694MOL0     H91546   6.800   6.687   5.135  1.0473 -2.9190  3.1258
  694MOL0     H91547   7.015   6.791   5.040  1.1013  0.0961  0.5094
  694MOL0     H91548   7.074   6.631   5.003  2.0954 -0.0128  2.3764
  694MOL0     H91549   7.068   6.539   5.220  4.8402  0.5477  4.1678
  694MOL0     H91550   6.967   6.679   5.268 -0.9596  3.4740 -2.1195
  694MOL0     H91551   7.174   6.822   5.197 -0.3657 -1.1637 -1.7682
  694MOL0     H91552   7.208   6.702   5.335 -1.5688  0.7340  1.7351
  694MOL0     H91553   7.279   6.653   5.042  3.0277 -1.2971 -0.0989
  694MOL0     H91554   7.313   6.556   5.191 -0.3390 -1.3299 -0.3832
  694MOL0     H91555   7.504   6.673   5.098 -0.2041  2.6613 -2.6284
  694MOL0     H91556   7.476   6.685   5.256 -0.7792 -4.1071 -1.0252
  694MOL0     H91557   7.557   6.879   5.121 -0.7504  2.5968  1.3964
  694MOL0     H91558   7.409   6.868   5.019 -3.6293 -2.7865  0.8358
  694MOL0     H91559   7.318   6.969   5.279 -1.7241 -0.8003 -0.9927
  694MOL0     H91560   7.355   7.050   5.125 -0.5590 -2.1890 -1.0348
  694MOL0     H91561   7.531   6.994   5.476  0.3981 -0.1696  1.3198
  694MOL0     H91562   7.818   7.177   5.521 -0.2625 -0.2615 -0.6174
  694MOL0     H91563   7.682   7.153   5.616  2.3233  0.2467  0.8452
  694MOL0     H91564   7.600   7.378   5.510 -1.0988 -1.4166  0.0714
  694MOL0     H91565   7.766   7.400   5.462  1.4403 -0.5856  0.9514
  694MOL0     H91566   7.702   7.344   5.763  1.5880 -1.3998 -0.7381
  694MOL0     H91567   7.847   7.400   5.693 -0.0156  0.1565 -2.2425
  694MOL0     H91568   7.761   7.636   5.699 -0.3767  0.1752  0.4420
  694MOL0     H91569   7.662   7.553   5.818  3.4659  1.3254  0.9362
  694MOL0     H91570   7.404   7.645   5.459 -1.1502 -0.1902  0.0277
  694MOL0     H91571   7.192   7.753   5.495 -1.6165 -0.5977  0.6071
  694MOL0     H91572   7.031   7.969   6.062  1.2614 -4.3651  0.4898
  694MOL0     H91573   6.860   8.103   6.151  1.0013  0.8480 -1.6376
  694MOL0     H91574   6.681   8.241   6.171  0.9442 -0.3212  1.7428
  694MOL0     H91575   6.649   8.084   6.264 -1.9127 -1.1690 -0.8226
  694MOL0     H91576   6.418   8.119   6.240  0.7321  0.2545 -0.2617
  694MOL0     H91577   6.444   8.275   6.160  0.3276  0.3427  0.6266
  694MOL0     H91578   6.557   8.363   6.355  2.9795 -1.3999 -0.9779
  694MOL0     H91579   6.539   8.222   6.446 -1.5668 -0.9360  0.0001
  694MOL0     H91580   6.310   8.402   6.346  0.8022  0.3287  0.5278
  694MOL0     H91581   6.280   8.231   6.390  0.0731 -0.9883  1.7157
  694MOL0     H91582   6.328   8.281   6.630  0.2481  0.4094  1.2086
  694MOL0     H91583   6.201   8.360   6.543  0.5180  0.9521 -1.6681
  694MOL0     H91584   6.317   8.573   6.539 -1.3186 -1.6476 -0.8508
  694MOL0     H91585   6.474   8.488   6.562  0.6093 -0.1891  0.3667
  694MOL0     H91586   6.344   8.425   6.802  2.0147 -0.5816 -0.8870
  694MOL0     H91587   6.452   8.562   6.779  0.5053 -0.0730 -1.6811
  694MOL0     H91588   6.284   8.704   6.756  0.3788 -0.3148  0.0028
  694MOL0     H91589   6.228   8.617   6.897 -1.9290  3.9009 -0.4870
  694MOL0     H91590   6.581   7.924   5.885 -0.4334  0.3143 -0.6431
  694MOL0     H91591   6.765   7.804   5.761  1.1114 -0.3039  0.5610
  694MOL0     H91592   7.262   7.765   5.924  0.6347 -2.0323 -0.4144
  694MOL0     H91593   7.468   7.648   5.885 -1.4493  0.3137  0.1227
  694MOL0     H91594   6.637   6.474   5.049  3.3078  7.1358  1.1066
  694MOL0     H91595   6.416   6.390   4.924  0.3463  0.7797  1.8570
  694MOL0     H91596   6.086   6.363   4.695  0.7911  3.9874  0.7629
  694MOL0     H91597   5.861   6.324   4.590 -1.3753 -0.2231 -2.1166
  694MOL0     H91598   5.769   6.146   4.448  1.8546 -1.1735 -3.6779
  694MOL0     H91599   5.659   6.168   4.326 -0.6785 -1.1573  2.0383
  694MOL0     H91600   5.659   6.333   4.585 -4.0728 -1.2417  2.5325
  694MOL0     H91601   5.580   6.407   4.436  1.3026  0.2081  0.4487
  694MOL0     H91602   5.511   6.158   4.573  0.4078  0.4191  0.8272
  694MOL0     H91603   5.435   6.234   4.421  1.0508  0.4489 -0.6086
  694MOL0     H91604   5.384   6.419   4.547  1.7330  1.2074  0.7118
  694MOL0     H91605   5.296   6.274   4.632  1.7852 -4.1746 -0.5885
  694MOL0     H91606   5.564   6.348   4.924 -0.6789 -2.8765  0.9347
  694MOL0     H91607   6.027   6.439   4.210 -2.9505 -3.1176 -0.1558
  694MOL0     H91608   6.229   6.515   4.324  0.5783  2.2673  1.2070
  695MOL0     O91609   7.546   1.827   0.635 -0.0017  0.7135  0.4521
  695MOL0     C91610   7.442   1.762   0.619 -0.1917 -0.2653 -0.2840
  695MOL0     O91611   7.334   1.798   0.550 -0.3319 -0.5382  0.4410
  695MOL0     C91612   7.323   1.930   0.493 -0.7930  0.7475  0.3291
  695MOL0     C91613   7.419   1.969   0.394  1.5980  0.6191 -0.1668
  695MOL0     C91614   7.393   2.096   0.334  0.3983 -0.3031 -0.4730
  695MOL0     C91615   7.299   2.194   0.387  0.1599 -0.0379  0.9250
  695MOL0     O91616   7.266   2.319   0.341  0.3589  0.3531 -0.4418
  695MOL0     C91617   7.374   2.383   0.278  0.6706 -0.1723 -0.2099
  695MOL0     C91618   7.333   2.525   0.251  0.2263 -0.4317 -0.2074
  695MOL0     C91619   7.361   2.625   0.364 -0.2928 -0.6161 -0.1171
  695MOL0     C91620   7.374   2.771   0.313  0.6397  0.0179  0.2776
  695MOL0     C91621   7.239   2.828   0.276 -0.1065 -0.4939  0.6864
  695MOL0     C91622   7.242   2.980   0.262 -0.1875  0.3223 -0.0291
  695MOL0     C91623   7.132   3.043   0.170  0.5753 -0.2888  0.3030
  695MOL0     C91624   7.002   3.016   0.224  0.6929  0.3492 -0.8391
  695MOL0     N91625   6.910   3.105   0.151  0.2431 -0.1869 -0.0068
  695MOL0     C91626   6.924   3.236   0.131  0.1491 -0.8328  0.2664
  695MOL0     C91627   6.837   3.264   0.027 -0.9545  0.2476  0.1883
  695MOL0     C91628   6.822   3.399  -0.050  0.1057 -0.5465  0.0461
  695MOL0     C91629   6.747   3.493   0.034  0.3468 -0.7319  0.3892
  695MOL0     C91630   6.615   3.462   0.093  0.1922 -0.6116  0.7823
  695MOL0     C91631   6.510   3.391   0.004  0.1963 -1.2524 -0.0835
  695MOL0     O91632   6.499   3.448  -0.128 -0.3976  0.2043 -0.9136
  695MOL0     C91633   6.453   3.370  -0.233 -0.1764 -0.1054  0.0992
  695MOL0     C91634   6.340   3.293  -0.223 -0.2781 -0.3092 -0.2102
  695MOL0     C91635   6.293   3.213  -0.331 -0.0801 -0.2712 -0.3991
  695MOL0     C91636   6.366   3.216  -0.451  0.5562  0.4842  0.8717
  695MOL0     C91637   6.326   3.137  -0.583 -1.0199 -0.3710 -0.3030
  695MOL0     O91638   6.199   3.105  -0.583  0.3290  0.6323 -0.3496
  695MOL0     C91639   6.144   3.031  -0.683 -0.0624  0.6293  0.7379
  695MOL0     C91640   6.169   2.893  -0.694 -0.4810  1.7066  0.3008
  695MOL0     C91641   6.127   2.821  -0.799  0.5874  0.6998 -0.0714
  695MOL0     C91642   6.061   2.887  -0.906 -0.0954  0.2186 -0.2886
  695MOL0     O91643   6.012   2.831  -1.025  0.3150 -0.0522 -0.5982
  695MOL0     C91644   6.044   2.696  -1.052  0.1967 -0.2515 -0.6325
  695MOL0     C91645   5.950   2.661  -1.158 -0.1647  0.6636  0.2864
  695MOL0     C91646   5.801   2.648  -1.120  0.4160  0.3052  1.1209
  695MOL0     C91647   5.711   2.599  -1.233 -0.6136 -0.3192  0.3396
  695MOL0     C91648   5.754   2.463  -1.271  0.6045  0.2108  0.1839
  695MOL0     C91649   5.652   2.394  -1.360 -0.5643 -0.8542  0.5015
  695MOL0     C91650   5.688   2.257  -1.427 -0.4838  0.7532  0.5325
  695MOL0     C91651   5.576   2.162  -1.488  0.6439 -0.9265  0.2167
  695MOL0    Cl91652   5.637   2.037  -1.600 -0.1675  0.1021 -0.1353
  695MOL0     C91653   6.034   3.026  -0.898  0.4525  0.1981 -0.3704
  695MOL0     C91654   6.066   3.096  -0.784  0.4207  0.4704 -0.4094
  695MOL0     O91655   6.409   3.113  -0.665  0.2139  0.7916 -0.2573
  695MOL0     C91656   6.475   3.305  -0.468 -0.5388  1.1014  0.4600
  695MOL0     C91657   6.517   3.384  -0.361  0.0755 -0.4134 -0.5164
  695MOL0     N91658   6.764   3.140  -0.003  0.1869 -0.3789 -0.0077
  695MOL0     N91659   6.805   3.054   0.079 -0.2050  0.5755  0.4444
  695MOL0     C91660   7.210   2.144   0.490  0.4783 -0.6894 -1.3873
  695MOL0     C91661   7.215   2.011   0.527  1.0106 -0.2676 -0.4943
  695MOL0     C91662   7.434   1.626   0.701 -0.1882 -0.6644  0.6534
  695MOL0     C91663   7.326   1.537   0.703  0.2146  0.7456  0.2120
  695MOL0     C91664   7.347   1.419   0.772 -0.0446 -0.0087 -0.7915
  695MOL0     C91665   7.455   1.384   0.854 -1.0220 -0.1917  0.3689
  695MOL0     O91666   7.446   1.274   0.937 -0.2799  0.3491  0.5773
  695MOL0     C91667   7.555   1.215   1.006  0.5129 -0.2633 -0.6002
  695MOL0     C91668   7.525   1.082   1.065 -0.2477  0.4620  0.2590
  695MOL0     C91669   7.634   1.007   1.140 -1.1132 -0.1469 -0.1280
  695MOL0     C91670   7.777   1.007   1.068 -0.4973  0.6616  1.1738
  695MOL0     C91671   7.771   0.940   0.933  0.4937 -0.4868 -0.0233
  695MOL0     C91672   7.767   0.885   0.829 -0.7720  0.8375  0.5870
  695MOL0     C91673   7.556   1.482   0.867 -0.0472 -0.2933  0.2205
  695MOL0     C91674   7.546   1.597   0.787  0.1418  0.4033  1.1163
  695MOL0     H91675   7.501   1.905   0.361  0.3418 -1.1559  0.0043
  695MOL0     H91676   7.453   2.126   0.249  0.7631 -0.1264 -0.1559
  695MOL0     H91677   7.398   2.323   0.190  2.8877 -1.0602  0.9254
  695MOL0     H91678   7.463   2.383   0.342  2.4738  1.3654 -2.5584
  695MOL0     H91679   7.235   2.520   0.202 -0.5840 -1.7056  1.4379
  695MOL0     H91680   7.400   2.556   0.170  2.3680  2.1530  2.3507
  695MOL0     H91681   7.455   2.598   0.413 -0.9264  0.1337  1.5603
  695MOL0     H91682   7.275   2.622   0.432 -3.5499  3.9364 -3.4034
  695MOL0     H91683   7.411   2.834   0.395 -1.1347 -0.6511  1.6455
  695MOL0     H91684   7.450   2.786   0.236 -0.8906  2.2735 -0.8949
  695MOL0     H91685   7.170   2.798   0.356  1.6686  0.2128  2.5794
  695MOL0     H91686   7.217   2.781   0.180 -2.2716  1.1179  0.3096
  695MOL0     H91687   7.336   3.005   0.213 -0.8411  2.0410 -0.4677
  695MOL0     H91688   7.249   3.017   0.365 -3.9076  1.6593 -0.0951
  695MOL0     H91689   7.152   3.151   0.167  4.1493 -0.7903  1.3701
  695MOL0     H91690   7.141   3.003   0.069  1.4821  2.0787 -0.6437
  695MOL0     H91691   6.997   3.041   0.330  0.5504  4.2387 -1.6461
  695MOL0     H91692   6.974   2.910   0.223 -0.2563  0.5954 -1.3412
  695MOL0     H91693   6.984   3.306   0.189 -0.4906 -0.5766  0.6357
  695MOL0     H91694   6.760   3.379  -0.138 -0.1473  0.2027  0.0453
  695MOL0     H91695   6.917   3.446  -0.079 -0.0394  0.4718  1.1504
  695MOL0     H91696   6.736   3.576  -0.036 -0.7249 -1.3151 -0.1548
  695MOL0     H91697   6.812   3.532   0.113  1.3251  0.7387 -1.0651
  695MOL0     H91698   6.633   3.385   0.169 -0.7653 -2.1372 -0.5063
  695MOL0     H91699   6.573   3.558   0.126 -3.3236 -0.5979 -3.0145
  695MOL0     H91700   6.413   3.406   0.053  0.1865 -1.5183 -0.0200
  695MOL0     H91701   6.540   3.286   0.013  1.0913 -0.8442  3.6855
  695MOL0     H91702   6.283   3.299  -0.130 -0.0940 -1.8053  0.0255
  695MOL0     H91703   6.209   3.146  -0.322  0.6655 -1.2156 -0.2951
  695MOL0     H91704   6.204   2.837  -0.608 -3.0797  0.7188  0.8119
  695MOL0     H91705   6.148   2.715  -0.810  1.5621  0.4247  3.2679
  695MOL0     H91706   6.024   2.632  -0.965  1.2041  2.2412  1.5685
  695MOL0     H91707   6.148   2.677  -1.081  0.7537 -0.8033  1.5558
  695MOL0     H91708   5.976   2.559  -1.187 -1.5396  0.2179  0.5273
  695MOL0     H91709   5.962   2.738  -1.235  3.3836  0.5980  0.6076
  695MOL0     H91710   5.754   2.741  -1.087 -1.3880  0.1363 -0.7226
  695MOL0     H91711   5.798   2.581  -1.034  2.2289  1.0647  1.8114
  695MOL0     H91712   5.607   2.606  -1.200 -0.6085 -0.5829  0.4115
  695MOL0     H91713   5.729   2.659  -1.323  2.1567  1.6119  2.0223
  695MOL0     H91714   5.764   2.398  -1.184 -1.5083 -2.2581 -1.2867
  695MOL0     H91715   5.849   2.460  -1.324  0.1351  0.5933 -0.6996
  695MOL0     H91716   5.648   2.468  -1.440  3.4677  1.7884  2.3899
  695MOL0     H91717   5.555   2.392  -1.310 -0.3201  0.7889  1.1076
  695MOL0     H91718   5.745   2.266  -1.520 -3.1290 -0.9480 -1.4003
  695MOL0     H91719   5.742   2.200  -1.351 -0.8742  3.4405  3.0091
  695MOL0     H91720   5.501   2.230  -1.529  0.6928  0.4136  2.1897
  695MOL0     H91721   5.526   2.120  -1.400 -1.9393  1.9568  0.3292
  695MOL0     H91722   5.992   3.076  -0.985  2.4456  1.0173 -0.9155
  695MOL0     H91723   6.040   3.202  -0.782  0.4030  0.6291 -3.6555
  695MOL0     H91724   6.527   3.305  -0.563 -0.5942 -1.0385  0.3846
  695MOL0     H91725   6.608   3.443  -0.358  0.5268 -1.1496  1.2916
  695MOL0     H91726   7.132   2.213   0.518 -0.8732 -1.7798 -2.3455
  695MOL0     H91727   7.147   1.954   0.588  0.0475 -0.2322 -1.5052
  695MOL0     H91728   7.231   1.558   0.654  0.4207 -3.1523 -2.2728
  695MOL0     H91729   7.267   1.346   0.771 -2.0219  2.0613 -1.4147
  695MOL0     H91730   7.581   1.277   1.092  2.9142 -2.4522  0.3929
  695MOL0     H91731   7.641   1.214   0.938 -0.5364 -3.2760 -2.0787
  695MOL0     H91732   7.441   1.100   1.132 -0.8822 -0.9044 -0.1380
  695MOL0     H91733   7.483   1.017   0.989 -0.9424  2.5107 -1.2026
  695MOL0     H91734   7.599   0.904   1.140  0.9684 -0.9047 -1.3162
  695MOL0     H91735   7.643   1.049   1.241  1.2500  0.3273 -0.4805
  695MOL0     H91736   7.829   1.103   1.059  2.5788 -0.9373  0.5771
  695MOL0     H91737   7.849   0.957   1.133  0.6429  0.4938 -0.1514
  695MOL0     H91738   7.774   0.809   0.755 -0.9400  0.7959  0.6156
  695MOL0     H91739   7.641   1.478   0.935 -0.5266 -0.8700  0.7955
  695MOL0     H91740   7.615   1.678   0.808 -1.2052  1.2104  2.6502
  696MOL0     O91741   7.687   4.979   7.106  1.0225  0.5133  0.1444
  696MOL0     C91742   7.661   5.101   7.099  0.2629  0.9106  1.0108
  696MOL0     O91743   7.579   5.170   7.184  0.3039 -0.5735  0.0518
  696MOL0     C91744   7.478   5.120   7.265  0.7582  0.6482 -0.6157
  696MOL0     C91745   7.366   5.207   7.287  0.5381 -0.2263  0.1910
  696MOL0     C91746   7.266   5.170   7.379 -1.3883  0.5174 -0.9545
  696MOL0     C91747   7.263   5.038   7.437 -1.1828  0.2327 -0.0780
  696MOL0     O91748   7.160   4.997   7.523  0.5339  0.3899  0.5877
  696MOL0     C91749   7.164   4.882   7.612 -0.7067 -1.5776 -0.5570
  696MOL0     C91750   7.134   4.754   7.535 -0.2732 -0.4138 -0.7873
  696MOL0     C91751   6.982   4.735   7.507 -0.4059  0.3577 -0.6464
  696MOL0     C91752   6.969   4.645   7.384  0.1603  0.0068 -0.2381
  696MOL0     C91753   7.029   4.503   7.411 -0.0621 -0.3962  0.3878
  696MOL0     C91754   7.048   4.439   7.276  0.2416  0.5097 -0.6629
  696MOL0     C91755   7.069   4.285   7.285  0.3701  0.8176 -0.0086
  696MOL0     C91756   6.935   4.204   7.297 -0.3510  0.0927  0.4411
  696MOL0     N91757   6.952   4.060   7.326 -0.4952 -0.4216 -0.2101
  696MOL0     C91758   7.003   4.021   7.450 -0.4824  0.7397  0.0406
  696MOL0     C91759   7.025   3.889   7.440  0.5374  0.9601  0.3690
  696MOL0     C91760   7.115   3.827   7.536 -0.9338 -0.8160 -0.5855
  696MOL0     C91761   7.188   3.703   7.507  0.5870  0.1108 -0.1175
  696MOL0     C91762   7.084   3.591   7.547 -0.5836 -0.6849 -0.3135
  696MOL0     C91763   7.146   3.456   7.544 -1.5106  0.5517 -0.6124
  696MOL0     O91764   7.273   3.442   7.609  0.8997 -0.1987 -0.3758
  696MOL0     C91765   7.353   3.334   7.585 -0.0700  0.4496  0.0858
  696MOL0     C91766   7.489   3.352   7.566 -0.2194  0.5626 -0.6352
  696MOL0     C91767   7.568   3.238   7.537  0.4585 -2.0860  0.2496
  696MOL0     C91768   7.514   3.113   7.550  0.2760 -0.5651 -0.4839
  696MOL0     C91769   7.597   2.988   7.542 -1.2927  0.4852  0.1724
  696MOL0     O91770   7.725   2.997   7.509 -0.3808 -1.1405  0.1169
  696MOL0     C91771   7.782   2.875   7.490 -0.1594  1.3276  0.7525
  696MOL0     C91772   7.752   2.792   7.382 -0.4684 -0.3910  0.5170
  696MOL0     C91773   7.806   2.661   7.359 -0.7849  0.4567 -0.1967
  696MOL0     C91774   7.902   2.616   7.453  0.8973  0.3200 -0.0166
  696MOL0     O91775   7.954   2.490   7.423 -0.2609  0.3660  1.4909
  696MOL0     C91776   8.046   2.440   7.521  0.4601  0.2983 -1.4020
  696MOL0     C91777   8.091   2.307   7.502 -0.9297  0.2998 -0.6811
  696MOL0     C91778   8.162   2.256   7.374 -0.1200 -0.6036 -0.8432
  696MOL0     C91779   8.290   2.342   7.336 -0.3316 -0.5890 -0.0781
  696MOL0     C91780   8.429   2.291   7.382 -1.1314  0.3834  0.2700
  696MOL0     C91781   8.541   2.365   7.311  1.0880 -1.2773  0.2121
  696MOL0     C91782   8.676   2.315   7.341 -0.5229  0.2771  0.0016
  696MOL0     C91783   8.782   2.399   7.257 -0.0233 -0.3156 -0.2648
  696MOL0    Cl91784   8.751   2.381   7.075 -0.0876 -0.2766 -0.7844
  696MOL0     C91785   7.930   2.701   7.564 -0.1426  0.0936  0.5680
  696MOL0     C91786   7.876   2.826   7.578  0.7351 -0.3837 -0.4377
  696MOL0     O91787   7.532   2.881   7.549 -0.2540  0.2156 -0.8509
  696MOL0     C91788   7.377   3.095   7.561  0.3557 -0.3515  0.7978
  696MOL0     C91789   7.297   3.205   7.565  0.5237  0.2064  0.0412
  696MOL0     N91790   6.983   3.854   7.309 -0.0267  0.2418  0.1310
  696MOL0     N91791   6.926   3.954   7.249 -0.1937  0.2393 -0.3074
  696MOL0     C91792   7.381   4.967   7.424  0.8449 -0.1310  0.5156
  696MOL0     C91793   7.479   5.001   7.331 -0.2131  0.0616  0.3933
  696MOL0     C91794   7.740   5.172   6.992  0.3975  0.1509 -0.3059
  696MOL0     C91795   7.709   5.300   6.952  0.5039 -0.7174  0.2753
  696MOL0     C91796   7.781   5.369   6.853  0.3310 -0.6578 -0.3282
  696MOL0     C91797   7.904   5.306   6.805  0.1845 -0.2016 -0.1158
  696MOL0     O91798   7.965   5.382   6.705  0.0460  0.8607  0.4583
  696MOL0     C91799   8.086   5.323   6.645 -0.4498  0.1158 -1.9609
  696MOL0     C91800   8.151   5.420   6.554 -0.4663  0.4832 -0.1989
  696MOL0     C91801   8.059   5.479   6.436 -0.1282 -0.1523  0.4417
  696MOL0     C91802   8.124   5.605   6.388 -0.4103  0.2515 -0.9775
  696MOL0     C91803   8.265   5.579   6.339  0.2613 -0.0775  0.6655
  696MOL0     C91804   8.380   5.580   6.300  0.2205  0.0460  0.6175
  696MOL0     C91805   7.945   5.184   6.856 -0.1092  0.2035  0.0938
  696MOL0     C91806   7.863   5.114   6.944  0.5460  0.1802 -0.5275
  696MOL0     H91807   7.373   5.302   7.235 -0.0343 -1.4053 -2.1863
  696MOL0     H91808   7.188   5.242   7.400  1.0141  2.8113  0.8935
  696MOL0     H91809   7.073   4.885   7.672 -0.2918 -3.5046  0.2572
  696MOL0     H91810   7.256   4.875   7.671  0.9827 -0.6649 -2.9098
  696MOL0     H91811   7.171   4.681   7.608 -0.3605 -1.1297 -1.4423
  696MOL0     H91812   7.188   4.746   7.440  1.0751 -3.6482  0.1284
  696MOL0     H91813   6.921   4.825   7.493 -1.9824 -0.7740 -1.4430
  696MOL0     H91814   6.932   4.698   7.596 -1.4212 -0.1023 -1.3814
  696MOL0     H91815   6.862   4.633   7.367 -1.2616  2.1374  5.0844
  696MOL0     H91816   7.011   4.703   7.301 -0.3749  1.2346  0.3177
  696MOL0     H91817   6.954   4.444   7.464  2.3572 -0.1429  4.5140
  696MOL0     H91818   7.119   4.493   7.473 -0.2053 -0.4186  0.5942
  696MOL0     H91819   7.136   4.484   7.227  1.6639 -1.6973 -0.2624
  696MOL0     H91820   6.974   4.454   7.197 -0.1133 -1.0743 -0.6520
  696MOL0     H91821   7.108   4.259   7.186 -2.5875 -0.0634 -1.0596
  696MOL0     H91822   7.139   4.259   7.365  0.1219  1.6050  0.4781
  696MOL0     H91823   6.891   4.219   7.198  2.1185  0.6412 -0.6583
  696MOL0     H91824   6.871   4.235   7.380 -1.4652  1.4640 -0.8891
  696MOL0     H91825   7.045   4.090   7.523 -0.6269  0.5844  0.2729
  696MOL0     H91826   7.056   3.822   7.628 -0.1021  3.0242  0.3675
  696MOL0     H91827   7.191   3.904   7.554 -2.5111  0.6258  0.1676
  696MOL0     H91828   7.270   3.691   7.579 -0.6788  0.3472  1.4178
  696MOL0     H91829   7.224   3.689   7.405  1.0834  1.1817 -0.1034
  696MOL0     H91830   7.059   3.619   7.650  0.1370 -2.6081  0.4310
  696MOL0     H91831   6.988   3.586   7.494  0.3566 -1.1379 -2.0404
  696MOL0     H91832   7.163   3.435   7.438  0.6261  1.9422 -0.6010
  696MOL0     H91833   7.088   3.373   7.586  4.1835 -1.9022  3.6343
  696MOL0     H91834   7.514   3.457   7.562 -1.6661  0.9694  0.3537
  696MOL0     H91835   7.670   3.260   7.508  0.4638  0.4511  1.8615
  696MOL0     H91836   7.690   2.839   7.306 -2.0704  3.5251  3.8801
  696MOL0     H91837   7.772   2.602   7.275  0.7102  1.9935 -1.9611
  696MOL0     H91838   7.994   2.436   7.617  1.3983  0.5134 -0.8698
  696MOL0     H91839   8.131   2.510   7.517  1.3686 -0.7077 -0.4474
  696MOL0     H91840   8.004   2.242   7.515 -0.7279 -0.0853 -1.1951
  696MOL0     H91841   8.169   2.291   7.577  1.1906  2.2707 -2.3308
  696MOL0     H91842   8.103   2.263   7.282  1.2984  1.0151 -1.7011
  696MOL0     H91843   8.195   2.153   7.388  0.7894 -0.0564  1.4307
  696MOL0     H91844   8.294   2.351   7.227  1.8330  2.8697  0.0944
  696MOL0     H91845   8.287   2.445   7.373 -2.6688 -1.3575  2.1288
  696MOL0     H91846   8.438   2.184   7.359  2.6455  0.3368  1.2918
  696MOL0     H91847   8.434   2.300   7.491 -1.1112 -0.8020  0.3772
  696MOL0     H91848   8.528   2.467   7.347  0.0468 -2.0104  2.0341
  696MOL0     H91849   8.526   2.351   7.203  1.5730 -2.8825  0.3290
  696MOL0     H91850   8.686   2.348   7.445 -0.5599  2.8742 -0.7434
  696MOL0     H91851   8.693   2.207   7.336 -3.7436 -0.7640  5.0163
  696MOL0     H91852   8.885   2.385   7.291  1.0029 -0.7092 -3.2560
  696MOL0     H91853   8.751   2.500   7.285  0.0107 -0.5284  0.5570
  696MOL0     H91854   7.998   2.663   7.639  0.0277  1.2941  1.0569
  696MOL0     H91855   7.900   2.881   7.668 -0.6729 -0.0409 -0.2480
  696MOL0     H91856   7.328   2.999   7.547  0.4318 -0.0711 -2.0478
  696MOL0     H91857   7.192   3.181   7.555  0.1250  1.7051  0.3967
  696MOL0     H91858   7.400   4.870   7.467 -0.5503 -0.9800 -0.6861
  696MOL0     H91859   7.554   4.927   7.303 -1.3922 -0.4482 -1.7053
  696MOL0     H91860   7.626   5.350   7.003  0.9091 -0.2773  0.5129
  696MOL0     H91861   7.758   5.467   6.813  1.0547 -2.0414 -4.6012
  696MOL0     H91862   8.066   5.232   6.589 -1.4376 -0.5799 -0.5363
  696MOL0     H91863   8.143   5.306   6.737 -1.6439 -2.7789 -1.6436
  696MOL0     H91864   8.179   5.501   6.622 -2.8668  1.9234 -0.7930
  696MOL0     H91865   8.243   5.376   6.516  0.1507  0.5959  1.1280
  696MOL0     H91866   7.957   5.489   6.474 -0.0488  0.4400  0.5120
  696MOL0     H91867   8.063   5.414   6.349  2.4220 -0.0462  0.4063
  696MOL0     H91868   8.056   5.638   6.310 -0.9780  0.8234 -0.2603
  696MOL0     H91869   8.117   5.683   6.465  0.8175  1.4175 -1.9929
  696MOL0     H91870   8.481   5.583   6.264 -0.2364 -2.6328 -1.1919
  696MOL0     H91871   8.036   5.139   6.818 -1.9264 -1.5086 -2.6075
  696MOL0     H91872   7.895   5.015   6.974 -0.7048 -0.3692 -0.9226
  697MOL0     O91873   2.196   8.998   6.651  0.0673  0.0780  1.0035
  697MOL0     C91874   2.190   8.880   6.677 -0.4723 -0.2256 -0.3402
  697MOL0     O91875   2.146   8.830   6.793 -0.1161  0.1311 -0.6683
  697MOL0     C91876   2.088   8.914   6.881  0.4972 -0.1921  0.4682
  697MOL0     C91877   1.947   8.916   6.902 -0.6976  0.6284 -0.5895
  697MOL0     C91878   1.884   8.992   7.008 -0.5250  0.8503  0.5333
  697MOL0     C91879   1.961   9.097   7.071 -0.3807 -0.6116 -0.4040
  697MOL0     O91880   1.910   9.178   7.167 -0.6328 -0.6248 -0.1795
  697MOL0     C91881   1.980   9.292   7.221  0.2338 -0.4219  0.6556
  697MOL0     C91882   1.886   9.347   7.330 -0.3536 -0.5235  0.5018
  697MOL0     C91883   1.922   9.485   7.360 -1.4877  0.4987  0.5066
  697MOL0     C91884   2.054   9.509   7.440 -0.6335  0.0581 -0.4400
  697MOL0     C91885   2.102   9.657   7.443 -0.4436  0.8171  0.2078
  697MOL0     C91886   1.993   9.755   7.469  1.1465  0.6501 -0.3197
  697MOL0     C91887   2.038   9.901   7.494 -0.9510 -0.1805  0.0635
  697MOL0     C91888   2.085   9.920   7.644 -0.4288 -0.4942  0.1571
  697MOL0     N91889   1.983   9.944   7.743 -0.5503 -0.5233  0.9825
  697MOL0     C91890   1.977   9.917   7.872 -1.5273  0.1536 -0.7334
  697MOL0     C91891   1.860   9.960   7.918 -0.9581 -0.3781 -0.2807
  697MOL0     C91892   1.787   9.941   8.045  0.8458  0.5193 -0.1750
  697MOL0     C91893   1.697   9.811   8.019  1.1783 -0.2955  0.6923
  697MOL0     C91894   1.563   9.847   7.955 -0.6983  0.2630  0.1319
  697MOL0     C91895   1.453   9.881   8.060  0.2962 -0.3790 -0.1034
  697MOL0     O91896   1.490   9.967   8.168  0.1255  0.7393 -0.6777
  697MOL0     C91897   1.387  10.000   8.245  0.3514 -0.6070 -0.2161
  697MOL0     C91898   1.322  10.119   8.203  0.3592  0.6362  0.0177
  697MOL0     C91899   1.208  10.167   8.273  0.4047  0.0996 -0.4471
  697MOL0     C91900   1.176  10.100   8.397  0.5358  0.1014  0.3913
  697MOL0     C91901   1.064  10.141   8.468  0.0712 -0.1346 -0.2266
  697MOL0     O91902   1.017  10.269   8.458  0.2079 -0.3494 -0.0320
  697MOL0     C91903   0.901  10.298   8.516  0.2729  0.7271 -0.1289
  697MOL0     C91904   0.771  10.298   8.448 -0.0811  1.2110 -0.4496
  697MOL0     C91905   0.649  10.326   8.517 -0.1949  0.6124  0.3113
  697MOL0     C91906   0.651  10.351   8.653 -0.6654 -0.8731  0.8067
  697MOL0     O91907   0.532  10.392   8.708 -0.0423  0.2874 -0.3045
  697MOL0     C91908   0.533  10.494   8.823 -0.0058  0.9116 -0.0098
  697MOL0     C91909   0.399  10.559   8.846  0.3068 -0.5067 -0.6997
  697MOL0     C91910   0.384  10.633   8.975  0.1047  0.4127 -0.5686
  697MOL0     C91911   0.262  10.716   8.984  0.2727 -0.6706 -0.1863
  697MOL0     C91912   0.210  10.744   9.132  0.3135 -0.4077 -0.1042
  697MOL0     C91913   0.306  10.801   9.228 -0.4228  0.1389  0.4267
  697MOL0     C91914   0.337  10.941   9.189 -0.3868  0.7739 -0.6302
  697MOL0     C91915   0.448  10.979   9.281 -1.0624 -0.3580  0.2706
  697MOL0    Cl91916   0.482  11.155   9.264  0.3564  0.0514  0.5012
  697MOL0     C91917   0.775  10.364   8.719  0.8220 -0.3432 -0.6611
  697MOL0     C91918   0.897  10.332   8.653 -1.0628 -0.0832  0.4898
  697MOL0     O91919   1.003  10.052   8.532 -0.7674  1.2233  1.2586
  697MOL0     C91920   1.250   9.990   8.442  0.3385 -0.0745 -0.3374
  697MOL0     C91921   1.359   9.946   8.365  0.2161 -0.3919  0.0462
  697MOL0     N91922   1.798  10.037   7.821  0.3492 -0.9209  1.5534
  697MOL0     N91923   1.875  10.022   7.714 -0.7325 -0.0510 -0.7550
  697MOL0     C91924   2.098   9.103   7.038  0.5624  0.5254 -0.8001
  697MOL0     C91925   2.158   9.002   6.960 -0.7325 -0.0154 -0.8045
  697MOL0     C91926   2.233   8.795   6.567 -0.4357  0.9658  0.3484
  697MOL0     C91927   2.209   8.828   6.430 -0.0835 -0.2875  0.3021
  697MOL0     C91928   2.254   8.745   6.324  0.0570 -0.5043 -0.0239
  697MOL0     C91929   2.323   8.622   6.356 -0.0672 -0.7170 -0.4982
  697MOL0     O91930   2.372   8.566   6.244  0.8253 -0.5831 -0.6317
  697MOL0     C91931   2.426   8.436   6.259 -0.8922  0.7795  0.5195
  697MOL0     C91932   2.481   8.386   6.131 -1.0409  0.4711 -0.0716
  697MOL0     C91933   2.600   8.471   6.078 -0.5084 -0.5335  0.0942
  697MOL0     C91934   2.627   8.473   5.922 -0.2160  0.5613  0.5421
  697MOL0     C91935   2.674   8.340   5.887 -0.6028 -1.3861 -0.2748
  697MOL0     C91936   2.707   8.226   5.857  0.3580  0.0482 -0.2692
  697MOL0     C91937   2.332   8.576   6.490 -0.8567  0.1782 -0.1900
  697MOL0     C91938   2.280   8.664   6.587  0.0908 -0.4785  0.1849
  697MOL0     H91939   1.895   8.854   6.830  1.9763  1.1355 -3.1271
  697MOL0     H91940   1.776   8.981   7.013 -0.2829 -2.2265  0.6092
  697MOL0     H91941   2.021   9.356   7.142  4.7120  0.8475  3.6065
  697MOL0     H91942   2.075   9.262   7.266 -0.1814  0.5551  2.2916
  697MOL0     H91943   1.890   9.292   7.425 -2.6513 -1.3981  0.1537
  697MOL0     H91944   1.790   9.345   7.278  0.2437 -2.5954 -0.6114
  697MOL0     H91945   1.833   9.519   7.414 -0.8507  1.7966  0.7704
  697MOL0     H91946   1.930   9.537   7.265  0.8741 -3.8866 -2.0337
  697MOL0     H91947   2.041   9.475   7.543 -2.3946 -1.1107 -0.9952
  697MOL0     H91948   2.142   9.456   7.404  1.1794  1.7058  1.3348
  697MOL0     H91949   2.156   9.682   7.352  2.8520 -1.8997  1.2210
  697MOL0     H91950   2.178   9.658   7.521 -0.2842  3.2761  0.0985
  697MOL0     H91951   1.937   9.719   7.555  2.0229 -0.6856 -0.2791
  697MOL0     H91952   1.930   9.766   7.379  2.2762  2.7195 -0.9197
  697MOL0     H91953   2.125   9.934   7.436 -2.7684 -0.2092 -2.8710
  697MOL0     H91954   1.948   9.963   7.482 -1.1592 -0.1531  1.5960
  697MOL0     H91955   2.159   9.999   7.657 -0.5251 -0.3446 -0.2121
  697MOL0     H91956   2.139   9.829   7.673 -0.4339  0.2133  2.6087
  697MOL0     H91957   2.042   9.859   7.936 -0.6533 -0.8658 -2.4872
  697MOL0     H91958   1.733  10.031   8.076  1.3198  1.4161 -1.7933
  697MOL0     H91959   1.855   9.903   8.121 -0.6192 -0.3716  0.7197
  697MOL0     H91960   1.681   9.771   8.120  0.3725 -3.4727 -0.6079
  697MOL0     H91961   1.766   9.744   7.968 -0.8912 -1.2262 -1.0102
  697MOL0     H91962   1.570   9.927   7.880 -3.4613  0.4794  0.0019
  697MOL0     H91963   1.524   9.752   7.918  0.4700 -1.9302  4.0090
  697MOL0     H91964   1.425   9.782   8.095 -2.2417  0.0160 -0.8382
  697MOL0     H91965   1.364   9.914   8.006  2.9199  0.6050 -4.3782
  697MOL0     H91966   1.335  10.150   8.100 -1.4014  2.7580  0.3606
  697MOL0     H91967   1.147  10.245   8.229 -2.7324 -1.2227  1.2042
  697MOL0     H91968   0.753  10.258   8.349 -1.2055  0.8806 -0.1239
  697MOL0     H91969   0.558  10.339   8.459 -1.5123 -1.2705  1.8174
  697MOL0     H91970   0.606  10.573   8.801  0.6964  0.6521  1.2906
  697MOL0     H91971   0.561  10.445   8.916  1.6479 -0.4207 -1.1635
  697MOL0     H91972   0.329  10.475   8.843 -0.8923  0.1619  3.5249
  697MOL0     H91973   0.375  10.629   8.765  0.6975  3.0363  2.0205
  697MOL0     H91974   0.482  10.681   8.988  0.8085  0.0177 -3.6721
  697MOL0     H91975   0.377  10.564   9.060 -0.7664  3.2361  1.7959
  697MOL0     H91976   0.261  10.815   8.937 -5.4116 -1.3398 -2.2777
  697MOL0     H91977   0.176  10.667   8.938  1.0766 -5.2307  2.5854
  697MOL0     H91978   0.169  10.651   9.172  0.1764 -0.5137 -0.4879
  697MOL0     H91979   0.132  10.821   9.125  0.7580 -0.1107 -2.3701
  697MOL0     H91980   0.387  10.728   9.243 -0.9463  0.1164  4.0568
  697MOL0     H91981   0.249  10.819   9.319 -3.5604  0.4151 -1.4554
  697MOL0     H91982   0.369  10.952   9.085  2.6443 -2.9403 -0.3259
  697MOL0     H91983   0.250  11.002   9.215 -0.1395 -0.0266  2.5050
  697MOL0     H91984   0.541  10.943   9.236 -0.6832  1.5897 -0.6221
  697MOL0     H91985   0.440  10.946   9.385  0.7816  0.9604  0.8744
  697MOL0     H91986   0.758  10.397   8.821 -2.4472  0.2148 -1.2571
  697MOL0     H91987   0.986  10.330   8.715 -1.9339 -0.6545  1.7602
  697MOL0     H91988   1.218   9.933   8.528 -1.6742 -0.3781 -1.2135
  697MOL0     H91989   1.426   9.866   8.396  0.7248  0.4522  1.1621
  697MOL0     H91990   2.163   9.178   7.081 -1.6323  1.7552  0.5620
  697MOL0     H91991   2.265   8.988   6.951 -0.7348 -3.3813  2.0978
  697MOL0     H91992   2.172   8.929   6.423 -0.3967 -0.2944  1.5571
  697MOL0     H91993   2.247   8.794   6.227  2.5848 -0.3652 -0.1975
  697MOL0     H91994   2.345   8.368   6.288 -2.1061  2.1509  0.4161
  697MOL0     H91995   2.512   8.430   6.328 -1.2521  1.8722  1.0733
  697MOL0     H91996   2.523   8.286   6.146  2.6103  1.8146 -0.3551
  697MOL0     H91997   2.403   8.371   6.056 -0.8321 -0.8375 -0.0619
  697MOL0     H91998   2.694   8.454   6.132 -0.7675  2.2364  1.6163
  697MOL0     H91999   2.563   8.574   6.085 -3.6462 -1.6568  1.7287
  697MOL0     H92000   2.538   8.496   5.863 -0.2958 -3.5828 -1.3634
  697MOL0     H92001   2.708   8.542   5.899  2.0714 -2.6011 -1.8943
  697MOL0     H92002   2.727   8.124   5.830 -1.9015 -0.4166 -0.4296
  697MOL0     H92003   2.373   8.477   6.509 -1.5423  0.0006  0.3907
  697MOL0     H92004   2.293   8.635   6.690 -1.5794  2.7917  1.4631
  698MOL0     O92005   3.406  10.699   2.926  0.3174  0.7368 -0.3994
  698MOL0     C92006   3.284  10.674   2.914 -0.1327 -0.0109  0.5140
  698MOL0     O92007   3.180  10.744   2.975  0.3591 -0.7107 -0.0767
  698MOL0     C92008   3.211  10.855   3.051 -0.9375  0.3340  0.5345
  698MOL0     C92009   3.112  10.895   3.141  1.1409 -0.5131 -0.0644
  698MOL0     C92010   3.117  11.005   3.223 -0.2475 -0.1190  0.0985
  698MOL0     C92011   3.232  11.078   3.218 -0.5998  0.5976 -0.3973
  698MOL0     O92012   3.246  11.202   3.277 -0.3239 -0.5526 -0.0881
  698MOL0     C92013   3.132  11.237   3.346 -0.1241 -0.4285 -0.0388
  698MOL0     C92014   3.166  11.348   3.435 -0.1694  0.4700 -1.3867
  698MOL0     C92015   3.035  11.407   3.497 -0.1077  0.1514 -0.0724
  698MOL0     C92016   3.067  11.530   3.583  0.5194  0.3284 -0.1404
  698MOL0     C92017   3.060  11.483   3.734 -0.3691  0.1642  0.6490
  698MOL0     C92018   3.083  11.606   3.831 -0.6187 -0.0778  0.0760
  698MOL0     C92019   3.213  11.694   3.808  0.6231 -0.0986 -0.6917
  698MOL0     C92020   3.247  11.783   3.933 -0.7636  0.6609 -0.0661
  698MOL0     N92021   3.157  11.882   3.944 -0.4027 -0.3414 -0.2092
  698MOL0     C92022   3.039  11.877   4.013 -0.4811  0.5438  0.6717
  698MOL0     C92023   2.968  11.984   3.988  0.6428  0.7135 -0.3547
  698MOL0     C92024   2.835  12.003   4.032  0.5979  0.3813  0.3305
  698MOL0     C92025   2.841  12.119   4.141 -0.4806 -0.4028  0.5942
  698MOL0     C92026   2.713  12.189   4.147 -0.0498 -0.1043  0.2535
  698MOL0     C92027   2.705  12.300   4.263  0.1157  0.2293  0.4134
  698MOL0     O92028   2.571  12.348   4.261  0.0234 -0.3660  0.0874
  698MOL0     C92029   2.540  12.451   4.339  1.0444  0.8360  1.3411
  698MOL0     C92030   2.408  12.505   4.337 -0.0695  0.2379 -0.1006
  698MOL0     C92031   2.379  12.607   4.427 -0.0486  0.1908 -0.0119
  698MOL0     C92032   2.479  12.661   4.520  0.9918 -0.9260  0.2120
  698MOL0     C92033   2.434  12.772   4.621  1.3817 -0.0969  0.6814
  698MOL0     O92034   2.515  12.797   4.731 -0.2855 -0.0476  0.1349
  698MOL0     C92035   2.466  12.873   4.830  0.9712 -0.1343 -0.3675
  698MOL0     C92036   2.495  12.834   4.961  0.5190  0.2921 -0.5747
  698MOL0     C92037   2.454  12.912   5.065  1.1759 -0.3494  0.1944
  698MOL0     C92038   2.390  13.042   5.044  1.2953  0.4812  0.4416
  698MOL0     O92039   2.348  13.122   5.141 -0.0933 -0.2797  0.0582
  698MOL0     C92040   2.393  13.099   5.277 -0.5024 -0.3806  0.6852
  698MOL0     C92041   2.303  13.005   5.358 -0.5050  0.3564  0.2347
  698MOL0     C92042   2.342  12.968   5.504  0.2430 -0.0859 -0.3738
  698MOL0     C92043   2.241  12.875   5.568 -0.5095 -0.0607  0.1819
  698MOL0     C92044   2.252  12.751   5.499 -1.6556 -0.2520 -0.5456
  698MOL0     C92045   2.179  12.644   5.573  0.4014  0.0765 -0.6995
  698MOL0     C92046   2.178  12.500   5.516 -1.0762 -0.3917 -0.6098
  698MOL0     C92047   2.186  12.398   5.635 -0.6538  0.0597 -0.2859
  698MOL0    Cl92048   2.321  12.415   5.751  0.3091 -0.1737  0.2777
  698MOL0     C92049   2.370  13.092   4.911  0.0960 -0.1574  0.2714
  698MOL0     C92050   2.409  13.008   4.803 -0.3641  0.2368 -0.2983
  698MOL0     O92051   2.330  12.831   4.588  0.6545  0.5752 -0.0760
  698MOL0     C92052   2.600  12.598   4.526 -0.4323  0.4736 -0.3013
  698MOL0     C92053   2.621  12.494   4.436 -0.6536  0.0577  0.3949
  698MOL0     N92054   3.044  12.055   3.894 -0.3402  0.6444  0.4337
  698MOL0     N92055   3.162  12.003   3.874  1.0046 -0.1270 -0.3310
  698MOL0     C92056   3.329  11.049   3.130  0.3474 -0.0825 -0.6740
  698MOL0     C92057   3.321  10.947   3.042  0.1468  0.5780  0.4816
  698MOL0     C92058   3.254  10.569   2.819 -0.0510 -1.1811 -0.2268
  698MOL0     C92059   3.339  10.476   2.776  0.0255  0.0671  0.2199
  698MOL0     C92060   3.305  10.373   2.693  0.8448  1.1346  0.1933
  698MOL0     C92061   3.180  10.363   2.640 -0.9216  0.0974  1.1199
  698MOL0     O92062   3.166  10.254   2.556  1.0381  0.8514 -0.2522
  698MOL0     C92063   3.048  10.238   2.474 -0.9082  0.6279  0.8835
  698MOL0     C92064   2.925  10.191   2.545 -0.3421  1.3245  0.3037
  698MOL0     C92065   2.799  10.198   2.467 -0.2275 -0.2814 -0.4078
  698MOL0     C92066   2.768  10.345   2.440  0.2230 -0.5867  0.7291
  698MOL0     C92067   2.645  10.374   2.356  0.7209 -1.2311 -0.1438
  698MOL0     C92068   2.558  10.408   2.280 -0.0072 -0.5258 -0.2829
  698MOL0     C92069   3.084  10.462   2.663  0.5241  1.2406 -0.2694
  698MOL0     C92070   3.123  10.559   2.754  0.8884  0.3074  0.2064
  698MOL0     H92071   3.013  10.851   3.138  2.3194 -3.3761 -0.3917
  698MOL0     H92072   3.022  11.015   3.275 -2.4037 -2.6536 -2.9774
  698MOL0     H92073   3.086  11.163   3.412  0.8589 -0.1599  0.9680
  698MOL0     H92074   3.061  11.272   3.269  0.6123 -1.5640 -1.2759
  698MOL0     H92075   3.231  11.428   3.396 -1.1064  1.9401 -0.0676
  698MOL0     H92076   3.226  11.311   3.518 -1.5940  3.8218  1.4234
  698MOL0     H92077   2.985  11.323   3.545  1.9119 -0.5909  0.8262
  698MOL0     H92078   2.965  11.440   3.419 -3.9248  0.8461  3.3207
  698MOL0     H92079   3.166  11.570   3.560  0.5068  1.1775  1.2229
  698MOL0     H92080   2.990  11.604   3.558  0.1092 -1.1060 -3.8456
  698MOL0     H92081   3.133  11.402   3.747  2.1425  2.1340 -0.3088
  698MOL0     H92082   2.970  11.430   3.765  0.4458  1.2343  5.8405
  698MOL0     H92083   3.080  11.570   3.934  0.5356  1.6782  0.7905
  698MOL0     H92084   2.994  11.670   3.830 -1.2455 -0.9348  0.1936
  698MOL0     H92085   3.297  11.625   3.800  1.4480  0.9353 -1.0775
  698MOL0     H92086   3.191  11.752   3.718 -0.7024  0.2920 -0.1403
  698MOL0     H92087   3.348  11.815   3.906  0.9735 -3.8298  0.2427
  698MOL0     H92088   3.258  11.725   4.025 -1.1565 -1.0957 -1.0838
  698MOL0     H92089   3.007  11.793   4.073  0.0762  1.3217  2.1068
  698MOL0     H92090   2.796  11.916   4.085 -0.5612 -0.1634 -1.3259
  698MOL0     H92091   2.774  12.028   3.945 -0.1927  0.8214  1.0000
  698MOL0     H92092   2.920  12.191   4.118  2.3539 -3.5106 -0.2137
  698MOL0     H92093   2.871  12.084   4.240 -0.2901 -0.2899  0.5768
  698MOL0     H92094   2.681  12.233   4.053 -2.1141 -1.5150  0.2232
  698MOL0     H92095   2.633  12.116   4.163  0.6568 -1.1961 -0.9933
  698MOL0     H92096   2.782  12.377   4.255  0.0847  0.0607 -3.3832
  698MOL0     H92097   2.734  12.246   4.353 -1.3393 -0.9666  0.1971
  698MOL0     H92098   2.329  12.488   4.265 -1.0741  0.9401  0.8095
  698MOL0     H92099   2.279  12.649   4.431 -0.0841  0.4101 -2.2243
  698MOL0     H92100   2.539  12.736   4.979 -1.0077 -0.2450  0.3827
  698MOL0     H92101   2.489  12.889   5.165  2.2847  0.5182  0.0251
  698MOL0     H92102   2.402  13.191   5.336  3.1418 -1.2995  1.8469
  698MOL0     H92103   2.500  13.074   5.272 -0.9294 -2.2493  0.1465
  698MOL0     H92104   2.291  12.919   5.292 -3.0774 -0.2456  1.3420
  698MOL0     H92105   2.207  13.058   5.361 -0.3694  0.6615  3.9952
  698MOL0     H92106   2.338  13.054   5.571 -2.2295  0.9643 -1.7452
  698MOL0     H92107   2.442  12.925   5.497 -0.7404 -3.0677  1.5762
  698MOL0     H92108   2.261  12.869   5.675 -0.9863  1.3256  0.3634
  698MOL0     H92109   2.145  12.925   5.553  0.3274  2.5001  2.6426
  698MOL0     H92110   2.359  12.727   5.493 -1.6768 -0.2047 -1.1524
  698MOL0     H92111   2.210  12.756   5.398 -1.3285  0.5560 -0.6429
  698MOL0     H92112   2.076  12.681   5.572  0.8413  1.4230  0.5822
  698MOL0     H92113   2.198  12.633   5.680 -3.5705 -3.1349 -0.0864
  698MOL0     H92114   2.080  12.494   5.468 -0.0502 -1.5991 -2.7307
  698MOL0     H92115   2.243  12.489   5.429  0.6322  1.9760  0.2690
  698MOL0     H92116   2.204  12.298   5.596  0.6238 -0.0346  0.4752
  698MOL0     H92117   2.089  12.411   5.684 -1.4456  0.0752 -1.7865
  698MOL0     H92118   2.319  13.188   4.900 -1.0337 -0.9533 -2.1352
  698MOL0     H92119   2.399  13.049   4.704 -0.7024 -0.5902 -0.6127
  698MOL0     H92120   2.672  12.624   4.602 -0.5841  2.1015 -0.6846
  698MOL0     H92121   2.715  12.442   4.448 -0.1264  0.8251 -0.2535
  698MOL0     H92122   3.417  11.113   3.125  1.4489 -1.3852  0.8208
  698MOL0     H92123   3.396  10.928   2.966  0.1055  0.7123  0.4061
  698MOL0     H92124   3.439  10.477   2.817  0.5941 -0.8938 -1.1199
  698MOL0     H92125   3.370  10.289   2.670 -0.6323  0.3773 -1.5405
  698MOL0     H92126   3.080  10.164   2.399  1.1511  0.6453  1.6779
  698MOL0     H92127   3.035  10.324   2.409 -0.7345 -0.5514 -0.7804
  698MOL0     H92128   2.925  10.086   2.577 -2.5230  1.2697  0.2551
  698MOL0     H92129   2.918  10.237   2.644 -0.9688 -1.3168  1.5714
  698MOL0     H92130   2.724  10.153   2.532  0.2498  0.2591  0.5459
  698MOL0     H92131   2.804  10.143   2.372  0.2737  0.7239 -0.9768
  698MOL0     H92132   2.767  10.394   2.538 -1.7491  1.5455 -0.2720
  698MOL0     H92133   2.852  10.388   2.384  1.0719  0.5806  2.7921
  698MOL0     H92134   2.474  10.442   2.223 -0.5396 -2.4581 -0.7270
  698MOL0     H92135   2.981  10.454   2.630  0.0162 -2.5164  1.6150
  698MOL0     H92136   3.038  10.619   2.783  0.5098  0.1949 -0.6270
  699MOL0     O92137  10.292  10.310   9.604  0.0509 -0.0839  0.0541
  699MOL0     C92138  10.342  10.414   9.553 -0.3325  0.9128  0.6560
  699MOL0     O92139  10.385  10.424   9.432  0.1694 -0.3397 -0.0792
  699MOL0     C92140  10.376  10.334   9.336  0.2695 -0.6775  0.6450
  699MOL0     C92141  10.497  10.309   9.269 -0.0595 -0.0158  0.2563
  699MOL0     C92142  10.496  10.212   9.166 -0.7485 -0.2032 -0.9696
  699MOL0     C92143  10.382  10.139   9.125 -0.1843 -0.1886 -0.3389
  699MOL0     O92144  10.400  10.050   9.021  0.1052 -0.2840  0.2347
  699MOL0     C92145  10.288   9.966   9.001  0.2427  0.9957 -0.1157
  699MOL0     C92146  10.318   9.874   8.885  0.2245 -0.6046  0.3616
  699MOL0     C92147  10.327   9.934   8.744  0.0131 -0.3886  0.3666
  699MOL0     C92148  10.193   9.986   8.688 -0.1260 -0.2950  0.3485
  699MOL0     C92149  10.106   9.871   8.641 -0.1759 -0.2848  0.7396
  699MOL0     C92150  10.147   9.827   8.500  0.0260  0.2576  0.1138
  699MOL0     C92151  10.025   9.767   8.416  0.2317  0.0237  0.5327
  699MOL0     C92152   9.987   9.623   8.458  0.4837 -0.0945  0.6203
  699MOL0     N92153   9.848   9.605   8.403 -0.6821 -1.0253 -0.3489
  699MOL0     C92154   9.730   9.638   8.466  1.0361  0.1729 -0.0799
  699MOL0     C92155   9.625   9.633   8.383 -0.2763 -0.4308  0.7598
  699MOL0     C92156   9.484   9.648   8.422 -0.5336 -0.0976 -0.7167
  699MOL0     C92157   9.391   9.692   8.309  0.7260  0.2689  0.9462
  699MOL0     C92158   9.371   9.588   8.192  0.1793  0.3783  0.0715
  699MOL0     C92159   9.245   9.611   8.109 -0.1789  0.3522  0.1853
  699MOL0     O92160   9.265   9.745   8.055  0.8795  0.6361 -0.4857
  699MOL0     C92161   9.168   9.787   7.966  0.2104  0.1327  0.1087
  699MOL0     C92162   9.126   9.921   7.967  0.8582  0.5906 -0.4416
  699MOL0     C92163   9.035   9.967   7.875  0.9376 -0.2445 -0.1553
  699MOL0     C92164   8.987   9.880   7.781  0.3476  1.0985  0.6082
  699MOL0     C92165   8.904   9.930   7.668 -1.2182  0.1462 -0.1000
  699MOL0     O92166   8.804   9.848   7.611  0.5088 -0.4104 -0.3673
  699MOL0     C92167   8.751   9.894   7.491 -0.6721 -0.2669  0.1184
  699MOL0     C92168   8.818   9.905   7.361  0.4308  0.6718 -0.7900
  699MOL0     C92169   8.751   9.964   7.253 -1.2643  0.2424 -0.1825
  699MOL0     C92170   8.621  10.015   7.266  0.2469 -0.3150 -0.8866
  699MOL0     O92171   8.549  10.081   7.173  0.3879  0.2373  0.0262
  699MOL0     C92172   8.615  10.171   7.085  0.5354  0.9940 -0.3037
  699MOL0     C92173   8.510  10.273   7.024 -0.3658 -0.1479  0.1052
  699MOL0     C92174   8.555  10.295   6.878 -0.9021 -0.2067 -0.7151
  699MOL0     C92175   8.694  10.350   6.848  0.5683 -0.2278  0.4424
  699MOL0     C92176   8.695  10.506   6.863  0.3119 -1.3377 -0.2129
  699MOL0     C92177   8.839  10.574   6.835  1.2383 -0.3743 -0.4486
  699MOL0     C92178   8.879  10.550   6.694 -0.2836  0.4894  0.3864
  699MOL0     C92179   9.010  10.629   6.655 -0.3509 -0.9278  0.0279
  699MOL0    Cl92180   9.154  10.583   6.757  0.1574 -0.2962 -0.3809
  699MOL0     C92181   8.544   9.987   7.382 -0.5376 -0.1995 -0.5850
  699MOL0     C92182   8.612   9.921   7.490  0.0259 -0.2148  0.2980
  699MOL0     O92183   8.920  10.052   7.638 -0.1412 -0.5679 -0.3632
  699MOL0     C92184   9.022   9.748   7.777 -0.7180  0.2179  0.2809
  699MOL0     C92185   9.118   9.699   7.880  0.2257  0.8403  0.1251
  699MOL0     N92186   9.674   9.592   8.262 -0.0279 -0.6283 -0.0408
  699MOL0     N92187   9.805   9.579   8.277  0.8116  0.3618  0.0634
  699MOL0     C92188  10.266  10.178   9.188 -0.0153  0.1963 -0.8977
  699MOL0     C92189  10.262  10.260   9.296  0.5045 -0.3574 -0.2140
  699MOL0     C92190  10.340  10.533   9.637  0.4172  0.2372  0.0644
  699MOL0     C92191  10.411  10.650   9.597  0.6255  0.0644 -0.5059
  699MOL0     C92192  10.404  10.767   9.676  0.8281 -0.1074 -0.7235
  699MOL0     C92193  10.330  10.762   9.802  0.3848 -0.5711 -0.2364
  699MOL0     O92194  10.313  10.861   9.896  0.4027  0.2351  0.5351
  699MOL0     C92195  10.350  10.986   9.849  0.1057 -0.2035 -0.1871
  699MOL0     C92196  10.310  11.104   9.930  0.3325  0.3077 -0.3229
  699MOL0     C92197  10.159  11.133   9.913 -0.6135 -0.3145  0.8331
  699MOL0     C92198  10.128  11.288   9.913 -0.1104  0.3670  0.2563
  699MOL0     C92199  10.197  11.350   9.791 -0.3755  0.0275  0.4266
  699MOL0     C92200  10.272  11.361   9.690 -0.4595  0.3555 -0.0570
  699MOL0     C92201  10.254  10.646   9.841  0.0050 -0.6272  0.5142
  699MOL0     C92202  10.254  10.538   9.752  0.0466 -0.7022  0.5718
  699MOL0     H92203  10.584  10.359   9.310 -1.9594  4.2167 -0.3408
  699MOL0     H92204  10.588  10.190   9.114 -1.0987  0.9068 -2.1067
  699MOL0     H92205  10.195  10.019   8.976  0.3062  1.3442  0.3763
  699MOL0     H92206  10.271   9.909   9.092 -0.3584  0.5729 -0.4872
  699MOL0     H92207  10.244   9.793   8.873  0.4020 -0.8317  0.7819
  699MOL0     H92208  10.418   9.835   8.903  0.5971  1.2947  2.8882
  699MOL0     H92209  10.349   9.850   8.677 -3.4031 -1.2657  0.1325
  699MOL0     H92210  10.419   9.993   8.746  0.6452 -1.2697 -1.2982
  699MOL0     H92211  10.133  10.034   8.766 -1.1877  0.0064 -0.6270
  699MOL0     H92212  10.219  10.055   8.607 -0.2270 -1.1463 -0.4126
  699MOL0     H92213  10.006   9.912   8.624  0.9519  1.3935 -3.2217
  699MOL0     H92214  10.111   9.780   8.701 -1.6936  0.7964  2.6300
  699MOL0     H92215  10.234   9.760   8.510 -0.8687 -0.9024  0.3759
  699MOL0     H92216  10.188   9.915   8.449  0.1752 -0.9687 -2.0045
  699MOL0     H92217   9.944   9.838   8.433  0.8896  0.9202  0.0216
  699MOL0     H92218  10.049   9.764   8.310 -0.6088 -0.9748  0.3482
  699MOL0     H92219  10.000   9.607   8.566  1.3389 -3.1386  0.1625
  699MOL0     H92220  10.050   9.545   8.415  2.9290  2.0304  0.1455
  699MOL0     H92221   9.720   9.670   8.569  1.5007  0.6416 -0.1807
  699MOL0     H92222   9.464   9.711   8.509  1.9605 -2.7560  2.0333
  699MOL0     H92223   9.461   9.547   8.458 -0.0920  0.9560  2.9883
  699MOL0     H92224   9.431   9.787   8.269  3.6869 -0.3748  2.1206
  699MOL0     H92225   9.291   9.695   8.351  0.3410 -2.7039  0.4233
  699MOL0     H92226   9.452   9.595   8.118  0.9776 -2.1455  0.5882
  699MOL0     H92227   9.369   9.483   8.223  1.7867  0.3870  0.3286
  699MOL0     H92228   9.161   9.591   8.176  3.4073 -4.3083  3.9861
  699MOL0     H92229   9.239   9.530   8.036  0.4107  1.5338 -1.2288
  699MOL0     H92230   9.162   9.992   8.041  1.8509  3.0036 -3.0370
  699MOL0     H92231   9.012  10.072   7.856 -1.0899 -0.9845 -2.2195
  699MOL0     H92232   8.925   9.886   7.349  0.2866  0.0645 -1.1387
  699MOL0     H92233   8.800   9.988   7.159 -0.1919  1.7018  0.7049
  699MOL0     H92234   8.668  10.100   7.020  0.9731 -1.1575  2.2202
  699MOL0     H92235   8.685  10.229   7.145 -1.5644  1.6218  1.6843
  699MOL0     H92236   8.516  10.366   7.082  0.4759  0.7635 -1.3778
  699MOL0     H92237   8.409  10.231   7.024 -1.1506  1.6439  0.3227
  699MOL0     H92238   8.486  10.360   6.823 -0.6215  1.1045  0.4211
  699MOL0     H92239   8.564  10.195   6.833  3.2049 -1.1405  1.6592
  699MOL0     H92240   8.773  10.305   6.909 -0.7703 -4.5460 -0.6479
  699MOL0     H92241   8.714  10.327   6.743 -2.2261 -2.1023  0.2062
  699MOL0     H92242   8.661  10.529   6.965 -1.5534  2.7265 -1.5482
  699MOL0     H92243   8.625  10.559   6.799  0.8868  1.3373  1.2361
  699MOL0     H92244   8.907  10.521   6.903 -0.4019 -1.8577  0.1224
  699MOL0     H92245   8.839  10.679   6.866  3.3792 -0.8518  1.4737
  699MOL0     H92246   8.914  10.447   6.685  2.4112  1.2602  1.0656
  699MOL0     H92247   8.803  10.575   6.620  0.7268 -1.1110 -1.2818
  699MOL0     H92248   8.995  10.729   6.698  2.6091 -2.0383  4.3432
  699MOL0     H92249   9.040  10.622   6.550  2.7343  1.0320  0.6442
  699MOL0     H92250   8.439  10.010   7.393 -1.0324 -2.5900  0.3480
  699MOL0     H92251   8.555   9.897   7.580 -1.3175  1.5890 -0.0020
  699MOL0     H92252   8.984   9.682   7.700  1.9133 -1.4650  0.2883
  699MOL0     H92253   9.154   9.597   7.870 -2.9769 -0.4145  0.1706
  699MOL0     H92254  10.174  10.122   9.172 -0.3830  0.7282 -0.6906
  699MOL0     H92255  10.168  10.271   9.349 -0.5612 -1.5368 -1.7526
  699MOL0     H92256  10.456  10.651   9.498  3.3178  0.7978  0.6348
  699MOL0     H92257  10.459  10.858   9.656  1.3390  0.3534  2.3264
  699MOL0     H92258  10.313  11.012   9.749 -1.2092 -0.3414  0.2462
  699MOL0     H92259  10.459  10.990   9.857  0.0214 -0.6062  1.3624
  699MOL0     H92260  10.333  11.090  10.036 -2.9446  0.1440  0.4715
  699MOL0     H92261  10.374  11.191   9.912  0.0161  0.1152 -2.7573
  699MOL0     H92262  10.117  11.086  10.003  2.0738 -0.7418  1.9540
  699MOL0     H92263  10.122  11.085   9.822 -0.0156  1.1367 -0.1997
  699MOL0     H92264  10.019  11.297   9.922 -0.2611 -0.6651 -0.3185
  699MOL0     H92265  10.169  11.327  10.007  1.5751 -1.8046  0.4885
  699MOL0     H92266  10.318  11.370   9.594 -4.5465  4.4377 -2.0039
  699MOL0     H92267  10.196  10.637   9.933 -0.8530 -0.3873  0.0113
  699MOL0     H92268  10.188  10.459   9.788  0.9302 -1.9928 -0.5668
  700MOL0     O92269   1.601   5.122   0.438  0.2986 -0.1970 -0.9451
  700MOL0     C92270   1.526   5.193   0.373  0.5630  0.3687 -0.1212
  700MOL0     O92271   1.392   5.213   0.393  0.0305 -0.0321  1.3339
  700MOL0     C92272   1.355   5.171   0.513  0.7520 -0.7805 -0.4456
  700MOL0     C92273   1.402   5.239   0.632  0.2818 -0.3963  0.6114
  700MOL0     C92274   1.371   5.181   0.755  0.3333 -0.4206  0.9692
  700MOL0     C92275   1.297   5.065   0.764 -0.1206 -0.5908 -0.0022
  700MOL0     O92276   1.269   4.995   0.884 -0.3870 -0.5175 -0.1160
  700MOL0     C92277   1.320   5.051   1.011  1.0981 -0.2992  0.4184
  700MOL0     C92278   1.269   4.968   1.134  0.1402  0.3689  0.8130
  700MOL0     C92279   1.316   5.051   1.263 -0.6575 -0.3986  0.1853
  700MOL0     C92280   1.256   5.199   1.277  0.0789  0.3479 -0.5104
  700MOL0     C92281   1.232   5.229   1.427  0.4889 -0.0054  0.6218
  700MOL0     C92282   1.124   5.135   1.487 -0.5439  0.2939  0.5237
  700MOL0     C92283   0.980   5.199   1.487  0.4655 -0.0428  0.6102
  700MOL0     C92284   0.944   5.246   1.622 -0.5248 -0.5584  0.0748
  700MOL0     N92285   0.967   5.387   1.653 -0.2135  0.2960  0.2412
  700MOL0     C92286   0.883   5.453   1.742 -0.4631  0.2516 -0.8683
  700MOL0     C92287   0.947   5.571   1.757 -0.6250 -0.3270  0.2319
  700MOL0     C92288   0.901   5.697   1.828  0.8655  0.8958  0.0527
  700MOL0     C92289   1.024   5.750   1.919  0.1224 -0.0082  0.5239
  700MOL0     C92290   1.006   5.890   1.972  1.1208 -0.1876  0.8582
  700MOL0     C92291   0.877   5.915   2.050 -0.7675  0.3165  0.3421
  700MOL0     O92292   0.868   5.845   2.175 -0.2012  0.8427 -0.0281
  700MOL0     C92293   0.850   5.911   2.290 -0.6610  0.1952 -0.3398
  700MOL0     C92294   0.782   6.043   2.303  0.1507 -0.2708  0.1738
  700MOL0     C92295   0.758   6.093   2.437 -0.7441 -0.3364  0.2524
  700MOL0     C92296   0.811   6.022   2.544 -0.4602 -1.4427 -0.4682
  700MOL0     C92297   0.816   6.097   2.680  0.6821  0.2195  0.5744
  700MOL0     O92298   0.754   6.220   2.691 -0.0324  0.2469  0.8349
  700MOL0     C92299   0.752   6.297   2.807 -0.2517  0.8091  1.1729
  700MOL0     C92300   0.621   6.363   2.810 -0.1780  0.2514  0.1888
  700MOL0     C92301   0.583   6.436   2.926  0.7527  0.4710  0.0536
  700MOL0     C92302   0.669   6.441   3.034 -0.3694 -0.1241 -0.0156
  700MOL0     O92303   0.626   6.501   3.147  1.2058 -0.4253 -0.2088
  700MOL0     C92304   0.685   6.492   3.275 -0.1575 -0.1666 -0.1314
  700MOL0     C92305   0.561   6.544   3.355 -0.2136 -0.5008 -0.6430
  700MOL0     C92306   0.574   6.658   3.444  0.6119  0.5378  0.1058
  700MOL0     C92307   0.459   6.672   3.551 -0.2795  0.3135 -0.8240
  700MOL0     C92308   0.334   6.738   3.497 -0.2438  0.2482 -0.9592
  700MOL0     C92309   0.217   6.697   3.589 -0.0111  0.0637 -0.0774
  700MOL0     C92310   0.223   6.789   3.715  0.5308 -0.5885 -0.5630
  700MOL0     C92311   0.095   6.766   3.798 -0.4401 -0.4700  0.0587
  700MOL0    Cl92312   0.100   6.601   3.885  0.8094 -0.1942 -0.1016
  700MOL0     C92313   0.790   6.378   3.025 -0.3371  0.2756  0.0529
  700MOL0     C92314   0.835   6.293   2.919 -0.6642  0.0095 -0.4205
  700MOL0     O92315   0.873   6.030   2.767  0.6566 -0.8203 -0.3338
  700MOL0     C92316   0.856   5.892   2.525  0.3697  0.6171  0.4365
  700MOL0     C92317   0.875   5.832   2.402  0.0262 -0.3188  0.2370
  700MOL0     N92318   1.064   5.573   1.677 -0.4241  0.4952  0.1108
  700MOL0     N92319   1.074   5.459   1.617 -0.1153 -0.3840  0.5027
  700MOL0     C92320   1.243   5.007   0.647 -0.1286 -0.6028 -0.7566
  700MOL0     C92321   1.283   5.058   0.527  0.8455  0.8602  0.4592
  700MOL0     C92322   1.601   5.279   0.274  0.2332  0.8382  0.2985
  700MOL0     C92323   1.737   5.295   0.253  0.0471  0.2711  0.0677
  700MOL0     C92324   1.790   5.370   0.148 -0.2287  0.6356 -0.2389
  700MOL0     C92325   1.699   5.432   0.060  0.3198 -0.0618  0.1113
  700MOL0     O92326   1.751   5.486  -0.052  0.2331 -0.3119  0.3252
  700MOL0     C92327   1.664   5.558  -0.143 -0.4588 -0.2177  0.1423
  700MOL0     C92328   1.726   5.613  -0.273 -0.7046 -0.0505  0.7681
  700MOL0     C92329   1.853   5.688  -0.251  0.2999 -0.6736 -0.4665
  700MOL0     C92330   1.829   5.826  -0.184  0.2084 -0.6350  0.9869
  700MOL0     C92331   1.950   5.914  -0.192 -0.1510  0.8894  0.9597
  700MOL0     C92332   2.053   5.979  -0.185  0.7001 -0.3996 -0.4169
  700MOL0     C92333   1.559   5.428   0.078 -0.7528  0.1610  0.1250
  700MOL0     C92334   1.512   5.348   0.181  0.6910 -1.9953  0.2199
  700MOL0     H92335   1.469   5.321   0.614  0.6888 -1.4444 -3.8715
  700MOL0     H92336   1.433   5.227   0.831  0.7090  2.5126 -0.9291
  700MOL0     H92337   1.286   5.154   1.014  1.8245 -0.0615  1.1152
  700MOL0     H92338   1.427   5.073   1.016  1.3637 -0.5610 -2.3763
  700MOL0     H92339   1.317   4.872   1.119 -1.4428 -0.3688  0.1739
  700MOL0     H92340   1.161   4.947   1.136 -0.1312  1.6440  3.4786
  700MOL0     H92341   1.424   5.065   1.269 -0.9241  3.4314 -1.5742
  700MOL0     H92342   1.289   4.984   1.345  0.6894 -0.1992  0.8129
  700MOL0     H92343   1.344   5.262   1.258 -0.0685  1.2803  1.5681
  700MOL0     H92344   1.167   5.225   1.220 -0.2637  0.3439  0.0135
  700MOL0     H92345   1.212   5.333   1.455 -0.8741 -0.6558  2.2638
  700MOL0     H92346   1.326   5.205   1.478 -0.4460 -2.2292  1.4544
  700MOL0     H92347   1.151   5.097   1.586  1.9508 -0.3841 -0.3578
  700MOL0     H92348   1.124   5.036   1.440  0.5197  0.0646  0.9937
  700MOL0     H92349   0.973   5.290   1.426  3.1951  1.2966  2.1035
  700MOL0     H92350   0.906   5.127   1.452 -1.5319  1.4969  1.4783
  700MOL0     H92351   0.991   5.175   1.691  1.2365 -0.5720 -1.0647
  700MOL0     H92352   0.835   5.238   1.630 -0.6386  1.4223  1.0822
  700MOL0     H92353   0.783   5.445   1.782  0.7518 -0.4122  2.3302
  700MOL0     H92354   0.828   5.658   1.900  1.8409 -1.5561 -0.2121
  700MOL0     H92355   0.855   5.775   1.766  2.2501  2.7713  1.2994
  700MOL0     H92356   1.107   5.723   1.853 -1.4573 -1.0349 -1.1731
  700MOL0     H92357   1.018   5.672   1.996  2.4325 -0.0085  0.7625
  700MOL0     H92358   1.089   5.923   2.035 -0.3272  2.0539  1.6913
  700MOL0     H92359   1.017   5.956   1.885  2.3546  0.5178  1.5222
  700MOL0     H92360   0.793   5.875   1.992 -1.1212 -1.6640  2.0951
  700MOL0     H92361   0.867   6.023   2.060  0.8540  0.7735 -2.0726
  700MOL0     H92362   0.747   6.108   2.223  0.4876 -0.8176 -0.4229
  700MOL0     H92363   0.711   6.191   2.445  1.9705  1.2004 -1.0653
  700MOL0     H92364   0.549   6.342   2.732  1.6717 -1.4845 -1.1511
  700MOL0     H92365   0.492   6.495   2.918  0.6316  0.6641  2.2650
  700MOL0     H92366   0.775   6.554   3.279 -1.2516  1.5240 -0.4278
  700MOL0     H92367   0.729   6.399   3.312  1.1793  0.4783 -0.0483
  700MOL0     H92368   0.516   6.471   3.424  0.2737  0.6383  0.9344
  700MOL0     H92369   0.473   6.564   3.293 -1.2033 -0.6384  0.6782
  700MOL0     H92370   0.579   6.748   3.382 -1.8624  0.0845 -0.8647
  700MOL0     H92371   0.670   6.642   3.494  0.6220 -3.7769 -0.8948
  700MOL0     H92372   0.443   6.574   3.597  3.5660  1.0087  2.6108
  700MOL0     H92373   0.493   6.727   3.639  0.3706 -0.9089 -0.2887
  700MOL0     H92374   0.314   6.691   3.400 -3.1403  0.6574 -0.6378
  700MOL0     H92375   0.330   6.847   3.484 -2.4131  0.3069 -0.1583
  700MOL0     H92376   0.223   6.589   3.608  0.5105  0.2471  0.8746
  700MOL0     H92377   0.128   6.712   3.527  2.0877  0.4138 -3.2412
  700MOL0     H92378   0.317   6.777   3.769  1.7583 -0.6977 -2.5857
  700MOL0     H92379   0.228   6.892   3.678  1.9775 -0.3283  0.2844
  700MOL0     H92380   0.017   6.765   3.721  2.0497 -1.9886 -2.6458
  700MOL0     H92381   0.077   6.849   3.867  0.8824  1.7101 -2.0877
  700MOL0     H92382   0.866   6.382   3.102 -1.9874  1.4746  1.7212
  700MOL0     H92383   0.921   6.227   2.916  0.2096  1.1127 -0.0396
  700MOL0     H92384   0.900   5.851   2.616  1.8390  3.3255  1.0779
  700MOL0     H92385   0.927   5.740   2.381  0.8920  0.1822  0.1309
  700MOL0     H92386   1.176   4.924   0.669 -1.9916  1.3193  1.5389
  700MOL0     H92387   1.254   5.005   0.436  2.9734  1.3582 -0.5781
  700MOL0     H92388   1.801   5.227   0.309 -1.2252 -1.7570 -0.8287
  700MOL0     H92389   1.897   5.381   0.134 -0.0034  0.3129  1.0814
  700MOL0     H92390   1.619   5.642  -0.089  1.1882  0.8849 -0.1343
  700MOL0     H92391   1.576   5.504  -0.179 -0.5480  1.1195 -1.8287
  700MOL0     H92392   1.767   5.526  -0.325  3.6812  1.0919  1.9318
  700MOL0     H92393   1.650   5.658  -0.339 -1.0250 -2.5465 -0.7130
  700MOL0     H92394   1.893   5.706  -0.351 -0.1954 -1.3265 -0.7910
  700MOL0     H92395   1.924   5.634  -0.186 -0.6860 -2.6178 -0.9169
  700MOL0     H92396   1.737   5.875  -0.216  2.1007  1.6624 -1.4865
  700MOL0     H92397   1.817   5.807  -0.078  0.9321  0.1886  1.2302
  700MOL0     H92398   2.131   6.050  -0.173  1.1173 -0.8864 -0.1939
  700MOL0     H92399   1.495   5.479   0.007  1.4302  2.9092  0.0017
  700MOL0     H92400   1.404   5.343   0.190  0.6188  0.3831  1.6706
  701MOL0     O92401   4.181   1.912   2.672 -0.8971 -0.1674  0.6316
  701MOL0     C92402   4.304   1.909   2.639  0.8795 -0.9572  0.1097
  701MOL0     O92403   4.409   1.934   2.717  0.8871 -0.0637  0.6900
  701MOL0     C92404   4.389   1.959   2.854  0.9598 -0.8127 -1.1409
  701MOL0     C92405   4.277   1.948   2.936 -0.4354 -0.1035 -0.6189
  701MOL0     C92406   4.292   1.940   3.073  0.2046 -0.0027  0.5041
  701MOL0     C92407   4.422   1.955   3.130 -0.4717 -0.0984  0.5049
  701MOL0     O92408   4.423   1.958   3.270  0.3028  0.1232 -0.6213
  701MOL0     C92409   4.533   1.908   3.342  0.7426 -0.4842 -0.2644
  701MOL0     C92410   4.537   1.984   3.475 -0.0137 -0.6743 -0.8423
  701MOL0     C92411   4.411   1.967   3.573 -0.2984  0.7144  0.1247
  701MOL0     C92412   4.417   2.052   3.704  0.2403 -0.9051  0.2293
  701MOL0     C92413   4.291   2.020   3.788  0.6290 -0.3723 -0.1689
  701MOL0     C92414   4.265   2.098   3.919 -0.2233 -0.9552 -0.2497
  701MOL0     C92415   4.133   2.053   3.986  0.3593 -0.4219  0.0467
  701MOL0     C92416   4.128   2.074   4.140  0.7759 -1.1999  0.5361
  701MOL0     N92417   4.193   2.203   4.176 -0.3264  0.4120 -0.8079
  701MOL0     C92418   4.149   2.332   4.164 -0.3103  0.1905  0.0235
  701MOL0     C92419   4.253   2.404   4.187 -0.2602 -0.4562 -0.7968
  701MOL0     C92420   4.255   2.553   4.194  0.0168  0.0167 -0.5448
  701MOL0     C92421   4.264   2.607   4.346 -0.3515  1.1866 -0.3603
  701MOL0     C92422   4.396   2.683   4.374 -1.5044 -0.8652 -0.0155
  701MOL0     C92423   4.434   2.670   4.520  0.0042 -0.4536  0.3696
  701MOL0     O92424   4.352   2.747   4.605  0.3387 -0.5886  0.9292
  701MOL0     C92425   4.409   2.789   4.724 -0.6753  0.1857 -0.3744
  701MOL0     C92426   4.475   2.713   4.816 -0.2211 -0.8959  0.4239
  701MOL0     C92427   4.515   2.758   4.939 -1.1821  0.3820  0.5340
  701MOL0     C92428   4.485   2.890   4.979 -0.1046  0.6976  0.0522
  701MOL0     C92429   4.537   2.945   5.110 -0.3838  0.2444  0.0171
  701MOL0     O92430   4.494   3.066   5.138  0.2459 -0.0751  0.3740
  701MOL0     C92431   4.502   3.123   5.263 -0.2299  0.5035  0.2952
  701MOL0     C92432   4.412   3.228   5.285  0.4342  0.4679  1.0279
  701MOL0     C92433   4.409   3.299   5.403  0.3087 -0.5610 -0.1855
  701MOL0     C92434   4.505   3.281   5.503  0.3530  0.4382  0.0640
  701MOL0     O92435   4.502   3.373   5.604 -0.2796 -0.2995 -0.1630
  701MOL0     C92436   4.576   3.362   5.724 -0.1198  0.5864  0.6908
  701MOL0     C92437   4.495   3.288   5.835 -0.2015  0.0075  0.1814
  701MOL0     C92438   4.392   3.375   5.910  0.2375  0.1402  0.4368
  701MOL0     C92439   4.453   3.485   6.001 -0.0925 -0.4346  0.2865
  701MOL0     C92440   4.362   3.533   6.109  0.0706  0.7368  0.4624
  701MOL0     C92441   4.433   3.581   6.231  0.6167  0.7965 -0.4521
  701MOL0     C92442   4.518   3.706   6.207 -0.2099  0.7302  0.2423
  701MOL0     C92443   4.599   3.743   6.331 -0.0173 -0.1292 -0.0218
  701MOL0    Cl92444   4.498   3.832   6.441  0.1624 -0.1832  0.3031
  701MOL0     C92445   4.600   3.185   5.477 -0.6302  0.6414 -0.5809
  701MOL0     C92446   4.602   3.098   5.364 -0.2100 -0.5142  0.4989
  701MOL0     O92447   4.629   2.883   5.160  0.3129 -0.0092  0.0196
  701MOL0     C92448   4.397   2.964   4.897 -0.2587 -0.3337 -0.1861
  701MOL0     C92449   4.358   2.915   4.770  0.1819  0.8769  0.1128
  701MOL0     N92450   4.363   2.326   4.220  0.7808 -0.4377 -0.2710
  701MOL0     N92451   4.323   2.203   4.214 -0.2387  0.6791  0.4757
  701MOL0     C92452   4.535   1.985   3.055  0.5826 -0.5067  1.0104
  701MOL0     C92453   4.522   1.985   2.918  0.3100  0.3010  0.2200
  701MOL0     C92454   4.347   1.887   2.498  0.0807 -0.4644  0.6997
  701MOL0     C92455   4.485   1.852   2.467 -0.4493  0.4190  0.5605
  701MOL0     C92456   4.510   1.813   2.337 -0.2229 -0.2932 -0.3071
  701MOL0     C92457   4.412   1.817   2.235  0.0551  0.7948  0.1727
  701MOL0     O92458   4.453   1.779   2.104  0.1823  0.6610  0.5084
  701MOL0     C92459   4.381   1.846   1.989  0.2160 -0.1099  0.5235
  701MOL0     C92460   4.267   1.758   1.921 -0.4128 -0.5817  0.2595
  701MOL0     C92461   4.276   1.762   1.772  0.3849  0.1453 -0.1133
  701MOL0     C92462   4.211   1.878   1.697 -0.3530  0.4376  0.4420
  701MOL0     C92463   4.264   1.883   1.563 -0.7051 -0.3905  0.2876
  701MOL0     C92464   4.309   1.917   1.455  1.1990  0.0310  0.0085
  701MOL0     C92465   4.273   1.858   2.263  0.0493 -0.0223 -0.2017
  701MOL0     C92466   4.247   1.894   2.396  0.6230  0.3601 -0.3088
  701MOL0     H92467   4.182   1.916   2.896 -0.2128 -0.8587 -0.5664
  701MOL0     H92468   4.210   1.922   3.142 -1.3997  2.5182 -0.5930
  701MOL0     H92469   4.628   1.934   3.293  2.4792 -2.5354  1.7833
  701MOL0     H92470   4.530   1.799   3.345  2.1134 -0.5432 -0.3797
  701MOL0     H92471   4.543   2.092   3.457 -4.6900 -0.1845 -0.5321
  701MOL0     H92472   4.626   1.962   3.535 -1.4270  0.2304  1.7771
  701MOL0     H92473   4.400   1.862   3.602  2.4252 -0.0490 -1.2105
  701MOL0     H92474   4.322   1.978   3.510 -0.6541 -0.4133  0.4153
  701MOL0     H92475   4.506   2.030   3.764 -0.1158  0.9279  1.5090
  701MOL0     H92476   4.426   2.158   3.679 -1.8105 -1.1176 -1.6786
  701MOL0     H92477   4.297   1.911   3.802  1.0724 -0.9595 -3.7476
  701MOL0     H92478   4.203   2.032   3.725 -0.0243 -0.9494  0.6122
  701MOL0     H92479   4.263   2.203   3.887 -1.7807 -0.7626  0.3891
  701MOL0     H92480   4.353   2.073   3.979  0.2811  4.0689  1.6286
  701MOL0     H92481   4.047   2.099   3.936  2.1229  0.5104 -2.2813
  701MOL0     H92482   4.127   1.945   3.966  1.6608 -0.6572  0.8564
  701MOL0     H92483   4.195   1.992   4.168  2.2501 -1.7086 -3.7277
  701MOL0     H92484   4.028   2.059   4.181  0.3655 -1.6966 -0.5955
  701MOL0     H92485   4.048   2.365   4.142  1.0159  2.9596 -2.5423
  701MOL0     H92486   4.153   2.570   4.157 -0.3250 -2.2079 -0.7800
  701MOL0     H92487   4.330   2.604   4.133 -0.2887 -1.2450 -2.0599
  701MOL0     H92488   4.254   2.523   4.415 -3.1648 -0.8875 -3.0067
  701MOL0     H92489   4.184   2.681   4.345 -0.0665  1.5237 -1.7841
  701MOL0     H92490   4.483   2.651   4.317 -0.5559  1.1721  0.1954
  701MOL0     H92491   4.381   2.791   4.365 -0.6736 -0.4970  2.2727
  701MOL0     H92492   4.538   2.705   4.529  0.4430 -0.6783 -2.5554
  701MOL0     H92493   4.425   2.563   4.543 -1.9425 -0.9156 -2.1406
  701MOL0     H92494   4.490   2.609   4.786 -1.7271 -1.9918  3.1308
  701MOL0     H92495   4.573   2.679   4.984  0.2373  1.0903  0.0241
  701MOL0     H92496   4.343   3.260   5.207  0.4750  0.4031  0.9659
  701MOL0     H92497   4.331   3.375   5.409 -0.6293 -1.4232 -1.1620
  701MOL0     H92498   4.597   3.463   5.761  0.2778  0.1529  1.6551
  701MOL0     H92499   4.669   3.307   5.708 -0.0031  1.5492 -2.9289
  701MOL0     H92500   4.570   3.246   5.902 -0.3696  0.2550  0.5305
  701MOL0     H92501   4.435   3.206   5.792 -0.6296 -1.0910  2.7080
  701MOL0     H92502   4.332   3.305   5.969 -1.9397 -0.6026 -2.3950
  701MOL0     H92503   4.315   3.408   5.839  0.5055 -0.0392  0.0615
  701MOL0     H92504   4.535   3.442   6.059 -1.0878  0.7900  2.7691
  701MOL0     H92505   4.488   3.568   5.939  0.1051 -2.0861 -1.9282
  701MOL0     H92506   4.300   3.445   6.128 -0.0200  0.7903  0.4172
  701MOL0     H92507   4.288   3.603   6.071 -0.9067 -0.8857 -0.7435
  701MOL0     H92508   4.491   3.495   6.267 -0.4823 -0.2963 -1.2218
  701MOL0     H92509   4.351   3.608   6.298 -2.2820  0.2196 -3.4805
  701MOL0     H92510   4.589   3.667   6.134  0.4173  0.2002  1.1132
  701MOL0     H92511   4.459   3.782   6.156 -0.6452 -1.2014 -2.3453
  701MOL0     H92512   4.694   3.795   6.313  0.4368 -1.6965 -2.6528
  701MOL0     H92513   4.627   3.649   6.380 -1.0060 -0.6010 -0.3331
  701MOL0     H92514   4.685   3.180   5.544 -0.5849 -1.5382 -0.7239
  701MOL0     H92515   4.676   3.018   5.356  0.6683  0.0164  2.7070
  701MOL0     H92516   4.363   3.062   4.930  0.5152  0.2408 -1.0419
  701MOL0     H92517   4.289   2.973   4.709 -2.2504 -1.7061  0.1672
  701MOL0     H92518   4.634   1.997   3.097  1.5895 -2.0609 -0.7143
  701MOL0     H92519   4.613   2.014   2.866 -0.3247  0.1432 -0.9984
  701MOL0     H92520   4.554   1.833   2.548 -1.2500  0.2285  1.2053
  701MOL0     H92521   4.614   1.788   2.318  0.7452  0.9753  2.7488
  701MOL0     H92522   4.460   1.863   1.915  0.7970  0.1081  1.1825
  701MOL0     H92523   4.332   1.941   2.009 -2.9765 -1.3045 -0.8328
  701MOL0     H92524   4.275   1.652   1.949  0.0555 -1.3371 -2.4255
  701MOL0     H92525   4.168   1.788   1.956 -1.1476 -1.0365 -1.3764
  701MOL0     H92526   4.217   1.674   1.745  1.3976 -0.6998  0.3605
  701MOL0     H92527   4.377   1.733   1.743 -0.7014 -2.9018 -1.2383
  701MOL0     H92528   4.106   1.848   1.686 -0.0624 -1.0623  1.4978
  701MOL0     H92529   4.213   1.971   1.754  1.3607  1.3666 -1.0286
  701MOL0     H92530   4.326   1.970   1.363 -2.7577  0.9247 -0.4142
  701MOL0     H92531   4.207   1.876   2.178  0.3852  0.5991 -0.3389
  701MOL0     H92532   4.142   1.913   2.419  0.2637 -2.9697  1.3340
  702MOL0     O92533  11.184   2.102   2.327 -0.6558 -0.6473  0.1389
  702MOL0     C92534  11.067   2.137   2.337 -0.9227 -0.8873 -0.8658
  702MOL0     O92535  11.024   2.243   2.407  0.0219  0.3001  0.4405
  702MOL0     C92536  11.103   2.301   2.508 -0.8005 -0.5936  0.2773
  702MOL0     C92537  11.189   2.406   2.490 -0.3016 -0.2672  0.2703
  702MOL0     C92538  11.265   2.457   2.596 -0.1177 -0.3132  0.1563
  702MOL0     C92539  11.242   2.417   2.717 -0.8018 -0.3721 -0.0951
  702MOL0     O92540  11.292   2.481   2.833 -0.0947  0.0427 -0.3063
  702MOL0     C92541  11.283   2.622   2.837 -0.3527  0.1500  0.0390
  702MOL0     C92542  11.379   2.668   2.958  0.5468 -0.6372 -0.8778
  702MOL0     C92543  11.314   2.780   3.043 -0.3409 -0.4130  0.2662
  702MOL0     C92544  11.402   2.812   3.164  0.0080  0.2204 -0.7880
  702MOL0     C92545  11.345   2.911   3.263 -0.4583 -0.5520  0.6779
  702MOL0     C92546  11.239   2.832   3.339 -0.2162  0.1554 -0.7031
  702MOL0     C92547  11.158   2.922   3.430  0.8105  0.0525 -0.1779
  702MOL0     C92548  11.230   2.977   3.554 -0.2470 -0.2189  0.1807
  702MOL0     N92549  11.152   3.038   3.652 -0.3168 -0.8511 -0.1902
  702MOL0     C92550  11.116   2.972   3.774 -0.6924  0.3392  0.0004
  702MOL0     C92551  11.034   3.059   3.839  0.4380 -0.3646 -0.1832
  702MOL0     C92552  10.954   3.060   3.976 -0.0591  0.7174  1.2465
  702MOL0     C92553  11.024   3.148   4.080  0.2925  0.1556  1.0110
  702MOL0     C92554  11.170   3.105   4.104  0.6460 -0.5336  0.4531
  702MOL0     C92555  11.183   2.964   4.157  0.1536  0.3141 -0.1590
  702MOL0     O92556  11.242   2.869   4.077  0.6350 -0.5373 -0.2488
  702MOL0     C92557  11.377   2.854   4.085  0.3370 -0.3675 -0.4903
  702MOL0     C92558  11.468   2.957   4.108 -0.7457 -0.8338 -0.0809
  702MOL0     C92559  11.609   2.929   4.088  0.0556 -0.2573 -0.2528
  702MOL0     C92560  11.655   2.804   4.059 -0.0478 -0.0805 -0.5766
  702MOL0     C92561  11.804   2.773   4.060 -0.8529 -0.2381  0.2893
  702MOL0     O92562  11.893   2.880   4.071  0.0815  0.0598  0.4875
  702MOL0     C92563  12.027   2.849   4.034  0.4130  0.0354 -0.3087
  702MOL0     C92564  12.077   2.915   3.928  0.5941 -0.1146  1.0734
  702MOL0     C92565  12.201   2.886   3.875 -0.3511  0.4760  0.1796
  702MOL0     C92566  12.292   2.798   3.949  0.0758 -0.4219 -0.6159
  702MOL0     O92567  12.421   2.780   3.897 -0.1831 -1.1373 -0.5603
  702MOL0     C92568  12.537   2.807   3.978  0.5412 -0.2246 -0.9143
  702MOL0     C92569  12.578   2.948   3.936  0.0231 -0.7383 -0.3509
  702MOL0     C92570  12.700   2.984   4.032 -0.0396 -0.6546 -1.0507
  702MOL0     C92571  12.795   3.098   3.981  0.9293 -0.5029 -0.0678
  702MOL0     C92572  12.868   3.171   4.097  0.2435  0.0433  0.6309
  702MOL0     C92573  13.001   3.227   4.044 -0.7954  0.4825  0.4192
  702MOL0     C92574  13.110   3.128   4.027 -0.0197 -0.1893  1.2745
  702MOL0     C92575  13.186   3.160   3.888  0.2511  0.5951 -0.1764
  702MOL0    Cl92576  13.069   3.157   3.747 -0.3185  0.1049  0.0263
  702MOL0     C92577  12.249   2.751   4.071  0.1670  0.1261 -0.3995
  702MOL0     C92578  12.119   2.768   4.107 -0.8547 -0.1037 -0.8073
  702MOL0     O92579  11.832   2.655   4.032 -0.5115  0.2971 -0.2740
  702MOL0     C92580  11.561   2.694   4.036  0.5510 -0.3831 -0.6301
  702MOL0     C92581  11.425   2.723   4.043  0.2175 -0.0570  0.0027
  702MOL0     N92582  11.019   3.177   3.760 -0.3184  0.3316  0.1985
  702MOL0     N92583  11.086   3.160   3.641 -0.2524  0.3812  0.0581
  702MOL0     C92584  11.167   2.299   2.745 -0.4924  0.5677 -0.2151
  702MOL0     C92585  11.091   2.239   2.636  0.4348 -0.1023  0.4695
  702MOL0     C92586  10.968   2.084   2.243  0.3502  0.4797 -0.0072
  702MOL0     C92587  11.006   2.001   2.137 -0.0482  0.3969  0.2195
  702MOL0     C92588  10.911   1.943   2.050 -0.3192 -0.7826 -0.4536
  702MOL0     C92589  10.771   1.988   2.050 -0.5103  0.2012 -0.8477
  702MOL0     O92590  10.678   1.924   1.974  0.3477 -0.0666  0.5502
  702MOL0     C92591  10.680   1.937   1.831  0.3167  0.3336  0.9814
  702MOL0     C92592  10.537   1.948   1.779  0.1101  1.0737 -0.8735
  702MOL0     C92593  10.482   2.076   1.837  1.0861 -0.9361 -0.9950
  702MOL0     C92594  10.341   2.128   1.804  1.3381  0.3696  0.0876
  702MOL0     C92595  10.320   2.261   1.876  0.6192 -0.0505 -1.1466
  702MOL0     C92596  10.304   2.364   1.936  0.6038 -1.3029 -0.6023
  702MOL0     C92597  10.740   2.074   2.152  1.1790  0.1444 -0.5626
  702MOL0     C92598  10.831   2.123   2.244  0.1735  0.1597 -0.1655
  702MOL0     H92599  11.196   2.430   2.384  0.5285 -0.0391  0.3698
  702MOL0     H92600  11.354   2.518   2.581  1.4559 -2.4355  0.3283
  702MOL0     H92601  11.177   2.637   2.861 -0.0391 -1.5047  2.9300
  702MOL0     H92602  11.329   2.666   2.748  1.7689  1.0981  1.5292
  702MOL0     H92603  11.472   2.707   2.916  0.5969 -0.5057 -0.6453
  702MOL0     H92604  11.408   2.579   3.015  2.9525 -0.2072 -1.3530
  702MOL0     H92605  11.227   2.733   3.091  1.3299 -1.8411  2.0631
  702MOL0     H92606  11.299   2.871   2.985 -0.5798 -1.9056 -2.1523
  702MOL0     H92607  11.421   2.717   3.214  0.4259  0.2775 -0.8363
  702MOL0     H92608  11.501   2.849   3.134  1.2555  3.5966  5.5857
  702MOL0     H92609  11.313   2.999   3.205  3.5298 -0.5394 -1.8154
  702MOL0     H92610  11.425   2.958   3.321  0.6962 -0.1284 -1.1757
  702MOL0     H92611  11.299   2.754   3.386  1.0483 -0.8444 -3.7041
  702MOL0     H92612  11.168   2.770   3.283  1.6593 -1.6066 -1.2719
  702MOL0     H92613  11.110   3.009   3.385 -4.9848 -2.3847  0.4384
  702MOL0     H92614  11.073   2.864   3.468  1.2724 -0.1930  0.5110
  702MOL0     H92615  11.289   3.059   3.513  1.5324 -1.3946  0.2758
  702MOL0     H92616  11.297   2.898   3.589  1.1296  1.7812  2.3363
  702MOL0     H92617  11.144   2.875   3.813 -3.0365 -0.5230 -0.3061
  702MOL0     H92618  10.951   2.958   4.018 -0.2134  0.4707  0.6440
  702MOL0     H92619  10.856   3.105   3.957 -0.6555 -1.0545 -0.1270
  702MOL0     H92620  10.963   3.146   4.172 -1.0682 -1.5529  0.1229
  702MOL0     H92621  11.024   3.254   4.052  1.0903  0.0271  0.4891
  702MOL0     H92622  11.226   3.132   4.014 -2.3199  2.1306 -0.7657
  702MOL0     H92623  11.201   3.183   4.175  0.0103 -0.7243  0.9472
  702MOL0     H92624  11.086   2.920   4.180  1.0263 -0.7906  1.6518
  702MOL0     H92625  11.230   2.957   4.256 -0.2648  0.7667  0.0768
  702MOL0     H92626  11.448   3.061   4.129  0.0617 -1.1071  2.4658
  702MOL0     H92627  11.670   3.016   4.108  1.4267 -1.2151 -0.0959
  702MOL0     H92628  12.011   2.980   3.872  0.4555 -0.3854  0.9256
  702MOL0     H92629  12.229   2.924   3.778 -0.6146  0.4787  0.1040
  702MOL0     H92630  12.615   2.730   3.972  0.0663 -0.7867 -0.0556
  702MOL0     H92631  12.505   2.806   4.083 -1.9011 -0.8057 -1.5955
  702MOL0     H92632  12.498   3.021   3.952  1.5497  1.3958 -1.9137
  702MOL0     H92633  12.603   2.965   3.831  2.2353  3.2904  0.6239
  702MOL0     H92634  12.771   2.900   4.036  1.0787  0.2703 -0.8843
  702MOL0     H92635  12.646   3.002   4.125 -1.0908 -0.2204 -1.7329
  702MOL0     H92636  12.872   3.062   3.911 -0.2490 -2.9643 -0.1844
  702MOL0     H92637  12.735   3.158   3.912 -2.4100 -0.9664  2.2503
  702MOL0     H92638  12.877   3.098   4.178  2.5586  0.7922  1.1322
  702MOL0     H92639  12.805   3.254   4.128  1.6141  1.6017 -0.5910
  702MOL0     H92640  13.042   3.298   4.117 -2.1477  1.0076  0.7039
  702MOL0     H92641  12.987   3.287   3.954  1.1615  2.9515  1.6362
  702MOL0     H92642  13.190   3.141   4.101  2.1246  4.9934 -1.4371
  702MOL0     H92643  13.066   3.028   4.033  1.0132 -0.7894 -0.5121
  702MOL0     H92644  13.245   3.069   3.874 -1.2841 -0.5904  0.6916
  702MOL0     H92645  13.252   3.247   3.892  1.0512 -0.0308  1.9822
  702MOL0     H92646  12.302   2.679   4.132  0.0633 -3.2712 -3.9071
  702MOL0     H92647  12.069   2.724   4.193 -1.3836 -4.6540 -3.1505
  702MOL0     H92648  11.594   2.592   4.024  0.6387 -0.3082 -1.0324
  702MOL0     H92649  11.347   2.648   4.031  1.3084 -0.8981 -2.4462
  702MOL0     H92650  11.153   2.257   2.844  3.3687 -1.5140 -0.3769
  702MOL0     H92651  11.039   2.144   2.640 -0.8668  0.6257  1.6732
  702MOL0     H92652  11.107   1.978   2.104  0.3258  2.2644 -0.0451
  702MOL0     H92653  10.930   1.888   1.959 -0.3192 -0.9362 -0.3621
  702MOL0     H92654  10.720   1.846   1.786  1.7578  0.7079  1.4528
  702MOL0     H92655  10.726   2.029   1.794 -1.3066  0.7534 -0.1091
  702MOL0     H92656  10.525   1.967   1.671 -0.5716 -0.8878 -1.1860
  702MOL0     H92657  10.481   1.857   1.801  1.3093  0.3509 -0.7226
  702MOL0     H92658  10.548   2.161   1.817 -1.2500  2.1529  2.7915
  702MOL0     H92659  10.479   2.067   1.946  3.1677 -0.4628 -0.8523
  702MOL0     H92660  10.319   2.127   1.697  0.6813  1.9422  0.1874
  702MOL0     H92661  10.264   2.065   1.850 -1.7796  1.6810 -2.8606
  702MOL0     H92662  10.287   2.463   1.972  1.0931 -0.6449 -2.0781
  702MOL0     H92663  10.633   2.090   2.162  0.8131 -2.6365  1.0911
  702MOL0     H92664  10.790   2.194   2.315  2.5490  0.0043  1.4952
  703MOL0     O92665   0.559   4.610   8.760  0.5080 -0.1352 -0.3806
  703MOL0     C92666   0.602   4.497   8.755  1.0043 -0.9678  0.3973
  703MOL0     O92667   0.740   4.463   8.734  1.0817 -0.3491 -0.9840
  703MOL0     C92668   0.842   4.557   8.744 -0.4072  0.0354 -0.2491
  703MOL0     C92669   0.945   4.512   8.825  0.5675  0.3904  0.2392
  703MOL0     C92670   1.050   4.601   8.855  0.4049  0.3876 -0.0162
  703MOL0     C92671   1.057   4.734   8.807 -0.0525  0.0933 -0.2239
  703MOL0     O92672   1.157   4.810   8.861 -0.3873  0.1459 -0.6570
  703MOL0     C92673   1.165   4.947   8.817 -0.6675 -0.1697  0.3620
  703MOL0     C92674   1.297   4.996   8.869 -0.0208 -0.5002  0.9434
  703MOL0     C92675   1.311   5.140   8.830  0.2284  0.1796 -0.2623
  703MOL0     C92676   1.462   5.209   8.852  0.5247  0.1587  0.1842
  703MOL0     C92677   1.447   5.364   8.869  1.1572  0.5752 -0.4677
  703MOL0     C92678   1.582   5.440   8.851  0.0522  0.4095  0.0184
  703MOL0     C92679   1.707   5.381   8.926  0.0330  0.1096  0.7238
  703MOL0     C92680   1.681   5.365   9.076 -0.8237 -0.0011 -0.2358
  703MOL0     N92681   1.722   5.494   9.140 -0.2841 -0.1878  0.4185
  703MOL0     C92682   1.852   5.536   9.163 -0.8971  0.6064  0.2454
  703MOL0     C92683   1.847   5.663   9.193 -0.1081 -0.4136 -1.0163
  703MOL0     C92684   1.958   5.765   9.174 -0.3432  0.5987 -0.1417
  703MOL0     C92685   1.988   5.837   9.306  0.2495 -0.4044 -0.8728
  703MOL0     C92686   2.062   5.755   9.410  0.5337 -0.2278  0.5716
  703MOL0     C92687   2.040   5.829   9.547 -0.4920 -0.4260  0.4795
  703MOL0     O92688   2.126   5.765   9.642  0.6737  0.2222  0.1995
  703MOL0     C92689   2.261   5.777   9.624 -0.3260  0.2437 -1.0056
  703MOL0     C92690   2.330   5.899   9.593 -0.0973  1.2284 -0.3877
  703MOL0     C92691   2.471   5.914   9.607  0.4158  0.1330  1.0032
  703MOL0     C92692   2.551   5.808   9.656  1.1873 -0.1834 -0.2152
  703MOL0     C92693   2.698   5.815   9.673  0.1713  0.3197  0.5572
  703MOL0     O92694   2.750   5.915   9.594 -0.2579  0.3719 -0.3558
  703MOL0     C92695   2.882   5.897   9.564  0.1071  0.0277 -0.6700
  703MOL0     C92696   2.925   5.779   9.497 -0.1344 -0.1145 -0.3529
  703MOL0     C92697   3.055   5.769   9.457 -0.1890  0.0953  0.8338
  703MOL0     C92698   3.146   5.882   9.477 -0.2944 -0.7135 -0.1587
  703MOL0     O92699   3.280   5.889   9.437  0.3915  0.3183 -0.4488
  703MOL0     C92700   3.358   5.765   9.425 -0.4278  0.8412 -0.2106
  703MOL0     C92701   3.489   5.783   9.346 -0.1400 -0.1326  0.2365
  703MOL0     C92702   3.475   5.829   9.197  0.1113  0.3760  0.1279
  703MOL0     C92703   3.586   5.796   9.105  0.6709 -0.0570 -0.9674
  703MOL0     C92704   3.591   5.662   9.046 -1.0906  0.1620  0.2129
  703MOL0     C92705   3.682   5.664   8.920  1.1502  1.4337 -0.3190
  703MOL0     C92706   3.676   5.524   8.853  0.3185 -0.0984 -0.7609
  703MOL0     C92707   3.758   5.513   8.723 -0.0779 -0.0507 -0.4216
  703MOL0    Cl92708   3.923   5.551   8.774 -0.2325 -0.6644  0.0823
  703MOL0     C92709   3.096   5.984   9.561 -0.4765  0.1111 -0.0011
  703MOL0     C92710   2.967   6.004   9.586  0.1509  0.0699 -0.6760
  703MOL0     O92711   2.757   5.725   9.741 -0.6019  0.1071 -0.3878
  703MOL0     C92712   2.483   5.688   9.683  0.5783 -0.2812 -0.4077
  703MOL0     C92713   2.343   5.680   9.681  0.6869 -1.2205 -0.0514
  703MOL0     N92714   1.712   5.694   9.210  0.1650  0.1453 -0.0132
  703MOL0     N92715   1.642   5.587   9.176  0.6739 -0.3718  0.1848
  703MOL0     C92716   0.955   4.773   8.725  0.2684 -0.6545 -0.7336
  703MOL0     C92717   0.846   4.687   8.698  0.2152 -1.6085 -0.3064
  703MOL0     C92718   0.499   4.385   8.749  0.2615  0.9265 -1.0315
  703MOL0     C92719   0.356   4.404   8.766  0.2748  0.1352 -1.2353
  703MOL0     C92720   0.276   4.288   8.771 -0.1294  0.5403  1.2281
  703MOL0     C92721   0.325   4.159   8.754 -0.3027  0.8303  0.8252
  703MOL0     O92722   0.254   4.045   8.786  0.5011  0.6433 -0.5735
  703MOL0     C92723   0.139   4.067   8.879  0.2956  0.6756  0.3616
  703MOL0     C92724   0.083   3.923   8.913 -0.7293 -0.5403 -0.5522
  703MOL0     C92725   0.056   3.822   8.804 -0.2908  0.9701  1.5894
  703MOL0     C92726  -0.063   3.831   8.699  0.7042 -0.2685 -0.4621
  703MOL0     C92727  -0.175   3.777   8.781 -0.1009 -0.3893  0.5904
  703MOL0     C92728  -0.260   3.744   8.851  1.2007  0.8669  1.0590
  703MOL0     C92729   0.464   4.147   8.740 -0.6931 -0.4896  0.0255
  703MOL0     C92730   0.553   4.257   8.738 -0.2720 -0.1692 -0.7853
  703MOL0     H92731   0.946   4.406   8.850  0.8113  0.7235  1.7336
  703MOL0     H92732   1.133   4.563   8.915  0.9202 -0.9657 -1.5152
  703MOL0     H92733   1.083   4.991   8.875 -0.8954 -1.5469  1.1254
  703MOL0     H92734   1.158   4.976   8.712  1.9569 -1.8189 -0.3599
  703MOL0     H92735   1.368   4.942   8.806  0.1481  0.9394 -0.1668
  703MOL0     H92736   1.302   4.979   8.977 -1.0658  0.3388  1.1392
  703MOL0     H92737   1.245   5.189   8.903 -0.3419 -0.9347 -0.0109
  703MOL0     H92738   1.276   5.166   8.730 -0.6019  0.4523  0.0942
  703MOL0     H92739   1.501   5.163   8.942 -0.5021  2.5415  1.9598
  703MOL0     H92740   1.507   5.187   8.754 -1.1929 -0.3258 -0.5367
  703MOL0     H92741   1.413   5.384   8.971 -0.9946 -0.7196 -0.8768
  703MOL0     H92742   1.375   5.405   8.798 -1.8746 -0.8047  1.5591
  703MOL0     H92743   1.575   5.542   8.889  2.4312 -0.3207  2.6937
  703MOL0     H92744   1.605   5.432   8.744  3.2783 -1.2021  0.7133
  703MOL0     H92745   1.718   5.287   8.871 -1.4411  0.4795 -0.2454
  703MOL0     H92746   1.800   5.429   8.893  0.2029 -0.7167 -0.0568
  703MOL0     H92747   1.740   5.289   9.129  1.4354  1.0812 -1.1154
  703MOL0     H92748   1.574   5.348   9.092 -0.6689  0.4889  1.5017
  703MOL0     H92749   1.950   5.493   9.145 -0.0781  1.9095  1.3461
  703MOL0     H92750   1.926   5.833   9.094 -1.5562 -1.0537 -1.1180
  703MOL0     H92751   2.056   5.725   9.144 -0.8242 -1.3609  0.7140
  703MOL0     H92752   1.893   5.865   9.352  1.2367  0.1322  0.9331
  703MOL0     H92753   2.049   5.924   9.280  2.0932 -1.0621  0.9744
  703MOL0     H92754   2.001   5.665   9.399 -2.8440  1.7812  1.4687
  703MOL0     H92755   2.169   5.743   9.390  1.4205  0.6084  4.0844
  703MOL0     H92756   1.936   5.809   9.575  0.0160 -2.3529  1.1448
  703MOL0     H92757   2.057   5.937   9.542 -1.5216 -0.3070 -2.4565
  703MOL0     H92758   2.277   5.980   9.544 -2.3881 -0.6545 -1.2159
  703MOL0     H92759   2.513   6.011   9.584 -0.1447 -0.1618 -1.5208
  703MOL0     H92760   2.858   5.700   9.463 -0.6740  0.2860 -0.2451
  703MOL0     H92761   3.086   5.676   9.409 -0.3045 -1.1157  2.9546
  703MOL0     H92762   3.313   5.676   9.380 -0.2659  0.9448 -0.5780
  703MOL0     H92763   3.384   5.733   9.526  1.5572 -1.6645 -1.3967
  703MOL0     H92764   3.551   5.693   9.351  3.1679  1.9811  0.2816
  703MOL0     H92765   3.544   5.862   9.399 -0.1298  0.6908 -0.9751
  703MOL0     H92766   3.465   5.937   9.209  0.5468  0.4110  0.1821
  703MOL0     H92767   3.378   5.802   9.154 -1.3533  2.1306  2.1567
  703MOL0     H92768   3.578   5.866   9.021 -0.7564  2.0922  0.8318
  703MOL0     H92769   3.676   5.826   9.159  0.4681  0.1382 -0.7336
  703MOL0     H92770   3.492   5.619   9.031 -1.4962  1.3045 -0.4613
  703MOL0     H92771   3.641   5.590   9.112 -0.6339 -0.8906 -1.2213
  703MOL0     H92772   3.787   5.689   8.942  2.1024  0.2922 -3.0950
  703MOL0     H92773   3.646   5.733   8.843  0.7458 -1.6432 -3.1366
  703MOL0     H92774   3.710   5.444   8.920  0.4347  1.0838  0.6570
  703MOL0     H92775   3.571   5.495   8.838 -1.3732  3.3271  2.5126
  703MOL0     H92776   3.729   5.579   8.642  0.4136  1.1159  0.3306
  703MOL0     H92777   3.748   5.408   8.693  1.9724 -1.4399  3.0637
  703MOL0     H92778   3.166   6.064   9.584 -1.2942  0.6961  0.4830
  703MOL0     H92779   2.930   6.086   9.646  0.9095 -1.3615  1.9110
  703MOL0     H92780   2.544   5.604   9.716 -1.1292 -2.1588 -1.7122
  703MOL0     H92781   2.303   5.581   9.701  4.4854 -3.0049 -0.5457
  703MOL0     H92782   0.936   4.873   8.687  0.3974  0.1893  1.2621
  703MOL0     H92783   0.760   4.717   8.640  0.0192  0.2379  0.8601
  703MOL0     H92784   0.306   4.500   8.775 -0.7731 -0.3592 -1.5967
  703MOL0     H92785   0.168   4.303   8.779 -0.6040  0.0226 -2.5750
  703MOL0     H92786   0.061   4.132   8.840 -2.1581 -2.0628  0.3747
  703MOL0     H92787   0.178   4.095   8.978  4.3539 -0.4146 -0.7112
  703MOL0     H92788   0.153   3.877   8.983 -1.7642 -1.4841 -0.0950
  703MOL0     H92789  -0.016   3.929   8.960 -0.7601 -0.2732 -0.6497
  703MOL0     H92790   0.048   3.721   8.846 -3.0958  1.1499  1.6902
  703MOL0     H92791   0.153   3.816   8.755  0.1046 -1.1059  2.5141
  703MOL0     H92792  -0.075   3.937   8.676  1.3786 -0.3602 -1.2890
  703MOL0     H92793  -0.040   3.780   8.605  1.3382  0.9696 -0.9981
  703MOL0     H92794  -0.342   3.704   8.907 -0.1425  2.0188 -0.0010
  703MOL0     H92795   0.505   4.047   8.725 -3.2654 -1.4772 -0.9653
  703MOL0     H92796   0.657   4.228   8.721 -0.7821 -3.2279  0.5705
  704MOL0     O92797   7.912   3.661   1.765 -0.0312  0.3983 -0.2668
  704MOL0     C92798   7.895   3.558   1.829 -0.0904  0.3500 -1.0451
  704MOL0     O92799   7.964   3.439   1.796 -0.0815  0.1176 -0.1398
  704MOL0     C92800   8.049   3.438   1.689  0.6401 -0.9772  0.8072
  704MOL0     C92801   8.189   3.447   1.708  0.2246  0.5780  0.0785
  704MOL0     C92802   8.275   3.463   1.596 -0.0732  0.5417  0.2285
  704MOL0     C92803   8.234   3.464   1.463 -0.1329  0.0678 -0.0942
  704MOL0     O92804   8.318   3.465   1.357  0.3511  0.0595  0.2187
  704MOL0     C92805   8.455   3.472   1.393 -0.3380  0.6199  0.2266
  704MOL0     C92806   8.540   3.533   1.278  0.0059  0.9434 -1.1890
  704MOL0     C92807   8.538   3.438   1.151 -0.9167 -0.2535 -0.3964
  704MOL0     C92808   8.415   3.446   1.063 -0.2597 -0.7440  0.9094
  704MOL0     C92809   8.397   3.326   0.964 -0.3215 -1.2852 -1.2310
  704MOL0     C92810   8.473   3.360   0.839  0.3705 -0.1387  0.3708
  704MOL0     C92811   8.466   3.243   0.735  0.9054  0.0070  0.4202
  704MOL0     C92812   8.324   3.222   0.669  0.1673  1.2086 -0.2620
  704MOL0     N92813   8.280   3.329   0.574 -0.1932  0.5827  0.3610
  704MOL0     C92814   8.148   3.353   0.534 -0.4424 -0.4175 -0.6293
  704MOL0     C92815   8.163   3.453   0.442  1.1427  0.2219  0.0088
  704MOL0     C92816   8.049   3.513   0.362  0.7623  0.2186 -0.4034
  704MOL0     C92817   8.069   3.665   0.325  0.8152 -0.5458  0.4684
  704MOL0     C92818   7.986   3.695   0.196  0.0096 -0.2330 -0.0007
  704MOL0     C92819   7.979   3.839   0.151 -0.1366 -1.1381 -0.1533
  704MOL0     O92820   7.962   3.855   0.006 -0.3998  0.3718  0.0375
  704MOL0     C92821   7.964   3.983  -0.045 -0.4941  1.0849 -0.3153
  704MOL0     C92822   7.947   4.098   0.029  0.3525 -0.5760  0.2152
  704MOL0     C92823   7.940   4.225  -0.036  0.1818 -0.0739  0.3096
  704MOL0     C92824   7.942   4.228  -0.179  0.9114 -0.0447 -0.8966
  704MOL0     C92825   7.957   4.367  -0.250 -0.4400 -0.6296  0.4187
  704MOL0     O92826   7.929   4.377  -0.388  0.2106 -0.0635 -0.1414
  704MOL0     C92827   7.954   4.481  -0.467 -0.4371 -0.4189  0.3688
  704MOL0     C92828   7.862   4.528  -0.563 -0.7004  0.1398  0.9036
  704MOL0     C92829   7.894   4.619  -0.653  0.4685 -0.1758 -0.0211
  704MOL0     C92830   8.021   4.680  -0.658 -0.4985 -0.1238 -0.2738
  704MOL0     O92831   8.047   4.781  -0.746 -0.0759 -0.1296 -0.1515
  704MOL0     C92832   8.007   4.763  -0.883  0.5517  0.6098 -0.0261
  704MOL0     C92833   8.006   4.907  -0.948 -0.2893  0.7065 -0.4584
  704MOL0     C92834   7.900   4.920  -1.063 -0.2978 -0.2973 -0.4937
  704MOL0     C92835   7.858   5.064  -1.098 -0.2149  0.4404 -0.8573
  704MOL0     C92836   7.968   5.151  -1.173  0.5420  0.7286 -0.0936
  704MOL0     C92837   7.919   5.300  -1.206  0.3311  1.0979 -0.3509
  704MOL0     C92838   8.030   5.396  -1.259 -0.0729  0.1730 -0.0842
  704MOL0     C92839   8.111   5.338  -1.380  0.5301  0.3129  0.3280
  704MOL0    Cl92840   7.988   5.330  -1.515 -0.3784  0.3418  0.3281
  704MOL0     C92841   8.115   4.634  -0.568 -0.2475 -0.1689 -0.0809
  704MOL0     C92842   8.084   4.544  -0.464  0.6979 -0.6924  0.1361
  704MOL0     O92843   8.005   4.456  -0.177 -0.4415  0.8277 -0.0569
  704MOL0     C92844   7.971   4.110  -0.252 -0.1284 -0.9725  0.5592
  704MOL0     C92845   7.982   3.989  -0.181  0.6031 -0.6795  0.2048
  704MOL0     N92846   8.297   3.480   0.428  0.2646 -0.4619  0.0030
  704MOL0     N92847   8.362   3.404   0.504  0.1649  0.0622 -0.0911
  704MOL0     C92848   8.093   3.444   1.450  0.5394 -0.4306 -0.2381
  704MOL0     C92849   8.000   3.430   1.559 -0.0742  0.1010  0.3673
  704MOL0     C92850   7.798   3.555   1.947  0.8954  0.6038  0.5195
  704MOL0     C92851   7.738   3.669   2.006 -0.3395 -0.5699  0.5364
  704MOL0     C92852   7.651   3.653   2.113  0.2570 -0.6002 -0.0226
  704MOL0     C92853   7.621   3.524   2.160 -0.7057  0.2117 -0.9723
  704MOL0     O92854   7.557   3.503   2.276 -0.0792  0.1297 -0.5450
  704MOL0     C92855   7.463   3.600   2.314  1.2337 -1.4444 -0.5297
  704MOL0     C92856   7.343   3.549   2.395 -0.0262  0.1683  0.0633
  704MOL0     C92857   7.216   3.638   2.373 -0.9368 -0.1283 -0.3331
  704MOL0     C92858   7.106   3.563   2.455  1.1695 -0.5300  0.4485
  704MOL0     C92859   7.047   3.448   2.385 -0.6207  0.1798 -0.4036
  704MOL0     C92860   7.002   3.349   2.339  0.3819  0.0715 -0.7137
  704MOL0     C92861   7.671   3.411   2.097  0.1101 -0.3786 -0.4166
  704MOL0     C92862   7.758   3.426   1.998 -0.5077 -0.6885 -0.5201
  704MOL0     H92863   8.236   3.457   1.805  3.9874  0.8770 -1.6113
  704MOL0     H92864   8.378   3.453   1.629 -0.7189  1.0404  2.5890
  704MOL0     H92865   8.489   3.369   1.409 -1.2294  0.1726 -0.6164
  704MOL0     H92866   8.479   3.537   1.478  1.2745  4.0796 -2.5905
  704MOL0     H92867   8.637   3.531   1.329  0.0449 -0.6294 -1.2652
  704MOL0     H92868   8.504   3.634   1.256 -0.5378  0.8937 -0.5627
  704MOL0     H92869   8.558   3.334   1.180  1.0623  0.4874  1.1360
  704MOL0     H92870   8.624   3.468   1.092 -1.0274  0.2719 -0.3015
  704MOL0     H92871   8.327   3.454   1.126 -2.8207 -2.8207 -2.0812
  704MOL0     H92872   8.421   3.541   1.009  2.5510 -1.2515  0.1519
  704MOL0     H92873   8.293   3.333   0.930 -0.8915  1.0141  0.6883
  704MOL0     H92874   8.429   3.234   1.013  4.6231  0.6101 -0.3255
  704MOL0     H92875   8.580   3.378   0.854  0.6127  0.4767 -1.8132
  704MOL0     H92876   8.431   3.448   0.791 -0.3688  0.1042  1.4200
  704MOL0     H92877   8.543   3.266   0.660 -1.3486 -3.5442 -3.4434
  704MOL0     H92878   8.505   3.148   0.774 -1.6817 -1.0041  0.7423
  704MOL0     H92879   8.250   3.213   0.749 -1.3581 -1.1341 -1.8119
  704MOL0     H92880   8.320   3.125   0.618 -1.8655  0.3604  1.3257
  704MOL0     H92881   8.064   3.298   0.575  0.8042 -0.7182  1.6694
  704MOL0     H92882   7.954   3.509   0.417  0.9135 -1.9023 -0.2150
  704MOL0     H92883   8.038   3.448   0.275  1.1202 -1.3981  0.7170
  704MOL0     H92884   8.176   3.673   0.304  1.1064 -0.4901  1.8465
  704MOL0     H92885   8.044   3.721   0.416 -1.8732 -2.3849  0.9852
  704MOL0     H92886   8.035   3.638   0.117  1.0510  0.9678 -0.2506
  704MOL0     H92887   7.884   3.656   0.201  0.4643 -1.5060 -0.1656
  704MOL0     H92888   8.076   3.880   0.180  0.6725 -2.9113 -0.1957
  704MOL0     H92889   7.894   3.875   0.209 -0.7512 -2.2596 -0.3099
  704MOL0     H92890   7.931   4.089   0.136 -0.1276 -3.2729 -0.0247
  704MOL0     H92891   7.923   4.317   0.020  0.5058 -0.8080  1.6493
  704MOL0     H92892   7.770   4.473  -0.576 -0.6733  0.4163 -0.5813
  704MOL0     H92893   7.817   4.663  -0.716 -0.4126  0.0052  1.1502
  704MOL0     H92894   7.901   4.736  -0.882  1.3975 -3.3871 -0.4027
  704MOL0     H92895   8.058   4.682  -0.935  0.1345  1.1364 -1.3026
  704MOL0     H92896   8.107   4.922  -0.987 -1.4366  3.9205 -2.6654
  704MOL0     H92897   7.987   4.979  -0.868  0.9184  0.5669 -0.0334
  704MOL0     H92898   7.805   4.876  -1.031  0.1751 -5.1262 -4.5386
  704MOL0     H92899   7.935   4.870  -1.154  2.6478  0.1928  0.2695
  704MOL0     H92900   7.758   5.069  -1.141 -1.8468  3.1725  2.7417
  704MOL0     H92901   7.847   5.118  -1.004 -0.3976  1.6063 -1.5266
  704MOL0     H92902   7.997   5.103  -1.267  0.6765  0.5699  0.0274
  704MOL0     H92903   8.059   5.155  -1.113 -1.3918  5.0545  3.0690
  704MOL0     H92904   7.875   5.349  -1.119 -1.0023  1.0162 -0.9591
  704MOL0     H92905   7.844   5.304  -1.286 -2.2477 -2.0550  1.6777
  704MOL0     H92906   7.979   5.485  -1.295 -1.9124 -0.0546  1.7963
  704MOL0     H92907   8.104   5.413  -1.179 -0.2302 -0.7873  0.2732
  704MOL0     H92908   8.142   5.234  -1.365  1.1213 -0.0591 -2.7910
  704MOL0     H92909   8.200   5.395  -1.408  2.3922 -3.1533 -1.4851
  704MOL0     H92910   8.218   4.668  -0.566 -1.0035  2.3349  0.4253
  704MOL0     H92911   8.163   4.506  -0.400 -0.6958 -2.4869  0.8736
  704MOL0     H92912   7.976   4.128  -0.359  1.6319  0.1589  0.7819
  704MOL0     H92913   7.994   3.899  -0.240  1.6064  0.5794 -1.5940
  704MOL0     H92914   8.068   3.428   1.345  1.9997  1.6363 -0.9565
  704MOL0     H92915   7.893   3.422   1.543  0.0954 -0.0390 -0.8102
  704MOL0     H92916   7.764   3.767   1.967  1.3767 -0.7142  1.2430
  704MOL0     H92917   7.598   3.740   2.152  2.6710  0.0218  2.0756
  704MOL0     H92918   7.421   3.651   2.227  1.9996  2.7024  1.3016
  704MOL0     H92919   7.521   3.673   2.371  2.0373 -2.3603 -0.1346
  704MOL0     H92920   7.316   3.452   2.353 -3.1388  1.0347 -0.2334
  704MOL0     H92921   7.367   3.541   2.502 -1.4089 -0.8826  0.3212
  704MOL0     H92922   7.187   3.641   2.267  4.7109 -0.6673 -2.2207
  704MOL0     H92923   7.225   3.743   2.402  1.0625 -1.0388  2.8518
  704MOL0     H92924   7.135   3.526   2.554  0.6185 -1.5243  0.2619
  704MOL0     H92925   7.029   3.640   2.463  2.7413  1.0033  1.4948
  704MOL0     H92926   6.948   3.269   2.293  0.4932 -0.5686  0.2516
  704MOL0     H92927   7.655   3.308   2.125  0.8005 -0.2235  0.5823
  704MOL0     H92928   7.810   3.336   1.969  0.6235  0.0303 -0.7596
  705MOL0     O92929   0.015   2.424   8.531 -0.0712 -0.0721  0.1827
  705MOL0     C92930   0.122   2.451   8.589 -0.0025 -0.1221 -0.2052
  705MOL0     O92931   0.136   2.534   8.702 -0.5151  0.2016 -0.1070
  705MOL0     C92932   0.035   2.616   8.750 -0.6487 -0.2941  0.6245
  705MOL0     C92933  -0.102   2.601   8.729 -0.5708 -1.0469 -0.1046
  705MOL0     C92934  -0.191   2.685   8.806  0.7529  0.5533 -0.2245
  705MOL0     C92935  -0.145   2.787   8.894 -0.5759 -0.2577 -0.1232
  705MOL0     O92936  -0.233   2.875   8.947  0.6781 -1.0162 -0.2014
  705MOL0     C92937  -0.283   2.831   9.074  0.5340  0.2858  0.3162
  705MOL0     C92938  -0.179   2.820   9.193 -0.5341 -0.3251 -0.7953
  705MOL0     C92939  -0.138   2.962   9.248  0.4786 -0.2495  0.2974
  705MOL0     C92940  -0.246   3.015   9.340 -0.6141 -0.2224  0.9558
  705MOL0     C92941  -0.219   3.165   9.368 -0.1266  0.2350 -0.3692
  705MOL0     C92942  -0.123   3.196   9.484 -0.2709  0.4276  0.4444
  705MOL0     C92943  -0.103   3.350   9.508  0.3311 -0.0795  0.4473
  705MOL0     C92944  -0.005   3.395   9.626 -0.5846 -0.3293 -0.4729
  705MOL0     N92945  -0.035   3.534   9.654 -0.0722 -0.6017  0.0423
  705MOL0     C92946  -0.045   3.593   9.774  0.6036 -0.4380  1.1777
  705MOL0     C92947  -0.059   3.725   9.753 -0.3028  0.4682 -0.1040
  705MOL0     C92948  -0.036   3.821   9.872  0.1460  0.9103 -0.1334
  705MOL0     C92949   0.114   3.821   9.917  0.7628 -0.6200 -0.6029
  705MOL0     C92950   0.141   3.916  10.037 -0.7526  0.7060  0.4097
  705MOL0     C92951   0.082   4.059  10.034  0.0867  0.2405  0.4974
  705MOL0     O92952  -0.047   4.067  10.099 -0.5553  0.0092 -0.5954
  705MOL0     C92953  -0.049   4.111  10.229  0.4919 -0.6748  0.8691
  705MOL0     C92954  -0.174   4.093  10.297 -1.2342  0.1138  1.1009
  705MOL0     C92955  -0.196   4.131  10.422  0.5412 -0.6809  0.0769
  705MOL0     C92956  -0.097   4.196  10.495  0.3864  0.0929 -0.1301
  705MOL0     C92957  -0.133   4.252  10.632 -0.6217  0.2910 -0.2683
  705MOL0     O92958  -0.034   4.325  10.681  0.2364  0.4802 -0.4108
  705MOL0     C92959  -0.063   4.411  10.787  0.4949  1.5730 -1.0164
  705MOL0     C92960  -0.174   4.491  10.790  0.8925 -0.1213  0.6763
  705MOL0     C92961  -0.204   4.581  10.891 -0.2191 -1.8676 -0.3320
  705MOL0     C92962  -0.124   4.578  11.009  0.5507  0.1718 -0.1439
  705MOL0     O92963  -0.149   4.656  11.119  0.1385  0.2632 -0.6672
  705MOL0     C92964  -0.288   4.645  11.165  0.1814  0.0270 -0.4886
  705MOL0     C92965  -0.292   4.517  11.254 -0.4072  0.1646 -1.2960
  705MOL0     C92966  -0.390   4.544  11.371 -0.0698  0.1091  0.4297
  705MOL0     C92967  -0.415   4.420  11.454  0.2055 -0.4008 -0.4330
  705MOL0     C92968  -0.546   4.445  11.528  1.6313  0.6479  0.0377
  705MOL0     C92969  -0.560   4.337  11.634  1.1698  0.2856 -1.1672
  705MOL0     C92970  -0.667   4.376  11.742 -0.4605 -0.0400  0.2717
  705MOL0     C92971  -0.794   4.437  11.691  0.9179 -0.1469  0.3893
  705MOL0    Cl92972  -0.895   4.330  11.581 -0.0468  0.0487  0.0951
  705MOL0     C92973  -0.015   4.484  11.017  0.6451 -0.2890 -0.2392
  705MOL0     C92974   0.012   4.400  10.908  0.2299  0.2516 -0.4664
  705MOL0     O92975  -0.248   4.245  10.679  0.0246 -0.1275 -0.1008
  705MOL0     C92976   0.022   4.218  10.439  0.1478 -0.3543 -0.6356
  705MOL0     C92977   0.048   4.166  10.308 -0.1827  0.1419 -0.9977
  705MOL0     N92978  -0.059   3.754   9.613 -0.4407  0.5143  0.3421
  705MOL0     N92979  -0.043   3.633   9.558  0.8649  0.4513  0.2082
  705MOL0     C92980  -0.011   2.794   8.909 -0.4740 -0.0829  0.2247
  705MOL0     C92981   0.079   2.707   8.841  0.3118 -0.0046 -0.4250
  705MOL0     C92982   0.250   2.392   8.533  0.2644 -0.6637  0.2293
  705MOL0     C92983   0.369   2.437   8.576 -0.2658  0.3521 -0.0480
  705MOL0     C92984   0.490   2.384   8.509 -0.2230  0.0433 -0.2598
  705MOL0     C92985   0.476   2.271   8.427  1.2128 -0.3975 -0.3300
  705MOL0     O92986   0.588   2.206   8.381  1.2555  0.1636 -0.0867
  705MOL0     C92987   0.579   2.083   8.305 -0.2989  0.4704  0.7550
  705MOL0     C92988   0.717   2.021   8.293  0.1264  0.0497 -0.2356
  705MOL0     C92989   0.765   1.930   8.404  0.1117  0.1129  0.4284
  705MOL0     C92990   0.907   1.880   8.400  0.1050  0.1375 -0.0531
  705MOL0     C92991   1.000   1.992   8.388  0.0753 -0.0279 -0.2137
  705MOL0     C92992   1.070   2.082   8.360  0.1790 -0.7471  0.1045
  705MOL0     C92993   0.347   2.226   8.387 -0.7963 -0.4612  0.7080
  705MOL0     C92994   0.234   2.297   8.433 -0.2760  0.6277 -0.4112
  705MOL0     H92995  -0.140   2.527   8.659 -0.4093 -1.9785  0.7683
  705MOL0     H92996  -0.296   2.677   8.778  0.3947 -2.4944  1.5487
  705MOL0     H92997  -0.320   2.730   9.051  1.8099  0.2930 -2.1399
  705MOL0     H92998  -0.366   2.890   9.112 -0.5873 -1.9172  1.5023
  705MOL0     H92999  -0.100   2.749   9.169 -0.5240 -0.6648  0.1847
  705MOL0     H93000  -0.223   2.775   9.282 -0.4967 -2.0389 -1.6100
  705MOL0     H93001  -0.110   3.025   9.164 -1.3514  0.5826  0.2692
  705MOL0     H93002  -0.051   2.947   9.314  0.9204 -0.6944 -0.3729
  705MOL0     H93003  -0.348   2.993   9.306 -0.8249  0.7795  0.9153
  705MOL0     H93004  -0.227   2.951   9.427  0.2631 -1.2125  0.0706
  705MOL0     H93005  -0.318   3.206   9.391 -0.1454 -2.0295  5.0360
  705MOL0     H93006  -0.185   3.206   9.273 -1.6610  1.4770 -0.4348
  705MOL0     H93007  -0.027   3.149   9.461 -0.7490  0.4408 -1.8652
  705MOL0     H93008  -0.169   3.154   9.574  0.1859  0.6312  0.7739
  705MOL0     H93009  -0.060   3.380   9.413  1.6845 -5.2549 -0.9300
  705MOL0     H93010  -0.206   3.378   9.530 -0.2939 -2.2074  0.5128
  705MOL0     H93011   0.101   3.374   9.608 -0.2818 -0.2688  1.0831
  705MOL0     H93012  -0.033   3.343   9.718 -1.6022 -0.2856 -0.7415
  705MOL0     H93013  -0.038   3.536   9.866  0.1096  0.6867  1.9322
  705MOL0     H93014  -0.107   3.807   9.955 -1.4011  2.5206 -1.1079
  705MOL0     H93015  -0.073   3.920   9.844 -2.4141  0.1085  0.0722
  705MOL0     H93016   0.156   3.860   9.824  2.3165  0.3888  0.4729
  705MOL0     H93017   0.145   3.720   9.945  1.8033  0.2811  1.6953
  705MOL0     H93018   0.105   3.869  10.129 -1.2026  0.7892  0.2829
  705MOL0     H93019   0.249   3.928  10.034 -0.8883  1.9248  0.1040
  705MOL0     H93020   0.078   4.068   9.925 -0.2957 -0.4300  0.4512
  705MOL0     H93021   0.149   4.138  10.069  1.1265 -1.1694  1.8019
  705MOL0     H93022  -0.250   4.056  10.229 -0.1957 -0.1516  0.0559
  705MOL0     H93023  -0.295   4.122  10.465  0.2127 -2.6396 -0.9729
  705MOL0     H93024  -0.232   4.487  10.699  2.3833 -3.1961 -0.2660
  705MOL0     H93025  -0.284   4.655  10.885  2.0719  0.6773 -1.4983
  705MOL0     H93026  -0.372   4.635  11.095 -1.7699  0.4938  1.6463
  705MOL0     H93027  -0.311   4.736  11.221 -1.1363 -0.6836  0.1896
  705MOL0     H93028  -0.193   4.498  11.298 -1.3040  0.2785  0.8674
  705MOL0     H93029  -0.320   4.424  11.203 -3.5104 -1.2337  2.4537
  705MOL0     H93030  -0.484   4.572  11.323 -0.7330 -3.7522 -0.9121
  705MOL0     H93031  -0.350   4.622  11.436  2.4335  0.6528 -1.6119
  705MOL0     H93032  -0.429   4.337  11.384  1.0160  0.8263 -2.1016
  705MOL0     H93033  -0.325   4.416  11.517  1.0986  1.8418 -1.4477
  705MOL0     H93034  -0.637   4.443  11.468 -1.6563  2.5173  4.3506
  705MOL0     H93035  -0.553   4.546  11.571 -2.2916  0.3729  0.4156
  705MOL0     H93036  -0.465   4.332  11.689 -0.0831 -1.6474  1.0137
  705MOL0     H93037  -0.573   4.237  11.592  3.0460 -0.5789  0.1408
  705MOL0     H93038  -0.694   4.281  11.788  1.3933 -0.8111 -0.1381
  705MOL0     H93039  -0.622   4.449  11.809 -2.1465  2.0414 -0.7152
  705MOL0     H93040  -0.782   4.540  11.656  2.3575  0.4127  2.3232
  705MOL0     H93041  -0.867   4.443  11.773  1.0662  5.8553  0.5728
  705MOL0     H93042   0.027   4.487  11.117  0.5186 -1.4977 -0.1319
  705MOL0     H93043   0.078   4.315  10.907 -3.0495 -2.4968 -0.3088
  705MOL0     H93044   0.107   4.269  10.484 -2.6244  0.3087  4.5989
  705MOL0     H93045   0.145   4.188  10.266 -0.5062  1.0339 -1.3254
  705MOL0     H93046   0.034   2.866   8.977 -0.5104 -0.0976  0.2649
  705MOL0     H93047   0.186   2.696   8.855  0.5307 -1.7657 -2.9191
  705MOL0     H93048   0.390   2.515   8.649 -0.7742 -0.7626  1.3141
  705MOL0     H93049   0.584   2.421   8.546 -1.2599  0.6731  1.9248
  705MOL0     H93050   0.537   2.101   8.206  1.3501 -1.5298 -0.3854
  705MOL0     H93051   0.505   2.014   8.348 -1.6132  0.2782 -1.6860
  705MOL0     H93052   0.711   1.946   8.214 -1.7427 -2.3045  1.9495
  705MOL0     H93053   0.792   2.099   8.283  2.1311 -1.0776  3.9092
  705MOL0     H93054   0.690   1.851   8.416 -0.3563  0.2805 -1.1823
  705MOL0     H93055   0.759   1.997   8.490  3.7264 -1.8879  2.5000
  705MOL0     H93056   0.933   1.817   8.486  1.1880 -0.2291 -0.6282
  705MOL0     H93057   0.916   1.816   8.312 -0.7890 -2.8240  1.8309
  705MOL0     H93058   1.122   2.168   8.322  0.6573 -0.0352  2.2013
  705MOL0     H93059   0.336   2.143   8.317  0.6173  0.4100 -0.6123
  705MOL0     H93060   0.135   2.268   8.399 -1.1097  1.2954  1.3044
  706MOL0     O93061   0.718   7.681   3.152  0.5728 -0.6591 -0.4653
  706MOL0     C93062   0.640   7.641   3.069 -0.0699 -0.3810 -0.2111
  706MOL0     O93063   0.597   7.707   2.959  0.1127  0.5194  0.4657
  706MOL0     C93064   0.626   7.840   2.949 -1.5439  0.6912 -0.4356
  706MOL0     C93065   0.614   7.929   3.052  0.8572  0.0706 -0.6361
  706MOL0     C93066   0.628   8.067   3.039 -0.4066 -0.4325  0.4530
  706MOL0     C93067   0.658   8.118   2.911 -0.0846  0.6704  0.3169
  706MOL0     O93068   0.680   8.254   2.881  0.3890  0.0572  0.6313
  706MOL0     C93069   0.584   8.355   2.904  0.5440  0.1750  0.2111
  706MOL0     C93070   0.461   8.364   2.811  0.7344  0.2936  0.0271
  706MOL0     C93071   0.482   8.356   2.664 -0.2373 -0.1385  0.5167
  706MOL0     C93072   0.356   8.378   2.586 -1.8282 -0.0070  0.0355
  706MOL0     C93073   0.397   8.391   2.432  0.1361  0.2232 -0.7907
  706MOL0     C93074   0.291   8.418   2.325 -0.3834 -0.0730 -0.0207
  706MOL0     C93075   0.165   8.345   2.327  1.2374 -0.0059 -0.2110
  706MOL0     C93076   0.167   8.194   2.336  0.1041 -0.1242  0.1913
  706MOL0     N93077   0.033   8.128   2.341  0.0628 -0.3203 -0.8290
  706MOL0     C93078  -0.025   8.099   2.220  0.3766 -0.4634  0.4574
  706MOL0     C93079  -0.144   8.051   2.259  0.8019  0.3980 -0.0806
  706MOL0     C93080  -0.245   7.984   2.168  0.2638 -0.9647 -0.1783
  706MOL0     C93081  -0.217   7.836   2.161 -0.2691  0.6654 -1.0644
  706MOL0     C93082  -0.251   7.773   2.293 -0.1486 -0.8732 -0.5592
  706MOL0     C93083  -0.262   7.617   2.270  0.2261  0.1511 -0.5100
  706MOL0     O93084  -0.389   7.592   2.204  0.5027 -0.2565 -0.2120
  706MOL0     C93085  -0.469   7.491   2.251  0.5501  0.1870  0.6157
  706MOL0     C93086  -0.413   7.361   2.267 -0.2381 -0.6623  0.3224
  706MOL0     C93087  -0.482   7.252   2.319  0.0467  0.5629  0.1505
  706MOL0     C93088  -0.617   7.265   2.354 -0.1945  0.4109  0.6415
  706MOL0     C93089  -0.690   7.152   2.413 -1.1485 -0.6453 -0.2376
  706MOL0     O93090  -0.794   7.182   2.486  0.6362 -0.6145  0.5017
  706MOL0     C93091  -0.841   7.092   2.571  1.0247 -0.9122 -0.4202
  706MOL0     C93092  -0.789   6.974   2.625 -0.1659  0.0556  1.0683
  706MOL0     C93093  -0.865   6.893   2.716 -0.1783 -0.1106  0.2753
  706MOL0     C93094  -0.992   6.933   2.752  0.4695 -0.1824 -0.5452
  706MOL0     O93095  -1.041   6.855   2.848 -0.0736  0.4151 -0.4254
  706MOL0     C93096  -1.105   6.937   2.950 -0.4056 -0.4930 -0.3790
  706MOL0     C93097  -1.177   6.834   3.037  0.8748  0.1893  0.1275
  706MOL0     C93098  -1.259   6.718   2.968 -0.1996  1.4008 -0.4104
  706MOL0     C93099  -1.303   6.723   2.816 -0.3649  0.8011  0.3843
  706MOL0     C93100  -1.411   6.619   2.783  0.2548  0.6662  0.0302
  706MOL0     C93101  -1.437   6.612   2.626 -0.5205  0.6219  0.7886
  706MOL0     C93102  -1.532   6.495   2.592  1.5006 -0.1046 -0.0674
  706MOL0     C93103  -1.554   6.497   2.440  0.4481 -0.6125  0.2859
  706MOL0    Cl93104  -1.652   6.355   2.382 -0.1972  0.0445 -0.3000
  706MOL0     C93105  -1.057   7.036   2.682 -0.1049 -0.0961 -0.6596
  706MOL0     C93106  -0.977   7.121   2.600 -0.4803 -0.0830  0.3823
  706MOL0     O93107  -0.645   7.043   2.383  0.0956 -0.4235  0.5677
  706MOL0     C93108  -0.670   7.388   2.351  0.5422 -0.8059 -0.0545
  706MOL0     C93109  -0.596   7.508   2.305 -0.2379  1.6371  0.2010
  706MOL0     N93110  -0.157   8.062   2.393 -0.2649  0.1677 -0.4013
  706MOL0     N93111  -0.059   8.119   2.441 -0.8552 -0.1406  0.0688
  706MOL0     C93112   0.674   8.028   2.806  0.0329  0.5204 -0.9159
  706MOL0     C93113   0.661   7.888   2.825  0.2844  0.0811  0.0891
  706MOL0     C93114   0.596   7.496   3.065 -0.2983 -0.3141  0.6641
  706MOL0     C93115   0.519   7.443   2.949 -0.1373 -0.6298 -0.3768
  706MOL0     C93116   0.458   7.318   2.955 -0.5940 -0.1691 -0.1257
  706MOL0     C93117   0.489   7.233   3.071 -1.5384  0.0356 -0.0456
  706MOL0     O93118   0.458   7.101   3.063 -0.5593 -0.2632  0.2091
  706MOL0     C93119   0.490   7.018   3.176  0.3330  0.8203  0.9556
  706MOL0     C93120   0.422   6.889   3.143 -0.0217  0.3100  1.1117
  706MOL0     C93121   0.271   6.898   3.169  0.2632 -0.3597 -0.4845
  706MOL0     C93122   0.185   6.772   3.145  0.2080  1.1027  0.0122
  706MOL0     C93123   0.044   6.802   3.187  0.1321 -0.3355 -0.9929
  706MOL0     C93124  -0.061   6.839   3.237  0.7379 -0.5755 -0.0333
  706MOL0     C93125   0.566   7.286   3.178  0.1872  1.2950  0.0937
  706MOL0     C93126   0.626   7.413   3.174  0.1198  1.1187 -0.4115
  706MOL0     H93127   0.577   7.895   3.149  0.1131  0.0769 -0.9070
  706MOL0     H93128   0.601   8.139   3.116 -2.0045  0.5596 -0.9447
  706MOL0     H93129   0.634   8.450   2.924  0.5538  0.0854  0.6043
  706MOL0     H93130   0.534   8.337   2.999 -1.1413  0.2664 -0.6264
  706MOL0     H93131   0.406   8.457   2.826  0.8378  0.6419 -1.5332
  706MOL0     H93132   0.386   8.288   2.837 -1.8918  3.0015  0.9343
  706MOL0     H93133   0.522   8.256   2.650 -2.3642 -1.6079  3.7055
  706MOL0     H93134   0.554   8.437   2.645 -1.6282  1.4047  1.4628
  706MOL0     H93135   0.283   8.297   2.597  0.4090 -2.0444  0.7140
  706MOL0     H93136   0.295   8.466   2.607 -3.6717 -1.2242 -0.0161
  706MOL0     H93137   0.452   8.301   2.403 -0.1500  0.1107 -0.9923
  706MOL0     H93138   0.472   8.470   2.423  0.0614  0.6389  1.6792
  706MOL0     H93139   0.330   8.406   2.224  1.6470 -2.3545  0.9482
  706MOL0     H93140   0.266   8.524   2.336  2.0295  0.7835 -1.8624
  706MOL0     H93141   0.108   8.390   2.409  0.8649  0.5748 -0.7796
  706MOL0     H93142   0.109   8.365   2.235  4.0258  0.9495 -1.8167
  706MOL0     H93143   0.209   8.160   2.431  2.3364  0.0433 -0.6586
  706MOL0     H93144   0.224   8.160   2.249  1.5479  1.0695  0.6307
  706MOL0     H93145   0.003   8.109   2.116  1.3244 -0.0358  0.7451
  706MOL0     H93146  -0.266   8.024   2.068 -2.7935  1.1459  1.1438
  706MOL0     H93147  -0.337   8.008   2.222 -0.3237 -0.1275 -1.4989
  706MOL0     H93148  -0.109   7.819   2.156 -0.3496 -0.5903  0.5700
  706MOL0     H93149  -0.276   7.795   2.078  1.4256 -0.5419 -1.7453
  706MOL0     H93150  -0.172   7.782   2.368 -0.8425 -1.6280  0.2826
  706MOL0     H93151  -0.350   7.806   2.327  0.5194  1.1906 -0.4977
  706MOL0     H93152  -0.266   7.577   2.371 -1.1984  0.8973 -0.2468
  706MOL0     H93153  -0.185   7.571   2.207 -1.1637 -1.7503 -0.9278
  706MOL0     H93154  -0.311   7.344   2.236 -0.7544  0.3570 -2.1883
  706MOL0     H93155  -0.427   7.161   2.335  1.2950  1.7057  2.9190
  706MOL0     H93156  -0.686   6.950   2.600 -0.7059  1.4269 -3.3813
  706MOL0     H93157  -0.820   6.811   2.770 -1.0885 -1.8437 -1.4689
  706MOL0     H93158  -1.179   7.010   2.918  1.0067 -0.4297 -3.9319
  706MOL0     H93159  -1.023   6.986   3.004 -0.0645 -3.3653  2.0338
  706MOL0     H93160  -1.247   6.882   3.106  0.0720 -3.6577  2.2519
  706MOL0     H93161  -1.100   6.783   3.095  2.7570  3.6011  0.9253
  706MOL0     H93162  -1.343   6.703   3.037  1.3578 -1.4887  1.0130
  706MOL0     H93163  -1.200   6.627   2.970  1.3695  2.2500 -2.9081
  706MOL0     H93164  -1.340   6.824   2.796  0.6485  0.7599 -2.0095
  706MOL0     H93165  -1.215   6.708   2.753 -0.8660  1.8507 -0.6099
  706MOL0     H93166  -1.503   6.654   2.829  0.2461 -0.0251  0.5418
  706MOL0     H93167  -1.365   6.528   2.823  0.9547  1.1536  0.3726
  706MOL0     H93168  -1.346   6.598   2.568 -1.8170 -1.4080 -0.8926
  706MOL0     H93169  -1.482   6.711   2.613 -0.2602  0.7452  0.8089
  706MOL0     H93170  -1.483   6.405   2.630 -1.0650 -1.9508 -0.7784
  706MOL0     H93171  -1.630   6.507   2.640  0.7502  0.8278 -1.7514
  706MOL0     H93172  -1.459   6.491   2.387  1.7390 -1.2190  2.5440
  706MOL0     H93173  -1.613   6.585   2.411  0.6448 -0.6547 -0.2541
  706MOL0     H93174  -1.159   7.071   2.691  0.8447  3.0407 -0.8356
  706MOL0     H93175  -1.022   7.212   2.562  0.6547 -0.1934 -1.3184
  706MOL0     H93176  -0.772   7.417   2.373 -0.4091 -2.6666 -1.7903
  706MOL0     H93177  -0.651   7.601   2.303  0.3564  1.9823 -0.8395
  706MOL0     H93178   0.697   8.063   2.706 -0.3920  1.4514 -0.6972
  706MOL0     H93179   0.691   7.833   2.737  0.4419  1.1439 -0.5423
  706MOL0     H93180   0.489   7.504   2.864 -4.6732 -0.5177  1.0111
  706MOL0     H93181   0.382   7.284   2.884 -1.2447  1.8044 -0.4218
  706MOL0     H93182   0.440   7.054   3.266  0.2348  1.2881  0.7179
  706MOL0     H93183   0.598   7.011   3.189  0.5198  1.3825 -0.1605
  706MOL0     H93184   0.441   6.853   3.041 -1.3268  0.1044  0.9204
  706MOL0     H93185   0.471   6.814   3.205 -1.6749 -1.4974  0.3371
  706MOL0     H93186   0.229   6.972   3.101  0.2037 -0.6815 -0.8020
  706MOL0     H93187   0.241   6.948   3.262 -2.3589  1.9543 -2.4240
  706MOL0     H93188   0.164   6.749   3.040 -0.9871  2.3145 -0.0440
  706MOL0     H93189   0.222   6.677   3.185 -0.1633  1.2458  0.7081
  706MOL0     H93190  -0.157   6.877   3.265  2.4590  3.1614  1.4583
  706MOL0     H93191   0.599   7.224   3.262  0.3971 -1.4145 -1.8358
  706MOL0     H93192   0.691   7.454   3.251  3.2021 -1.0306 -1.6728
  707MOL0     O93193   3.259  10.072   5.157  0.6059  0.2180  0.6908
  707MOL0     C93194   3.317  10.136   5.247 -0.4087  0.1488  0.2477
  707MOL0     O93195   3.312  10.274   5.257 -0.2198  0.4147  0.8911
  707MOL0     C93196   3.283  10.336   5.136 -0.2775  0.2140  0.8142
  707MOL0     C93197   3.374  10.322   5.029  0.6398 -0.5002 -0.3377
  707MOL0     C93198   3.334  10.389   4.907  0.4034  0.0255 -0.3695
  707MOL0     C93199   3.210  10.458   4.904  0.0247 -0.0686  0.3749
  707MOL0     O93200   3.200  10.549   4.798  0.2273 -0.0093  0.3388
  707MOL0     C93201   3.066  10.552   4.739 -0.4699 -0.2749  0.2122
  707MOL0     C93202   3.087  10.644   4.620  0.1370  0.5235 -0.1858
  707MOL0     C93203   2.959  10.696   4.557 -0.2018  0.6188  0.2496
  707MOL0     C93204   2.865  10.773   4.659 -0.5680  0.2141 -1.3271
  707MOL0     C93205   2.771  10.861   4.585 -0.6783  0.5960  0.1778
  707MOL0     C93206   2.664  10.797   4.485  1.2315 -0.7363 -0.7670
  707MOL0     C93207   2.595  10.910   4.409 -1.1483 -0.0313  0.6330
  707MOL0     C93208   2.465  10.857   4.331 -0.0844  0.3151 -0.3302
  707MOL0     N93209   2.335  10.839   4.401  0.7923 -0.6188  0.1281
  707MOL0     C93210   2.252  10.946   4.431  0.4585  0.1973 -0.4743
  707MOL0     C93211   2.127  10.895   4.458 -0.3752  0.4008  0.6656
  707MOL0     C93212   1.996  10.962   4.470  0.8252 -0.2811 -1.2345
  707MOL0     C93213   1.984  11.098   4.550 -0.2358  0.2708 -0.1927
  707MOL0     C93214   2.012  11.093   4.708  0.8260  0.2320 -0.9002
  707MOL0     C93215   2.160  11.079   4.750 -0.0955  1.2068 -0.3932
  707MOL0     O93216   2.257  11.173   4.683  0.4607  0.5782  0.1020
  707MOL0     C93217   2.275  11.294   4.730 -0.0409  0.2359  0.0321
  707MOL0     C93218   2.379  11.365   4.658  0.6267  0.8177 -0.8866
  707MOL0     C93219   2.425  11.486   4.703 -0.6058 -0.8267  0.4291
  707MOL0     C93220   2.362  11.556   4.804  0.3310  0.6418  0.0356
  707MOL0     C93221   2.424  11.679   4.863 -0.0867 -0.3589  0.6785
  707MOL0     O93222   2.392  11.716   4.986 -0.1505 -0.4287 -0.3085
  707MOL0     C93223   2.458  11.826   5.038 -0.1845 -0.5758  0.1067
  707MOL0     C93224   2.440  11.952   4.985 -0.6911  0.5860 -0.6538
  707MOL0     C93225   2.505  12.058   5.047  0.2286 -0.0884  0.6552
  707MOL0     C93226   2.577  12.050   5.170 -0.6995  0.1712  0.0856
  707MOL0     O93227   2.631  12.151   5.250 -0.3383 -0.0164 -0.1063
  707MOL0     C93228   2.540  12.250   5.264  0.2183 -0.1784 -0.6333
  707MOL0     C93229   2.591  12.358   5.343 -0.1449  0.2959 -0.1356
  707MOL0     C93230   2.636  12.302   5.474 -0.8375 -0.2582  0.5617
  707MOL0     C93231   2.668  12.414   5.583  0.2910  1.2549  0.0207
  707MOL0     C93232   2.753  12.366   5.700  0.1378 -0.4199  0.0539
  707MOL0     C93233   2.699  12.248   5.789 -0.3326  0.0553  0.8355
  707MOL0     C93234   2.775  12.216   5.912 -0.1110  0.1676  0.0142
  707MOL0     C93235   2.706  12.114   5.990 -1.1567  0.9327  0.1489
  707MOL0    Cl93236   2.570  12.193   6.068  0.2202  0.4887 -0.0947
  707MOL0     C93237   2.590  11.916   5.216 -0.5404 -0.4319 -0.0715
  707MOL0     C93238   2.518  11.812   5.160 -0.8616  0.6524 -0.0278
  707MOL0     O93239   2.518  11.719   4.795 -0.1911  0.0130  0.3512
  707MOL0     C93240   2.265  11.496   4.876 -0.3862  0.5055  0.3311
  707MOL0     C93241   2.215  11.371   4.831  0.2353 -0.4540 -0.6769
  707MOL0     N93242   2.141  10.755   4.463  0.7104 -0.4750 -0.4976
  707MOL0     N93243   2.265  10.725   4.428  0.0495 -0.2746 -0.3791
  707MOL0     C93244   3.117  10.453   5.012 -0.5095  0.3286  0.1734
  707MOL0     C93245   3.163  10.397   5.134 -0.3508  0.7901 -0.1806
  707MOL0     C93246   3.388  10.059   5.351  0.0707 -0.7870 -0.8719
  707MOL0     C93247   3.451  10.123   5.458 -0.6785 -0.1023  0.4588
  707MOL0     C93248   3.537  10.056   5.544 -0.8133 -0.5493 -0.7256
  707MOL0     C93249   3.565   9.923   5.534  0.1910 -0.3962 -0.0206
  707MOL0     O93250   3.668   9.862   5.604  0.0941  0.4230 -0.1535
  707MOL0     C93251   3.794   9.927   5.627  0.2599  0.9954  0.1020
  707MOL0     C93252   3.909   9.830   5.595  0.5471  0.7130  1.1645
  707MOL0     C93253   3.920   9.693   5.670  0.5738  0.2377 -0.9899
  707MOL0     C93254   4.062   9.650   5.668  0.9041  0.8745 -0.3196
  707MOL0     C93255   4.079   9.509   5.713 -0.1994 -0.7330 -0.2448
  707MOL0     C93256   4.106   9.399   5.757  0.9846 -0.5301 -0.2232
  707MOL0     C93257   3.491   9.849   5.436  0.6253 -1.0508 -1.0547
  707MOL0     C93258   3.409   9.917   5.344  0.4765  0.2342 -0.0767
  707MOL0     H93259   3.468  10.269   5.036  1.4084  0.5026 -2.3905
  707MOL0     H93260   3.407  10.393   4.827  0.3549 -4.4017 -0.8687
  707MOL0     H93261   2.993  10.588   4.813 -0.6337  0.0619 -0.1107
  707MOL0     H93262   3.045  10.448   4.710 -0.0411 -0.5904  1.0068
  707MOL0     H93263   3.148  10.596   4.543 -0.0407  3.1360 -2.0816
  707MOL0     H93264   3.139  10.731   4.661  0.9950  0.4987 -1.1814
  707MOL0     H93265   2.908  10.616   4.504  0.9827 -0.2369  0.3667
  707MOL0     H93266   2.992  10.771   4.484 -0.8017  0.1510 -0.5107
  707MOL0     H93267   2.821  10.709   4.736  2.6756  0.4529  0.9474
  707MOL0     H93268   2.927  10.835   4.724 -0.3371  0.6214 -1.9230
  707MOL0     H93269   2.840  10.916   4.520 -0.0250  0.2969  0.6051
  707MOL0     H93270   2.727  10.933   4.654  1.8984  0.1287  2.5020
  707MOL0     H93271   2.585  10.744   4.539 -0.0930  0.4343 -1.4893
  707MOL0     H93272   2.710  10.723   4.418  3.1705  0.6578 -1.0488
  707MOL0     H93273   2.574  11.003   4.463 -5.3570  1.9828 -3.7571
  707MOL0     H93274   2.672  10.941   4.338  0.6602  0.0648  2.5442
  707MOL0     H93275   2.482  10.759   4.285 -0.2339  0.4556 -0.6902
  707MOL0     H93276   2.454  10.930   4.250  0.4811 -0.4280 -1.0937
  707MOL0     H93277   2.272  11.052   4.426  0.9731  0.0788 -1.1138
  707MOL0     H93278   1.922  10.896   4.516 -1.2420  3.0626  0.6968
  707MOL0     H93279   1.967  10.983   4.366 -0.9641 -1.5549 -1.0363
  707MOL0     H93280   1.882  11.135   4.533 -0.6509 -0.7176  0.0507
  707MOL0     H93281   2.060  11.166   4.511 -0.3857 -0.5858 -2.0472
  707MOL0     H93282   1.959  11.178   4.752 -2.6609 -1.9571 -0.4736
  707MOL0     H93283   1.954  11.011   4.752 -2.2452  2.6625 -0.0586
  707MOL0     H93284   2.184  10.977   4.719 -1.9293  0.5628  0.1869
  707MOL0     H93285   2.173  11.090   4.858  4.2635  0.2865 -0.6322
  707MOL0     H93286   2.435  11.313   4.581  0.5844  0.4086 -0.6476
  707MOL0     H93287   2.513  11.515   4.646  0.2285 -0.0525  2.0259
  707MOL0     H93288   2.380  11.954   4.894 -1.0217 -0.5384 -0.4773
  707MOL0     H93289   2.486  12.153   4.998 -0.1730  0.8134  2.4512
  707MOL0     H93290   2.451  12.211   5.315 -1.6520  2.7627 -1.4391
  707MOL0     H93291   2.516  12.286   5.164  1.2444 -0.9059 -1.1510
  707MOL0     H93292   2.510  12.431   5.351  0.5080  1.4353 -2.7638
  707MOL0     H93293   2.669  12.406   5.284  0.7274 -2.7827 -1.7199
  707MOL0     H93294   2.720  12.232   5.467  0.3028  0.8108  2.4348
  707MOL0     H93295   2.561  12.236   5.517 -0.7317 -1.9878 -1.7274
  707MOL0     H93296   2.721  12.501   5.543  1.5345 -0.9806 -3.7825
  707MOL0     H93297   2.571  12.451   5.616 -0.2510  0.4699 -0.6495
  707MOL0     H93298   2.783  12.451   5.761  1.6209 -1.5860  1.0292
  707MOL0     H93299   2.851  12.329   5.668  0.5233  1.1961 -0.7112
  707MOL0     H93300   2.696  12.166   5.717 -0.7160  1.8434 -1.3032
  707MOL0     H93301   2.591  12.252   5.807 -1.0407 -2.5551 -1.9731
  707MOL0     H93302   2.874  12.180   5.882  0.3855  1.9883 -0.6841
  707MOL0     H93303   2.793  12.311   5.965 -0.3901  3.1635 -4.6918
  707MOL0     H93304   2.777  12.079   6.065  0.3926 -0.6399 -1.9044
  707MOL0     H93305   2.673  12.031   5.926 -0.4378 -0.2803  1.3070
  707MOL0     H93306   2.650  11.903   5.305 -1.4434  0.1956  0.6573
  707MOL0     H93307   2.520  11.716   5.209  1.2244  0.3288 -0.6554
  707MOL0     H93308   2.210  11.543   4.957 -0.6433  1.2052 -0.2423
  707MOL0     H93309   2.128  11.334   4.885  0.0994  1.8361  0.7986
  707MOL0     H93310   3.014  10.476   4.990 -0.6761 -0.5243  0.0302
  707MOL0     H93311   3.103  10.380   5.223 -1.3544 -1.9866 -1.2682
  707MOL0     H93312   3.441  10.230   5.474  1.3459 -0.0828  2.0919
  707MOL0     H93313   3.580  10.118   5.623 -2.9870 -1.2222  1.0972
  707MOL0     H93314   3.787   9.960   5.731  0.8827 -0.5632  0.6722
  707MOL0     H93315   3.806  10.018   5.568 -3.0327  0.8669 -0.9696
  707MOL0     H93316   3.883   9.803   5.492 -0.2321 -0.5964  1.6648
  707MOL0     H93317   3.998   9.891   5.612  0.0332  2.0514 -0.7401
  707MOL0     H93318   3.860   9.620   5.615  0.4062 -0.0305 -0.4530
  707MOL0     H93319   3.883   9.704   5.772  0.9129  3.0406 -1.0808
  707MOL0     H93320   4.084   9.648   5.561  1.0087 -1.5086 -0.3165
  707MOL0     H93321   4.131   9.705   5.731  1.2517 -1.3811  1.3911
  707MOL0     H93322   4.123   9.301   5.799 -0.8740 -0.6571  0.3376
  707MOL0     H93323   3.515   9.744   5.427  0.1854 -1.6181  2.8383
  707MOL0     H93324   3.374   9.866   5.256  1.4136  0.6144 -0.6848
  708MOL0     O93325  10.033   8.250  11.011  0.7416 -0.2770 -1.1504
  708MOL0     C93326  10.061   8.369  11.003  0.1505 -1.3928 -0.5310
  708MOL0     O93327   9.980   8.472  10.956 -0.0557  0.4495 -0.1464
  708MOL0     C93328   9.868   8.427  10.892  0.0782  0.0049 -0.2142
  708MOL0     C93329   9.744   8.471  10.923 -0.9336 -0.4917 -0.4217
  708MOL0     C93330   9.637   8.418  10.854  0.6433 -0.1816  0.2123
  708MOL0     C93331   9.647   8.325  10.745 -1.3184 -0.7383  1.5286
  708MOL0     O93332   9.545   8.291  10.655 -0.7378  0.1698  0.2129
  708MOL0     C93333   9.415   8.271  10.719 -0.6208 -0.7530  0.5274
  708MOL0     C93334   9.416   8.150  10.810  0.4616  0.7988 -0.8022
  708MOL0     C93335   9.455   8.017  10.735  0.6943 -0.1136 -0.4636
  708MOL0     C93336   9.436   7.883  10.819  0.0954  0.5777 -0.1980
  708MOL0     C93337   9.508   7.882  10.959  0.3588 -0.3405  0.3105
  708MOL0     C93338   9.461   7.766  11.051 -0.2598 -0.4213  0.2951
  708MOL0     C93339   9.540   7.642  11.043 -0.0872 -0.1937 -0.6062
  708MOL0     C93340   9.502   7.550  11.159 -0.3817  0.7110 -0.1510
  708MOL0     N93341   9.595   7.437  11.164 -0.5209  0.2476 -0.0558
  708MOL0     C93342   9.721   7.432  11.219  0.6105  0.6552  0.0464
  708MOL0     C93343   9.745   7.300  11.255 -0.2252 -0.6463  0.0475
  708MOL0     C93344   9.873   7.258  11.325 -0.2536 -0.4242 -0.0596
  708MOL0     C93345   9.836   7.192  11.459  1.3450 -0.5552 -0.5123
  708MOL0     C93346   9.948   7.104  11.512  0.1855  0.5342  0.0640
  708MOL0     C93347   9.938   7.096  11.658 -0.2942 -0.8769 -0.0816
  708MOL0     O93348   9.796   7.075  11.697  0.3076 -0.6855  0.3388
  708MOL0     C93349   9.785   6.989  11.806 -0.3307  0.2502  0.3930
  708MOL0     C93350   9.684   6.897  11.802 -0.1803  0.0045 -0.0511
  708MOL0     C93351   9.662   6.816  11.914  0.7593  0.0623 -0.1776
  708MOL0     C93352   9.747   6.822  12.030  0.1493  0.5269  0.0938
  708MOL0     C93353   9.712   6.743  12.151 -0.4197  0.1108  0.2233
  708MOL0     O93354   9.604   6.671  12.140  0.0249 -0.4261 -0.4464
  708MOL0     C93355   9.563   6.605  12.255 -0.0858  0.4842  1.3788
  708MOL0     C93356   9.620   6.482  12.286 -0.3506  0.2315 -0.1730
  708MOL0     C93357   9.580   6.416  12.394 -0.8539  0.3814  0.6044
  708MOL0     C93358   9.475   6.459  12.480  0.4462 -0.1781 -1.1985
  708MOL0     O93359   9.417   6.362  12.565  0.1928  0.7843  0.4228
  708MOL0     C93360   9.305   6.410  12.641 -0.4275 -0.2522  0.1447
  708MOL0     C93361   9.237   6.292  12.709  0.5727 -0.6801  1.0091
  708MOL0     C93362   9.318   6.252  12.839 -0.3267 -1.0155 -0.7082
  708MOL0     C93363   9.275   6.121  12.891 -0.2170  0.0713 -0.4631
  708MOL0     C93364   9.388   6.035  12.950  1.2865 -0.3604  0.2782
  708MOL0     C93365   9.350   5.971  13.090 -0.5118  0.2739  0.0255
  708MOL0     C93366   9.218   5.890  13.099 -0.1960  0.1110  0.4664
  708MOL0     C93367   9.243   5.739  13.058  0.5295 -0.7274 -0.3751
  708MOL0    Cl93368   9.335   5.710  12.911 -0.2778  0.3100 -0.4366
  708MOL0     C93369   9.412   6.582  12.448 -0.1629 -1.0198  0.6702
  708MOL0     C93370   9.460   6.653  12.338 -0.3825 -0.6984  0.2079
  708MOL0     O93371   9.781   6.751  12.252 -0.9283 -0.0767  0.0134
  708MOL0     C93372   9.855   6.912  12.024 -0.5735  0.4230  0.4365
  708MOL0     C93373   9.871   6.988  11.910  0.2090  0.1437 -0.1437
  708MOL0     N93374   9.634   7.232  11.216  0.2543  1.3598 -0.1000
  708MOL0     N93375   9.549   7.312  11.166  0.2422 -0.2452 -0.1998
  708MOL0     C93376   9.781   8.289  10.711 -0.2930  0.6161  0.8118
  708MOL0     C93377   9.887   8.336  10.789  0.9219  1.0242  0.4172
  708MOL0     C93378  10.180   8.418  11.075  0.0067  0.2472  0.2221
  708MOL0     C93379  10.191   8.542  11.135 -0.1825 -0.3274  0.6891
  708MOL0     C93380  10.308   8.582  11.205  1.3379  0.3856  1.1477
  708MOL0     C93381  10.422   8.505  11.199 -1.0542  0.6564  0.0250
  708MOL0     O93382  10.554   8.535  11.242  0.0288  0.0329 -0.2358
  708MOL0     C93383  10.572   8.647  11.326  0.5155 -0.6628 -0.6720
  708MOL0     C93384  10.707   8.662  11.393 -1.9728 -0.3763 -0.2385
  708MOL0     C93385  10.739   8.807  11.445  0.1474 -0.7654 -0.1569
  708MOL0     C93386  10.826   8.813  11.565  0.4372 -0.7699  0.3599
  708MOL0     C93387  10.961   8.802  11.539 -0.7668  0.5702  0.2289
  708MOL0     C93388  11.080   8.810  11.510  0.0301  0.6354 -1.1560
  708MOL0     C93389  10.415   8.378  11.143  0.1871 -0.3729  0.1035
  708MOL0     C93390  10.293   8.333  11.088  0.0589 -0.5380 -0.8380
  708MOL0     H93391   9.713   8.535  11.006 -2.2509  0.0220 -1.2676
  708MOL0     H93392   9.539   8.448  10.888  0.3945 -0.0089 -0.6286
  708MOL0     H93393   9.342   8.239  10.644  1.4242  0.4754 -2.1527
  708MOL0     H93394   9.381   8.360  10.773  1.1236 -1.7632  3.5502
  708MOL0     H93395   9.319   8.143  10.861  0.7060  0.6533 -0.3506
  708MOL0     H93396   9.483   8.161  10.896 -2.4252  1.4647  1.5401
  708MOL0     H93397   9.561   8.019  10.707 -0.0055 -2.8311 -4.0110
  708MOL0     H93398   9.397   8.019  10.642  1.5258 -0.6987 -1.0054
  708MOL0     H93399   9.332   7.849  10.829  0.5046 -1.0808 -1.2918
  708MOL0     H93400   9.479   7.811  10.750 -0.1827  0.5618 -0.3584
  708MOL0     H93401   9.491   7.973  11.017  1.7726  0.4610 -0.4829
  708MOL0     H93402   9.616   7.875  10.943  0.2010  1.5737 -2.2747
  708MOL0     H93403   9.353   7.745  11.050 -0.5061  0.7539  0.6805
  708MOL0     H93404   9.477   7.800  11.153 -2.0063  0.7201  0.2345
  708MOL0     H93405   9.516   7.580  10.956 -2.0441  1.7922 -1.6105
  708MOL0     H93406   9.645   7.670  11.028 -0.8461  2.3188 -1.9675
  708MOL0     H93407   9.396   7.521  11.155  0.0316 -0.6812 -2.6287
  708MOL0     H93408   9.510   7.597  11.258  1.1344 -2.0798  1.1631
  708MOL0     H93409   9.789   7.516  11.229  0.3170  0.9288 -0.2513
  708MOL0     H93410   9.941   7.340  11.348 -0.9455  0.1064  0.1257
  708MOL0     H93411   9.924   7.182  11.265 -0.4742  1.1154 -2.3011
  708MOL0     H93412   9.738   7.143  11.451  1.5349 -0.9884 -0.2092
  708MOL0     H93413   9.816   7.271  11.532 -0.6728 -2.4301  1.0878
  708MOL0     H93414   9.946   7.000  11.476  0.7698  0.9439 -1.2015
  708MOL0     H93415  10.049   7.133  11.481  1.0657 -1.4941  0.8654
  708MOL0     H93416   9.983   7.186  11.702 -3.6662  0.3470  1.1343
  708MOL0     H93417  10.006   7.012  11.674  0.8332 -0.1359 -0.7357
  708MOL0     H93418   9.607   6.907  11.726  2.9103  2.7529 -3.1536
  708MOL0     H93419   9.583   6.742  11.909  0.4378  0.3951 -0.0576
  708MOL0     H93420   9.698   6.430  12.232  1.6346 -0.9585  3.4417
  708MOL0     H93421   9.638   6.325  12.403  0.0999  0.8846 -0.2627
  708MOL0     H93422   9.232   6.464  12.581 -0.8751 -0.3964  0.5540
  708MOL0     H93423   9.338   6.489  12.710 -0.7384  0.9267 -1.0161
  708MOL0     H93424   9.236   6.198  12.654  0.2807  0.2047 -0.5552
  708MOL0     H93425   9.136   6.327  12.729  1.8027  2.5431  2.3232
  708MOL0     H93426   9.309   6.325  12.920 -0.2953 -1.0519 -0.6718
  708MOL0     H93427   9.421   6.240  12.804  0.1436 -1.9427  0.8575
  708MOL0     H93428   9.196   6.148  12.962  0.9607  0.1212  0.8645
  708MOL0     H93429   9.220   6.055  12.823  2.3252  0.0658 -2.6815
  708MOL0     H93430   9.471   6.098  12.983  1.8514  0.4370 -2.4481
  708MOL0     H93431   9.435   5.962  12.885 -2.3617  1.3652 -4.9385
  708MOL0     H93432   9.348   6.048  13.167 -1.4459  2.3128 -1.9142
  708MOL0     H93433   9.431   5.900  13.111  1.8734  1.9404 -2.7568
  708MOL0     H93434   9.190   5.905  13.203  0.6259  1.4871  0.5054
  708MOL0     H93435   9.131   5.928  13.043 -2.2556 -2.3451  1.7643
  708MOL0     H93436   9.145   5.692  13.045 -0.4542  1.2014 -0.2714
  708MOL0     H93437   9.294   5.678  13.133  0.6997 -0.9995 -0.7081
  708MOL0     H93438   9.337   6.624  12.515  2.3253  2.0172  1.7683
  708MOL0     H93439   9.416   6.745  12.302  0.6576 -0.8122 -1.4496
  708MOL0     H93440   9.928   6.913  12.105  0.4554 -1.9627 -0.3730
  708MOL0     H93441   9.939   7.072  11.904 -1.8419  1.9465  0.6376
  708MOL0     H93442   9.799   8.212  10.637  0.4562 -1.9830  3.5214
  708MOL0     H93443   9.980   8.290  10.759 -0.7188 -1.3443 -1.4237
  708MOL0     H93444  10.110   8.615  11.136  2.3107  2.7059 -0.7464
  708MOL0     H93445  10.307   8.677  11.257  0.8002  0.9105  0.2151
  708MOL0     H93446  10.498   8.659  11.406  2.2714  1.1304  0.7836
  708MOL0     H93447  10.556   8.736  11.265  0.0169  0.7796  1.4402
  708MOL0     H93448  10.717   8.589  11.474  0.4488 -2.1806 -1.9934
  708MOL0     H93449  10.777   8.641  11.311 -0.9185 -2.0110  1.0156
  708MOL0     H93450  10.643   8.855  11.464  0.1556 -1.1800  1.0807
  708MOL0     H93451  10.784   8.865  11.365 -2.2214  1.9026  0.3026
  708MOL0     H93452  10.807   8.902  11.627 -0.3766  0.6202 -1.7809
  708MOL0     H93453  10.795   8.737  11.637  1.8705  1.4513  3.5895
  708MOL0     H93454  11.182   8.817  11.478  1.4310  0.6880  2.8167
  708MOL0     H93455  10.503   8.315  11.147  0.5020  0.0324 -0.3016
  708MOL0     H93456  10.283   8.227  11.064  0.0493 -0.3029 -1.9595
  709MOL0     O93457  10.914   7.991  10.326 -0.3407  0.4109 -0.1956
  709MOL0     C93458  10.870   8.081  10.259 -0.2554  0.4029 -0.2540
  709MOL0     O93459  10.762   8.157  10.298  0.5986 -0.1019  0.1545
  709MOL0     C93460  10.698   8.150  10.411 -0.3293 -0.1231  0.1321
  709MOL0     C93461  10.764   8.175  10.534 -0.2865 -0.0191  0.2157
  709MOL0     C93462  10.716   8.130  10.658  0.0596 -0.0895 -0.4555
  709MOL0     C93463  10.591   8.080  10.659 -0.3199 -0.3082 -0.0078
  709MOL0     O93464  10.525   8.069  10.785  0.4147  0.3685 -0.9325
  709MOL0     C93465  10.480   7.933  10.805 -0.1294 -0.5883  0.5045
  709MOL0     C93466  10.448   7.874  10.938 -0.5155 -0.0260  1.3327
  709MOL0     C93467  10.396   7.982  11.037  0.0852  1.1514 -0.6925
  709MOL0     C93468  10.384   7.922  11.176  0.3830  0.7031  0.6032
  709MOL0     C93469  10.284   8.005  11.255  0.3338  0.0517 -0.1432
  709MOL0     C93470  10.135   7.972  11.238 -0.3692 -0.2306 -0.0134
  709MOL0     C93471  10.047   8.062  11.329 -0.3182 -1.0281 -0.2535
  709MOL0     C93472   9.897   8.053  11.310  0.0741  0.8172 -0.0483
  709MOL0     N93473   9.851   7.919  11.354 -0.6204  0.5224  0.2426
  709MOL0     C93474   9.860   7.865  11.481  0.7315 -0.4215 -0.0316
  709MOL0     C93475   9.804   7.742  11.472 -0.1064 -0.0430 -0.0178
  709MOL0     C93476   9.790   7.650  11.588 -0.0511 -0.5054  1.0446
  709MOL0     C93477   9.918   7.574  11.607  0.0815  0.3270  0.4063
  709MOL0     C93478   9.989   7.620  11.726 -0.1617 -0.3944 -0.4390
  709MOL0     C93479  10.129   7.570  11.740 -0.0024 -0.0244 -0.1817
  709MOL0     O93480  10.128   7.433  11.763  0.3313 -0.3740 -0.4588
  709MOL0     C93481  10.136   7.403  11.900  1.2764  0.7070 -0.6050
  709MOL0     C93482  10.246   7.441  11.988 -0.2964  0.4187  0.9458
  709MOL0     C93483  10.218   7.425  12.123 -0.5221 -1.6243 -0.2011
  709MOL0     C93484  10.103   7.370  12.172  0.6066  0.0023  0.4738
  709MOL0     C93485  10.079   7.357  12.317 -0.3210 -0.0285  0.9572
  709MOL0     O93486   9.960   7.327  12.360  0.3231 -0.3770 -0.0538
  709MOL0     C93487   9.941   7.318  12.496  0.0985 -0.3368  0.5998
  709MOL0     C93488   9.895   7.193  12.532 -0.4086  0.2984  0.4700
  709MOL0     C93489   9.845   7.173  12.658  0.7813  0.4993 -0.3136
  709MOL0     C93490   9.846   7.271  12.755  0.6395  0.5937  0.0521
  709MOL0     O93491   9.806   7.226  12.877 -0.3029 -0.9051 -0.1359
  709MOL0     C93492   9.800   7.329  12.976 -0.3103 -0.3337  0.8551
  709MOL0     C93493   9.738   7.274  13.103  0.1685 -0.4563 -0.0259
  709MOL0     C93494   9.664   7.381  13.180  0.1619 -0.0586 -0.7418
  709MOL0     C93495   9.590   7.319  13.295  0.5245  0.0996  0.1909
  709MOL0     C93496   9.490   7.414  13.362 -0.4699 -0.1110 -0.2719
  709MOL0     C93497   9.561   7.528  13.432 -0.4773  0.4260 -1.0904
  709MOL0     C93498   9.469   7.632  13.496 -0.7169  0.1107  0.1711
  709MOL0     C93499   9.533   7.754  13.563 -0.2947 -0.0722  0.2207
  709MOL0    Cl93500   9.411   7.884  13.584  0.0468 -0.3042 -0.6523
  709MOL0     C93501   9.895   7.398  12.718 -1.0826  0.1776  0.0339
  709MOL0     C93502   9.947   7.421  12.589  0.6735 -0.2732  0.6031
  709MOL0     O93503  10.181   7.371  12.384  0.2457 -0.2585 -0.2991
  709MOL0     C93504  10.004   7.334  12.088  0.2644 -0.8980  1.1511
  709MOL0     C93505  10.016   7.351  11.951 -0.6403  0.4617  1.3766
  709MOL0     N93506   9.776   7.719  11.340  0.3699  0.5872  0.8287
  709MOL0     N93507   9.798   7.832  11.268  0.5218  0.5273 -0.2458
  709MOL0     C93508  10.519   8.064  10.543  0.8566 -0.1682 -0.9647
  709MOL0     C93509  10.568   8.097  10.422  0.4794 -0.5437 -0.3865
  709MOL0     C93510  10.941   8.110  10.134 -0.2362  0.8949 -0.3701
  709MOL0     C93511  11.059   8.041  10.088 -0.5571 -0.7807  0.3995
  709MOL0     C93512  11.115   8.071   9.965 -0.6299 -0.1658  0.9097
  709MOL0     C93513  11.058   8.168   9.878  0.4556 -0.2630 -0.0438
  709MOL0     O93514  11.131   8.202   9.766  0.0315 -0.9901 -0.4393
  709MOL0     C93515  11.046   8.199   9.650  0.3718  0.8999 -0.6953
  709MOL0     C93516  11.137   8.158   9.533 -0.0660 -0.0175 -0.8191
  709MOL0     C93517  11.170   8.013   9.546 -0.1931 -0.2001 -0.1858
  709MOL0     C93518  11.239   7.960   9.418 -0.3378 -0.2039  0.0188
  709MOL0     C93519  11.162   7.973   9.288 -0.0106  0.3620 -0.1120
  709MOL0     C93520  11.099   7.964   9.186  0.4337 -0.5168 -0.1305
  709MOL0     C93521  10.954   8.248   9.920 -0.3909  0.4560  0.3459
  709MOL0     C93522  10.893   8.209  10.046  0.3813 -0.3995  1.1958
  709MOL0     H93523  10.857   8.229  10.541 -1.3212  1.9897 -0.7290
  709MOL0     H93524  10.768   8.142  10.753  0.8175 -1.4457 -0.6727
  709MOL0     H93525  10.541   7.863  10.747  1.6534  1.5807 -0.3854
  709MOL0     H93526  10.385   7.940  10.751  1.0279  0.2428 -1.5276
  709MOL0     H93527  10.532   7.823  10.985 -2.1784 -3.5604  0.7480
  709MOL0     H93528  10.370   7.800  10.919 -1.0443  0.9680 -0.6913
  709MOL0     H93529  10.295   8.012  11.009 -1.4757 -2.2583  0.6484
  709MOL0     H93530  10.458   8.070  11.052  1.6612 -0.1408  0.7643
  709MOL0     H93531  10.350   7.819  11.164  0.8477  0.3842  1.9390
  709MOL0     H93532  10.482   7.916  11.224  0.0429 -1.5293  1.0945
  709MOL0     H93533  10.310   8.111  11.253  0.0783  0.1648 -3.6358
  709MOL0     H93534  10.310   7.979  11.358  2.7466  1.9933 -0.1479
  709MOL0     H93535  10.116   7.866  11.258 -2.1975  0.5554  3.0515
  709MOL0     H93536  10.105   7.998  11.136 -1.5665  5.1455  1.4109
  709MOL0     H93537  10.074   8.031  11.431 -0.7341 -1.0534 -0.1481
  709MOL0     H93538  10.073   8.166  11.311 -1.6812 -0.6964 -0.4027
  709MOL0     H93539   9.867   8.073  11.207  1.5562  1.0193 -0.4682
  709MOL0     H93540   9.846   8.130  11.368  0.5022 -0.0318  1.5303
  709MOL0     H93541   9.902   7.921  11.565  0.2235  1.8125 -1.1719
  709MOL0     H93542   9.711   7.575  11.582  0.1503 -0.9100  2.8725
  709MOL0     H93543   9.774   7.720  11.670  1.2220  1.2348 -0.1279
  709MOL0     H93544   9.977   7.566  11.515  1.1641  1.4324  0.9891
  709MOL0     H93545   9.888   7.470  11.625  1.7866 -0.1045  0.8994
  709MOL0     H93546  10.004   7.728  11.727  0.3320 -0.4632  0.0182
  709MOL0     H93547   9.919   7.610  11.810 -0.3573  0.0174 -0.5478
  709MOL0     H93548  10.199   7.630  11.799  2.0189  1.6333 -3.9295
  709MOL0     H93549  10.174   7.582  11.641  2.0155  1.9985  0.8900
  709MOL0     H93550  10.342   7.487  11.969 -0.2257 -0.3976 -0.7876
  709MOL0     H93551  10.294   7.465  12.190 -0.1074 -1.4381 -0.7722
  709MOL0     H93552   9.879   7.111  12.463  0.1013 -1.3325  2.2004
  709MOL0     H93553   9.809   7.071  12.672 -0.6209  0.8221 -1.3474
  709MOL0     H93554   9.739   7.414  12.944 -1.7057 -0.9916  1.7150
  709MOL0     H93555   9.899   7.369  13.000 -1.0498  0.6990  2.3555
  709MOL0     H93556   9.821   7.241  13.167 -1.2249 -1.2686  1.4285
  709MOL0     H93557   9.673   7.191  13.075  1.1760 -1.9084  1.6595
  709MOL0     H93558   9.602   7.432  13.106 -0.5687  0.1182 -0.0303
  709MOL0     H93559   9.722   7.458  13.233 -3.3044  0.6967  2.4020
  709MOL0     H93560   9.541   7.225  13.265 -2.8200  2.3958 -2.1904
  709MOL0     H93561   9.666   7.286  13.367  0.0600 -1.0381  0.1847
  709MOL0     H93562   9.437   7.352  13.435  1.6997 -1.7678  0.0105
  709MOL0     H93563   9.427   7.455  13.283  0.1059 -0.6218 -1.0039
  709MOL0     H93564   9.636   7.579  13.372 -0.7958  1.7241 -0.4131
  709MOL0     H93565   9.618   7.481  13.513 -1.7805 -0.3920 -0.6079
  709MOL0     H93566   9.408   7.677  13.417  1.5407  0.0441 -1.7384
  709MOL0     H93567   9.408   7.593  13.578 -2.4112  2.3254  0.0552
  709MOL0     H93568   9.615   7.784  13.497 -1.3040 -3.5892 -2.9353
  709MOL0     H93569   9.580   7.729  13.659 -0.2381  1.9433  0.7745
  709MOL0     H93570   9.900   7.480  12.789  0.0423  1.1623 -1.1395
  709MOL0     H93571   9.983   7.515  12.548 -1.5229 -0.4952 -2.1852
  709MOL0     H93572   9.918   7.289  12.136 -2.0508  1.5680 -0.4028
  709MOL0     H93573   9.932   7.312  11.895  0.6894 -1.3565  0.5156
  709MOL0     H93574  10.428   8.006  10.545  0.3666  0.5454 -1.9105
  709MOL0     H93575  10.503   8.069  10.340 -1.5463 -0.8454  1.2221
  709MOL0     H93576  11.103   7.969  10.156 -2.8259 -3.2008 -0.5696
  709MOL0     H93577  11.200   8.015   9.928 -0.5704  0.0225  0.7650
  709MOL0     H93578  10.989   8.291   9.631 -0.9341  1.1881  3.6741
  709MOL0     H93579  10.965   8.128   9.664  1.2993  0.3347  2.4225
  709MOL0     H93580  11.098   8.172   9.431  0.0590 -0.7101 -0.9669
  709MOL0     H93581  11.227   8.218   9.546  2.3477 -2.9916 -2.4447
  709MOL0     H93582  11.080   7.952   9.556  1.0915 -2.0786  0.3133
  709MOL0     H93583  11.234   7.988   9.630  0.8058 -0.0031 -0.8669
  709MOL0     H93584  11.336   8.009   9.408 -1.1744  1.4275 -0.4210
  709MOL0     H93585  11.256   7.853   9.434 -0.6683 -0.1095  1.0780
  709MOL0     H93586  11.045   7.937   9.097 -0.2046  1.6446 -0.4560
  709MOL0     H93587  10.914   8.328   9.859  2.4905  0.6915 -1.4244
  709MOL0     H93588  10.821   8.283  10.078 -0.2490 -0.2738 -0.4226
  710MOL0     O93589   0.564   4.140   4.723 -0.2712  0.0621 -0.6325
  710MOL0     C93590   0.669   4.201   4.718 -0.0615  0.1179 -0.0369
  710MOL0     O93591   0.741   4.252   4.822 -0.2595  0.4102  0.4141
  710MOL0     C93592   0.692   4.265   4.947 -0.1444 -0.0322 -0.2181
  710MOL0     C93593   0.802   4.269   5.043 -0.0228  0.9316  0.2037
  710MOL0     C93594   0.776   4.284   5.183 -0.1887  0.0422  0.0975
  710MOL0     C93595   0.635   4.286   5.222 -0.4120 -0.2992  0.5871
  710MOL0     O93596   0.617   4.283   5.363  0.3537 -0.1373  0.1096
  710MOL0     C93597   0.490   4.275   5.424  0.0066 -0.9498 -0.6588
  710MOL0     C93598   0.527   4.315   5.580 -1.1685  0.1295  0.3489
  710MOL0     C93599   0.506   4.466   5.614  0.6104 -0.1377 -0.3839
  710MOL0     C93600   0.586   4.556   5.518 -0.1298  0.5941  0.2062
  710MOL0     C93601   0.606   4.693   5.563  0.4058  0.3749  0.0133
  710MOL0     C93602   0.671   4.785   5.464 -0.4578  0.1161 -0.6637
  710MOL0     C93603   0.805   4.730   5.424 -0.0243 -0.2500 -0.4702
  710MOL0     C93604   0.879   4.844   5.347 -0.8857  0.2343  0.4715
  710MOL0     N93605   0.897   4.959   5.448 -0.2553 -0.4711  0.4293
  710MOL0     C93606   0.970   4.962   5.556 -0.2619 -0.0478 -0.7561
  710MOL0     C93607   0.958   5.095   5.608 -0.5040 -0.1489 -0.6906
  710MOL0     C93608   1.006   5.131   5.741  0.0049  0.6956 -0.5824
  710MOL0     C93609   0.901   5.070   5.835  0.0832 -0.8952 -0.1037
  710MOL0     C93610   0.959   5.046   5.975 -0.4388 -0.7300 -0.0541
  710MOL0     C93611   0.863   4.969   6.073  0.4758  0.8576  1.0220
  710MOL0     O93612   0.818   4.846   6.000  0.3282  0.1954 -0.4988
  710MOL0     C93613   0.727   4.759   6.056 -0.5762 -1.1520 -0.6808
  710MOL0     C93614   0.649   4.788   6.166 -0.2933 -0.2687  0.3179
  710MOL0     C93615   0.563   4.694   6.227 -0.1119  0.7454 -0.9807
  710MOL0     C93616   0.548   4.566   6.179 -0.5786 -0.6331 -0.2395
  710MOL0     C93617   0.456   4.463   6.241 -0.5752 -0.8836 -0.2759
  710MOL0     O93618   0.378   4.499   6.349 -0.3627  0.2907 -0.3506
  710MOL0     C93619   0.289   4.408   6.402  0.6495 -0.4354 -0.4673
  710MOL0     C93620   0.306   4.271   6.408  0.2054  0.2304 -0.2569
  710MOL0     C93621   0.203   4.184   6.467  0.3198  0.7239  0.2689
  710MOL0     C93622   0.083   4.235   6.521  0.5303  1.4282 -0.7746
  710MOL0     O93623  -0.027   4.160   6.575  0.4048 -0.6817 -0.0980
  710MOL0     C93624  -0.006   4.022   6.614  0.1376  0.4315 -0.3461
  710MOL0     C93625  -0.140   3.974   6.676 -0.2358  0.4715  0.0612
  710MOL0     C93626  -0.267   3.971   6.583  0.0686 -0.5636  0.3210
  710MOL0     C93627  -0.243   3.866   6.472 -0.1840  0.4317  0.0765
  710MOL0     C93628  -0.359   3.835   6.370  0.7628  0.2898  0.5682
  710MOL0     C93629  -0.343   3.692   6.302 -0.6707  1.1234  0.1686
  710MOL0     C93630  -0.469   3.601   6.316  0.7260 -0.4435  0.4136
  710MOL0     C93631  -0.455   3.462   6.262 -0.2394  0.0163 -0.3076
  710MOL0    Cl93632  -0.566   3.342   6.332  0.4783 -0.2094 -0.1384
  710MOL0     C93633   0.065   4.374   6.504 -0.1827 -0.7489 -0.9519
  710MOL0     C93634   0.169   4.455   6.456 -0.2668 -0.9650  0.0508
  710MOL0     O93635   0.468   4.353   6.191 -0.7611  0.2217 -0.2807
  710MOL0     C93636   0.626   4.540   6.061  0.7379 -0.0662 -1.0314
  710MOL0     C93637   0.705   4.633   6.000  0.0337 -0.9537  0.1946
  710MOL0     N93638   0.877   5.168   5.527  0.3922 -0.0146  0.1456
  710MOL0     N93639   0.842   5.088   5.434  0.4403  0.0716  0.3666
  710MOL0     C93640   0.536   4.277   5.128  0.3970 -0.1328  0.6167
  710MOL0     C93641   0.559   4.273   4.994 -0.5920  0.0620 -0.8074
  710MOL0     C93642   0.733   4.197   4.585 -0.5764  0.2085  1.1333
  710MOL0     C93643   0.656   4.173   4.470  1.4482  0.5070  0.5338
  710MOL0     C93644   0.726   4.148   4.345  0.4240 -0.7987 -0.4550
  710MOL0     C93645   0.864   4.165   4.337  0.0008  0.2161 -0.0694
  710MOL0     O93646   0.942   4.139   4.226  0.1635  0.0284 -0.4925
  710MOL0     C93647   0.871   4.161   4.098 -0.4620  0.3840  0.6309
  710MOL0     C93648   0.806   4.035   4.037 -1.1254  0.8952 -0.4269
  710MOL0     C93649   0.924   3.920   4.023  0.6336  0.0735  0.3027
  710MOL0     C93650   0.881   3.782   3.955 -0.8032 -0.4127 -0.0189
  710MOL0     C93651   0.754   3.732   3.998  0.4766  0.7054 -0.4207
  710MOL0     C93652   0.660   3.673   4.036  0.5837 -0.4907  0.4179
  710MOL0     C93653   0.941   4.196   4.442 -0.1283  0.5734  0.2885
  710MOL0     C93654   0.875   4.210   4.570 -0.3352  0.5116  0.4603
  710MOL0     H93655   0.905   4.256   5.012 -0.1330 -0.1646  0.2571
  710MOL0     H93656   0.857   4.309   5.250  0.6490  0.8533 -1.1847
  710MOL0     H93657   0.474   4.167   5.422  0.2608 -1.0254  0.6792
  710MOL0     H93658   0.404   4.324   5.378 -0.9813  1.2234  3.0578
  710MOL0     H93659   0.632   4.298   5.604 -0.8526  1.2771 -0.1431
  710MOL0     H93660   0.455   4.252   5.633 -3.7806  0.9969 -1.8740
  710MOL0     H93661   0.531   4.478   5.719  0.9968 -2.7381 -0.1370
  710MOL0     H93662   0.399   4.488   5.603  0.7768  0.2622 -1.3407
  710MOL0     H93663   0.686   4.513   5.508 -0.5309 -0.6216  1.1826
  710MOL0     H93664   0.548   4.558   5.415 -0.5364  1.3408  0.3606
  710MOL0     H93665   0.656   4.693   5.660 -1.6472  4.4167  1.2961
  710MOL0     H93666   0.512   4.744   5.585 -1.0307 -0.7650 -2.8982
  710MOL0     H93667   0.670   4.879   5.520 -0.4122 -0.9357  1.1576
  710MOL0     H93668   0.607   4.806   5.378 -0.0786  1.5404 -0.6240
  710MOL0     H93669   0.862   4.697   5.511  0.1654 -1.1027 -0.9052
  710MOL0     H93670   0.790   4.638   5.367 -1.8750 -2.1352  2.7240
  710MOL0     H93671   0.824   4.875   5.258  2.5323  1.8268 -1.2789
  710MOL0     H93672   0.977   4.811   5.312 -1.2749  1.1065 -1.6037
  710MOL0     H93673   1.020   4.875   5.599  1.4582 -0.6231 -3.6929
  710MOL0     H93674   1.011   5.239   5.753  2.0387  0.5511  0.2782
  710MOL0     H93675   1.100   5.078   5.764  0.1558  0.9946 -0.5128
  710MOL0     H93676   0.852   4.981   5.794  0.2926 -0.6026 -1.0060
  710MOL0     H93677   0.824   5.148   5.838  2.2172  1.3777 -0.5479
  710MOL0     H93678   1.053   4.992   5.967 -1.4306 -2.8751  1.6837
  710MOL0     H93679   0.977   5.144   6.022  0.8405 -1.0736  0.2077
  710MOL0     H93680   0.774   5.029   6.092 -1.0901 -0.4349 -1.5771
  710MOL0     H93681   0.906   4.944   6.170  2.0013  2.5765  0.8556
  710MOL0     H93682   0.635   4.882   6.218  1.5114  0.8394 -1.1096
  710MOL0     H93683   0.499   4.720   6.311  0.5888 -0.5278 -0.0311
  710MOL0     H93684   0.396   4.224   6.370 -0.7611 -1.5653 -0.4156
  710MOL0     H93685   0.218   4.076   6.463 -3.1307  0.0825  0.7342
  710MOL0     H93686   0.071   4.021   6.692  0.1733 -0.8180 -0.3675
  710MOL0     H93687   0.021   3.956   6.531  2.1954  1.4715 -0.5568
  710MOL0     H93688  -0.146   4.041   6.762 -0.0442  1.0201 -0.3474
  710MOL0     H93689  -0.145   3.874   6.721  0.9352  0.5080  0.3097
  710MOL0     H93690  -0.274   4.073   6.543  0.2541 -1.7618 -3.1637
  710MOL0     H93691  -0.360   3.952   6.636 -0.3293 -0.3203 -0.2728
  710MOL0     H93692  -0.147   3.882   6.421 -0.2816 -0.8729 -0.5650
  710MOL0     H93693  -0.232   3.777   6.534 -4.4510 -1.4190 -1.4826
  710MOL0     H93694  -0.358   3.918   6.298  0.4614 -0.5845 -0.4717
  710MOL0     H93695  -0.459   3.828   6.413  0.0195 -2.1133 -1.2664
  710MOL0     H93696  -0.247   3.652   6.336  0.8532  2.1685 -2.6064
  710MOL0     H93697  -0.329   3.708   6.194 -1.5380 -2.0721 -0.5033
  710MOL0     H93698  -0.491   3.598   6.423 -1.2940  2.6672  0.2140
  710MOL0     H93699  -0.554   3.660   6.280  1.9117  0.4978 -0.9497
  710MOL0     H93700  -0.354   3.425   6.284 -1.0184 -1.9013  0.3319
  710MOL0     H93701  -0.460   3.475   6.154  2.6492 -1.5921 -0.7418
  710MOL0     H93702  -0.031   4.420   6.523  0.4248  1.4083 -2.6446
  710MOL0     H93703   0.157   4.563   6.463  0.5797 -0.7285 -1.6031
  710MOL0     H93704   0.612   4.445   6.011  0.4811  0.3618 -1.7776
  710MOL0     H93705   0.760   4.598   5.914 -0.1797  2.7204 -1.6634
  710MOL0     H93706   0.440   4.311   5.163 -0.3513 -2.2307  0.7286
  710MOL0     H93707   0.478   4.270   4.921 -2.5131 -0.6312  1.2404
  710MOL0     H93708   0.550   4.152   4.474  1.5161  0.2470  0.9882
  710MOL0     H93709   0.659   4.120   4.264  0.5521 -1.6051 -0.2918
  710MOL0     H93710   0.952   4.184   4.028  0.1766  2.4221  1.9275
  710MOL0     H93711   0.813   4.254   4.106 -0.1170  0.5866  0.8170
  710MOL0     H93712   0.723   4.002   4.100 -0.1297 -0.6283  0.1389
  710MOL0     H93713   0.777   4.056   3.934 -0.7500  0.6266 -0.5878
  710MOL0     H93714   0.949   3.896   4.126 -0.0170 -0.0992  0.4244
  710MOL0     H93715   1.014   3.956   3.973  0.2150 -2.2955 -2.4287
  710MOL0     H93716   0.866   3.792   3.848 -0.7932  1.8298  0.1404
  710MOL0     H93717   0.963   3.713   3.978  0.0905  0.6826  0.1934
  710MOL0     H93718   0.559   3.640   4.054 -0.5945  1.7956 -1.4629
  710MOL0     H93719   1.049   4.196   4.433 -0.0759 -3.5383 -0.7403
  710MOL0     H93720   0.925   4.235   4.663  1.4468 -0.3071 -0.2525
  711MOL0     O93721   6.086   4.683   7.289  0.4276  0.6252 -0.2243
  711MOL0     C93722   6.171   4.588   7.284  0.0631  0.3400  0.6211
  711MOL0     O93723   6.259   4.566   7.179 -0.5883  1.1335 -0.3130
  711MOL0     C93724   6.285   4.645   7.072  1.5734  0.0197 -0.0279
  711MOL0     C93725   6.282   4.787   7.082  1.6089  0.7199 -0.3840
  711MOL0     C93726   6.299   4.859   6.972  0.4598  0.2594 -0.9733
  711MOL0     C93727   6.344   4.796   6.842 -0.4447  0.3683 -0.5512
  711MOL0     O93728   6.379   4.865   6.737 -0.0829  0.4271 -0.4205
  711MOL0     C93729   6.356   5.008   6.731 -0.5433  0.5484  0.1488
  711MOL0     C93730   6.316   5.071   6.589 -0.6611  0.9427  0.3459
  711MOL0     C93731   6.177   5.015   6.541 -0.0789  0.4600 -0.4052
  711MOL0     C93732   6.069   5.043   6.642  0.5447  0.4526 -0.2386
  711MOL0     C93733   5.920   5.014   6.600  0.0958 -0.3505  0.5210
  711MOL0     C93734   5.877   4.872   6.546  0.0540 -0.5392 -0.4349
  711MOL0     C93735   5.735   4.869   6.482 -0.4755  0.3381 -0.3467
  711MOL0     C93736   5.707   4.719   6.466 -0.2063 -0.0101 -0.6337
  711MOL0     N93737   5.582   4.674   6.411 -0.1110 -0.2663  0.0069
  711MOL0     C93738   5.547   4.549   6.363 -0.0225  0.0292  0.0247
  711MOL0     C93739   5.415   4.557   6.338  0.3389 -0.0204 -0.1283
  711MOL0     C93740   5.327   4.437   6.299  0.1651  0.2698  0.0531
  711MOL0     C93741   5.380   4.298   6.338  0.0325 -0.4308  0.7081
  711MOL0     C93742   5.272   4.190   6.308  0.3984 -0.2840 -1.0462
  711MOL0     C93743   5.285   4.068   6.407 -0.4835 -0.0863  0.0677
  711MOL0     O93744   5.422   4.040   6.423 -0.6835  0.3719  0.6990
  711MOL0     C93745   5.467   3.940   6.503  0.4027  0.8658 -0.5006
  711MOL0     C93746   5.593   3.896   6.509 -0.7850 -0.7662  0.4888
  711MOL0     C93747   5.656   3.805   6.593 -0.6778  0.3401  0.0729
  711MOL0     C93748   5.583   3.746   6.689 -0.2066  1.2961  0.1160
  711MOL0     C93749   5.652   3.645   6.778  0.2026 -0.7826  0.5931
  711MOL0     O93750   5.781   3.608   6.745  0.5242  0.7532 -0.0151
  711MOL0     C93751   5.847   3.525   6.834  0.3685  1.1369  0.0150
  711MOL0     C93752   5.954   3.573   6.913 -0.0022  0.1597 -0.1054
  711MOL0     C93753   6.033   3.488   6.988 -0.4482  0.5955  0.5532
  711MOL0     C93754   6.005   3.347   6.981 -0.1758 -0.3228 -1.0412
  711MOL0     O93755   6.084   3.251   7.042 -1.0854  0.5516 -0.1139
  711MOL0     C93756   6.203   3.304   7.088  0.2986 -0.3938 -0.7674
  711MOL0     C93757   6.278   3.194   7.145 -0.3493 -0.1869  0.1386
  711MOL0     C93758   6.376   3.138   7.040 -0.5182  0.6193  0.9006
  711MOL0     C93759   6.316   3.028   6.943  0.1638 -0.2295 -0.5893
  711MOL0     C93760   6.410   2.988   6.841 -0.8401  0.4801 -0.6591
  711MOL0     C93761   6.341   2.884   6.753  1.0873  0.4320  0.0953
  711MOL0     C93762   6.437   2.832   6.647  0.6988  0.2425 -0.4797
  711MOL0     C93763   6.367   2.782   6.519  0.6496  0.2522  0.3319
  711MOL0    Cl93764   6.365   2.610   6.499 -0.1581 -0.3912  0.0715
  711MOL0     C93765   5.897   3.298   6.906 -0.7383  0.1522 -0.1960
  711MOL0     C93766   5.817   3.385   6.829 -0.2329  0.6415  0.1740
  711MOL0     O93767   5.582   3.606   6.867 -0.7112  0.6695  0.0170
  711MOL0     C93768   5.441   3.768   6.680  0.3879  0.9006 -0.0145
  711MOL0     C93769   5.392   3.869   6.591  0.6240 -0.3469 -1.3811
  711MOL0     N93770   5.373   4.689   6.363  0.0136 -0.1409 -0.6231
  711MOL0     N93771   5.479   4.757   6.398  0.0844  0.1562  0.3659
  711MOL0     C93772   6.358   4.650   6.844 -0.6435 -1.5265  0.6906
  711MOL0     C93773   6.330   4.578   6.959  0.4023 -0.9515  1.0584
  711MOL0     C93774   6.188   4.495   7.398 -0.2410 -0.6849  0.1367
  711MOL0     C93775   6.130   4.526   7.521  0.3041 -0.2061  0.2486
  711MOL0     C93776   6.135   4.439   7.631 -0.0336 -0.2018 -0.5174
  711MOL0     C93777   6.199   4.312   7.612 -0.4031  1.3329  0.3501
  711MOL0     O93778   6.226   4.213   7.707 -0.2388  0.0516  0.7438
  711MOL0     C93779   6.139   4.201   7.824  0.5832 -0.3401 -0.8209
  711MOL0     C93780   6.221   4.118   7.930 -0.0037  0.2032  0.1778
  711MOL0     C93781   6.216   3.970   7.899  0.3888 -0.3044  0.3135
  711MOL0     C93782   6.286   3.870   7.990 -0.7462 -0.6880  0.0310
  711MOL0     C93783   6.278   3.725   7.954 -0.0308 -0.0242 -0.5012
  711MOL0     C93784   6.294   3.607   7.956  0.4372 -0.6872 -0.2486
  711MOL0     C93785   6.261   4.284   7.486  0.7640 -0.9260 -1.2214
  711MOL0     C93786   6.259   4.371   7.382  0.1379 -0.6148  0.4886
  711MOL0     H93787   6.256   4.841   7.173 -1.3066 -0.2506 -0.5301
  711MOL0     H93788   6.295   4.967   6.982 -1.5083  0.2121 -0.7798
  711MOL0     H93789   6.441   5.062   6.773 -1.3122  0.2991  2.1184
  711MOL0     H93790   6.270   5.032   6.793 -1.9325 -1.8469 -0.7146
  711MOL0     H93791   6.394   5.041   6.519  1.3129  1.5568  2.1531
  711MOL0     H93792   6.305   5.178   6.609 -5.1996  0.1907  3.4088
  711MOL0     H93793   6.178   4.906   6.533 -2.5717  0.3602 -0.0414
  711MOL0     H93794   6.152   5.069   6.449  1.1620  2.7464  0.5377
  711MOL0     H93795   6.078   4.986   6.735 -2.3675  0.0577 -0.0788
  711MOL0     H93796   6.078   5.150   6.663  2.0078  0.9165 -2.8441
  711MOL0     H93797   5.909   5.088   6.520  1.0383 -1.3438 -0.5696
  711MOL0     H93798   5.859   5.044   6.686 -0.1541 -0.8835  0.5288
  711MOL0     H93799   5.884   4.804   6.631 -1.4004  0.1455  0.2545
  711MOL0     H93800   5.958   4.842   6.478  0.4185  0.5021 -0.4785
  711MOL0     H93801   5.671   4.914   6.559 -1.3951 -1.3371 -0.0872
  711MOL0     H93802   5.733   4.922   6.386  0.5338  0.3350 -0.3800
  711MOL0     H93803   5.713   4.671   6.564 -1.0714 -2.2751 -1.6313
  711MOL0     H93804   5.790   4.680   6.407 -0.5585 -0.6869 -0.6921
  711MOL0     H93805   5.595   4.454   6.384  1.4587  1.0677  1.6732
  711MOL0     H93806   5.316   4.439   6.190 -2.7106  0.2672  0.2623
  711MOL0     H93807   5.227   4.452   6.340  0.6554  0.1806  1.3342
  711MOL0     H93808   5.406   4.296   6.445  0.4612  1.8379  0.7049
  711MOL0     H93809   5.473   4.280   6.283  1.0610  0.9758  1.9122
  711MOL0     H93810   5.175   4.236   6.331  1.0337  0.3859  0.3351
  711MOL0     H93811   5.276   4.153   6.205  1.1491  0.4783 -1.3008
  711MOL0     H93812   5.232   3.976   6.382 -0.0747 -0.3056  0.0035
  711MOL0     H93813   5.255   4.107   6.505 -0.6178  1.7891 -0.6731
  711MOL0     H93814   5.663   3.962   6.460 -0.8557  0.7413  2.3140
  711MOL0     H93815   5.764   3.792   6.593 -0.1951  3.5017 -0.2898
  711MOL0     H93816   5.967   3.681   6.914  2.8584 -0.0981  1.9013
  711MOL0     H93817   6.105   3.537   7.054 -2.6756  2.4702  1.7370
  711MOL0     H93818   6.173   3.380   7.161 -0.7915 -1.3111 -0.2320
  711MOL0     H93819   6.255   3.361   7.010  0.3253  2.2821  1.0683
  711MOL0     H93820   6.208   3.115   7.177  0.4898 -2.2212 -2.6515
  711MOL0     H93821   6.332   3.231   7.232 -1.5703 -0.9807  1.2828
  711MOL0     H93822   6.450   3.086   7.102  0.6331 -1.1490 -1.7633
  711MOL0     H93823   6.433   3.212   6.983 -1.4824 -0.3644 -1.4530
  711MOL0     H93824   6.272   2.950   7.007 -2.2719  1.3286 -0.2494
  711MOL0     H93825   6.228   3.075   6.899  0.0729  0.2362  0.0753
  711MOL0     H93826   6.505   2.948   6.879 -0.1666 -2.5846 -4.8895
  711MOL0     H93827   6.433   3.082   6.789 -3.4410  0.7499 -1.4605
  711MOL0     H93828   6.247   2.930   6.723 -1.2905 -0.3947  5.2978
  711MOL0     H93829   6.319   2.801   6.822 -3.7061  0.8405 -0.6080
  711MOL0     H93830   6.512   2.905   6.614 -1.9412  2.2958 -2.3370
  711MOL0     H93831   6.494   2.751   6.693  0.5351 -0.6544 -1.8001
  711MOL0     H93832   6.427   2.820   6.435  4.0344 -1.2486  1.8876
  711MOL0     H93833   6.265   2.821   6.518  1.0378  1.3611  1.4706
  711MOL0     H93834   5.882   3.191   6.911 -1.6390  0.3050  0.9436
  711MOL0     H93835   5.732   3.361   6.765  0.8846 -1.2527 -0.6972
  711MOL0     H93836   5.366   3.733   6.751  0.1601 -1.7881 -1.4812
  711MOL0     H93837   5.294   3.898   6.624  0.6322 -2.8999  1.2530
  711MOL0     H93838   6.383   4.615   6.744 -1.8282  3.6448 -1.7712
  711MOL0     H93839   6.326   4.469   6.966  0.9847 -0.8563  4.1211
  711MOL0     H93840   6.078   4.621   7.527 -1.1964 -0.8758 -1.5809
  711MOL0     H93841   6.097   4.465   7.729  1.2620 -0.2943  0.0326
  711MOL0     H93842   6.046   4.145   7.813  0.3161 -0.7720  2.7094
  711MOL0     H93843   6.127   4.297   7.873  1.1297 -1.9755  2.8319
  711MOL0     H93844   6.327   4.144   7.938  0.5592 -0.5445 -3.3724
  711MOL0     H93845   6.177   4.124   8.031 -1.6518  1.9094 -0.5711
  711MOL0     H93846   6.248   3.961   7.795 -2.8064 -3.8248 -0.6014
  711MOL0     H93847   6.112   3.936   7.900 -0.1642  1.3253 -0.1536
  711MOL0     H93848   6.388   3.896   8.021 -1.3640 -1.3207  2.9523
  711MOL0     H93849   6.233   3.881   8.085  1.2612  2.7530  0.9360
  711MOL0     H93850   6.294   3.500   7.948 -2.3796 -0.6862 -1.5472
  711MOL0     H93851   6.309   4.187   7.476 -0.7746 -1.6237 -2.3207
  711MOL0     H93852   6.299   4.347   7.284 -1.8458  1.4166 -0.9109
  712MOL0     O93853   6.327  11.094   4.021 -0.0222  0.0774  0.0273
  712MOL0     C93854   6.425  11.032   3.981 -0.5893  0.1739 -0.8166
  712MOL0     O93855   6.422  10.901   3.934 -0.0965 -0.2129 -0.5708
  712MOL0     C93856   6.308  10.823   3.935  0.7553 -0.4207 -0.1062
  712MOL0     C93857   6.204  10.844   4.028 -0.1269 -0.0712 -0.4654
  712MOL0     C93858   6.091  10.770   4.026  0.7813 -0.0066  0.3366
  712MOL0     C93859   6.077  10.674   3.919  0.0607  0.6625 -0.2859
  712MOL0     O93860   5.962  10.594   3.927 -0.4344  0.1484  0.1671
  712MOL0     C93861   5.923  10.531   3.814 -0.2453  0.3370 -0.1434
  712MOL0     C93862   5.780  10.492   3.840  0.7907 -0.1622  0.4314
  712MOL0     C93863   5.763  10.365   3.934 -0.0513 -0.2416  0.5251
  712MOL0     C93864   5.645  10.378   4.022 -0.0146  0.5913 -0.8290
  712MOL0     C93865   5.513  10.407   3.956  0.4973  0.6847 -0.2718
  712MOL0     C93866   5.406  10.437   4.068 -0.2474 -0.3791  1.2350
  712MOL0     C93867   5.256  10.460   4.013  0.4935 -0.3728 -1.0934
  712MOL0     C93868   5.164  10.487   4.145  0.4162  0.0394 -0.0202
  712MOL0     N93869   5.208  10.616   4.211  0.2274 -0.4231  0.5132
  712MOL0     C93870   5.196  10.734   4.143  0.4398  0.1097 -0.6036
  712MOL0     C93871   5.273  10.831   4.202  0.3775  0.0263  0.8939
  712MOL0     C93872   5.282  10.974   4.166  0.4315 -0.1277 -1.4947
  712MOL0     C93873   5.307  11.064   4.295 -0.6606  0.3910 -0.2505
  712MOL0     C93874   5.316  11.204   4.252  0.4340  0.6330  0.6128
  712MOL0     C93875   5.361  11.295   4.368 -1.2773  0.7311  0.6897
  712MOL0     O93876   5.450  11.395   4.321  0.2257  0.2452  0.0471
  712MOL0     C93877   5.400  11.493   4.241 -0.0025  0.2287  0.9452
  712MOL0     C93878   5.272  11.555   4.238 -0.4189 -0.3820 -0.1793
  712MOL0     C93879   5.245  11.665   4.155 -0.4157  0.3011  1.2758
  712MOL0     C93880   5.340  11.708   4.063  0.3643 -0.5613 -0.3430
  712MOL0     C93881   5.322  11.826   3.977 -0.9617  0.0761 -0.3200
  712MOL0     O93882   5.418  11.852   3.879 -0.6547 -0.2891  0.0557
  712MOL0     C93883   5.372  11.943   3.792 -0.0227  0.2953  0.6053
  712MOL0     C93884   5.338  12.074   3.834 -0.1021 -0.3631 -0.1198
  712MOL0     C93885   5.321  12.181   3.747 -0.0845 -0.0414 -0.1584
  712MOL0     C93886   5.316  12.153   3.615  0.4824 -0.2165 -0.8092
  712MOL0     O93887   5.286  12.243   3.517  0.4487 -0.2302  0.1379
  712MOL0     C93888   5.284  12.387   3.552  0.2715 -0.4961  0.7511
  712MOL0     C93889   5.249  12.470   3.432 -0.0139 -0.4193  0.5424
  712MOL0     C93890   5.364  12.456   3.332 -0.1111  0.1137  0.3769
  712MOL0     C93891   5.393  12.578   3.240 -0.1503 -0.3319 -0.3754
  712MOL0     C93892   5.261  12.608   3.157  0.5266  0.8998 -0.1822
  712MOL0     C93893   5.275  12.684   3.017 -0.3456 -0.7778  0.1923
  712MOL0     C93894   5.372  12.806   3.026  0.1472 -0.2519 -0.0921
  712MOL0     C93895   5.324  12.888   3.152 -1.0468  0.1459  0.3265
  712MOL0    Cl93896   5.406  13.053   3.146  0.2192 -0.3622 -0.3540
  712MOL0     C93897   5.333  12.022   3.563  0.8128  0.2648 -0.0720
  712MOL0     C93898   5.365  11.922   3.658 -0.8820  0.2264  0.1503
  712MOL0     O93899   5.213  11.883   3.997  0.8903  0.1745  0.1552
  712MOL0     C93900   5.455  11.636   4.055 -0.6288 -1.1554  0.2651
  712MOL0     C93901   5.488  11.534   4.145 -0.0646 -0.5036 -0.3358
  712MOL0     N93902   5.334  10.763   4.304 -1.3760  0.6967  0.1851
  712MOL0     N93903   5.297  10.642   4.319  0.5389 -0.1870  0.1349
  712MOL0     C93904   6.179  10.652   3.824 -0.6474  0.0542 -0.6617
  712MOL0     C93905   6.298  10.721   3.838  0.2157  0.8542 -0.1270
  712MOL0     C93906   6.548  11.110   3.988  0.3237  1.1979  1.2290
  712MOL0     C93907   6.664  11.040   3.981  0.0122 -0.4366  0.0762
  712MOL0     C93908   6.786  11.108   3.984 -0.7197 -0.0134  1.2255
  712MOL0     C93909   6.796  11.249   3.973 -0.8388 -0.8307 -0.6500
  712MOL0     O93910   6.913  11.319   3.979 -0.2383  0.2003 -0.1350
  712MOL0     C93911   7.028  11.247   3.938 -0.5138  0.2173 -0.6108
  712MOL0     C93912   7.130  11.354   3.886  0.5277 -0.6620  0.4313
  712MOL0     C93913   7.092  11.431   3.759  0.5111 -1.5476 -0.8022
  712MOL0     C93914   7.212  11.504   3.716 -0.1559 -0.5396  0.9309
  712MOL0     C93915   7.210  11.506   3.573  0.1699  0.4053 -0.2229
  712MOL0     C93916   7.212  11.508   3.452  0.2479  0.0383  0.2722
  712MOL0     C93917   6.682  11.318   3.995 -0.0811 -0.5461 -0.2473
  712MOL0     C93918   6.558  11.253   3.998 -0.2610  0.4549 -0.4308
  712MOL0     H93919   6.234  10.913   4.107  0.4876  0.2508 -0.9667
  712MOL0     H93920   6.027  10.766   4.114  1.0304 -0.7195  0.4939
  712MOL0     H93921   5.969  10.432   3.811 -0.3927  0.1790  1.6549
  712MOL0     H93922   5.942  10.589   3.723 -0.4966 -0.9283 -1.0222
  712MOL0     H93923   5.737  10.480   3.741  0.9618 -0.9435  0.4484
  712MOL0     H93924   5.727  10.584   3.867  0.3063  0.4835 -2.3807
  712MOL0     H93925   5.845  10.366   4.006  2.5371  2.5143 -2.1867
  712MOL0     H93926   5.768  10.277   3.869 -1.6961  1.4390 -2.0748
  712MOL0     H93927   5.654  10.289   4.085  0.2780  1.2246  0.0428
  712MOL0     H93928   5.687  10.462   4.078  2.3068 -0.9680 -0.0493
  712MOL0     H93929   5.491  10.314   3.903  1.1564 -1.4313  2.8758
  712MOL0     H93930   5.519  10.493   3.889 -0.8193  0.8288 -0.2263
  712MOL0     H93931   5.447  10.520   4.127 -1.3316  0.4530  0.8402
  712MOL0     H93932   5.395  10.350   4.134  0.1900 -1.5488 -0.1801
  712MOL0     H93933   5.251  10.548   3.947 -2.0973 -0.0346 -0.5517
  712MOL0     H93934   5.227  10.373   3.954  3.3566 -0.5064 -2.5147
  712MOL0     H93935   5.171  10.402   4.213 -2.5151 -2.1331 -2.1743
  712MOL0     H93936   5.063  10.483   4.103  0.3373 -2.1065  0.2383
  712MOL0     H93937   5.125  10.754   4.064  0.0745 -1.7447 -0.7925
  712MOL0     H93938   5.185  10.995   4.119 -1.1676 -1.2806  1.1131
  712MOL0     H93939   5.369  10.985   4.101  1.3915 -0.9176 -0.3701
  712MOL0     H93940   5.397  11.025   4.342 -0.2148  1.3529 -0.2934
  712MOL0     H93941   5.228  11.037   4.365  0.1467 -2.8336 -0.3978
  712MOL0     H93942   5.368  11.221   4.158 -1.7724 -1.9299 -1.2291
  712MOL0     H93943   5.212  11.238   4.248 -0.4138 -1.3191  3.2509
  712MOL0     H93944   5.427  11.237   4.432  1.4287  2.6885 -0.1564
  712MOL0     H93945   5.274  11.340   4.416 -2.6828 -0.1052 -0.9519
  712MOL0     H93946   5.200  11.525   4.315  1.5007 -0.9924  1.4783
  712MOL0     H93947   5.147  11.710   4.160  0.7360  2.9188  2.4710
  712MOL0     H93948   5.341  12.102   3.938  0.8129  4.3244 -1.1824
  712MOL0     H93949   5.324  12.275   3.800  3.8525  1.2598 -2.2888
  712MOL0     H93950   5.383  12.416   3.587  1.4266 -1.4150 -1.5101
  712MOL0     H93951   5.211  12.404   3.632  0.2413 -2.0951  1.1104
  712MOL0     H93952   5.235  12.574   3.462  0.9361  0.6614 -2.3979
  712MOL0     H93953   5.151  12.434   3.400  1.4631 -2.0677 -2.6549
  712MOL0     H93954   5.349  12.371   3.265 -0.8261  1.7296 -1.6330
  712MOL0     H93955   5.453  12.414   3.379 -1.3799 -3.2359  0.0695
  712MOL0     H93956   5.410  12.664   3.306  3.9872 -1.4610  0.2853
  712MOL0     H93957   5.480  12.551   3.180 -0.5473 -0.9954 -0.6721
  712MOL0     H93958   5.200  12.666   3.227  1.3436  2.3414 -0.6210
  712MOL0     H93959   5.214  12.511   3.143  2.0669 -0.4233  2.9421
  712MOL0     H93960   5.173  12.712   2.990 -0.8590  0.7388  3.2710
  712MOL0     H93961   5.318  12.611   2.949  1.9431 -1.2025  1.9835
  712MOL0     H93962   5.478  12.781   3.040  0.3697  0.4431 -0.5387
  712MOL0     H93963   5.375  12.872   2.939 -0.6643  0.7719  0.6323
  712MOL0     H93964   5.349  12.858   3.255  1.1849 -4.1194 -1.2120
  712MOL0     H93965   5.217  12.893   3.135 -0.7362  0.7042 -1.6698
  712MOL0     H93966   5.333  12.007   3.456  2.9718 -1.3663  0.0780
  712MOL0     H93967   5.387  11.824   3.619  1.4150  0.5549  0.5086
  712MOL0     H93968   5.538  11.666   3.993 -2.9911  1.1336 -2.0002
  712MOL0     H93969   5.587  11.492   4.152  0.2802 -0.2229 -2.7428
  712MOL0     H93970   6.162  10.579   3.745 -0.5688 -0.9130  0.1908
  712MOL0     H93971   6.384  10.695   3.778  0.7692  0.8327  0.6586
  712MOL0     H93972   6.681  10.933   3.971  3.2408 -0.1296  1.0388
  712MOL0     H93973   6.874  11.044   3.990  0.3000  1.0219 -1.4231
  712MOL0     H93974   7.010  11.170   3.863  0.7533 -2.6694  1.8052
  712MOL0     H93975   7.060  11.182   4.020 -2.7073 -1.7123 -1.2015
  712MOL0     H93976   7.134  11.432   3.962 -1.6135 -1.9809  2.0271
  712MOL0     H93977   7.231  11.314   3.875  1.2728  0.1185  3.6456
  712MOL0     H93978   7.004  11.493   3.778  1.3279 -0.1559 -1.3903
  712MOL0     H93979   7.066  11.369   3.673 -2.3390  0.5441 -1.6038
  712MOL0     H93980   7.212  11.611   3.742 -1.1786 -0.3131  0.0888
  712MOL0     H93981   7.301  11.445   3.740 -0.0060 -1.3042 -1.2968
  712MOL0     H93982   7.237  11.520   3.349  0.1827 -1.9738 -0.0196
  712MOL0     H93983   6.687  11.426   3.996 -1.8985 -0.4305  0.4130
  712MOL0     H93984   6.466  11.310   4.006 -2.1991 -2.5324  0.1833
  713MOL0     O93985   4.133  10.267  10.778  0.1561  0.0610 -0.8153
  713MOL0     C93986   4.070  10.362  10.720 -0.5813  0.3283  0.2240
  713MOL0     O93987   3.999  10.454  10.786  0.2065 -0.3233 -0.0917
  713MOL0     C93988   3.960  10.439  10.913  0.2474  0.2472  0.7924
  713MOL0     C93989   3.949  10.548  10.991 -0.1363 -0.0417  0.9107
  713MOL0     C93990   3.877  10.535  11.115 -0.7191 -0.5420 -0.2969
  713MOL0     C93991   3.818  10.415  11.154 -0.5311 -0.8705 -0.0431
  713MOL0     O93992   3.751  10.402  11.275 -0.6069 -0.0587  0.0573
  713MOL0     C93993   3.608  10.385  11.268 -0.1935 -0.8073 -0.6021
  713MOL0     C93994   3.549  10.497  11.184  0.3783  0.1155  0.5211
  713MOL0     C93995   3.579  10.636  11.249  0.5591  0.0630  0.4645
  713MOL0     C93996   3.497  10.758  11.192  0.1437  1.2614  1.1428
  713MOL0     C93997   3.353  10.729  11.226  0.9914 -0.9231 -0.7603
  713MOL0     C93998   3.263  10.851  11.214 -0.0736 -0.4185  0.7976
  713MOL0     C93999   3.141  10.851  11.302  0.7148 -0.3838 -0.1847
  713MOL0     C94000   3.039  10.744  11.273 -0.1766 -0.4904 -0.1670
  713MOL0     N94001   3.087  10.610  11.316 -0.2086  0.4334 -0.3893
  713MOL0     C94002   3.096  10.561  11.441 -0.3193  1.1523 -0.1574
  713MOL0     C94003   3.129  10.432  11.436 -0.8486 -0.2889  0.9305
  713MOL0     C94004   3.154  10.344  11.558 -0.3362  0.1384  0.2237
  713MOL0     C94005   3.297  10.326  11.587  0.0982 -0.2166 -0.1048
  713MOL0     C94006   3.315  10.256  11.731 -0.1446  0.2333 -0.5375
  713MOL0     C94007   3.254  10.107  11.732  0.2615 -0.2291  0.4497
  713MOL0     O94008   3.148  10.107  11.820  0.6226  1.1109 -0.3721
  713MOL0     C94009   3.026  10.046  11.788 -0.0135  0.9144 -0.4111
  713MOL0     C94010   2.998   9.960  11.678 -0.3805  0.2328 -0.3710
  713MOL0     C94011   2.868   9.903  11.666  0.4506 -0.1793 -0.3586
  713MOL0     C94012   2.763   9.935  11.750  0.2639  0.3481  0.5177
  713MOL0     C94013   2.635   9.863  11.720 -1.4458 -0.5145 -0.1957
  713MOL0     O94014   2.618   9.779  11.615 -0.0798 -0.2753  0.5238
  713MOL0     C94015   2.482   9.762  11.582  0.0692 -0.7727  1.1254
  713MOL0     C94016   2.371   9.848  11.608  0.4648  0.8720 -0.9277
  713MOL0     C94017   2.247   9.831  11.545  0.2600  0.4583  0.5401
  713MOL0     C94018   2.233   9.724  11.451 -0.0109 -0.0582 -0.1371
  713MOL0     O94019   2.117   9.699  11.382  0.0604 -0.6596  0.1614
  713MOL0     C94020   1.996   9.758  11.435 -0.8512 -0.1893  0.6782
  713MOL0     C94021   1.872   9.697  11.363  0.0120 -0.1374  0.2959
  713MOL0     C94022   1.876   9.539  11.353  0.8886 -0.2152  0.6717
  713MOL0     C94023   1.741   9.472  11.343  0.2004  0.1780 -0.5206
  713MOL0     C94024   1.738   9.324  11.276  0.3883  0.5300  0.3848
  713MOL0     C94025   1.613   9.241  11.292  0.4069  0.0821  0.6004
  713MOL0     C94026   1.595   9.198  11.443 -0.2782  0.2114 -0.7058
  713MOL0     C94027   1.556   9.041  11.449 -0.0429  0.2245 -0.2991
  713MOL0    Cl94028   1.703   8.933  11.405  0.1270 -0.2873 -0.5521
  713MOL0     C94029   2.335   9.649  11.428 -0.7998  1.5175  0.7756
  713MOL0     C94030   2.459   9.657  11.487  0.1801  0.0430 -0.2474
  713MOL0     O94031   2.568   9.860  11.820  0.3944 -0.1281  0.1737
  713MOL0     C94032   2.797  10.005  11.868  0.2663  0.8485 -0.6262
  713MOL0     C94033   2.927  10.057  11.888  0.1819 -0.7640 -1.2477
  713MOL0     N94034   3.123  10.396  11.303  0.8942  1.0532 -0.5194
  713MOL0     N94035   3.096  10.502  11.231  0.6902 -0.2135 -0.2625
  713MOL0     C94036   3.815  10.309  11.070  0.2335 -0.5053  0.9980
  713MOL0     C94037   3.879  10.326  10.947  0.7695  0.7034 -0.0700
  713MOL0     C94038   4.056  10.356  10.571  0.7301  0.2665  1.0505
  713MOL0     C94039   4.117  10.251  10.497 -0.6224  0.5767 -0.5721
  713MOL0     C94040   4.097  10.249  10.367 -0.6073  0.7387 -1.2160
  713MOL0     C94041   4.012  10.341  10.293  0.0265  0.8383 -0.2832
  713MOL0     O94042   4.003  10.328  10.158 -0.2477 -0.3619 -1.0197
  713MOL0     C94043   3.902  10.242  10.109 -0.1467 -0.1519 -0.1933
  713MOL0     C94044   3.941  10.093  10.132  0.2762  0.2439  0.5994
  713MOL0     C94045   3.928  10.010  10.005 -0.2136  0.6746  0.7918
  713MOL0     C94046   3.796  10.014   9.930  0.2035  0.2459  0.5595
  713MOL0     C94047   3.677   9.984  10.004  0.3130 -0.1701  0.0664
  713MOL0     C94048   3.586   9.979  10.084  0.0123 -0.6066  0.4744
  713MOL0     C94049   3.955  10.440  10.367  0.1466 -0.5525  0.0767
  713MOL0     C94050   3.968  10.448  10.508 -0.4570  0.4416 -0.1178
  713MOL0     H94051   3.999  10.636  10.952  0.0003 -1.8854 -3.6791
  713MOL0     H94052   3.872  10.618  11.185 -0.4006 -0.2032 -0.6761
  713MOL0     H94053   3.569  10.374  11.370 -3.2799  3.7463 -0.9909
  713MOL0     H94054   3.587  10.291  11.214  6.5968 -1.7194 -2.5333
  713MOL0     H94055   3.442  10.475  11.188  0.2521 -0.4724 -2.9413
  713MOL0     H94056   3.590  10.510  11.084  1.4817  1.0530  1.0606
  713MOL0     H94057   3.683  10.667  11.237  1.1603 -2.6671 -2.4976
  713MOL0     H94058   3.555  10.622  11.355 -0.4596  0.5163  0.3021
  713MOL0     H94059   3.535  10.852  11.234  1.2569  0.0336  3.0795
  713MOL0     H94060   3.506  10.752  11.084 -1.6918  3.2091  0.8193
  713MOL0     H94061   3.353  10.704  11.333 -0.4245 -0.2315 -0.5758
  713MOL0     H94062   3.302  10.646  11.177 -2.0537  1.4125 -1.8691
  713MOL0     H94063   3.238  10.862  11.108 -0.0409  1.0208  0.9214
  713MOL0     H94064   3.322  10.941  11.233 -3.1742  1.8638  0.3113
  713MOL0     H94065   3.176  10.848  11.406 -2.6409 -0.1608  1.0828
  713MOL0     H94066   3.110  10.954  11.284 -0.0344 -0.5755 -0.0255
  713MOL0     H94067   3.029  10.751  11.164 -1.6612  0.2949 -0.0059
  713MOL0     H94068   2.936  10.766  11.301 -0.4271 -2.0738  0.2528
  713MOL0     H94069   3.078  10.610  11.536 -0.2659 -1.5118  1.3086
  713MOL0     H94070   3.114  10.253  11.513 -0.1329  0.0987  0.1207
  713MOL0     H94071   3.091  10.367  11.644  0.9650 -0.7767  1.4588
  713MOL0     H94072   3.334  10.428  11.600 -2.4707  0.8307 -0.3009
  713MOL0     H94073   3.347  10.267  11.509  0.8038 -2.7836  2.1338
  713MOL0     H94074   3.421  10.243  11.753 -0.2844 -0.6277 -0.3144
  713MOL0     H94075   3.282  10.315  11.817  1.2543  1.8909 -1.0917
  713MOL0     H94076   3.328  10.035  11.768  0.9225 -0.4621 -1.2459
  713MOL0     H94077   3.231  10.072  11.631  2.8343  0.7307 -0.5486
  713MOL0     H94078   3.077   9.933  11.609  0.8264  1.3688  0.5320
  713MOL0     H94079   2.858   9.855  11.569 -0.5481 -1.5269  0.3951
  713MOL0     H94080   2.376   9.931  11.677  2.7604  0.2788 -0.2934
  713MOL0     H94081   2.164   9.894  11.577 -0.1309 -0.4384  1.3294
  713MOL0     H94082   1.999   9.867  11.427 -0.6587 -0.1306  1.4500
  713MOL0     H94083   1.994   9.745  11.544  1.5333  2.1429  1.1167
  713MOL0     H94084   1.879   9.733  11.260  1.0638 -0.0410  0.3946
  713MOL0     H94085   1.781   9.731  11.412  0.8263  0.8012  1.1898
  713MOL0     H94086   1.943   9.504  11.432  2.8170  0.3892 -0.6323
  713MOL0     H94087   1.928   9.524  11.258 -0.3602  1.7425 -0.3943
  713MOL0     H94088   1.713   9.463  11.448 -1.8545  0.0240 -1.0346
  713MOL0     H94089   1.677   9.543  11.290 -1.2235  1.2494  2.4037
  713MOL0     H94090   1.820   9.265  11.318  1.1152  1.3064  0.1059
  713MOL0     H94091   1.765   9.325  11.170 -0.7813 -0.9856  0.0461
  713MOL0     H94092   1.631   9.150  11.235  0.3548  1.7686 -2.2716
  713MOL0     H94093   1.525   9.299  11.261 -1.6015 -2.7809  0.4946
  713MOL0     H94094   1.688   9.194  11.502  1.0227 -0.1549 -2.6666
  713MOL0     H94095   1.518   9.253  11.497 -0.1736 -0.9301  0.6720
  713MOL0     H94096   1.478   9.025  11.374 -2.5405  0.9203  1.9902
  713MOL0     H94097   1.529   9.002  11.548  2.5398 -0.6894  0.1142
  713MOL0     H94098   2.318   9.570  11.356  1.7469  2.3936 -0.9585
  713MOL0     H94099   2.539   9.590  11.457  1.4972  0.6046  1.8395
  713MOL0     H94100   2.726  10.035  11.944  0.3234  2.5079 -1.2009
  713MOL0     H94101   2.949  10.116  11.977  1.5024 -0.3748 -1.8109
  713MOL0     H94102   3.757  10.219  11.088 -1.8384  0.4919 -0.2796
  713MOL0     H94103   3.866  10.256  10.865 -0.6558  1.6788 -0.7197
  713MOL0     H94104   4.166  10.168  10.547  2.2085  1.9662 -0.8454
  713MOL0     H94105   4.151  10.161  10.332  0.4199  1.3851 -1.2842
  713MOL0     H94106   3.891  10.260  10.001 -0.2906 -0.5009 -0.2383
  713MOL0     H94107   3.804  10.267  10.151  0.6147  1.9739  0.4151
  713MOL0     H94108   4.046  10.101  10.160  0.6855 -1.1375 -0.4509
  713MOL0     H94109   3.884  10.049  10.214 -1.0690  3.9410  1.8732
  713MOL0     H94110   3.947   9.904  10.027  1.3755 -0.4356 -4.4767
  713MOL0     H94111   4.013  10.031   9.938  0.4847  0.2244  1.5158
  713MOL0     H94112   3.784  10.115   9.890 -1.9959  0.2412  1.0988
  713MOL0     H94113   3.781   9.945   9.847  3.1949 -2.7815  2.2846
  713MOL0     H94114   3.503   9.970  10.152 -0.8488 -1.2563 -0.6176
  713MOL0     H94115   3.877  10.498  10.320  0.0495 -1.7236 -1.2774
  713MOL0     H94116   3.916  10.520  10.570  1.2747 -0.9782  3.2377
  714MOL0     O94117   2.174   6.576  10.243 -0.7436  0.7801 -1.0857
  714MOL0     C94118   2.121   6.543  10.142 -1.5924  0.2325  0.5536
  714MOL0     O94119   2.172   6.564  10.015  0.5701 -0.2726 -0.1299
  714MOL0     C94120   2.278   6.634   9.992  0.4316 -1.3776 -0.6280
  714MOL0     C94121   2.256   6.755   9.905 -0.2573  0.2478 -0.1031
  714MOL0     C94122   2.366   6.842   9.874  0.5970 -0.2114  0.1987
  714MOL0     C94123   2.491   6.809   9.918 -0.8162  0.8266 -0.2362
  714MOL0     O94124   2.601   6.888   9.898 -0.2279 -0.0626 -0.5688
  714MOL0     C94125   2.578   7.020   9.841 -0.2656 -0.1295  0.3250
  714MOL0     C94126   2.709   7.099   9.850 -0.0781  0.9881 -0.5400
  714MOL0     C94127   2.674   7.248   9.840  0.9743  0.0173 -0.9104
  714MOL0     C94128   2.803   7.346   9.874  0.8550 -0.2292  1.0408
  714MOL0     C94129   2.763   7.485   9.915  0.5292 -0.4363 -0.2793
  714MOL0     C94130   2.685   7.564   9.809  0.5159 -0.3258 -0.2471
  714MOL0     C94131   2.646   7.706   9.855 -0.8747  0.3763  0.7566
  714MOL0     C94132   2.547   7.774   9.753 -0.3115 -0.7107 -0.5388
  714MOL0     N94133   2.622   7.818   9.637  0.3245 -0.8501  0.2324
  714MOL0     C94134   2.644   7.747   9.522  0.3470 -0.7586  0.7908
  714MOL0     C94135   2.702   7.833   9.431  0.2041 -0.4158  0.2533
  714MOL0     C94136   2.737   7.770   9.297  0.5072  0.4225  0.2078
  714MOL0     C94137   2.631   7.701   9.209 -0.1070 -0.6712  0.0981
  714MOL0     C94138   2.506   7.793   9.193 -1.9834  0.2680 -0.5907
  714MOL0     C94139   2.396   7.704   9.153  1.1277  0.6721  0.1287
  714MOL0     O94140   2.257   7.751   9.166  0.8972 -0.6390  0.5898
  714MOL0     C94141   2.184   7.733   9.288  0.0756 -0.3122 -0.0811
  714MOL0     C94142   2.245   7.666   9.399 -0.2979 -0.8620  0.0239
  714MOL0     C94143   2.180   7.655   9.523  0.1443 -0.0580  0.2438
  714MOL0     C94144   2.051   7.710   9.541 -0.5582  0.1148  0.1034
  714MOL0     C94145   1.971   7.712   9.658 -0.6777 -0.0642 -0.8121
  714MOL0     O94146   2.031   7.648   9.764  0.5221 -1.1042  0.4616
  714MOL0     C94147   1.951   7.636   9.875  0.3244  0.3170  0.8647
  714MOL0     C94148   1.845   7.548   9.897  0.5532 -0.3828  0.8562
  714MOL0     C94149   1.781   7.531  10.022  0.6598 -0.7987  0.2047
  714MOL0     C94150   1.839   7.586  10.134  0.2369 -0.1828  0.0593
  714MOL0     O94151   1.784   7.557  10.252 -0.0586  0.6852 -0.8386
  714MOL0     C94152   1.732   7.671  10.334 -0.4339  0.0516 -0.7426
  714MOL0     C94153   1.599   7.716  10.292 -0.4554  0.2736 -0.0962
  714MOL0     C94154   1.522   7.787  10.406 -0.6502  0.4127  0.0014
  714MOL0     C94155   1.598   7.921  10.452  0.1847  1.0729  0.4485
  714MOL0     C94156   1.596   8.024  10.347 -0.1104 -1.0216 -0.5972
  714MOL0     C94157   1.670   8.152  10.397 -0.7229 -0.0128 -0.1174
  714MOL0     C94158   1.707   8.238  10.283  1.2112  0.7695  0.9001
  714MOL0     C94159   1.582   8.301  10.218 -0.1097  0.0458 -0.5148
  714MOL0    Cl94160   1.620   8.459  10.141  0.5979 -0.2995  0.2875
  714MOL0     C94161   1.966   7.655  10.114  0.2246  0.3577 -0.5921
  714MOL0     C94162   2.000   7.697   9.986 -0.7492 -0.1953  0.0715
  714MOL0     O94163   1.864   7.771   9.655 -0.0023 -0.5510 -0.7001
  714MOL0     C94164   1.994   7.773   9.422  0.4629 -0.2361 -0.1225
  714MOL0     C94165   2.057   7.778   9.295 -0.0569  0.0313 -0.6204
  714MOL0     N94166   2.713   7.955   9.487 -0.4100  0.3426  0.4153
  714MOL0     N94167   2.674   7.943   9.608  0.2937 -0.0693 -0.1799
  714MOL0     C94168   2.508   6.696   9.995 -0.3843 -0.3759 -0.3381
  714MOL0     C94169   2.403   6.609  10.033  0.6590  0.9767  0.1041
  714MOL0     C94170   1.977   6.510  10.150  0.3374 -0.2039  0.1587
  714MOL0     C94171   1.901   6.516  10.268  0.1884 -0.5669  0.6344
  714MOL0     C94172   1.763   6.488  10.270  0.8035  1.0081 -0.1038
  714MOL0     C94173   1.695   6.439  10.155  0.0028 -1.2314 -0.5142
  714MOL0     O94174   1.558   6.430  10.132 -1.1334  0.0519 -0.9366
  714MOL0     C94175   1.479   6.413  10.254 -0.0520  0.3808  0.8803
  714MOL0     C94176   1.333   6.384  10.215 -0.7088  0.1435  0.0552
  714MOL0     C94177   1.274   6.510  10.151  0.8059  0.4086  0.0026
  714MOL0     C94178   1.138   6.476  10.093 -0.7544 -0.8422  0.3299
  714MOL0     C94179   1.149   6.504   9.948 -0.4398 -0.2451 -0.5222
  714MOL0     C94180   1.189   6.519   9.832  1.3214  0.3678  0.3598
  714MOL0     C94181   1.772   6.419  10.039 -0.1272 -0.0007  0.1270
  714MOL0     C94182   1.914   6.450  10.042 -0.0528 -0.0655  0.5567
  714MOL0     H94183   2.155   6.769   9.868 -0.4748 -2.2212 -0.6113
  714MOL0     H94184   2.347   6.921   9.802 -3.8947 -1.1966 -0.0052
  714MOL0     H94185   2.504   7.081   9.894  1.1266  0.9464  1.1107
  714MOL0     H94186   2.550   7.010   9.736 -0.3062 -2.7655  0.5386
  714MOL0     H94187   2.778   7.069   9.770  2.8215 -1.9514  2.7645
  714MOL0     H94188   2.761   7.080   9.944 -0.6547  2.5945  0.1496
  714MOL0     H94189   2.590   7.279   9.903  0.0108 -1.2530 -1.5251
  714MOL0     H94190   2.630   7.276   9.743  2.0674  1.2054 -1.0975
  714MOL0     H94191   2.857   7.292   9.952 -0.4684 -1.8078  0.9168
  714MOL0     H94192   2.870   7.351   9.788 -1.1176  1.0520 -0.5123
  714MOL0     H94193   2.855   7.527   9.956 -0.8251  1.7931  0.6834
  714MOL0     H94194   2.700   7.488  10.005  3.2991  1.7843  1.7554
  714MOL0     H94195   2.590   7.514   9.788 -0.3198  0.4490  1.4762
  714MOL0     H94196   2.742   7.571   9.715  0.5029  0.3097 -0.2129
  714MOL0     H94197   2.590   7.697   9.949 -2.4330 -1.2046 -0.2534
  714MOL0     H94198   2.740   7.760   9.867 -0.5921  0.0068  0.2466
  714MOL0     H94199   2.518   7.870   9.798  2.5221  0.4924 -1.0094
  714MOL0     H94200   2.460   7.712   9.732  0.2421 -2.2840  1.5745
  714MOL0     H94201   2.618   7.645   9.493  0.8877 -1.2670  2.0475
  714MOL0     H94202   2.820   7.706   9.329  0.8913  0.9517  0.2648
  714MOL0     H94203   2.788   7.840   9.230  0.8775  0.4357  0.5042
  714MOL0     H94204   2.598   7.614   9.267 -0.4370 -1.0053 -0.5786
  714MOL0     H94205   2.673   7.662   9.116 -1.2967 -1.6185 -0.0663
  714MOL0     H94206   2.482   7.848   9.284 -1.4544 -0.0522 -0.2529
  714MOL0     H94207   2.522   7.873   9.121 -1.0021  2.6038  2.0736
  714MOL0     H94208   2.396   7.605   9.201  1.0916 -0.4035 -1.9502
  714MOL0     H94209   2.410   7.679   9.047  1.2571  2.9114 -0.4268
  714MOL0     H94210   2.346   7.625   9.399 -0.2029 -0.6344 -0.0712
  714MOL0     H94211   2.212   7.609   9.616 -2.3070 -2.6919 -0.0816
  714MOL0     H94212   1.803   7.476   9.827 -0.2618 -0.6010  1.5567
  714MOL0     H94213   1.682   7.488  10.028  0.5705 -1.1923 -2.6219
  714MOL0     H94214   1.798   7.758  10.324  0.3702 -0.7204 -2.5549
  714MOL0     H94215   1.726   7.655  10.442  0.2375  1.5075 -0.4653
  714MOL0     H94216   1.539   7.627  10.273 -0.9475  0.8953 -1.7046
  714MOL0     H94217   1.617   7.766  10.196  1.0728 -2.0521 -1.1159
  714MOL0     H94218   1.508   7.719  10.489  0.6179  1.5577  1.2002
  714MOL0     H94219   1.423   7.824  10.380 -1.1366  0.6404  2.0709
  714MOL0     H94220   1.553   7.966  10.541  1.7813  2.2067  0.7283
  714MOL0     H94221   1.703   7.905  10.480  0.1437  0.3739  0.2326
  714MOL0     H94222   1.490   8.051  10.342  0.2286  0.3282 -0.7177
  714MOL0     H94223   1.627   7.996  10.246 -3.0672 -3.1292 -1.0784
  714MOL0     H94224   1.763   8.115  10.440  1.4365  1.6801 -2.9528
  714MOL0     H94225   1.604   8.205  10.466 -2.6783 -2.1663 -0.1878
  714MOL0     H94226   1.765   8.323  10.322 -0.4762  2.6454 -0.4239
  714MOL0     H94227   1.754   8.190  10.198  0.6738  0.6147  0.6850
  714MOL0     H94228   1.506   8.330  10.290  0.6173  0.5995  0.0420
  714MOL0     H94229   1.535   8.236  10.143  0.5920 -0.9351 -0.1281
  714MOL0     H94230   2.035   7.675  10.195  3.5570 -3.1911 -2.2251
  714MOL0     H94231   2.091   7.756   9.981 -0.1053 -0.9022  2.2849
  714MOL0     H94232   1.896   7.817   9.429  0.7691  0.2644  1.6124
  714MOL0     H94233   2.002   7.816   9.210  0.8005 -1.6064 -1.9701
  714MOL0     H94234   2.615   6.683  10.010 -0.0969  1.9566  0.0463
  714MOL0     H94235   2.417   6.510  10.077 -1.1035  1.8137  2.7964
  714MOL0     H94236   1.948   6.555  10.357 -2.7388  2.3792  1.0585
  714MOL0     H94237   1.718   6.496  10.368  2.4377 -1.5301  0.9304
  714MOL0     H94238   1.495   6.495  10.324  0.4657  0.6160  0.4949
  714MOL0     H94239   1.514   6.322  10.302 -0.5415 -1.2086 -1.5728
  714MOL0     H94240   1.327   6.289  10.162  1.0485  1.2819 -2.3871
  714MOL0     H94241   1.281   6.351  10.306  0.3543 -0.5519  0.4199
  714MOL0     H94242   1.348   6.550  10.082 -0.9356 -0.0405 -2.2572
  714MOL0     H94243   1.252   6.587  10.226  1.5011 -1.2360  1.9817
  714MOL0     H94244   1.110   6.371  10.103 -3.9477 -0.5676 -3.3130
  714MOL0     H94245   1.054   6.531  10.136  0.8829  0.3152  2.2576
  714MOL0     H94246   1.235   6.529   9.736  6.1631 -4.3165  1.6851
  714MOL0     H94247   1.725   6.391   9.946  0.2421  1.2196 -0.4403
  714MOL0     H94248   1.964   6.431   9.948 -1.1399  2.4219 -0.6167
  715MOL0     O94249   7.590   1.038   8.186 -0.1789 -0.5779  0.2374
  715MOL0     C94250   7.508   1.050   8.095 -0.3301 -0.2146 -0.3365
  715MOL0     O94251   7.432   1.152   8.074  0.2550  0.9000  0.0819
  715MOL0     C94252   7.417   1.259   8.165  1.2399 -0.2972  0.1192
  715MOL0     C94253   7.396   1.387   8.110  0.2700 -0.2161 -0.9661
  715MOL0     C94254   7.379   1.505   8.200  0.2328  0.3628  0.4129
  715MOL0     C94255   7.373   1.493   8.340 -1.2138 -0.0722 -0.1480
  715MOL0     O94256   7.366   1.585   8.438  0.5891  0.5394 -0.0160
  715MOL0     C94257   7.393   1.712   8.391  0.5817  0.3190  0.1708
  715MOL0     C94258   7.356   1.812   8.512 -0.6800 -0.2423 -0.0647
  715MOL0     C94259   7.386   1.952   8.485  0.1995 -0.2298  0.0871
  715MOL0     C94260   7.400   2.032   8.611  0.6106  0.3797  0.2061
  715MOL0     C94261   7.399   2.184   8.578  0.4895 -0.0595  0.0216
  715MOL0     C94262   7.384   2.276   8.700  0.3578  0.9825 -1.1791
  715MOL0     C94263   7.367   2.430   8.670  0.0598  0.1368  0.1799
  715MOL0     C94264   7.398   2.512   8.790 -0.1875  0.4008  0.3609
  715MOL0     N94265   7.352   2.457   8.922 -0.6469 -0.4665 -0.4152
  715MOL0     C94266   7.447   2.415   9.013  0.8802  0.4437 -0.0851
  715MOL0     C94267   7.374   2.379   9.119 -0.2023 -1.0024  0.3776
  715MOL0     C94268   7.422   2.317   9.244 -0.8564  0.6469  0.9441
  715MOL0     C94269   7.318   2.282   9.353 -0.6174 -0.5512 -0.1139
  715MOL0     C94270   7.374   2.227   9.488  0.1937 -0.0195  1.0110
  715MOL0     C94271   7.268   2.159   9.571  0.2352  0.0978  0.0535
  715MOL0     O94272   7.205   2.043   9.499  0.1844 -0.0633 -0.0839
  715MOL0     C94273   7.122   1.964   9.575 -0.6721  0.0309  0.0093
  715MOL0     C94274   7.064   1.990   9.699  0.4444 -0.4601 -0.1811
  715MOL0     C94275   6.969   1.909   9.755 -0.5946  0.0792  0.6301
  715MOL0     C94276   6.924   1.794   9.685  0.4760  0.2688  0.0411
  715MOL0     C94277   6.815   1.699   9.739 -0.9651 -0.4183  0.6707
  715MOL0     O94278   6.756   1.731   9.852  0.6044 -1.2311 -0.4313
  715MOL0     C94279   6.644   1.671   9.902  0.2089 -0.1190  0.4689
  715MOL0     C94280   6.553   1.578   9.841  0.1703 -0.3498  0.1706
  715MOL0     C94281   6.446   1.539   9.919  0.0920 -0.3332  0.4908
  715MOL0     C94282   6.424   1.578  10.053  0.3659 -0.1459  0.3728
  715MOL0     O94283   6.319   1.539  10.132  0.0551 -0.7898 -0.9493
  715MOL0     C94284   6.262   1.406  10.084 -0.1675 -0.5333  0.6222
  715MOL0     C94285   6.157   1.349  10.181 -1.0770 -0.4964 -1.3301
  715MOL0     C94286   6.118   1.208  10.130 -0.2725 -0.0079 -0.7861
  715MOL0     C94287   6.101   1.098  10.235  0.0642 -0.0903 -0.0389
  715MOL0     C94288   5.988   1.135  10.336 -0.4486  0.5191  0.3746
  715MOL0     C94289   6.032   1.122  10.488  0.6730 -0.4045  0.4271
  715MOL0     C94290   5.911   1.170  10.581  0.5598  0.7321  0.5593
  715MOL0     C94291   5.869   1.318  10.582 -0.3330 -0.1510  0.7437
  715MOL0    Cl94292   5.712   1.327  10.655 -0.5119 -0.9593 -0.3900
  715MOL0     C94293   6.517   1.678  10.107  0.5835  0.0703 -0.6931
  715MOL0     C94294   6.627   1.716  10.032  0.1249  0.1109 -0.0929
  715MOL0     O94295   6.784   1.602   9.670 -1.1099  0.2513  0.0171
  715MOL0     C94296   6.987   1.769   9.561  0.4306  0.6066  0.0387
  715MOL0     C94297   7.084   1.852   9.506 -0.0757  0.1352  0.1551
  715MOL0     N94298   7.239   2.393   9.095  0.1752  0.2087  0.8735
  715MOL0     N94299   7.234   2.451   8.978  0.5712 -0.1982 -0.6519
  715MOL0     C94300   7.392   1.363   8.389 -0.2371 -0.0883  0.3141
  715MOL0     C94301   7.408   1.251   8.308  0.0236 -1.0037  0.8202
  715MOL0     C94302   7.497   0.931   8.013  0.3750  0.1387  0.2010
  715MOL0     C94303   7.525   0.802   8.059 -0.6441 -0.3972 -0.4829
  715MOL0     C94304   7.518   0.684   7.989  0.2658  0.3231  0.1825
  715MOL0     C94305   7.477   0.684   7.858  0.4098 -0.5174  0.2167
  715MOL0     O94306   7.485   0.561   7.794  0.0758  0.2832  0.1163
  715MOL0     C94307   7.440   0.541   7.659  0.3097 -0.8454  0.1774
  715MOL0     C94308   7.475   0.401   7.616  1.1102 -0.7994  0.9375
  715MOL0     C94309   7.623   0.346   7.653 -0.5484 -0.2771  0.7253
  715MOL0     C94310   7.729   0.454   7.631 -0.5912  1.0673 -0.3800
  715MOL0     C94311   7.867   0.423   7.686 -0.3012  0.0750  0.0695
  715MOL0     C94312   7.975   0.403   7.752 -0.1982 -0.5113 -0.5575
  715MOL0     C94313   7.420   0.802   7.805 -0.1147 -0.3959  0.1782
  715MOL0     C94314   7.446   0.925   7.879  1.0548 -0.5301 -0.3410
  715MOL0     H94315   7.387   1.401   8.002 -2.6526  2.5962 -0.5156
  715MOL0     H94316   7.374   1.605   8.159  0.9310 -0.3570 -1.5814
  715MOL0     H94317   7.328   1.736   8.307 -0.0676 -0.9977  0.2669
  715MOL0     H94318   7.494   1.715   8.349 -0.0459 -0.5498 -1.5022
  715MOL0     H94319   7.420   1.778   8.594  1.6604  0.0860 -1.6344
  715MOL0     H94320   7.249   1.806   8.533 -0.9569 -1.0374 -1.5115
  715MOL0     H94321   7.320   2.006   8.416  1.6434  0.5918 -0.6953
  715MOL0     H94322   7.484   1.953   8.435  0.6128  1.4903  0.8565
  715MOL0     H94323   7.315   2.008   8.677 -2.1061 -1.8893 -3.6715
  715MOL0     H94324   7.491   2.009   8.666  0.4941 -1.0561 -0.1433
  715MOL0     H94325   7.315   2.209   8.513 -1.1145 -1.6931  1.3876
  715MOL0     H94326   7.492   2.205   8.523  0.0063  0.9979 -0.4293
  715MOL0     H94327   7.467   2.261   8.770 -0.0475 -1.7310 -1.1522
  715MOL0     H94328   7.301   2.248   8.766  1.1796 -2.0320 -1.2446
  715MOL0     H94329   7.424   2.459   8.582  0.7270  0.7463  0.7943
  715MOL0     H94330   7.263   2.451   8.645  0.5105 -0.2715 -2.3200
  715MOL0     H94331   7.350   2.610   8.780 -0.3426  0.1815 -1.3609
  715MOL0     H94332   7.504   2.541   8.788 -0.3521  0.9798 -1.4337
  715MOL0     H94333   7.553   2.411   8.993  0.9654 -0.7101  0.5436
  715MOL0     H94334   7.499   2.381   9.289  0.6728 -1.6915  1.8693
  715MOL0     H94335   7.462   2.219   9.217  1.6826  1.4936  1.3191
  715MOL0     H94336   7.246   2.206   9.321  1.1704 -1.6356 -1.7694
  715MOL0     H94337   7.265   2.375   9.374 -1.5579 -0.0712 -3.9535
  715MOL0     H94338   7.465   2.170   9.468  0.7527  0.6116  1.6802
  715MOL0     H94339   7.397   2.318   9.545  0.4126  0.2479  0.5072
  715MOL0     H94340   7.192   2.232   9.602  1.1696  0.9405  0.3858
  715MOL0     H94341   7.313   2.118   9.662 -2.0852  0.5564  1.5090
  715MOL0     H94342   7.073   2.084   9.753 -6.1025 -0.2649  1.4014
  715MOL0     H94343   6.911   1.928   9.845  0.0170 -2.6236  1.6910
  715MOL0     H94344   6.557   1.538   9.741 -4.2010  2.3317 -1.3531
  715MOL0     H94345   6.374   1.471   9.876  1.3079 -1.3645  0.0347
  715MOL0     H94346   6.345   1.338  10.067  0.1342 -0.1815  0.6611
  715MOL0     H94347   6.217   1.427   9.987  2.4497  2.2576 -0.1445
  715MOL0     H94348   6.069   1.412  10.197 -0.8853 -0.4839 -0.2480
  715MOL0     H94349   6.208   1.333  10.276 -1.2274 -1.4101 -1.3905
  715MOL0     H94350   6.197   1.171  10.065 -1.4851 -2.4330 -0.9756
  715MOL0     H94351   6.027   1.222  10.070  1.0157  4.0429 -2.1626
  715MOL0     H94352   6.063   1.014  10.175 -2.6656  0.9993  0.0362
  715MOL0     H94353   6.195   1.086  10.290 -1.4297 -0.4163  2.5919
  715MOL0     H94354   5.915   1.058  10.307 -3.0924  1.2304  4.3983
  715MOL0     H94355   5.934   1.226  10.310  0.7256  0.5409 -2.3836
  715MOL0     H94356   6.098   1.206  10.510 -0.3727  0.3781  0.6268
  715MOL0     H94357   6.073   1.021  10.503  2.8135  0.1908 -0.9845
  715MOL0     H94358   5.827   1.113  10.539 -0.9955  1.3278  2.7283
  715MOL0     H94359   5.939   1.131  10.679  0.2259 -0.6322  0.1469
  715MOL0     H94360   5.872   1.352  10.478  0.6369 -1.1345  0.4302
  715MOL0     H94361   5.941   1.382  10.634  0.4444 -0.4256  0.0119
  715MOL0     H94362   6.491   1.737  10.194 -0.7551 -2.1720  0.5330
  715MOL0     H94363   6.681   1.806  10.062  0.2084  0.5274 -1.4394
  715MOL0     H94364   6.968   1.678   9.505  2.4027 -0.9404  1.7121
  715MOL0     H94365   7.131   1.825   9.413  0.1519 -0.4621  0.4380
  715MOL0     H94366   7.394   1.361   8.497 -1.1999  1.3664  0.3878
  715MOL0     H94367   7.419   1.150   8.346  2.2448  0.0043  3.1270
  715MOL0     H94368   7.561   0.791   8.161  1.3401  0.2895 -1.0655
  715MOL0     H94369   7.554   0.589   8.026 -0.4429 -1.3670 -3.1003
  715MOL0     H94370   7.474   0.619   7.591 -1.8024  0.9144  1.0225
  715MOL0     H94371   7.332   0.557   7.664  0.4781  0.7598 -0.7148
  715MOL0     H94372   7.406   0.349   7.683  0.2968 -1.2099 -0.1848
  715MOL0     H94373   7.446   0.377   7.513 -4.4441  0.3935  1.9119
  715MOL0     H94374   7.649   0.252   7.604  0.4304 -0.9664  2.4780
  715MOL0     H94375   7.621   0.311   7.756  1.3954 -3.5230 -0.1981
  715MOL0     H94376   7.735   0.468   7.522 -0.1044 -1.1163 -0.6989
  715MOL0     H94377   7.715   0.557   7.665 -1.6710  0.7709  0.1133
  715MOL0     H94378   8.068   0.401   7.805  1.0476 -1.0338 -2.6668
  715MOL0     H94379   7.350   0.795   7.722 -1.7557 -1.5584  1.5921
  715MOL0     H94380   7.399   1.012   7.835  1.4003  0.0942  0.4853
  716MOL0     O94381   9.056   4.928   1.485 -0.2681 -0.1630 -0.4774
  716MOL0     C94382   9.165   4.873   1.503 -0.7933 -1.0748 -0.3781
  716MOL0     O94383   9.189   4.783   1.592  0.6965  0.4160  0.8782
  716MOL0     C94384   9.109   4.775   1.694 -0.0465  0.4723 -0.8342
  716MOL0     C94385   9.126   4.840   1.821 -0.9537 -0.0295 -0.1068
  716MOL0     C94386   9.030   4.838   1.921 -0.1333  0.3306  0.1713
  716MOL0     C94387   8.910   4.764   1.902  0.2081  0.2860  1.1943
  716MOL0     O94388   8.806   4.761   2.001 -0.1316 -0.0388  1.4842
  716MOL0     C94389   8.772   4.869   2.084  0.0476 -0.3241 -0.0003
  716MOL0     C94390   8.706   4.981   2.009 -0.9603  0.6453 -0.5787
  716MOL0     C94391   8.718   5.113   2.085  0.1108  0.2120  0.7502
  716MOL0     C94392   8.804   5.210   2.004  0.9654 -0.3685  1.1799
  716MOL0     C94393   8.800   5.344   2.053 -0.0202  0.6547  0.0518
  716MOL0     C94394   8.891   5.370   2.177 -0.7048  0.6347 -0.0903
  716MOL0     C94395   9.022   5.295   2.177  1.0317 -0.7367  1.1587
  716MOL0     C94396   9.118   5.334   2.299  0.3225 -0.0437 -0.7268
  716MOL0     N94397   9.244   5.252   2.296  0.5105 -0.7277  0.2822
  716MOL0     C94398   9.292   5.180   2.185 -0.1393 -0.5051  1.0857
  716MOL0     C94399   9.392   5.101   2.228  0.4657 -0.8321 -0.8834
  716MOL0     C94400   9.480   5.004   2.156  1.0718 -0.2038 -0.3661
  716MOL0     C94401   9.442   4.858   2.163 -0.5534 -0.4650 -0.3622
  716MOL0     C94402   9.445   4.803   2.300  0.1342  0.5347  0.0010
  716MOL0     C94403   9.580   4.798   2.372 -0.2209  0.4576 -0.2931
  716MOL0     O94404   9.650   4.680   2.329  0.0225  0.7949 -0.2292
  716MOL0     C94405   9.584   4.555   2.340 -0.0931  0.5055  0.3117
  716MOL0     C94406   9.638   4.457   2.256  0.1979 -0.7353 -0.2331
  716MOL0     C94407   9.588   4.323   2.261  0.0064 -0.2981  0.7944
  716MOL0     C94408   9.497   4.285   2.355 -0.1802  0.1583 -1.0399
  716MOL0     C94409   9.438   4.149   2.353 -0.4965  0.3375  0.0003
  716MOL0     O94410   9.521   4.054   2.291 -0.5891 -0.6544  0.0697
  716MOL0     C94411   9.489   3.919   2.278 -0.2666  1.5944 -0.1049
  716MOL0     C94412   9.598   3.818   2.250  0.2246 -0.3164 -0.2548
  716MOL0     C94413   9.573   3.684   2.246 -0.2215 -0.3138  0.8340
  716MOL0     C94414   9.444   3.637   2.274 -0.0490  0.6877 -0.1825
  716MOL0     O94415   9.427   3.497   2.283  0.1120  0.0911 -0.2887
  716MOL0     C94416   9.305   3.450   2.359 -0.3441  0.4043 -0.1169
  716MOL0     C94417   9.355   3.339   2.448  0.9230  0.5126  0.1482
  716MOL0     C94418   9.269   3.295   2.565  0.2126 -0.5867  0.0390
  716MOL0     C94419   9.265   3.403   2.670 -0.4411 -0.2034 -0.0102
  716MOL0     C94420   9.218   3.358   2.802 -0.2106  0.1027 -0.4338
  716MOL0     C94421   9.214   3.466   2.907 -0.7776  0.2857 -0.4300
  716MOL0     C94422   9.138   3.431   3.042 -0.5740  0.7034 -0.1934
  716MOL0     C94423   9.190   3.308   3.108  0.1231  0.1737 -0.2694
  716MOL0    Cl94424   9.359   3.311   3.162 -0.2681  0.1718 -0.1573
  716MOL0     C94425   9.340   3.731   2.288 -0.1006  0.3202 -0.1380
  716MOL0     C94426   9.359   3.866   2.286  0.6283 -0.7211 -1.2103
  716MOL0     O94427   9.339   4.123   2.424 -0.0150 -0.4536  0.8230
  716MOL0     C94428   9.449   4.384   2.444 -0.6136  0.2731 -0.5377
  716MOL0     C94429   9.495   4.512   2.443 -0.0635  0.1228  0.5137
  716MOL0     N94430   9.411   5.137   2.363  0.1090 -0.3189 -0.5947
  716MOL0     N94431   9.328   5.227   2.402  0.1521  0.4955  0.0693
  716MOL0     C94432   8.890   4.694   1.782  0.2372 -0.0645 -0.2238
  716MOL0     C94433   8.988   4.700   1.681 -0.7401 -0.2291 -0.2661
  716MOL0     C94434   9.283   4.911   1.417  0.6401  0.5292  0.4198
  716MOL0     C94435   9.259   4.993   1.307  0.6570 -0.0175 -0.0028
  716MOL0     C94436   9.359   5.009   1.203  0.6035  0.7139 -1.0247
  716MOL0     C94437   9.479   4.944   1.213 -0.2432 -0.3763 -0.4140
  716MOL0     O94438   9.569   4.962   1.114  0.1311 -0.0554 -0.0500
  716MOL0     C94439   9.614   5.097   1.094  0.6929  0.1933 -0.0576
  716MOL0     C94440   9.683   5.146   1.220  0.1362 -0.4954 -1.6270
  716MOL0     C94441   9.742   5.284   1.232 -0.5661  0.2951  0.1466
  716MOL0     C94442   9.741   5.331   1.382 -0.3698 -0.7366 -0.1813
  716MOL0     C94443   9.845   5.257   1.460 -0.2993 -1.1067 -0.5576
  716MOL0     C94444   9.923   5.191   1.521  0.4576  0.3595 -0.7882
  716MOL0     C94445   9.506   4.858   1.320  0.2706  0.0232 -0.4071
  716MOL0     C94446   9.408   4.842   1.412  0.5937  0.0296 -0.0470
  716MOL0     H94447   9.215   4.901   1.836  0.8709 -2.0746 -2.0213
  716MOL0     H94448   9.048   4.883   2.018 -0.1388  2.7670 -0.8938
  716MOL0     H94449   8.870   4.901   2.121 -0.7463  1.6370  0.5730
  716MOL0     H94450   8.716   4.825   2.167  2.3946 -3.0261  0.3098
  716MOL0     H94451   8.603   4.948   1.993 -1.2000  1.5429 -0.9416
  716MOL0     H94452   8.765   4.996   1.918 -0.4662 -0.8409 -0.5418
  716MOL0     H94453   8.768   5.105   2.183  0.5617 -1.4254  0.4281
  716MOL0     H94454   8.616   5.141   2.113 -0.3279 -0.9039  0.3321
  716MOL0     H94455   8.902   5.165   1.987  0.2233 -1.8206  0.5419
  716MOL0     H94456   8.758   5.215   1.905  1.5650  0.6640  0.9385
  716MOL0     H94457   8.696   5.369   2.074 -1.0226 -3.2608  0.4177
  716MOL0     H94458   8.831   5.410   1.971  1.3403 -1.0943 -0.9142
  716MOL0     H94459   8.843   5.340   2.270 -0.2088  1.4887  0.4501
  716MOL0     H94460   8.904   5.479   2.170  3.5443  0.4430  1.6651
  716MOL0     H94461   9.001   5.188   2.177 -1.0070 -0.3760  1.3941
  716MOL0     H94462   9.070   5.330   2.085 -1.7849  0.2012 -0.0492
  716MOL0     H94463   9.070   5.316   2.396 -0.0691  1.4181 -0.6290
  716MOL0     H94464   9.135   5.442   2.289 -1.7391  0.2019 -2.3507
  716MOL0     H94465   9.244   5.179   2.088 -0.4774 -0.2854  1.2462
  716MOL0     H94466   9.584   5.029   2.180  0.8960 -0.3674  0.6334
  716MOL0     H94467   9.472   5.026   2.049 -0.4528 -2.4620 -0.8017
  716MOL0     H94468   9.525   4.811   2.109 -1.2841 -1.8666 -0.3187
  716MOL0     H94469   9.347   4.836   2.114  0.0895 -0.9974 -1.4043
  716MOL0     H94470   9.385   4.876   2.356  1.0547  0.7479  0.7160
  716MOL0     H94471   9.386   4.711   2.297 -4.6545  3.2689 -0.7319
  716MOL0     H94472   9.572   4.787   2.481  1.0168 -0.1240 -0.2473
  716MOL0     H94473   9.636   4.892   2.362 -1.5015  1.2130 -0.5370
  716MOL0     H94474   9.703   4.496   2.179  1.8567 -0.4909  1.2237
  716MOL0     H94475   9.614   4.263   2.175 -3.3671 -2.4964  1.1032
  716MOL0     H94476   9.702   3.845   2.235  0.5170 -1.0144  0.4386
  716MOL0     H94477   9.654   3.622   2.208  0.4199  0.3583  1.0987
  716MOL0     H94478   9.236   3.404   2.288 -1.0717 -1.8719  1.9150
  716MOL0     H94479   9.246   3.522   2.419  0.7133  0.1496  1.2862
  716MOL0     H94480   9.452   3.362   2.493  0.1637 -0.8458  2.6274
  716MOL0     H94481   9.375   3.253   2.383 -0.7907  0.7333 -0.7209
  716MOL0     H94482   9.307   3.200   2.604 -2.3227 -2.1254 -0.9879
  716MOL0     H94483   9.167   3.276   2.530 -1.1014  2.0337  2.0237
  716MOL0     H94484   9.364   3.448   2.684 -0.4165 -0.9792  3.0228
  716MOL0     H94485   9.192   3.477   2.635 -0.1688  0.5314  0.9433
  716MOL0     H94486   9.291   3.282   2.833  2.6905  1.0448 -4.2320
  716MOL0     H94487   9.120   3.310   2.806 -0.6080  0.9907  0.9328
  716MOL0     H94488   9.160   3.555   2.874  0.6128  1.1743 -0.3494
  716MOL0     H94489   9.312   3.507   2.931 -2.1443  2.0551  2.7361
  716MOL0     H94490   9.147   3.518   3.107 -0.2710 -0.2723  1.1222
  716MOL0     H94491   9.034   3.417   3.011 -0.7431 -0.1263  0.7124
  716MOL0     H94492   9.193   3.227   3.035  0.0183  1.3874 -1.6706
  716MOL0     H94493   9.130   3.268   3.190  0.5179 -1.9163 -0.9560
  716MOL0     H94494   9.239   3.691   2.291 -0.3871  0.9102 -1.3053
  716MOL0     H94495   9.273   3.931   2.298  1.2419  0.0822 -1.1193
  716MOL0     H94496   9.384   4.364   2.529 -1.2820  1.2163 -0.8085
  716MOL0     H94497   9.458   4.582   2.517 -0.1737 -0.2719  0.8369
  716MOL0     H94498   8.796   4.641   1.771 -0.9809  1.6350  1.3541
  716MOL0     H94499   8.961   4.665   1.582  0.3363 -0.6728 -0.4092
  716MOL0     H94500   9.168   5.053   1.317  1.2272  0.4629  3.5763
  716MOL0     H94501   9.335   5.082   1.126 -1.9438  0.4509 -0.5671
  716MOL0     H94502   9.526   5.159   1.074 -2.2388 -4.2592 -2.6548
  716MOL0     H94503   9.679   5.111   1.008 -1.7248  2.4057 -1.6854
  716MOL0     H94504   9.616   5.148   1.307  2.1455 -0.0256  0.0119
  716MOL0     H94505   9.754   5.071   1.255  0.4166  0.4842  0.0353
  716MOL0     H94506   9.683   5.363   1.185  0.2475  1.6934  1.3726
  716MOL0     H94507   9.846   5.278   1.200  0.3876 -2.8682  3.2179
  716MOL0     H94508   9.752   5.440   1.378  2.4469 -0.9687 -2.2470
  716MOL0     H94509   9.643   5.313   1.428 -0.4139  2.2255  1.1256
  716MOL0     H94510   9.994   5.127   1.569 -0.0431  0.5115  0.1860
  716MOL0     H94511   9.597   4.801   1.310  1.6235  2.3998 -3.2235
  716MOL0     H94512   9.416   4.776   1.497  0.5358 -0.3553 -0.3376
  717MOL0     O94513   0.205   9.339   4.835  0.3113 -0.1990 -0.5782
  717MOL0     C94514   0.220   9.441   4.899  1.4098 -0.6675 -0.5099
  717MOL0     O94515   0.135   9.506   4.981 -0.1844 -0.4466 -0.4479
  717MOL0     C94516  -0.001   9.466   4.981 -0.6987 -0.4557  0.1769
  717MOL0     C94517  -0.076   9.449   4.872 -0.0029 -0.9932  1.0734
  717MOL0     C94518  -0.207   9.399   4.871 -0.0233 -0.2533 -0.4329
  717MOL0     C94519  -0.271   9.370   4.994 -0.0981 -0.3165  0.8386
  717MOL0     O94520  -0.399   9.328   5.008 -0.4762 -0.3693 -0.1133
  717MOL0     C94521  -0.442   9.236   4.906  0.3464  0.0313  0.7671
  717MOL0     C94522  -0.595   9.239   4.896 -0.4594  0.3125  0.9315
  717MOL0     C94523  -0.646   9.146   5.000  0.3917  0.0972 -0.2404
  717MOL0     C94524  -0.799   9.118   5.002 -0.0529 -1.3467  1.2855
  717MOL0     C94525  -0.855   9.035   5.111 -0.3061  0.3525  1.1210
  717MOL0     C94526  -0.815   8.894   5.109 -0.1115 -0.3852 -0.7400
  717MOL0     C94527  -0.879   8.805   5.216  0.1577  0.1894  0.0930
  717MOL0     C94528  -0.833   8.654   5.214  0.1494  0.1429 -1.1605
  717MOL0     N94529  -0.939   8.562   5.208 -0.1564  0.3892  0.6782
  717MOL0     C94530  -1.061   8.570   5.135 -0.6830 -0.0472 -0.0061
  717MOL0     C94531  -1.109   8.448   5.166  0.1857  0.4505 -0.1462
  717MOL0     C94532  -1.248   8.410   5.093  0.4376  0.8368  0.7244
  717MOL0     C94533  -1.354   8.394   5.198  0.0729  1.0507 -0.7952
  717MOL0     C94534  -1.338   8.272   5.292 -0.2252 -0.0586  0.0605
  717MOL0     C94535  -1.313   8.142   5.222 -0.1804 -0.2868  0.3576
  717MOL0     O94536  -1.400   8.126   5.109 -0.1299  0.0596 -0.2649
  717MOL0     C94537  -1.528   8.086   5.127 -0.1946 -0.1935 -0.1987
  717MOL0     C94538  -1.586   8.042   5.252  0.5792 -0.8257 -0.3137
  717MOL0     C94539  -1.722   8.025   5.276  0.1302 -0.3985 -0.2375
  717MOL0     C94540  -1.803   8.035   5.163  0.0724 -0.4774  0.4868
  717MOL0     C94541  -1.945   7.999   5.184  0.4133 -0.4576  0.5130
  717MOL0     O94542  -2.000   7.943   5.070 -0.7381 -0.3703  0.0709
  717MOL0     C94543  -2.127   7.901   5.055  0.1291 -0.0409  0.6650
  717MOL0     C94544  -2.156   7.825   4.948 -0.4688 -0.3197  0.7173
  717MOL0     C94545  -2.282   7.787   4.907 -0.1689 -0.0969 -0.3105
  717MOL0     C94546  -2.396   7.815   4.979 -0.9064 -0.0263 -0.6558
  717MOL0     O94547  -2.520   7.772   4.941 -0.0128 -0.0201  0.1464
  717MOL0     C94548  -2.536   7.657   4.852  0.1299  0.1905  0.0298
  717MOL0     C94549  -2.667   7.582   4.885  0.8259  0.3976 -0.3410
  717MOL0     C94550  -2.677   7.425   4.875  0.4389 -0.5331  0.3081
  717MOL0     C94551  -2.628   7.382   4.731 -1.0990  0.6497  0.4497
  717MOL0     C94552  -2.658   7.246   4.690 -0.7032 -0.6802 -0.0915
  717MOL0     C94553  -2.810   7.221   4.671 -0.6497  0.4571 -0.0314
  717MOL0     C94554  -2.825   7.077   4.615  0.3230  0.2922 -0.3005
  717MOL0     C94555  -2.975   7.046   4.601  0.9561  0.4650 -0.4341
  717MOL0    Cl94556  -3.065   6.996   4.749  0.4272  0.1224 -0.0510
  717MOL0     C94557  -2.363   7.882   5.100  0.7571  0.2065 -0.6984
  717MOL0     C94558  -2.244   7.941   5.137 -0.1988  1.2290  0.0500
  717MOL0     O94559  -1.996   8.000   5.291 -0.2738 -1.0309  0.1994
  717MOL0     C94560  -1.743   8.054   5.037  0.2168  0.3353  0.0710
  717MOL0     C94561  -1.617   8.086   5.020 -0.4878 -0.5167  0.6752
  717MOL0     N94562  -1.016   8.362   5.230 -0.5780 -0.3620 -0.4177
  717MOL0     N94563  -0.909   8.441   5.264  0.1119 -0.2823 -0.0909
  717MOL0     C94564  -0.197   9.398   5.105 -0.0431  0.5196 -0.1080
  717MOL0     C94565  -0.066   9.446   5.105 -0.2683  0.4316  0.0528
  717MOL0     C94566   0.347   9.511   4.881  0.3078 -0.3789  0.6384
  717MOL0     C94567   0.376   9.626   4.944  0.3665  0.3210 -0.9823
  717MOL0     C94568   0.509   9.677   4.952 -0.0919 -1.1495 -0.0926
  717MOL0     C94569   0.615   9.597   4.891 -0.2619 -0.3691  0.2729
  717MOL0     O94570   0.755   9.630   4.877  0.2056 -0.4630 -0.0250
  717MOL0     C94571   0.786   9.760   4.926 -0.5392  0.5292 -0.9213
  717MOL0     C94572   0.806   9.740   5.088 -0.5114 -0.7976 -0.2233
  717MOL0     C94573   0.860   9.868   5.149  0.4198  0.1281 -0.2924
  717MOL0     C94574   0.871   9.855   5.301  0.0056 -0.5200 -0.8542
  717MOL0     C94575   0.932   9.971   5.353  0.6282  0.4228  0.5060
  717MOL0     C94576   0.983  10.069   5.402 -0.0856 -0.4425  0.4751
  717MOL0     C94577   0.584   9.485   4.816  0.2854 -0.5450 -0.5974
  717MOL0     C94578   0.459   9.440   4.818  0.1155  0.2604 -0.2885
  717MOL0     H94579  -0.021   9.484   4.785  0.6030  2.0002  2.5224
  717MOL0     H94580  -0.245   9.387   4.770  1.3677  1.8184 -1.2831
  717MOL0     H94581  -0.393   9.142   4.931  1.7897  0.1348 -1.3777
  717MOL0     H94582  -0.410   9.259   4.804  0.7735  0.1124  0.9164
  717MOL0     H94583  -0.614   9.198   4.796  1.3190  2.4893 -0.3841
  717MOL0     H94584  -0.636   9.340   4.892  0.8606  0.8296 -1.8050
  717MOL0     H94585  -0.622   9.185   5.099  0.6817 -0.7245  0.0209
  717MOL0     H94586  -0.590   9.053   4.990  1.6403  0.6204  1.4736
  717MOL0     H94587  -0.845   9.217   5.010 -0.0758 -1.2291 -0.1493
  717MOL0     H94588  -0.814   9.075   4.903 -1.5549  1.4988  0.1575
  717MOL0     H94589  -0.964   9.049   5.112 -0.0679  2.4812  1.5529
  717MOL0     H94590  -0.830   9.083   5.206 -1.1323  1.4927  0.7746
  717MOL0     H94591  -0.706   8.889   5.117 -0.2435 -0.6952  2.0310
  717MOL0     H94592  -0.837   8.841   5.016 -2.8169 -0.8188  0.0588
  717MOL0     H94593  -0.841   8.840   5.313  3.1961  0.7262 -1.1662
  717MOL0     H94594  -0.988   8.814   5.210  0.1644  0.5426  0.4358
  717MOL0     H94595  -0.779   8.624   5.304  0.2654  2.4250 -0.4214
  717MOL0     H94596  -0.769   8.625   5.130  3.0234 -0.1590  0.9704
  717MOL0     H94597  -1.106   8.650   5.076  0.0054  1.0920  0.9776
  717MOL0     H94598  -1.233   8.319   5.036  0.5542  0.3539  1.5024
  717MOL0     H94599  -1.282   8.488   5.025 -0.3964 -0.7515 -0.7379
  717MOL0     H94600  -1.445   8.375   5.140  1.0856 -2.7469 -1.4066
  717MOL0     H94601  -1.373   8.487   5.252 -2.5953 -1.6324  3.4245
  717MOL0     H94602  -1.249   8.296   5.351  1.1411  0.3767 -2.0843
  717MOL0     H94603  -1.426   8.263   5.356 -0.6348 -0.3630 -0.5381
  717MOL0     H94604  -1.319   8.059   5.292 -0.7603 -0.0925  0.5427
  717MOL0     H94605  -1.210   8.153   5.186  0.3967 -3.6022  0.6884
  717MOL0     H94606  -1.524   8.037   5.341 -1.2075 -0.5591  0.9999
  717MOL0     H94607  -1.748   8.014   5.381  4.0519  1.6409  1.1604
  717MOL0     H94608  -2.081   7.820   4.871 -0.6485  0.8350  0.4455
  717MOL0     H94609  -2.270   7.735   4.813  0.3168 -2.6812  1.0690
  717MOL0     H94610  -2.456   7.584   4.871  0.8566  1.1441  0.7470
  717MOL0     H94611  -2.520   7.679   4.746 -0.6087  0.7334  0.0268
  717MOL0     H94612  -2.749   7.635   4.836  0.4120  1.1167  1.0689
  717MOL0     H94613  -2.689   7.581   4.992  3.3308 -1.4834  0.2172
  717MOL0     H94614  -2.782   7.407   4.902 -0.8148  4.0564 -0.7091
  717MOL0     H94615  -2.629   7.377   4.961 -0.4962  0.8794  1.6855
  717MOL0     H94616  -2.680   7.446   4.660  0.6083  1.2020 -0.3667
  717MOL0     H94617  -2.520   7.399   4.726 -1.1604  0.7692 -0.8162
  717MOL0     H94618  -2.612   7.173   4.758 -1.9775  0.1975  1.7962
  717MOL0     H94619  -2.617   7.235   4.589 -2.0173 -0.6640 -0.6528
  717MOL0     H94620  -2.839   7.290   4.591 -1.3302 -0.5085 -0.6481
  717MOL0     H94621  -2.868   7.231   4.763 -0.1682 -1.1044  0.4717
  717MOL0     H94622  -2.769   7.064   4.523  1.6578  1.2571  0.3509
  717MOL0     H94623  -2.787   6.999   4.682  1.7596 -0.2869 -1.7443
  717MOL0     H94624  -2.986   6.962   4.532  1.6302  1.1046 -1.3427
  717MOL0     H94625  -3.030   7.130   4.558 -0.6136 -0.7500 -0.8751
  717MOL0     H94626  -2.444   7.901   5.169 -0.5998 -1.2160 -1.8404
  717MOL0     H94627  -2.243   8.011   5.221  2.6401 -0.4351  1.5550
  717MOL0     H94628  -1.808   8.066   4.951  0.8971  2.6477 -0.1933
  717MOL0     H94629  -1.579   8.116   4.923  0.2759 -0.4607  0.9832
  717MOL0     H94630  -0.252   9.365   5.192  0.9426 -0.2336  0.2482
  717MOL0     H94631  -0.012   9.467   5.196 -1.2027  2.1800  0.2491
  717MOL0     H94632   0.296   9.677   4.996  0.7453 -1.0414  1.0858
  717MOL0     H94633   0.523   9.767   5.011 -2.3965 -1.6445  1.3195
  717MOL0     H94634   0.711   9.839   4.914 -2.1496 -0.1902  2.8527
  717MOL0     H94635   0.882   9.795   4.889  0.6216 -0.9593  0.5367
  717MOL0     H94636   0.714   9.702   5.133 -0.2585 -1.0739  0.0657
  717MOL0     H94637   0.891   9.671   5.091  1.1823  1.1873 -0.1042
  717MOL0     H94638   0.791   9.950   5.130  0.1452  0.9236  3.4121
  717MOL0     H94639   0.954   9.891   5.098  0.5986 -2.3555 -1.2175
  717MOL0     H94640   0.768   9.850   5.339  1.1079 -0.9649  2.3641
  717MOL0     H94641   0.933   9.766   5.318  1.8169  0.7343 -0.5899
  717MOL0     H94642   1.046  10.148   5.440 -0.8455  0.8858 -0.9132
  717MOL0     H94643   0.666   9.431   4.770  0.7342  0.9451 -1.6298
  717MOL0     H94644   0.429   9.344   4.778 -2.7046  0.4969  1.0896
  718MOL0     O94645   9.593   9.178   4.996  0.2437  0.2148 -0.6848
  718MOL0     C94646   9.479   9.141   4.974  0.0492 -0.2594  0.1239
  718MOL0     O94647   9.371   9.191   5.041 -0.6699 -0.5634 -0.9590
  718MOL0     C94648   9.386   9.293   5.137 -0.0422  0.4759  0.1816
  718MOL0     C94649   9.450   9.265   5.260  0.1349 -0.2146  0.2556
  718MOL0     C94650   9.426   9.356   5.366  0.0083  0.1470 -0.4445
  718MOL0     C94651   9.353   9.469   5.344 -0.0497 -1.4500 -1.2852
  718MOL0     O94652   9.332   9.570   5.444 -0.0045  0.4460  0.2921
  718MOL0     C94653   9.437   9.593   5.544 -0.4404  0.0326  0.2989
  718MOL0     C94654   9.414   9.737   5.580  0.3800 -0.7793  0.5525
  718MOL0     C94655   9.421   9.837   5.471 -0.3203  0.0097  0.9831
  718MOL0     C94656   9.422   9.983   5.509  0.8317  0.4783  0.3078
  718MOL0     C94657   9.387  10.073   5.398 -0.0485  0.1903  0.9703
  718MOL0     C94658   9.420  10.217   5.418 -0.0102  0.3612 -0.0347
  718MOL0     C94659   9.332  10.272   5.536  0.2287  0.7143  0.4264
  718MOL0     C94660   9.314  10.425   5.548  0.4037  0.2622  0.0897
  718MOL0     N94661   9.437  10.490   5.599 -0.0688 -0.4251 -0.2366
  718MOL0     C94662   9.553  10.495   5.523  0.4275 -0.3866 -0.3782
  718MOL0     C94663   9.638  10.567   5.606  0.9562  0.2971  0.6414
  718MOL0     C94664   9.785  10.595   5.601 -0.1259  0.8072  1.0958
  718MOL0     C94665   9.812  10.744   5.561  0.8900 -0.8081 -0.0622
  718MOL0     C94666   9.964  10.787   5.551  0.2273 -0.4998 -0.4407
  718MOL0     C94667  10.053  10.763   5.682  0.2131  0.1321 -0.5581
  718MOL0     O94668   9.993  10.819   5.801 -0.2871  0.3231 -0.5338
  718MOL0     C94669  10.068  10.836   5.913  1.0916  0.4520  1.0629
  718MOL0     C94670   9.995  10.855   6.029 -0.2161  0.6057 -0.2704
  718MOL0     C94671  10.059  10.873   6.151 -0.4542  0.4761 -0.0478
  718MOL0     C94672  10.192  10.875   6.166 -0.4273 -0.7273  1.0012
  718MOL0     C94673  10.251  10.892   6.301  1.1225  1.0172 -0.3094
  718MOL0     O94674  10.166  10.870   6.411  0.4835 -0.2944  0.6816
  718MOL0     C94675  10.219  10.889   6.537 -0.3224  0.2054  0.0172
  718MOL0     C94676  10.144  10.951   6.638  0.4760  0.0930  0.2302
  718MOL0     C94677  10.174  10.954   6.777  0.1652  1.1051  0.6392
  718MOL0     C94678  10.301  10.904   6.806 -0.0373  0.4915  0.4252
  718MOL0     O94679  10.352  10.907   6.932 -0.2338 -0.4594 -0.2049
  718MOL0     C94680  10.319  11.014   7.020  0.0132 -0.4531 -0.1238
  718MOL0     C94681  10.447  11.085   7.076  0.8394  0.3498  0.0862
  718MOL0     C94682  10.425  11.197   7.187  0.5825 -0.1341  0.3568
  718MOL0     C94683  10.565  11.230   7.250  0.2239 -0.8319  0.3739
  718MOL0     C94684  10.677  11.247   7.150 -0.7610  1.1313 -0.4770
  718MOL0     C94685  10.791  11.327   7.211 -0.5877  0.1321  0.1978
  718MOL0     C94686  10.920  11.313   7.127  0.2285  0.5014 -0.4824
  718MOL0     C94687  11.019  11.394   7.194  0.4255 -0.0011  0.6776
  718MOL0    Cl94688  11.188  11.384   7.130  0.8482  0.1064  0.4833
  718MOL0     C94689  10.378  10.833   6.711 -0.1931  0.3129 -0.6095
  718MOL0     C94690  10.326  10.823   6.587 -0.4245  0.3002  0.2215
  718MOL0     O94691  10.364  10.943   6.309  0.0469  1.2485  0.8816
  718MOL0     C94692  10.267  10.874   6.043  0.9626  0.4809 -0.1823
  718MOL0     C94693  10.208  10.854   5.925 -0.1842 -0.5291  0.5083
  718MOL0     N94694   9.566  10.625   5.710 -0.4673  0.4092 -0.1222
  718MOL0     N94695   9.448  10.570   5.705 -0.7836  0.1659 -0.0988
  718MOL0     C94696   9.306   9.499   5.220 -0.1497 -0.0510 -0.3851
  718MOL0     C94697   9.317   9.410   5.114 -0.2951  0.5681  0.3555
  718MOL0     C94698   9.456   9.043   4.862 -0.5196 -0.9312 -0.0536
  718MOL0     C94699   9.333   9.017   4.816  0.0838  0.4834 -0.1421
  718MOL0     C94700   9.319   8.920   4.723  0.9427  0.5986 -0.0897
  718MOL0     C94701   9.419   8.848   4.663  0.5366  0.2359  0.5916
  718MOL0     O94702   9.394   8.746   4.573 -0.6360  0.1816  0.1823
  718MOL0     C94703   9.263   8.724   4.529  0.0560 -0.0147 -0.2187
  718MOL0     C94704   9.260   8.639   4.409 -0.0314 -0.0468  0.4131
  718MOL0     C94705   9.123   8.599   4.376  0.5085  0.0126  0.2207
  718MOL0     C94706   9.114   8.528   4.244  0.1829  0.3918  0.3516
  718MOL0     C94707   9.157   8.615   4.138 -0.9146 -0.1686  0.0003
  718MOL0     C94708   9.152   8.699   4.051  0.2077  1.0501  0.1105
  718MOL0     C94709   9.547   8.883   4.700 -0.4665  0.2602 -0.0307
  718MOL0     C94710   9.564   8.977   4.799  0.2068 -0.9611  0.3189
  718MOL0     H94711   9.507   9.174   5.271  1.5083  0.4218 -1.2826
  718MOL0     H94712   9.468   9.331   5.463  2.5392 -2.0001 -1.9496
  718MOL0     H94713   9.531   9.573   5.491 -0.0304  0.5509  0.8058
  718MOL0     H94714   9.452   9.531   5.633 -0.5242 -1.6459 -0.8128
  718MOL0     H94715   9.485   9.771   5.656  0.3589 -0.5191  0.4571
  718MOL0     H94716   9.314   9.755   5.622  0.9624  2.3412  0.9033
  718MOL0     H94717   9.334   9.823   5.406 -0.1122  2.7879 -0.0402
  718MOL0     H94718   9.511   9.822   5.412  0.8496  0.6634  2.5236
  718MOL0     H94719   9.346  10.001   5.586  0.4851  1.2087 -0.1957
  718MOL0     H94720   9.518  10.009   5.554  0.0459  1.9465  1.2200
  718MOL0     H94721   9.280  10.069   5.375 -0.0647 -2.8181  1.1957
  718MOL0     H94722   9.440  10.043   5.308 -0.7696 -4.2114  1.7848
  718MOL0     H94723   9.390  10.275   5.331 -0.1353  0.1013 -0.1648
  718MOL0     H94724   9.525  10.240   5.439 -1.2164  4.2419  2.9120
  718MOL0     H94725   9.229  10.235   5.529  0.3320  0.6859 -2.1979
  718MOL0     H94726   9.368  10.238   5.633  0.1608  0.4506  0.3600
  718MOL0     H94727   9.232  10.452   5.616 -0.4797  0.7530 -1.1492
  718MOL0     H94728   9.277  10.475   5.458 -1.0821 -0.6568  0.1508
  718MOL0     H94729   9.592  10.436   5.440  2.4983  1.3768 -0.7664
  718MOL0     H94730   9.834  10.530   5.528 -1.2187 -2.2119  2.8880
  718MOL0     H94731   9.833  10.573   5.697 -0.0364  0.4235  0.9629
  718MOL0     H94732   9.768  10.809   5.637  0.1322  1.3521 -2.2224
  718MOL0     H94733   9.766  10.774   5.467  1.4519  2.9686  0.6929
  718MOL0     H94734  10.024  10.744   5.470  0.6767 -2.3671  0.7998
  718MOL0     H94735   9.951  10.895   5.540 -1.4136 -0.4572  1.3936
  718MOL0     H94736  10.151  10.809   5.663 -0.4427  1.2665 -1.3169
  718MOL0     H94737  10.057  10.657   5.707  0.1643 -0.4122 -2.6488
  718MOL0     H94738   9.889  10.872   6.012  0.5292  4.6198 -2.1717
  718MOL0     H94739   9.985  10.876   6.230 -3.0601 -3.3472 -2.0422
  718MOL0     H94740  10.043  10.978   6.608  0.9087 -0.2559 -1.6836
  718MOL0     H94741  10.109  10.994   6.855 -1.7310 -0.1255 -0.2446
  718MOL0     H94742  10.275  10.976   7.112  2.8929  0.5149  1.8146
  718MOL0     H94743  10.258  11.096   6.981  0.1282 -0.0627  0.5035
  718MOL0     H94744  10.507  11.125   6.995 -0.1461  1.0365 -0.3268
  718MOL0     H94745  10.494  10.998   7.123 -0.3108  0.4007  1.4169
  718MOL0     H94746  10.351  11.173   7.264  0.0680  3.4665  1.1916
  718MOL0     H94747  10.384  11.284   7.135 -3.4395 -2.8760 -1.6280
  718MOL0     H94748  10.560  11.323   7.307 -1.8388 -1.6640  1.6819
  718MOL0     H94749  10.600  11.151   7.317 -0.5015 -3.8959 -2.5511
  718MOL0     H94750  10.633  11.305   7.069 -0.9136  1.0105 -0.4803
  718MOL0     H94751  10.712  11.151   7.112 -2.6360  1.4695 -3.3983
  718MOL0     H94752  10.807  11.272   7.304 -1.6491  1.2298  1.0656
  718MOL0     H94753  10.764  11.432   7.225 -2.9204 -0.1945 -1.2538
  718MOL0     H94754  10.957  11.210   7.126  2.6515  1.3000 -1.3353
  718MOL0     H94755  10.908  11.343   7.022  1.2970  0.3112 -0.6726
  718MOL0     H94756  11.019  11.382   7.302  0.2077  2.3198  0.9793
  718MOL0     H94757  11.003  11.500   7.176  3.1135  0.1938 -1.2237
  718MOL0     H94758  10.476  10.796   6.738 -0.0539 -0.6645 -2.3033
  718MOL0     H94759  10.384  10.757   6.524 -0.0001  0.2274  0.6860
  718MOL0     H94760  10.374  10.883   6.059  0.4079  2.5473  3.4149
  718MOL0     H94761  10.285  10.848   5.848  1.0808  0.4644  1.6441
  718MOL0     H94762   9.259   9.596   5.206 -2.5250 -0.9461  0.8850
  718MOL0     H94763   9.264   9.427   5.020 -3.9662 -4.5762  1.1114
  718MOL0     H94764   9.248   9.069   4.860  0.6401  0.5733  0.8653
  718MOL0     H94765   9.215   8.904   4.694  0.5849 -1.3111  1.9951
  718MOL0     H94766   9.224   8.821   4.497  1.9934  0.1411 -2.3812
  718MOL0     H94767   9.199   8.690   4.611 -0.6195 -0.8833 -1.0718
  718MOL0     H94768   9.302   8.689   4.322 -0.5914  2.0607  1.2915
  718MOL0     H94769   9.309   8.542   4.428 -2.0720 -1.1750  0.2014
  718MOL0     H94770   9.073   8.696   4.371  2.3410  0.9728 -1.0312
  718MOL0     H94771   9.076   8.536   4.452 -1.6708  2.6218  1.1676
  718MOL0     H94772   9.181   8.442   4.236  1.0248  0.8888  1.6418
  718MOL0     H94773   9.011   8.495   4.227  0.3568  1.2801 -2.9327
  718MOL0     H94774   9.144   8.754   3.959 -2.3058 -0.7764 -0.8881
  718MOL0     H94775   9.631   8.838   4.649 -0.2053  1.7874 -0.9949
  718MOL0     H94776   9.666   9.015   4.806 -0.1630  0.4616 -1.4510
  719MOL0     O94777   5.689   2.066   8.306 -0.1262  0.1160  0.3641
  719MOL0     C94778   5.763   1.969   8.274 -0.0620 -1.0434  0.6600
  719MOL0     O94779   5.874   1.919   8.338  0.0348  0.1660 -0.2083
  719MOL0     C94780   5.953   1.976   8.431 -0.2450 -0.7523  0.8039
  719MOL0     C94781   5.911   2.088   8.509  0.9702  0.5086  0.2116
  719MOL0     C94782   5.995   2.155   8.593 -0.3198  0.5144 -0.8782
  719MOL0     C94783   6.124   2.110   8.609 -0.0240  0.0877 -0.6124
  719MOL0     O94784   6.203   2.161   8.710  0.3605 -0.0420 -0.3067
  719MOL0     C94785   6.302   2.258   8.662 -0.9350 -0.3619  0.3360
  719MOL0     C94786   6.425   2.240   8.754  0.1143 -0.1782  0.0308
  719MOL0     C94787   6.390   2.285   8.893  0.6681 -0.6831  0.0145
  719MOL0     C94788   6.405   2.440   8.923 -0.3434 -0.4444 -0.4085
  719MOL0     C94789   6.322   2.497   9.037  0.5459 -0.9789 -0.8207
  719MOL0     C94790   6.352   2.433   9.178 -0.4427  0.5045  0.1412
  719MOL0     C94791   6.252   2.484   9.276 -0.3046  0.0697 -0.2126
  719MOL0     C94792   6.297   2.453   9.420 -0.2481  0.7624  0.6347
  719MOL0     N94793   6.381   2.560   9.483  0.2341  0.3203 -0.5235
  719MOL0     C94794   6.510   2.597   9.462  0.1173  0.5008 -0.6499
  719MOL0     C94795   6.524   2.712   9.525 -0.3602  0.9200  0.1298
  719MOL0     C94796   6.652   2.799   9.536 -0.1255  1.6036  0.3591
  719MOL0     C94797   6.685   2.806   9.686 -0.0241  0.3559  0.0097
  719MOL0     C94798   6.816   2.883   9.707 -1.6129 -0.4602  0.2702
  719MOL0     C94799   6.852   2.900   9.859 -0.1195 -0.4671  0.6478
  719MOL0     O94800   6.884   2.775   9.901  0.1334  0.7220 -0.4173
  719MOL0     C94801   6.942   2.765  10.021  0.0098 -0.0524 -0.2487
  719MOL0     C94802   7.024   2.650  10.039 -0.4553  0.5520 -1.3086
  719MOL0     C94803   7.079   2.633  10.169  0.2632 -0.4125 -0.4711
  719MOL0     C94804   7.045   2.718  10.276 -0.3809 -0.8695  0.6963
  719MOL0     C94805   7.106   2.687  10.408 -0.4596  0.4960  0.0733
  719MOL0     O94806   7.192   2.589  10.420 -0.4888 -0.1591  0.7394
  719MOL0     C94807   7.242   2.555  10.544 -0.5375  0.2283  0.7455
  719MOL0     C94808   7.379   2.543  10.541 -0.4303  0.6988 -0.3615
  719MOL0     C94809   7.450   2.520  10.657  0.2089  0.7329 -0.2895
  719MOL0     C94810   7.382   2.520  10.783 -0.2980  0.6000 -0.5303
  719MOL0     O94811   7.453   2.489  10.898  0.0421  0.1107  0.2783
  719MOL0     C94812   7.398   2.371  10.962 -0.8398 -0.5908 -0.6974
  719MOL0     C94813   7.445   2.260  10.864  0.2709  0.1483 -0.1086
  719MOL0     C94814   7.592   2.229  10.859 -0.6801  0.3174  0.2746
  719MOL0     C94815   7.620   2.135  10.745  0.8999  0.5305  0.0866
  719MOL0     C94816   7.663   2.001  10.793 -0.8062  0.0952 -0.6050
  719MOL0     C94817   7.678   1.890  10.697 -1.0010  0.1659  0.0795
  719MOL0     C94818   7.706   1.757  10.763 -0.5411  1.1267 -0.4748
  719MOL0     C94819   7.623   1.637  10.701 -0.1951  0.4074 -0.2159
  719MOL0    Cl94820   7.643   1.481  10.770  0.0800  0.5016  0.0869
  719MOL0     C94821   7.241   2.537  10.781 -0.1765 -0.0282  0.3475
  719MOL0     C94822   7.164   2.545  10.661 -0.5521  0.5150  0.6817
  719MOL0     O94823   7.070   2.761  10.497 -1.0094 -0.2420 -0.2776
  719MOL0     C94824   6.960   2.825  10.256  0.3170  0.2559 -0.4931
  719MOL0     C94825   6.914   2.850  10.132 -0.6170 -0.3503  0.2466
  719MOL0     N94826   6.396   2.743   9.566 -0.0183  0.2995  0.3424
  719MOL0     N94827   6.312   2.651   9.549 -0.5178 -0.1223 -0.8000
  719MOL0     C94828   6.173   2.016   8.520  0.1969 -0.3749  0.7430
  719MOL0     C94829   6.089   1.951   8.429 -0.4329  0.4157  0.1032
  719MOL0     C94830   5.730   1.899   8.156 -0.4229  0.1852  0.2275
  719MOL0     C94831   5.827   1.819   8.090  0.4796  0.3089  0.4180
  719MOL0     C94832   5.800   1.738   7.980 -0.3092  0.0357  1.0885
  719MOL0     C94833   5.671   1.740   7.926  0.2190 -0.6287  0.7528
  719MOL0     O94834   5.629   1.681   7.804  0.1314 -0.4347  0.0131
  719MOL0     C94835   5.717   1.572   7.756  0.6415 -0.4556  0.2483
  719MOL0     C94836   5.654   1.547   7.624  0.9609 -0.0297  1.7712
  719MOL0     C94837   5.726   1.444   7.544 -0.3617  0.0633 -0.6356
  719MOL0     C94838   5.674   1.447   7.401  0.2171  0.7605  0.2672
  719MOL0     C94839   5.786   1.397   7.331 -1.0350 -0.7453 -0.0834
  719MOL0     C94840   5.891   1.352   7.288 -0.1173 -0.3832 -0.5931
  719MOL0     C94841   5.575   1.809   7.998  0.2293 -0.1363 -0.2605
  719MOL0     C94842   5.596   1.881   8.111  0.7557 -0.6612  0.9653
  719MOL0     H94843   5.811   2.129   8.516 -0.6029 -3.0956  1.5111
  719MOL0     H94844   5.963   2.242   8.649 -2.2070 -1.6465  1.6558
  719MOL0     H94845   6.277   2.363   8.677  0.9256  0.0591  0.8117
  719MOL0     H94846   6.322   2.233   8.558 -1.1020 -0.5236  0.3416
  719MOL0     H94847   6.513   2.297   8.723 -0.4406  0.9505  0.4922
  719MOL0     H94848   6.449   2.133   8.763 -0.3001 -0.7521 -3.8691
  719MOL0     H94849   6.463   2.235   8.957 -0.7426 -0.9669  1.4645
  719MOL0     H94850   6.290   2.251   8.920 -0.8674  1.1645 -2.8681
  719MOL0     H94851   6.509   2.457   8.951 -0.9973  0.1073  1.9351
  719MOL0     H94852   6.386   2.487   8.826  2.1483  0.4388 -0.5403
  719MOL0     H94853   6.218   2.478   9.010  0.8976  1.9472 -5.2694
  719MOL0     H94854   6.339   2.605   9.039 -0.7808 -0.7490 -0.9674
  719MOL0     H94855   6.454   2.465   9.201 -0.9122  1.4375  1.0399
  719MOL0     H94856   6.356   2.324   9.179  2.6577  0.5143 -1.1418
  719MOL0     H94857   6.240   2.592   9.264  1.2503  0.3843  0.7495
  719MOL0     H94858   6.158   2.435   9.251  0.0971 -0.2284 -1.1741
  719MOL0     H94859   6.354   2.359   9.413 -0.4080  0.7721 -1.5176
  719MOL0     H94860   6.215   2.431   9.489  0.2421 -3.3395  0.2024
  719MOL0     H94861   6.582   2.536   9.408  1.0464 -0.6138  1.7572
  719MOL0     H94862   6.623   2.883   9.473 -0.3579 -0.3288 -2.2773
  719MOL0     H94863   6.740   2.752   9.490 -0.9844  0.3993 -0.1132
  719MOL0     H94864   6.704   2.709   9.734  1.9191  0.9402  0.5093
  719MOL0     H94865   6.603   2.845   9.746 -0.7714 -3.3634  1.7366
  719MOL0     H94866   6.897   2.839   9.647 -1.8915  1.2922 -1.4908
  719MOL0     H94867   6.815   2.984   9.664  1.4495  0.4680  2.0608
  719MOL0     H94868   6.779   2.944   9.928 -1.3021 -0.9537 -0.2595
  719MOL0     H94869   6.939   2.966   9.853 -2.5788  3.1597  1.6428
  719MOL0     H94870   7.077   2.586   9.969  0.7456  4.1299 -3.9704
  719MOL0     H94871   7.140   2.543  10.179  0.4109 -0.3447 -0.7660
  719MOL0     H94872   7.437   2.566  10.452 -0.9482  0.1251 -0.8564
  719MOL0     H94873   7.558   2.511  10.652  0.6353  3.8633  0.8871
  719MOL0     H94874   7.290   2.359  10.978 -1.1594  3.2936  1.4081
  719MOL0     H94875   7.442   2.361  11.061  2.3400  0.1553 -1.9080
  719MOL0     H94876   7.415   2.275  10.760  2.6587 -3.7599 -1.6080
  719MOL0     H94877   7.386   2.172  10.893  0.6790 -0.2883 -0.5865
  719MOL0     H94878   7.615   2.193  10.960 -1.4203  2.6081  1.3429
  719MOL0     H94879   7.644   2.324  10.842  0.9059 -0.8985 -2.1670
  719MOL0     H94880   7.528   2.115  10.689  0.3389  0.8812  0.8635
  719MOL0     H94881   7.694   2.177  10.676  0.5353  2.2344  0.6832
  719MOL0     H94882   7.587   1.967  10.864 -0.4049  1.8147  0.7232
  719MOL0     H94883   7.753   2.014  10.855 -2.8767 -1.8729  3.2030
  719MOL0     H94884   7.752   1.914  10.621  2.3558  0.9666  3.3292
  719MOL0     H94885   7.579   1.873  10.652 -0.2856 -0.8214 -1.1737
  719MOL0     H94886   7.811   1.731  10.750 -1.0402 -0.1154 -2.4628
  719MOL0     H94887   7.692   1.770  10.871  0.6335 -6.1220  1.0937
  719MOL0     H94888   7.650   1.626  10.595 -2.4470 -0.9467 -0.7107
  719MOL0     H94889   7.516   1.663  10.702 -0.2858  0.0335  1.4162
  719MOL0     H94890   7.186   2.529  10.875  0.3124 -0.1066  0.6323
  719MOL0     H94891   7.056   2.538  10.656 -0.7323  1.3293  2.7064
  719MOL0     H94892   6.928   2.883  10.341  4.6034  2.0638  0.1432
  719MOL0     H94893   6.868   2.947  10.116  0.0934  0.4008  2.3716
  719MOL0     H94894   6.277   1.985   8.518  1.1188  2.4092  0.2276
  719MOL0     H94895   6.149   1.881   8.372  0.3175 -1.1893  2.6916
  719MOL0     H94896   5.928   1.832   8.127  1.2020 -1.4033 -0.8077
  719MOL0     H94897   5.882   1.684   7.934  0.1620  1.2885  0.4078
  719MOL0     H94898   5.701   1.476   7.807 -2.1302 -1.1468 -1.6757
  719MOL0     H94899   5.822   1.601   7.748  0.6575 -0.6924 -0.4962
  719MOL0     H94900   5.550   1.516   7.636  0.6446  0.6522  0.9202
  719MOL0     H94901   5.657   1.645   7.575 -1.0858 -1.4148 -1.5027
  719MOL0     H94902   5.717   1.338   7.571  1.3780  0.1681  0.5209
  719MOL0     H94903   5.834   1.462   7.550 -0.6010  1.3378  0.2193
  719MOL0     H94904   5.592   1.379   7.378  1.4217 -0.1162 -1.6739
  719MOL0     H94905   5.651   1.543   7.355  3.9228  1.1909 -1.0611
  719MOL0     H94906   5.986   1.321   7.248  1.8611 -1.0248  4.0564
  719MOL0     H94907   5.478   1.812   7.948 -0.4017  0.9254  0.9821
  719MOL0     H94908   5.519   1.932   8.167  1.3308 -0.8809  1.9725
  720MOL0     O94909   6.580  10.683  10.940  0.5154  0.0680 -0.0124
  720MOL0     C94910   6.467  10.733  10.953  0.2374  0.0039 -0.7624
  720MOL0     O94911   6.348  10.671  10.922 -0.4630 -0.2181  0.0702
  720MOL0     C94912   6.351  10.549  10.871 -0.4430  0.3962  0.0997
  720MOL0     C94913   6.402  10.439  10.944 -0.4259 -0.8529 -0.5080
  720MOL0     C94914   6.418  10.312  10.886 -0.3737 -0.1001  1.0177
  720MOL0     C94915   6.386  10.296  10.746 -0.7256  0.3559 -0.7497
  720MOL0     O94916   6.412  10.178  10.670  0.5102 -0.1061 -0.2825
  720MOL0     C94917   6.485  10.066  10.725  0.2553  0.1824 -0.4658
  720MOL0     C94918   6.641  10.083  10.747 -0.3113 -0.6650 -0.3369
  720MOL0     C94919   6.701   9.948  10.789 -0.1662  0.8529  0.8033
  720MOL0     C94920   6.844   9.953  10.839  0.0296  0.8665 -0.0167
  720MOL0     C94921   6.887   9.805  10.869  0.8953  0.6012 -0.3896
  720MOL0     C94922   7.024   9.807  10.930 -0.6467 -1.2950 -0.6525
  720MOL0     C94923   7.073   9.664  10.971 -0.2903 -0.6771 -0.0643
  720MOL0     C94924   7.216   9.658  11.023 -0.5830 -0.3522  0.2675
  720MOL0     N94925   7.334   9.648  10.930  0.7082 -0.7740  0.1425
  720MOL0     C94926   7.369   9.737  10.834  1.0937  0.1391 -0.7218
  720MOL0     C94927   7.486   9.700  10.788  0.5808  0.8280 -0.4651
  720MOL0     C94928   7.564   9.755  10.673  0.3544  0.3644 -0.4402
  720MOL0     C94929   7.514   9.887  10.628  0.0198  0.5291  0.6124
  720MOL0     C94930   7.594   9.945  10.507 -0.5943 -0.0164 -1.0510
  720MOL0     C94931   7.568  10.090  10.470 -0.4986 -0.7356 -0.3761
  720MOL0     O94932   7.612  10.177  10.579  0.6520 -0.0479 -0.2522
  720MOL0     C94933   7.589  10.312  10.572  0.2450  0.1026  0.0288
  720MOL0     C94934   7.535  10.375  10.463 -0.9710 -0.4715 -0.7234
  720MOL0     C94935   7.516  10.518  10.465  0.0172 -0.0629  0.9964
  720MOL0     C94936   7.559  10.597  10.576 -0.0591  0.5775  0.5129
  720MOL0     C94937   7.542  10.739  10.576  0.1599 -0.4717 -0.0650
  720MOL0     O94938   7.558  10.798  10.692  0.0252  0.0703 -0.7414
  720MOL0     C94939   7.516  10.924  10.730  1.4790 -0.3483 -0.4318
  720MOL0     C94940   7.596  10.999  10.830  0.1592 -0.0590 -0.0884
  720MOL0     C94941   7.568  11.127  10.849  0.3353 -0.9821  0.0203
  720MOL0     C94942   7.446  11.178  10.808  0.0945 -0.3039 -0.5420
  720MOL0     O94943   7.419  11.307  10.848 -0.2798  0.5044 -0.8072
  720MOL0     C94944   7.292  11.376  10.818  0.4907  0.4052  0.4790
  720MOL0     C94945   7.265  11.487  10.916 -0.4666 -0.7681 -0.3272
  720MOL0     C94946   7.133  11.552  10.922 -0.4420 -0.0292  0.0322
  720MOL0     C94947   7.019  11.443  10.921  0.0975  0.3516  0.3741
  720MOL0     C94948   6.888  11.500  10.976  0.1411  0.1171 -0.0168
  720MOL0     C94949   6.841  11.620  10.885  0.2345 -0.2345  0.5062
  720MOL0     C94950   6.699  11.663  10.920 -0.1237 -0.1608 -0.2399
  720MOL0     C94951   6.632  11.716  10.795 -0.5157 -0.8283  0.3862
  720MOL0    Cl94952   6.468  11.770  10.827 -0.0272  0.3659  0.1066
  720MOL0     C94953   7.364  11.109  10.719  0.6010  0.3536 -0.8520
  720MOL0     C94954   7.399  10.981  10.687 -0.2814 -0.3574 -0.0864
  720MOL0     O94955   7.530  10.792  10.469  0.1619 -0.3175  0.6652
  720MOL0     C94956   7.621  10.521  10.677  0.9720  0.2546 -0.4144
  720MOL0     C94957   7.635  10.387  10.679 -0.0285  0.2349  0.1896
  720MOL0     N94958   7.522   9.591  10.863  0.2434 -0.9757  0.3075
  720MOL0     N94959   7.429   9.562  10.947 -0.0724  0.1102 -0.4702
  720MOL0     C94960   6.347  10.407  10.673  0.4949  0.7905 -0.0556
  720MOL0     C94961   6.325  10.527  10.737  0.4308  0.2941  0.5217
  720MOL0     C94962   6.460  10.872  11.001 -0.6286 -0.4731  0.0731
  720MOL0     C94963   6.335  10.940  11.020  0.0751 -0.8128  0.0294
  720MOL0     C94964   6.327  11.078  11.050 -1.1555  0.6660 -0.1897
  720MOL0     C94965   6.453  11.151  11.087 -0.2948 -0.5701  0.2427
  720MOL0     O94966   6.430  11.290  11.101 -0.5123  0.1119  0.0984
  720MOL0     C94967   6.538  11.364  11.174 -0.1945  0.5467  0.3114
  720MOL0     C94968   6.477  11.476  11.262  0.3265 -0.0889 -0.0658
  720MOL0     C94969   6.400  11.578  11.170 -0.3184  0.4454 -0.0337
  720MOL0     C94970   6.245  11.546  11.160  0.5011  0.9075 -0.4729
  720MOL0     C94971   6.187  11.548  11.295  0.7073  0.7837  0.4903
  720MOL0     C94972   6.145  11.537  11.409  0.6893  0.1036  0.3213
  720MOL0     C94973   6.573  11.080  11.078  0.5027 -1.0073  0.0934
  720MOL0     C94974   6.571  10.952  11.030  0.1793  0.9586 -0.5363
  720MOL0     H94975   6.435  10.449  11.047  2.4085  1.6120 -1.5404
  720MOL0     H94976   6.453  10.240  10.959  1.8770 -0.2248 -0.0972
  720MOL0     H94977   6.474   9.977  10.661  0.0516 -0.8512  0.9648
  720MOL0     H94978   6.434  10.050  10.820 -1.0883  1.7247 -0.8894
  720MOL0     H94979   6.652  10.158  10.826 -2.3471 -0.1537 -0.4862
  720MOL0     H94980   6.693  10.114  10.655 -2.1971  1.2543 -0.8658
  720MOL0     H94981   6.706   9.890  10.696 -3.7399 -1.1339  1.7010
  720MOL0     H94982   6.641   9.897  10.864  0.6683 -1.7002 -0.1740
  720MOL0     H94983   6.907   9.994  10.759  1.9008  0.6029  1.2465
  720MOL0     H94984   6.848  10.013  10.930 -0.6246 -0.5784  1.0059
  720MOL0     H94985   6.884   9.746  10.776  0.9815  0.9390 -0.6083
  720MOL0     H94986   6.823   9.748  10.937  1.6588 -3.1073 -2.4717
  720MOL0     H94987   7.009   9.874  11.015 -3.2097 -2.9017  0.3092
  720MOL0     H94988   7.102   9.845  10.864  0.5680 -3.2541 -0.4382
  720MOL0     H94989   7.016   9.629  11.058  0.0401 -2.2689 -0.4600
  720MOL0     H94990   7.051   9.597  10.888 -0.3065  1.1277 -1.5740
  720MOL0     H94991   7.226   9.566  11.079 -1.6147 -3.3459 -3.9490
  720MOL0     H94992   7.229   9.749  11.083  0.6011 -0.2001 -0.1986
  720MOL0     H94993   7.298   9.809  10.794  1.4874 -0.3432 -2.3750
  720MOL0     H94994   7.559   9.681  10.592 -1.9631 -1.4459  1.2200
  720MOL0     H94995   7.669   9.761  10.704  0.2746  0.1340 -0.1157
  720MOL0     H94996   7.514   9.965  10.705  1.0025  1.9761 -0.7617
  720MOL0     H94997   7.417   9.870  10.582  1.4017  2.5957 -3.6943
  720MOL0     H94998   7.700   9.931  10.530 -0.0992  3.1177 -0.8877
  720MOL0     H94999   7.578   9.883  10.419  0.3561 -1.0807 -0.5101
  720MOL0     H95000   7.460  10.094  10.453 -0.7079 -4.4726 -0.7638
  720MOL0     H95001   7.611  10.101  10.371 -1.7404  2.3750 -0.7130
  720MOL0     H95002   7.485  10.327  10.380 -1.2223  0.6084 -1.2178
  720MOL0     H95003   7.486  10.583  10.384 -0.9861 -0.0840  1.3452
  720MOL0     H95004   7.693  10.962  10.863 -1.0603 -3.7189 -0.1800
  720MOL0     H95005   7.630  11.186  10.916 -0.6500  1.6720 -1.2874
  720MOL0     H95006   7.211  11.302  10.816 -0.4453  1.2853  2.5689
  720MOL0     H95007   7.310  11.426  10.722 -0.2113 -0.3440 -0.0544
  720MOL0     H95008   7.351  11.550  10.893  1.2330 -3.1620 -0.9444
  720MOL0     H95009   7.288  11.455  11.018  0.0542  1.3301  0.2472
  720MOL0     H95010   7.130  11.616  10.833  5.7772 -0.5206 -1.0344
  720MOL0     H95011   7.120  11.616  11.010  1.8038 -0.0572  0.4558
  720MOL0     H95012   7.008  11.410  10.817  3.1598  0.9381 -0.2107
  720MOL0     H95013   7.052  11.359  10.983 -0.7400 -0.6800 -0.5285
  720MOL0     H95014   6.900  11.510  11.085  1.6742 -3.1334  0.2247
  720MOL0     H95015   6.817  11.418  10.964 -0.1561  0.3307  0.2666
  720MOL0     H95016   6.838  11.598  10.778 -1.3305 -1.0195  0.6781
  720MOL0     H95017   6.904  11.708  10.898 -1.9112  1.6471 -1.0206
  720MOL0     H95018   6.645  11.577  10.963 -0.6242  1.2978  2.2657
  720MOL0     H95019   6.700  11.744  10.994  2.5000  0.2019 -0.5933
  720MOL0     H95020   6.631  11.639  10.717 -0.1832 -2.2188  1.7160
  720MOL0     H95021   6.691  11.801  10.759 -0.3501 -0.7745  0.7752
  720MOL0     H95022   7.281  11.152  10.664  0.3224  2.0849  0.8171
  720MOL0     H95023   7.331  10.942  10.612  2.6216 -1.4725 -2.3299
  720MOL0     H95024   7.669  10.577  10.756  0.6070  1.7421 -1.2083
  720MOL0     H95025   7.680  10.332  10.760  1.9102 -2.3073 -2.3800
  720MOL0     H95026   6.334  10.424  10.567 -1.2524  3.1454  0.4473
  720MOL0     H95027   6.279  10.602  10.674  1.2588  0.1929 -0.2146
  720MOL0     H95028   6.240  10.888  11.015 -2.1011  2.0267  4.7769
  720MOL0     H95029   6.229  11.125  11.042 -0.9471  2.3686  4.4308
  720MOL0     H95030   6.610  11.401  11.101 -3.7423  1.3261 -3.1313
  720MOL0     H95031   6.575  11.287  11.243 -6.5508 -3.6696 -0.1976
  720MOL0     H95032   6.421  11.428  11.343  1.3412  1.0387  1.3524
  720MOL0     H95033   6.563  11.520  11.313  0.7864 -2.1056  0.9986
  720MOL0     H95034   6.450  11.582  11.073  2.7619  2.1149  1.4744
  720MOL0     H95035   6.416  11.683  11.196 -2.6837  0.8741 -0.0587
  720MOL0     H95036   6.206  11.620  11.090  1.8830  2.5403  0.4002
  720MOL0     H95037   6.241  11.445  11.118 -0.8438  1.4482 -1.7026
  720MOL0     H95038   6.108  11.536  11.510  0.5996  3.5834  0.4577
  720MOL0     H95039   6.667  11.129  11.099 -0.7915  2.1775 -0.8493
  720MOL0     H95040   6.665  10.898  11.030 -1.7737 -2.8263  0.9803
  721MOL0     O95041  10.639   5.108   7.650  0.2552 -0.0057 -0.9279
  721MOL0     C95042  10.600   5.221   7.662 -0.1606  0.2156 -0.7904
  721MOL0     O95043  10.467   5.262   7.668  1.3398  0.9938 -0.6454
  721MOL0     C95044  10.361   5.170   7.665  0.0405  0.3999  0.6705
  721MOL0     C95045  10.227   5.215   7.637  0.2480  0.2796  1.2389
  721MOL0     C95046  10.117   5.126   7.647 -0.3351 -0.6346 -1.2756
  721MOL0     C95047  10.135   5.006   7.717 -0.1433 -0.2078 -0.4920
  721MOL0     O95048  10.020   4.935   7.751 -0.1861  0.0655 -0.0826
  721MOL0     C95049  10.023   4.787   7.738  0.0764 -0.6053  0.0420
  721MOL0     C95050   9.967   4.741   7.860  0.6685  0.0919  0.3097
  721MOL0     C95051   9.915   4.594   7.856 -0.3789  0.3855  1.1569
  721MOL0     C95052   9.839   4.555   7.996 -0.4778  0.4199  0.3177
  721MOL0     C95053   9.775   4.414   7.988  0.2552  0.5643 -0.6671
  721MOL0     C95054   9.671   4.380   8.100 -0.1270  0.7271  0.0045
  721MOL0     C95055   9.531   4.462   8.090 -0.1115 -0.0571 -0.8392
  721MOL0     C95056   9.459   4.404   7.971  0.3868  0.0166  0.6326
  721MOL0     N95057   9.347   4.493   7.933 -0.6583  0.3381  0.1682
  721MOL0     C95058   9.363   4.621   7.883  0.4250  0.5273  0.4837
  721MOL0     C95059   9.235   4.649   7.834 -0.6254 -0.1176  0.1302
  721MOL0     C95060   9.197   4.769   7.759 -0.6752 -0.4941 -1.2650
  721MOL0     C95061   9.111   4.869   7.829 -0.2231  0.2252  0.7515
  721MOL0     C95062   9.065   4.976   7.727 -0.3978 -0.1602 -0.4224
  721MOL0     C95063   8.964   4.924   7.625  0.7327  0.4072  0.0857
  721MOL0     O95064   8.863   4.854   7.705  0.3213  0.3986  0.4387
  721MOL0     C95065   8.829   4.738   7.649  1.2086 -0.4081 -0.6906
  721MOL0     C95066   8.836   4.630   7.723  0.1663 -0.5570  0.3784
  721MOL0     C95067   8.818   4.501   7.677 -0.2261  0.8463 -0.5693
  721MOL0     C95068   8.768   4.478   7.539 -0.0852  0.3610 -0.0833
  721MOL0     C95069   8.733   4.340   7.498 -0.6880  0.5659 -0.1391
  721MOL0     O95070   8.718   4.234   7.597  0.0360 -0.9311  0.7492
  721MOL0     C95071   8.698   4.103   7.559  0.8892 -0.7585 -0.1022
  721MOL0     C95072   8.575   4.036   7.577  0.1331  0.3911 -0.8716
  721MOL0     C95073   8.547   3.910   7.529  0.7708  0.5703  0.1380
  721MOL0     C95074   8.657   3.844   7.465  0.5379  0.2526  0.3449
  721MOL0     O95075   8.661   3.726   7.391 -0.0085  0.4359  0.1386
  721MOL0     C95076   8.531   3.670   7.355  0.1578  0.1226 -0.4854
  721MOL0     C95077   8.498   3.560   7.454  0.5205 -0.5043 -0.6033
  721MOL0     C95078   8.432   3.440   7.374 -1.0643 -0.7881 -0.5103
  721MOL0     C95079   8.305   3.476   7.305 -0.1219 -0.3332  0.2997
  721MOL0     C95080   8.243   3.357   7.229 -0.0911  0.2825  0.4579
  721MOL0     C95081   8.336   3.320   7.112  0.4586 -0.3946 -0.8065
  721MOL0     C95082   8.271   3.215   7.017 -0.4763 -0.4705  0.0426
  721MOL0     C95083   8.369   3.187   6.905 -1.4712  0.6382  0.8412
  721MOL0    Cl95084   8.501   3.083   6.963  0.3892  0.6959  0.0015
  721MOL0     C95085   8.779   3.913   7.457 -0.7329 -0.1854  0.6349
  721MOL0     C95086   8.804   4.041   7.499 -0.0009 -0.7811 -0.3750
  721MOL0     O95087   8.710   4.328   7.377 -0.7094  0.3287 -0.3018
  721MOL0     C95088   8.756   4.593   7.464  0.2182 -0.3395  0.4019
  721MOL0     C95089   8.777   4.720   7.518 -0.3089 -1.5030  0.1254
  721MOL0     N95090   9.154   4.535   7.858  0.0324 -1.1341 -0.5887
  721MOL0     N95091   9.220   4.450   7.923 -0.8437  0.2986  0.0053
  721MOL0     C95092  10.271   4.960   7.760 -0.9279  0.4814  0.1756
  721MOL0     C95093  10.378   5.043   7.731 -0.2899  0.5651 -0.0480
  721MOL0     C95094  10.703   5.322   7.668 -0.6511  0.0947  0.1791
  721MOL0     C95095  10.666   5.452   7.656 -0.3367  0.1253 -0.4128
  721MOL0     C95096  10.762   5.554   7.659  0.2036  0.3170 -1.0331
  721MOL0     C95097  10.897   5.525   7.662 -0.4189  0.1671 -0.8246
  721MOL0     O95098  10.980   5.639   7.641  0.6914  0.6106 -0.1379
  721MOL0     C95099  11.119   5.632   7.656 -1.1740  0.5653  0.4335
  721MOL0     C95100  11.173   5.763   7.593  0.6480 -0.4024  1.2899
  721MOL0     C95101  11.167   5.881   7.691  0.2149  0.0259  0.0217
  721MOL0     C95102  11.202   6.023   7.632 -1.0370  0.5911 -0.1718
  721MOL0     C95103  11.100   6.058   7.538 -0.0774 -0.6101  1.0458
  721MOL0     C95104  11.009   6.084   7.454  0.0714  0.0162 -0.2497
  721MOL0     C95105  10.935   5.388   7.677  0.0654  0.9236  0.5368
  721MOL0     C95106  10.839   5.286   7.673 -0.9097 -0.1729  0.3636
  721MOL0     H95107  10.202   5.318   7.612 -1.3269 -0.1032  1.1210
  721MOL0     H95108  10.014   5.149   7.622 -0.8069 -2.8647 -1.5721
  721MOL0     H95109  10.123   4.742   7.735 -0.1615 -1.0930 -0.9586
  721MOL0     H95110   9.968   4.764   7.646 -0.8511  0.3573  0.3475
  721MOL0     H95111   9.875   4.799   7.876  0.3123 -0.4821  0.3617
  721MOL0     H95112  10.027   4.741   7.951  1.6167 -4.2212 -0.1281
  721MOL0     H95113   9.996   4.523   7.843 -0.9005 -0.9446  4.3119
  721MOL0     H95114   9.854   4.575   7.767  0.5958 -1.0198  0.7641
  721MOL0     H95115   9.914   4.556   8.075 -0.5224 -2.5589  0.5220
  721MOL0     H95116   9.758   4.628   8.006 -1.8719 -0.5139 -2.7504
  721MOL0     H95117   9.860   4.346   7.994  0.9133  1.4899  0.8118
  721MOL0     H95118   9.740   4.415   7.884  4.1897 -1.2681 -2.2002
  721MOL0     H95119   9.725   4.413   8.190  2.6289 -0.5773 -1.0649
  721MOL0     H95120   9.648   4.273   8.101  1.8556  0.2455 -0.6049
  721MOL0     H95121   9.467   4.449   8.177  2.3546 -0.1366  1.0636
  721MOL0     H95122   9.560   4.566   8.078  1.6748 -0.7559 -3.4037
  721MOL0     H95123   9.408   4.309   7.993 -0.3446 -0.5593 -2.8728
  721MOL0     H95124   9.529   4.409   7.887 -0.7614 -0.7786 -0.4006
  721MOL0     H95125   9.446   4.688   7.862 -0.0732  0.5213 -1.7249
  721MOL0     H95126   9.141   4.755   7.666 -2.9941  0.4066 -0.1094
  721MOL0     H95127   9.288   4.816   7.722 -0.0745 -2.6702 -2.6946
  721MOL0     H95128   9.167   4.911   7.913  0.9209 -0.9848  0.6193
  721MOL0     H95129   9.021   4.822   7.870 -0.9324  0.5216 -0.4081
  721MOL0     H95130   9.036   5.069   7.776 -0.3343 -0.0119 -0.6601
  721MOL0     H95131   9.154   5.018   7.680 -1.2720  1.7140 -0.4875
  721MOL0     H95132   9.008   4.862   7.547  0.9495 -0.0677  0.5881
  721MOL0     H95133   8.928   5.014   7.572  2.1209 -0.5355 -2.6668
  721MOL0     H95134   8.877   4.651   7.822  2.9512  1.2873 -1.0256
  721MOL0     H95135   8.841   4.417   7.742  1.1430 -1.0927 -3.3531
  721MOL0     H95136   8.497   4.096   7.623  2.2886  2.4785  0.2924
  721MOL0     H95137   8.448   3.867   7.537  0.9372  0.1585  0.0173
  721MOL0     H95138   8.548   3.623   7.257 -1.6794 -4.3120  1.0571
  721MOL0     H95139   8.449   3.741   7.337 -1.8502 -1.0402  3.1266
  721MOL0     H95140   8.446   3.602   7.541  1.9585  3.7354 -1.5743
  721MOL0     H95141   8.593   3.522   7.493 -0.4480  0.7605  3.5360
  721MOL0     H95142   8.400   3.369   7.451 -2.7408  0.5727  0.1224
  721MOL0     H95143   8.502   3.409   7.296 -0.7619  2.9377 -1.9648
  721MOL0     H95144   8.235   3.512   7.381  0.8726  1.9309  0.2294
  721MOL0     H95145   8.316   3.552   7.227 -1.2020 -1.0115 -0.5385
  721MOL0     H95146   8.158   3.395   7.172 -0.0754  1.8457  1.4373
  721MOL0     H95147   8.218   3.276   7.298  2.6379 -0.2993  0.8899
  721MOL0     H95148   8.436   3.292   7.148  0.1935 -0.3618 -0.0076
  721MOL0     H95149   8.339   3.412   7.053  0.7870 -2.0125 -3.4523
  721MOL0     H95150   8.225   3.131   7.070 -1.6440  0.3534  0.3816
  721MOL0     H95151   8.175   3.250   6.976 -0.8694 -3.0042 -1.3699
  721MOL0     H95152   8.413   3.272   6.852 -2.7969  0.9703  0.2268
  721MOL0     H95153   8.319   3.126   6.829 -0.9071  0.9892  0.1821
  721MOL0     H95154   8.866   3.863   7.417  0.1561  0.1911  2.0250
  721MOL0     H95155   8.899   4.092   7.510 -0.0121 -1.0852  1.6679
  721MOL0     H95156   8.737   4.587   7.357 -1.6205 -2.1327  0.7585
  721MOL0     H95157   8.768   4.801   7.446  0.1759 -1.4505  0.1165
  721MOL0     H95158  10.291   4.866   7.811  0.9977 -0.2166 -1.7410
  721MOL0     H95159  10.478   5.015   7.764  1.4016  5.3484 -0.2418
  721MOL0     H95160  10.561   5.478   7.667 -0.4840 -0.9854  1.1999
  721MOL0     H95161  10.739   5.659   7.669 -2.1576 -0.3154  0.9322
  721MOL0     H95162  11.169   5.548   7.608  2.4675  4.7408 -4.2125
  721MOL0     H95163  11.152   5.631   7.760  1.4603  1.1968 -0.3178
  721MOL0     H95164  11.277   5.752   7.560  0.2965  2.5053 -1.2320
  721MOL0     H95165  11.114   5.776   7.502  3.9759  1.7195 -0.7833
  721MOL0     H95166  11.241   5.861   7.769  0.0320  0.6846  0.3709
  721MOL0     H95167  11.068   5.888   7.736 -0.1848  0.8096 -0.9468
  721MOL0     H95168  11.200   6.097   7.713  1.6894  1.6998 -1.0370
  721MOL0     H95169  11.295   6.029   7.575 -0.6339 -0.5496  0.3369
  721MOL0     H95170  10.938   6.118   7.381  1.3480  2.5564 -0.4260
  721MOL0     H95171  11.035   5.367   7.714  0.9112  1.9581 -1.0547
  721MOL0     H95172  10.882   5.187   7.667 -0.3052  0.1251 -0.4940
  722MOL0     O95173   4.242   9.469  10.012  0.0707 -0.0404  0.8716
  722MOL0     C95174   4.187   9.364   9.976 -0.7652 -0.4256 -0.5825
  722MOL0     O95175   4.099   9.350   9.864 -0.0029  0.1170  0.1196
  722MOL0     C95176   4.042   9.463   9.808 -0.3039  0.1218 -1.2247
  722MOL0     C95177   4.047   9.479   9.671 -0.4548 -0.9324 -0.2495
  722MOL0     C95178   3.980   9.595   9.615 -0.0275  0.3137 -0.3939
  722MOL0     C95179   3.885   9.667   9.702 -0.2376 -0.3991  0.7151
  722MOL0     O95180   3.805   9.760   9.655  0.4911  0.5690 -0.4194
  722MOL0     C95181   3.715   9.719   9.557  0.1006  0.4436  1.0318
  722MOL0     C95182   3.565   9.758   9.582  0.0480  0.3264 -0.4506
  722MOL0     C95183   3.516   9.699   9.712  0.7122  0.4082 -0.1598
  722MOL0     C95184   3.518   9.543   9.691 -0.3933  0.0728 -0.2071
  722MOL0     C95185   3.411   9.482   9.792  0.5695 -0.9838  0.6087
  722MOL0     C95186   3.436   9.337   9.816  0.2982 -0.4294  0.1354
  722MOL0     C95187   3.337   9.272   9.906  0.0967  0.2651 -0.1025
  722MOL0     C95188   3.415   9.146   9.953 -0.2240 -0.5577  0.9029
  722MOL0     N95189   3.340   9.084  10.055 -1.4719  0.1698 -0.5190
  722MOL0     C95190   3.313   9.126  10.183  0.3176 -0.5566 -0.3592
  722MOL0     C95191   3.260   9.020  10.249  0.2038 -0.1743 -0.2469
  722MOL0     C95192   3.226   9.010  10.400 -0.2973 -0.4246  0.8840
  722MOL0     C95193   3.345   9.040  10.503  0.2670  1.1289  0.3873
  722MOL0     C95194   3.314   8.996  10.647  0.7075  0.7177 -0.3220
  722MOL0     C95195   3.451   8.979  10.723 -0.3625  0.1687 -0.3213
  722MOL0     O95196   3.503   9.110  10.716  0.2287 -0.1316  0.3597
  722MOL0     C95197   3.490   9.197  10.819 -0.4268 -1.1652 -0.6041
  722MOL0     C95198   3.570   9.313  10.823  0.6391 -0.1677 -0.3753
  722MOL0     C95199   3.559   9.400  10.932 -0.5190 -0.5121  0.8103
  722MOL0     C95200   3.470   9.387  11.031 -0.3070 -0.1143  0.9403
  722MOL0     C95201   3.465   9.487  11.143 -0.1756 -0.5139 -0.2705
  722MOL0     O95202   3.564   9.577  11.155 -0.3479  0.3363 -0.1358
  722MOL0     C95203   3.560   9.670  11.261  0.3081  0.0076 -0.1240
  722MOL0     C95204   3.724   9.809  11.235 -0.1862  0.4764  0.0282
  722MOL0     C95205   3.759   9.958  11.376  0.4496  0.6685 -0.3186
  722MOL0     C95206   3.633   9.980  11.545  0.8592 -0.8157  0.8126
  722MOL0     O95207   3.657  10.084  11.636  0.3956 -0.4995 -0.8663
  722MOL0     C95208   3.775  10.159  11.596  0.9875 -0.4828  1.0029
  722MOL0     C95209   3.799  10.274  11.692  0.4497  0.5287 -0.4488
  722MOL0     C95210   3.745  10.411  11.662  1.2760  0.1824 -0.1139
  722MOL0     C95211   3.749  10.490  11.798 -0.4889  0.3229  0.3051
  722MOL0     C95212   3.681  10.616  11.789 -0.0298 -0.5322  0.2559
  722MOL0     C95213   3.523  10.619  11.785  0.0988  0.7499  0.7687
  722MOL0     C95214   3.488  10.764  11.780 -0.3441  1.1976 -0.4555
  722MOL0     C95215   3.351  10.784  11.732  0.6273  0.4356 -0.3610
  722MOL0    Cl95216   3.216  10.700  11.822  0.0498 -0.1586 -0.3445
  722MOL0     C95217   3.466   9.843  11.572  0.1854 -0.5815 -0.4441
  722MOL0     C95218   3.433   9.690  11.423  0.0776  0.2520 -0.2289
  722MOL0     O95219   3.369   9.470  11.222  0.2506  0.0034  0.7027
  722MOL0     C95220   3.386   9.279  11.019 -0.0102  0.0700 -0.9299
  722MOL0     C95221   3.393   9.188  10.920 -0.0148  1.3275 -0.7509
  722MOL0     N95222   3.260   8.910  10.170 -0.0158  1.0330 -0.1070
  722MOL0     N95223   3.310   8.951  10.054 -0.2330  0.2136  0.3853
  722MOL0     C95224   3.873   9.625   9.837  0.5482 -1.1001  0.2175
  722MOL0     C95225   3.956   9.529   9.895  0.4233 -1.1708  1.2922
  722MOL0     C95226   4.222   9.248  10.048 -1.1707 -0.3507  0.6582
  722MOL0     C95227   4.295   9.267  10.165  0.0476  0.8853  0.0843
  722MOL0     C95228   4.337   9.151  10.229  0.5396  0.0251  0.2230
  722MOL0     C95229   4.307   9.023  10.194 -0.8632 -1.4969  0.0583
  722MOL0     O95230   4.358   8.923  10.259 -0.5924  0.0493 -0.5173
  722MOL0     C95231   4.336   8.790  10.223 -0.0441 -0.1010 -0.2511
  722MOL0     C95232   4.448   8.705  10.290  0.3018  0.1058 -0.6339
  722MOL0     C95233   4.397   8.605  10.392  0.3678 -0.1769 -0.7328
  722MOL0     C95234   4.516   8.526  10.436  0.1526  0.8563 -0.6786
  722MOL0     C95235   4.615   8.591  10.527  0.8582 -0.0712 -0.4061
  722MOL0     C95236   4.707   8.647  10.582 -0.9708  0.1081 -0.4787
  722MOL0     C95237   4.235   9.012  10.072  0.9468  0.0353 -0.4803
  722MOL0     C95238   4.193   9.122   9.997 -0.0349  0.3369 -0.3486
  722MOL0     H95239   4.106   9.413   9.607  1.0873 -1.2511  1.4370
  722MOL0     H95240   3.999   9.637   9.517  1.2662  0.5154 -0.0639
  722MOL0     H95241   3.726   9.613   9.530 -3.9593 -0.7113  3.0651
  722MOL0     H95242   3.744   9.777   9.469 -0.0885  5.1780  3.7678
  722MOL0     H95243   3.502   9.734   9.496 -1.6476 -0.8608  1.0338
  722MOL0     H95244   3.568   9.867   9.591  0.2545  0.8375 -4.7554
  722MOL0     H95245   3.416   9.738   9.732  2.4177  4.1639  2.3495
  722MOL0     H95246   3.578   9.731   9.797  0.0311  2.2860 -0.3272
  722MOL0     H95247   3.479   9.516   9.593 -3.0878  1.7363  0.3086
  722MOL0     H95248   3.615   9.496   9.711 -1.1408 -0.5559  2.3119
  722MOL0     H95249   3.312   9.498   9.747  2.0052  0.7786 -2.2431
  722MOL0     H95250   3.405   9.533   9.889 -0.7728  0.5304 -0.2168
  722MOL0     H95251   3.539   9.321   9.848  1.9756  1.1608 -3.7711
  722MOL0     H95252   3.419   9.291   9.718  1.0093 -0.5877  0.0839
  722MOL0     H95253   3.326   9.338   9.993  2.8160  2.4833 -1.2954
  722MOL0     H95254   3.240   9.262   9.856 -0.2871  1.9775  0.2469
  722MOL0     H95255   3.518   9.175   9.976  0.6511 -1.5611 -1.4328
  722MOL0     H95256   3.434   9.071   9.876  2.4825  2.9697 -2.2304
  722MOL0     H95257   3.337   9.224  10.225  1.2310 -0.1134 -1.8217
  722MOL0     H95258   3.189   8.910  10.422  0.5253 -0.8999  0.1743
  722MOL0     H95259   3.145   9.082  10.414  1.4106  1.4706  1.6496
  722MOL0     H95260   3.363   9.148  10.505 -0.7816  1.3151  0.4490
  722MOL0     H95261   3.430   8.978  10.471 -1.1249 -1.3704  1.2925
  722MOL0     H95262   3.261   9.082  10.690  1.8569  1.4931 -0.4115
  722MOL0     H95263   3.266   8.898  10.649  1.5401  0.2595  2.8477
  722MOL0     H95264   3.512   8.904  10.671  0.4016 -0.3081  1.1804
  722MOL0     H95265   3.433   8.938  10.823  0.3593  0.9409  0.1450
  722MOL0     H95266   3.634   9.348  10.743 -1.2089  0.9967 -1.4144
  722MOL0     H95267   3.623   9.487  10.944  0.5958 -0.8219 -1.9922
  722MOL0     H95268   3.780   9.799  11.142 -1.9389 -0.4359 -0.9794
  722MOL0     H95269   3.846  10.024  11.376  2.4976 -1.8859 -0.7800
  722MOL0     H95270   3.765  10.199  11.494 -0.0510 -0.3944  1.1237
  722MOL0     H95271   3.864  10.099  11.614  1.9913  0.9354  0.9124
  722MOL0     H95272   3.908  10.284  11.691  0.5297 -0.3144 -0.9985
  722MOL0     H95273   3.770  10.234  11.790  2.4417 -3.2780 -1.2099
  722MOL0     H95274   3.637  10.405  11.645  0.8884  0.1084  2.1040
  722MOL0     H95275   3.807  10.459  11.585 -0.5488 -1.6951 -2.9444
  722MOL0     H95276   3.708  10.434  11.882 -0.6144  1.8905  1.3381
  722MOL0     H95277   3.853  10.502  11.831  0.7342  0.9241 -3.3117
  722MOL0     H95278   3.726  10.678  11.711  0.8020  2.1611  2.6780
  722MOL0     H95279   3.718  10.668  11.878  3.7088 -1.4656 -0.5969
  722MOL0     H95280   3.487  10.581  11.881  0.1737  0.0079  0.5092
  722MOL0     H95281   3.479  10.561  11.703  3.0382 -0.2409 -0.2421
  722MOL0     H95282   3.495  10.813  11.878 -0.9061 -0.1050  0.2542
  722MOL0     H95283   3.553  10.818  11.710 -0.0790  2.1616  0.5140
  722MOL0     H95284   3.344  10.733  11.635 -3.2257 -2.0773  1.0157
  722MOL0     H95285   3.340  10.892  11.720  2.7724  1.1873  3.0388
  722MOL0     H95286   3.399   9.868  11.654  0.4016 -3.0216  0.5783
  722MOL0     H95287   3.363   9.615  11.459 -0.7256  1.8452  1.7047
  722MOL0     H95288   3.308   9.266  11.094  1.7681  1.2007  1.2572
  722MOL0     H95289   3.315   9.112  10.920  0.1709  1.0992 -2.5232
  722MOL0     H95290   3.801   9.675   9.901  1.4188  0.5580 -0.0420
  722MOL0     H95291   3.952   9.507  10.002  0.3859  0.4002  1.6288
  722MOL0     H95292   4.317   9.359  10.217  1.5754  0.4498  0.2541
  722MOL0     H95293   4.389   9.164  10.323  1.1125 -2.5723  0.3357
  722MOL0     H95294   4.336   8.781  10.114  3.3013  1.1296 -0.4491
  722MOL0     H95295   4.245   8.757  10.275  1.1553  0.5283  2.4217
  722MOL0     H95296   4.515   8.654  10.221 -1.6267 -1.7100 -1.2591
  722MOL0     H95297   4.513   8.773  10.346  1.2068 -0.5328 -0.8873
  722MOL0     H95298   4.320   8.543  10.346  0.7405 -0.8005 -0.5228
  722MOL0     H95299   4.330   8.658  10.461  1.1661  0.5848 -0.5218
  722MOL0     H95300   4.478   8.447  10.501 -0.2076 -0.1749 -2.1014
  722MOL0     H95301   4.584   8.488  10.359  1.6247 -0.9414  1.4058
  722MOL0     H95302   4.798   8.697  10.611 -0.4571 -1.2685  0.3780
  722MOL0     H95303   4.212   8.918  10.023 -0.2564  0.1802 -0.2439
  722MOL0     H95304   4.149   9.108   9.899 -0.3066  3.5313 -0.7825
  723MOL0     O95305   0.101  11.045   9.887  0.7273  0.2736  0.0969
  723MOL0     C95306   0.063  11.139   9.819  1.5229  0.1305 -1.5650
  723MOL0     O95307   0.042  11.269   9.873 -0.1346 -0.6159 -0.2373
  723MOL0     C95308   0.062  11.307   9.999  0.8265  0.6968  0.6071
  723MOL0     C95309   0.077  11.227  10.112 -0.3915 -0.3401 -0.2512
  723MOL0     C95310   0.100  11.280  10.238  0.5637  0.0760 -0.3668
  723MOL0     C95311   0.112  11.414  10.261 -0.2984  0.8961 -0.1046
  723MOL0     O95312   0.160  11.457  10.381  0.0866  0.3687  0.0007
  723MOL0     C95313   0.124  11.390  10.506 -0.2474 -1.3049  0.3886
  723MOL0     C95314   0.150  11.486  10.623 -0.8288  0.2400  0.5140
  723MOL0     C95315   0.300  11.525  10.638 -0.0010 -0.3694 -0.6284
  723MOL0     C95316   0.372  11.418  10.727  0.4074 -0.3084  0.2348
  723MOL0     C95317   0.518  11.479  10.748 -0.1336  0.8669 -0.6848
  723MOL0     C95318   0.585  11.447  10.880 -0.2364 -0.1772  0.8474
  723MOL0     C95319   0.700  11.542  10.920  1.2220 -0.0970  0.4918
  723MOL0     C95320   0.807  11.456  10.989  1.3044 -0.1186  0.3015
  723MOL0     N95321   0.766  11.411  11.123 -0.7593  0.7162 -0.1330
  723MOL0     C95322   0.731  11.498  11.217 -1.3391 -0.8624 -0.6017
  723MOL0     C95323   0.688  11.411  11.314 -0.2467 -0.4583  0.1889
  723MOL0     C95324   0.612  11.436  11.438  0.4107 -0.8645 -0.4249
  723MOL0     C95325   0.483  11.350  11.459 -0.6636  0.1746 -0.1408
  723MOL0     C95326   0.368  11.372  11.362  0.7651 -0.2538  0.6872
  723MOL0     C95327   0.294  11.511  11.345  0.3312  0.5912  0.7120
  723MOL0     O95328   0.369  11.625  11.323 -0.0404  0.1774 -0.0130
  723MOL0     C95329   0.364  11.698  11.200 -0.8155 -0.0216 -0.7425
  723MOL0     C95330   0.425  11.820  11.195 -0.1459  0.7565  0.8611
  723MOL0     C95331   0.428  11.892  11.070  0.5123  0.6477 -0.8410
  723MOL0     C95332   0.370  11.837  10.955 -0.1318 -0.1875  0.2077
  723MOL0     C95333   0.385  11.899  10.823 -0.0063 -0.6295  0.1920
  723MOL0     O95334   0.505  11.960  10.795 -1.2673 -0.2237  0.1678
  723MOL0     C95335   0.539  12.008  10.677 -0.0873  0.3561  0.0834
  723MOL0     C95336   0.664  11.969  10.624 -0.1939  0.2372 -0.7716
  723MOL0     C95337   0.722  12.027  10.507 -1.4197  0.5725  0.2837
  723MOL0     C95338   0.652  12.133  10.442 -0.6673  0.5320 -0.2805
  723MOL0     O95339   0.692  12.187  10.324 -0.5491 -0.3852  0.2915
  723MOL0     C95340   0.761  12.104  10.235 -0.3497  0.4995 -0.1202
  723MOL0     C95341   0.817  12.179  10.116 -0.2245 -0.2526 -0.9017
  723MOL0     C95342   0.874  12.318  10.156 -0.0988  0.1819 -0.4838
  723MOL0     C95343   0.899  12.414  10.027  0.4366 -0.4847 -0.2323
  723MOL0     C95344   0.945  12.561  10.066 -0.5033 -0.5045  0.8703
  723MOL0     C95345   0.894  12.656   9.961 -0.1708 -0.1668  0.1474
  723MOL0     C95346   0.942  12.801   9.976  0.0064  0.4681  0.5359
  723MOL0     C95347   0.886  12.853  10.106  0.1000  0.7758  0.1392
  723MOL0    Cl95348   0.940  13.018  10.134  0.1488  0.0935  0.0008
  723MOL0     C95349   0.529  12.173  10.493  0.9542 -0.3048 -0.5393
  723MOL0     C95350   0.477  12.120  10.611 -0.6197 -0.2278 -0.5483
  723MOL0     O95351   0.293  11.892  10.745 -0.3297 -0.2765  0.1166
  723MOL0     C95352   0.301  11.717  10.959 -0.5964  0.4062 -0.1293
  723MOL0     C95353   0.312  11.645  11.075 -0.0883 -0.6764 -0.6468
  723MOL0     N95354   0.725  11.283  11.283 -0.1322  0.6606  0.0856
  723MOL0     N95355   0.773  11.274  11.161 -0.2453 -0.2889  0.1767
  723MOL0     C95356   0.076  11.505  10.156  0.8001 -0.1190 -0.2460
  723MOL0     C95357   0.056  11.446  10.027  0.4182  0.2106  0.4735
  723MOL0     C95358   0.046  11.118   9.677  0.1912  0.0347  0.5170
  723MOL0     C95359  -0.033  11.212   9.596  0.2719 -0.4585 -0.0503
  723MOL0     C95360  -0.035  11.200   9.459 -0.6774  0.0050  0.7812
  723MOL0     C95361   0.002  11.083   9.393 -0.0507  0.4007  0.2037
  723MOL0     O95362  -0.023  11.061   9.266  0.6699  0.0662 -0.4034
  723MOL0     C95363   0.001  11.171   9.174  0.2447 -0.5952 -0.3922
  723MOL0     C95364   0.003  11.118   9.033  0.1071  0.6192 -0.1649
  723MOL0     C95365  -0.126  11.071   8.978  0.3277  0.6342  0.1907
  723MOL0     C95366  -0.120  10.997   8.842 -0.5226 -0.4121 -0.4684
  723MOL0     C95367  -0.186  11.084   8.742 -0.0961 -0.2555 -0.6175
  723MOL0     C95368  -0.240  11.133   8.645 -0.5791 -0.4991  0.2380
  723MOL0     C95369   0.068  10.982   9.470 -0.3970 -0.3747 -0.0973
  723MOL0     C95370   0.097  11.005   9.604 -1.3425  0.2090 -0.2138
  723MOL0     H95371   0.063  11.119  10.106  2.1826 -0.9604  2.2762
  723MOL0     H95372   0.120  11.205  10.315  1.7406  2.2349  1.5629
  723MOL0     H95373   0.194  11.306  10.509  1.4221 -0.0136 -0.7061
  723MOL0     H95374   0.018  11.367  10.516 -1.1587  2.9579  2.9740
  723MOL0     H95375   0.098  11.442  10.709 -0.1533 -1.9647 -0.1408
  723MOL0     H95376   0.115  11.587  10.600  2.8788  1.8310  1.1031
  723MOL0     H95377   0.299  11.625  10.682 -3.3833 -0.1375 -0.9090
  723MOL0     H95378   0.352  11.541  10.543 -1.3332 -1.6104 -1.6086
  723MOL0     H95379   0.326  11.411  10.826  1.8632  1.8896  1.1391
  723MOL0     H95380   0.359  11.323  10.676 -2.2684  1.8123 -3.5405
  723MOL0     H95381   0.510  11.588  10.747  1.8942  1.1018  1.3791
  723MOL0     H95382   0.578  11.441  10.665 -0.7561 -1.0301 -0.3151
  723MOL0     H95383   0.604  11.340  10.888 -1.5544 -0.2915  3.2279
  723MOL0     H95384   0.503  11.455  10.952 -0.1894  3.3523  0.6840
  723MOL0     H95385   0.745  11.587  10.831 -3.7395  2.0659 -1.3352
  723MOL0     H95386   0.665  11.625  10.982 -0.9669  0.3774 -1.2357
  723MOL0     H95387   0.897  11.518  10.987  3.1593 -2.6923 -1.1050
  723MOL0     H95388   0.819  11.368  10.925  2.1704  0.9980 -1.1196
  723MOL0     H95389   0.726  11.607  11.209  3.0503 -0.1109  2.8180
  723MOL0     H95390   0.590  11.542  11.421  2.0659  0.0285  2.3392
  723MOL0     H95391   0.674  11.437  11.528 -2.1870  1.4162  1.5069
  723MOL0     H95392   0.453  11.386  11.558  0.1993 -2.1329  1.0155
  723MOL0     H95393   0.499  11.243  11.468  1.6959  0.5036  0.2915
  723MOL0     H95394   0.400  11.352  11.260 -1.0025  4.0750 -0.9399
  723MOL0     H95395   0.288  11.313  11.408  1.1001 -0.5398  0.9076
  723MOL0     H95396   0.233  11.530  11.433 -0.9436  2.8173 -0.5651
  723MOL0     H95397   0.227  11.480  11.265  0.3226 -0.8106  1.2260
  723MOL0     H95398   0.487  11.860  11.274  2.3648 -0.7105 -0.2168
  723MOL0     H95399   0.481  11.986  11.061  1.4930  0.4245  1.8064
  723MOL0     H95400   0.728  11.902  10.681 -0.5423 -1.0285 -1.8229
  723MOL0     H95401   0.818  11.983  10.483 -1.1688 -0.1400  2.3344
  723MOL0     H95402   0.689  12.032  10.197  0.2146  0.8185 -1.9352
  723MOL0     H95403   0.841  12.051  10.287 -1.3637 -1.7416 -0.7599
  723MOL0     H95404   0.736  12.195  10.044 -0.2897  2.3406 -0.3727
  723MOL0     H95405   0.901  12.122  10.077  0.5281 -1.2552  1.9171
  723MOL0     H95406   0.968  12.312  10.212  0.4101  1.6547 -1.1227
  723MOL0     H95407   0.797  12.369  10.214  0.0965 -0.7450  0.6070
  723MOL0     H95408   0.983  12.372   9.971  1.5085 -1.0204  1.6690
  723MOL0     H95409   0.806  12.404   9.971  0.7109  0.4247 -0.8766
  723MOL0     H95410   1.052  12.583  10.079 -0.9667  2.0063  1.1050
  723MOL0     H95411   0.899  12.578  10.164 -3.0117  2.6529 -0.6628
  723MOL0     H95412   0.786  12.656   9.976 -0.1348  1.3218  0.5700
  723MOL0     H95413   0.935  12.621   9.866  0.8831 -0.4131  0.6686
  723MOL0     H95414   1.051  12.808   9.979  0.1321 -1.3592  1.1040
  723MOL0     H95415   0.922  12.860   9.886  1.0317  0.0015 -0.0167
  723MOL0     H95416   0.903  12.781  10.186 -0.4627 -0.7044 -1.0252
  723MOL0     H95417   0.778  12.866  10.089  0.2807 -1.0226 -3.3317
  723MOL0     H95418   0.484  12.245  10.425  1.0548  0.4158  0.1338
  723MOL0     H95419   0.391  12.167  10.658  0.3590  0.0271  1.0297
  723MOL0     H95420   0.236  11.682  10.880 -2.6565  1.3318  1.0683
  723MOL0     H95421   0.272  11.545  11.078  0.4856 -0.8961  0.2754
  723MOL0     H95422   0.062  11.613  10.158  0.3377 -0.1576  2.2135
  723MOL0     H95423   0.035  11.513   9.945 -1.4976 -0.8228  0.0618
  723MOL0     H95424  -0.088  11.287   9.652  0.9277 -0.6385  0.8554
  723MOL0     H95425  -0.095  11.262   9.393 -0.1155 -3.8522 -3.8719
  723MOL0     H95426   0.094  11.220   9.201 -0.5529  1.1715 -0.7303
  723MOL0     H95427  -0.081  11.242   9.183  0.5678 -0.3775  1.1599
  723MOL0     H95428   0.027  11.199   8.964  0.4308 -2.0410 -3.4185
  723MOL0     H95429   0.084  11.048   9.013 -3.7183 -4.4254 -0.0457
  723MOL0     H95430  -0.184  11.164   8.978 -2.2540 -0.7974 -2.2742
  723MOL0     H95431  -0.162  11.008   9.059  1.2622  0.7647  0.7215
  723MOL0     H95432  -0.012  10.987   8.834 -0.1263  0.4281  2.4923
  723MOL0     H95433  -0.169  10.900   8.847  2.1572 -1.9008 -1.3464
  723MOL0     H95434  -0.297  11.160   8.559  1.3777  1.5129 -0.5242
  723MOL0     H95435   0.098  10.889   9.422 -1.0782 -0.6315 -0.0395
  723MOL0     H95436   0.171  10.938   9.645  1.0143  1.6431 -1.8747
  724MOL0     O95437   6.758   3.401   3.827 -0.1108  0.3521  0.3009
  724MOL0     C95438   6.840   3.327   3.885  0.5532  0.4954 -0.9416
  724MOL0     O95439   6.802   3.212   3.959  0.3054  0.4488 -0.3223
  724MOL0     C95440   6.674   3.159   3.964  1.0652 -0.3754 -0.3496
  724MOL0     C95441   6.667   3.022   4.008  0.1269 -0.5329 -0.6021
  724MOL0     C95442   6.544   2.953   4.024 -0.0513 -0.2309  0.1289
  724MOL0     C95443   6.425   3.016   3.992 -0.4815 -0.5869  0.0936
  724MOL0     O95444   6.304   2.944   4.001  0.0293 -0.7472  0.1607
  724MOL0     C95445   6.266   2.879   4.126  0.1407 -0.4515 -0.7865
  724MOL0     C95446   6.208   2.988   4.222 -1.1604  0.2847  0.3491
  724MOL0     C95447   6.093   3.065   4.159  0.3443 -0.3158  0.4595
  724MOL0     C95448   6.006   3.135   4.258 -0.2773  0.8323 -0.4954
  724MOL0     C95449   5.880   3.203   4.198  0.0697 -0.5893 -0.4960
  724MOL0     C95450   5.879   3.273   4.059 -0.4670 -0.1629  0.9034
  724MOL0     C95451   5.994   3.370   4.042  0.0067  0.8365  0.0614
  724MOL0     C95452   6.005   3.436   3.905  0.1470 -0.0063 -0.9267
  724MOL0     N95453   5.868   3.473   3.851  0.2884  0.9725 -0.5910
  724MOL0     C95454   5.808   3.407   3.747  0.3573 -0.6253  0.2772
  724MOL0     C95455   5.699   3.483   3.727 -0.4353  0.6015 -0.5439
  724MOL0     C95456   5.578   3.468   3.631  0.4061  0.0732 -0.0087
  724MOL0     C95457   5.522   3.603   3.571 -0.7068 -1.2077 -1.4293
  724MOL0     C95458   5.398   3.666   3.643  0.6105 -0.2795  0.0342
  724MOL0     C95459   5.364   3.808   3.586 -0.1125 -0.2336  1.1165
  724MOL0     O95460   5.335   3.797   3.440  0.2550  0.1956  0.3068
  724MOL0     C95461   5.281   3.897   3.374  1.1547 -0.5690 -0.0554
  724MOL0     C95462   5.256   4.027   3.426  0.8414 -0.1165 -0.0596
  724MOL0     C95463   5.201   4.136   3.351 -0.3112 -0.4509 -0.6529
  724MOL0     C95464   5.168   4.114   3.217  0.2991 -0.7514  0.1211
  724MOL0     C95465   5.118   4.232   3.141  0.9261  0.6781 -0.5570
  724MOL0     O95466   5.088   4.207   3.013  0.6804 -0.1973  0.1918
  724MOL0     C95467   5.050   4.308   2.933 -0.0105 -0.8303 -0.1123
  724MOL0     C95468   5.123   4.332   2.822 -0.2951 -0.7038  1.1787
  724MOL0     C95469   5.102   4.445   2.729  0.2407 -0.5105 -0.0001
  724MOL0     C95470   4.999   4.532   2.766  0.3725  0.5258  0.0198
  724MOL0     O95471   4.981   4.660   2.722  0.3603  0.4046  0.3363
  724MOL0     C95472   5.090   4.700   2.628  1.2222 -0.8356 -0.3355
  724MOL0     C95473   5.063   4.848   2.580 -0.0975 -0.2485 -0.3527
  724MOL0     C95474   5.094   4.862   2.438 -0.1479 -0.0403 -0.2827
  724MOL0     C95475   5.240   4.854   2.428 -0.5036 -0.0387  0.0397
  724MOL0     C95476   5.268   4.869   2.281  0.4401 -0.0751  0.1024
  724MOL0     C95477   5.409   4.897   2.226 -0.0201  0.4272 -0.0982
  724MOL0     C95478   5.425   4.905   2.076  1.4502  0.4449 -0.0394
  724MOL0     C95479   5.566   4.930   2.044  0.7844 -0.2347 -0.3768
  724MOL0    Cl95480   5.565   4.908   1.867 -0.1781  0.4477 -0.1903
  724MOL0     C95481   4.909   4.502   2.873 -0.6578 -0.9314 -0.5295
  724MOL0     C95482   4.937   4.389   2.947 -0.1117 -0.7051  0.0240
  724MOL0     O95483   5.123   4.341   3.200  0.6314  0.0056  0.1736
  724MOL0     C95484   5.198   3.990   3.157  0.5719 -0.2867 -0.7788
  724MOL0     C95485   5.251   3.885   3.237 -0.3010 -0.1225 -0.1405
  724MOL0     N95486   5.691   3.574   3.827 -0.1456  0.8967  0.4875
  724MOL0     N95487   5.789   3.568   3.902  0.9900 -0.7452  0.3657
  724MOL0     C95488   6.421   3.147   3.953 -0.2680 -0.4909 -0.4559
  724MOL0     C95489   6.543   3.220   3.943 -0.2406  0.6736 -0.1053
  724MOL0     C95490   6.976   3.341   3.840  1.0292  0.9939  0.5026
  724MOL0     C95491   7.081   3.291   3.922 -0.2731  1.0305 -0.4100
  724MOL0     C95492   7.211   3.310   3.894 -0.0642  0.1634  0.2876
  724MOL0     C95493   7.258   3.405   3.799  0.3438  0.4653  0.2306
  724MOL0     O95494   7.388   3.417   3.789 -0.5123 -1.1101 -0.1725
  724MOL0     C95495   7.450   3.526   3.864  1.1597  0.0541  0.2283
  724MOL0     C95496   7.506   3.633   3.771 -0.0590 -1.1553 -1.2354
  724MOL0     C95497   7.583   3.746   3.846  0.6686 -0.8285  0.4936
  724MOL0     C95498   7.689   3.811   3.755 -0.2115 -0.5136  0.4772
  724MOL0     C95499   7.725   3.939   3.813 -0.2303 -0.1723 -0.5758
  724MOL0     C95500   7.726   4.050   3.880  1.1307  0.6429  0.4711
  724MOL0     C95501   7.153   3.461   3.717  0.6915 -0.5298 -0.4778
  724MOL0     C95502   7.014   3.430   3.736 -0.5926 -1.5945 -0.0395
  724MOL0     H95503   6.751   2.961   4.039 -0.8251 -2.6606 -1.9557
  724MOL0     H95504   6.544   2.850   4.057  0.6165 -0.8794 -1.7366
  724MOL0     H95505   6.351   2.824   4.167  0.3095  2.0939  2.8020
  724MOL0     H95506   6.179   2.819   4.099 -0.5236 -1.4437  2.9610
  724MOL0     H95507   6.286   3.060   4.247 -0.3239 -0.7077  0.6351
  724MOL0     H95508   6.180   2.937   4.315  0.4537  2.6673  2.2806
  724MOL0     H95509   6.033   3.002   4.092  2.2523 -2.0278  0.2377
  724MOL0     H95510   6.140   3.144   4.099 -1.0062  2.6194  3.0090
  724MOL0     H95511   5.970   3.061   4.330  2.4367  0.0274  0.1358
  724MOL0     H95512   6.061   3.210   4.316 -2.9818  3.4120 -1.0210
  724MOL0     H95513   5.842   3.278   4.267 -2.1191  0.6369 -2.8479
  724MOL0     H95514   5.801   3.127   4.204  2.1179 -3.2159 -3.4092
  724MOL0     H95515   5.781   3.321   4.054  0.1643  1.1189  0.3135
  724MOL0     H95516   5.877   3.190   3.987  3.8741 -2.0831  2.6212
  724MOL0     H95517   5.979   3.458   4.106 -1.4876  1.1841 -0.7306
  724MOL0     H95518   6.094   3.330   4.063 -1.5707 -3.1575  0.9535
  724MOL0     H95519   6.054   3.362   3.842 -0.0187 -0.6051 -0.3670
  724MOL0     H95520   6.071   3.523   3.911  1.7617 -1.1279 -1.5788
  724MOL0     H95521   5.848   3.325   3.688  0.6971  0.5926 -1.2470
  724MOL0     H95522   5.497   3.418   3.684 -0.5210  2.3645  0.8953
  724MOL0     H95523   5.600   3.406   3.544  2.4205 -2.0319  1.8404
  724MOL0     H95524   5.494   3.602   3.465 -2.8606 -0.0445 -0.9268
  724MOL0     H95525   5.605   3.672   3.588 -1.3988 -0.3674 -1.3806
  724MOL0     H95526   5.313   3.598   3.650  0.0952  0.4922  1.6191
  724MOL0     H95527   5.425   3.686   3.747  0.1931 -0.8680  0.2646
  724MOL0     H95528   5.446   3.880   3.585  1.0143 -1.4632 -0.5967
  724MOL0     H95529   5.271   3.844   3.632 -0.4471  1.7140 -0.9166
  724MOL0     H95530   5.275   4.051   3.530 -2.2088  0.7409  0.3785
  724MOL0     H95531   5.175   4.224   3.409 -2.1178  0.0697 -2.1556
  724MOL0     H95532   5.211   4.269   2.808  0.0120  0.3367 -2.6149
  724MOL0     H95533   5.172   4.474   2.652 -0.6286  3.7198  0.5251
  724MOL0     H95534   5.090   4.631   2.543 -1.0279  0.3940 -1.4421
  724MOL0     H95535   5.188   4.694   2.675  1.2418 -1.9283 -0.4882
  724MOL0     H95536   5.110   4.909   2.659  1.5942 -2.8150  0.7698
  724MOL0     H95537   4.955   4.863   2.586 -0.0296 -0.3112  2.6654
  724MOL0     H95538   5.046   4.955   2.408 -1.4044 -0.9331 -1.1570
  724MOL0     H95539   5.055   4.778   2.381  2.5157  0.1379 -2.5409
  724MOL0     H95540   5.296   4.932   2.481 -0.1158 -0.0296 -0.3770
  724MOL0     H95541   5.287   4.760   2.456 -1.0461  0.0634  1.3830
  724MOL0     H95542   5.215   4.957   2.243 -0.6077 -0.9269 -0.4816
  724MOL0     H95543   5.229   4.782   2.227 -0.1498 -0.3995  1.0143
  724MOL0     H95544   5.471   4.814   2.258 -1.2743 -0.7380 -0.5811
  724MOL0     H95545   5.446   4.985   2.279 -2.9381  0.3472  2.3543
  724MOL0     H95546   5.379   4.818   2.026 -2.8249  0.6948  2.8918
  724MOL0     H95547   5.373   4.993   2.037  2.1562 -0.4230 -3.2869
  724MOL0     H95548   5.624   4.850   2.091  0.8535 -1.2146 -2.0487
  724MOL0     H95549   5.605   5.025   2.081 -0.2567 -0.1425  0.5607
  724MOL0     H95550   4.835   4.575   2.906 -0.6692 -0.3802 -1.6934
  724MOL0     H95551   4.873   4.345   3.024 -0.9559 -4.8894 -2.7398
  724MOL0     H95552   5.191   3.972   3.050  0.5388  1.1986 -1.0530
  724MOL0     H95553   5.272   3.789   3.190 -1.0302 -0.1628 -0.4014
  724MOL0     H95554   6.321   3.185   3.934 -0.2791 -0.0944  0.3405
  724MOL0     H95555   6.547   3.324   3.910  3.8189  0.2585 -1.5342
  724MOL0     H95556   7.061   3.224   4.005 -0.9855 -0.0173 -1.3857
  724MOL0     H95557   7.280   3.259   3.960  0.3600 -0.7611 -0.8257
  724MOL0     H95558   7.526   3.475   3.924 -1.4226 -1.9539  2.0088
  724MOL0     H95559   7.379   3.573   3.933 -0.0670 -1.0805 -0.2290
  724MOL0     H95560   7.571   3.600   3.689 -0.2792 -0.8241 -1.5451
  724MOL0     H95561   7.420   3.676   3.719  0.5320  0.4461 -0.9329
  724MOL0     H95562   7.636   3.719   3.937  0.1558 -0.0958  1.0217
  724MOL0     H95563   7.512   3.816   3.891  0.8497 -2.6185  3.8186
  724MOL0     H95564   7.771   3.739   3.755 -1.4738 -2.1960  4.3337
  724MOL0     H95565   7.642   3.815   3.656 -1.1565 -2.3004  0.8126
  724MOL0     H95566   7.711   4.139   3.936 -2.4340  3.6140 -4.4066
  724MOL0     H95567   7.176   3.539   3.645  2.6255 -1.0123 -0.4413
  724MOL0     H95568   6.943   3.492   3.682 -1.5282 -2.9137 -0.3825
  725MOL0     O95569   9.841   8.579   5.107  0.5119 -0.0706 -0.0748
  725MOL0     C95570   9.743   8.619   5.040 -0.4591 -0.9194 -0.6359
  725MOL0     O95571   9.734   8.610   4.900 -0.0033 -0.2672 -0.6123
  725MOL0     C95572   9.845   8.588   4.826  0.3761  0.4687 -0.1562
  725MOL0     C95573   9.913   8.701   4.766  0.1479 -0.3904 -0.0310
  725MOL0     C95574  10.023   8.676   4.686 -0.5812  0.4562  0.3995
  725MOL0     C95575  10.087   8.553   4.683 -0.5105 -0.6515 -0.1164
  725MOL0     O95576  10.206   8.553   4.616 -0.7848 -0.4947  0.6012
  725MOL0     C95577  10.320   8.527   4.700  0.4042  0.7859  0.5923
  725MOL0     C95578  10.381   8.651   4.759  0.9164  0.2620 -1.3486
  725MOL0     C95579  10.386   8.775   4.669 -0.1220  0.3636 -0.4580
  725MOL0     C95580  10.462   8.891   4.727  0.3437 -0.0407 -1.1314
  725MOL0     C95581  10.464   9.027   4.646 -0.2760 -0.3240 -0.1148
  725MOL0     C95582  10.591   9.036   4.569  0.3743  0.2501  0.2866
  725MOL0     C95583  10.620   9.182   4.517  0.4030 -0.2088 -0.1605
  725MOL0     C95584  10.728   9.180   4.411  0.0465  0.1018 -0.6316
  725MOL0     N95585  10.755   9.322   4.383 -0.5529  0.0184  0.2299
  725MOL0     C95586  10.711   9.387   4.272  0.1182 -0.4701  0.3741
  725MOL0     C95587  10.755   9.516   4.287  0.5316  0.9613 -0.1157
  725MOL0     C95588  10.728   9.618   4.181  0.8168 -0.5150  0.1491
  725MOL0     C95589  10.821   9.624   4.062 -0.0525 -0.2823 -0.2451
  725MOL0     C95590  10.781   9.718   3.948  1.0542  0.4418  0.2468
  725MOL0     C95591  10.792   9.874   3.978  1.1545 -0.8188  0.2156
  725MOL0     O95592  10.755   9.968   3.868 -0.3150 -0.3659 -0.1584
  725MOL0     C95593  10.734  10.099   3.898 -0.1632  0.3183 -0.4672
  725MOL0     C95594  10.685  10.183   3.796 -0.0535  0.5306 -0.0375
  725MOL0     C95595  10.655  10.317   3.827 -0.3113 -0.0820  0.4872
  725MOL0     C95596  10.682  10.381   3.943  0.7839 -0.8441 -0.7942
  725MOL0     C95597  10.634  10.516   3.989 -0.3631 -1.3890 -0.6538
  725MOL0     O95598  10.527  10.571   3.929 -0.1966  0.0750  0.4317
  725MOL0     C95599  10.499  10.710   3.907  0.0533  0.2900 -1.3885
  725MOL0     C95600  10.408  10.721   3.801 -0.0722  0.2744 -0.7217
  725MOL0     C95601  10.372  10.852   3.756  0.4254 -0.6198 -1.1715
  725MOL0     C95602  10.423  10.970   3.816  0.4765  0.0493  0.7857
  725MOL0     O95603  10.381  11.097   3.775  0.5773 -0.0728 -0.8858
  725MOL0     C95604  10.272  11.146   3.857  0.4230  0.4653  0.1643
  725MOL0     C95605  10.230  11.293   3.828  0.1274  0.0771  0.6566
  725MOL0     C95606  10.179  11.295   3.690  0.3262  1.3119 -0.3896
  725MOL0     C95607  10.127  11.432   3.652 -0.5782  0.2938 -0.1796
  725MOL0     C95608  10.221  11.515   3.576 -0.7154  0.6887 -1.0976
  725MOL0     C95609  10.187  11.664   3.555 -0.6236  0.7098 -0.0915
  725MOL0     C95610  10.084  11.674   3.442 -1.1621  0.1170 -0.7232
  725MOL0     C95611  10.026  11.817   3.450 -0.4770  0.0560  1.1459
  725MOL0    Cl95612   9.877  11.816   3.341  0.0834  0.3305  0.1310
  725MOL0     C95613  10.506  10.953   3.931  0.9540 -0.5965  0.1956
  725MOL0     C95614  10.549  10.823   3.968 -1.5986  0.0377 -0.2182
  725MOL0     O95615  10.677  10.569   4.096 -0.3083 -0.1515 -0.4469
  725MOL0     C95616  10.727  10.299   4.055 -0.9823  0.1026 -0.3614
  725MOL0     C95617  10.763  10.162   4.028 -1.2759 -0.3418  1.8167
  725MOL0     N95618  10.827   9.527   4.401 -0.3260 -0.5603 -0.9378
  725MOL0     N95619  10.832   9.410   4.454  0.4008 -0.1095 -0.2028
  725MOL0     C95620  10.028   8.443   4.738  0.2163 -0.6423  0.1668
  725MOL0     C95621   9.908   8.463   4.808 -0.0766  0.7270 -0.7069
  725MOL0     C95622   9.634   8.698   5.119  0.8755  0.3459  0.0145
  725MOL0     C95623   9.512   8.740   5.052 -0.3150  0.2968 -0.4168
  725MOL0     C95624   9.415   8.820   5.128 -0.6594  0.3640 -0.5322
  725MOL0     C95625   9.432   8.863   5.260  0.4210  0.4996 -0.2628
  725MOL0     O95626   9.342   8.930   5.332  0.4002  0.1594  0.3854
  725MOL0     C95627   9.207   8.971   5.287  0.4068 -0.4244  1.1750
  725MOL0     C95628   9.122   8.845   5.277  0.1890  0.3952 -1.2529
  725MOL0     C95629   9.001   8.873   5.188 -0.2932  0.6926  0.4453
  725MOL0     C95630   8.942   8.746   5.116  0.2112 -0.0335 -0.6688
  725MOL0     C95631   9.028   8.716   5.004 -0.0030  0.3651  0.3248
  725MOL0     C95632   9.102   8.673   4.918  0.2788  0.1587  0.6814
  725MOL0     C95633   9.550   8.821   5.329 -0.0724 -0.2536 -0.0593
  725MOL0     C95634   9.647   8.739   5.264 -0.0679 -0.0683 -1.1327
  725MOL0     H95635   9.878   8.803   4.773 -1.7688 -0.7464 -2.7617
  725MOL0     H95636  10.075   8.753   4.630  0.4672 -1.1350 -0.9260
  725MOL0     H95637  10.403   8.486   4.642  2.0794 -0.4125  3.5952
  725MOL0     H95638  10.301   8.450   4.775 -0.0069 -1.5226 -1.7699
  725MOL0     H95639  10.480   8.630   4.799  0.9886 -0.7929 -2.0408
  725MOL0     H95640  10.322   8.694   4.840  0.3170 -0.6727 -1.2724
  725MOL0     H95641  10.290   8.818   4.640 -0.9811 -0.8347  0.4695
  725MOL0     H95642  10.425   8.743   4.572 -1.2923  0.9696 -1.1541
  725MOL0     H95643  10.410   8.910   4.822  0.4383  0.4248 -1.1698
  725MOL0     H95644  10.565   8.869   4.758  0.3114  1.5636  0.2241
  725MOL0     H95645  10.449   9.108   4.718  2.4446  1.1812 -1.0733
  725MOL0     H95646  10.386   9.036   4.571  2.1427  0.5298 -2.6775
  725MOL0     H95647  10.590   8.965   4.486  2.6653  1.7638 -1.1475
  725MOL0     H95648  10.672   9.005   4.636 -0.9594 -1.4700  1.1983
  725MOL0     H95649  10.525   9.225   4.485  0.0898 -2.3506 -2.4511
  725MOL0     H95650  10.660   9.236   4.604  3.6438  0.9218 -2.1476
  725MOL0     H95651  10.684   9.131   4.323 -1.2175 -1.0040  0.5710
  725MOL0     H95652  10.817   9.129   4.449 -0.7300 -2.1860 -1.6768
  725MOL0     H95653  10.653   9.341   4.193  2.1498  0.3071 -1.6853
  725MOL0     H95654  10.728   9.720   4.223  2.9360  0.1366 -1.2715
  725MOL0     H95655  10.630   9.589   4.144  0.3698 -1.6500  2.0952
  725MOL0     H95656  10.848   9.521   4.035 -1.7135 -0.8666  0.2653
  725MOL0     H95657  10.918   9.659   4.099 -0.4439  1.2733 -0.6259
  725MOL0     H95658  10.842   9.694   3.861  1.0637  2.0078 -0.1995
  725MOL0     H95659  10.680   9.695   3.914  1.4229  1.2604 -1.5108
  725MOL0     H95660  10.893   9.898   4.013  2.5499 -3.5595 -1.6095
  725MOL0     H95661  10.715   9.899   4.052  0.2907  1.3190 -1.3137
  725MOL0     H95662  10.663  10.135   3.702 -2.3056 -0.0306  0.7143
  725MOL0     H95663  10.615  10.377   3.746 -2.0565 -3.0471 -1.0211
  725MOL0     H95664  10.373  10.627   3.760  1.1791 -1.3404  1.7031
  725MOL0     H95665  10.298  10.868   3.678 -2.1162 -1.6301  0.8936
  725MOL0     H95666  10.300  11.133   3.962  0.2571  0.0181  0.1565
  725MOL0     H95667  10.177  11.091   3.850 -1.3882  3.5425 -1.7330
  725MOL0     H95668  10.315  11.357   3.855  0.6336 -0.5726  0.6362
  725MOL0     H95669  10.151  11.319   3.899  0.3952  0.3192  0.8691
  725MOL0     H95670  10.091  11.231   3.678  0.9011  0.4620 -0.1243
  725MOL0     H95671  10.244  11.249   3.615  0.0066 -2.0666  1.2277
  725MOL0     H95672  10.033  11.415   3.598 -0.5262 -0.9544  0.0875
  725MOL0     H95673  10.107  11.482   3.747 -2.1837 -0.7112  0.0461
  725MOL0     H95674  10.250  11.472   3.480  0.6986 -1.5110  0.2426
  725MOL0     H95675  10.316  11.507   3.628 -0.5767  0.7323 -1.3434
  725MOL0     H95676  10.274  11.724   3.529 -2.3179  3.8017  0.8579
  725MOL0     H95677  10.155  11.703   3.652  2.1783 -0.6722  1.4962
  725MOL0     H95678  10.136  11.653   3.348 -0.3394  0.0626 -0.2566
  725MOL0     H95679  10.006  11.598   3.455  0.0226 -0.6434  3.3288
  725MOL0     H95680  10.089  11.899   3.414 -2.3867  0.8694 -0.6079
  725MOL0     H95681  10.002  11.845   3.553  0.6099  1.2996  1.0889
  725MOL0     H95682  10.535  11.039   3.991 -1.1004 -0.2017  0.6914
  725MOL0     H95683  10.612  10.797   4.053 -2.5273 -1.8063 -0.0396
  725MOL0     H95684  10.735  10.350   4.150 -1.1982  1.8098 -1.2220
  725MOL0     H95685  10.823  10.121   4.109 -0.3287 -0.9125  0.8477
  725MOL0     H95686  10.085   8.352   4.720  1.6126  0.3350 -0.5051
  725MOL0     H95687   9.853   8.383   4.856  2.7433 -1.3818 -0.7023
  725MOL0     H95688   9.495   8.717   4.947 -1.0120 -0.5345 -0.1304
  725MOL0     H95689   9.330   8.869   5.081 -0.9595  0.3064 -0.0536
  725MOL0     H95690   9.205   9.025   5.192  0.7063 -0.6865  1.0179
  725MOL0     H95691   9.165   9.042   5.359  0.4489  0.4049  0.3969
  725MOL0     H95692   9.180   8.761   5.238 -0.8539 -1.1486  0.3776
  725MOL0     H95693   9.088   8.817   5.377 -0.4806 -0.7372 -1.7834
  725MOL0     H95694   9.032   8.942   5.109 -0.6294  0.1518 -0.1580
  725MOL0     H95695   8.925   8.934   5.238 -1.9334  1.1753 -2.4531
  725MOL0     H95696   8.926   8.667   5.190  0.8302  0.2409 -0.2271
  725MOL0     H95697   8.844   8.763   5.071  0.2521 -0.4600 -0.9222
  725MOL0     H95698   9.165   8.629   4.843  2.8076  2.7897  1.0773
  725MOL0     H95699   9.558   8.875   5.423  2.9939 -1.0962  0.2759
  725MOL0     H95700   9.726   8.706   5.331 -2.1785  0.5343  1.8676
  726MOL0     O95701   2.221   5.567  11.249 -0.4214 -0.8608 -0.4065
  726MOL0     C95702   2.330   5.526  11.211  0.2685  0.0762 -0.9576
  726MOL0     O95703   2.371   5.394  11.237 -0.6859 -0.1111  0.7344
  726MOL0     C95704   2.295   5.300  11.307  0.1797 -0.4965 -0.0736
  726MOL0     C95705   2.159   5.268  11.269  0.7170  1.1902  0.3025
  726MOL0     C95706   2.090   5.176  11.353 -0.5353  0.0269 -0.1074
  726MOL0     C95707   2.148   5.115  11.467  0.7159 -0.1925  0.4954
  726MOL0     O95708   2.097   5.002  11.523  0.5686  0.4262 -1.0021
  726MOL0     C95709   1.970   4.951  11.477 -0.1884 -0.2261 -0.4360
  726MOL0     C95710   1.956   4.826  11.567  0.7657  0.5430  0.5126
  726MOL0     C95711   1.874   4.723  11.484  0.9534  1.6241 -0.5661
  726MOL0     C95712   1.845   4.590  11.564  0.1899 -0.2095  0.6482
  726MOL0     C95713   1.772   4.471  11.495  0.2488 -0.3183 -0.7572
  726MOL0     C95714   1.801   4.346  11.579  0.4456  0.0792  0.2036
  726MOL0     C95715   1.771   4.219  11.495  0.1745 -0.2154 -0.8661
  726MOL0     C95716   1.800   4.086  11.578  0.2553 -0.0904  0.3757
  726MOL0     N95717   1.764   3.972  11.494  0.1647  0.4483 -0.2920
  726MOL0     C95718   1.693   3.870  11.543 -0.9122  0.8887 -1.1688
  726MOL0     C95719   1.703   3.774  11.450  0.8059  0.7578  0.3639
  726MOL0     C95720   1.630   3.648  11.470  0.1154 -0.2382  0.9175
  726MOL0     C95721   1.476   3.659  11.455 -0.6629  0.4070 -0.1596
  726MOL0     C95722   1.428   3.636  11.303 -0.3771 -0.3969 -0.1344
  726MOL0     C95723   1.422   3.770  11.225  0.0654  0.2193 -0.0519
  726MOL0     O95724   1.370   3.881  11.291 -0.3269  0.7259  0.1880
  726MOL0     C95725   1.243   3.889  11.332  0.9261 -0.1817  0.0293
  726MOL0     C95726   1.144   3.789  11.310  0.0343  0.3458  0.1705
  726MOL0     C95727   1.016   3.794  11.359 -0.6413 -1.4061  0.4389
  726MOL0     C95728   0.977   3.911  11.435  0.2250 -0.6592 -0.8660
  726MOL0     C95729   0.837   3.939  11.479 -0.1677 -0.5547 -0.1588
  726MOL0     O95730   0.740   3.863  11.424 -0.3271  0.1283  0.7172
  726MOL0     C95731   0.603   3.863  11.466 -0.5271 -0.0195  1.1742
  726MOL0     C95732   0.561   3.890  11.603 -0.3454  0.5897  0.3045
  726MOL0     C95733   0.425   3.897  11.628 -0.6191 -0.4758 -0.7167
  726MOL0     C95734   0.328   3.878  11.527 -0.0257  0.7303  0.2856
  726MOL0     O95735   0.192   3.891  11.542  0.2036 -0.0303  0.0903
  726MOL0     C95736   0.150   4.022  11.588  0.4586  0.0087  0.1564
  726MOL0     C95737   0.013   4.068  11.532 -0.0464 -0.2278  0.5006
  726MOL0     C95738   0.014   4.112  11.386 -0.2869  0.1379 -0.4822
  726MOL0     C95739  -0.122   4.080  11.327 -0.0185 -0.2963 -0.4593
  726MOL0     C95740  -0.133   4.142  11.185 -0.3714  0.7171 -1.7124
  726MOL0     C95741  -0.254   4.084  11.107  0.4184 -0.8680  0.3329
  726MOL0     C95742  -0.229   3.942  11.060  0.4387 -0.1743 -0.0235
  726MOL0     C95743  -0.352   3.865  11.012  0.2799 -0.5537  0.0013
  726MOL0    Cl95744  -0.300   3.762  10.886 -0.0938 -0.3652  0.3753
  726MOL0     C95745   0.370   3.834  11.404  0.3130  0.4917  0.6708
  726MOL0     C95746   0.508   3.819  11.374  0.1497  0.3103  0.5803
  726MOL0     O95747   0.812   4.040  11.551 -0.1135  0.1040 -0.2687
  726MOL0     C95748   1.078   4.009  11.469  0.3066  0.2109  0.5687
  726MOL0     C95749   1.202   3.995  11.419 -0.3308  0.2677 -0.0047
  726MOL0     N95750   1.795   3.818  11.346 -0.1561 -0.8338  0.2118
  726MOL0     N95751   1.824   3.939  11.378  0.1656 -0.2342  0.6768
  726MOL0     C95752   2.280   5.147  11.500 -0.5299 -0.7391 -0.3225
  726MOL0     C95753   2.350   5.239  11.422 -0.1771 -0.4434  0.3247
  726MOL0     C95754   2.428   5.603  11.141 -0.4493  0.0895  0.6217
  726MOL0     C95755   2.555   5.556  11.111 -0.5487 -0.1722  0.4531
  726MOL0     C95756   2.644   5.632  11.044 -0.3715 -0.5957 -0.4913
  726MOL0     C95757   2.612   5.761  11.006  0.2976 -0.8734  0.2874
  726MOL0     O95758   2.714   5.819  10.931  0.3193 -0.5194  0.0159
  726MOL0     C95759   2.703   5.948  10.864 -0.6173 -0.0175 -0.0401
  726MOL0     C95760   2.641   5.923  10.726 -0.4805  0.8287 -0.2533
  726MOL0     C95761   2.748   5.860  10.630  0.5655 -0.6408  0.2391
  726MOL0     C95762   2.703   5.838  10.487  0.5874  0.1030 -0.1287
  726MOL0     C95763   2.571   5.768  10.465  0.6727  0.5457 -0.8355
  726MOL0     C95764   2.455   5.741  10.432  0.7924  0.4643  0.0830
  726MOL0     C95765   2.482   5.812  11.033  0.2463  0.7197  0.4086
  726MOL0     C95766   2.387   5.730  11.091 -0.3153 -0.1721 -0.4290
  726MOL0     H95767   2.099   5.326  11.200  0.4544 -0.6117 -1.0570
  726MOL0     H95768   1.988   5.150  11.330 -0.1438 -1.9623  0.2282
  726MOL0     H95769   1.980   4.932  11.370 -1.7364  1.1824 -0.8689
  726MOL0     H95770   1.898   5.031  11.494  0.1248 -0.1799  0.7598
  726MOL0     H95771   1.893   4.848  11.654 -3.5442  2.0506 -2.6516
  726MOL0     H95772   2.056   4.789  11.590  1.1736 -1.4412 -3.5935
  726MOL0     H95773   1.921   4.701  11.388  1.5985  3.1047 -0.6209
  726MOL0     H95774   1.778   4.768  11.462  0.4709  1.1338  0.4425
  726MOL0     H95775   1.940   4.557  11.607  0.4861 -0.4585 -0.1728
  726MOL0     H95776   1.791   4.616  11.656 -0.3236 -1.3907  0.7039
  726MOL0     H95777   1.824   4.468  11.399  1.8940  0.4774  0.0655
  726MOL0     H95778   1.664   4.484  11.481  0.2700 -1.3697 -2.0788
  726MOL0     H95779   1.730   4.348  11.662 -0.6550 -0.2495 -0.7056
  726MOL0     H95780   1.904   4.348  11.616  0.4330 -1.7100  0.4339
  726MOL0     H95781   1.669   4.231  11.459 -0.4626  1.7721  1.3680
  726MOL0     H95782   1.842   4.210  11.411  2.9734  0.7186  1.2421
  726MOL0     H95783   1.733   4.083  11.665 -1.4025  3.3952 -0.5765
  726MOL0     H95784   1.905   4.083  11.607  1.0451  3.7799 -1.4850
  726MOL0     H95785   1.651   3.861  11.643  2.6989  0.9117  0.5123
  726MOL0     H95786   1.637   3.601  11.569 -2.8678 -3.0269 -0.0415
  726MOL0     H95787   1.662   3.573  11.396 -3.4890  0.8658 -2.0834
  726MOL0     H95788   1.435   3.754  11.491  0.9908  1.1560 -0.1589
  726MOL0     H95789   1.432   3.589  11.527  2.2726  0.9226  2.3165
  726MOL0     H95790   1.489   3.566  11.246 -1.0658 -0.6758 -0.5461
  726MOL0     H95791   1.328   3.598  11.329 -0.7545  0.8528  0.3270
  726MOL0     H95792   1.364   3.758  11.133  0.7569 -1.9913 -0.2653
  726MOL0     H95793   1.521   3.798  11.189 -0.2546 -1.1169 -2.1154
  726MOL0     H95794   1.169   3.703  11.248 -2.8600  1.5365 -2.9801
  726MOL0     H95795   0.946   3.713  11.343  0.4617 -2.9515  2.8376
  726MOL0     H95796   0.642   3.894  11.674  0.5528 -1.1032 -0.5697
  726MOL0     H95797   0.407   3.922  11.732 -2.0639  6.7486 -2.1448
  726MOL0     H95798   0.230   4.090  11.558 -1.1446  1.0500 -2.0302
  726MOL0     H95799   0.135   4.034  11.696 -0.9155  3.0445 -0.2747
  726MOL0     H95800  -0.023   4.160  11.580 -1.6445  0.1246 -1.2398
  726MOL0     H95801  -0.066   3.997  11.559 -0.4230  0.9419  2.7150
  726MOL0     H95802   0.093   4.056  11.335  2.5186  1.6081  1.9369
  726MOL0     H95803   0.054   4.213  11.377 -0.5397  0.3741  0.8469
  726MOL0     H95804  -0.148   3.974  11.329 -3.5726  0.4492  1.8192
  726MOL0     H95805  -0.204   4.122  11.387 -0.8635  0.2411 -1.9310
  726MOL0     H95806  -0.040   4.147  11.128  0.6079 -1.1181 -0.3726
  726MOL0     H95807  -0.150   4.248  11.208  0.0826  0.4976 -0.2557
  726MOL0     H95808  -0.266   4.153  11.023  0.7786 -0.3414  0.7055
  726MOL0     H95809  -0.341   4.101  11.172 -0.9864  1.9179 -2.0237
  726MOL0     H95810  -0.157   3.938  10.977 -3.3501  0.5078 -3.6874
  726MOL0     H95811  -0.189   3.879  11.140  0.9815 -1.1300 -1.0050
  726MOL0     H95812  -0.433   3.935  10.989  2.2148  2.2014  0.9156
  726MOL0     H95813  -0.387   3.798  11.091  1.1390 -0.2940  0.6296
  726MOL0     H95814   0.299   3.803  11.327  1.1153  0.5239 -0.0966
  726MOL0     H95815   0.546   3.784  11.279 -0.4847  3.1260 -0.8160
  726MOL0     H95816   1.039   4.090  11.531 -0.2382  0.6855 -0.3622
  726MOL0     H95817   1.276   4.068  11.452 -1.6329  1.2466  0.8789
  726MOL0     H95818   2.342   5.092  11.570  1.8908  2.4045  0.2405
  726MOL0     H95819   2.452   5.274  11.430  0.9085 -2.4063 -3.1107
  726MOL0     H95820   2.594   5.458  11.138 -1.7960 -2.3818 -4.5368
  726MOL0     H95821   2.741   5.585  11.032 -0.6112 -1.3694  0.4327
  726MOL0     H95822   2.801   5.997  10.859 -1.0373  1.0667  1.5059
  726MOL0     H95823   2.651   6.022  10.926  0.4740  2.0597 -1.4685
  726MOL0     H95824   2.556   5.854  10.729 -1.8973  2.5064 -0.0134
  726MOL0     H95825   2.605   6.014  10.677 -1.8238  1.1145  1.1806
  726MOL0     H95826   2.776   5.766  10.679  1.3356 -1.0577 -0.9652
  726MOL0     H95827   2.837   5.923  10.622 -0.9362  1.2782 -3.1431
  726MOL0     H95828   2.696   5.936  10.438 -0.4003 -0.6705 -1.6136
  726MOL0     H95829   2.779   5.775  10.439  2.0924  0.5463  1.5418
  726MOL0     H95830   2.350   5.723  10.422  1.0520 -1.4717  0.3994
  726MOL0     H95831   2.444   5.909  11.004 -1.7018 -0.3387 -0.7481
  726MOL0     H95832   2.290   5.777  11.096  1.1908  3.3094 -0.5263
  727MOL0     O95833   6.727   5.671  10.846 -0.5241 -0.3458  0.4592
  727MOL0     C95834   6.844   5.704  10.881  0.5911  0.6166 -0.5711
  727MOL0     O95835   6.946   5.728  10.798  0.0580  0.3581  0.1436
  727MOL0     C95836   6.936   5.722  10.658 -1.1572 -0.6547  0.1380
  727MOL0     C95837   6.877   5.825  10.587  0.0296  0.1390 -0.2941
  727MOL0     C95838   6.866   5.819  10.444 -1.1278 -0.0599  0.4206
  727MOL0     C95839   6.906   5.705  10.369  0.4832  0.2267  0.3419
  727MOL0     O95840   6.907   5.680  10.231 -0.4498  0.2324 -0.1270
  727MOL0     C95841   6.853   5.782  10.144 -0.1869  0.0201  0.5339
  727MOL0     C95842   6.862   5.716  10.011 -0.3341  0.3377  0.1592
  727MOL0     C95843   7.007   5.707   9.952 -0.6912 -0.6111  0.0961
  727MOL0     C95844   7.005   5.631   9.819  1.0008  0.6867  0.3324
  727MOL0     C95845   7.129   5.649   9.720 -0.1773 -0.8480  0.4931
  727MOL0     C95846   7.104   5.607   9.572  0.5091 -0.3173 -0.2028
  727MOL0     C95847   7.228   5.624   9.491 -1.3283 -0.1020  0.3654
  727MOL0     C95848   7.222   5.542   9.363 -0.4357 -0.5333  0.4871
  727MOL0     N95849   7.354   5.567   9.292  0.1677  0.5672  0.0244
  727MOL0     C95850   7.469   5.502   9.314 -0.0450  0.1572  0.4124
  727MOL0     C95851   7.560   5.552   9.233  0.0102 -0.3890 -0.1451
  727MOL0     C95852   7.699   5.504   9.214 -0.5111  0.1321  0.7401
  727MOL0     C95853   7.789   5.601   9.140 -0.1686  0.0663  0.2205
  727MOL0     C95854   7.760   5.599   8.988  0.3806 -0.3262 -0.0277
  727MOL0     C95855   7.822   5.712   8.911  0.4813  0.0527  0.1039
  727MOL0     O95856   7.946   5.747   8.968 -0.3491  0.0555  0.3745
  727MOL0     C95857   8.011   5.857   8.918 -0.2940  0.2489  0.3380
  727MOL0     C95858   8.004   5.888   8.774 -0.6632 -0.4082  0.4552
  727MOL0     C95859   8.048   6.019   8.742 -0.6765 -1.1897 -0.7850
  727MOL0     C95860   8.105   6.107   8.844  0.1463 -0.2764 -0.2031
  727MOL0     C95861   8.159   6.241   8.816  0.2796  0.4254  0.2259
  727MOL0     O95862   8.226   6.311   8.920  0.1475  0.3766  0.1528
  727MOL0     C95863   8.317   6.404   8.885  0.9768  0.4151 -0.1750
  727MOL0     C95864   8.445   6.352   8.870 -0.5672 -0.1569  0.1036
  727MOL0     C95865   8.550   6.433   8.828  0.2708  0.6097  0.7351
  727MOL0     C95866   8.524   6.567   8.797  0.2194  0.1130  0.4480
  727MOL0     O95867   8.631   6.654   8.769  0.0434  0.0923  0.4631
  727MOL0     C95868   8.625   6.783   8.831 -0.1864  0.0926  0.0593
  727MOL0     C95869   8.768   6.851   8.813  0.7006 -0.0535 -0.1191
  727MOL0     C95870   8.772   6.923   8.680 -0.1410  0.3159 -0.5334
  727MOL0     C95871   8.900   6.999   8.670  0.1104  0.3254  0.4189
  727MOL0     C95872   8.899   7.097   8.544  0.6969 -0.1887 -1.2336
  727MOL0     C95873   9.035   7.168   8.519  0.1585 -0.3046 -0.7195
  727MOL0     C95874   9.140   7.095   8.445  0.4736  0.2293 -0.7363
  727MOL0     C95875   9.263   7.166   8.475 -0.1963  0.2395 -0.2238
  727MOL0    Cl95876   9.400   7.090   8.389 -0.2347  0.5825 -0.1139
  727MOL0     C95877   8.401   6.620   8.815  0.7054  0.3069 -0.8824
  727MOL0     C95878   8.289   6.543   8.852  0.8240  0.4759  0.2049
  727MOL0     O95879   8.153   6.280   8.698 -0.3270  0.6631 -0.0296
  727MOL0     C95880   8.122   6.054   8.978  0.5939 -0.5285  0.3153
  727MOL0     C95881   8.077   5.933   9.017  0.4541 -0.5914 -0.4434
  727MOL0     N95882   7.500   5.652   9.163  0.5948 -0.2101 -0.3715
  727MOL0     N95883   7.374   5.656   9.193 -0.2457 -1.3713 -0.3239
  727MOL0     C95884   6.960   5.599  10.451  0.1104  0.0349 -1.1585
  727MOL0     C95885   6.982   5.611  10.588  0.2191  0.7573 -2.1202
  727MOL0     C95886   6.866   5.724  11.031  0.3500  0.3859 -0.3555
  727MOL0     C95887   6.994   5.759  11.065 -0.2101  0.2685  0.6383
  727MOL0     C95888   7.023   5.770  11.210  0.2724  0.4204  0.4085
  727MOL0     C95889   6.924   5.781  11.298  0.3083  0.0803 -0.9405
  727MOL0     O95890   6.962   5.805  11.422 -0.0969  1.1790  0.2318
  727MOL0     C95891   6.875   5.871  11.514 -0.9169  0.6701 -0.5317
  727MOL0     C95892   6.896   5.816  11.657 -0.5695 -0.9938  0.7523
  727MOL0     C95893   6.836   5.911  11.758  0.9359 -0.6382  0.0409
  727MOL0     C95894   6.794   5.853  11.899 -0.5761  0.4553  0.1275
  727MOL0     C95895   6.911   5.770  11.947 -0.5469 -0.5665 -0.3798
  727MOL0     C95896   7.005   5.699  11.976 -0.3854  0.4501  1.0560
  727MOL0     C95897   6.789   5.761  11.257 -0.7360  0.3708 -0.0215
  727MOL0     C95898   6.758   5.730  11.128 -0.8693  0.1501 -0.4326
  727MOL0     H95899   6.841   5.908  10.648  1.1008  1.2639 -1.1565
  727MOL0     H95900   6.817   5.904  10.398  0.9883  2.0414  1.8115
  727MOL0     H95901   6.910   5.875  10.159  2.6195 -1.1571 -1.9539
  727MOL0     H95902   6.750   5.810  10.169  0.7708  3.7712  0.8977
  727MOL0     H95903   6.797   5.779   9.949 -0.4596 -0.0113 -0.0650
  727MOL0     H95904   6.819   5.616  10.015 -1.9580  1.0409  1.1896
  727MOL0     H95905   7.075   5.657  10.021  1.7837  1.6746 -0.5274
  727MOL0     H95906   7.042   5.807   9.925 -1.2195 -0.8418 -1.5919
  727MOL0     H95907   7.008   5.525   9.845  0.1594  0.2031 -1.3551
  727MOL0     H95908   6.910   5.664   9.775 -0.0010 -1.1869  1.0015
  727MOL0     H95909   7.211   5.588   9.759  0.8389 -0.6919 -1.3199
  727MOL0     H95910   7.153   5.756   9.725 -0.6290 -0.7402  0.3860
  727MOL0     H95911   7.030   5.676   9.530  1.6967  1.8917  1.1112
  727MOL0     H95912   7.064   5.506   9.570 -2.6000  0.8006  0.2313
  727MOL0     H95913   7.234   5.730   9.465 -0.6422 -0.2048  0.0876
  727MOL0     H95914   7.318   5.585   9.541  0.0261  0.0752 -1.7828
  727MOL0     H95915   7.138   5.579   9.304 -0.9185  0.0705  1.5281
  727MOL0     H95916   7.213   5.435   9.383 -2.5840 -0.7562 -1.2727
  727MOL0     H95917   7.509   5.424   9.378 -0.5269  0.5051  1.1546
  727MOL0     H95918   7.695   5.407   9.164 -0.2061 -1.0102  2.8153
  727MOL0     H95919   7.754   5.491   9.308  2.4522  1.0517 -0.7725
  727MOL0     H95920   7.895   5.583   9.160  0.8371  3.0382 -1.8411
  727MOL0     H95921   7.774   5.698   9.188  1.8110  0.0909  0.8807
  727MOL0     H95922   7.804   5.511   8.941  2.1339  0.1793  0.5728
  727MOL0     H95923   7.652   5.598   8.970  0.3047  0.0922  0.3853
  727MOL0     H95924   7.762   5.804   8.917  0.5605  0.3197 -2.1704
  727MOL0     H95925   7.834   5.686   8.805  0.5718 -1.0310  0.3735
  727MOL0     H95926   7.951   5.829   8.700  1.5480  1.4041 -2.7717
  727MOL0     H95927   8.029   6.061   8.644 -1.4331  0.9531  0.2094
  727MOL0     H95928   8.467   6.249   8.896 -1.6032 -0.7836 -1.3593
  727MOL0     H95929   8.651   6.393   8.829 -0.3846 -1.1011  1.4793
  727MOL0     H95930   8.622   6.771   8.939 -1.8589 -5.9920 -0.3056
  727MOL0     H95931   8.544   6.847   8.794  0.6979  1.9533  1.1750
  727MOL0     H95932   8.850   6.778   8.812  0.3895 -0.4158 -1.4145
  727MOL0     H95933   8.798   6.909   8.901  0.9723 -1.1158  0.5122
  727MOL0     H95934   8.683   6.986   8.670  1.5510  3.5483  2.4167
  727MOL0     H95935   8.787   6.864   8.589 -3.8539 -1.8252  0.0217
  727MOL0     H95936   8.916   7.054   8.763  0.4839  3.3558 -1.3088
  727MOL0     H95937   8.982   6.929   8.656  1.0184  0.6417  3.3917
  727MOL0     H95938   8.828   7.175   8.573  1.3217  0.1681 -0.6387
  727MOL0     H95939   8.864   7.053   8.450 -2.0324  1.0470 -0.9109
  727MOL0     H95940   9.073   7.216   8.610 -0.1982 -0.0829 -0.6838
  727MOL0     H95941   9.011   7.256   8.459 -4.4902  0.5157  1.8289
  727MOL0     H95942   9.130   6.991   8.479 -0.7336  0.0372 -1.6106
  727MOL0     H95943   9.117   7.100   8.338  3.2400 -0.7968 -1.4594
  727MOL0     H95944   9.272   7.184   8.583  1.1261 -0.4680 -0.1844
  727MOL0     H95945   9.257   7.261   8.422  0.4192 -0.6009 -1.8969
  727MOL0     H95946   8.392   6.727   8.795  2.7334  0.1246 -3.2132
  727MOL0     H95947   8.189   6.585   8.855  0.3490 -0.1044 -2.9801
  727MOL0     H95948   8.178   6.122   9.042 -0.9644 -0.9753  2.2553
  727MOL0     H95949   8.077   5.899   9.120 -2.1996 -0.4987 -0.3486
  727MOL0     H95950   6.985   5.502  10.409 -0.4193  0.1856 -1.8377
  727MOL0     H95951   7.033   5.535  10.645 -1.1305  3.5288  3.6199
  727MOL0     H95952   7.076   5.768  10.995 -1.0453 -0.6636 -0.4968
  727MOL0     H95953   7.123   5.791  11.246  1.0553 -1.3647 -0.6174
  727MOL0     H95954   6.768   5.853  11.501 -1.1700 -0.7798  2.5138
  727MOL0     H95955   6.894   5.979  11.511 -0.0610  0.5383 -0.1253
  727MOL0     H95956   6.859   5.714  11.669 -2.6703 -0.4572 -0.6853
  727MOL0     H95957   7.002   5.795  11.675 -0.3573 -1.5689 -1.0439
  727MOL0     H95958   6.738   5.935  11.716  1.5678  3.5835  0.5744
  727MOL0     H95959   6.899   5.999  11.766  0.0207  0.1606 -1.1856
  727MOL0     H95960   6.775   5.944  11.956 -2.8837  1.2996 -1.8282
  727MOL0     H95961   6.710   5.784  11.897 -1.8658  2.0061 -1.3285
  727MOL0     H95962   7.094   5.640  11.981 -1.3541 -1.3700 -1.2044
  727MOL0     H95963   6.706   5.753  11.326 -3.6320 -1.5359 -3.3861
  727MOL0     H95964   6.653   5.733  11.100 -0.4271 -0.4424 -2.2765
  728MOL0     O95965   5.706   3.924  10.431  0.0172 -0.2757 -0.0867
  728MOL0     C95966   5.777   3.931  10.335 -0.1685 -0.5022 -0.0828
  728MOL0     O95967   5.741   3.885  10.210  1.0034  0.6999  0.0634
  728MOL0     C95968   5.617   3.827  10.196  0.1709 -0.6805 -0.3654
  728MOL0     C95969   5.599   3.690  10.206 -0.2969  0.3780 -0.4777
  728MOL0     C95970   5.475   3.636  10.188  0.7174 -0.4583  0.4449
  728MOL0     C95971   5.364   3.710  10.152 -0.3798 -0.5608 -0.4036
  728MOL0     O95972   5.249   3.648  10.127 -0.0272  0.5246 -0.4234
  728MOL0     C95973   5.133   3.722  10.100  0.9944 -0.3902  0.3505
  728MOL0     C95974   5.033   3.611  10.046  0.9875 -0.2731 -0.7116
  728MOL0     C95975   4.928   3.651   9.934 -0.3649 -0.2921 -0.1659
  728MOL0     C95976   4.779   3.635   9.982  0.1183  0.4500  0.0517
  728MOL0     C95977   4.678   3.704   9.889  0.0024 -0.6989 -1.1803
  728MOL0     C95978   4.649   3.625   9.761  0.2125 -0.2685  0.1962
  728MOL0     C95979   4.570   3.705   9.655  0.0907  0.7942 -0.4514
  728MOL0     C95980   4.499   3.614   9.553  0.7016 -0.0634 -0.2548
  728MOL0     N95981   4.379   3.674   9.497  0.1871  1.0629 -1.2186
  728MOL0     C95982   4.396   3.789   9.428 -0.1023 -0.3058 -0.4569
  728MOL0     C95983   4.267   3.818   9.404  0.0591  0.0422 -0.6074
  728MOL0     C95984   4.206   3.936   9.320  0.5231  0.0179 -0.1994
  728MOL0     C95985   4.097   4.025   9.387 -0.3010  0.1704 -0.3678
  728MOL0     C95986   4.039   4.127   9.294  0.2671  0.5830  0.2063
  728MOL0     C95987   3.961   4.237   9.367 -0.3147  0.1436  0.4569
  728MOL0     O95988   4.060   4.331   9.430  0.0668 -0.0019  0.6508
  728MOL0     C95989   4.113   4.441   9.359 -0.0295 -0.1853 -0.0927
  728MOL0     C95990   4.207   4.519   9.431 -0.1742 -1.3720 -0.4922
  728MOL0     C95991   4.266   4.629   9.368 -0.3500  0.4424  0.4072
  728MOL0     C95992   4.253   4.665   9.235 -0.1933  0.4257  0.3765
  728MOL0     C95993   4.314   4.785   9.176  0.4984 -0.2155 -0.3942
  728MOL0     O95994   4.267   4.824   9.058  0.4522 -0.7216  0.1572
  728MOL0     C95995   4.336   4.924   8.988  0.8362 -0.0087 -0.0472
  728MOL0     C95996   4.387   5.048   9.034  0.3698  0.4214 -1.0043
  728MOL0     C95997   4.426   5.152   8.946  0.0695 -0.1069  0.3187
  728MOL0     C95998   4.419   5.124   8.808  0.9510  0.3536 -0.3123
  728MOL0     O95999   4.443   5.202   8.694  0.0332  0.1018 -0.8224
  728MOL0     C96000   4.490   5.332   8.714  0.6637 -1.1132  0.8450
  728MOL0     C96001   4.370   5.427   8.718  0.9027 -0.1213  0.8241
  728MOL0     C96002   4.425   5.570   8.674 -0.7337  0.4157  1.8564
  728MOL0     C96003   4.323   5.677   8.618 -0.7998 -0.8286 -0.0329
  728MOL0     C96004   4.388   5.811   8.622  0.6817  0.2450 -0.2196
  728MOL0     C96005   4.428   5.852   8.476 -0.7356 -0.7995  0.3154
  728MOL0     C96006   4.491   5.994   8.486  0.4363  0.4356  0.3818
  728MOL0     C96007   4.528   6.024   8.344 -1.0563 -1.1292  0.5767
  728MOL0    Cl96008   4.645   5.915   8.265  0.2950  0.0563  0.2465
  728MOL0     C96009   4.380   4.999   8.760 -0.0910  0.1776  0.2431
  728MOL0     C96010   4.330   4.905   8.843 -0.4849  0.3035 -0.8220
  728MOL0     O96011   4.401   4.834   9.241 -0.5370 -0.7578 -0.0786
  728MOL0     C96012   4.165   4.586   9.160  0.2092 -0.8528  0.6403
  728MOL0     C96013   4.098   4.472   9.213 -0.4751 -0.1497 -0.0930
  728MOL0     N96014   4.185   3.737   9.474  0.4969 -1.2129 -0.5601
  728MOL0     N96015   4.248   3.643   9.538  0.1208 -0.4232 -0.4807
  728MOL0     C96016   5.382   3.853  10.136  0.0416 -0.0453  0.5078
  728MOL0     C96017   5.508   3.904  10.158 -0.0976  0.4082  0.2076
  728MOL0     C96018   5.902   4.010  10.333 -0.4758  0.0060 -0.4903
  728MOL0     C96019   5.966   4.060  10.454  1.2915 -0.8892  0.0703
  728MOL0     C96020   6.092   4.122  10.449 -0.1070  0.3676 -0.2635
  728MOL0     C96021   6.156   4.137  10.327  0.0096 -0.1547  0.0636
  728MOL0     O96022   6.272   4.201  10.320  0.5016 -0.6350 -0.6200
  728MOL0     C96023   6.370   4.140  10.399 -0.2026 -0.7070  0.1156
  728MOL0     C96024   6.411   4.228  10.519 -0.0889 -0.7390 -0.9754
  728MOL0     C96025   6.567   4.253  10.521 -0.4494  0.1931  0.6837
  728MOL0     C96026   6.632   4.272  10.650 -0.7870  0.0439 -0.0806
  728MOL0     C96027   6.588   4.380  10.733 -0.3902 -0.2576  0.3556
  728MOL0     C96028   6.565   4.457  10.822 -0.3291 -0.1123 -0.0568
  728MOL0     C96029   6.089   4.115  10.207  0.0840  1.7756 -1.4598
  728MOL0     C96030   5.964   4.049  10.211 -0.9986 -0.7847 -0.0433
  728MOL0     H96031   5.687   3.630  10.229 -1.0930 -1.3918 -1.8985
  728MOL0     H96032   5.467   3.528  10.190  1.3650 -0.8626 -4.7690
  728MOL0     H96033   5.146   3.797  10.022  0.6056 -0.6714  0.0157
  728MOL0     H96034   5.094   3.772  10.190 -2.8757 -1.2621 -0.6743
  728MOL0     H96035   4.978   3.576  10.134  0.1971 -1.2122 -1.5501
  728MOL0     H96036   5.100   3.538  10.000 -0.1782 -1.6841 -0.2141
  728MOL0     H96037   4.952   3.578   9.856  2.1608  0.0579  0.2080
  728MOL0     H96038   4.944   3.753   9.897  0.5832  0.6938  2.7265
  728MOL0     H96039   4.756   3.528   9.981  0.9847  0.2399  0.8590
  728MOL0     H96040   4.768   3.676  10.083  1.1495  0.8106  0.0302
  728MOL0     H96041   4.722   3.801   9.864  1.1602 -1.0812 -0.7051
  728MOL0     H96042   4.586   3.731   9.941 -0.1325  3.2211 -3.0867
  728MOL0     H96043   4.601   3.527   9.772 -1.1387  0.2670 -0.7173
  728MOL0     H96044   4.743   3.599   9.712  0.0574 -2.9687  1.1338
  728MOL0     H96045   4.482   3.736   9.712 -0.0171  2.0925 -1.2695
  728MOL0     H96046   4.624   3.795   9.623  1.4087 -0.0200 -0.5568
  728MOL0     H96047   4.470   3.519   9.598 -2.1983  2.0033  2.7214
  728MOL0     H96048   4.572   3.607   9.472  1.1783  1.3430  0.0110
  728MOL0     H96049   4.484   3.853   9.427 -0.3485  0.8019  6.2268
  728MOL0     H96050   4.158   3.878   9.240 -0.5374  0.8959 -0.2298
  728MOL0     H96051   4.279   4.010   9.287 -1.0890  1.1842 -1.3210
  728MOL0     H96052   4.141   4.058   9.482 -2.0106  1.6564 -0.0475
  728MOL0     H96053   4.023   3.955   9.428 -0.3612 -0.0785 -0.8937
  728MOL0     H96054   4.128   4.166   9.244  0.4928 -0.5426 -0.2948
  728MOL0     H96055   3.977   4.079   9.218  0.8719 -0.3651  0.3015
  728MOL0     H96056   3.899   4.200   9.449 -0.2528 -0.0576  0.4133
  728MOL0     H96057   3.896   4.289   9.296 -1.2079 -2.3334 -0.6204
  728MOL0     H96058   4.214   4.488   9.535 -3.4611  5.0735  2.2100
  728MOL0     H96059   4.322   4.696   9.432 -3.1347  2.5032  0.8665
  728MOL0     H96060   4.387   5.072   9.140 -1.6865 -0.8394 -0.6631
  728MOL0     H96061   4.450   5.249   8.988  0.9795 -0.6641  1.1276
  728MOL0     H96062   4.556   5.345   8.628 -0.0262 -0.7120  0.3730
  728MOL0     H96063   4.554   5.343   8.803  1.2914 -2.4562  0.5890
  728MOL0     H96064   4.321   5.420   8.816  2.1165 -0.0008  1.4689
  728MOL0     H96065   4.308   5.397   8.633  3.1511 -0.5179 -0.7713
  728MOL0     H96066   4.483   5.564   8.581  0.1718  1.7331  2.3095
  728MOL0     H96067   4.494   5.591   8.757  4.6422 -0.7885 -1.7477
  728MOL0     H96068   4.304   5.655   8.513 -2.4686  0.5662 -0.0687
  728MOL0     H96069   4.226   5.683   8.668 -0.5440  2.6088  0.2863
  728MOL0     H96070   4.475   5.826   8.687  0.6086 -0.1178 -0.0353
  728MOL0     H96071   4.311   5.882   8.652 -0.0927  0.3727 -2.3175
  728MOL0     H96072   4.338   5.844   8.414  0.8536  2.2888 -2.7010
  728MOL0     H96073   4.508   5.787   8.438  0.1498 -1.4501  3.0890
  728MOL0     H96074   4.406   6.054   8.519 -2.8557 -2.1020 -2.5974
  728MOL0     H96075   4.576   5.991   8.554 -0.9173 -1.0474  2.0980
  728MOL0     H96076   4.582   6.119   8.338  3.2673 -3.3571 -0.1893
  728MOL0     H96077   4.436   6.023   8.286 -0.2149  2.5348 -1.1399
  728MOL0     H96078   4.363   4.979   8.655  1.4501  0.8501 -0.1565
  728MOL0     H96079   4.296   4.811   8.801 -0.0201 -0.0130 -0.5086
  728MOL0     H96080   4.140   4.614   9.058  3.7479  0.3665 -0.0337
  728MOL0     H96081   4.027   4.430   9.142  0.9604 -3.2820  0.1942
  728MOL0     H96082   5.298   3.920  10.124 -0.3755 -0.3488  1.5654
  728MOL0     H96083   5.533   4.008  10.140  1.9378 -0.5558 -3.7075
  728MOL0     H96084   5.917   4.048  10.549  0.2723  2.9694  0.2010
  728MOL0     H96085   6.139   4.141  10.545 -0.8726  4.6669 -0.5569
  728MOL0     H96086   6.453   4.125  10.330  0.2117  1.1314  0.1613
  728MOL0     H96087   6.345   4.036  10.424  1.3802 -1.5719 -1.6613
  728MOL0     H96088   6.355   4.322  10.527  2.7295  0.9224  0.7484
  728MOL0     H96089   6.387   4.167  10.607  0.5966  0.7582  0.2998
  728MOL0     H96090   6.597   4.335  10.455 -1.6997 -0.2074 -0.4322
  728MOL0     H96091   6.623   4.168  10.479  1.1299  0.6751  1.7271
  728MOL0     H96092   6.610   4.182  10.708  2.4740 -4.3469 -4.6847
  728MOL0     H96093   6.741   4.270  10.638 -0.7470 -2.3797  0.0933
  728MOL0     H96094   6.544   4.534  10.894  0.0297 -1.2066  1.2696
  728MOL0     H96095   6.139   4.131  10.112  1.5123  2.1569 -0.6668
  728MOL0     H96096   5.934   4.013  10.114 -0.6291 -1.8044  0.2037
  729MOL0     O96097   2.705   1.350   1.873  0.2512 -1.0998  0.0458
  729MOL0     C96098   2.806   1.333   1.811 -0.3689 -0.3526  0.6132
  729MOL0     O96099   2.910   1.411   1.787 -0.3395  0.4024  0.1414
  729MOL0     C96100   2.913   1.548   1.818 -1.1315 -0.3741 -0.8442
  729MOL0     C96101   2.869   1.609   1.935 -0.1331  1.0718 -1.0412
  729MOL0     C96102   2.885   1.745   1.962  0.6386  0.0498 -0.3401
  729MOL0     C96103   2.934   1.828   1.862  0.8124  0.9446  0.5890
  729MOL0     O96104   2.949   1.963   1.869  0.4794 -0.3288 -0.1724
  729MOL0     C96105   2.850   2.027   1.937  0.6046  0.2268 -0.8594
  729MOL0     C96106   2.857   2.182   1.923 -0.7856 -0.6401 -0.2257
  729MOL0     C96107   2.836   2.236   1.775 -0.3636 -0.5266 -0.0210
  729MOL0     C96108   2.795   2.383   1.783  0.2173 -0.0408  0.0886
  729MOL0     C96109   2.917   2.463   1.826 -0.3447 -0.5064  0.6455
  729MOL0     C96110   2.885   2.527   1.953  0.5332  1.4849 -0.8060
  729MOL0     C96111   3.006   2.597   2.021  0.8783  0.5352  1.2227
  729MOL0     C96112   3.105   2.488   2.077  0.4556  0.0249 -0.2714
  729MOL0     N96113   3.211   2.540   2.156  0.2054  0.1626 -0.2296
  729MOL0     C96114   3.286   2.651   2.129 -0.8454 -0.1100  0.9279
  729MOL0     C96115   3.389   2.642   2.217 -0.2577  0.0541  0.6640
  729MOL0     C96116   3.513   2.731   2.217 -0.0395  0.6562 -0.5719
  729MOL0     C96117   3.498   2.876   2.285  0.6820 -0.2944  0.1743
  729MOL0     C96118   3.619   2.954   2.257 -1.5974 -0.4819  0.8413
  729MOL0     C96119   3.593   3.089   2.326  0.4345 -0.5805 -0.4751
  729MOL0     O96120   3.705   3.175   2.304  0.1327 -0.2757 -0.3311
  729MOL0     C96121   3.734   3.276   2.396  0.1445  0.6818 -1.0301
  729MOL0     C96122   3.858   3.335   2.375 -0.4588  0.3247 -1.1799
  729MOL0     C96123   3.898   3.443   2.458  0.5813  0.1587  0.3941
  729MOL0     C96124   3.823   3.487   2.564 -0.4100  0.6118  0.7974
  729MOL0     C96125   3.884   3.573   2.668 -0.1025 -0.7944  0.4513
  729MOL0     O96126   3.994   3.647   2.632  0.0078  0.3650  0.0360
  729MOL0     C96127   4.048   3.751   2.703  0.6515 -0.6907 -0.1801
  729MOL0     C96128   4.030   3.788   2.837 -0.6512 -1.4083  0.5416
  729MOL0     C96129   4.109   3.884   2.907 -0.1737  1.5847  0.0601
  729MOL0     C96130   4.203   3.957   2.837 -0.4387  0.3032 -0.3236
  729MOL0     O96131   4.295   4.042   2.890 -0.7322 -0.0039 -0.0161
  729MOL0     C96132   4.357   3.995   3.009  0.4272  0.4912 -0.1321
  729MOL0     C96133   4.495   4.053   3.016 -0.5361 -0.2702 -0.6849
  729MOL0     C96134   4.600   3.991   3.120  0.8856  0.7641  0.4837
  729MOL0     C96135   4.706   4.090   3.175  0.8139 -0.5790 -0.5291
  729MOL0     C96136   4.831   4.029   3.243  0.2324  0.7993  0.0366
  729MOL0     C96137   4.786   3.941   3.359 -0.6123  0.8689 -0.0313
  729MOL0     C96138   4.905   3.865   3.417 -0.6249  0.4639 -0.3723
  729MOL0     C96139   4.859   3.769   3.525 -0.2052 -0.0922 -0.2327
  729MOL0    Cl96140   4.999   3.686   3.599 -0.1466  0.0447 -0.1715
  729MOL0     C96141   4.220   3.929   2.700  0.7390 -0.2382  0.3943
  729MOL0     C96142   4.140   3.830   2.633 -0.2401  0.1287 -0.8758
  729MOL0     O96143   3.824   3.578   2.778  0.5502 -0.9633  0.5985
  729MOL0     C96144   3.693   3.431   2.576 -0.7920 -0.3022  0.6310
  729MOL0     C96145   3.646   3.334   2.488 -0.4390 -0.4411 -0.0289
  729MOL0     N96146   3.369   2.538   2.304  0.3490  0.2744  0.2105
  729MOL0     N96147   3.259   2.479   2.266 -0.8905 -0.4386 -0.2424
  729MOL0     C96148   2.985   1.774   1.740 -0.3538  0.3090 -0.2214
  729MOL0     C96149   2.981   1.637   1.724  0.2041  1.4363  0.2432
  729MOL0     C96150   2.807   1.193   1.748 -0.1263  0.3078  0.8143
  729MOL0     C96151   2.735   1.082   1.790 -0.5909  1.0650  0.3353
  729MOL0     C96152   2.750   0.954   1.733 -0.4495 -0.0236 -0.6045
  729MOL0     C96153   2.827   0.936   1.628 -0.6173 -0.6216  1.0966
  729MOL0     O96154   2.831   0.806   1.572 -0.3694  0.3193  0.0259
  729MOL0     C96155   2.961   0.771   1.501  0.9324 -0.2267 -1.1205
  729MOL0     C96156   2.953   0.627   1.473  0.3606  0.3929  0.3880
  729MOL0     C96157   2.976   0.542   1.596 -0.2800  0.8842  0.5695
  729MOL0     C96158   2.931   0.394   1.578 -0.9491  0.4723 -0.0159
  729MOL0     C96159   2.996   0.329   1.466  0.5087 -0.2504  0.2128
  729MOL0     C96160   3.047   0.273   1.378 -0.4529  0.3900  0.3690
  729MOL0     C96161   2.905   1.044   1.579 -0.1396  0.0464  1.0132
  729MOL0     C96162   2.885   1.173   1.633  1.0334 -0.5144  0.9134
  729MOL0     H96163   2.816   1.550   2.009  2.7016  1.2950  1.3375
  729MOL0     H96164   2.858   1.786   2.059  0.4284  0.2225 -0.4700
  729MOL0     H96165   2.858   2.005   2.044  1.1602  1.0000 -0.7257
  729MOL0     H96166   2.750   1.997   1.905  0.8213 -0.2865 -1.0681
  729MOL0     H96167   2.947   2.229   1.964 -0.1446 -0.3437 -1.9227
  729MOL0     H96168   2.777   2.221   1.988  1.4736  0.3769  2.1552
  729MOL0     H96169   2.752   2.190   1.722 -0.0456 -1.4531  0.2701
  729MOL0     H96170   2.924   2.225   1.712  0.4722 -2.1374  1.3602
  729MOL0     H96171   2.746   2.419   1.692 -2.5907  0.0778  1.5566
  729MOL0     H96172   2.708   2.403   1.845 -0.3890  3.4528 -1.6138
  729MOL0     H96173   2.948   2.534   1.748 -1.2064 -0.5119  0.2825
  729MOL0     H96174   3.010   2.410   1.846 -0.8635 -1.3941  0.7180
  729MOL0     H96175   2.858   2.440   2.014 -0.6346 -1.1157 -4.6091
  729MOL0     H96176   2.809   2.602   1.929  1.5203  2.5722 -0.6037
  729MOL0     H96177   3.047   2.662   1.943  0.7975  2.0494  2.3768
  729MOL0     H96178   2.977   2.675   2.093  0.8205  1.1605  0.5385
  729MOL0     H96179   3.149   2.423   2.001 -1.1828 -1.0008 -0.3812
  729MOL0     H96180   3.043   2.423   2.138 -1.2150  0.2680 -1.6409
  729MOL0     H96181   3.269   2.726   2.051  1.7243 -0.7468 -0.3402
  729MOL0     H96182   3.544   2.730   2.112  0.8732  0.1729 -0.3103
  729MOL0     H96183   3.595   2.684   2.273  0.8299  0.3651 -2.0270
  729MOL0     H96184   3.472   2.866   2.391 -0.6335  1.7746  0.1209
  729MOL0     H96185   3.421   2.931   2.229 -0.1419 -2.7380 -1.2128
  729MOL0     H96186   3.713   2.910   2.289 -0.3650  4.0570  4.6101
  729MOL0     H96187   3.620   2.956   2.147 -0.1668 -1.6754  0.8038
  729MOL0     H96188   3.580   3.070   2.433  1.6735  3.2757  0.5307
  729MOL0     H96189   3.505   3.131   2.276 -0.5053 -1.7645  0.1344
  729MOL0     H96190   3.926   3.289   2.304 -1.0795 -4.6693  1.0703
  729MOL0     H96191   4.000   3.480   2.449  0.4093  0.7910  0.9772
  729MOL0     H96192   3.960   3.723   2.888 -2.2476  0.4694  0.8835
  729MOL0     H96193   4.084   3.897   3.012 -0.0710 -0.5634  0.3890
  729MOL0     H96194   4.376   3.888   3.000  0.3268 -0.0938  4.4542
  729MOL0     H96195   4.306   4.029   3.099  1.0709  0.3301  0.2986
  729MOL0     H96196   4.474   4.155   3.050  0.0667 -0.4205  0.1600
  729MOL0     H96197   4.542   4.056   2.917 -1.8744  0.7333 -1.3330
  729MOL0     H96198   4.660   3.910   3.078  0.2602 -0.5676  2.0507
  729MOL0     H96199   4.525   3.947   3.186  2.5388 -1.9511  0.6878
  729MOL0     H96200   4.732   4.148   3.086 -0.1717 -0.3028 -0.6485
  729MOL0     H96201   4.641   4.143   3.246 -1.4397  0.5177 -3.2110
  729MOL0     H96202   4.903   4.102   3.282  0.9537 -0.3658  0.9550
  729MOL0     H96203   4.875   3.966   3.165 -1.5714 -0.5302  0.0230
  729MOL0     H96204   4.712   3.875   3.312 -0.1480 -0.4530  1.0126
  729MOL0     H96205   4.733   3.991   3.441 -3.7686 -2.4441  0.2299
  729MOL0     H96206   4.959   3.801   3.347  2.3951 -0.5211  2.5843
  729MOL0     H96207   4.981   3.933   3.456 -1.1059  0.9341 -0.2500
  729MOL0     H96208   4.800   3.688   3.480 -0.9582 -0.6846  1.7157
  729MOL0     H96209   4.803   3.825   3.600 -2.3596 -0.7863 -1.2486
  729MOL0     H96210   4.295   3.981   2.640  0.1694 -0.3071 -0.4059
  729MOL0     H96211   4.167   3.802   2.532 -1.0640  1.4407 -1.4928
  729MOL0     H96212   3.629   3.456   2.660 -2.1365 -2.7802  0.4617
  729MOL0     H96213   3.547   3.291   2.504 -0.7727  0.4632  0.4244
  729MOL0     H96214   3.031   1.849   1.676 -0.2664  3.2243  2.9903
  729MOL0     H96215   3.024   1.611   1.628  1.1237  0.5529  0.8745
  729MOL0     H96216   2.680   1.091   1.883  3.1956 -2.4930  3.2996
  729MOL0     H96217   2.685   0.870   1.759 -1.0117  0.6007  0.0501
  729MOL0     H96218   3.043   0.790   1.571 -0.8527  0.4712  0.8851
  729MOL0     H96219   2.986   0.843   1.422  0.3194  0.6027 -0.5765
  729MOL0     H96220   2.856   0.609   1.426 -0.0239  0.6257  1.0854
  729MOL0     H96221   3.036   0.602   1.406 -0.8101 -1.0977 -0.5756
  729MOL0     H96222   2.916   0.591   1.674  0.4840 -2.1293  3.2872
  729MOL0     H96223   3.080   0.538   1.627 -0.5461 -0.7282  1.3900
  729MOL0     H96224   2.947   0.340   1.672 -2.2712 -1.1149 -0.6573
  729MOL0     H96225   2.823   0.396   1.560 -0.7412 -0.0619 -1.3568
  729MOL0     H96226   3.094   0.221   1.296 -1.2536  2.6979 -1.6538
  729MOL0     H96227   2.974   1.037   1.496 -0.7502 -2.1876  0.6231
  729MOL0     H96228   2.948   1.246   1.583 -0.8045 -2.6576 -5.4825
  730MOL0     O96229   3.802   9.713   6.479  0.1858 -0.1117 -0.3173
  730MOL0     C96230   3.699   9.649   6.508 -0.4275  0.5654 -0.9477
  730MOL0     O96231   3.640   9.650   6.631 -0.5553 -0.4616  0.1988
  730MOL0     C96232   3.693   9.729   6.730 -0.6161  0.2197  0.2470
  730MOL0     C96233   3.786   9.674   6.809 -0.4043 -0.8547  0.1433
  730MOL0     C96234   3.837   9.747   6.920  0.1082 -0.6917  0.2641
  730MOL0     C96235   3.785   9.878   6.937 -0.2691 -0.5172 -1.1596
  730MOL0     O96236   3.833   9.959   7.041 -0.3416  0.0927 -0.2453
  730MOL0     C96237   3.808   9.909   7.170  0.5107 -0.3118 -0.5304
  730MOL0     C96238   3.850  10.015   7.273 -0.4033 -0.1506  0.3775
  730MOL0     C96239   3.827  10.162   7.231  0.2474  0.1336 -0.1015
  730MOL0     C96240   3.817  10.264   7.348 -0.6562 -0.7143  0.2425
  730MOL0     C96241   3.795  10.395   7.280 -0.1421 -0.2273  0.1309
  730MOL0     C96242   3.762  10.501   7.395  0.1152 -0.7238  0.5575
  730MOL0     C96243   3.890  10.563   7.456  0.9999  0.3658 -0.1025
  730MOL0     C96244   3.860  10.681   7.552  0.0827  0.1005  0.1817
  730MOL0     N96245   3.792  10.793   7.477  0.3003 -0.6719 -0.3145
  730MOL0     C96246   3.806  10.835   7.345  1.1542  0.0278  0.3262
  730MOL0     C96247   3.741  10.959   7.342  0.2269  0.1969 -0.4192
  730MOL0     C96248   3.731  11.055   7.224 -0.2730 -0.0858 -0.4180
  730MOL0     C96249   3.598  11.143   7.233  1.0952  0.0366 -0.0695
  730MOL0     C96250   3.473  11.048   7.202 -0.2070  0.0101  0.0319
  730MOL0     C96251   3.363  11.065   7.308  0.1174 -0.0712 -0.6549
  730MOL0     O96252   3.257  11.142   7.253 -0.6716 -0.0110  0.1983
  730MOL0     C96253   3.228  11.268   7.301 -0.5562  0.1671 -0.6974
  730MOL0     C96254   3.312  11.351   7.380 -0.0205 -0.6112 -0.5944
  730MOL0     C96255   3.265  11.481   7.419 -0.2036 -0.3881  0.0758
  730MOL0     C96256   3.140  11.529   7.380 -0.2693  0.2926  0.9795
  730MOL0     C96257   3.087  11.662   7.427  0.0568 -0.1557 -0.5265
  730MOL0     O96258   2.953  11.681   7.428 -0.1426  0.5280 -0.2966
  730MOL0     C96259   2.897  11.798   7.461  0.4607 -0.7373  0.2218
  730MOL0     C96260   2.763  11.785   7.513 -0.0692 -0.1252  1.0581
  730MOL0     C96261   2.682  11.903   7.522 -0.5753 -0.6937 -0.6705
  730MOL0     C96262   2.729  12.032   7.488 -0.0839  0.4322 -0.3380
  730MOL0     O96263   2.626  12.125   7.480 -0.8962 -0.0692 -0.0928
  730MOL0     C96264   2.643  12.214   7.373  0.2478  0.0128  0.3932
  730MOL0     C96265   2.522  12.315   7.367 -0.1707  0.0393  0.1375
  730MOL0     C96266   2.516  12.412   7.490 -0.0813 -0.2024  0.0313
  730MOL0     C96267   2.644  12.494   7.502  0.5632  0.0589 -0.3635
  730MOL0     C96268   2.620  12.614   7.587 -0.8626 -0.5989  0.5166
  730MOL0     C96269   2.525  12.601   7.702 -0.0598  0.3867  0.5001
  730MOL0     C96270   2.557  12.718   7.793  0.8697 -0.0774  0.0923
  730MOL0     C96271   2.482  12.694   7.923  0.0078  0.2043 -0.5533
  730MOL0    Cl96272   2.322  12.778   7.926 -0.0323 -0.2194  0.3690
  730MOL0     C96273   2.863  12.037   7.443 -0.7443 -0.0584  1.4243
  730MOL0     C96274   2.942  11.923   7.423 -0.0501  1.2552 -1.2839
  730MOL0     O96275   3.165  11.724   7.501  0.6484  0.2253  0.6537
  730MOL0     C96276   3.054  11.437   7.313  1.5277  0.2760 -0.6896
  730MOL0     C96277   3.091  11.310   7.274 -0.0967  1.1096 -0.3857
  730MOL0     N96278   3.706  10.991   7.478  0.6710  0.3929 -0.4277
  730MOL0     N96279   3.725  10.883   7.545 -0.3774  0.1293  0.2668
  730MOL0     C96280   3.681   9.934   6.855 -0.8062 -0.3312 -0.6234
  730MOL0     C96281   3.626   9.853   6.760  0.7679 -0.3362 -0.0367
  730MOL0     C96282   3.650   9.567   6.395 -0.4733  0.3407 -0.2225
  730MOL0     C96283   3.516   9.524   6.394  0.0727  1.2917 -0.1067
  730MOL0     C96284   3.461   9.451   6.287 -0.0039  0.1840  0.1853
  730MOL0     C96285   3.538   9.408   6.178  1.0896 -0.6140  0.3840
  730MOL0     O96286   3.492   9.310   6.094 -0.5613 -0.5661  0.3330
  730MOL0     C96287   3.563   9.217   6.015 -0.6151 -0.0160  0.3042
  730MOL0     C96288   3.472   9.136   5.923  0.6699 -0.5501 -0.4869
  730MOL0     C96289   3.384   9.039   6.001  0.8255  0.6186  0.2042
  730MOL0     C96290   3.260   8.992   5.916 -0.0436 -0.0985  0.1249
  730MOL0     C96291   3.156   8.937   6.000  1.1791 -0.9638 -0.1726
  730MOL0     C96292   3.071   8.873   6.068  0.2022 -0.4897  0.7487
  730MOL0     C96293   3.672   9.453   6.178 -0.5409  0.2444  0.3708
  730MOL0     C96294   3.729   9.536   6.284  0.7155  0.0233  0.3742
  730MOL0     H96295   3.823   9.573   6.801  0.2595 -0.6705  0.7149
  730MOL0     H96296   3.914   9.711   6.987  0.4332  0.1048  0.3396
  730MOL0     H96297   3.858   9.816   7.198  2.2302  1.1988  1.8081
  730MOL0     H96298   3.703   9.888   7.189  0.6237  0.1369  0.6827
  730MOL0     H96299   3.955  10.004   7.302 -0.3959 -1.1202  0.0176
  730MOL0     H96300   3.793   9.988   7.363  0.1529  0.5739  0.9544
  730MOL0     H96301   3.722  10.152   7.202  0.2037 -0.5179  0.2604
  730MOL0     H96302   3.884  10.185   7.141 -2.3099  0.0531 -1.8517
  730MOL0     H96303   3.738  10.231   7.415  1.4956 -1.5774  2.5100
  730MOL0     H96304   3.907  10.270   7.411  1.0597 -1.8385 -1.9645
  730MOL0     H96305   3.707  10.394   7.214 -1.7463  0.3183  2.1660
  730MOL0     H96306   3.883  10.417   7.218 -1.5837 -0.3492 -2.0699
  730MOL0     H96307   3.691  10.446   7.458 -1.6635  0.2722 -0.4855
  730MOL0     H96308   3.706  10.585   7.352 -0.8450 -1.0802  1.0645
  730MOL0     H96309   3.936  10.485   7.518 -1.8702 -1.6231 -0.3167
  730MOL0     H96310   3.963  10.586   7.378 -0.6496  0.4974 -1.6665
  730MOL0     H96311   3.955  10.725   7.586 -1.8247  6.0578 -0.9770
  730MOL0     H96312   3.795  10.649   7.633  1.3645 -1.7165  0.5510
  730MOL0     H96313   3.854  10.795   7.257  1.1875  2.2596 -0.7318
  730MOL0     H96314   3.729  10.996   7.132  2.8239 -2.5791  0.9055
  730MOL0     H96315   3.813  11.127   7.231 -1.1122  0.7795  0.7739
  730MOL0     H96316   3.586  11.231   7.169 -1.9279  0.2103  0.5834
  730MOL0     H96317   3.596  11.184   7.334  2.9861  0.5713 -0.2167
  730MOL0     H96318   3.435  11.066   7.101  0.9270  4.5370  0.2141
  730MOL0     H96319   3.489  10.940   7.204 -0.5370 -0.0629 -0.6877
  730MOL0     H96320   3.398  11.102   7.404  3.3408  0.6783 -1.9996
  730MOL0     H96321   3.321  10.970   7.339  3.1865 -0.8589  1.5073
  730MOL0     H96322   3.411  11.321   7.412  1.9286  3.5846 -1.9573
  730MOL0     H96323   3.329  11.542   7.483  0.0835  1.8244 -2.1759
  730MOL0     H96324   2.727  11.684   7.529 -1.8869  0.3640  0.2637
  730MOL0     H96325   2.577  11.902   7.548 -0.5828 -2.7583 -0.5744
  730MOL0     H96326   2.647  12.161   7.277  0.4324  1.6207 -0.5175
  730MOL0     H96327   2.740  12.265   7.380  0.1819  0.0792  0.8807
  730MOL0     H96328   2.431  12.254   7.370  2.8943 -5.3049  4.6788
  730MOL0     H96329   2.530  12.360   7.268  0.3382  1.3459  0.7414
  730MOL0     H96330   2.516  12.336   7.569  2.2118 -3.6855 -2.9863
  730MOL0     H96331   2.427  12.475   7.486 -0.6196 -1.0204 -3.2211
  730MOL0     H96332   2.714  12.426   7.551 -0.1097  0.0551  0.6359
  730MOL0     H96333   2.676  12.523   7.402  0.0851 -1.4445 -0.9892
  730MOL0     H96334   2.602  12.700   7.523  1.5603 -0.2471  0.2353
  730MOL0     H96335   2.721  12.621   7.628 -0.8724 -2.1448  0.8917
  730MOL0     H96336   2.544  12.506   7.752  1.5502  2.5801  4.4471
  730MOL0     H96337   2.418  12.614   7.683 -0.6282 -1.6512  2.0243
  730MOL0     H96338   2.666  12.713   7.808  1.0622 -0.9399 -1.3523
  730MOL0     H96339   2.539  12.815   7.744  1.2996  0.0857  0.2498
  730MOL0     H96340   2.548  12.724   8.006 -0.0614 -0.8482 -0.1058
  730MOL0     H96341   2.459  12.592   7.953 -3.0210  1.6501  2.8298
  730MOL0     H96342   2.914  12.130   7.418  1.8129 -1.8361 -0.4528
  730MOL0     H96343   3.041  11.933   7.380  2.3170 -1.8555  2.7623
  730MOL0     H96344   2.950  11.461   7.296  0.4426 -2.2731  1.5832
  730MOL0     H96345   3.011  11.266   7.215 -1.1667 -0.7051  2.2105
  730MOL0     H96346   3.641  10.032   6.879  0.3788  0.3117 -1.1524
  730MOL0     H96347   3.537   9.891   6.712  0.7091  2.3996  2.0442
  730MOL0     H96348   3.452   9.552   6.477 -0.5681  0.2445 -0.2287
  730MOL0     H96349   3.356   9.424   6.279 -0.8808  2.3464  2.8528
  730MOL0     H96350   3.618   9.149   6.081 -2.7901 -0.5138  1.7438
  730MOL0     H96351   3.641   9.257   5.950 -0.8085 -0.6695 -0.3506
  730MOL0     H96352   3.412   9.209   5.867  0.2562 -1.6489 -1.5101
  730MOL0     H96353   3.546   9.089   5.858  2.0597  0.5377  0.2596
  730MOL0     H96354   3.342   9.083   6.091 -1.1037 -0.7757  0.0500
  730MOL0     H96355   3.445   8.955   6.034 -1.8490 -1.6813 -0.2997
  730MOL0     H96356   3.237   9.081   5.857  1.3155  0.6683  0.7078
  730MOL0     H96357   3.290   8.903   5.860 -0.3179  0.7644 -1.4533
  730MOL0     H96358   2.994   8.827   6.125 -1.4427  1.0342 -0.1525
  730MOL0     H96359   3.740   9.429   6.097 -1.5183 -2.4206  0.2427
  730MOL0     H96360   3.829   9.577   6.275  1.0321 -1.0754 -2.0999
  731MOL0     O96361   4.881  10.770   5.022 -0.3428  1.0281 -0.0555
  731MOL0     C96362   4.847  10.681   4.945  0.3397 -0.0597  0.4312
  731MOL0     O96363   4.904  10.563   4.936 -0.8890 -0.0731 -0.4814
  731MOL0     C96364   5.017  10.536   5.012 -0.3700 -0.3010 -0.5779
  731MOL0     C96365   5.142  10.575   4.964 -0.2811  0.3125  0.7957
  731MOL0     C96366   5.257  10.536   5.028 -0.8198  0.4152 -0.1941
  731MOL0     C96367   5.253  10.442   5.138 -0.3256 -0.3509  0.0663
  731MOL0     O96368   5.370  10.400   5.187  0.6205  0.5606  0.1832
  731MOL0     C96369   5.381  10.321   5.311  0.1815  0.3445  1.1064
  731MOL0     C96370   5.515  10.239   5.311  1.4652 -0.1682 -0.1797
  731MOL0     C96371   5.626  10.338   5.337  0.4281  0.0627  0.4428
  731MOL0     C96372   5.760  10.285   5.278 -0.4588 -0.6012  0.3882
  731MOL0     C96373   5.792  10.363   5.147 -0.0379  0.1554  0.1181
  731MOL0     C96374   5.897  10.289   5.069  0.7563  0.2919  0.4380
  731MOL0     C96375   5.924  10.360   4.936 -0.3349 -0.1495  0.3080
  731MOL0     C96376   6.062  10.313   4.899  0.0386  0.1172  0.3983
  731MOL0     N96377   6.166  10.411   4.940  0.9730 -0.1973  0.6752
  731MOL0     C96378   6.184  10.529   4.866  0.3066  0.2869 -0.6043
  731MOL0     C96379   6.315  10.573   4.900 -1.2596  0.1701  0.7922
  731MOL0     C96380   6.394  10.692   4.844 -0.0922  0.2496  1.1206
  731MOL0     C96381   6.405  10.667   4.691  0.3716 -0.0504 -0.2773
  731MOL0     C96382   6.501  10.550   4.660 -0.9838  0.1844  0.0299
  731MOL0     C96383   6.477  10.498   4.516  0.4806 -1.4503 -0.3824
  731MOL0     O96384   6.523  10.576   4.407  0.7882 -1.2891 -0.3247
  731MOL0     C96385   6.536  10.523   4.280  0.3450 -0.1952 -1.2088
  731MOL0     C96386   6.566  10.606   4.168  0.3890 -0.8755  0.3601
  731MOL0     C96387   6.565  10.558   4.036  0.1446 -0.5629  0.9308
  731MOL0     C96388   6.545  10.422   4.007 -0.4085  0.2659 -0.2179
  731MOL0     C96389   6.535  10.372   3.872 -1.2329  0.6333 -0.2540
  731MOL0     O96390   6.517  10.465   3.785  0.4870  0.0643 -0.1143
  731MOL0     C96391   6.518  10.425   3.648  0.4478 -0.7682  0.2960
  731MOL0     C96392   6.630  10.383   3.580 -0.7113 -0.0494  0.8177
  731MOL0     C96393   6.641  10.351   3.444  0.4725  0.6363  0.3507
  731MOL0     C96394   6.519  10.348   3.372 -0.2898  0.7498 -0.8086
  731MOL0     O96395   6.496  10.319   3.242 -0.4960 -0.0758  0.5807
  731MOL0     C96396   6.612  10.321   3.150  0.9563 -0.1830 -0.3843
  731MOL0     C96397   6.584  10.254   3.014  0.6055 -0.5806  0.0525
  731MOL0     C96398   6.553  10.108   3.023  0.2457 -0.5223  1.1274
  731MOL0     C96399   6.457  10.052   2.912  0.3748 -1.2156 -0.7460
  731MOL0     C96400   6.533  10.024   2.785 -0.2139 -0.4219 -0.2893
  731MOL0     C96401   6.450   9.939   2.689  0.2275 -0.0663  0.6875
  731MOL0     C96402   6.543   9.888   2.573  0.2623  0.6414  0.1773
  731MOL0     C96403   6.467   9.793   2.480  0.8189 -0.1869 -0.0991
  731MOL0    Cl96404   6.484   9.622   2.559 -0.0126  0.1216 -0.4298
  731MOL0     C96405   6.394  10.382   3.433 -0.5374  0.2146  0.1722
  731MOL0     C96406   6.398  10.436   3.569 -1.0726  0.7343  0.0257
  731MOL0     O96407   6.531  10.251   3.852 -0.0950  0.2309 -0.6003
  731MOL0     C96408   6.525  10.338   4.116  0.5166  0.3286 -0.0356
  731MOL0     C96409   6.526  10.384   4.252  0.2559  0.1087  0.3543
  731MOL0     N96410   6.361  10.463   4.980  0.0881  0.4302  0.4882
  731MOL0     N96411   6.273  10.377   5.010 -0.3140  1.5242 -0.7148
  731MOL0     C96412   5.125  10.397   5.177 -0.3336 -0.1493 -0.3707
  731MOL0     C96413   5.012  10.444   5.117  0.0774 -0.8150 -0.1821
  731MOL0     C96414   4.736  10.708   4.856 -0.2782  0.3695  0.1725
  731MOL0     C96415   4.666  10.829   4.868  0.4404 -0.5985  0.2522
  731MOL0     C96416   4.543  10.858   4.799  0.0710 -0.3023  0.1123
  731MOL0     C96417   4.503  10.755   4.712  0.5522  0.2727  0.2781
  731MOL0     O96418   4.382  10.771   4.646  0.2962  0.2793 -0.3255
  731MOL0     C96419   4.274  10.842   4.715 -1.2219 -0.1864 -0.4829
  731MOL0     C96420   4.257  10.983   4.649  0.1486 -0.3678 -0.3787
  731MOL0     C96421   4.154  11.068   4.729  0.2177  0.4222 -0.5366
  731MOL0     C96422   4.188  11.214   4.695  0.9990 -0.9298 -1.1719
  731MOL0     C96423   4.139  11.243   4.563  0.3776 -0.1570  0.2128
  731MOL0     C96424   4.096  11.285   4.456 -1.0282  0.1044  0.2980
  731MOL0     C96425   4.583  10.639   4.696  1.0838 -0.0319 -0.4752
  731MOL0     C96426   4.697  10.616   4.760 -0.2188 -0.3889  0.4639
  731MOL0     H96427   5.146  10.649   4.884  4.7842 -1.1681 -0.6650
  731MOL0     H96428   5.354  10.570   4.992 -0.7906 -1.0226 -1.6140
  731MOL0     H96429   5.295  10.254   5.310  1.0135 -0.7601  1.5092
  731MOL0     H96430   5.379  10.379   5.404 -2.6485 -1.0673  2.0299
  731MOL0     H96431   5.524  10.189   5.214 -3.9830  1.2865 -1.7685
  731MOL0     H96432   5.515  10.162   5.389 -2.2629 -0.5515 -0.4145
  731MOL0     H96433   5.638  10.355   5.444 -0.1906  1.1570  0.3564
  731MOL0     H96434   5.606  10.438   5.299  0.9708  1.2366  3.0265
  731MOL0     H96435   5.846  10.305   5.343 -0.8126  1.5181  0.2592
  731MOL0     H96436   5.744  10.180   5.253 -1.5231 -0.3403 -0.1193
  731MOL0     H96437   5.801  10.472   5.151 -1.4392  0.2508  1.1217
  731MOL0     H96438   5.701  10.345   5.089  0.6335 -1.5189 -0.4855
  731MOL0     H96439   5.863  10.186   5.057  0.0183  0.4313  1.1893
  731MOL0     H96440   5.992  10.293   5.122  2.2101  3.3254 -2.0601
  731MOL0     H96441   5.851  10.333   4.859  1.2724 -1.1125 -0.9455
  731MOL0     H96442   5.924  10.468   4.950 -2.3285  0.3303 -2.4676
  731MOL0     H96443   6.066  10.304   4.790 -0.3571  1.3385  0.2669
  731MOL0     H96444   6.090  10.212   4.931 -1.5391 -0.3466  0.4434
  731MOL0     H96445   6.106  10.564   4.799 -1.4311  0.3857  1.3572
  731MOL0     H96446   6.486  10.689   4.904  0.3736 -1.3416  0.3859
  731MOL0     H96447   6.338  10.785   4.853 -1.0623 -0.3322  1.2260
  731MOL0     H96448   6.450  10.755   4.644  1.4493 -0.2671  0.3268
  731MOL0     H96449   6.301  10.658   4.658  0.2601 -0.0794  0.0740
  731MOL0     H96450   6.604  10.587   4.670 -1.4321  1.8746 -1.1206
  731MOL0     H96451   6.486  10.469   4.732 -0.8847 -0.0519 -0.2104
  731MOL0     H96452   6.372  10.482   4.492  0.3744  1.3529 -2.2090
  731MOL0     H96453   6.519  10.397   4.515  0.6624 -1.7226 -6.9607
  731MOL0     H96454   6.576  10.711   4.196 -1.0989 -1.2625  2.6331
  731MOL0     H96455   6.597  10.627   3.959  2.1020 -2.2258  0.1568
  731MOL0     H96456   6.726  10.384   3.631 -1.4920 -2.6626  2.5223
  731MOL0     H96457   6.731  10.320   3.391  0.9732  0.4597  1.2865
  731MOL0     H96458   6.690  10.261   3.197  2.6614  0.2240 -2.5220
  731MOL0     H96459   6.643  10.425   3.136 -0.2763  0.7004  2.7056
  731MOL0     H96460   6.671  10.267   2.950  1.6252 -3.4997  0.7111
  731MOL0     H96461   6.503  10.322   2.985 -1.4533 -2.1357  1.8596
  731MOL0     H96462   6.498  10.096   3.117 -3.7740  1.9164 -0.6064
  731MOL0     H96463   6.646  10.051   3.022  2.2039  2.2928 -2.2949
  731MOL0     H96464   6.417   9.957   2.946  0.4321 -0.9663  0.0278
  731MOL0     H96465   6.376  10.124   2.897  0.7123 -0.9043 -1.1099
  731MOL0     H96466   6.615   9.960   2.818 -0.4206 -0.4931  0.0922
  731MOL0     H96467   6.567  10.113   2.732 -1.4323 -0.5601 -1.3601
  731MOL0     H96468   6.367  10.001   2.654 -3.1735 -3.9711  1.1775
  731MOL0     H96469   6.394   9.856   2.731 -0.7367 -0.0947 -0.5981
  731MOL0     H96470   6.570   9.977   2.515  0.5855 -0.8236 -2.0236
  731MOL0     H96471   6.640   9.853   2.607  1.4188  0.0710 -3.3490
  731MOL0     H96472   6.520   9.799   2.385  1.9946  2.6126  0.6437
  731MOL0     H96473   6.367   9.834   2.464  0.8998 -0.5787 -1.8378
  731MOL0     H96474   6.303  10.368   3.375 -2.0093  0.8829  2.1987
  731MOL0     H96475   6.316  10.484   3.622 -0.5473  0.9761  0.6375
  731MOL0     H96476   6.500  10.235   4.092  1.5480 -0.2586  1.2790
  731MOL0     H96477   6.494  10.313   4.327 -0.2529 -0.1719 -0.1181
  731MOL0     H96478   5.120  10.323   5.256  0.0392 -2.1615 -2.1497
  731MOL0     H96479   4.912  10.409   5.144 -1.2413  2.4622 -0.3935
  731MOL0     H96480   4.702  10.899   4.943  0.3892 -1.3689  1.0209
  731MOL0     H96481   4.480  10.945   4.816  0.3685  0.3022 -1.6619
  731MOL0     H96482   4.297  10.843   4.822  2.2120 -0.2215 -1.1220
  731MOL0     H96483   4.180  10.787   4.706 -1.0389 -1.1614  2.5018
  731MOL0     H96484   4.354  11.032   4.641 -0.4277  0.6463 -1.5179
  731MOL0     H96485   4.234  10.966   4.543  3.3977  1.9718 -1.6388
  731MOL0     H96486   4.167  11.050   4.836 -0.0654 -2.6652 -0.9547
  731MOL0     H96487   4.051  11.038   4.710  0.7542 -0.4317 -2.2814
  731MOL0     H96488   4.133  11.281   4.763  0.5427  0.9054 -3.2156
  731MOL0     H96489   4.296  11.229   4.696  0.9655 -0.4472  1.2240
  731MOL0     H96490   4.069  11.339   4.367 -1.3412 -1.0584 -0.3279
  731MOL0     H96491   4.553  10.572   4.616 -1.4496  0.5098 -0.0609
  731MOL0     H96492   4.752  10.525   4.738  0.1893 -0.4250  1.5667
  732MOL0     O96493  11.409   2.138   9.245  0.6649  0.1656 -0.0282
  732MOL0     C96494  11.426   2.021   9.244  0.0581  0.6862 -0.6173
  732MOL0     O96495  11.370   1.922   9.161  0.4074  0.3416 -0.2330
  732MOL0     C96496  11.238   1.932   9.116 -0.1188  1.2201 -0.0337
  732MOL0     C96497  11.218   1.866   9.002  1.0595  0.6701  0.9913
  732MOL0     C96498  11.085   1.855   8.949  0.0503 -0.1668 -0.3141
  732MOL0     C96499  10.979   1.923   9.017 -0.3314 -1.0255 -0.9908
  732MOL0     O96500  10.845   1.932   8.991  0.1313  0.0464 -0.2750
  732MOL0     C96501  10.759   1.840   9.063 -0.8026  0.2110  1.0356
  732MOL0     C96502  10.612   1.890   9.051  0.3236 -0.0632  0.4094
  732MOL0     C96503  10.586   2.017   9.141  1.3893  0.2979  0.5029
  732MOL0     C96504  10.435   2.066   9.137  0.9354  0.4627  0.9278
  732MOL0     C96505  10.432   2.180   9.238 -0.7327  0.0613  0.0327
  732MOL0     C96506  10.289   2.235   9.235  0.9652 -0.5423  0.0094
  732MOL0     C96507  10.276   2.362   9.313 -0.1575 -0.1541 -0.1386
  732MOL0     C96508  10.117   2.392   9.323 -1.0558 -0.7336 -0.5118
  732MOL0     N96509  10.093   2.488   9.430 -0.0617 -0.2290  0.1580
  732MOL0     C96510  10.125   2.623   9.427 -0.2496  0.5208  0.0704
  732MOL0     C96511  10.116   2.654   9.558 -0.2066  1.4381 -0.4397
  732MOL0     C96512  10.117   2.792   9.610  0.5898  0.5187  1.0405
  732MOL0     C96513   9.992   2.874   9.592  0.4941 -0.1395  0.6030
  732MOL0     C96514  10.028   2.979   9.478  0.0750  0.2183  0.2609
  732MOL0     C96515   9.906   3.057   9.443  0.5539 -0.3754  1.2334
  732MOL0     O96516   9.846   3.119   9.559  0.2215 -0.1776 -0.3229
  732MOL0     C96517   9.899   3.233   9.625  0.0638  0.2812  0.2259
  732MOL0     C96518  10.007   3.306   9.574 -0.7421 -0.9091  1.0113
  732MOL0     C96519  10.061   3.409   9.649 -1.0561 -0.0774  0.2471
  732MOL0     C96520  10.008   3.444   9.777  0.0114  0.8509  0.4284
  732MOL0     C96521  10.066   3.551   9.873  0.3648  0.4033  0.6388
  732MOL0     O96522  10.028   3.543   9.999 -0.2188 -0.3620 -0.5649
  732MOL0     C96523   9.916   3.615  10.041 -1.5677  0.1429  0.2877
  732MOL0     C96524   9.843   3.692   9.956 -0.3606 -0.0545 -0.7628
  732MOL0     C96525   9.750   3.784  10.004 -0.7392 -0.0695 -0.3679
  732MOL0     C96526   9.724   3.796  10.144 -0.2032 -0.2811 -0.3016
  732MOL0     O96527   9.633   3.873  10.206 -0.2954 -0.7459  0.1118
  732MOL0     C96528   9.567   3.976  10.131 -0.6847 -0.6261  0.1770
  732MOL0     C96529   9.443   3.915  10.069 -0.5089  0.1956 -0.4418
  732MOL0     C96530   9.367   4.017   9.992  0.1966 -0.3016 -0.7684
  732MOL0     C96531   9.253   3.952   9.905 -0.5907  0.2008  0.1040
  732MOL0     C96532   9.295   3.863   9.787 -0.0056  0.7940  0.9666
  732MOL0     C96533   9.410   3.900   9.691 -0.6148 -0.4697 -0.4886
  732MOL0     C96534   9.412   3.848   9.547  0.7264 -0.1512 -0.6613
  732MOL0     C96535   9.436   3.699   9.536 -1.0764 -0.0028 -1.2235
  732MOL0    Cl96536   9.601   3.653   9.601 -0.0399  0.5872  0.2815
  732MOL0     C96537   9.790   3.709  10.231 -0.2987 -0.3137 -0.6090
  732MOL0     C96538   9.883   3.620  10.181  0.3288 -0.2157 -0.4555
  732MOL0     O96539  10.163   3.618   9.844  0.1156  0.0856  0.7713
  732MOL0     C96540   9.897   3.375   9.812  1.0507  0.1530  0.0804
  732MOL0     C96541   9.841   3.270   9.741 -0.0338  0.5233 -0.4948
  732MOL0     N96542  10.091   2.547   9.643 -0.5603  0.4595  0.1566
  732MOL0     N96543  10.073   2.445   9.564 -0.6989  0.6101 -0.8108
  732MOL0     C96544  11.011   1.989   9.142  0.2175  0.5615  0.0370
  732MOL0     C96545  11.140   1.987   9.196 -0.1384  0.0878  0.6337
  732MOL0     C96546  11.525   1.971   9.342  0.6030 -0.0723  0.0469
  732MOL0     C96547  11.614   2.050   9.408 -0.2068 -0.7070 -0.4553
  732MOL0     C96548  11.714   1.993   9.494  0.4352 -0.2353  0.1319
  732MOL0     C96549  11.703   1.857   9.531  0.1077 -0.3839  0.8666
  732MOL0     O96550  11.792   1.794   9.621  0.0305 -0.1628 -0.5175
  732MOL0     C96551  11.886   1.879   9.693  0.1684  0.4662 -1.0707
  732MOL0     C96552  11.809   1.971   9.795 -0.9203  0.5847 -1.1287
  732MOL0     C96553  11.895   2.009   9.916 -0.6126 -0.0794  0.5494
  732MOL0     C96554  11.823   2.109  10.008 -0.7192  0.4050 -0.3002
  732MOL0     C96555  11.901   2.231  10.002  0.0180  0.1463  0.5185
  732MOL0     C96556  11.965   2.336   9.996 -0.2262  1.0047 -0.8177
  732MOL0     C96557  11.605   1.777   9.475  0.2001 -0.4394 -0.4594
  732MOL0     C96558  11.524   1.833   9.375  0.0195  0.1207 -0.2624
  732MOL0     H96559  11.294   1.806   8.952  1.5000  0.1090  2.2857
  732MOL0     H96560  11.050   1.796   8.865 -3.6108  0.6912  0.4293
  732MOL0     H96561  10.795   1.832   9.166  1.0127  0.1030  0.4217
  732MOL0     H96562  10.768   1.743   9.013  5.5859  1.7924 -1.9202
  732MOL0     H96563  10.542   1.810   9.075  1.6030 -0.8945  1.5594
  732MOL0     H96564  10.609   1.911   8.944  3.0251  0.3281  0.3395
  732MOL0     H96565  10.666   2.089   9.121  1.6871  0.0698  0.8604
  732MOL0     H96566  10.602   1.997   9.248  1.0058  2.0695  0.9257
  732MOL0     H96567  10.398   2.086   9.036  0.4759 -0.1361  0.9752
  732MOL0     H96568  10.381   1.981   9.178  1.9620  1.0325  3.6517
  732MOL0     H96569  10.497   2.264   9.210  0.4122 -0.3824  1.2804
  732MOL0     H96570  10.446   2.147   9.341 -3.3482 -0.0143  0.4321
  732MOL0     H96571  10.232   2.152   9.276  0.1364 -0.7379 -1.4885
  732MOL0     H96572  10.253   2.264   9.135 -2.2833  3.4983  2.0165
  732MOL0     H96573  10.317   2.348   9.414  0.1636 -1.5773 -0.4417
  732MOL0     H96574  10.322   2.450   9.266  3.0699 -1.7063 -0.1622
  732MOL0     H96575  10.060   2.300   9.341  0.5946 -2.0241 -1.6427
  732MOL0     H96576  10.090   2.440   9.229  2.2231  0.9854 -0.7057
  732MOL0     H96577  10.135   2.678   9.333  0.9698 -0.6736 -0.5452
  732MOL0     H96578  10.207   2.841   9.571  0.6031  0.6363  1.2167
  732MOL0     H96579  10.130   2.789   9.719  3.0013 -1.6699  0.7897
  732MOL0     H96580   9.977   2.926   9.687  1.1611 -1.7447  1.6280
  732MOL0     H96581   9.904   2.816   9.563 -0.8878  1.4140  1.5514
  732MOL0     H96582  10.107   3.048   9.508 -0.0661  0.2624  0.5355
  732MOL0     H96583  10.066   2.934   9.386 -1.0975  0.9381 -0.6014
  732MOL0     H96584   9.829   2.996   9.393  2.1374 -1.6496  0.2479
  732MOL0     H96585   9.924   3.125   9.359 -5.0706 -0.4343 -0.4573
  732MOL0     H96586  10.054   3.290   9.478 -2.4120 -0.0960  0.0227
  732MOL0     H96587  10.131   3.479   9.605 -2.3471 -1.4413 -4.5272
  732MOL0     H96588   9.859   3.680   9.850  1.3540 -2.0979 -0.3374
  732MOL0     H96589   9.690   3.842   9.935  1.5225  2.3970 -0.4650
  732MOL0     H96590   9.622   4.039  10.061 -3.9134 -2.0232 -4.0790
  732MOL0     H96591   9.528   4.044  10.207  1.1906  0.5841  0.1204
  732MOL0     H96592   9.384   3.856  10.140  0.6779  2.3377  2.5648
  732MOL0     H96593   9.478   3.838  10.001  0.8821  1.3914 -1.1178
  732MOL0     H96594   9.424   4.072   9.916 -0.0437 -0.2791 -0.9347
  732MOL0     H96595   9.334   4.097  10.059 -0.4977  0.6675 -2.1887
  732MOL0     H96596   9.193   3.885   9.967 -1.2751  0.2608 -0.4727
  732MOL0     H96597   9.188   4.032   9.868  0.9295  0.8082 -1.3988
  732MOL0     H96598   9.207   3.835   9.729  1.5675 -1.2021 -0.6090
  732MOL0     H96599   9.321   3.767   9.832 -1.1248  0.1966  0.3755
  732MOL0     H96600   9.505   3.871   9.736 -0.8553  0.5059  0.6895
  732MOL0     H96601   9.422   4.008   9.681  0.6551 -0.5686 -0.1773
  732MOL0     H96602   9.316   3.875   9.501  0.5854  1.8544  0.6858
  732MOL0     H96603   9.481   3.913   9.492  0.6319  0.1855 -0.3881
  732MOL0     H96604   9.439   3.682   9.428 -1.2723  3.3119 -1.8679
  732MOL0     H96605   9.350   3.644   9.576 -0.9107 -0.5757 -1.6449
  732MOL0     H96606   9.757   3.711  10.335 -3.3124 -1.8850 -1.4171
  732MOL0     H96607   9.931   3.553  10.251  0.3806  0.1541 -0.1355
  732MOL0     H96608   9.839   3.393   9.902 -2.2523 -4.0437 -0.8400
  732MOL0     H96609   9.761   3.203   9.770  1.5120 -1.7305 -1.2169
  732MOL0     H96610  10.938   2.034   9.208 -0.5978 -0.4944 -0.1288
  732MOL0     H96611  11.159   2.049   9.283  3.1156  1.7404 -1.0722
  732MOL0     H96612  11.623   2.156   9.384  2.8434 -0.3797  1.5640
  732MOL0     H96613  11.794   2.053   9.538  0.5557 -0.9709  0.9400
  732MOL0     H96614  11.959   1.932   9.630 -0.0415  0.3057 -1.4524
  732MOL0     H96615  11.947   1.805   9.746 -0.5202 -0.0969 -1.0638
  732MOL0     H96616  11.770   2.064   9.753 -1.0755  0.2192 -1.8158
  732MOL0     H96617  11.727   1.910   9.832  0.5453  0.9532  3.2853
  732MOL0     H96618  11.994   2.048   9.892 -0.9255  0.9079  0.8348
  732MOL0     H96619  11.913   1.923   9.982  0.0453 -0.5782 -0.2666
  732MOL0     H96620  11.721   2.123   9.969 -0.8385 -2.0503 -1.0540
  732MOL0     H96621  11.823   2.083  10.114  0.0481  1.9022  0.0896
  732MOL0     H96622  12.031   2.419   9.977  1.1757 -0.0846 -0.8495
  732MOL0     H96623  11.599   1.675   9.510 -1.6917 -0.0325  0.5238
  732MOL0     H96624  11.448   1.766   9.337 -0.0948 -2.5505  4.0568
  733MOL0     O96625   9.878   2.126   2.672 -0.8657 -0.2558 -0.1489
  733MOL0     C96626   9.811   2.053   2.595 -1.0513 -1.5949  0.6605
  733MOL0     O96627   9.851   1.967   2.505  0.3566  0.1937 -0.0727
  733MOL0     C96628   9.988   1.940   2.481  0.9021 -0.6174  0.4972
  733MOL0     C96629  10.012   1.808   2.455  0.7072 -0.9033 -0.8218
  733MOL0     C96630  10.142   1.764   2.424 -0.1845  0.3288 -0.9010
  733MOL0     C96631  10.240   1.855   2.420  0.7625 -0.7268  0.0763
  733MOL0     O96632  10.364   1.806   2.389 -0.3105  0.5090  0.5751
  733MOL0     C96633  10.426   1.864   2.267  0.1382  0.8107  0.1679
  733MOL0     C96634  10.346   1.828   2.138 -0.2069  0.5101  0.1348
  733MOL0     C96635  10.349   1.682   2.091  0.2284  0.2452 -0.1693
  733MOL0     C96636  10.494   1.630   2.092 -0.1942 -0.6016 -0.7873
  733MOL0     C96637  10.490   1.509   2.007  0.6709  0.3678  0.0134
  733MOL0     C96638  10.630   1.447   1.970  1.3303  0.3301 -0.0971
  733MOL0     C96639  10.590   1.305   1.917  1.1571 -0.2986 -1.0857
  733MOL0     C96640  10.711   1.223   1.880 -0.2735  0.2188  0.6022
  733MOL0     N96641  10.707   1.145   1.755  0.8808 -1.2522  1.5558
  733MOL0     C96642  10.617   1.039   1.730  0.2824  0.4147 -0.1972
  733MOL0     C96643  10.662   0.975   1.629 -0.0788 -0.0903  0.8084
  733MOL0     C96644  10.588   0.851   1.570 -0.6945  0.1010 -0.1376
  733MOL0     C96645  10.668   0.794   1.458 -0.2772 -0.5012  0.5263
  733MOL0     C96646  10.615   0.663   1.390  0.9259 -0.4112 -0.0416
  733MOL0     C96647  10.488   0.692   1.294  0.8455  0.6865 -0.0619
  733MOL0     O96648  10.462   0.574   1.204  0.8936  0.0374 -0.6251
  733MOL0     C96649  10.440   0.604   1.078 -0.2850  0.3450 -0.0908
  733MOL0     C96650  10.350   0.525   1.006  0.6247 -0.0436  0.3746
  733MOL0     C96651  10.329   0.539   0.862 -0.8542 -0.3365 -0.1173
  733MOL0     C96652  10.384   0.654   0.798  0.4957  0.2692 -0.5402
  733MOL0     C96653  10.354   0.693   0.660  0.3754 -1.1477  0.0287
  733MOL0     O96654  10.387   0.823   0.629  0.7092  0.4415 -0.8695
  733MOL0     C96655  10.334   0.885   0.522  0.0675 -0.3698 -0.0798
  733MOL0     C96656  10.300   1.017   0.536  0.3460 -0.1175 -0.0198
  733MOL0     C96657  10.251   1.090   0.425 -0.4967  0.0906  0.4709
  733MOL0     C96658  10.230   1.028   0.297  0.7348 -0.2692 -0.5821
  733MOL0     O96659  10.189   1.122   0.210  0.7502 -0.4589 -0.9621
  733MOL0     C96660  10.058   1.106   0.163 -0.7103 -1.2392 -0.8119
  733MOL0     C96661  10.055   1.075   0.016  0.0908  1.4816  0.1658
  733MOL0     C96662  10.104   1.193  -0.065  0.1352  0.1610  0.3556
  733MOL0     C96663  10.051   1.180  -0.209  0.1037 -1.1196 -0.2444
  733MOL0     C96664  10.051   1.314  -0.285 -0.6722  1.6916 -1.6581
  733MOL0     C96665   9.945   1.411  -0.244  0.0668 -0.1654 -0.1463
  733MOL0     C96666   9.806   1.388  -0.316 -0.1172  0.4506 -0.6934
  733MOL0     C96667   9.710   1.500  -0.311  0.0575  0.0559  0.2776
  733MOL0    Cl96668   9.769   1.634  -0.389 -0.2374  0.1243 -0.2511
  733MOL0     C96669  10.266   0.900   0.285 -0.1846 -0.1901  0.1901
  733MOL0     C96670  10.320   0.829   0.393 -0.9560 -0.4747  0.7273
  733MOL0     O96671  10.289   0.612   0.582  0.0226 -0.7094  0.4795
  733MOL0     C96672  10.489   0.728   0.870  0.4622  0.2289  0.0210
  733MOL0     C96673  10.519   0.697   1.004  0.5825 -0.6126  0.0269
  733MOL0     N96674  10.788   1.037   1.590  0.6056  0.2532  0.6532
  733MOL0     N96675  10.809   1.135   1.668 -0.4364  0.2863 -0.2292
  733MOL0     C96676  10.226   1.994   2.461  0.8984 -0.0707  0.4823
  733MOL0     C96677  10.099   2.034   2.494 -0.6864  0.1525  0.5503
  733MOL0     C96678   9.662   2.049   2.620  0.0107  0.4027 -1.0520
  733MOL0     C96679   9.579   1.945   2.585 -0.6174  0.0341 -0.0761
  733MOL0     C96680   9.440   1.939   2.610 -0.7513  0.9087 -0.4427
  733MOL0     C96681   9.371   2.052   2.660 -1.4556 -0.0435  0.8740
  733MOL0     O96682   9.238   2.073   2.691 -0.2905 -0.0340  0.0879
  733MOL0     C96683   9.143   1.994   2.642 -0.0046  0.9351  0.3799
  733MOL0     C96684   9.061   2.072   2.536 -0.2498  0.0496 -0.6719
  733MOL0     C96685   9.143   2.122   2.406  0.2046  0.2472 -0.6703
  733MOL0     C96686   9.224   2.001   2.323 -0.8633 -0.0607  0.2644
  733MOL0     C96687   9.146   1.932   2.223 -0.7848 -0.2275 -0.0090
  733MOL0     C96688   9.077   1.863   2.149 -0.2882 -0.3153  0.2633
  733MOL0     C96689   9.452   2.161   2.691  0.3581 -0.1887  0.3379
  733MOL0     C96690   9.597   2.159   2.681  0.1964  0.4260 -0.0086
  733MOL0     H96691   9.934   1.733   2.468  1.1206 -0.9358  2.3136
  733MOL0     H96692  10.161   1.662   2.394  0.6135  0.1249  0.2129
  733MOL0     H96693  10.528   1.825   2.273  0.4380  1.6982  4.8160
  733MOL0     H96694  10.430   1.973   2.281  0.6468  0.5779  2.0293
  733MOL0     H96695  10.397   1.888   2.062 -1.9686  1.5410 -0.2908
  733MOL0     H96696  10.242   1.858   2.123  0.3903  1.6560 -2.2526
  733MOL0     H96697  10.289   1.673   2.000 -1.7615  0.9042  1.0214
  733MOL0     H96698  10.282   1.628   2.158 -1.4834  0.7618 -1.3966
  733MOL0     H96699  10.563   1.705   2.052 -0.1305  1.1802  2.3048
  733MOL0     H96700  10.516   1.601   2.195  0.9317  2.3520 -0.0898
  733MOL0     H96701  10.464   1.544   1.907  0.7592 -0.2994 -0.2515
  733MOL0     H96702  10.425   1.436   2.056  4.4252 -3.2597  0.2164
  733MOL0     H96703  10.699   1.443   2.055  1.7666 -1.9031 -0.4941
  733MOL0     H96704  10.670   1.506   1.887  0.1096 -1.6379 -2.1977
  733MOL0     H96705  10.538   1.245   1.992 -1.3103  0.4358 -2.1050
  733MOL0     H96706  10.534   1.325   1.825 -1.6593  1.2585  0.8233
  733MOL0     H96707  10.727   1.156   1.966  3.2358  0.8083  0.5678
  733MOL0     H96708  10.800   1.285   1.891  1.9388 -2.9668  2.4114
  733MOL0     H96709  10.522   1.020   1.780 -1.2216 -0.6686 -3.1754
  733MOL0     H96710  10.490   0.883   1.534  1.3779  2.8627 -4.0659
  733MOL0     H96711  10.576   0.771   1.645  1.6721 -1.7571 -1.5982
  733MOL0     H96712  10.766   0.768   1.498  1.4192 -0.1500 -3.0391
  733MOL0     H96713  10.693   0.871   1.385 -0.1290 -2.5177 -1.6670
  733MOL0     H96714  10.704   0.614   1.349  0.0764 -1.5966 -0.5050
  733MOL0     H96715  10.578   0.600   1.470 -0.6735  0.5235  0.0087
  733MOL0     H96716  10.509   0.785   1.239  1.5234  1.3371  1.2568
  733MOL0     H96717  10.396   0.708   1.350 -0.7577  2.3228 -2.9346
  733MOL0     H96718  10.298   0.447   1.059 -1.9321  1.7286  0.6529
  733MOL0     H96719  10.255   0.483   0.807 -2.4403  1.1608  0.3819
  733MOL0     H96720  10.312   1.061   0.635 -1.2611 -3.9870  2.1108
  733MOL0     H96721  10.229   1.196   0.434  0.0677  0.3104 -0.5512
  733MOL0     H96722  10.023   1.209   0.171  2.6959 -0.0535  0.8763
  733MOL0     H96723   9.998   1.053   0.237  0.5690 -1.6613 -0.0317
  733MOL0     H96724   9.947   1.062   0.001  0.2011  1.1079 -0.2988
  733MOL0     H96725  10.100   0.979  -0.012  6.4389  4.0173  0.1134
  733MOL0     H96726  10.213   1.191  -0.067  0.1729 -2.6157  1.1094
  733MOL0     H96727  10.074   1.287  -0.018  1.7117  1.9621 -1.9926
  733MOL0     H96728  10.111   1.107  -0.265 -0.1479 -2.3593  1.0431
  733MOL0     H96729   9.947   1.148  -0.218 -0.9383  2.3422 -2.5080
  733MOL0     H96730  10.045   1.297  -0.393  0.7145  0.4868 -1.5806
  733MOL0     H96731  10.151   1.358  -0.279  2.3067 -4.2460  0.0465
  733MOL0     H96732   9.990   1.508  -0.267 -1.1374  0.4902  0.2035
  733MOL0     H96733   9.926   1.412  -0.137 -1.4316 -1.7703 -0.3413
  733MOL0     H96734   9.826   1.375  -0.423  1.7288  0.1991 -0.3407
  733MOL0     H96735   9.771   1.293  -0.274  1.0601  0.7790  1.1190
  733MOL0     H96736   9.693   1.528  -0.207  1.0568 -4.0523  1.7372
  733MOL0     H96737   9.618   1.473  -0.365  0.8958 -0.1950 -1.0744
  733MOL0     H96738  10.254   0.853   0.188 -1.6240  0.3912  0.0555
  733MOL0     H96739  10.356   0.730   0.365  2.1236  0.7203  0.0201
  733MOL0     H96740  10.547   0.806   0.821  1.1820 -2.3192 -3.5393
  733MOL0     H96741  10.602   0.747   1.053  2.3338 -4.9230  1.9858
  733MOL0     H96742  10.299   2.074   2.466 -0.8605  1.5300  1.7024
  733MOL0     H96743  10.079   2.131   2.538 -1.5519  0.4491 -0.4508
  733MOL0     H96744   9.616   1.852   2.543 -1.7051 -0.6541  0.4517
  733MOL0     H96745   9.376   1.852   2.599  0.5265 -0.3567  1.4630
  733MOL0     H96746   9.092   1.965   2.735  1.9853  1.3965  1.6756
  733MOL0     H96747   9.175   1.907   2.585 -2.4296  1.5283 -2.0727
  733MOL0     H96748   8.971   2.013   2.513 -1.3570  1.5735 -0.4082
  733MOL0     H96749   9.026   2.158   2.593  0.8897 -2.0135  3.5775
  733MOL0     H96750   9.214   2.194   2.448 -1.5633 -0.3546  3.9387
  733MOL0     H96751   9.086   2.179   2.332 -1.3634 -0.3214  0.0519
  733MOL0     H96752   9.309   2.054   2.280  0.5369 -1.5965  1.0245
  733MOL0     H96753   9.261   1.927   2.395 -5.6573 -3.0003  0.1446
  733MOL0     H96754   9.006   1.821   2.080  0.0075  0.7890 -0.7447
  733MOL0     H96755   9.399   2.248   2.729 -4.0798 -1.7893 -1.4453
  733MOL0     H96756   9.645   2.248   2.720 -0.5178  1.2955 -1.0626
  734MOL0     O96757   4.511   5.362   6.929 -0.1741  0.8295  0.2390
  734MOL0     C96758   4.531   5.467   6.995  0.6692 -0.0773  0.1062
  734MOL0     O96759   4.431   5.537   7.045 -0.7524 -0.5841  0.5618
  734MOL0     C96760   4.310   5.477   7.030  0.9333 -0.1208 -1.2678
  734MOL0     C96761   4.282   5.372   7.128  0.2706 -0.2388  0.9930
  734MOL0     C96762   4.157   5.309   7.128  0.4120 -0.9857  0.1468
  734MOL0     C96763   4.049   5.347   7.051 -0.7025  0.7532  0.4795
  734MOL0     O96764   3.928   5.287   7.064 -0.9666 -0.2079  1.0286
  734MOL0     C96765   3.816   5.379   7.050  0.4117  0.2758  0.2875
  734MOL0     C96766   3.724   5.360   7.166 -0.8178 -0.7242 -0.5290
  734MOL0     C96767   3.669   5.221   7.196  0.1792 -0.0798 -0.4216
  734MOL0     C96768   3.577   5.163   7.090 -0.0433 -0.9606  0.4261
  734MOL0     C96769   3.659   5.092   6.979  0.5047 -0.0061  0.4864
  734MOL0     C96770   3.559   5.006   6.900 -0.3137 -0.0984 -0.6766
  734MOL0     C96771   3.610   4.948   6.764  0.1223 -0.7854 -0.1341
  734MOL0     C96772   3.755   4.935   6.749 -0.3873  0.7372  0.0581
  734MOL0     N96773   3.803   4.799   6.771  0.1847 -0.2533  0.2231
  734MOL0     C96774   3.890   4.767   6.877 -0.7954 -0.5391  1.4955
  734MOL0     C96775   3.958   4.657   6.837  0.5983  0.2326 -0.5740
  734MOL0     C96776   4.083   4.591   6.892 -0.5068 -0.4380  0.2320
  734MOL0     C96777   4.054   4.472   6.978 -0.5048 -0.7446 -0.7218
  734MOL0     C96778   3.974   4.504   7.105 -0.4034  0.7349 -0.6745
  734MOL0     C96779   3.825   4.513   7.083  0.7700  0.4429 -0.1229
  734MOL0     O96780   3.757   4.498   7.211 -0.1857  0.4091  0.4439
  734MOL0     C96781   3.728   4.611   7.283 -0.4684  0.5504  0.4420
  734MOL0     C96782   3.676   4.740   7.238  0.2810  0.7536 -0.8554
  734MOL0     C96783   3.643   4.832   7.328 -0.6290 -0.8711 -0.0354
  734MOL0     C96784   3.640   4.808   7.464 -0.2011 -0.8578 -0.4244
  734MOL0     C96785   3.594   4.908   7.556  0.3610 -0.3040  0.7867
  734MOL0     O96786   3.598   4.873   7.684 -0.0092  0.0482  0.3169
  734MOL0     C96787   3.507   4.923   7.772  0.2581 -0.3533 -0.8516
  734MOL0     C96788   3.544   4.914   7.908  0.3140 -0.6489  0.1085
  734MOL0     C96789   3.453   4.954   8.007  0.1925 -0.0057  0.3445
  734MOL0     C96790   3.336   5.020   7.974  0.0704 -0.3143 -0.0195
  734MOL0     O96791   3.254   5.064   8.073 -0.4133 -0.1158 -0.5771
  734MOL0     C96792   3.118   5.095   8.065  0.8254  0.7073  0.0226
  734MOL0     C96793   3.034   5.093   8.198  0.5113 -0.4938 -0.0945
  734MOL0     C96794   3.076   5.214   8.280  1.0211 -0.0714 -1.1580
  734MOL0     C96795   2.976   5.254   8.394  0.1810 -0.4077  0.2551
  734MOL0     C96796   3.014   5.389   8.466 -0.0809  0.8321  0.4686
  734MOL0     C96797   2.973   5.512   8.393 -0.3322  1.1690 -0.4255
  734MOL0     C96798   2.820   5.558   8.422  0.0772  0.2697  0.0555
  734MOL0     C96799   2.800   5.709   8.407 -0.0287  0.5820  0.3619
  734MOL0    Cl96800   2.820   5.764   8.574 -0.1076 -0.9752 -0.0947
  734MOL0     C96801   3.304   5.031   7.834  0.0410 -0.3855  0.1055
  734MOL0     C96802   3.393   4.990   7.738  0.2262  0.1997  0.0673
  734MOL0     O96803   3.569   5.018   7.507  0.8857  0.0909  0.1019
  734MOL0     C96804   3.693   4.686   7.514  0.0344 -0.6656  0.6679
  734MOL0     C96805   3.736   4.590   7.422 -1.2319  0.1345 -0.0804
  734MOL0     N96806   3.893   4.616   6.724 -0.2554  0.2063 -0.0008
  734MOL0     N96807   3.809   4.703   6.678 -0.2147  0.0164 -0.9629
  734MOL0     C96808   4.084   5.443   6.957  0.1567 -0.3995 -0.1700
  734MOL0     C96809   4.209   5.516   6.947  0.1096 -0.1951 -0.4946
  734MOL0     C96810   4.670   5.493   7.039  0.6877 -0.5369 -0.2109
  734MOL0     C96811   4.780   5.413   7.018 -0.6351  0.3920 -0.1963
  734MOL0     C96812   4.901   5.427   7.080 -0.1662 -0.2344 -1.4689
  734MOL0     C96813   4.914   5.520   7.183 -0.1501 -0.0392 -0.5696
  734MOL0     O96814   5.040   5.524   7.243  0.0615 -0.6105  0.7186
  734MOL0     C96815   5.059   5.602   7.361  0.8312 -0.1757 -0.2514
  734MOL0     C96816   5.166   5.531   7.438 -0.0628 -0.4213  0.1769
  734MOL0     C96817   5.115   5.401   7.512 -0.0827 -0.0596  0.0508
  734MOL0     C96818   5.219   5.347   7.612  0.5894 -0.1678 -1.1651
  734MOL0     C96819   5.173   5.226   7.680  0.1324  0.3341  0.3326
  734MOL0     C96820   5.150   5.121   7.738  2.1331 -0.0284 -0.0077
  734MOL0     C96821   4.807   5.615   7.204 -0.7561 -0.1439  0.8019
  734MOL0     C96822   4.693   5.600   7.129  0.2948  0.0667 -0.6080
  734MOL0     H96823   4.360   5.345   7.198 -1.0634  0.6178  2.9264
  734MOL0     H96824   4.149   5.228   7.201 -0.6945 -0.0655  1.0786
  734MOL0     H96825   3.764   5.364   6.955  1.6769  2.7009 -0.8814
  734MOL0     H96826   3.847   5.484   7.054 -2.2977  1.1335  3.1918
  734MOL0     H96827   3.639   5.428   7.154 -0.4631 -0.0197  0.8060
  734MOL0     H96828   3.767   5.403   7.257 -1.6096  1.6310 -1.1942
  734MOL0     H96829   3.616   5.231   7.292  3.1870  0.9554  1.2837
  734MOL0     H96830   3.751   5.150   7.212  1.9717  1.4972 -2.1032
  734MOL0     H96831   3.504   5.092   7.130 -1.6612  0.7003  0.5813
  734MOL0     H96832   3.510   5.240   7.052  1.2790  0.5663  1.0730
  734MOL0     H96833   3.747   5.037   7.014 -0.3659 -0.8532  1.4099
  734MOL0     H96834   3.678   5.176   6.912 -0.4129  0.0945  0.3395
  734MOL0     H96835   3.481   5.081   6.883  0.8018  0.7299 -2.4471
  734MOL0     H96836   3.514   4.932   6.967  1.4089 -1.8379 -1.3659
  734MOL0     H96837   3.561   4.850   6.755  1.0796 -1.1507 -1.8944
  734MOL0     H96838   3.576   5.005   6.676  0.4320 -0.1038  0.1877
  734MOL0     H96839   3.814   5.008   6.805 -0.6464  0.4864  0.6682
  734MOL0     H96840   3.763   4.953   6.641 -2.3782 -2.9038 -0.8608
  734MOL0     H96841   3.908   4.828   6.965 -1.9880  2.4884 -0.2158
  734MOL0     H96842   4.145   4.660   6.950  1.3647 -2.1431  0.3711
  734MOL0     H96843   4.154   4.566   6.813 -0.9375 -3.8006  0.7405
  734MOL0     H96844   4.149   4.428   7.009 -0.4389  0.1285  0.4200
  734MOL0     H96845   3.993   4.407   6.915 -3.2847  0.9788  0.0289
  734MOL0     H96846   3.975   4.416   7.169  0.4866  3.0845  2.7891
  734MOL0     H96847   4.007   4.587   7.168 -0.0185  0.0869 -0.0099
  734MOL0     H96848   3.783   4.435   7.020  2.7114 -0.0324 -0.9213
  734MOL0     H96849   3.802   4.613   7.046  0.0528  0.3579  0.0939
  734MOL0     H96850   3.660   4.765   7.134 -0.9195 -3.9510 -2.0252
  734MOL0     H96851   3.607   4.925   7.285  2.3799 -0.7320 -2.6120
  734MOL0     H96852   3.639   4.868   7.931  0.8378  0.5068  0.3034
  734MOL0     H96853   3.482   4.939   8.111 -1.0710  0.7447  0.8227
  734MOL0     H96854   3.081   5.008   8.009  2.2501  1.5200 -2.3333
  734MOL0     H96855   3.092   5.191   8.020  1.3483  0.8567  0.0301
  734MOL0     H96856   3.051   4.990   8.228  0.4883 -0.0830  1.3646
  734MOL0     H96857   2.927   5.099   8.174  0.5997  1.3738 -0.1672
  734MOL0     H96858   3.092   5.296   8.210  1.6330 -0.5771 -1.6296
  734MOL0     H96859   3.170   5.190   8.331  0.5206 -2.2439 -1.1495
  734MOL0     H96860   2.870   5.260   8.366 -0.3143  0.3348  2.0946
  734MOL0     H96861   2.982   5.179   8.474 -1.7638  2.1237  3.0355
  734MOL0     H96862   3.122   5.396   8.481 -0.2737  3.9574  1.1398
  734MOL0     H96863   2.967   5.393   8.564  1.2567  0.5610  1.1543
  734MOL0     H96864   2.992   5.492   8.287 -2.2653 -1.5610 -0.3594
  734MOL0     H96865   3.042   5.590   8.429  0.8722  0.3964 -0.9935
  734MOL0     H96866   2.753   5.503   8.355 -3.0340  1.6791  1.7885
  734MOL0     H96867   2.793   5.517   8.520  1.4661 -1.1620 -0.1160
  734MOL0     H96868   2.703   5.722   8.358 -0.6136 -3.3905  0.1381
  734MOL0     H96869   2.884   5.740   8.345  1.3823 -1.8560  0.9383
  734MOL0     H96870   3.207   5.078   7.817 -1.2176 -2.2278  1.7197
  734MOL0     H96871   3.367   4.992   7.633  0.4009 -3.7805 -0.2229
  734MOL0     H96872   3.699   4.664   7.620 -1.4765 -0.5370  0.8116
  734MOL0     H96873   3.780   4.496   7.452  2.6656  1.8105  0.0479
  734MOL0     H96874   4.003   5.487   6.899  0.0486 -2.9308 -2.1212
  734MOL0     H96875   4.225   5.582   6.862 -0.8727  1.8398  0.8092
  734MOL0     H96876   4.781   5.331   6.947 -0.9422 -0.2437  0.5211
  734MOL0     H96877   4.980   5.352   7.078 -0.7850 -0.9303 -0.8617
  734MOL0     H96878   4.961   5.614   7.409  0.0137 -3.2157 -0.9550
  734MOL0     H96879   5.091   5.698   7.320 -0.9353  0.0334 -1.2744
  734MOL0     H96880   5.259   5.510   7.384  1.1689 -1.4958  2.5659
  734MOL0     H96881   5.197   5.610   7.508  0.0048  1.9240 -2.3609
  734MOL0     H96882   5.099   5.319   7.442 -1.8448 -1.8811  2.4154
  734MOL0     H96883   5.024   5.417   7.572  1.0250  1.1674  1.4958
  734MOL0     H96884   5.317   5.336   7.564 -0.6380 -1.1193 -3.6566
  734MOL0     H96885   5.223   5.407   7.703  2.5082  1.5531 -2.3117
  734MOL0     H96886   5.132   5.019   7.765 -1.1918  1.0541  2.6282
  734MOL0     H96887   4.799   5.682   7.289 -1.4495  1.5507 -0.5345
  734MOL0     H96888   4.603   5.654   7.156  0.0508  0.2384 -1.7252
  735MOL0     O96889   4.739   7.877   0.264  1.2188  0.6025  0.3645
  735MOL0     C96890   4.843   7.831   0.221 -0.5878  0.1882 -0.7207
  735MOL0     O96891   4.932   7.908   0.151 -0.0760  0.4451 -0.3134
  735MOL0     C96892   4.925   8.043   0.131  1.0824 -0.3991 -0.3816
  735MOL0     C96893   5.000   8.098   0.023 -1.6088 -0.3697 -0.3417
  735MOL0     C96894   5.001   8.245   0.006 -0.3619 -0.3786  0.2577
  735MOL0     C96895   4.924   8.332   0.084 -0.1661  0.1423 -0.1314
  735MOL0     O96896   4.948   8.466   0.056  0.6347  0.0702 -0.3169
  735MOL0     C96897   4.923   8.566   0.147 -0.2105 -0.2976  0.0128
  735MOL0     C96898   5.030   8.669   0.123 -0.4678 -0.2380  0.0529
  735MOL0     C96899   5.008   8.737  -0.016  1.0071  0.8604  0.2443
  735MOL0     C96900   4.977   8.889  -0.012  0.0101  0.4049 -0.3495
  735MOL0     C96901   5.110   8.972   0.009  0.1110  1.0529 -0.5091
  735MOL0     C96902   5.068   9.116   0.050 -0.5009  0.8303  0.2619
  735MOL0     C96903   5.190   9.197   0.085  0.5205 -0.2206 -0.0807
  735MOL0     C96904   5.178   9.346   0.079  0.7548  0.5547 -1.2743
  735MOL0     N96905   5.289   9.409   0.149  0.6308  0.0563 -0.1374
  735MOL0     C96906   5.296   9.434   0.289  0.0076 -0.5066 -0.7581
  735MOL0     C96907   5.413   9.496   0.308  0.3231  0.8396 -1.0350
  735MOL0     C96908   5.478   9.534   0.437  0.3546 -0.0008 -0.5237
  735MOL0     C96909   5.602   9.629   0.424  0.5899  0.5281  0.3911
  735MOL0     C96910   5.685   9.632   0.552 -0.3310 -0.3837  0.0762
  735MOL0     C96911   5.839   9.639   0.531 -0.0004  0.1810  0.0859
  735MOL0     O96912   5.877   9.755   0.461  0.8577  0.6381 -0.6003
  735MOL0     C96913   6.006   9.800   0.437  0.6590  0.1561 -0.1419
  735MOL0     C96914   6.114   9.758   0.508  0.4483 -0.0077  0.7585
  735MOL0     C96915   6.239   9.824   0.491 -0.4306 -0.0405  0.0226
  735MOL0     C96916   6.268   9.904   0.383  0.8730 -0.3446  0.0217
  735MOL0     C96917   6.404   9.952   0.358 -0.4928 -0.6507  0.3645
  735MOL0     O96918   6.431  10.041   0.250 -0.1716  0.3688  0.2683
  735MOL0     C96919   6.565  10.076   0.233  0.3969  0.6841 -1.0431
  735MOL0     C96920   6.614  10.200   0.265  1.2613  0.0502 -0.1881
  735MOL0     C96921   6.746  10.233   0.269  0.6597  0.2706 -0.2237
  735MOL0     C96922   6.847  10.131   0.244  0.4034  0.7063  0.1456
  735MOL0     O96923   6.979  10.176   0.273 -0.1670  0.6220  0.6286
  735MOL0     C96924   7.078  10.072   0.298  0.3003  0.1407 -0.1909
  735MOL0     C96925   7.067  10.017   0.442 -0.0035  0.6091  0.3412
  735MOL0     C96926   7.115  10.110   0.555 -0.4066 -0.6941  0.6822
  735MOL0     C96927   7.026  10.234   0.576  0.0057  1.0220  0.3892
  735MOL0     C96928   7.092  10.339   0.660 -0.0902  0.0920  0.0745
  735MOL0     C96929   6.984  10.409   0.739 -0.7210 -0.0951  0.0846
  735MOL0     C96930   6.886  10.483   0.649  0.1621  0.7421  0.8944
  735MOL0     C96931   6.778  10.531   0.730 -0.1816  0.4842 -0.2730
  735MOL0    Cl96932   6.696  10.644   0.631 -0.0826 -0.0558 -0.2674
  735MOL0     C96933   6.801  10.004   0.229 -0.6569 -0.0702 -0.1439
  735MOL0     C96934   6.665   9.973   0.218 -0.1622  0.9261 -0.1464
  735MOL0     O96935   6.499   9.916   0.441  0.0532  0.0780 -0.1921
  735MOL0     C96936   6.161   9.938   0.300 -0.1233 -0.1414 -0.7543
  735MOL0     C96937   6.034   9.890   0.336 -0.1976 -0.0212 -0.2412
  735MOL0     N96938   5.476   9.514   0.185 -0.2780  0.3785 -0.0886
  735MOL0     N96939   5.402   9.459   0.095  0.1113  0.0585 -0.4148
  735MOL0     C96940   4.849   8.271   0.182  0.5349 -0.5322  0.4221
  735MOL0     C96941   4.849   8.133   0.204  0.2129  0.2685 -0.3011
  735MOL0     C96942   4.874   7.684   0.246  0.2516  0.6750  0.2672
  735MOL0     C96943   4.769   7.597   0.289  0.1079  0.2789 -0.4384
  735MOL0     C96944   4.794   7.465   0.317 -0.0691 -1.0425  0.3392
  735MOL0     C96945   4.923   7.410   0.300 -0.2156 -0.1099 -0.8645
  735MOL0     O96946   4.944   7.272   0.319  0.4055 -0.0387  0.4676
  735MOL0     C96947   4.875   7.189   0.224  0.5026  0.1854 -0.2549
  735MOL0     C96948   4.787   7.088   0.314 -0.5047 -0.0815  0.3765
  735MOL0     C96949   4.712   6.985   0.223 -0.2779  0.3784  0.9264
  735MOL0     C96950   4.640   6.870   0.292 -0.1819  0.5947  0.6227
  735MOL0     C96951   4.521   6.918   0.360  0.5373  0.5558 -0.0670
  735MOL0     C96952   4.447   6.953   0.446  1.1635  0.2668  0.0312
  735MOL0     C96953   5.026   7.487   0.251 -0.2056 -0.3560 -0.9119
  735MOL0     C96954   5.001   7.624   0.224  0.0361  0.2584 -0.1196
  735MOL0     H96955   5.066   8.029  -0.029 -0.2904  0.4726  0.1760
  735MOL0     H96956   5.062   8.293  -0.071  4.1337 -4.8307  0.5018
  735MOL0     H96957   4.937   8.530   0.250 -0.7973  1.6133  0.8133
  735MOL0     H96958   4.831   8.622   0.126  0.7410  0.8900 -1.1449
  735MOL0     H96959   5.128   8.623   0.140  0.3325  1.1342 -0.7277
  735MOL0     H96960   5.029   8.749   0.197  0.0802 -1.5518  1.5334
  735MOL0     H96961   4.938   8.682  -0.080  3.1615  0.4283 -1.8827
  735MOL0     H96962   5.095   8.722  -0.081  0.7636 -1.8649  0.4332
  735MOL0     H96963   4.925   8.934  -0.097 -0.3595  4.4118  1.7385
  735MOL0     H96964   4.910   8.912   0.071  1.9601  0.9851  1.1492
  735MOL0     H96965   5.158   8.982  -0.089  0.0938 -1.4262 -0.8292
  735MOL0     H96966   5.179   8.922   0.078 -0.4431 -2.6420 -2.3919
  735MOL0     H96967   5.004   9.108   0.139 -1.1719 -1.9719 -0.3683
  735MOL0     H96968   5.017   9.176  -0.026  0.0339  1.2338  0.2175
  735MOL0     H96969   5.198   9.183   0.193  2.2537 -0.3910 -0.1968
  735MOL0     H96970   5.271   9.150   0.027  1.5176 -0.0563  1.1478
  735MOL0     H96971   5.091   9.374   0.139  0.8910  0.7014 -1.1462
  735MOL0     H96972   5.159   9.379  -0.024 -2.3172  0.1902 -0.9401
  735MOL0     H96973   5.226   9.421   0.371  1.2198 -0.6315  0.2830
  735MOL0     H96974   5.499   9.451   0.506 -1.5778  0.2963  0.4942
  735MOL0     H96975   5.399   9.591   0.486 -1.5196 -1.3499 -1.8483
  735MOL0     H96976   5.562   9.724   0.387 -3.8894 -0.8029  1.1868
  735MOL0     H96977   5.673   9.585   0.353 -0.0436  1.0578 -0.6041
  735MOL0     H96978   5.651   9.716   0.613 -1.3378  1.6642 -3.0610
  735MOL0     H96979   5.660   9.538   0.603 -1.1727 -0.9650 -1.3631
  735MOL0     H96980   5.875   9.549   0.481 -1.0102 -0.0736 -0.1964
  735MOL0     H96981   5.887   9.623   0.628 -0.4153 -1.0856  0.0957
  735MOL0     H96982   6.100   9.691   0.592  2.9969 -2.2291 -0.4349
  735MOL0     H96983   6.300   9.806   0.579 -0.3997  1.4485  0.3302
  735MOL0     H96984   6.548  10.280   0.297 -0.3712 -1.0354 -0.6707
  735MOL0     H96985   6.779  10.336   0.280  0.6034  0.7021 -3.1461
  735MOL0     H96986   7.181  10.108   0.292  1.9271 -3.8999  0.5898
  735MOL0     H96987   7.066   9.989   0.228 -0.5437 -0.3559  0.5278
  735MOL0     H96988   7.136   9.932   0.442  1.5885  1.8421  1.9784
  735MOL0     H96989   6.969   9.979   0.473  1.2257 -1.4621  1.9577
  735MOL0     H96990   7.214  10.143   0.523 -1.5731 -0.6679 -3.5214
  735MOL0     H96991   7.123  10.052   0.648 -0.7628  0.9269  1.7703
  735MOL0     H96992   6.998  10.282   0.482  1.3065  1.8761  0.4071
  735MOL0     H96993   6.934  10.197   0.622 -2.5237  1.5090 -3.7525
  735MOL0     H96994   7.155  10.407   0.602  1.3274 -1.0384  0.2360
  735MOL0     H96995   7.149  10.288   0.738 -2.0160 -0.3727  1.2509
  735MOL0     H96996   7.046  10.480   0.794  1.8878 -1.7515 -0.5036
  735MOL0     H96997   6.929  10.346   0.810 -0.8812 -0.4170 -0.3261
  735MOL0     H96998   6.933  10.570   0.602  0.7910 -0.8503 -1.5978
  735MOL0     H96999   6.845  10.421   0.569  1.5681 -0.2958  0.9389
  735MOL0     H97000   6.813  10.580   0.821  1.2183  2.8647 -1.9901
  735MOL0     H97001   6.715  10.451   0.768  1.5242 -0.3601  0.8761
  735MOL0     H97002   6.861   9.914   0.217 -3.7998 -2.0098 -3.6394
  735MOL0     H97003   6.622   9.876   0.196  0.1712  0.4167  1.3132
  735MOL0     H97004   6.180  10.008   0.220  1.9982 -0.0002 -0.1680
  735MOL0     H97005   5.950   9.917   0.274 -0.6360 -0.4739  0.1516
  735MOL0     H97006   4.778   8.323   0.246  1.4169  1.4081 -0.0826
  735MOL0     H97007   4.777   8.102   0.278 -2.0292 -0.4391 -2.6240
  735MOL0     H97008   4.665   7.626   0.298  0.2830  0.6509  0.4450
  735MOL0     H97009   4.717   7.411   0.370 -0.6298 -0.6128 -0.0172
  735MOL0     H97010   4.951   7.130   0.172  2.7615  1.6930  1.1542
  735MOL0     H97011   4.817   7.247   0.152  2.4339  2.4979 -0.1083
  735MOL0     H97012   4.853   7.033   0.381  1.5962 -0.4258 -1.8243
  735MOL0     H97013   4.717   7.145   0.376 -0.7278 -0.5468  0.5510
  735MOL0     H97014   4.781   6.939   0.152 -0.8571 -0.0283  0.6243
  735MOL0     H97015   4.643   7.035   0.154  1.7696 -2.7918 -4.0118
  735MOL0     H97016   4.613   6.792   0.220 -1.2847  1.2788  0.2680
  735MOL0     H97017   4.699   6.833   0.376 -2.5775 -3.4511  0.7757
  735MOL0     H97018   4.380   6.969   0.528 -0.6685  2.3180 -1.7148
  735MOL0     H97019   5.123   7.447   0.223  0.4920  2.6649 -3.3486
  735MOL0     H97020   5.081   7.689   0.189  1.0691 -0.3624  1.0162
  736MOL0     O97021   0.446   7.467   5.702  0.1807 -0.4762  0.2366
  736MOL0     C97022   0.478   7.348   5.708 -0.1901  0.4783 -1.3032
  736MOL0     O97023   0.450   7.270   5.809  0.2722  0.1839 -0.3351
  736MOL0     C97024   0.352   7.298   5.907 -0.2283 -0.1472  0.3457
  736MOL0     C97025   0.234   7.326   5.856  0.1520  0.2615  0.0368
  736MOL0     C97026   0.128   7.353   5.939  0.2008  0.0585 -1.1211
  736MOL0     C97027   0.125   7.315   6.075  0.8039  0.4532 -0.4757
  736MOL0     O97028  -0.002   7.313   6.131  0.1317  0.3567 -0.2057
  736MOL0     C97029   0.003   7.385   6.249  0.0301  0.1440 -0.4748
  736MOL0     C97030  -0.137   7.388   6.303  0.5949  0.1526 -0.3144
  736MOL0     C97031  -0.153   7.499   6.409  0.6550 -0.2765  0.6541
  736MOL0     C97032  -0.285   7.484   6.487  0.1734 -1.1084 -0.0397
  736MOL0     C97033  -0.319   7.611   6.563 -0.6654 -0.1343 -0.0391
  736MOL0     C97034  -0.364   7.729   6.472 -0.8183  0.6395 -0.0917
  736MOL0     C97035  -0.423   7.851   6.548 -0.9414  0.0858 -0.3893
  736MOL0     C97036  -0.407   7.990   6.472 -0.5650  0.4447 -0.4269
  736MOL0     N97037  -0.535   8.058   6.465 -0.1080 -0.0725 -0.2447
  736MOL0     C97038  -0.612   8.063   6.354 -0.2425  0.2651  0.3838
  736MOL0     C97039  -0.717   8.130   6.404 -0.0583 -0.2170 -0.0724
  736MOL0     C97040  -0.836   8.185   6.327 -0.3947  0.7621  1.0670
  736MOL0     C97041  -0.973   8.128   6.370 -0.2831  0.4437 -1.3360
  736MOL0     C97042  -0.980   7.972   6.371 -0.0157  0.0244  0.5320
  736MOL0     C97043  -0.919   7.908   6.246  0.3060 -0.7051  0.9001
  736MOL0     O97044  -0.968   7.772   6.243 -0.0619  0.4934  0.0025
  736MOL0     C97045  -0.885   7.683   6.317  0.8909  0.3798 -0.4650
  736MOL0     C97046  -0.927   7.550   6.318 -0.0511 -0.0883  0.4726
  736MOL0     C97047  -0.868   7.453   6.401 -1.1718 -0.5002  0.8395
  736MOL0     C97048  -0.744   7.485   6.462  0.7623  0.4933 -0.0145
  736MOL0     C97049  -0.689   7.381   6.548  0.7705 -0.0302 -1.0456
  736MOL0     O97050  -0.770   7.276   6.565 -0.0831  0.2082  0.0361
  736MOL0     C97051  -0.753   7.189   6.677 -0.4016  0.1599 -0.0174
  736MOL0     C97052  -0.850   7.088   6.685 -0.1973  0.6036 -0.1040
  736MOL0     C97053  -0.833   6.979   6.767  0.5109  1.0684 -0.1168
  736MOL0     C97054  -0.725   6.972   6.858 -0.7994  0.0558 -1.1168
  736MOL0     O97055  -0.703   6.875   6.951  0.3762 -0.6794  0.2791
  736MOL0     C97056  -0.780   6.754   6.963  0.7524 -0.0356 -0.5561
  736MOL0     C97057  -0.731   6.669   7.085  0.1801  0.2881 -0.5915
  736MOL0     C97058  -0.821   6.549   7.095 -0.8122  0.1019  0.8382
  736MOL0     C97059  -0.762   6.459   7.198 -0.6867  0.0743 -0.2670
  736MOL0     C97060  -0.866   6.363   7.260 -0.4143  0.1447 -0.7920
  736MOL0     C97061  -0.961   6.287   7.169 -0.5465 -0.2024 -1.2870
  736MOL0     C97062  -1.038   6.168   7.221 -0.3938 -1.3730  0.5582
  736MOL0     C97063  -0.944   6.051   7.262 -0.3080 -0.0893 -0.1404
  736MOL0    Cl97064  -1.065   5.916   7.261  0.4544 -0.0651 -0.1350
  736MOL0     C97065  -0.626   7.073   6.862  0.6475 -0.2744 -0.5056
  736MOL0     C97066  -0.642   7.178   6.768 -0.3808  0.0187  0.8380
  736MOL0     O97067  -0.575   7.385   6.586  0.1490 -0.0173  0.4316
  736MOL0     C97068  -0.698   7.613   6.458  0.9489 -0.6813 -1.0823
  736MOL0     C97069  -0.779   7.713   6.389 -0.2338  1.1615  0.1468
  736MOL0     N97070  -0.689   8.187   6.523  0.3340 -0.1459 -0.1620
  736MOL0     N97071  -0.592   8.128   6.571  0.7095 -0.1144 -0.1390
  736MOL0     C97072   0.248   7.278   6.126  0.2646  0.1115  0.5779
  736MOL0     C97073   0.361   7.276   6.046  0.8185 -0.0311  1.1674
  736MOL0     C97074   0.592   7.292   5.632  0.1753 -1.0710  0.2501
  736MOL0     C97075   0.642   7.166   5.644 -0.4746 -0.1659 -0.2267
  736MOL0     C97076   0.747   7.125   5.559  0.1096  0.3975  1.1219
  736MOL0     C97077   0.803   7.214   5.472  0.4493 -0.8138  1.2314
  736MOL0     O97078   0.913   7.188   5.393  0.2604 -0.0014  0.2810
  736MOL0     C97079   1.014   7.290   5.370  0.6360 -0.5570 -0.2455
  736MOL0     C97080   1.022   7.329   5.228 -0.9463 -0.7383 -0.3947
  736MOL0     C97081   1.151   7.397   5.192  0.0601  0.5784  0.0521
  736MOL0     C97082   1.191   7.515   5.265 -0.2424  0.9947 -0.2137
  736MOL0     C97083   1.315   7.581   5.217 -0.9329  0.1919  0.2544
  736MOL0     C97084   1.421   7.639   5.185  0.7483 -0.5635 -0.1815
  736MOL0     C97085   0.748   7.348   5.460  0.5100  1.2429 -0.1205
  736MOL0     C97086   0.646   7.388   5.544 -0.2491 -0.2622  0.0875
  736MOL0     H97087   0.225   7.330   5.748 -1.5397 -0.9076  0.1048
  736MOL0     H97088   0.036   7.392   5.895 -3.0263 -2.9813  2.1993
  736MOL0     H97089   0.033   7.485   6.217 -3.3183  1.5074  0.2071
  736MOL0     H97090   0.070   7.338   6.322 -1.5903  1.3434  1.9150
  736MOL0     H97091  -0.166   7.288   6.335  1.0891  0.0589 -0.1558
  736MOL0     H97092  -0.200   7.415   6.218 -0.7886 -0.6201  0.4377
  736MOL0     H97093  -0.146   7.588   6.346  3.1675 -0.0343  1.1851
  736MOL0     H97094  -0.069   7.501   6.478 -1.3669  1.1012  3.2373
  736MOL0     H97095  -0.360   7.450   6.415 -1.4743  0.7975  0.6807
  736MOL0     H97096  -0.267   7.409   6.564 -1.7240  2.4146  4.2567
  736MOL0     H97097  -0.241   7.631   6.637 -1.4312 -2.2966  1.4514
  736MOL0     H97098  -0.414   7.593   6.614 -0.2570 -4.1353 -0.3933
  736MOL0     H97099  -0.448   7.705   6.406  0.1089  1.7763 -1.7482
  736MOL0     H97100  -0.283   7.763   6.407 -2.1587  0.5618 -1.8763
  736MOL0     H97101  -0.526   7.820   6.565 -0.6739 -0.6037 -0.0008
  736MOL0     H97102  -0.361   7.856   6.638  2.0101  0.5068 -2.2718
  736MOL0     H97103  -0.377   7.971   6.369  0.7831 -0.3795  0.0795
  736MOL0     H97104  -0.340   8.058   6.526  0.7055 -1.4149  0.4783
  736MOL0     H97105  -0.596   8.024   6.254  0.7296  3.9449 -1.0853
  736MOL0     H97106  -0.822   8.177   6.218 -0.1887 -0.1123  1.1504
  736MOL0     H97107  -0.832   8.293   6.346  0.1262  0.7045  1.2987
  736MOL0     H97108  -1.045   8.172   6.300 -1.0447 -0.6488 -1.2729
  736MOL0     H97109  -0.989   8.163   6.473 -3.4585 -4.4984  0.2281
  736MOL0     H97110  -0.945   7.922   6.462 -1.7224 -2.4803 -0.0780
  736MOL0     H97111  -1.083   7.936   6.376  0.3424 -0.9363  1.4404
  736MOL0     H97112  -0.811   7.927   6.244  0.0744  1.0277  2.2420
  736MOL0     H97113  -0.966   7.951   6.157 -2.2122  0.4523  2.6510
  736MOL0     H97114  -1.008   7.515   6.256  0.3520  1.1579 -0.8019
  736MOL0     H97115  -0.902   7.351   6.400  3.7194 -2.4068 -0.1592
  736MOL0     H97116  -0.928   7.093   6.610 -0.2594 -0.0212 -0.0931
  736MOL0     H97117  -0.911   6.905   6.786  2.7043 -1.0640  1.2428
  736MOL0     H97118  -0.758   6.706   6.867  1.3297  1.6910 -1.3111
  736MOL0     H97119  -0.880   6.796   6.980  1.5757  1.1099  1.7746
  736MOL0     H97120  -0.744   6.739   7.167 -0.1945 -0.2821 -0.1560
  736MOL0     H97121  -0.625   6.642   7.077  0.2593  0.1975  0.6816
  736MOL0     H97122  -0.824   6.489   7.003 -2.1406 -3.0801  2.7854
  736MOL0     H97123  -0.925   6.573   7.120 -0.7207 -0.8599  2.2480
  736MOL0     H97124  -0.676   6.410   7.152 -1.8542 -1.5155 -0.8548
  736MOL0     H97125  -0.715   6.518   7.277 -1.8760  0.3886  0.2161
  736MOL0     H97126  -0.929   6.420   7.330 -2.4353 -1.3352 -1.3225
  736MOL0     H97127  -0.801   6.288   7.305 -1.9469 -1.2527 -0.8186
  736MOL0     H97128  -0.903   6.257   7.081  2.3797  0.4566  0.2744
  736MOL0     H97129  -1.032   6.357   7.126 -0.9689 -1.0353 -1.9674
  736MOL0     H97130  -1.111   6.197   7.297 -3.5195 -1.2368 -2.2761
  736MOL0     H97131  -1.095   6.125   7.139  1.8986  0.8588 -2.4497
  736MOL0     H97132  -0.899   6.072   7.359 -0.3342 -0.2389 -0.0942
  736MOL0     H97133  -0.852   6.047   7.203  1.5976  0.7798  2.5665
  736MOL0     H97134  -0.540   7.063   6.929 -1.1812 -4.5169  1.5854
  736MOL0     H97135  -0.559   7.247   6.762 -0.7741  0.3590 -1.8177
  736MOL0     H97136  -0.630   7.646   6.536  1.7978 -0.8378 -1.7383
  736MOL0     H97137  -0.733   7.811   6.402 -1.8946  2.5771 -3.3422
  736MOL0     H97138   0.252   7.247   6.230  1.4736  0.2149  0.5736
  736MOL0     H97139   0.449   7.232   6.091 -0.5704  0.2471  4.4363
  736MOL0     H97140   0.608   7.095   5.719  3.2948 -2.1617 -0.1535
  736MOL0     H97141   0.779   7.021   5.560 -1.4718 -0.4237 -4.0427
  736MOL0     H97142   1.109   7.245   5.401  0.3574 -1.0151 -0.0464
  736MOL0     H97143   1.005   7.384   5.425  1.8518  1.6371 -3.4983
  736MOL0     H97144   1.009   7.235   5.173 -1.1472  0.0272 -1.6834
  736MOL0     H97145   0.942   7.399   5.202 -0.5988  0.6104  1.8825
  736MOL0     H97146   1.142   7.422   5.086  0.4417  2.2304  0.3866
  736MOL0     H97147   1.227   7.321   5.214  0.3776  1.7190  3.5308
  736MOL0     H97148   1.111   7.587   5.283 -0.0739  0.8154  1.3860
  736MOL0     H97149   1.222   7.477   5.363 -2.5310 -0.6301 -0.0361
  736MOL0     H97150   1.511   7.683   5.146  1.1707 -1.5569 -0.3854
  736MOL0     H97151   0.780   7.418   5.384 -1.2646  1.5586 -0.6162
  736MOL0     H97152   0.601   7.486   5.529 -0.8918 -0.2963  1.5768
  737MOL0     O97153   9.433   0.227   7.021  0.2975 -0.2755  0.6673
  737MOL0     C97154   9.323   0.231   7.069  0.4695 -1.0907 -0.9448
  737MOL0     O97155   9.210   0.180   7.021  0.1271 -0.3702  0.4070
  737MOL0     C97156   9.218   0.115   6.899 -0.5039  0.5022 -0.8325
  737MOL0     C97157   9.194   0.192   6.793  0.2021 -0.4309  0.7034
  737MOL0     C97158   9.188   0.144   6.664 -0.7136 -0.5695  0.3078
  737MOL0     C97159   9.218   0.005   6.639  0.2301  0.0503  0.8571
  737MOL0     O97160   9.211  -0.054   6.521  0.4775  1.0830 -0.3686
  737MOL0     C97161   9.206   0.034   6.411  0.4426  0.0888 -1.3107
  737MOL0     C97162   9.233  -0.039   6.278  0.0720 -0.5318  0.7784
  737MOL0     C97163   9.259   0.055   6.156  0.0041  0.0401  0.0820
  737MOL0     C97164   9.332  -0.015   6.048  0.6786  0.0494  0.0673
  737MOL0     C97165   9.371   0.070   5.929  0.3972 -1.1517 -0.2090
  737MOL0     C97166   9.453  -0.007   5.821 -0.0854 -1.8737 -0.0868
  737MOL0     C97167   9.495   0.087   5.707  0.5407  0.0820  0.2880
  737MOL0     C97168   9.594   0.025   5.606 -0.6620 -0.3277  0.2576
  737MOL0     N97169   9.629   0.121   5.502 -0.3055 -0.0051  0.2755
  737MOL0     C97170   9.628   0.263   5.505  0.0404  0.9286  0.7467
  737MOL0     C97171   9.663   0.310   5.380  0.1356 -1.5537  0.7080
  737MOL0     C97172   9.683   0.453   5.329  0.1691  0.8832 -0.5334
  737MOL0     C97173   9.829   0.480   5.347 -0.7688 -0.1668  0.2764
  737MOL0     C97174   9.861   0.628   5.322  0.3233  0.0389  0.1518
  737MOL0     C97175   9.848   0.718   5.441  0.0920  1.3810  0.1515
  737MOL0     O97176   9.950   0.697   5.538 -0.6952  0.0154  0.1500
  737MOL0     C97177  10.078   0.739   5.507  0.4582 -0.3218 -0.2437
  737MOL0     C97178  10.189   0.685   5.573  0.2412  1.0810 -0.1947
  737MOL0     C97179  10.318   0.727   5.560  0.2904 -0.9777  0.1424
  737MOL0     C97180  10.347   0.839   5.470  0.4991  0.5514  0.4386
  737MOL0     C97181  10.476   0.895   5.461  0.3159 -0.2687  0.0817
  737MOL0     O97182  10.478   1.020   5.399  0.4040  0.6513 -0.2167
  737MOL0     C97183  10.591   1.100   5.424 -0.1923 -0.4644 -0.8693
  737MOL0     C97184  10.648   1.099   5.552 -0.4034  0.3392 -0.6715
  737MOL0     C97185  10.735   1.199   5.591  0.0048  0.3886 -0.2512
  737MOL0     C97186  10.801   1.281   5.492 -0.1214  0.0045  0.0320
  737MOL0     O97187  10.894   1.367   5.536 -0.2105  0.0244  0.3801
  737MOL0     C97188  10.937   1.476   5.451  0.5726 -0.1386 -0.0646
  737MOL0     C97189  11.034   1.567   5.530 -0.5221  0.0876 -0.8225
  737MOL0     C97190  11.085   1.672   5.435  0.0495  1.3580  0.3987
  737MOL0     C97191  11.188   1.776   5.497  0.5886 -0.3384  0.1717
  737MOL0     C97192  11.244   1.891   5.405 -0.1437  0.5973 -0.2467
  737MOL0     C97193  11.134   1.986   5.352  0.6241 -0.1112  0.6294
  737MOL0     C97194  11.174   2.102   5.263 -0.1536 -0.4426 -0.0706
  737MOL0     C97195  11.054   2.166   5.199 -0.7459 -1.0152  0.7358
  737MOL0    Cl97196  10.960   2.057   5.090 -0.3104  0.4960  0.3804
  737MOL0     C97197  10.755   1.277   5.359 -0.2300  0.0311  0.2982
  737MOL0     C97198  10.651   1.188   5.328 -0.5030  0.2512  1.2218
  737MOL0     O97199  10.579   0.829   5.491  0.1797  0.1424  1.6044
  737MOL0     C97200  10.240   0.884   5.393 -0.2562 -0.2465 -0.1320
  737MOL0     C97201  10.113   0.835   5.413  0.3207 -0.2432 -0.9099
  737MOL0     N97202   9.695   0.193   5.311 -0.2282 -0.3354  0.6556
  737MOL0     N97203   9.676   0.088   5.378 -0.3800 -0.4269 -0.4656
  737MOL0     C97204   9.235  -0.072   6.754 -0.6357 -0.6911  0.2367
  737MOL0     C97205   9.245  -0.023   6.881 -0.5408 -0.4636 -0.1820
  737MOL0     C97206   9.306   0.295   7.221 -0.8584 -0.3064  0.1205
  737MOL0     C97207   9.413   0.356   7.281 -0.0639  0.2596  0.2360
  737MOL0     C97208   9.416   0.424   7.403  0.8507 -0.0935 -0.0900
  737MOL0     C97209   9.293   0.456   7.471  0.4995  0.5336 -0.7830
  737MOL0     O97210   9.294   0.522   7.595 -0.8106  0.8433 -0.1359
  737MOL0     C97211   9.170   0.563   7.649  0.4971  0.0359  0.7992
  737MOL0     C97212   9.194   0.593   7.797  0.0535 -0.2312 -0.2781
  737MOL0     C97213   9.202   0.743   7.816 -1.3117  0.3520 -0.4684
  737MOL0     C97214   9.210   0.778   7.965  0.4546  0.7322  0.4957
  737MOL0     C97215   9.330   0.738   8.025 -0.8910 -0.0700 -0.2687
  737MOL0     C97216   9.434   0.709   8.072 -0.3180 -1.0572 -0.7659
  737MOL0     C97217   9.183   0.400   7.408 -0.8700 -0.3327  0.2986
  737MOL0     C97218   9.186   0.326   7.287 -0.5991 -0.3294 -0.2512
  737MOL0     H97219   9.186   0.298   6.813 -2.4945 -0.4336  0.1151
  737MOL0     H97220   9.164   0.218   6.588  0.2864 -2.0440 -1.5255
  737MOL0     H97221   9.291   0.102   6.422  1.4772 -1.3651  0.2207
  737MOL0     H97222   9.108   0.083   6.420  0.1402 -0.8111  1.1792
  737MOL0     H97223   9.155  -0.107   6.244  1.9852 -0.9624 -3.3044
  737MOL0     H97224   9.326  -0.097   6.285  1.6883  1.6884 -0.8426
  737MOL0     H97225   9.324   0.135   6.190  1.3368 -0.7142 -0.5988
  737MOL0     H97226   9.163   0.092   6.118 -0.8492 -3.8642 -2.1877
  737MOL0     H97227   9.415  -0.076   6.083 -1.2653 -0.8882  3.5337
  737MOL0     H97228   9.265  -0.093   6.010  1.9301 -2.0905  2.0277
  737MOL0     H97229   9.428   0.153   5.970 -0.6984  0.5030 -1.9064
  737MOL0     H97230   9.274   0.102   5.890  2.2519  1.7493 -2.8672
  737MOL0     H97231   9.405  -0.097   5.784 -1.2163  0.1692 -4.2373
  737MOL0     H97232   9.548  -0.036   5.867  2.1716  1.1687 -2.3369
  737MOL0     H97233   9.410   0.134   5.656 -1.2682 -3.1238  0.0649
  737MOL0     H97234   9.544   0.172   5.755 -2.0728  1.9914 -0.1676
  737MOL0     H97235   9.555  -0.064   5.556  0.5724 -0.4615 -0.4937
  737MOL0     H97236   9.686  -0.012   5.652 -0.7490 -0.1798  0.5507
  737MOL0     H97237   9.592   0.320   5.590 -1.1188 -1.1496  1.7411
  737MOL0     H97238   9.619   0.529   5.375 -2.6190 -1.7243  0.2338
  737MOL0     H97239   9.667   0.453   5.221  2.0446  2.1828 -0.8806
  737MOL0     H97240   9.890   0.416   5.283 -1.6269 -2.9717  2.0792
  737MOL0     H97241   9.862   0.452   5.448 -2.9666 -1.5182  0.6959
  737MOL0     H97242   9.967   0.632   5.293  1.2425  1.6653  3.3196
  737MOL0     H97243   9.805   0.652   5.231  2.4900  0.2832 -1.2037
  737MOL0     H97244   9.752   0.703   5.493 -0.5430  0.8739 -1.1045
  737MOL0     H97245   9.842   0.819   5.402 -0.4515  0.9742 -0.8655
  737MOL0     H97246  10.163   0.602   5.638  0.8575  1.0056 -0.0305
  737MOL0     H97247  10.393   0.679   5.622  0.1517 -2.3720 -0.7248
  737MOL0     H97248  10.609   1.035   5.631  0.4052  0.6064 -0.0336
  737MOL0     H97249  10.753   1.201   5.698 -1.8963 -0.6326  0.1362
  737MOL0     H97250  10.843   1.531   5.440  0.9305  0.0236 -3.1683
  737MOL0     H97251  10.985   1.445   5.358  1.9915  1.3793  0.1154
  737MOL0     H97252  11.122   1.510   5.563 -0.8190 -1.0719 -1.9477
  737MOL0     H97253  10.987   1.615   5.616  0.6330 -1.9453  1.0736
  737MOL0     H97254  11.005   1.719   5.376  1.2164  0.6626 -1.8644
  737MOL0     H97255  11.135   1.615   5.356 -0.5368  3.3020 -1.4968
  737MOL0     H97256  11.139   1.823   5.583 -0.0190  0.8120 -0.7735
  737MOL0     H97257  11.272   1.715   5.531 -0.8017 -1.6977  1.2802
  737MOL0     H97258  11.301   1.849   5.322 -0.9153 -0.0130 -0.4798
  737MOL0     H97259  11.320   1.950   5.458 -0.2112 -0.7762  1.4670
  737MOL0     H97260  11.079   2.033   5.434 -1.4755  1.2085 -1.3828
  737MOL0     H97261  11.062   1.924   5.296  0.9487 -1.7651  1.9705
  737MOL0     H97262  11.224   2.175   5.327  4.3721 -1.6115 -1.8409
  737MOL0     H97263  11.245   2.072   5.185 -1.1655 -0.8077 -0.8820
  737MOL0     H97264  11.097   2.246   5.138 -2.6840  1.3386  2.2862
  737MOL0     H97265  11.003   2.211   5.285  0.3293  1.1862  0.3007
  737MOL0     H97266  10.799   1.326   5.273 -0.8410 -1.0882 -0.6784
  737MOL0     H97267  10.599   1.183   5.233  0.5539 -0.4340  0.6526
  737MOL0     H97268  10.255   0.955   5.313 -1.5768  0.6247  0.3445
  737MOL0     H97269  10.039   0.872   5.343 -0.1073  1.7298  0.4862
  737MOL0     H97270   9.263  -0.175   6.733  0.5019 -0.6134  1.2622
  737MOL0     H97271   9.269  -0.104   6.949  2.4687  1.7293  1.6094
  737MOL0     H97272   9.509   0.335   7.236  0.1237 -1.6612  1.4427
  737MOL0     H97273   9.503   0.482   7.432  0.3400  0.9009 -0.4922
  737MOL0     H97274   9.084   0.495   7.645 -1.5371  2.4922  0.4782
  737MOL0     H97275   9.151   0.656   7.595  1.0293  0.0715  0.6699
  737MOL0     H97276   9.102   0.568   7.852 -0.2665  2.9446  0.8580
  737MOL0     H97277   9.281   0.538   7.834  1.6325  0.4796 -2.6789
  737MOL0     H97278   9.112   0.785   7.769 -0.7051  0.0630 -1.9644
  737MOL0     H97279   9.290   0.782   7.764 -1.4255  0.5317 -0.5239
  737MOL0     H97280   9.183   0.884   7.966 -2.1594  0.1945 -1.6671
  737MOL0     H97281   9.133   0.723   8.020  3.1461 -3.8386  0.2200
  737MOL0     H97282   9.522   0.694   8.132 -1.5599  2.5523  2.4007
  737MOL0     H97283   9.085   0.425   7.449 -0.4617 -2.5125  2.8663
  737MOL0     H97284   9.093   0.308   7.235 -1.0268  1.4450 -0.1791
  738MOL0     O97285   4.975   9.751   0.785 -0.0811  0.6231 -0.0922
  738MOL0     C97286   5.004   9.645   0.842 -0.1074 -0.3598 -0.7211
  738MOL0     O97287   5.127   9.611   0.900 -0.4652  0.3871 -0.0193
  738MOL0     C97288   5.227   9.711   0.902  0.2018  0.5435  0.0347
  738MOL0     C97289   5.212   9.846   0.933  0.5231 -0.1909  0.7266
  738MOL0     C97290   5.307   9.945   0.908  0.1651 -0.8521  0.4354
  738MOL0     C97291   5.438   9.911   0.878  0.4815  0.1907 -0.3801
  738MOL0     O97292   5.533  10.009   0.874  0.2895  0.0492  0.2623
  738MOL0     C97293   5.605  10.008   0.753  0.1221  0.0905  1.4393
  738MOL0     C97294   5.711  10.117   0.764  0.9235  0.4657 -0.5317
  738MOL0     C97295   5.813  10.125   0.659 -0.0941  0.4913  0.1358
  738MOL0     C97296   5.955  10.187   0.677 -0.5704 -0.5898 -0.1826
  738MOL0     C97297   6.022  10.214   0.545  0.0001  0.6947  0.2125
  738MOL0     C97298   6.146  10.309   0.550 -0.5492 -0.6015  0.4769
  738MOL0     C97299   6.265  10.215   0.604  0.0443 -0.0020  0.2935
  738MOL0     C97300   6.400  10.292   0.626 -0.4203 -0.3866 -0.1822
  738MOL0     N97301   6.500  10.205   0.701  0.0111  0.7717  0.4320
  738MOL0     C97302   6.588  10.112   0.653 -0.3510 -0.5655 -0.3889
  738MOL0     C97303   6.645  10.053   0.759  0.0214  0.9056  0.1377
  738MOL0     C97304   6.723   9.931   0.762  0.1054  0.4560 -1.0711
  738MOL0     C97305   6.654   9.805   0.708  0.1656  0.3907 -0.0851
  738MOL0     C97306   6.709   9.670   0.767  0.2287 -0.6328  0.1667
  738MOL0     C97307   6.607   9.562   0.745 -0.2151  0.3963 -0.1080
  738MOL0     O97308   6.662   9.440   0.799  0.2371  0.0006  0.1800
  738MOL0     C97309   6.586   9.375   0.891  0.6274  0.4482 -0.8411
  738MOL0     C97310   6.574   9.232   0.887 -0.8014 -0.4371  0.3543
  738MOL0     C97311   6.485   9.167   0.965 -0.5475 -0.2301  0.1285
  738MOL0     C97312   6.405   9.235   1.058 -0.0992  0.2624 -0.7452
  738MOL0     C97313   6.316   9.154   1.141  0.4344 -0.5912 -0.6938
  738MOL0     O97314   6.298   9.019   1.111 -0.5152  0.6320 -0.8297
  738MOL0     C97315   6.184   8.954   1.147 -0.1916  0.0392 -0.6499
  738MOL0     C97316   6.182   8.826   1.100  0.1901 -0.6753 -0.3088
  738MOL0     C97317   6.065   8.743   1.111  0.5495  0.1019  0.2632
  738MOL0     C97318   5.948   8.791   1.160  0.7983  0.0577 -0.7357
  738MOL0     O97319   5.843   8.702   1.154  0.4999  0.0057  0.2916
  738MOL0     C97320   5.746   8.699   1.267 -0.7979  0.7403 -0.0203
  738MOL0     C97321   5.623   8.789   1.230 -0.0737 -0.4208  0.0731
  738MOL0     C97322   5.566   8.877   1.337 -0.7302 -0.2376  0.7304
  738MOL0     C97323   5.457   8.983   1.289 -0.5411 -0.1396  0.9510
  738MOL0     C97324   5.315   8.918   1.284 -0.2432 -0.3575  0.1834
  738MOL0     C97325   5.210   9.037   1.285  0.2775 -0.1376  0.3058
  738MOL0     C97326   5.201   9.138   1.175 -0.0165 -0.2205  0.2044
  738MOL0     C97327   5.144   9.065   1.046  1.0407  0.4382 -0.5991
  738MOL0    Cl97328   4.968   9.013   1.095 -0.5267  0.3171 -0.0778
  738MOL0     C97329   5.935   8.927   1.207 -0.8647  0.7420 -0.1212
  738MOL0     C97330   6.056   9.008   1.202  0.4043  0.4102  0.4582
  738MOL0     O97331   6.264   9.211   1.239  0.2003 -0.7961  0.1422
  738MOL0     C97332   6.415   9.379   1.066  0.2062 -1.2834  0.4400
  738MOL0     C97333   6.499   9.443   0.987 -0.3279 -0.7750  0.6750
  738MOL0     N97334   6.589  10.104   0.876  0.1463 -1.1318  0.4677
  738MOL0     N97335   6.508  10.193   0.840 -0.3382  0.7530 -0.0193
  738MOL0     C97336   5.458   9.783   0.853  0.3937 -0.1137  0.0894
  738MOL0     C97337   5.354   9.682   0.861 -0.3155 -0.2618 -0.1733
  738MOL0     C97338   4.905   9.535   0.841  0.0583  0.3397 -0.2592
  738MOL0     C97339   4.783   9.547   0.770 -0.3559  0.7703  0.1783
  738MOL0     C97340   4.703   9.432   0.739 -0.1899  0.1738 -0.9830
  738MOL0     C97341   4.732   9.313   0.800  0.2099 -0.7462 -0.3589
  738MOL0     O97342   4.644   9.209   0.770 -0.3906 -0.5297 -1.3236
  738MOL0     C97343   4.671   9.079   0.829 -0.4631 -0.2498 -0.3483
  738MOL0     C97344   4.553   8.981   0.803 -0.4963  0.2695 -0.0804
  738MOL0     C97345   4.520   8.966   0.651  0.3261 -0.2840 -0.3293
  738MOL0     C97346   4.397   9.028   0.609  0.8414 -0.4973  0.2735
  738MOL0     C97347   4.281   8.947   0.651  0.1233  0.0729 -0.5475
  738MOL0     C97348   4.184   8.892   0.707 -0.1169 -0.4061 -0.1274
  738MOL0     C97349   4.846   9.304   0.871 -1.4823  0.1931  0.1332
  738MOL0     C97350   4.941   9.410   0.891 -0.4548  0.2120  0.1283
  738MOL0     H97351   5.123   9.856   0.994 -0.0533  0.1165 -0.1424
  738MOL0     H97352   5.273  10.041   0.946 -5.1700 -2.3123  0.0478
  738MOL0     H97353   5.538  10.033   0.671  1.3925  1.7874  0.8608
  738MOL0     H97354   5.650   9.910   0.735 -1.5416 -0.4045 -0.3567
  738MOL0     H97355   5.759  10.072   0.851 -0.1392 -0.7936 -0.5559
  738MOL0     H97356   5.671  10.218   0.778  4.9836  2.5845 -2.4375
  738MOL0     H97357   5.762  10.181   0.579 -1.5628  0.5193  1.0507
  738MOL0     H97358   5.823  10.024   0.618 -0.4253  0.8505 -0.8552
  738MOL0     H97359   5.946  10.284   0.727  1.2834  0.5318 -1.8627
  738MOL0     H97360   6.023  10.122   0.731 -0.3950  0.5475  1.0208
  738MOL0     H97361   5.947  10.260   0.481  3.0109  3.3419 -1.7573
  738MOL0     H97362   6.052  10.114   0.511 -1.9926  0.7961 -2.0705
  738MOL0     H97363   6.125  10.398   0.610 -2.6873  1.2533 -2.7436
  738MOL0     H97364   6.169  10.345   0.449  0.6277 -1.1487  0.5296
  738MOL0     H97365   6.238  10.168   0.699 -0.0978  1.1211  0.8267
  738MOL0     H97366   6.272  10.136   0.529  2.0675  1.4078 -1.0860
  738MOL0     H97367   6.369  10.376   0.688 -0.9514 -2.9093  3.3085
  738MOL0     H97368   6.441  10.330   0.532 -0.2588  0.2257  0.1285
  738MOL0     H97369   6.601  10.095   0.547  0.6195 -1.1184 -0.1853
  738MOL0     H97370   6.755   9.917   0.866 -2.0287 -0.9115 -0.5388
  738MOL0     H97371   6.819   9.935   0.708  1.0732 -1.2597  0.4340
  738MOL0     H97372   6.670   9.800   0.600 -0.9219 -1.4391 -0.1898
  738MOL0     H97373   6.547   9.816   0.724 -0.1203 -1.2404 -0.7339
  738MOL0     H97374   6.807   9.648   0.722  0.8768  1.0011  0.6825
  738MOL0     H97375   6.721   9.678   0.875  1.2035  0.5273 -0.0061
  738MOL0     H97376   6.593   9.551   0.637  0.1289  3.1810 -0.4871
  738MOL0     H97377   6.509   9.588   0.784 -0.1108  0.9423 -0.2066
  738MOL0     H97378   6.650   9.181   0.828  2.7760  2.7555  1.7612
  738MOL0     H97379   6.461   9.062   0.960 -0.1041 -0.2800 -1.3083
  738MOL0     H97380   6.282   8.788   1.078 -0.0329 -2.1656  1.0818
  738MOL0     H97381   6.083   8.640   1.082 -0.5631  0.2493 -1.0298
  738MOL0     H97382   5.811   8.740   1.345  2.2449  1.1136 -2.5594
  738MOL0     H97383   5.716   8.599   1.301 -0.2306  0.3595 -0.6257
  738MOL0     H97384   5.545   8.719   1.197  1.4421 -1.0483 -2.3788
  738MOL0     H97385   5.657   8.846   1.143  0.8307 -2.6100 -1.0746
  738MOL0     H97386   5.639   8.934   1.396 -3.2026  3.4066  0.6348
  738MOL0     H97387   5.513   8.810   1.404  1.4806 -2.0195  0.8125
  738MOL0     H97388   5.451   9.068   1.358 -0.0958  1.8646 -1.3161
  738MOL0     H97389   5.486   9.032   1.195 -1.0272 -2.7862 -0.6691
  738MOL0     H97390   5.296   8.851   1.369  1.3670 -0.5645  0.4068
  738MOL0     H97391   5.302   8.855   1.196 -2.2208 -1.9249  1.4974
  738MOL0     H97392   5.238   9.104   1.367  2.2690 -2.1054  1.3375
  738MOL0     H97393   5.114   8.989   1.306 -0.2401  1.2113  1.1262
  738MOL0     H97394   5.162   9.237   1.199 -0.2052 -0.0010 -0.9271
  738MOL0     H97395   5.303   9.152   1.138 -0.2926  3.2559  0.5009
  738MOL0     H97396   5.203   8.976   1.020 -0.1073  0.2970 -3.0053
  738MOL0     H97397   5.150   9.137   0.963  0.5493 -0.6152 -1.5840
  738MOL0     H97398   5.842   8.978   1.231  0.8698  4.0028  0.4240
  738MOL0     H97399   6.057   9.111   1.236  0.6779  0.3852  0.5324
  738MOL0     H97400   6.350   9.444   1.124 -1.4744 -1.0921 -1.5347
  738MOL0     H97401   6.499   9.550   1.000 -0.7452 -0.1732 -3.1070
  738MOL0     H97402   5.551   9.747   0.810 -0.0047 -2.6378  1.1497
  738MOL0     H97403   5.374   9.577   0.841  0.1104  0.2734 -2.9803
  738MOL0     H97404   4.769   9.642   0.720  1.7244  0.5691 -0.8945
  738MOL0     H97405   4.605   9.445   0.694 -0.3953  1.5948 -0.1909
  738MOL0     H97406   4.693   9.083   0.936 -0.2326  0.3970 -0.4193
  738MOL0     H97407   4.760   9.043   0.776  0.1813  1.7122 -0.6906
  738MOL0     H97408   4.590   8.888   0.847  1.6902  0.9417 -0.3669
  738MOL0     H97409   4.458   9.001   0.852  1.2266 -0.3711  3.9025
  738MOL0     H97410   4.505   8.861   0.625 -0.6923  0.1838 -1.8015
  738MOL0     H97411   4.602   9.006   0.591  1.8026 -1.0111  1.1145
  738MOL0     H97412   4.396   9.129   0.652  4.5631  1.4331 -3.4727
  738MOL0     H97413   4.395   9.031   0.499 -1.9440 -1.4409  0.2244
  738MOL0     H97414   4.118   8.829   0.763  1.5817 -3.8490 -1.6872
  738MOL0     H97415   4.879   9.212   0.918 -1.3723  0.4663  0.5846
  738MOL0     H97416   5.031   9.397   0.951 -0.8065 -0.5823  0.5063
  739MOL0     O97417   2.782   7.550   5.127 -0.3298  0.3040 -0.3228
  739MOL0     C97418   2.797   7.523   5.001 -0.4894 -0.0005 -0.3358
  739MOL0     O97419   2.814   7.396   4.948  0.1057  0.1931 -0.3342
  739MOL0     C97420   2.816   7.288   5.035  0.1607 -0.3047  0.3275
  739MOL0     C97421   2.914   7.182   5.023  0.4217 -0.3921 -0.0355
  739MOL0     C97422   2.907   7.077   5.113 -0.7973 -0.6744 -0.4238
  739MOL0     C97423   2.811   7.069   5.207  0.2939 -1.4937  1.1806
  739MOL0     O97424   2.826   6.961   5.286 -0.1198 -0.0670 -0.2356
  739MOL0     C97425   2.793   6.991   5.423 -0.0551  0.4359  0.0673
  739MOL0     C97426   2.827   6.872   5.514 -0.3005  0.6723 -0.4842
  739MOL0     C97427   2.767   6.732   5.469  0.7294 -1.1482 -0.1961
  739MOL0     C97428   2.614   6.721   5.507  0.2998 -0.2140 -0.2893
  739MOL0     C97429   2.558   6.577   5.488 -0.0331 -0.4189 -0.5818
  739MOL0     C97430   2.595   6.464   5.597  0.4377  0.7473  0.2381
  739MOL0     C97431   2.549   6.319   5.562  0.1803 -0.3536  0.8083
  739MOL0     C97432   2.391   6.307   5.566 -0.9213  0.9239 -0.4268
  739MOL0     N97433   2.349   6.172   5.588  0.7516  0.2672  0.7849
  739MOL0     C97434   2.355   6.065   5.497 -0.3194 -0.3759 -0.5314
  739MOL0     C97435   2.294   5.960   5.561 -0.2182 -0.7720 -0.0616
  739MOL0     C97436   2.258   5.828   5.501  0.1742 -1.3305 -0.3961
  739MOL0     C97437   2.121   5.781   5.536  0.4050  1.0618  0.3300
  739MOL0     C97438   2.135   5.708   5.670 -0.2988 -0.2471 -0.7752
  739MOL0     C97439   2.028   5.606   5.690  0.4617  0.5067 -0.4381
  739MOL0     O97440   2.023   5.578   5.833 -0.3235 -0.0391 -0.4603
  739MOL0     C97441   1.952   5.474   5.874 -1.0356 -0.0358 -0.3865
  739MOL0     C97442   1.824   5.457   5.823 -0.5901  0.5784  0.0230
  739MOL0     C97443   1.757   5.347   5.869  0.3748 -0.0686 -0.4781
  739MOL0     C97444   1.801   5.268   5.978  0.5151  0.2073 -0.3149
  739MOL0     C97445   1.719   5.166   6.030  0.5009  0.1404 -0.5835
  739MOL0     O97446   1.585   5.173   6.004 -0.0616 -0.0058 -0.7774
  739MOL0     C97447   1.493   5.092   6.068 -0.4764 -0.4176  0.3309
  739MOL0     C97448   1.411   5.005   6.006 -0.8636  0.4305  0.8350
  739MOL0     C97449   1.299   4.947   6.069  0.3237  0.4932 -0.6669
  739MOL0     C97450   1.270   4.970   6.203  0.3847 -0.6454  0.2272
  739MOL0     O97451   1.158   4.926   6.271 -0.5735  0.1564 -0.9656
  739MOL0     C97452   1.138   4.787   6.244 -0.3273 -0.6143 -0.8870
  739MOL0     C97453   1.051   4.729   6.364 -0.0924 -0.2893  0.1652
  739MOL0     C97454   0.974   4.594   6.319 -0.0064  0.1465 -0.3184
  739MOL0     C97455   0.898   4.522   6.432 -0.1823 -0.2165 -0.0865
  739MOL0     C97456   0.850   4.387   6.387  0.0583  0.3459 -0.2284
  739MOL0     C97457   0.777   4.312   6.505 -0.2110 -0.4207 -0.8547
  739MOL0     C97458   0.674   4.392   6.588 -1.8359 -0.6843 -0.5300
  739MOL0     C97459   0.609   4.299   6.689 -0.1057  0.6473 -0.1418
  739MOL0    Cl97460   0.674   4.311   6.856  0.3082  0.0783 -0.3979
  739MOL0     C97461   1.357   5.062   6.267 -0.4685 -0.3116 -0.3403
  739MOL0     C97462   1.473   5.118   6.204 -0.5085 -0.4681 -0.3522
  739MOL0     O97463   1.777   5.071   6.093 -0.3279 -0.2766  0.6862
  739MOL0     C97464   1.924   5.302   6.033 -0.9919 -0.0108 -0.2024
  739MOL0     C97465   2.007   5.399   5.983  0.0933  0.7517  0.3929
  739MOL0     N97466   2.277   5.991   5.697  0.7383 -0.3408 -0.2556
  739MOL0     N97467   2.296   6.119   5.707  0.0947  0.1013  1.5594
  739MOL0     C97468   2.704   7.160   5.215 -0.1712 -0.8805 -0.3733
  739MOL0     C97469   2.714   7.268   5.126 -1.0996  0.0643  0.0894
  739MOL0     C97470   2.834   7.638   4.907  0.0489  0.1297  0.0656
  739MOL0     C97471   2.830   7.772   4.943 -0.3279  0.2352 -0.1843
  739MOL0     C97472   2.886   7.881   4.872 -0.0166  0.5811  0.5364
  739MOL0     C97473   2.939   7.850   4.741  0.1581 -0.7014 -0.7557
  739MOL0     O97474   2.999   7.961   4.685 -0.0410  0.1426  0.0433
  739MOL0     C97475   3.055   7.939   4.561 -0.5729 -0.7587  0.6037
  739MOL0     C97476   3.049   8.073   4.482  1.2695  0.0415  0.3044
  739MOL0     C97477   2.903   8.115   4.447 -0.1990 -0.2565  0.4053
  739MOL0     C97478   2.825   8.014   4.366 -0.0060  0.0198 -0.6727
  739MOL0     C97479   2.777   7.891   4.433  0.6671  0.9836  0.8091
  739MOL0     C97480   2.724   7.794   4.479 -0.9458 -0.0173 -0.2460
  739MOL0     C97481   2.936   7.716   4.705 -0.2412  0.0790 -0.4367
  739MOL0     C97482   2.878   7.610   4.778  0.2056  0.5497 -0.3939
  739MOL0     H97483   2.994   7.198   4.951 -1.4734  2.3801 -1.7393
  739MOL0     H97484   2.996   7.019   5.131 -0.9449 -0.9052 -0.4360
  739MOL0     H97485   2.685   7.006   5.432 -0.0213  1.1045 -0.5625
  739MOL0     H97486   2.837   7.086   5.455  1.2146 -0.1624  0.1498
  739MOL0     H97487   2.785   6.905   5.610  2.2667  2.5783  0.0845
  739MOL0     H97488   2.935   6.869   5.532 -0.3139  1.6770 -0.1867
  739MOL0     H97489   2.819   6.655   5.527 -0.1975 -0.4699  1.6195
  739MOL0     H97490   2.780   6.698   5.366 -0.0014 -2.9505  0.2636
  739MOL0     H97491   2.598   6.761   5.608  0.7378 -1.2165  0.2006
  739MOL0     H97492   2.557   6.785   5.441 -3.4787 -2.4513  0.5235
  739MOL0     H97493   2.578   6.539   5.387 -1.1686 -0.6818 -0.7250
  739MOL0     H97494   2.449   6.583   5.491 -0.0870 -1.5343  0.3730
  739MOL0     H97495   2.548   6.503   5.687  2.1830  0.1225  1.4783
  739MOL0     H97496   2.702   6.475   5.618  0.6519  0.9984 -0.9141
  739MOL0     H97497   2.587   6.285   5.465  3.0534 -3.4168  2.7727
  739MOL0     H97498   2.585   6.243   5.632 -1.1569 -2.5135 -0.7036
  739MOL0     H97499   2.354   6.349   5.471 -0.2555 -2.6931 -2.4611
  739MOL0     H97500   2.360   6.376   5.645  2.1487  0.2427  1.5419
  739MOL0     H97501   2.381   6.079   5.393  2.3922  0.2027  0.1444
  739MOL0     H97502   2.331   5.754   5.534 -1.2363 -2.8335 -0.5166
  739MOL0     H97503   2.260   5.831   5.391 -2.4970 -0.7908 -0.5033
  739MOL0     H97504   2.098   5.711   5.455  1.7294  2.1089 -0.9848
  739MOL0     H97505   2.047   5.861   5.539  3.3775  4.0253  0.0638
  739MOL0     H97506   2.235   5.665   5.681  1.5549  3.6203 -0.7197
  739MOL0     H97507   2.117   5.777   5.753 -1.1736 -1.2578 -0.1098
  739MOL0     H97508   2.039   5.519   5.625 -2.0462 -0.3525  0.1802
  739MOL0     H97509   1.932   5.651   5.664  0.4428  1.2420  0.8163
  739MOL0     H97510   1.773   5.514   5.746 -1.7906 -0.3776  0.0874
  739MOL0     H97511   1.667   5.325   5.812  1.6648 -0.7598 -2.3477
  739MOL0     H97512   1.438   4.982   5.903 -1.2743  0.3225  0.7532
  739MOL0     H97513   1.243   4.870   6.017 -0.2831 -0.7912  1.7459
  739MOL0     H97514   1.236   4.739   6.236  0.1582  0.5735 -2.3645
  739MOL0     H97515   1.088   4.775   6.147 -5.1354  1.2883  1.0534
  739MOL0     H97516   0.982   4.796   6.416  0.6822  0.4069  0.3025
  739MOL0     H97517   1.125   4.722   6.443  2.3205 -0.6171 -1.9906
  739MOL0     H97518   1.048   4.530   6.271  0.1866 -1.0009  1.4199
  739MOL0     H97519   0.899   4.633   6.250 -0.3330 -0.8286 -0.5211
  739MOL0     H97520   0.960   4.499   6.519  0.3546 -1.9206 -0.8632
  739MOL0     H97521   0.813   4.585   6.456 -0.1001 -0.5202  1.0640
  739MOL0     H97522   0.926   4.323   6.342  0.8870  1.4880 -0.4920
  739MOL0     H97523   0.771   4.396   6.312 -0.6040 -3.3786 -0.1791
  739MOL0     H97524   0.850   4.277   6.580 -0.4273 -0.7451 -0.7953
  739MOL0     H97525   0.726   4.226   6.462 -0.8011 -1.4268  1.6780
  739MOL0     H97526   0.724   4.477   6.636 -2.0927  1.2787 -3.4466
  739MOL0     H97527   0.609   4.435   6.511  2.2691  2.5741 -2.5944
  739MOL0     H97528   0.617   4.195   6.655 -0.7054  0.6701 -0.3668
  739MOL0     H97529   0.505   4.333   6.678 -0.1523 -0.1177 -2.6949
  739MOL0     H97530   1.340   5.077   6.373 -0.3184  1.4980 -0.5494
  739MOL0     H97531   1.539   5.196   6.242 -1.1535 -0.4998  0.8850
  739MOL0     H97532   1.962   5.259   6.125 -1.7053  1.3334  0.7473
  739MOL0     H97533   2.106   5.410   6.028 -0.5127  0.5620  1.8206
  739MOL0     H97534   2.618   7.164   5.281 -0.3063  1.6076 -0.6198
  739MOL0     H97535   2.635   7.342   5.126 -0.3782  1.3180 -5.8438
  739MOL0     H97536   2.790   7.797   5.041 -0.6892  4.2725 -1.1756
  739MOL0     H97537   2.892   7.977   4.922 -0.7041  0.0444  1.7114
  739MOL0     H97538   3.020   7.856   4.500  1.9116 -2.6928  1.6122
  739MOL0     H97539   3.160   7.914   4.583  0.8307  3.3382 -0.4213
  739MOL0     H97540   3.101   8.157   4.530  1.1197 -1.0319  2.4552
  739MOL0     H97541   3.106   8.060   4.390  0.1792  1.5079 -0.6163
  739MOL0     H97542   2.926   8.213   4.405 -0.2521 -0.2414  0.4122
  739MOL0     H97543   2.848   8.145   4.536 -2.1755  2.9310 -1.6998
  739MOL0     H97544   2.733   8.067   4.338 -0.8050 -0.6115  0.6695
  739MOL0     H97545   2.880   7.979   4.278 -1.9761 -0.5879 -1.7216
  739MOL0     H97546   2.679   7.700   4.503  0.7138 -0.7364  0.1539
  739MOL0     H97547   2.992   7.689   4.615  2.6992  0.2190  1.2087
  739MOL0     H97548   2.880   7.507   4.745  2.4469 -0.3048  2.0734
  740MOL0     O97549   7.811   6.588  10.056  0.7200  0.5056  0.4129
  740MOL0     C97550   7.779   6.683  10.122  1.3301 -0.1340  0.3696
  740MOL0     O97551   7.710   6.676  10.242 -0.3487 -0.8818  0.6019
  740MOL0     C97552   7.676   6.567  10.309  0.4543 -0.2606  0.4504
  740MOL0     C97553   7.762   6.464  10.331 -0.2484 -0.0710  0.0866
  740MOL0     C97554   7.722   6.350  10.397  0.1858 -0.6879  0.6189
  740MOL0     C97555   7.593   6.335  10.449 -0.1211 -0.0204 -0.8383
  740MOL0     O97556   7.566   6.212  10.509 -0.6047  0.2370 -1.1131
  740MOL0     C97557   7.495   6.227  10.630 -0.0628  1.0278 -0.3823
  740MOL0     C97558   7.462   6.081  10.678 -0.5574 -0.5317 -0.0401
  740MOL0     C97559   7.316   6.054  10.715 -0.2317 -0.2273 -0.2155
  740MOL0     C97560   7.293   6.120  10.863  0.1294  0.3514 -0.1860
  740MOL0     C97561   7.371   6.058  10.983 -0.3946 -0.0560 -0.1230
  740MOL0     C97562   7.386   5.903  11.001  0.4380  0.4324  0.5328
  740MOL0     C97563   7.412   5.874  11.148 -0.0716  0.6458  0.2798
  740MOL0     C97564   7.432   5.723  11.172  0.0929  0.5085 -0.0243
  740MOL0     N97565   7.444   5.692  11.312  0.6702 -0.2915 -0.7737
  740MOL0     C97566   7.547   5.722  11.400  0.3469  0.0503 -0.0435
  740MOL0     C97567   7.517   5.643  11.513 -1.0985 -0.1178 -0.3250
  740MOL0     C97568   7.605   5.635  11.631 -0.0031  0.0124 -0.2708
  740MOL0     C97569   7.595   5.769  11.705 -0.3249 -1.2315  0.8750
  740MOL0     C97570   7.662   5.756  11.846 -0.0182 -0.9524 -0.8979
  740MOL0     C97571   7.669   5.868  11.933 -0.2535 -0.7617 -0.7888
  740MOL0     O97572   7.760   5.960  11.871 -0.6287 -0.8544 -0.4561
  740MOL0     C97573   7.707   6.085  11.845  0.3467  1.0518  0.1630
  740MOL0     C97574   7.745   6.147  11.736 -0.4523  0.1586  0.4939
  740MOL0     C97575   7.687   6.270  11.694 -0.5065  0.2719 -0.1859
  740MOL0     C97576   7.594   6.337  11.773 -0.0547  0.1882 -0.2014
  740MOL0     C97577   7.555   6.473  11.736  0.1727  0.9103 -0.6414
  740MOL0     O97578   7.536   6.504  11.602 -0.3281  0.3693  0.2779
  740MOL0     C97579   7.464   6.619  11.571  0.7563 -0.0558  0.3457
  740MOL0     C97580   7.327   6.630  11.589  0.0159  0.3391 -0.0406
  740MOL0     C97581   7.270   6.758  11.574  0.6936 -0.5483 -0.2440
  740MOL0     C97582   7.338   6.866  11.515 -0.7397  0.1439  0.1734
  740MOL0     O97583   7.270   6.982  11.484  0.3404  0.0932 -0.1800
  740MOL0     C97584   7.154   7.025  11.554 -0.2300 -0.4480  0.5448
  740MOL0     C97585   7.071   7.104  11.463  0.5745  0.8933 -0.4509
  740MOL0     C97586   6.931   7.137  11.523 -0.1527 -0.2433  0.9004
  740MOL0     C97587   6.936   7.219  11.654 -0.6661 -0.0915 -0.3457
  740MOL0     C97588   6.871   7.149  11.777 -0.9939  0.3912  0.0380
  740MOL0     C97589   6.855   7.252  11.890  0.4054  1.4148  0.7529
  740MOL0     C97590   6.760   7.200  12.005  0.2511  0.2044  0.7527
  740MOL0     C97591   6.734   7.315  12.108  0.0924 -0.1036 -0.9009
  740MOL0    Cl97592   6.892   7.361  12.192 -0.2309  0.1878 -0.2883
  740MOL0     C97593   7.476   6.854  11.491  0.0686  0.1721 -0.4014
  740MOL0     C97594   7.533   6.731  11.537 -0.0573 -0.1074 -0.3586
  740MOL0     O97595   7.516   6.550  11.830 -0.0597  0.0975 -0.2019
  740MOL0     C97596   7.577   6.280  11.901 -0.4033  0.0628 -0.0310
  740MOL0     C97597   7.621   6.151  11.935  0.7728 -0.0746 -0.0321
  740MOL0     N97598   7.404   5.568  11.495 -0.4178  0.5304  0.1051
  740MOL0     N97599   7.355   5.605  11.376  0.3498  0.0918 -0.5841
  740MOL0     C97600   7.504   6.452  10.444  0.5694  0.4718 -0.5481
  740MOL0     C97601   7.547   6.559  10.374  0.5649  0.9974 -0.3257
  740MOL0     C97602   7.795   6.810  10.070  0.3875 -0.4738  0.4898
  740MOL0     C97603   7.864   6.826   9.951 -0.7582 -0.4097  0.0570
  740MOL0     C97604   7.898   6.955   9.905 -0.4091 -0.4356  0.5448
  740MOL0     C97605   7.854   7.070   9.964 -0.4404 -0.1302 -0.0557
  740MOL0     O97606   7.868   7.189   9.904  0.0459  0.8585  0.1531
  740MOL0     C97607   7.771   7.231   9.813 -0.3157 -0.2315 -0.2218
  740MOL0     C97608   7.790   7.381   9.766 -0.1083  0.2959  0.3439
  740MOL0     C97609   7.894   7.397   9.656 -0.5013 -0.6168  0.2478
  740MOL0     C97610   7.925   7.546   9.618 -1.6094  0.3401  0.2368
  740MOL0     C97611   7.822   7.616   9.543  0.5573  0.0283 -0.6383
  740MOL0     C97612   7.717   7.654   9.497  0.3908 -0.7350 -0.4568
  740MOL0     C97613   7.765   7.055  10.068 -0.1672 -0.1329  0.9722
  740MOL0     C97614   7.735   6.926  10.120 -0.1799  0.1824  0.4722
  740MOL0     H97615   7.856   6.476  10.280 -0.7576  0.3356 -0.7785
  740MOL0     H97616   7.792   6.266  10.406  1.8770  0.8784  3.8644
  740MOL0     H97617   7.401   6.282  10.623 -1.3302 -1.1949 -2.2273
  740MOL0     H97618   7.555   6.267  10.713 -0.8540 -0.2520  0.8646
  740MOL0     H97619   7.528   6.058  10.762 -3.6390  1.6776  3.2584
  740MOL0     H97620   7.484   6.015  10.593 -0.1665 -0.7292  0.2119
  740MOL0     H97621   7.301   5.946  10.709  0.3785 -0.5707  2.8660
  740MOL0     H97622   7.263   6.121  10.646  0.9567 -0.1425 -1.0799
  740MOL0     H97623   7.324   6.225  10.856 -0.6014  0.4843 -2.3884
  740MOL0     H97624   7.184   6.112  10.867 -0.5677  4.4829 -3.2590
  740MOL0     H97625   7.320   6.093  11.074  0.5613  0.6361  0.1562
  740MOL0     H97626   7.472   6.096  10.967  0.2623 -2.7061 -3.1792
  740MOL0     H97627   7.469   5.877  10.934 -3.7077  0.1979 -5.3235
  740MOL0     H97628   7.296   5.848  10.970  0.2558  1.5656 -1.1026
  740MOL0     H97629   7.501   5.933  11.170  0.5659  0.1490 -0.8329
  740MOL0     H97630   7.335   5.913  11.215  0.8390  0.3517  1.5123
  740MOL0     H97631   7.524   5.693  11.121  1.3385  1.2756  1.7118
  740MOL0     H97632   7.347   5.659  11.146 -0.4425  2.0583 -2.4557
  740MOL0     H97633   7.635   5.782  11.379  0.0369  0.2036 -0.9379
  740MOL0     H97634   7.705   5.616  11.592 -0.0371  2.5168 -1.8645
  740MOL0     H97635   7.585   5.551  11.697 -0.8303 -0.4506 -1.0819
  740MOL0     H97636   7.491   5.800  11.716 -0.6996 -0.2756 -3.6099
  740MOL0     H97637   7.640   5.856  11.656 -0.1788  0.7547  4.2476
  740MOL0     H97638   7.592   5.684  11.890 -1.3889  1.5252  1.2405
  740MOL0     H97639   7.762   5.711  11.841  0.6037  0.1161  0.8628
  740MOL0     H97640   7.717   5.844  12.028 -2.1913  4.2040  1.8544
  740MOL0     H97641   7.564   5.895  11.953 -0.0503  0.5022 -1.2990
  740MOL0     H97642   7.828   6.114  11.674 -1.3754 -1.0907 -0.1083
  740MOL0     H97643   7.722   6.300  11.596 -1.3851 -1.2629 -1.0074
  740MOL0     H97644   7.264   6.548  11.620  2.1954 -0.7022  1.9934
  740MOL0     H97645   7.163   6.754  11.593  1.0174 -1.3905  1.6966
  740MOL0     H97646   7.196   7.083  11.637 -0.9620  3.4058 -1.5544
  740MOL0     H97647   7.089   6.940  11.579  0.5893 -2.0932 -2.3863
  740MOL0     H97648   7.056   7.042  11.373  1.6613  0.8934 -0.6418
  740MOL0     H97649   7.125   7.186  11.417  2.1669 -1.6918 -3.5881
  740MOL0     H97650   6.894   7.034  11.528 -1.1435  0.0623  0.2796
  740MOL0     H97651   6.863   7.181  11.449 -0.2351 -2.1025 -0.1900
  740MOL0     H97652   7.039   7.255  11.660 -1.2472  1.7885 -0.9679
  740MOL0     H97653   6.870   7.306  11.648 -1.3240 -0.1263  3.6237
  740MOL0     H97654   6.941   7.074  11.815  0.6346  2.6540  1.8343
  740MOL0     H97655   6.780   7.102  11.739 -0.7130 -0.3428  0.2542
  740MOL0     H97656   6.819   7.343  11.841 -0.1396  0.3983 -0.8191
  740MOL0     H97657   6.953   7.257  11.937  0.3534  0.8548  0.9277
  740MOL0     H97658   6.665   7.177  11.956  0.2432 -1.7541  1.5647
  740MOL0     H97659   6.797   7.111  12.057  0.1094  0.4579  1.3023
  740MOL0     H97660   6.664   7.282  12.185 -1.7873  2.4148 -1.4205
  740MOL0     H97661   6.690   7.402  12.059 -0.6062  0.2506  0.3237
  740MOL0     H97662   7.535   6.939  11.461  0.8817 -1.1858 -2.9820
  740MOL0     H97663   7.641   6.729  11.539 -0.0756 -1.2022  1.2443
  740MOL0     H97664   7.524   6.330  11.982 -0.3044 -4.1119  2.9903
  740MOL0     H97665   7.598   6.113  12.034 -0.3059 -2.1642 -1.0180
  740MOL0     H97666   7.406   6.446  10.489  1.7602 -1.2587  2.0990
  740MOL0     H97667   7.489   6.649  10.358 -1.4794 -0.2712 -0.4035
  740MOL0     H97668   7.899   6.738   9.898 -0.7140 -3.6816  4.8461
  740MOL0     H97669   7.956   6.959   9.814 -1.7170  0.4998 -0.2777
  740MOL0     H97670   7.672   7.222   9.859  0.1910 -1.0246  0.7765
  740MOL0     H97671   7.768   7.166   9.725  1.0071 -2.2404  1.1213
  740MOL0     H97672   7.692   7.399   9.720  0.3820  0.3203 -0.7399
  740MOL0     H97673   7.808   7.444   9.853  1.4542 -2.7811  2.4299
  740MOL0     H97674   7.868   7.358   9.558  0.6153 -0.1932 -0.2434
  740MOL0     H97675   7.982   7.337   9.683  0.1682 -0.7341 -1.9731
  740MOL0     H97676   7.946   7.605   9.708  0.9972  1.5999 -1.0777
  740MOL0     H97677   8.017   7.540   9.558 -1.6524  0.1296  0.1922
  740MOL0     H97678   7.624   7.682   9.451  0.5192  0.2610 -0.1326
  740MOL0     H97679   7.725   7.145  10.115  1.1897  0.8658  0.3108
  740MOL0     H97680   7.667   6.922  10.204  1.1447 -0.8466  1.5447
  741MOL0     O97681   0.630   1.080   1.098 -0.2908 -0.7780  1.1919
  741MOL0     C97682   0.572   1.005   1.180 -0.1985 -0.0260 -0.9744
  741MOL0     O97683   0.561   0.875   1.167  0.0296 -0.6203 -0.7151
  741MOL0     C97684   0.617   0.819   1.061  0.7457  0.1253 -0.0719
  741MOL0     C97685   0.531   0.740   0.976 -0.1351  1.4798  0.8723
  741MOL0     C97686   0.583   0.665   0.860 -1.0743 -0.2872 -1.9454
  741MOL0     C97687   0.725   0.654   0.857 -0.0488 -1.0220 -0.4756
  741MOL0     O97688   0.785   0.579   0.764 -0.5833  0.4247 -0.0218
  741MOL0     C97689   0.743   0.599   0.635 -0.5008 -0.2768 -0.1998
  741MOL0     C97690   0.841   0.528   0.535  0.5489 -1.0791  0.1518
  741MOL0     C97691   0.789   0.558   0.389 -0.4037  0.7718  0.8622
  741MOL0     C97692   0.899   0.520   0.285 -0.5010 -0.7242  0.5703
  741MOL0     C97693   0.834   0.531   0.142 -0.3248  0.1075  0.3185
  741MOL0     C97694   0.943   0.486   0.031 -0.2109  0.0214 -0.4972
  741MOL0     C97695   1.039   0.591  -0.015 -0.2129  0.5828 -0.5447
  741MOL0     C97696   1.104   0.548  -0.146  0.1807  0.3723  0.2699
  741MOL0     N97697   1.007   0.565  -0.269  0.9463 -0.0381 -0.5880
  741MOL0     C97698   0.967   0.686  -0.320 -0.3993 -0.2138 -0.1159
  741MOL0     C97699   0.852   0.662  -0.388  0.3223  0.2637 -0.2791
  741MOL0     C97700   0.784   0.778  -0.455 -0.9034  0.1121  0.4476
  741MOL0     C97701   0.830   0.800  -0.597  0.5817 -0.4260  0.1134
  741MOL0     C97702   0.980   0.788  -0.624 -0.1243 -0.9295  0.9807
  741MOL0     C97703   1.004   0.835  -0.765  0.0628 -0.5302  0.6893
  741MOL0     O97704   1.143   0.791  -0.786 -0.4616 -0.3093 -0.0662
  741MOL0     C97705   1.215   0.818  -0.902 -0.5208 -0.9182  0.1131
  741MOL0     C97706   1.175   0.914  -0.999  0.1380 -0.0087  0.0040
  741MOL0     C97707   1.234   0.917  -1.123  0.5611  0.6361 -1.1242
  741MOL0     C97708   1.361   0.850  -1.143  0.4285 -0.6319  0.4646
  741MOL0     C97709   1.439   0.863  -1.270 -0.2164  0.4677 -0.5143
  741MOL0     O97710   1.567   0.813  -1.260 -0.2854  0.7199  0.5072
  741MOL0     C97711   1.655   0.813  -1.365 -0.1924  0.3447  0.2575
  741MOL0     C97712   1.670   0.923  -1.459 -0.4960  0.0054  0.9493
  741MOL0     C97713   1.768   0.914  -1.560 -0.6552  0.4351 -0.1430
  741MOL0     C97714   1.844   0.793  -1.572 -0.3541  0.2484  0.2744
  741MOL0     O97715   1.946   0.772  -1.662  0.9897  0.0334  0.7023
  741MOL0     C97716   1.952   0.855  -1.784  0.2765 -0.0304  0.2108
  741MOL0     C97717   2.094   0.817  -1.837  0.8089 -0.3788 -0.0626
  741MOL0     C97718   2.185   0.939  -1.849 -1.2256  0.0093 -0.1378
  741MOL0     C97719   2.313   0.924  -1.934  0.3098 -0.4789 -0.5736
  741MOL0     C97720   2.407   1.037  -1.938 -0.1076 -1.6081  0.0428
  741MOL0     C97721   2.548   1.028  -2.018  0.2345 -0.0454 -1.2915
  741MOL0     C97722   2.531   1.063  -2.171 -0.9618 -0.7553  0.2024
  741MOL0     C97723   2.665   1.046  -2.249  0.0536  0.3673  0.1660
  741MOL0    Cl97724   2.674   1.144  -2.401 -0.6411 -0.1125 -0.4525
  741MOL0     C97725   1.814   0.680  -1.491 -0.7068  0.4598  0.6597
  741MOL0     C97726   1.716   0.686  -1.392 -0.2061 -1.1244 -0.4143
  741MOL0     O97727   1.385   0.920  -1.364 -0.4135  0.0822  0.0884
  741MOL0     C97728   1.413   0.777  -1.031 -0.4830 -0.2383  0.0141
  741MOL0     C97729   1.343   0.760  -0.913  0.2728  0.5151  0.8097
  741MOL0     N97730   0.837   0.523  -0.399 -0.3756  0.2021 -0.2024
  741MOL0     N97731   0.924   0.463  -0.325  0.0234 -0.7007 -0.3564
  741MOL0     C97732   0.808   0.729   0.949 -0.5399  0.2605  0.8024
  741MOL0     C97733   0.747   0.810   1.047 -0.9287  0.7635 -1.1944
  741MOL0     C97734   0.517   1.082   1.302  0.8021  0.4577  0.8068
  741MOL0     C97735   0.446   1.018   1.404  0.4917 -0.3632  0.2247
  741MOL0     C97736   0.378   1.088   1.513  0.2249  0.5865  0.2714
  741MOL0     C97737   0.407   1.227   1.530 -0.8503 -0.4817 -0.4995
  741MOL0     O97738   0.364   1.293   1.641  0.0013  0.2849 -0.4447
  741MOL0     C97739   0.276   1.228   1.740 -0.4100  0.1830 -0.7532
  741MOL0     C97740   0.218   1.325   1.848  0.5693  0.0629 -1.0827
  741MOL0     C97741   0.075   1.358   1.815  0.2463 -0.1169 -0.5465
  741MOL0     C97742   0.025   1.460   1.919 -0.0714 -0.5710 -0.8337
  741MOL0     C97743   0.046   1.423   2.056 -0.1525  0.1995  0.8083
  741MOL0     C97744   0.051   1.404   2.174  0.7585  0.3896 -0.8817
  741MOL0     C97745   0.500   1.289   1.441  1.2404 -0.0048 -0.1904
  741MOL0     C97746   0.549   1.219   1.329 -0.3763 -0.4765  0.8129
  741MOL0     H97747   0.423   0.745   0.985 -0.2419 -0.3701  0.9688
  741MOL0     H97748   0.515   0.605   0.801  1.2331 -5.6861  0.2295
  741MOL0     H97749   0.741   0.707   0.619  2.3190 -0.0660  0.4967
  741MOL0     H97750   0.643   0.556   0.622 -1.6168  1.8796  0.6516
  741MOL0     H97751   0.848   0.423   0.564  1.0012 -0.6259  1.7846
  741MOL0     H97752   0.943   0.563   0.549  0.9006 -1.3213 -1.5694
  741MOL0     H97753   0.774   0.666   0.391 -0.2697  0.8093  0.1238
  741MOL0     H97754   0.702   0.496   0.369  2.3665 -2.3862 -3.0260
  741MOL0     H97755   0.983   0.589   0.302 -1.2635  0.0816  1.1472
  741MOL0     H97756   0.941   0.423   0.313  1.0197 -0.8863 -1.9690
  741MOL0     H97757   0.776   0.618   0.109 -2.5983 -0.6087  2.1832
  741MOL0     H97758   0.756   0.455   0.139  1.8130 -2.2213 -1.7353
  741MOL0     H97759   0.882   0.457  -0.056 -0.0417 -0.8683 -0.3332
  741MOL0     H97760   0.987   0.390   0.061 -4.8689 -1.8095  1.5351
  741MOL0     H97761   0.996   0.692  -0.023 -0.5286  0.5916  1.0600
  741MOL0     H97762   1.111   0.589   0.067 -1.4815 -1.3360  0.5692
  741MOL0     H97763   1.140   0.445  -0.137 -2.9296 -0.8554 -0.2377
  741MOL0     H97764   1.182   0.619  -0.176 -1.0829  1.3370 -0.8012
  741MOL0     H97765   1.018   0.780  -0.299  0.9868 -0.9774  0.0188
  741MOL0     H97766   0.827   0.862  -0.399 -0.0310 -1.2929  1.9631
  741MOL0     H97767   0.675   0.783  -0.444 -0.9927  1.0904 -0.7074
  741MOL0     H97768   0.788   0.899  -0.620  0.8488 -0.1648  0.7196
  741MOL0     H97769   0.784   0.727  -0.664 -0.1791  2.6837 -3.0750
  741MOL0     H97770   1.028   0.864  -0.562 -3.1676  2.4962 -0.4625
  741MOL0     H97771   1.004   0.684  -0.604 -2.1594 -1.9768 -1.3620
  741MOL0     H97772   0.981   0.941  -0.777 -0.9498 -0.9829 -2.4886
  741MOL0     H97773   0.935   0.778  -0.829 -0.1688 -0.9235  1.2825
  741MOL0     H97774   1.079   0.965  -1.002 -0.2325 -0.3568  2.6369
  741MOL0     H97775   1.186   0.959  -1.211 -2.2719 -1.2768 -0.6287
  741MOL0     H97776   1.610   1.013  -1.445 -0.7943 -0.3618  2.1661
  741MOL0     H97777   1.784   0.996  -1.629 -0.7720 -1.1354 -2.1603
  741MOL0     H97778   1.926   0.961  -1.783 -3.7539 -0.8526 -1.0647
  741MOL0     H97779   1.883   0.812  -1.858  1.4689 -1.2831 -0.2169
  741MOL0     H97780   2.068   0.765  -1.929 -3.0841  1.6807 -0.3432
  741MOL0     H97781   2.127   0.736  -1.771 -0.5499  0.3087  1.5399
  741MOL0     H97782   2.223   0.966  -1.750  2.6642 -0.4744 -1.3465
  741MOL0     H97783   2.128   1.027  -1.882 -2.2773 -0.2216  0.9734
  741MOL0     H97784   2.372   0.839  -1.898  0.9518 -1.2985 -3.2888
  741MOL0     H97785   2.284   0.904  -2.038  0.3445  0.6738 -0.8185
  741MOL0     H97786   2.434   1.057  -1.834  0.7969 -0.5655 -0.3663
  741MOL0     H97787   2.352   1.125  -1.973  0.2718 -1.6414 -0.6796
  741MOL0     H97788   2.583   0.924  -2.011 -2.5177 -0.9909  0.6586
  741MOL0     H97789   2.618   1.098  -1.972  0.7818  0.7358 -3.2530
  741MOL0     H97790   2.448   0.999  -2.204 -0.9312 -0.7576  0.1300
  741MOL0     H97791   2.497   1.166  -2.180 -2.3261 -1.2056 -0.1975
  741MOL0     H97792   2.689   0.943  -2.278  4.9221  1.2502  0.3492
  741MOL0     H97793   2.744   1.085  -2.185 -1.1189 -0.0416  1.9714
  741MOL0     H97794   1.883   0.597  -1.504 -0.4368  0.9549 -1.3981
  741MOL0     H97795   1.702   0.612  -1.315  4.5349 -1.2972  0.5997
  741MOL0     H97796   1.509   0.727  -1.037  2.6715  4.3825  3.7779
  741MOL0     H97797   1.365   0.679  -0.845 -0.0788  1.8531  2.6031
  741MOL0     H97798   0.916   0.730   0.955 -0.3662  3.1082 -0.9335
  741MOL0     H97799   0.824   0.856   1.108 -0.7242 -0.0682 -0.8170
  741MOL0     H97800   0.434   0.910   1.408  1.0635 -0.3968  3.3825
  741MOL0     H97801   0.324   1.019   1.577 -0.4349 -0.8621 -1.7361
  741MOL0     H97802   0.345   1.167   1.799 -0.4149  0.4251 -0.4970
  741MOL0     H97803   0.198   1.167   1.692 -0.2399  0.3760 -1.2834
  741MOL0     H97804   0.222   1.275   1.945 -1.1843 -0.1322 -1.0808
  741MOL0     H97805   0.276   1.417   1.861 -1.5285  1.0449  3.8537
  741MOL0     H97806   0.015   1.268   1.829  1.2061 -0.5346  1.3109
  741MOL0     H97807   0.074   1.397   1.713  1.9323  0.7958 -0.2420
  741MOL0     H97808   0.078   1.554   1.903  1.1980 -1.6263 -3.6319
  741MOL0     H97809  -0.081   1.472   1.897 -0.0265  0.7943 -0.3737
  741MOL0     H97810   0.063   1.414   2.280  2.3899  1.4775 -1.1366
  741MOL0     H97811   0.533   1.390   1.464  2.0530 -0.0118 -1.2607
  741MOL0     H97812   0.612   1.273   1.259 -1.5742 -0.6170 -0.4039
  742MOL0     O97813   1.611   0.887   3.372 -0.6895  0.5057 -0.2558
  742MOL0     C97814   1.533   0.888   3.275 -0.2868 -0.3154  0.2287
  742MOL0     O97815   1.534   0.793   3.177  0.7196  0.1128  0.4509
  742MOL0     C97816   1.622   0.693   3.175 -0.8117 -0.2115  0.0985
  742MOL0     C97817   1.763   0.734   3.156 -0.1028  0.3557 -1.0046
  742MOL0     C97818   1.861   0.642   3.139  1.2133 -0.3527  0.2844
  742MOL0     C97819   1.843   0.506   3.153 -0.0575  0.8629  1.0094
  742MOL0     O97820   1.955   0.426   3.145 -0.6285  0.1826  0.1630
  742MOL0     C97821   1.955   0.291   3.206  0.9921 -0.3390  0.0576
  742MOL0     C97822   2.089   0.221   3.198  0.2501 -0.2176  0.2493
  742MOL0     C97823   2.216   0.301   3.252 -0.1572  0.2675 -0.1790
  742MOL0     C97824   2.359   0.260   3.200  0.6036 -1.2249  0.2372
  742MOL0     C97825   2.467   0.365   3.229  0.9719 -0.4048 -0.4348
  742MOL0     C97826   2.514   0.376   3.365  0.6138  0.0814 -0.6401
  742MOL0     C97827   2.620   0.484   3.386 -0.0378  0.9708  0.7760
  742MOL0     C97828   2.709   0.449   3.514 -0.5232 -0.1559 -0.5461
  742MOL0     N97829   2.634   0.480   3.638  0.7264 -0.4235 -0.0723
  742MOL0     C97830   2.562   0.589   3.661 -0.4212 -0.3657  0.1899
  742MOL0     C97831   2.533   0.583   3.791 -0.1811 -0.6409 -0.0049
  742MOL0     C97832   2.471   0.683   3.873  0.4489 -0.3252  1.4513
  742MOL0     C97833   2.333   0.708   3.817  0.3446 -0.4291  0.3661
  742MOL0     C97834   2.255   0.776   3.929 -0.1948  0.4697 -0.1397
  742MOL0     C97835   2.122   0.835   3.878 -0.0601  0.4958 -0.6445
  742MOL0     O97836   2.077   0.905   3.997  0.5436  1.2846 -0.2819
  742MOL0     C97837   2.050   1.038   3.997 -0.6247 -0.7670  0.1522
  742MOL0     C97838   2.123   1.130   3.923  0.9266 -0.4811 -0.9593
  742MOL0     C97839   2.095   1.267   3.922  0.8227  0.0081  0.2153
  742MOL0     C97840   2.000   1.325   4.002  1.5092  0.8000 -0.3349
  742MOL0     C97841   1.963   1.462   3.995  1.5720 -0.0661 -0.7499
  742MOL0     O97842   2.036   1.549   3.932 -0.3213 -0.9120  0.3649
  742MOL0     C97843   2.003   1.684   3.934  0.6474 -0.5714  0.0721
  742MOL0     C97844   1.881   1.737   3.884 -0.4259  0.4040 -0.2114
  742MOL0     C97845   1.867   1.878   3.882  0.2785 -0.7684  0.3952
  742MOL0     C97846   1.965   1.971   3.917  0.1991 -0.1337  0.2091
  742MOL0     O97847   1.927   2.101   3.917  0.9079 -0.5548  0.4507
  742MOL0     C97848   2.026   2.200   3.942 -0.9001 -1.0396  0.4719
  742MOL0     C97849   1.974   2.348   3.898  0.4727  0.4193 -1.1283
  742MOL0     C97850   1.873   2.338   3.782  0.7747 -0.7865  0.4015
  742MOL0     C97851   1.850   2.478   3.715  0.0786 -0.6723 -0.6687
  742MOL0     C97852   1.751   2.482   3.596  0.2812  0.7944 -0.5559
  742MOL0     C97853   1.708   2.624   3.552 -0.3905  0.0893 -0.0607
  742MOL0     C97854   1.596   2.676   3.648  0.3289  0.8000 -0.3850
  742MOL0     C97855   1.620   2.808   3.725  0.6319  0.5825 -1.0535
  742MOL0    Cl97856   1.469   2.852   3.804  0.3057  0.4556  0.4377
  742MOL0     C97857   2.090   1.917   3.968  0.5719 -0.4188  0.3341
  742MOL0     C97858   2.101   1.775   3.980  0.5096 -0.3562  0.0066
  742MOL0     O97859   1.858   1.496   4.063 -0.4368  0.1643 -0.3394
  742MOL0     C97860   1.926   1.236   4.084  0.0599 -0.4937  1.1586
  742MOL0     C97861   1.944   1.090   4.077  0.2052 -0.7304  0.6925
  742MOL0     N97862   2.578   0.466   3.846 -0.3925 -0.6946  0.2764
  742MOL0     N97863   2.645   0.398   3.752  0.2458  0.7535  0.8109
  742MOL0     C97864   1.705   0.463   3.175  0.6643 -0.8907 -0.4884
  742MOL0     C97865   1.601   0.556   3.175 -0.2005 -0.0576 -0.7843
  742MOL0     C97866   1.413   0.986   3.264  1.0042  0.1573  0.3213
  742MOL0     C97867   1.304   0.940   3.191 -0.4428 -0.0097 -0.0053
  742MOL0     C97868   1.194   1.028   3.183  1.0426 -0.5042  0.0306
  742MOL0     C97869   1.193   1.153   3.234 -0.3473 -0.2753  0.6579
  742MOL0     O97870   1.072   1.221   3.219  0.2062 -0.4793 -0.6697
  742MOL0     C97871   1.072   1.362   3.260 -0.0160  0.3909  0.1609
  742MOL0     C97872   0.945   1.409   3.208  0.4120  0.3218  0.7157
  742MOL0     C97873   0.922   1.560   3.211  0.1546 -0.7130 -0.2594
  742MOL0     C97874   0.899   1.616   3.352 -0.6172 -0.4317 -1.7054
  742MOL0     C97875   0.818   1.548   3.453  0.2322  0.0473  0.4327
  742MOL0     C97876   0.749   1.466   3.512 -0.0441  0.2989  0.6334
  742MOL0     C97877   1.303   1.196   3.308  0.8609 -0.5939 -0.5745
  742MOL0     C97878   1.412   1.114   3.319  0.4130  0.4968  0.5536
  742MOL0     H97879   1.781   0.839   3.138 -2.8954  1.8915  3.5404
  742MOL0     H97880   1.956   0.690   3.116 -0.5459  2.9381 -0.8479
  742MOL0     H97881   1.873   0.232   3.165  0.5759 -2.4996  3.5572
  742MOL0     H97882   1.943   0.303   3.314  4.9599 -1.3131  0.7637
  742MOL0     H97883   2.102   0.189   3.094  0.3266  3.0659 -0.8679
  742MOL0     H97884   2.083   0.134   3.264  3.2098  2.4586  4.5337
  742MOL0     H97885   2.213   0.291   3.361 -3.1712 -1.8730 -0.3383
  742MOL0     H97886   2.198   0.407   3.232  3.1295  0.8393 -0.6687
  742MOL0     H97887   2.385   0.155   3.217  2.3071 -1.1982 -1.8094
  742MOL0     H97888   2.344   0.259   3.091  1.6740  0.5865  0.0524
  742MOL0     H97889   2.437   0.465   3.197 -0.6200 -1.1727 -1.5232
  742MOL0     H97890   2.558   0.327   3.181  2.4430 -1.3904  2.8649
  742MOL0     H97891   2.563   0.282   3.393  2.6971  1.6390  1.2270
  742MOL0     H97892   2.430   0.404   3.429 -0.1768  2.0050 -2.4011
  742MOL0     H97893   2.683   0.488   3.296 -0.0510  1.4416  0.7845
  742MOL0     H97894   2.583   0.587   3.386  2.5325  1.9783  0.7727
  742MOL0     H97895   2.805   0.501   3.506 -2.0374  2.9609 -0.1159
  742MOL0     H97896   2.739   0.345   3.526 -2.8776 -0.8750 -0.2659
  742MOL0     H97897   2.558   0.676   3.596 -0.2574  0.7354  1.6131
  742MOL0     H97898   2.530   0.774   3.860 -1.5766  0.9955  1.1317
  742MOL0     H97899   2.468   0.651   3.978 -0.5297  1.3082  1.9533
  742MOL0     H97900   2.284   0.616   3.785 -1.2737  0.9237 -1.2151
  742MOL0     H97901   2.331   0.785   3.740  2.9373  1.2646  1.8220
  742MOL0     H97902   2.225   0.704   4.005  1.3970 -0.2879 -0.1874
  742MOL0     H97903   2.314   0.854   3.977  0.4264  0.0302 -0.1816
  742MOL0     H97904   2.053   0.753   3.856  0.5592 -0.5043  0.9439
  742MOL0     H97905   2.128   0.890   3.784  0.7890 -0.5981 -1.2500
  742MOL0     H97906   2.197   1.095   3.852  1.1409 -2.5317  0.1938
  742MOL0     H97907   2.149   1.325   3.848 -2.0099  3.3874  0.5362
  742MOL0     H97908   1.811   1.664   3.846  0.4958 -1.2150  1.1095
  742MOL0     H97909   1.775   1.921   3.843  0.7625  1.1754  1.2653
  742MOL0     H97910   2.112   2.170   3.881 -0.6506 -3.2179  1.8084
  742MOL0     H97911   2.067   2.194   4.043  2.2049  1.6684 -0.4393
  742MOL0     H97912   2.063   2.406   3.873 -0.2779  1.9308 -0.4335
  742MOL0     H97913   1.931   2.386   3.991 -2.4629 -2.0714 -1.2991
  742MOL0     H97914   1.775   2.309   3.821 -0.9505  2.4975 -1.1028
  742MOL0     H97915   1.911   2.266   3.709 -0.4767 -2.2784  1.1663
  742MOL0     H97916   1.824   2.547   3.796 -0.8190  0.0376 -1.5396
  742MOL0     H97917   1.946   2.517   3.679  0.9135 -1.8073  0.2238
  742MOL0     H97918   1.660   2.422   3.609  0.0334  0.7724 -2.1531
  742MOL0     H97919   1.810   2.429   3.520  0.7063 -0.2221  0.4645
  742MOL0     H97920   1.687   2.627   3.445  2.0767  3.9355 -0.6528
  742MOL0     H97921   1.799   2.684   3.569  0.0283 -0.7251  0.6150
  742MOL0     H97922   1.504   2.704   3.594 -2.7069 -0.7315  3.5000
  742MOL0     H97923   1.577   2.592   3.715 -0.3867 -0.1137 -1.6708
  742MOL0     H97924   1.642   2.884   3.649 -0.8566  2.3443  0.2189
  742MOL0     H97925   1.704   2.794   3.793 -0.7831  0.4639  0.7371
  742MOL0     H97926   2.156   1.987   4.019 -1.4527  0.9390  1.1995
  742MOL0     H97927   2.192   1.740   4.029  1.9764  1.3312 -1.3766
  742MOL0     H97928   1.841   1.268   4.144 -0.0163 -1.3716  1.5405
  742MOL0     H97929   1.883   1.016   4.128 -0.7719  0.2195  0.9426
  742MOL0     H97930   1.682   0.357   3.179  0.8528 -0.9532  3.6569
  742MOL0     H97931   1.499   0.527   3.197 -0.0749 -1.4357 -1.8516
  742MOL0     H97932   1.315   0.840   3.151  4.8769  0.3101 -0.0666
  742MOL0     H97933   1.104   0.993   3.133  0.3026  0.2058  0.8376
  742MOL0     H97934   1.154   1.416   3.210 -0.4260 -0.4400 -1.4857
  742MOL0     H97935   1.085   1.378   3.367  1.9748  1.9259 -0.2378
  742MOL0     H97936   0.934   1.374   3.105 -1.9468  0.2924  0.9337
  742MOL0     H97937   0.864   1.356   3.259 -1.8232  2.0506 -0.8129
  742MOL0     H97938   0.835   1.579   3.148  2.0088  0.0284 -2.7765
  742MOL0     H97939   1.000   1.619   3.163  1.1754 -1.5769  0.2971
  742MOL0     H97940   0.997   1.619   3.403 -1.3869  2.2334 -0.1770
  742MOL0     H97941   0.871   1.721   3.338 -0.2603 -0.3500 -1.8375
  742MOL0     H97942   0.707   1.387   3.569  1.0777 -0.0278  1.0400
  742MOL0     H97943   1.303   1.298   3.343 -0.4209 -1.3313  1.8401
  742MOL0     H97944   1.498   1.152   3.373  1.0046  0.9643 -0.6834
  743MOL0     O97945   0.153   9.829   5.462  0.3783  0.2788 -0.1097
  743MOL0     C97946   0.087   9.786   5.368 -0.2367 -0.2375 -0.0120
  743MOL0     O97947   0.113   9.669   5.297 -0.0571 -0.3254  0.5018
  743MOL0     C97948   0.235   9.619   5.342  0.9350  0.7250 -0.2741
  743MOL0     C97949   0.228   9.494   5.416 -0.4021  0.0671  0.0101
  743MOL0     C97950   0.354   9.436   5.453 -0.2418 -0.1620  0.0840
  743MOL0     C97951   0.478   9.493   5.410  1.3320 -0.5547 -0.4069
  743MOL0     O97952   0.586   9.434   5.454 -0.3941  0.9490  0.2292
  743MOL0     C97953   0.691   9.421   5.352 -0.2441 -0.2534  1.2821
  743MOL0     C97954   0.653   9.330   5.224 -0.1004 -0.2856 -1.2230
  743MOL0     C97955   0.765   9.263   5.142 -0.3812 -0.6285 -0.6341
  743MOL0     C97956   0.693   9.162   5.057  0.5079 -0.9108 -0.7293
  743MOL0     C97957   0.768   9.117   4.932  0.7477 -0.7968  0.1779
  743MOL0     C97958   0.678   9.050   4.827 -0.0864  0.6912 -0.7999
  743MOL0     C97959   0.751   9.036   4.693 -0.7292  0.5593 -0.1960
  743MOL0     C97960   0.673   8.965   4.585 -0.1597  0.5229  0.2121
  743MOL0     N97961   0.739   8.976   4.455 -0.6016 -1.5906  0.5488
  743MOL0     C97962   0.867   8.938   4.409  0.5711  0.2753 -0.3072
  743MOL0     C97963   0.874   8.994   4.285  1.0905 -0.4569 -0.1339
  743MOL0     C97964   0.998   9.003   4.193 -0.0700  0.3678 -0.1758
  743MOL0     C97965   0.964   8.941   4.070  0.7068  0.4161  0.0844
  743MOL0     C97966   1.074   8.957   3.966  0.0433  0.3966  0.3518
  743MOL0     C97967   1.079   8.857   3.844 -0.2812  0.2990 -0.7938
  743MOL0     O97968   1.079   8.725   3.909  0.0263  1.3793  0.4801
  743MOL0     C97969   1.123   8.622   3.824 -0.1916 -0.2313 -0.9100
  743MOL0     C97970   1.180   8.505   3.888 -0.3770 -0.5877  0.1819
  743MOL0     C97971   1.231   8.396   3.807  0.0724 -0.2743 -0.8764
  743MOL0     C97972   1.262   8.413   3.676 -0.3170 -0.1031 -0.2172
  743MOL0     C97973   1.346   8.315   3.613 -0.4844 -0.1827 -0.3394
  743MOL0     O97974   1.365   8.191   3.674 -0.2256 -0.8081 -1.0971
  743MOL0     C97975   1.424   8.091   3.596  0.4141  0.3372  0.2542
  743MOL0     C97976   1.348   8.032   3.488 -0.6130 -0.1994 -0.2655
  743MOL0     C97977   1.405   7.927   3.423 -0.0136 -0.2498 -1.3216
  743MOL0     C97978   1.535   7.878   3.459  0.1129 -0.5768 -0.7792
  743MOL0     O97979   1.594   7.770   3.396 -0.1550 -1.0222  0.3709
  743MOL0     C97980   1.547   7.725   3.274  0.7713  0.0775  0.3948
  743MOL0     C97981   1.633   7.624   3.185  1.2226  0.6280 -0.7072
  743MOL0     C97982   1.614   7.470   3.232  0.2074 -0.6797  1.0168
  743MOL0     C97983   1.666   7.373   3.126 -0.7959  0.3624  1.1746
  743MOL0     C97984   1.676   7.225   3.169  0.7956 -0.2686  0.3023
  743MOL0     C97985   1.537   7.157   3.192 -0.3568  0.7032 -0.5129
  743MOL0     C97986   1.559   7.032   3.280  0.5240 -0.1162  0.1785
  743MOL0     C97987   1.526   7.041   3.433 -0.4225 -1.1077  0.5783
  743MOL0    Cl97988   1.573   6.899   3.524 -0.1247 -0.1600  0.2651
  743MOL0     C97989   1.610   7.936   3.566  0.0393  0.3512 -0.3276
  743MOL0     C97990   1.548   8.032   3.641 -0.4474  0.4058  0.4160
  743MOL0     O97991   1.401   8.349   3.512 -0.6199 -0.6025  0.1109
  743MOL0     C97992   1.214   8.532   3.615  0.6059  0.0158  0.2229
  743MOL0     C97993   1.139   8.628   3.684  1.1863  0.7441 -0.0357
  743MOL0     N97994   0.755   9.048   4.252  0.1420  0.2134 -0.3512
  743MOL0     N97995   0.667   9.024   4.344 -0.2236  1.0408 -0.7295
  743MOL0     C97996   0.482   9.615   5.343 -0.1614  0.0157  0.0563
  743MOL0     C97997   0.360   9.674   5.307  0.1788  0.0785 -0.8581
  743MOL0     C97998  -0.044   9.848   5.363  0.1355  0.1417  1.4436
  743MOL0     C97999  -0.145   9.812   5.266 -0.0330 -0.0159 -0.0216
  743MOL0     C98000  -0.262   9.891   5.250  0.1095  0.3477  0.2235
  743MOL0     C98001  -0.280  10.010   5.323 -0.6411 -0.3050  0.6380
  743MOL0     O98002  -0.390  10.090   5.325 -0.6578 -0.4454  0.2223
  743MOL0     C98003  -0.516  10.035   5.293 -0.1850  0.3127  0.4814
  743MOL0     C98004  -0.617  10.074   5.405 -1.5005  1.3243  0.5759
  743MOL0     C98005  -0.629  10.226   5.415  0.4730 -0.3076  0.3396
  743MOL0     C98006  -0.747  10.279   5.512 -0.3767  0.3975  0.3651
  743MOL0     C98007  -0.869  10.286   5.446  0.1892 -0.4504  1.0230
  743MOL0     C98008  -0.975  10.273   5.389  0.0393  0.4886  0.0457
  743MOL0     C98009  -0.187  10.039   5.427  1.3026 -0.3708 -0.4327
  743MOL0     C98010  -0.070   9.967   5.444  1.1103 -0.1684  0.2072
  743MOL0     H98011   0.139   9.438   5.442 -0.7904  0.0977 -1.1901
  743MOL0     H98012   0.367   9.338   5.496  0.2335  0.0006  0.3101
  743MOL0     H98013   0.774   9.368   5.400 -0.6879  0.6730  3.1778
  743MOL0     H98014   0.735   9.514   5.315  2.8835 -1.2338  2.1870
  743MOL0     H98015   0.598   9.386   5.148 -0.8235  0.0812 -0.4535
  743MOL0     H98016   0.587   9.248   5.253  1.2768 -1.3433 -0.9862
  743MOL0     H98017   0.842   9.209   5.197 -2.2753 -2.2040  0.6343
  743MOL0     H98018   0.814   9.347   5.092  1.5951  0.4617  2.8373
  743MOL0     H98019   0.685   9.082   5.132  4.3066 -0.5024  0.3032
  743MOL0     H98020   0.596   9.196   5.019  0.2197 -2.3868 -1.3759
  743MOL0     H98021   0.843   9.048   4.970 -0.0727 -1.4399  0.6531
  743MOL0     H98022   0.816   9.200   4.879  2.4874 -0.8120  1.6525
  743MOL0     H98023   0.596   9.122   4.811  0.0568  1.7374  2.3992
  743MOL0     H98024   0.641   8.956   4.869 -1.3359  0.6537 -1.9098
  743MOL0     H98025   0.781   9.133   4.653 -0.2126 -0.3538 -2.1555
  743MOL0     H98026   0.844   8.984   4.718 -1.4751  0.1773  2.0022
  743MOL0     H98027   0.572   9.006   4.589 -1.4907 -2.3128 -1.4402
  743MOL0     H98028   0.660   8.858   4.603 -3.1448  1.0214  1.4777
  743MOL0     H98029   0.934   8.880   4.471 -0.1894 -0.9904 -0.6415
  743MOL0     H98030   1.073   8.942   4.244 -2.5877 -0.6891  2.5409
  743MOL0     H98031   1.027   9.107   4.175 -0.8781  0.5828 -0.2981
  743MOL0     H98032   0.880   8.981   4.013 -0.2935  1.2179  2.0052
  743MOL0     H98033   0.936   8.839   4.096 -1.3550  1.5992  3.0304
  743MOL0     H98034   1.039   9.049   3.918  0.9229  0.9904  0.8384
  743MOL0     H98035   1.174   8.965   4.008  0.2816 -0.9070  0.0765
  743MOL0     H98036   1.158   8.885   3.774 -0.9859  3.1099 -0.5824
  743MOL0     H98037   0.980   8.860   3.795 -1.5829  0.4208  1.6921
  743MOL0     H98038   1.168   8.476   3.992  2.0922  1.7073  1.2179
  743MOL0     H98039   1.271   8.309   3.858  1.9720 -0.6619 -2.8574
  743MOL0     H98040   1.259   8.089   3.464 -1.2878  0.7457  3.6907
  743MOL0     H98041   1.345   7.885   3.342  0.4665 -0.6516 -1.4794
  743MOL0     H98042   1.535   7.807   3.202  1.8523 -3.6353 -4.4852
  743MOL0     H98043   1.453   7.670   3.287 -0.4783  1.3575 -2.3827
  743MOL0     H98044   1.739   7.652   3.192  0.9535  1.3068  0.9960
  743MOL0     H98045   1.596   7.651   3.085 -1.6351  0.1903  0.1650
  743MOL0     H98046   1.506   7.453   3.235  0.3168 -1.7248 -0.0763
  743MOL0     H98047   1.661   7.462   3.330  0.1997 -0.3862  1.0440
  743MOL0     H98048   1.616   7.378   3.029  2.1239  0.8755 -0.3938
  743MOL0     H98049   1.770   7.399   3.106 -0.8080 -1.0228 -1.1036
  743MOL0     H98050   1.736   7.226   3.260  0.3001 -1.2605  0.6551
  743MOL0     H98051   1.736   7.171   3.095  2.5720  1.9835 -0.0437
  743MOL0     H98052   1.483   7.137   3.099  1.5151  0.4739 -1.6132
  743MOL0     H98053   1.485   7.231   3.253 -0.7555  0.4757 -0.5790
  743MOL0     H98054   1.486   6.960   3.240  0.7351  0.1622 -0.7283
  743MOL0     H98055   1.653   6.980   3.264  0.7212  0.6296 -1.2043
  743MOL0     H98056   1.421   7.057   3.458 -0.7669 -0.6380 -1.0387
  743MOL0     H98057   1.589   7.119   3.477 -1.1230  0.7613 -1.5271
  743MOL0     H98058   1.710   7.899   3.584 -0.2918  0.4530  2.0077
  743MOL0     H98059   1.609   8.078   3.718 -1.4905  2.2694  0.1797
  743MOL0     H98060   1.229   8.548   3.508 -1.2497  0.2019 -0.0538
  743MOL0     H98061   1.100   8.714   3.630  2.1062  1.5103  0.4917
  743MOL0     H98062   0.578   9.657   5.315 -0.3892  0.1489 -0.5524
  743MOL0     H98063   0.360   9.768   5.252  0.6210  0.2160 -0.6297
  743MOL0     H98064  -0.130   9.723   5.206 -2.5732 -0.9750  0.5986
  743MOL0     H98065  -0.340   9.857   5.182  0.8143 -3.1143  0.9797
  743MOL0     H98066  -0.527   9.927   5.284 -4.3540  0.6573 -1.4290
  743MOL0     H98067  -0.544  10.088   5.201  2.4886  1.1056  0.0602
  743MOL0     H98068  -0.710  10.033   5.365 -0.8002 -1.2559  1.3626
  743MOL0     H98069  -0.583  10.027   5.497  3.2057  2.2326 -0.4442
  743MOL0     H98070  -0.635  10.271   5.315  3.6700  1.4927  0.8004
  743MOL0     H98071  -0.535  10.263   5.457  0.2458 -0.9194  1.4152
  743MOL0     H98072  -0.756  10.215   5.600  2.0171 -0.4502  0.0829
  743MOL0     H98073  -0.722  10.382   5.541  1.9027  0.1178 -0.3882
  743MOL0     H98074  -1.064  10.244   5.337  0.6213 -3.7129  1.0310
  743MOL0     H98075  -0.197  10.121   5.496 -0.1657 -0.6039 -0.3305
  743MOL0     H98076   0.005  10.007   5.512  0.8104  1.9371 -0.6200
  744MOL0     O98077   0.881   6.381   5.886 -0.1368  0.0818 -0.4667
  744MOL0     C98078   0.788   6.425   5.828 -0.0472 -0.1592  0.0500
  744MOL0     O98079   0.674   6.470   5.893  0.3124  0.7390  0.0165
  744MOL0     C98080   0.661   6.461   6.031  0.2740 -0.3037 -0.8508
  744MOL0     C98081   0.592   6.566   6.092  0.8098 -1.0214  0.1396
  744MOL0     C98082   0.554   6.565   6.227  0.1999 -0.8558  0.7090
  744MOL0     C98083   0.586   6.455   6.306  0.3833  0.0685 -0.3850
  744MOL0     O98084   0.553   6.443   6.443  0.2487  0.8557  0.2242
  744MOL0     C98085   0.442   6.513   6.503 -0.6566  0.2490  0.6711
  744MOL0     C98086   0.460   6.505   6.648  0.1857  0.5519  1.3035
  744MOL0     C98087   0.323   6.505   6.710  0.2894  0.1318  0.4772
  744MOL0     C98088   0.326   6.445   6.853  0.0913  0.3688 -1.0685
  744MOL0     C98089   0.197   6.453   6.933  0.2741 -0.4835 -0.3858
  744MOL0     C98090   0.145   6.589   6.948  0.0795 -0.4260  0.3469
  744MOL0     C98091  -0.005   6.583   7.003 -0.8546  0.2523  0.0914
  744MOL0     C98092   0.000   6.528   7.149 -0.1136  0.6477  0.7156
  744MOL0     N98093  -0.132   6.510   7.211 -0.0361 -0.0846  0.2013
  744MOL0     C98094  -0.163   6.564   7.330  0.0369  0.1217  0.3972
  744MOL0     C98095  -0.294   6.535   7.344 -0.0819 -1.0985  1.0743
  744MOL0     C98096  -0.382   6.600   7.446  0.6093 -0.5853 -0.5506
  744MOL0     C98097  -0.411   6.508   7.574 -0.3187 -0.5708  0.7586
  744MOL0     C98098  -0.548   6.433   7.564 -0.0949 -0.1140 -0.3315
  744MOL0     C98099  -0.654   6.532   7.604  0.1336  0.9369  0.6820
  744MOL0     O98100  -0.780   6.493   7.556  0.1383 -0.0252  0.2867
  744MOL0     C98101  -0.856   6.430   7.652 -0.2905  0.5093  0.1222
  744MOL0     C98102  -0.900   6.490   7.768  1.0443 -0.6513 -0.1442
  744MOL0     C98103  -0.982   6.431   7.860 -0.4504  0.2386 -0.7041
  744MOL0     C98104  -1.043   6.314   7.824  0.5024 -0.0782  0.5820
  744MOL0     C98105  -1.155   6.254   7.903  0.0688  0.3154  0.1828
  744MOL0     O98106  -1.216   6.146   7.850  0.5527  0.1512  0.4004
  744MOL0     C98107  -1.314   6.078   7.926 -0.0494  0.1235  0.1771
  744MOL0     C98108  -1.447   6.052   7.894  0.1113 -0.0964 -0.4897
  744MOL0     C98109  -1.551   6.019   7.986 -0.9467 -0.2888  0.2960
  744MOL0     C98110  -1.515   6.001   8.120  0.2018  0.6922 -0.3687
  744MOL0     O98111  -1.616   5.962   8.202  0.0900 -0.4069  0.1514
  744MOL0     C98112  -1.577   5.939   8.335  0.0621  0.3360  0.1090
  744MOL0     C98113  -1.696   5.894   8.420  0.3218  0.8337  0.3795
  744MOL0     C98114  -1.657   5.897   8.563  0.4607  0.2009  0.0385
  744MOL0     C98115  -1.752   5.811   8.661 -0.4289 -0.2007  1.1158
  744MOL0     C98116  -1.708   5.826   8.808 -0.0963  0.2352 -0.1581
  744MOL0     C98117  -1.810   5.738   8.903 -1.0349 -0.8178 -0.1599
  744MOL0     C98118  -1.749   5.735   9.048 -0.4241  0.4689  0.4235
  744MOL0     C98119  -1.831   5.664   9.156  0.2829 -0.3983 -0.8256
  744MOL0    Cl98120  -1.822   5.489   9.149  0.0406  0.6136 -0.4181
  744MOL0     C98121  -1.377   6.008   8.156  0.1520 -0.0108  0.4173
  744MOL0     C98122  -1.278   6.042   8.059  0.5390 -0.5763  0.2988
  744MOL0     O98123  -1.187   6.299   8.011  0.2937  0.1567 -0.5203
  744MOL0     C98124  -0.996   6.238   7.713 -0.1268  0.1973 -0.4144
  744MOL0     C98125  -0.892   6.295   7.626  0.3635 -0.1084  0.0653
  744MOL0     N98126  -0.334   6.479   7.231  0.2201 -0.6698 -0.0448
  744MOL0     N98127  -0.238   6.462   7.145 -0.5237  0.6730 -0.0823
  744MOL0     C98128   0.654   6.345   6.249 -0.5038 -0.1320 -0.4486
  744MOL0     C98129   0.681   6.348   6.106 -0.1621 -0.3861 -0.4575
  744MOL0     C98130   0.816   6.453   5.684 -0.7626 -0.2887 -0.3735
  744MOL0     C98131   0.928   6.399   5.626 -0.3321 -0.0264 -0.4836
  744MOL0     C98132   0.975   6.448   5.504  0.6922 -0.3038 -0.3826
  744MOL0     C98133   0.896   6.543   5.433  0.2917 -0.7334 -0.0202
  744MOL0     O98134   0.938   6.595   5.318 -0.3541 -0.2439  0.1875
  744MOL0     C98135   0.997   6.507   5.218 -0.8512  1.0571 -0.4980
  744MOL0     C98136   0.910   6.378   5.187  0.2226 -0.0174  0.3490
  744MOL0     C98137   0.886   6.352   5.038 -0.2886  0.5133  0.7374
  744MOL0     C98138   1.015   6.300   4.963 -0.3513 -0.5192 -0.5685
  744MOL0     C98139   0.981   6.202   4.863  0.4611  0.0348  0.6971
  744MOL0     C98140   0.927   6.107   4.804 -0.8447 -0.1412  0.1220
  744MOL0     C98141   0.786   6.602   5.489  0.3771  0.5834 -0.4433
  744MOL0     C98142   0.739   6.550   5.610  0.4615  0.0709 -0.4733
  744MOL0     H98143   0.556   6.648   6.030 -0.7904 -2.7378 -1.3476
  744MOL0     H98144   0.505   6.655   6.262  2.7191  0.2813  1.5386
  744MOL0     H98145   0.349   6.476   6.460 -1.0428  1.4818  0.3855
  744MOL0     H98146   0.454   6.619   6.476  1.7604 -0.0385  0.3893
  744MOL0     H98147   0.502   6.601   6.679 -0.2122  1.3785 -0.5532
  744MOL0     H98148   0.530   6.430   6.687  2.3713  2.4750  1.2999
  744MOL0     H98149   0.243   6.450   6.660 -2.1453  0.0377  4.1360
  744MOL0     H98150   0.293   6.610   6.708  2.2137  0.7075 -1.1964
  744MOL0     H98151   0.358   6.341   6.848  2.7029  0.9042  1.8334
  744MOL0     H98152   0.396   6.506   6.910 -1.9006  0.3900  1.5276
  744MOL0     H98153   0.218   6.407   7.030 -0.6604  0.5747  0.3437
  744MOL0     H98154   0.119   6.397   6.880  2.2637 -0.1275 -4.0672
  744MOL0     H98155   0.137   6.649   6.857 -0.0415  2.6725  2.2349
  744MOL0     H98156   0.209   6.645   7.017  2.0088  0.6929 -2.1867
  744MOL0     H98157  -0.045   6.685   7.004 -0.9212  0.2345  1.6735
  744MOL0     H98158  -0.067   6.520   6.937 -0.8761  0.2516  0.1121
  744MOL0     H98159   0.061   6.600   7.205  0.9451 -1.1284  1.9495
  744MOL0     H98160   0.045   6.429   7.163 -0.3309  0.7270  2.2239
  744MOL0     H98161  -0.106   6.624   7.400  0.2083  1.1087 -0.5776
  744MOL0     H98162  -0.479   6.621   7.401 -0.5366 -1.8641  1.1661
  744MOL0     H98163  -0.328   6.689   7.480  1.0490 -1.1487  0.2823
  744MOL0     H98164  -0.417   6.571   7.663  0.1528 -0.4213  0.6865
  744MOL0     H98165  -0.330   6.434   7.581  2.8811  2.8375  3.1303
  744MOL0     H98166  -0.555   6.389   7.463  1.7525 -6.6033  1.8192
  744MOL0     H98167  -0.556   6.352   7.637  2.5939  0.9778  1.3302
  744MOL0     H98168  -0.629   6.625   7.553  1.6852 -0.9138 -2.2300
  744MOL0     H98169  -0.637   6.557   7.709  4.5815 -2.2621  1.0043
  744MOL0     H98170  -0.847   6.584   7.781  0.7066 -0.3339 -0.9688
  744MOL0     H98171  -1.022   6.499   7.934 -0.9700  0.9015 -1.5714
  744MOL0     H98172  -1.467   6.080   7.791 -1.5814 -1.1694 -0.4906
  744MOL0     H98173  -1.654   6.027   7.954 -1.1715  0.4253  1.1427
  744MOL0     H98174  -1.533   6.030   8.378 -1.1255 -0.3306  2.9597
  744MOL0     H98175  -1.499   5.862   8.342 -0.6936 -0.4273  0.2594
  744MOL0     H98176  -1.732   5.798   8.382  1.8543 -0.6836  2.5719
  744MOL0     H98177  -1.774   5.971   8.407  0.6525  1.1481  0.2511
  744MOL0     H98178  -1.647   6.002   8.594  5.0876  0.9793 -3.1895
  744MOL0     H98179  -1.559   5.849   8.572 -0.3799 -1.3369  1.6996
  744MOL0     H98180  -1.856   5.842   8.652 -0.4441 -0.6402 -0.3605
  744MOL0     H98181  -1.749   5.707   8.629 -0.2915  1.0690 -3.8353
  744MOL0     H98182  -1.705   5.932   8.832 -1.2454  0.3531 -0.4791
  744MOL0     H98183  -1.613   5.773   8.815  0.0387  0.0567 -2.4111
  744MOL0     H98184  -1.834   5.640   8.862  0.4474 -0.9582 -0.7550
  744MOL0     H98185  -1.900   5.801   8.902  0.2862  1.2509 -2.7214
  744MOL0     H98186  -1.642   5.712   9.041  0.1843  2.6318  1.5493
  744MOL0     H98187  -1.740   5.841   9.071 -0.4807  0.5389  0.1256
  744MOL0     H98188  -1.931   5.705   9.140  0.8529  1.7537  0.6502
  744MOL0     H98189  -1.793   5.690   9.255  0.3642 -3.6696  0.1061
  744MOL0     H98190  -1.341   5.993   8.258 -1.9991 -0.5376  1.1711
  744MOL0     H98191  -1.172   6.044   8.081  0.4580 -0.5436  0.6906
  744MOL0     H98192  -1.033   6.140   7.686 -2.9545 -0.1230  3.8036
  744MOL0     H98193  -0.845   6.253   7.538  0.3734 -0.3516  0.1853
  744MOL0     H98194   0.677   6.259   6.312 -0.4676  0.8730  0.9521
  744MOL0     H98195   0.735   6.262   6.067 -1.7513 -1.6569  0.0616
  744MOL0     H98196   0.982   6.323   5.682 -0.7776  0.3144  0.4378
  744MOL0     H98197   1.076   6.420   5.477  0.4957 -0.3480 -1.0931
  744MOL0     H98198   1.101   6.484   5.241  0.0199  2.4114 -2.7125
  744MOL0     H98199   1.010   6.562   5.124 -0.9934  1.7243 -0.1342
  744MOL0     H98200   0.936   6.293   5.250 -0.6832 -1.0693 -0.6373
  744MOL0     H98201   0.813   6.411   5.223 -0.6985 -1.4402 -0.7095
  744MOL0     H98202   0.844   6.438   4.984 -0.6028  0.0654  0.2600
  744MOL0     H98203   0.817   6.269   5.022  1.3387 -0.9404  1.0035
  744MOL0     H98204   1.076   6.381   4.920  1.6928 -1.5778  0.2209
  744MOL0     H98205   1.074   6.253   5.042  1.9686 -0.7428 -2.3147
  744MOL0     H98206   0.883   6.025   4.752 -1.6490  1.0056 -1.0657
  744MOL0     H98207   0.727   6.683   5.447  1.7386  1.5305 -0.5955
  744MOL0     H98208   0.648   6.586   5.655  0.2458 -1.3732  0.3318
  745MOL0     O98209   2.008   5.141  10.445 -0.0949 -0.0470 -0.1253
  745MOL0     C98210   2.029   5.104  10.332  0.1740 -0.2851 -0.2730
  745MOL0     O98211   1.943   5.044  10.248  0.3829  0.6182  0.0302
  745MOL0     C98212   1.820   5.023  10.291  0.4304 -0.9211 -0.7318
  745MOL0     C98213   1.717   5.117  10.291 -0.0033 -0.1521  0.4628
  745MOL0     C98214   1.586   5.086  10.328 -0.3443  0.6412 -0.4165
  745MOL0     C98215   1.569   4.965  10.393 -0.4339  0.3982  0.8694
  745MOL0     O98216   1.444   4.934  10.430  0.3733  0.1876  0.6768
  745MOL0     C98217   1.389   4.990  10.548 -0.6141 -1.2637  0.6961
  745MOL0     C98218   1.430   4.929  10.673 -0.5144 -0.4811  1.6887
  745MOL0     C98219   1.316   4.942  10.776  0.1151 -0.0413  0.3315
  745MOL0     C98220   1.333   4.846  10.896  0.3211  0.2010 -0.0594
  745MOL0     C98221   1.250   4.896  11.016 -0.8496  0.2832  0.1354
  745MOL0     C98222   1.243   4.785  11.120 -0.1508 -0.0996  0.5837
  745MOL0     C98223   1.139   4.819  11.234 -0.5658 -0.3128  0.0330
  745MOL0     C98224   1.003   4.745  11.232  0.3667 -1.0016 -0.2217
  745MOL0     N98225   0.901   4.810  11.303 -0.3686 -0.4654  0.1658
  745MOL0     C98226   0.864   4.781  11.430  0.4750 -0.0518  0.2363
  745MOL0     C98227   0.772   4.880  11.454  0.0886  0.1190  0.1209
  745MOL0     C98228   0.710   4.902  11.585 -0.0538  0.3483 -0.4479
  745MOL0     C98229   0.791   4.990  11.676  0.8460 -0.0986 -0.5216
  745MOL0     C98230   0.939   4.973  11.662 -0.0210  0.2438  0.3464
  745MOL0     C98231   1.004   5.086  11.731  0.5915  1.1157  0.0536
  745MOL0     O98232   0.947   5.105  11.863  0.3178 -0.9119 -0.5275
  745MOL0     C98233   0.962   5.231  11.926 -0.8409  0.2028  0.4980
  745MOL0     C98234   0.889   5.270  12.034  0.1436 -0.4590  0.2179
  745MOL0     C98235   0.906   5.384  12.100  0.3156 -0.0058 -0.2544
  745MOL0     C98236   1.008   5.476  12.070 -1.0058  0.8291  1.0008
  745MOL0     C98237   1.044   5.593  12.156 -1.3192 -0.7555 -0.4448
  745MOL0     O98238   0.945   5.674  12.180  0.0112 -0.2394 -0.4452
  745MOL0     C98239   0.950   5.796  12.246 -1.1475  0.1496 -0.0344
  745MOL0     C98240   1.056   5.837  12.340 -1.7703 -0.3678  0.8621
  745MOL0     C98241   1.045   5.951  12.422  0.2878  0.2242  0.1128
  745MOL0     C98242   0.926   6.030  12.410 -0.6948 -0.4216  0.9321
  745MOL0     O98243   0.906   6.160  12.457 -1.2081 -0.5786  0.0540
  745MOL0     C98244   0.929   6.178  12.594 -0.6343 -0.9109  0.2122
  745MOL0     C98245   0.812   6.170  12.683  0.0187  0.1605  0.6573
  745MOL0     C98246   0.708   6.263  12.626  0.6267 -0.5073  0.8591
  745MOL0     C98247   0.591   6.266  12.726  1.0552  0.3241 -0.3574
  745MOL0     C98248   0.596   6.381  12.831 -0.7262  0.2270  0.6382
  745MOL0     C98249   0.459   6.450  12.859  0.1372  0.6904  0.6676
  745MOL0     C98250   0.368   6.495  12.747 -0.0187  0.5964  0.2494
  745MOL0     C98251   0.434   6.560  12.614  0.9264  0.0809 -0.5747
  745MOL0    Cl98252   0.481   6.725  12.643 -0.9286 -0.0676  0.4502
  745MOL0     C98253   0.834   5.993  12.315 -0.1360 -0.4177 -0.2726
  745MOL0     C98254   0.836   5.882  12.227  0.2097  0.3549 -0.6169
  745MOL0     O98255   1.160   5.630  12.170 -0.8072 -0.0926 -0.5270
  745MOL0     C98256   1.092   5.435  11.963  0.5372 -0.3063  1.0380
  745MOL0     C98257   1.062   5.318  11.882  0.7303 -0.8068 -0.3958
  745MOL0     N98258   0.770   4.974  11.351 -0.4139 -0.3569  0.1072
  745MOL0     N98259   0.842   4.922  11.253  0.5197  0.5268  1.1778
  745MOL0     C98260   1.672   4.876  10.416 -0.7036 -0.7544  0.4484
  745MOL0     C98261   1.799   4.908  10.363 -0.1660 -0.5320  0.3798
  745MOL0     C98262   2.167   5.122  10.288 -0.0930  0.8855  0.3691
  745MOL0     C98263   2.203   5.080  10.166  1.3986  0.2828  0.4122
  745MOL0     C98264   2.339   5.087  10.123  0.0968 -0.1556 -0.8968
  745MOL0     C98265   2.437   5.135  10.208  0.1761 -0.5729 -1.4550
  745MOL0     O98266   2.572   5.126  10.181 -0.0031  0.2474 -0.1826
  745MOL0     C98267   2.612   5.079  10.046  1.3326 -0.7096 -0.0285
  745MOL0     C98268   2.761   5.072  10.044 -0.7886  0.2281  0.0405
  745MOL0     C98269   2.821   5.023   9.916 -0.5058  0.1584  0.0837
  745MOL0     C98270   2.971   5.069   9.892  1.0524 -0.0074  0.1540
  745MOL0     C98271   3.065   4.988   9.970 -0.8684  0.1197  1.1383
  745MOL0     C98272   3.113   4.903  10.044  0.1592  0.2739  0.5688
  745MOL0     C98273   2.401   5.177  10.334  0.6515  0.3511  0.4871
  745MOL0     C98274   2.268   5.182  10.376  0.2928 -1.0208  0.4323
  745MOL0     H98275   1.755   5.209  10.247  0.8614  0.4404  2.3198
  745MOL0     H98276   1.509   5.159  10.305  0.3391  1.6961  0.5988
  745MOL0     H98277   1.286   4.960  10.526 -1.1652 -1.4464  3.2275
  745MOL0     H98278   1.388   5.099  10.552 -1.2982 -1.2849  1.3280
  745MOL0     H98279   1.522   4.976  10.708  0.1442  0.8723 -1.5216
  745MOL0     H98280   1.446   4.820  10.668 -0.1869 -0.3866 -1.8570
  745MOL0     H98281   1.226   4.917  10.718  1.7370 -2.7914 -1.2085
  745MOL0     H98282   1.301   5.043  10.815 -1.0507  0.2479 -0.7933
  745MOL0     H98283   1.320   4.743  10.861  3.2828 -0.9110  1.7227
  745MOL0     H98284   1.437   4.858  10.930 -0.5651 -0.5303  3.2531
  745MOL0     H98285   1.148   4.915  10.982 -2.2542 -0.3358  3.6468
  745MOL0     H98286   1.303   4.987  11.047  5.7609 -2.0845 -2.3943
  745MOL0     H98287   1.342   4.785  11.166 -0.1140 -3.1809  0.6867
  745MOL0     H98288   1.219   4.688  11.076  0.8283  1.5552 -4.2389
  745MOL0     H98289   1.189   4.802  11.330  2.4436  0.8533 -1.2171
  745MOL0     H98290   1.124   4.927  11.232  0.9036 -0.0733  0.5687
  745MOL0     H98291   1.011   4.640  11.262  0.4356 -0.3407  2.2324
  745MOL0     H98292   0.991   4.760  11.124 -0.1942  2.2998  0.2094
  745MOL0     H98293   0.895   4.694  11.487 -5.0387 -1.6459  1.3513
  745MOL0     H98294   0.692   4.800  11.622 -3.3540  0.8641 -0.3687
  745MOL0     H98295   0.615   4.952  11.564  0.2553 -0.1801 -3.4605
  745MOL0     H98296   0.751   4.978  11.777 -0.7586  1.1921 -0.9478
  745MOL0     H98297   0.762   5.089  11.638 -0.8793 -0.2145  0.3819
  745MOL0     H98298   0.959   4.874  11.705  2.6505 -1.3920 -3.9272
  745MOL0     H98299   0.985   4.958  11.564 -0.5904 -2.9108  0.4533
  745MOL0     H98300   0.989   5.174  11.667  1.9916  0.4691 -1.2465
  745MOL0     H98301   1.112   5.074  11.744  0.8248  1.1954 -1.5350
  745MOL0     H98302   0.813   5.199  12.065  0.0377 -0.1729  0.6211
  745MOL0     H98303   0.855   5.422  12.187  3.1830  1.7401  0.8085
  745MOL0     H98304   1.149   5.780  12.346 -0.6820  0.6692 -2.9116
  745MOL0     H98305   1.120   5.976  12.497  0.3189  1.1571 -0.2158
  745MOL0     H98306   0.974   6.277  12.604  0.9316 -1.7565  1.9151
  745MOL0     H98307   1.003   6.109  12.633 -0.6635 -0.6862  0.6672
  745MOL0     H98308   0.841   6.204  12.783 -1.2494  2.5210  0.3138
  745MOL0     H98309   0.775   6.068  12.669  0.2778  0.0176  1.0203
  745MOL0     H98310   0.681   6.221  12.529 -2.9349  1.3794  0.8675
  745MOL0     H98311   0.752   6.361  12.605  0.9495 -1.0623 -1.2370
  745MOL0     H98312   0.493   6.267  12.677  0.9528  2.3449 -0.2138
  745MOL0     H98313   0.592   6.171  12.780  0.2302  0.4414 -0.1105
  745MOL0     H98314   0.657   6.453  12.776 -1.8264 -1.3787 -2.9868
  745MOL0     H98315   0.656   6.358  12.919  1.4549 -0.8190 -1.0384
  745MOL0     H98316   0.475   6.538  12.922 -1.2836  1.1606  0.3996
  745MOL0     H98317   0.404   6.376  12.917 -3.7194  2.9613  0.2447
  745MOL0     H98318   0.309   6.410  12.712 -2.1838  2.6357 -1.3449
  745MOL0     H98319   0.280   6.550  12.779  0.4669  1.0779  0.7812
  745MOL0     H98320   0.364   6.568  12.531  2.6728  1.1513 -2.0226
  745MOL0     H98321   0.517   6.511  12.562  1.0685  1.7949 -2.0620
  745MOL0     H98322   0.749   6.058  12.300  0.0953  0.3204  1.4453
  745MOL0     H98323   0.746   5.850  12.175  0.8237 -0.4962 -1.1762
  745MOL0     H98324   1.171   5.502  11.932 -0.7236  0.9171  0.3314
  745MOL0     H98325   1.131   5.284  11.805  2.7987 -2.8263  2.1932
  745MOL0     H98326   1.661   4.780  10.465  0.4309 -0.6254  0.9883
  745MOL0     H98327   1.873   4.829  10.357 -0.9567 -1.1784 -1.4678
  745MOL0     H98328   2.129   5.028  10.105  0.7503 -1.7628  2.7761
  745MOL0     H98329   2.367   5.040  10.029  1.1806 -0.0638 -0.6345
  745MOL0     H98330   2.583   5.149   9.968 -2.1776 -1.1961  0.6830
  745MOL0     H98331   2.580   4.976  10.026  0.9380 -0.2701 -1.8083
  745MOL0     H98332   2.804   5.162  10.087  2.3071 -1.4076  0.6572
  745MOL0     H98333   2.783   4.995  10.119 -2.6749 -0.0806  0.3442
  745MOL0     H98334   2.768   5.063   9.829 -0.8975  0.6002  0.5207
  745MOL0     H98335   2.808   4.914   9.925 -2.4753  0.2949 -0.6421
  745MOL0     H98336   2.996   5.059   9.786 -1.8768  0.3616 -0.6637
  745MOL0     H98337   2.988   5.177   9.905  1.1811  0.1676 -1.3092
  745MOL0     H98338   3.157   4.826  10.103  0.6486 -1.0261 -1.3827
  745MOL0     H98339   2.477   5.214  10.401  2.7170  1.7051 -2.3820
  745MOL0     H98340   2.250   5.213  10.479 -0.8094  0.0712 -0.0654
  746MOL0     O98341  10.683   3.763   1.352  0.2561 -0.2084 -0.4649
  746MOL0     C98342  10.606   3.861   1.363  1.1642 -0.0533 -0.0299
  746MOL0     O98343  10.607   3.962   1.454 -0.8379 -0.6241 -0.6755
  746MOL0     C98344  10.688   3.957   1.564 -0.6881 -0.1015 -0.1256
  746MOL0     C98345  10.742   3.843   1.629 -0.0493 -0.0184  0.7391
  746MOL0     C98346  10.846   3.857   1.724  0.8697  0.8264  0.8082
  746MOL0     C98347  10.891   3.984   1.771  0.4562 -0.9069 -0.5881
  746MOL0     O98348  10.996   4.019   1.849 -0.4743  0.6917  0.4096
  746MOL0     C98349  11.100   3.926   1.851 -0.6258  0.4793  0.1911
  746MOL0     C98350  11.212   4.012   1.790 -0.2350  0.2574 -0.2344
  746MOL0     C98351  11.301   4.104   1.873 -0.0202  0.6402 -0.5724
  746MOL0     C98352  11.401   4.177   1.779 -0.8707 -0.0627 -0.0362
  746MOL0     C98353  11.524   4.225   1.865  0.5456 -0.3569 -1.0725
  746MOL0     C98354  11.486   4.357   1.951  0.0833  1.1012  0.6568
  746MOL0     C98355  11.484   4.472   1.847  0.4892 -0.0555  0.4070
  746MOL0     C98356  11.489   4.602   1.925 -0.7098  0.1319  0.9907
  746MOL0     N98357  11.531   4.712   1.850  1.0152 -0.3259 -0.1322
  746MOL0     C98358  11.657   4.765   1.852 -0.2889 -0.0491  0.8097
  746MOL0     C98359  11.656   4.840   1.733  1.0148  0.1689  0.2341
  746MOL0     C98360  11.759   4.931   1.678 -0.0286  0.0369  1.1455
  746MOL0     C98361  11.872   4.851   1.627  0.5131 -1.2250 -0.0213
  746MOL0     C98362  11.984   4.934   1.565 -0.3364 -0.3198 -0.1607
  746MOL0     C98363  12.086   4.855   1.483 -0.0853 -0.2811  0.3619
  746MOL0     O98364  12.209   4.821   1.557 -0.6226 -0.1606 -0.2469
  746MOL0     C98365  12.317   4.774   1.478  1.0479 -0.1207  0.0991
  746MOL0     C98366  12.436   4.749   1.551  0.6672 -0.7196  0.1519
  746MOL0     C98367  12.553   4.714   1.490  0.7782  0.1441 -0.3306
  746MOL0     C98368  12.548   4.671   1.353  1.0566 -0.3997  0.1810
  746MOL0     C98369  12.656   4.601   1.282  0.6128  0.9012 -0.1052
  746MOL0     O98370  12.623   4.543   1.150  0.0654 -0.4259 -0.0859
  746MOL0     C98371  12.726   4.476   1.086 -0.3204 -0.0837  0.7346
  746MOL0     C98372  12.776   4.357   1.115 -0.1378 -0.5263  0.4194
  746MOL0     C98373  12.871   4.298   1.030 -0.1200  0.1607  0.5154
  746MOL0     C98374  12.925   4.372   0.920 -0.9706  0.2647  0.2949
  746MOL0     O98375  13.022   4.309   0.853  0.1290 -0.4453 -0.1885
  746MOL0     C98376  13.149   4.359   0.874 -1.2461  1.1453 -0.3609
  746MOL0     C98377  13.198   4.351   1.021 -1.1846  0.0908  0.9034
  746MOL0     C98378  13.351   4.376   1.013 -0.3793 -0.2884  0.9072
  746MOL0     C98379  13.409   4.364   1.154 -0.3088  0.1302 -0.4879
  746MOL0     C98380  13.550   4.303   1.166 -0.2012  0.3278  0.5431
  746MOL0     C98381  13.595   4.245   1.295 -0.0999 -0.1976 -1.2162
  746MOL0     C98382  13.575   4.341   1.414  0.0939  1.0982  0.0560
  746MOL0     C98383  13.681   4.311   1.515 -0.7271 -0.0426  0.0671
  746MOL0    Cl98384  13.615   4.354   1.679 -0.2731 -0.1344 -0.4177
  746MOL0     C98385  12.880   4.501   0.894  1.0527  0.5104 -0.2198
  746MOL0     C98386  12.781   4.552   0.984  0.5833  0.5359  0.0321
  746MOL0     O98387  12.763   4.625   1.312  0.0944  0.4476 -0.6656
  746MOL0     C98388  12.421   4.691   1.285  0.6877  0.1616  0.3457
  746MOL0     C98389  12.307   4.735   1.349  0.6900 -0.2058 -0.1999
  746MOL0     N98390  11.529   4.830   1.673 -0.6723 -0.2514  0.7052
  746MOL0     N98391  11.457   4.757   1.751  0.1670  0.1109 -0.7058
  746MOL0     C98392  10.833   4.093   1.705 -0.0934 -0.7069 -0.1121
  746MOL0     C98393  10.731   4.073   1.607  0.1341 -1.2395 -0.1237
  746MOL0     C98394  10.487   3.863   1.273  0.1579 -0.5754  1.4653
  746MOL0     C98395  10.405   3.753   1.246 -0.7180 -0.5670  0.4204
  746MOL0     C98396  10.297   3.764   1.160  0.2249 -0.3657  0.6382
  746MOL0     C98397  10.260   3.887   1.096  0.2445 -0.1596 -0.4498
  746MOL0     O98398  10.169   3.902   0.995 -0.4271  0.0134  0.4505
  746MOL0     C98399  10.092   3.792   0.945  0.1317  0.3390  0.0449
  746MOL0     C98400   9.990   3.850   0.849 -0.0667  1.0006 -1.5690
  746MOL0     C98401   9.887   3.939   0.917 -0.3743 -0.5853  0.0012
  746MOL0     C98402   9.779   3.960   0.812  0.0046  0.1157  0.0057
  746MOL0     C98403   9.660   4.029   0.860  0.6040 -0.2270  0.3301
  746MOL0     C98404   9.566   4.097   0.906 -0.3724 -0.4159 -0.2863
  746MOL0     C98405  10.347   3.989   1.122  0.0628 -0.7368  0.2692
  746MOL0     C98406  10.445   3.983   1.217 -0.0238 -0.2673 -0.4974
  746MOL0     H98407  10.720   3.742   1.595  1.2124  0.3199 -1.2983
  746MOL0     H98408  10.887   3.766   1.767  1.4408  0.4449 -0.4880
  746MOL0     H98409  11.086   3.839   1.786 -1.0817 -0.0964  1.0313
  746MOL0     H98410  11.123   3.893   1.953  0.9871  2.1248  0.4128
  746MOL0     H98411  11.166   4.072   1.711  2.3248  1.5204 -0.8873
  746MOL0     H98412  11.278   3.946   1.732  2.2277  2.6580 -0.3236
  746MOL0     H98413  11.353   4.051   1.953  0.6248  2.4885  0.3032
  746MOL0     H98414  11.249   4.184   1.928  2.1795 -0.2992  3.2585
  746MOL0     H98415  11.436   4.110   1.700 -0.4264 -1.0240  0.9468
  746MOL0     H98416  11.346   4.258   1.730 -0.5562 -1.8885 -3.8358
  746MOL0     H98417  11.611   4.253   1.805 -0.3830  2.3560 -1.3242
  746MOL0     H98418  11.564   4.147   1.930 -1.3429 -0.3040  0.2518
  746MOL0     H98419  11.564   4.370   2.027  2.5462  1.1924 -1.7391
  746MOL0     H98420  11.391   4.360   2.005 -0.2873  1.6873 -0.0223
  746MOL0     H98421  11.582   4.466   1.798  1.1451 -1.5095  1.7990
  746MOL0     H98422  11.399   4.457   1.780 -0.6413 -4.5612  2.4699
  746MOL0     H98423  11.575   4.601   1.993 -0.7193 -1.4686  1.0061
  746MOL0     H98424  11.393   4.620   1.974 -1.3239 -2.9467  1.0686
  746MOL0     H98425  11.741   4.756   1.919  1.8841 -1.2565 -1.8607
  746MOL0     H98426  11.790   5.009   1.749 -0.2174  1.9684 -0.7950
  746MOL0     H98427  11.711   4.971   1.588  0.3297  2.1057  1.8271
  746MOL0     H98428  11.828   4.782   1.555 -2.5168 -0.3227  0.8305
  746MOL0     H98429  11.912   4.788   1.707  1.8446  0.3465  0.6158
  746MOL0     H98430  11.947   5.015   1.501 -1.3476 -0.6165  0.0302
  746MOL0     H98431  12.035   4.985   1.647  1.2453  0.5431 -1.6040
  746MOL0     H98432  12.116   4.924   1.404  0.1399 -0.5440  0.2135
  746MOL0     H98433  12.054   4.756   1.448  0.2210 -1.5509  3.3413
  746MOL0     H98434  12.447   4.760   1.659 -1.7387 -1.4871  0.5273
  746MOL0     H98435  12.642   4.691   1.548 -0.1853  0.8309  1.4874
  746MOL0     H98436  12.732   4.298   1.195 -1.1230 -0.0405  0.2582
  746MOL0     H98437  12.899   4.194   1.047 -1.4195  0.0369  2.1098
  746MOL0     H98438  13.172   4.455   0.828 -0.8226  1.4765  0.5371
  746MOL0     H98439  13.210   4.287   0.818 -2.3237 -0.2735  0.2039
  746MOL0     H98440  13.164   4.260   1.071 -1.0050 -1.1363 -1.0952
  746MOL0     H98441  13.158   4.414   1.101  0.4790 -2.4227  3.9708
  746MOL0     H98442  13.376   4.473   0.969  3.5469 -1.0936  0.9752
  746MOL0     H98443  13.388   4.293   0.952 -1.9392 -1.4413  1.4557
  746MOL0     H98444  13.423   4.465   1.192 -1.6929 -0.2825  1.2185
  746MOL0     H98445  13.339   4.308   1.216 -0.1366  1.5680  1.0517
  746MOL0     H98446  13.620   4.386   1.152 -0.6899  0.6654  0.0234
  746MOL0     H98447  13.566   4.229   1.087  0.4861  3.5374 -2.5873
  746MOL0     H98448  13.704   4.243   1.297 -0.0933 -0.6746  0.9145
  746MOL0     H98449  13.549   4.148   1.313 -1.6028 -0.1328 -4.2087
  746MOL0     H98450  13.589   4.447   1.392 -1.8483  1.1453 -1.2151
  746MOL0     H98451  13.479   4.319   1.463  0.3925 -0.2633  0.0667
  746MOL0     H98452  13.766   4.377   1.496 -1.4348  0.2858 -2.3520
  746MOL0     H98453  13.713   4.207   1.522 -2.8206 -0.7794 -0.4226
  746MOL0     H98454  12.928   4.552   0.811  0.1619  1.4124 -0.1952
  746MOL0     H98455  12.735   4.649   0.972 -1.0123 -0.1876 -0.0240
  746MOL0     H98456  12.413   4.669   1.179  1.5225  3.1814 -0.4579
  746MOL0     H98457  12.222   4.758   1.286  0.9214  2.2537  0.2885
  746MOL0     H98458  10.865   4.192   1.736 -1.0859 -0.9516  1.8557
  746MOL0     H98459  10.705   4.168   1.561  0.3858 -1.2978 -0.3892
  746MOL0     H98460  10.432   3.651   1.271 -0.2074 -0.4557  0.3344
  746MOL0     H98461  10.249   3.670   1.137 -1.4487  1.0294 -2.0575
  746MOL0     H98462  10.032   3.728   1.011 -0.6224  0.1998 -0.7589
  746MOL0     H98463  10.157   3.721   0.894 -1.9488 -1.7842  0.1823
  746MOL0     H98464  10.052   3.906   0.778  3.2709  0.7551  0.9134
  746MOL0     H98465   9.955   3.764   0.792  2.7179  0.3158 -2.3925
  746MOL0     H98466   9.928   4.036   0.949 -3.7118  0.1586  2.4939
  746MOL0     H98467   9.854   3.909   1.016  0.2921 -0.8994  0.1385
  746MOL0     H98468   9.821   4.003   0.721  0.4618 -2.2298 -0.9808
  746MOL0     H98469   9.748   3.866   0.766  1.1138 -0.7381  0.9318
  746MOL0     H98470   9.484   4.156   0.941  0.4174  0.3603  0.3057
  746MOL0     H98471  10.331   4.087   1.079  0.6197  1.0898  3.8616
  746MOL0     H98472  10.495   4.076   1.244 -0.1021 -0.2785 -0.3171
  747MOL0     O98473   8.106   8.714   4.781  0.6766  1.0297 -0.2806
  747MOL0     C98474   8.217   8.755   4.784  0.0938 -0.5878 -0.4746
  747MOL0     O98475   8.252   8.888   4.818  0.7251  0.1878 -0.1332
  747MOL0     C98476   8.152   8.977   4.857 -0.7183  0.0514  0.0606
  747MOL0     C98477   8.181   9.063   4.967 -0.9612  0.2218  0.2127
  747MOL0     C98478   8.081   9.148   5.019 -0.2858 -1.0434  0.4050
  747MOL0     C98479   7.959   9.155   4.959  0.0221  0.2426  0.0128
  747MOL0     O98480   7.859   9.220   5.020  0.1645 -0.1836 -1.0415
  747MOL0     C98481   7.732   9.157   5.007  0.0221  0.7217  0.3301
  747MOL0     C98482   7.634   9.260   4.956 -0.3106 -0.9584  0.1074
  747MOL0     C98483   7.653   9.411   4.991 -0.0977 -0.7447 -1.6633
  747MOL0     C98484   7.649   9.428   5.149  0.5811 -0.3777  0.7643
  747MOL0     C98485   7.683   9.562   5.194  0.1731 -0.3217 -0.6645
  747MOL0     C98486   7.593   9.678   5.147  0.0072  0.2131  0.1764
  747MOL0     C98487   7.447   9.660   5.201 -1.0343  0.4213  0.7779
  747MOL0     C98488   7.425   9.649   5.357  0.0489  0.8103  0.5497
  747MOL0     N98489   7.476   9.773   5.407 -0.1612 -0.2924 -0.6340
  747MOL0     C98490   7.417   9.898   5.398  0.2746  0.6252  0.0403
  747MOL0     C98491   7.494   9.981   5.473  0.1528  0.8091  0.0745
  747MOL0     C98492   7.470  10.129   5.478  0.7478 -0.2121  0.7017
  747MOL0     C98493   7.399  10.166   5.607  1.1050  0.0971 -0.8476
  747MOL0     C98494   7.383  10.321   5.627  0.6642  0.8187 -0.8313
  747MOL0     C98495   7.347  10.356   5.768  1.5212  0.8201  0.6294
  747MOL0     O98496   7.321  10.498   5.768 -0.0976  0.2509 -0.2096
  747MOL0     C98497   7.190  10.544   5.731 -0.0271 -0.4618  0.1184
  747MOL0     C98498   7.074  10.463   5.733  0.0326  0.3577 -0.2818
  747MOL0     C98499   6.956  10.524   5.681  0.0176  1.0053  0.3160
  747MOL0     C98500   6.958  10.654   5.629  0.2013  1.0108 -0.6517
  747MOL0     C98501   6.825  10.719   5.588 -0.2310 -0.0905 -0.1655
  747MOL0     O98502   6.698  10.657   5.605 -0.3709 -0.5837  0.0272
  747MOL0     C98503   6.585  10.709   5.554  0.4494 -0.5061  1.2222
  747MOL0     C98504   6.523  10.639   5.452 -0.0084 -0.0235  0.4981
  747MOL0     C98505   6.409  10.689   5.394  0.2905 -0.9581 -0.0358
  747MOL0     C98506   6.368  10.823   5.425  1.1606  1.2169 -1.0199
  747MOL0     O98507   6.276  10.891   5.361  0.5983  0.4689 -0.2004
  747MOL0     C98508   6.334  10.971   5.260 -0.1809 -0.3013  0.2190
  747MOL0     C98509   6.261  11.102   5.258 -0.5578 -0.5742  0.0775
  747MOL0     C98510   6.271  11.196   5.138 -0.5928  0.5576  0.1849
  747MOL0     C98511   6.195  11.327   5.167  0.2929  0.1201 -0.2862
  747MOL0     C98512   6.211  11.429   5.051  0.2420 -1.0103  0.2925
  747MOL0     C98513   6.193  11.562   5.100 -0.3934  0.5340  0.7221
  747MOL0     C98514   6.179  11.665   4.992 -0.2812 -0.0314 -0.0845
  747MOL0     C98515   6.304  11.696   4.921  0.0968  0.2605 -0.2111
  747MOL0    Cl98516   6.293  11.824   4.798 -0.0458 -0.4804  0.3848
  747MOL0     C98517   6.425  10.888   5.533  0.2762  0.1062 -0.9245
  747MOL0     C98518   6.529  10.831   5.594  0.2382 -0.0526  0.4227
  747MOL0     O98519   6.838  10.835   5.556  0.5370 -0.0732  0.4418
  747MOL0     C98520   7.073  10.732   5.620 -0.6047 -0.1850 -0.0886
  747MOL0     C98521   7.185  10.673   5.674 -0.3603 -0.9654  1.0586
  747MOL0     N98522   7.592   9.912   5.526 -0.5925 -0.2130 -0.9385
  747MOL0     N98523   7.590   9.797   5.478 -0.0101 -0.2605 -1.0918
  747MOL0     C98524   7.947   9.099   4.840 -0.3359  0.6562  0.4833
  747MOL0     C98525   8.032   8.999   4.792 -0.1749 -0.5771 -0.1193
  747MOL0     C98526   8.337   8.667   4.771 -0.0569  1.2893  0.0719
  747MOL0     C98527   8.321   8.542   4.719  0.5404 -0.7272  0.7478
  747MOL0     C98528   8.429   8.462   4.685  0.1582  0.4845 -0.6798
  747MOL0     C98529   8.559   8.497   4.725  0.0478 -0.1946 -0.6188
  747MOL0     O98530   8.666   8.419   4.698  0.0362  0.0776  0.6394
  747MOL0     C98531   8.659   8.288   4.761  0.0105  0.5597  0.3171
  747MOL0     C98532   8.782   8.256   4.842  1.1321 -0.3489 -0.9350
  747MOL0     C98533   8.836   8.369   4.936  0.3887 -0.6451  0.1215
  747MOL0     C98534   8.962   8.342   5.025  0.1113 -0.1080 -0.0230
  747MOL0     C98535   8.937   8.259   5.143  0.4013 -0.5270  0.4913
  747MOL0     C98536   8.910   8.193   5.240 -0.3692 -0.1829  0.0085
  747MOL0     C98537   8.573   8.616   4.801 -0.3709  0.1924  0.3782
  747MOL0     C98538   8.463   8.699   4.824  0.1141  0.4495 -1.5479
  747MOL0     H98539   8.272   9.053   5.026  0.2581 -0.6585 -1.7194
  747MOL0     H98540   8.109   9.220   5.096 -1.0290  1.5055 -1.5390
  747MOL0     H98541   7.693   9.104   5.093  0.1127  2.1922  1.3118
  747MOL0     H98542   7.736   9.074   4.936  0.8783  0.6949  0.3916
  747MOL0     H98543   7.533   9.228   4.985 -0.9534  1.0093  0.1832
  747MOL0     H98544   7.635   9.264   4.847 -1.5500  1.6366  0.1298
  747MOL0     H98545   7.581   9.478   4.942 -0.0969 -1.1895 -2.2792
  747MOL0     H98546   7.754   9.439   4.959  0.3400 -0.0619  0.2088
  747MOL0     H98547   7.549   9.398   5.184  1.0996 -0.5099  2.2190
  747MOL0     H98548   7.714   9.354   5.197  1.9704 -0.6819 -1.4752
  747MOL0     H98549   7.783   9.584   5.156  0.0060  1.5074 -0.1680
  747MOL0     H98550   7.681   9.557   5.303 -0.0426  0.5959 -0.6163
  747MOL0     H98551   7.594   9.692   5.039 -1.8838  0.0527  0.1073
  747MOL0     H98552   7.617   9.772   5.197 -2.8869  0.5778  1.0611
  747MOL0     H98553   7.405   9.755   5.167  2.5488  1.5478 -1.0274
  747MOL0     H98554   7.390   9.587   5.142  1.4041  0.3879 -1.7990
  747MOL0     H98555   7.462   9.553   5.396  1.9755  0.6241 -1.4983
  747MOL0     H98556   7.320   9.637   5.383  0.4240  1.4068  2.4756
  747MOL0     H98557   7.340   9.937   5.332 -0.5987 -0.4029  0.4084
  747MOL0     H98558   7.429  10.171   5.386  3.9805 -1.0916 -1.2794
  747MOL0     H98559   7.569  10.175   5.488  1.1288 -1.3653  2.9065
  747MOL0     H98560   7.468  10.124   5.681  0.9034  0.4164 -0.4801
  747MOL0     H98561   7.307  10.108   5.612  2.3863 -2.0025  3.1519
  747MOL0     H98562   7.474  10.377   5.603  0.4112  1.4049 -0.4553
  747MOL0     H98563   7.305  10.354   5.559  1.6015 -0.4462 -2.5963
  747MOL0     H98564   7.443  10.345   5.821  2.3666 -1.8382 -1.2450
  747MOL0     H98565   7.269  10.296   5.816 -0.7796  2.4357 -0.8884
  747MOL0     H98566   7.079  10.359   5.762  1.4363  0.8331  1.3309
  747MOL0     H98567   6.868  10.466   5.707  1.0174  0.1316  2.0178
  747MOL0     H98568   6.577  10.548   5.426  2.4269  1.6277 -0.6097
  747MOL0     H98569   6.354  10.629   5.323 -2.1977 -0.8722  1.7004
  747MOL0     H98570   6.337  10.919   5.164  2.6410 -0.1241  0.1424
  747MOL0     H98571   6.442  10.987   5.268  0.3413 -1.1958 -3.2018
  747MOL0     H98572   6.297  11.169   5.338  1.0823  0.2843 -1.3024
  747MOL0     H98573   6.157  11.075   5.279  0.3253 -4.2108  0.5337
  747MOL0     H98574   6.222  11.148   5.052 -3.7509  1.2834  1.4355
  747MOL0     H98575   6.374  11.228   5.118 -1.0379  1.9892  0.0906
  747MOL0     H98576   6.098  11.299   5.208  2.2715  0.0447  5.3116
  747MOL0     H98577   6.245  11.374   5.253  0.7752 -0.8403 -0.0282
  747MOL0     H98578   6.128  11.414   4.981 -1.2972  1.7200  1.3607
  747MOL0     H98579   6.311  11.415   5.011 -0.2410  1.3617 -2.0789
  747MOL0     H98580   6.274  11.583   5.170 -1.6058  3.6082  1.3664
  747MOL0     H98581   6.097  11.554   5.152 -1.0801  0.5227 -0.5000
  747MOL0     H98582   6.098  11.637   4.924 -1.7763  0.6166  1.3491
  747MOL0     H98583   6.152  11.764   5.031 -1.5543 -0.1428 -0.6339
  747MOL0     H98584   6.339  11.607   4.868 -2.6420 -0.9369 -0.1976
  747MOL0     H98585   6.376  11.725   4.998  0.8253  0.3904 -0.9316
  747MOL0     H98586   6.402  10.991   5.559  2.3594  0.5467 -0.5947
  747MOL0     H98587   6.580  10.887   5.672  1.4217  1.1186 -1.1235
  747MOL0     H98588   7.072  10.832   5.576 -3.4061  1.5142  3.2955
  747MOL0     H98589   7.281  10.724   5.679  0.8273 -3.0257  0.2962
  747MOL0     H98590   7.863   9.115   4.773  0.1858 -1.6962 -0.8559
  747MOL0     H98591   8.008   8.960   4.694  2.7394  1.2140 -1.6800
  747MOL0     H98592   8.220   8.511   4.693  0.5043 -1.3477  1.5878
  747MOL0     H98593   8.429   8.368   4.630 -1.7723 -0.1095  0.2537
  747MOL0     H98594   8.642   8.216   4.680 -0.0189  1.5338 -0.5760
  747MOL0     H98595   8.563   8.284   4.813 -1.8333  0.4699 -2.8261
  747MOL0     H98596   8.775   8.166   4.903 -1.7040 -0.3766 -1.1633
  747MOL0     H98597   8.856   8.240   4.763 -0.4883  0.1203 -2.6326
  747MOL0     H98598   8.755   8.389   5.007  0.5807 -2.0107  0.7487
  747MOL0     H98599   8.850   8.465   4.885  0.8918 -0.2003  1.0730
  747MOL0     H98600   9.037   8.301   4.956 -2.3361 -0.3501 -2.7331
  747MOL0     H98601   8.993   8.445   5.043  0.0575  0.3360 -2.1435
  747MOL0     H98602   8.908   8.145   5.336  1.4840 -0.1980  0.0754
  747MOL0     H98603   8.674   8.641   4.831 -0.1658 -0.7119  0.4601
  747MOL0     H98604   8.477   8.793   4.877  1.3864  0.3341 -1.6399
  748MOL0     O98605  11.003   0.119   8.870  0.2353  0.8098  0.1903
  748MOL0     C98606  11.099   0.088   8.796 -0.6728  1.0073  0.1944
  748MOL0     O98607  11.228   0.084   8.837 -0.2156  0.7710 -0.4070
  748MOL0     C98608  11.274   0.097   8.968 -0.0118  0.8201 -0.0947
  748MOL0     C98609  11.216   0.156   9.083 -0.2996 -0.4849 -0.3160
  748MOL0     C98610  11.280   0.154   9.209 -0.3486  0.4189 -0.3748
  748MOL0     C98611  11.413   0.107   9.219 -0.8191  0.7029 -0.0765
  748MOL0     O98612  11.472   0.107   9.351  0.0464  0.0792  0.5966
  748MOL0     C98613  11.612   0.069   9.372 -0.2358  0.0871 -0.6063
  748MOL0     C98614  11.658   0.111   9.506 -0.2850  0.2523  0.1931
  748MOL0     C98615  11.779   0.036   9.566 -0.0164  0.0148  0.0708
  748MOL0     C98616  11.737  -0.096   9.635  0.3388  1.2614 -0.1745
  748MOL0     C98617  11.862  -0.177   9.677  0.2827  0.5674  0.8861
  748MOL0     C98618  11.954  -0.118   9.777 -0.2077 -0.2210 -0.5344
  748MOL0     C98619  11.888  -0.087   9.918  0.2161  0.1369  0.1273
  748MOL0     C98620  11.990  -0.078  10.032 -0.2956 -0.4822 -0.0012
  748MOL0     N98621  12.060  -0.205  10.047  0.4852  0.3295 -0.1117
  748MOL0     C98622  12.009  -0.330  10.085  0.3263 -0.4753  0.8453
  748MOL0     C98623  12.120  -0.400  10.119 -0.7951  0.0672  0.7813
  748MOL0     C98624  12.109  -0.549  10.107  0.1370 -1.4199 -0.2127
  748MOL0     C98625  12.196  -0.614  10.005 -0.0018 -0.7118 -0.1721
  748MOL0     C98626  12.119  -0.622   9.870 -0.2424  0.1818 -0.0274
  748MOL0     C98627  12.193  -0.688   9.765 -0.8422  0.0296  0.5562
  748MOL0     O98628  12.124  -0.682   9.646  0.6370 -0.1326  0.0267
  748MOL0     C98629  12.180  -0.720   9.529 -0.1818 -0.2074  0.2615
  748MOL0     C98630  12.092  -0.756   9.427  0.1361  0.6929  0.3065
  748MOL0     C98631  12.130  -0.796   9.304  0.5466 -0.5681 -0.2504
  748MOL0     C98632  12.263  -0.788   9.268  0.2935 -0.4854 -0.0784
  748MOL0     C98633  12.309  -0.834   9.130  0.4045  0.4022 -0.3747
  748MOL0     O98634  12.425  -0.784   9.079 -0.0352  0.6928 -0.6193
  748MOL0     C98635  12.476  -0.836   8.967  1.1401  0.1549  0.6618
  748MOL0     C98636  12.538  -0.964   8.957 -0.9394  0.0782  0.2128
  748MOL0     C98637  12.597  -1.007   8.838  0.5036  0.8675  0.3012
  748MOL0     C98638  12.602  -0.933   8.719 -0.0234  0.6037 -0.5132
  748MOL0     O98639  12.653  -0.967   8.598  0.1016  0.2453 -0.0714
  748MOL0     C98640  12.749  -1.081   8.604 -0.2123 -0.5789 -0.2061
  748MOL0     C98641  12.881  -1.044   8.672 -0.3419  0.3823  0.0483
  748MOL0     C98642  12.999  -1.115   8.609 -0.2487  0.5006  0.6232
  748MOL0     C98643  13.121  -1.117   8.697 -0.5704  0.1526  0.2958
  748MOL0     C98644  13.253  -1.152   8.620 -0.6569  1.0326  0.0057
  748MOL0     C98645  13.254  -1.291   8.546 -0.3984 -0.0335 -0.4269
  748MOL0     C98646  13.399  -1.302   8.505  0.1680  0.9477  0.1637
  748MOL0     C98647  13.420  -1.405   8.394 -0.1192  0.4810  1.0238
  748MOL0    Cl98648  13.601  -1.401   8.348 -0.0596 -0.3317  0.5144
  748MOL0     C98649  12.544  -0.806   8.729 -0.0255 -0.0073 -0.1254
  748MOL0     C98650  12.469  -0.767   8.845 -0.2761 -0.3567  0.0917
  748MOL0     O98651  12.233  -0.917   9.071 -0.1100 -0.0111  0.3858
  748MOL0     C98652  12.359  -0.738   9.366  0.3431 -0.1266  0.6948
  748MOL0     C98653  12.322  -0.712   9.499 -0.9508 -0.0168  0.5419
  748MOL0     N98654  12.234  -0.320  10.118  1.0608  0.7193 -0.0538
  748MOL0     N98655  12.189  -0.206  10.087  0.3864  0.3778 -0.4649
  748MOL0     C98656  11.488   0.072   9.108  0.2264  0.1742  0.9945
  748MOL0     C98657  11.413   0.065   8.988 -0.4301 -0.8581  1.2051
  748MOL0     C98658  11.069   0.066   8.657 -0.7758  0.1235  0.5800
  748MOL0     C98659  10.931   0.059   8.612 -0.2090 -0.7116  0.5299
  748MOL0     C98660  10.903   0.042   8.480 -0.0329 -0.9717 -0.1203
  748MOL0     C98661  10.999   0.041   8.382 -0.2346 -0.6307  0.0254
  748MOL0     O98662  10.969   0.032   8.250 -0.3649  0.0563  0.2265
  748MOL0     C98663  10.827   0.047   8.212 -0.4729  0.5053 -0.2246
  748MOL0     C98664  10.805   0.029   8.063  0.6801 -0.3099 -0.2088
  748MOL0     C98665  10.890   0.094   7.946  0.9832  0.4527  0.6702
  748MOL0     C98666  10.805   0.122   7.829  0.9438 -0.3427  0.8654
  748MOL0     C98667  10.886   0.163   7.709  0.5843 -0.8501  0.0717
  748MOL0     C98668  10.924   0.195   7.604 -0.4021  0.1538  0.7418
  748MOL0     C98669  11.131   0.031   8.426  0.4593 -0.2459  0.1007
  748MOL0     C98670  11.172   0.050   8.562 -1.0326  0.0281  1.4529
  748MOL0     H98671  11.118   0.202   9.089  0.8168  1.8736  1.7905
  748MOL0     H98672  11.238   0.192   9.301 -0.1544 -1.3011  0.4709
  748MOL0     H98673  11.668   0.126   9.297  1.8744 -0.7803  0.2539
  748MOL0     H98674  11.628  -0.033   9.336  3.1491  1.1379 -2.4988
  748MOL0     H98675  11.577   0.103   9.579 -1.6558 -0.9197 -1.3932
  748MOL0     H98676  11.683   0.217   9.492  1.4363 -0.2894 -1.1339
  748MOL0     H98677  11.839   0.090   9.640  1.7047 -0.8154 -0.6491
  748MOL0     H98678  11.853   0.018   9.488 -1.0112  2.4582 -1.5420
  748MOL0     H98679  11.675  -0.065   9.720 -0.4888  1.7895 -0.9453
  748MOL0     H98680  11.683  -0.148   9.555  1.9586  3.3302 -2.7900
  748MOL0     H98681  11.917  -0.211   9.589 -0.1712  3.3673 -0.6003
  748MOL0     H98682  11.813  -0.263   9.723 -1.9695  1.2303 -0.1414
  748MOL0     H98683  12.006  -0.029   9.739  1.2257 -0.9745 -0.4014
  748MOL0     H98684  12.033  -0.191   9.795  4.2334  4.1410 -0.0500
  748MOL0     H98685  11.844   0.012   9.904 -1.7295  0.2367  4.9550
  748MOL0     H98686  11.811  -0.162   9.942 -2.0489  2.7483  1.6530
  748MOL0     H98687  11.948  -0.040  10.125 -1.9516 -2.5171  0.1484
  748MOL0     H98688  12.057   0.001   9.998  1.3513 -0.6042  2.6915
  748MOL0     H98689  11.906  -0.364  10.085  0.2329 -0.2034  0.4885
  748MOL0     H98690  12.007  -0.582  10.087 -1.2829  2.1384  0.4104
  748MOL0     H98691  12.130  -0.606  10.198  0.3017 -2.7386 -1.0541
  748MOL0     H98692  12.207  -0.720  10.031  1.7546 -0.7737 -1.0597
  748MOL0     H98693  12.291  -0.562   9.995  0.1823 -0.8070  0.9028
  748MOL0     H98694  12.022  -0.670   9.883  0.2605 -1.3108 -1.4643
  748MOL0     H98695  12.090  -0.525   9.829 -2.3953 -0.2113  0.4691
  748MOL0     H98696  12.210  -0.790   9.801 -2.2895 -0.8272 -1.0359
  748MOL0     H98697  12.291  -0.642   9.756  0.4542 -2.9193 -2.6847
  748MOL0     H98698  11.984  -0.745   9.436  0.0399  1.0194 -1.0004
  748MOL0     H98699  12.048  -0.808   9.234  2.0333 -4.6963 -1.6235
  748MOL0     H98700  12.554  -1.027   9.044  1.0709  1.3270  0.8013
  748MOL0     H98701  12.639  -1.108   8.838  0.3650  0.8109  0.1783
  748MOL0     H98702  12.764  -1.110   8.499 -3.0373  1.1777 -1.2448
  748MOL0     H98703  12.707  -1.169   8.653  1.0731  0.2998  2.6706
  748MOL0     H98704  12.878  -1.073   8.777 -3.6212  0.1866  0.0066
  748MOL0     H98705  12.888  -0.934   8.666  0.7847  0.3527  0.5428
  748MOL0     H98706  13.018  -1.065   8.513 -1.8627 -0.1577 -0.0697
  748MOL0     H98707  12.974  -1.220   8.594 -2.1667  1.0252 -0.0772
  748MOL0     H98708  13.133  -1.014   8.733  2.6848 -0.1688  0.4188
  748MOL0     H98709  13.106  -1.186   8.780  3.5201  1.1522  2.1516
  748MOL0     H98710  13.318  -1.151   8.707  0.7477  2.1213 -1.0023
  748MOL0     H98711  13.283  -1.072   8.551  3.3035  0.1769  0.5531
  748MOL0     H98712  13.177  -1.297   8.468 -3.1099 -1.7255  2.1195
  748MOL0     H98713  13.228  -1.366   8.622  1.1853 -1.5466 -1.3056
  748MOL0     H98714  13.436  -1.202   8.482  1.0342  0.2677 -1.5883
  748MOL0     H98715  13.472  -1.330   8.582 -0.6947 -2.6038 -0.1445
  748MOL0     H98716  13.349  -1.386   8.313  0.4512  3.9148  1.1998
  748MOL0     H98717  13.401  -1.511   8.412  3.5356 -0.4840  0.1187
  748MOL0     H98718  12.536  -0.752   8.635 -0.8723 -2.6666 -1.6966
  748MOL0     H98719  12.422  -0.669   8.851 -3.2421 -1.7689  3.1034
  748MOL0     H98720  12.463  -0.760   9.343 -0.3194 -1.3688 -1.4499
  748MOL0     H98721  12.404  -0.694   9.567  0.0224 -2.6849  0.1848
  748MOL0     H98722  11.594   0.051   9.098 -0.2078 -1.2305 -1.4232
  748MOL0     H98723  11.478   0.025   8.911 -1.3382 -3.2534  1.5862
  748MOL0     H98724  10.853   0.065   8.686 -2.5248  0.4182 -1.8329
  748MOL0     H98725  10.796   0.050   8.461 -0.4777  0.1928  2.4139
  748MOL0     H98726  10.791   0.144   8.246 -2.2976 -0.0509 -0.4463
  748MOL0     H98727  10.765  -0.015   8.278 -1.4447  1.1934 -0.4806
  748MOL0     H98728  10.813  -0.077   8.035 -0.0168 -1.0037  2.0338
  748MOL0     H98729  10.709   0.076   8.042 -0.3881 -2.3665 -0.1903
  748MOL0     H98730  10.975   0.033   7.913  0.0224  0.6746 -2.6803
  748MOL0     H98731  10.936   0.191   7.967 -1.0079  2.5044 -3.2734
  748MOL0     H98732  10.732   0.042   7.813 -1.0414  1.5709 -0.1168
  748MOL0     H98733  10.735   0.203   7.853  1.8758  0.3946  1.1499
  748MOL0     H98734  10.941   0.232   7.505  0.3432  0.0752  0.8303
  748MOL0     H98735  11.204   0.030   8.345  0.5422 -1.0195  0.1812
  748MOL0     H98736  11.276   0.030   8.586  0.0370  1.3548 -1.6570
  749MOL0     O98737   9.930   9.994   7.772 -0.4987  0.5432 -0.4132
  749MOL0     C98738   9.961   9.942   7.880  1.0555  0.4102  0.0053
  749MOL0     O98739   9.866   9.928   7.985 -0.1325 -0.5768  0.6349
  749MOL0     C98740   9.745   9.979   7.964  0.0435 -0.6613 -0.5760
  749MOL0     C98741   9.638   9.902   8.018  0.2850  0.8463 -0.2166
  749MOL0     C98742   9.509   9.965   8.027  0.2317  0.3262  0.5808
  749MOL0     C98743   9.488  10.095   7.989  0.2512  0.0928 -0.6722
  749MOL0     O98744   9.361  10.144   7.991  0.3328  0.6858 -0.5600
  749MOL0     C98745   9.357  10.279   8.051  0.4395 -0.5257  0.4940
  749MOL0     C98746   9.208  10.290   8.094  0.0940 -0.7022 -0.5900
  749MOL0     C98747   9.173  10.233   8.222 -0.1658 -0.8467 -0.6224
  749MOL0     C98748   9.270  10.248   8.349 -0.7626 -0.2312 -0.0504
  749MOL0     C98749   9.215  10.170   8.464  0.8887  1.5155  0.3118
  749MOL0     C98750   9.240  10.016   8.450 -0.1173  0.8872 -0.3245
  749MOL0     C98751   9.154   9.927   8.531 -0.1610  0.3644 -0.3015
  749MOL0     C98752   9.002   9.932   8.494  0.0874  0.6500 -0.0069
  749MOL0     N98753   8.973   9.875   8.359 -0.9045  0.6852 -0.2813
  749MOL0     C98754   8.891   9.928   8.254 -0.0718 -0.8266 -1.0370
  749MOL0     C98755   8.855   9.817   8.188  0.1116  0.1424  0.1163
  749MOL0     C98756   8.759   9.804   8.070  0.7755 -0.3488  0.2514
  749MOL0     C98757   8.696   9.927   8.010  0.1043 -0.4676  0.3949
  749MOL0     C98758   8.589   9.878   7.922 -0.9484 -0.2116  0.1717
  749MOL0     C98759   8.493   9.991   7.883  0.4719 -0.2728 -1.0431
  749MOL0     O98760   8.548  10.081   7.784  0.5386 -1.0207  0.2828
  749MOL0     C98761   8.484  10.181   7.724  0.4854  0.2177 -0.8675
  749MOL0     C98762   8.350  10.205   7.760 -0.2960 -0.7027  1.0505
  749MOL0     C98763   8.271  10.296   7.685 -0.5580  0.4306  0.1093
  749MOL0     C98764   8.326  10.355   7.572  0.0579  0.1886 -0.3179
  749MOL0     C98765   8.247  10.461   7.501  0.9661  0.3513  0.6088
  749MOL0     O98766   8.275  10.495   7.377 -0.1195 -0.2127 -0.3098
  749MOL0     C98767   8.190  10.587   7.326  0.4985  0.0383  0.2126
  749MOL0     C98768   8.214  10.719   7.349  0.7694 -0.3798 -0.9715
  749MOL0     C98769   8.113  10.809   7.324 -0.7436 -0.9416  0.0148
  749MOL0     C98770   7.985  10.775   7.268 -0.2902 -0.6061 -0.5494
  749MOL0     O98771   7.900  10.872   7.231 -0.0774 -0.2114 -0.6689
  749MOL0     C98772   7.790  10.888   7.329  0.8950 -0.2779 -0.2903
  749MOL0     C98773   7.695  11.007   7.305  0.1424 -0.6846 -0.0161
  749MOL0     C98774   7.719  11.134   7.380  1.2948  0.7282 -0.0763
  749MOL0     C98775   7.867  11.183   7.381  0.7970  0.4728  1.1112
  749MOL0     C98776   7.866  11.338   7.402 -0.5843 -0.8010  0.5741
  749MOL0     C98777   7.799  11.395   7.530 -0.0959  0.7688 -0.0577
  749MOL0     C98778   7.879  11.344   7.663  0.2851 -0.6838  1.2662
  749MOL0     C98779   8.019  11.401   7.676 -1.5144 -0.1617 -0.1370
  749MOL0    Cl98780   8.066  11.377   7.854  0.0960 -0.0600  0.2953
  749MOL0     C98781   7.964  10.642   7.232  0.2330  0.4316 -0.5018
  749MOL0     C98782   8.067  10.554   7.260 -0.3005  1.0394 -0.0494
  749MOL0     O98783   8.157  10.502   7.570 -0.3236  0.5548 -0.4085
  749MOL0     C98784   8.458  10.327   7.533 -0.5327 -0.1435  0.6144
  749MOL0     C98785   8.531  10.227   7.600  1.2897  0.1228  0.3414
  749MOL0     N98786   8.914   9.703   8.251  0.0045 -0.0084  0.3976
  749MOL0     N98787   8.988   9.735   8.348 -0.0298  0.0832 -0.2006
  749MOL0     C98788   9.593  10.171   7.939 -0.4493  1.0152  0.8677
  749MOL0     C98789   9.721  10.121   7.928  0.2775 -0.5516 -0.0160
  749MOL0     C98790  10.089   9.876   7.888 -0.1247  0.1348 -0.2166
  749MOL0     C98791  10.182   9.881   7.784  1.0269 -0.0888 -0.2329
  749MOL0     C98792  10.306   9.819   7.800 -0.1014  0.1274 -0.5960
  749MOL0     C98793  10.349   9.771   7.923  0.4988 -1.2670 -0.4501
  749MOL0     O98794  10.478   9.714   7.932  0.2669 -0.3577 -0.0882
  749MOL0     C98795  10.542   9.744   8.051 -0.6192 -0.1170 -1.2885
  749MOL0     C98796  10.688   9.692   8.084  0.1026 -0.3359 -0.5853
  749MOL0     C98797  10.804   9.782   8.019  0.2840 -0.2424  1.2451
  749MOL0     C98798  10.918   9.710   7.967 -0.0449 -0.5412  0.0037
  749MOL0     C98799  10.900   9.608   7.865  1.3009  0.0459  0.8607
  749MOL0     C98800  10.872   9.515   7.795  0.1460  0.2702  0.3714
  749MOL0     C98801  10.256   9.763   8.027 -0.3260 -0.4529  0.7640
  749MOL0     C98802  10.127   9.809   8.004 -0.7019 -0.7642 -0.6058
  749MOL0     H98803   9.665   9.802   8.049  3.1549  2.2034  2.1268
  749MOL0     H98804   9.420   9.915   8.066  0.4753  0.2573  1.0531
  749MOL0     H98805   9.372  10.347   7.967  2.1294 -0.7013  0.6127
  749MOL0     H98806   9.425  10.306   8.132 -1.5525  0.8862  1.7687
  749MOL0     H98807   9.147  10.251   8.013 -0.2110 -0.7162 -0.3543
  749MOL0     H98808   9.185  10.397   8.104 -0.7219 -0.9682  0.5973
  749MOL0     H98809   9.166  10.124   8.208  0.7921 -1.6488  3.5987
  749MOL0     H98810   9.073  10.273   8.240  1.4108  3.1668  0.2810
  749MOL0     H98811   9.367  10.206   8.321 -0.4112  0.5266  0.0130
  749MOL0     H98812   9.278  10.353   8.380 -1.3512 -0.7343  1.9169
  749MOL0     H98813   9.109  10.195   8.467  0.2307 -0.8399 -0.5280
  749MOL0     H98814   9.264  10.206   8.554 -0.2240  0.0702  1.5481
  749MOL0     H98815   9.341   9.986   8.479 -1.2121 -3.1988 -0.1383
  749MOL0     H98816   9.231   9.981   8.347 -1.2228 -2.1806  0.6892
  749MOL0     H98817   9.184   9.824   8.511 -1.0666  0.0080  0.1073
  749MOL0     H98818   9.174   9.938   8.638  0.9577 -1.4696 -0.2881
  749MOL0     H98819   8.953  10.030   8.491 -2.9279 -0.6325  2.0648
  749MOL0     H98820   8.951   9.883   8.578  0.5864  1.7205  0.9570
  749MOL0     H98821   8.859  10.029   8.228 -2.6913 -0.5313  2.5814
  749MOL0     H98822   8.676   9.748   8.114  0.7079 -1.6221 -1.4142
  749MOL0     H98823   8.799   9.749   7.984 -1.1761  0.1334 -1.0263
  749MOL0     H98824   8.764   9.994   7.954 -0.9842 -1.0085 -1.6717
  749MOL0     H98825   8.649   9.980   8.093 -2.5175 -1.5059 -0.3300
  749MOL0     H98826   8.622   9.831   7.829 -0.5215 -1.8304  1.0960
  749MOL0     H98827   8.524   9.810   7.979  1.2832 -1.5607  1.2411
  749MOL0     H98828   8.465  10.032   7.980  0.6480 -2.2288 -0.1170
  749MOL0     H98829   8.402   9.940   7.850 -0.0333 -1.1403  1.4819
  749MOL0     H98830   8.310  10.161   7.851 -0.4392 -0.0328  1.3154
  749MOL0     H98831   8.167  10.321   7.704 -1.1597 -1.6029 -0.2970
  749MOL0     H98832   8.309  10.753   7.390  0.1459 -0.2944  0.4656
  749MOL0     H98833   8.143  10.913   7.336  1.8121 -1.4443 -1.3148
  749MOL0     H98834   7.827  10.900   7.431 -1.1674 -2.9673  0.9052
  749MOL0     H98835   7.732  10.795   7.334  3.5171 -2.1000 -1.1175
  749MOL0     H98836   7.594  10.965   7.317  0.4621 -1.5100 -0.1771
  749MOL0     H98837   7.709  11.027   7.198 -2.8311 -2.7101 -0.9160
  749MOL0     H98838   7.699  11.095   7.480 -1.9507 -1.5539 -1.4590
  749MOL0     H98839   7.635  11.201   7.360 -0.7462 -0.9810  2.1560
  749MOL0     H98840   7.928  11.136   7.458  3.1864 -0.3961 -1.1728
  749MOL0     H98841   7.902  11.162   7.279 -1.3544  3.5877 -0.4373
  749MOL0     H98842   7.811  11.384   7.320  2.2579 -2.1769 -2.3635
  749MOL0     H98843   7.972  11.367   7.397 -0.8509  0.0103 -1.8285
  749MOL0     H98844   7.693  11.372   7.522  0.2392 -0.3664 -2.0423
  749MOL0     H98845   7.804  11.503   7.516  1.9355  0.6435 -0.6873
  749MOL0     H98846   7.833  11.409   7.738  0.5680  3.1456 -1.5299
  749MOL0     H98847   7.867  11.236   7.664  0.7030 -0.7337  1.1903
  749MOL0     H98848   8.021  11.508   7.657  1.0370 -0.3056 -1.2214
  749MOL0     H98849   8.088  11.337   7.619 -2.1963 -0.0168 -1.1430
  749MOL0     H98850   7.873  10.600   7.191 -0.8742  2.3696 -0.1577
  749MOL0     H98851   8.061  10.446   7.245 -2.5293  1.4331 -3.1420
  749MOL0     H98852   8.506  10.375   7.449 -1.7825 -2.8162 -1.7939
  749MOL0     H98853   8.624  10.198   7.553  0.1982  0.5836 -2.3608
  749MOL0     H98854   9.577  10.276   7.916  0.5211  1.3910  1.8044
  749MOL0     H98855   9.805  10.172   7.882  0.8143 -0.0103  1.5131
  749MOL0     H98856  10.152   9.911   7.684  0.3799 -2.1871 -0.7377
  749MOL0     H98857  10.376   9.808   7.718  2.1179 -0.0820  1.2556
  749MOL0     H98858  10.486   9.718   8.141  2.7701 -2.1369  0.4275
  749MOL0     H98859  10.564   9.851   8.049 -0.8648 -0.0387 -0.1726
  749MOL0     H98860  10.705   9.700   8.192 -1.5536  1.6344 -0.4071
  749MOL0     H98861  10.692   9.586   8.058 -1.3129 -0.7949  0.9349
  749MOL0     H98862  10.838   9.839   8.106 -1.0301  0.4670  1.3227
  749MOL0     H98863  10.769   9.847   7.939 -1.2072 -0.4145  1.7211
  749MOL0     H98864  10.996   9.779   7.933  2.0569 -2.5183  0.5805
  749MOL0     H98865  10.962   9.662   8.055  1.2991 -3.0229 -1.8867
  749MOL0     H98866  10.857   9.422   7.743  4.0716  0.4121 -1.2971
  749MOL0     H98867  10.268   9.729   8.130  1.4231  2.8107  1.8067
  749MOL0     H98868  10.048   9.801   8.078 -0.9243 -0.1086 -0.7660
  750MOL0     O98869  10.193   7.331   1.749 -0.7224 -0.5718 -0.7863
  750MOL0     C98870  10.186   7.350   1.629  0.4427  0.1046  0.7605
  750MOL0     O98871  10.152   7.473   1.571  0.2941  0.7870 -0.4897
  750MOL0     C98872  10.153   7.584   1.650 -0.4689  0.6631 -0.4283
  750MOL0     C98873  10.034   7.646   1.682  0.4666 -0.7315 -0.2481
  750MOL0     C98874  10.023   7.756   1.762  0.0493  0.0163  0.2379
  750MOL0     C98875  10.141   7.795   1.832 -0.4747  0.0982 -0.2672
  750MOL0     O98876  10.135   7.903   1.916 -0.4226  0.3091 -0.0872
  750MOL0     C98877  10.220   7.912   2.028 -0.0996 -0.1885 -0.5487
  750MOL0     C98878  10.283   8.045   2.029 -0.4674 -0.9623 -1.5195
  750MOL0     C98879  10.379   8.060   1.914  0.1002  0.1340 -0.4847
  750MOL0     C98880  10.430   8.197   1.919  0.9578  0.5060  0.1216
  750MOL0     C98881  10.511   8.224   1.791  0.7526  0.0253  0.6258
  750MOL0     C98882  10.609   8.336   1.820  0.2122 -0.7225 -0.0570
  750MOL0     C98883  10.702   8.359   1.697 -0.3898 -0.3667 -0.2808
  750MOL0     C98884  10.760   8.499   1.683 -0.4739 -0.2701 -0.0193
  750MOL0     N98885  10.863   8.508   1.571 -0.1900 -0.1017 -0.6432
  750MOL0     C98886  10.848   8.471   1.438  0.2157 -0.3932 -0.2450
  750MOL0     C98887  10.972   8.501   1.390  0.4750 -0.2949  1.2046
  750MOL0     C98888  11.033   8.498   1.246  0.1290  0.0149  0.7182
  750MOL0     C98889  11.153   8.403   1.221  1.6971 -0.5757 -0.4149
  750MOL0     C98890  11.230   8.419   1.087  0.0683 -1.1103  0.8971
  750MOL0     C98891  11.363   8.338   1.081 -0.2273  0.3127  0.3045
  750MOL0     O98892  11.441   8.366   0.970 -1.3525  0.3387 -0.4215
  750MOL0     C98893  11.562   8.425   0.989  1.2510 -0.4359  0.5622
  750MOL0     C98894  11.678   8.370   0.933  0.1922 -0.6561  0.6789
  750MOL0     C98895  11.806   8.432   0.959 -0.3274 -0.5260  0.4524
  750MOL0     C98896  11.808   8.560   1.013 -0.2347 -0.1172 -0.4442
  750MOL0     C98897  11.942   8.635   1.008 -0.5912  0.5624 -0.0623
  750MOL0     O98898  11.942   8.765   1.042  0.1427  0.1993  0.1183
  750MOL0     C98899  12.050   8.844   1.017  0.4286  0.4716 -0.7996
  750MOL0     C98900  12.166   8.835   1.101  0.7277  0.0923  0.5587
  750MOL0     C98901  12.266   8.919   1.099 -0.2712  0.9293 -0.5231
  750MOL0     C98902  12.257   9.041   1.022 -1.2350  0.3433 -0.2218
  750MOL0     O98903  12.359   9.128   0.999  0.6707 -0.3020 -0.2137
  750MOL0     C98904  12.420   9.180   1.123  0.0504 -0.8788 -0.0268
  750MOL0     C98905  12.312   9.262   1.178  1.2183  0.4014 -0.2302
  750MOL0     C98906  12.365   9.372   1.270 -0.7350 -1.8700  1.9200
  750MOL0     C98907  12.248   9.422   1.356  0.5645  0.2567 -0.0902
  750MOL0     C98908  12.306   9.546   1.431 -0.9124 -0.4148 -0.2876
  750MOL0     C98909  12.209   9.606   1.530 -0.4790  0.5175 -0.0856
  750MOL0     C98910  12.269   9.718   1.608 -0.3393 -0.9912 -0.6055
  750MOL0     C98911  12.204   9.748   1.733  0.7062  0.5703  0.3342
  750MOL0    Cl98912  12.038   9.827   1.721 -0.1966 -0.1200 -0.3593
  750MOL0     C98913  12.145   9.056   0.943  0.4470 -0.1148 -0.1454
  750MOL0     C98914  12.042   8.965   0.950 -0.5360  0.0601  0.3539
  750MOL0     O98915  12.044   8.580   0.966 -0.5318  0.1474  0.7380
  750MOL0     C98916  11.694   8.609   1.072  0.9323  0.1373  0.2723
  750MOL0     C98917  11.569   8.547   1.055  0.0174  0.0127 -0.8386
  750MOL0     N98918  11.054   8.542   1.489 -0.4525 -0.2904 -0.1288
  750MOL0     N98919  10.990   8.531   1.600  0.7713  0.3300  0.0579
  750MOL0     C98920  10.263   7.737   1.797 -0.1202 -0.1661  0.7882
  750MOL0     C98921  10.268   7.632   1.704 -0.3850 -0.4047 -1.0120
  750MOL0     C98922  10.220   7.239   1.533 -0.1728  0.4152  0.7874
  750MOL0     C98923  10.236   7.106   1.574  0.4614  0.6047  0.2794
  750MOL0     C98924  10.258   7.003   1.482  0.4306 -1.3248 -0.4973
  750MOL0     C98925  10.248   7.041   1.343 -1.0568  0.5317 -1.3302
  750MOL0     O98926  10.268   6.951   1.243  0.0102 -0.0494 -0.3285
  750MOL0     C98927  10.346   6.835   1.256 -0.4308 -0.7427 -0.6423
  750MOL0     C98928  10.414   6.801   1.126 -0.1769  1.1702 -0.4318
  750MOL0     C98929  10.542   6.717   1.152  0.3761 -0.2602 -1.0605
  750MOL0     C98930  10.614   6.676   1.021 -0.3319  0.6772  0.1959
  750MOL0     C98931  10.539   6.580   0.939 -1.6978 -0.4360  0.8202
  750MOL0     C98932  10.477   6.516   0.866  0.4504  0.0863  0.2516
  750MOL0     C98933  10.228   7.166   1.301 -0.1507 -0.6162 -0.2999
  750MOL0     C98934  10.233   7.268   1.393 -0.2979  0.0119  0.1059
  750MOL0     H98935   9.945   7.603   1.639 -1.5838 -1.7265  4.3592
  750MOL0     H98936   9.930   7.810   1.778 -0.5387 -1.0315  0.4616
  750MOL0     H98937  10.292   7.830   2.021  0.2701 -0.2495  2.5798
  750MOL0     H98938  10.177   7.899   2.128  1.2658  5.1227  1.0835
  750MOL0     H98939  10.340   8.049   2.123  0.1059 -1.6122 -1.8336
  750MOL0     H98940  10.212   8.127   2.039  2.1063  1.1689  2.2681
  750MOL0     H98941  10.324   8.041   1.821 -1.7032  1.2331  0.2998
  750MOL0     H98942  10.462   7.990   1.923  0.6698  0.7479 -0.8792
  750MOL0     H98943  10.342   8.262   1.924  0.2261 -0.3272 -1.2595
  750MOL0     H98944  10.483   8.210   2.014  1.4465  0.5763 -0.1627
  750MOL0     H98945  10.440   8.261   1.717  1.2368  0.6069  0.4432
  750MOL0     H98946  10.575   8.142   1.756  0.9530  0.7795 -0.8499
  750MOL0     H98947  10.660   8.315   1.915  1.4748  0.2948 -0.4838
  750MOL0     H98948  10.545   8.423   1.835  1.3515  0.0013  0.7594
  750MOL0     H98949  10.782   8.285   1.693 -0.2131 -0.8424  4.9942
  750MOL0     H98950  10.632   8.350   1.613  0.0633 -0.4071 -0.6594
  750MOL0     H98951  10.816   8.522   1.774  1.5406 -2.4350 -0.6204
  750MOL0     H98952  10.685   8.577   1.665  0.9615  0.4103 -4.0380
  750MOL0     H98953  10.761   8.452   1.375 -1.0335  1.5300  0.7641
  750MOL0     H98954  11.059   8.594   1.200  0.2291 -0.3830 -0.0728
  750MOL0     H98955  10.957   8.460   1.178  1.1493 -2.1170  0.7059
  750MOL0     H98956  11.112   8.302   1.231  4.1567 -1.5818  0.2445
  750MOL0     H98957  11.222   8.424   1.303 -1.8677  3.2333  2.0230
  750MOL0     H98958  11.166   8.387   1.005  2.7967 -2.1238 -0.9921
  750MOL0     H98959  11.250   8.524   1.062 -1.0780 -1.2694 -0.8533
  750MOL0     H98960  11.340   8.231   1.082  1.2929 -0.1818 -3.3344
  750MOL0     H98961  11.430   8.347   1.167  1.3184 -1.7258 -0.6106
  750MOL0     H98962  11.670   8.286   0.865 -0.8464 -0.0406  0.0185
  750MOL0     H98963  11.905   8.400   0.929 -0.7105 -0.2091 -1.2112
  750MOL0     H98964  12.177   8.746   1.162 -0.3683  0.1231  0.8148
  750MOL0     H98965  12.359   8.905   1.153 -0.8720 -0.4375  0.2069
  750MOL0     H98966  12.496   9.250   1.087 -0.8130 -0.5701 -1.3084
  750MOL0     H98967  12.472   9.122   1.199  1.3615  3.0674  2.3877
  750MOL0     H98968  12.231   9.204   1.223  0.2825  4.1056  3.4514
  750MOL0     H98969  12.262   9.315   1.097 -0.2313  2.1915  1.7366
  750MOL0     H98970  12.396   9.450   1.200  1.9243 -2.5342  2.2605
  750MOL0     H98971  12.449   9.334   1.329  3.1216  0.3555 -1.6090
  750MOL0     H98972  12.158   9.440   1.297  0.4592 -1.4441 -0.5203
  750MOL0     H98973  12.228   9.344   1.430  0.8160 -2.5769 -2.7895
  750MOL0     H98974  12.326   9.622   1.356 -3.6897  0.4542 -0.2332
  750MOL0     H98975  12.397   9.515   1.484 -1.9215 -1.5584  0.8497
  750MOL0     H98976  12.188   9.522   1.598  1.5227 -0.1093 -0.1889
  750MOL0     H98977  12.126   9.636   1.466  0.9660 -0.6237 -2.6370
  750MOL0     H98978  12.375   9.698   1.628 -0.6772 -2.8238 -0.4481
  750MOL0     H98979  12.262   9.815   1.559 -3.4559  0.1643  1.8313
  750MOL0     H98980  12.267   9.819   1.789  1.2067  2.6672 -2.6542
  750MOL0     H98981  12.180   9.654   1.783  1.0635 -0.5261 -1.5176
  750MOL0     H98982  12.155   9.151   0.892  0.3581  0.6303  1.1606
  750MOL0     H98983  11.951   8.991   0.896  0.9345  0.8661 -1.8642
  750MOL0     H98984  11.691   8.709   1.114 -2.3978 -0.1183  0.9399
  750MOL0     H98985  11.481   8.600   1.090  1.1025  2.1704 -1.2137
  750MOL0     H98986  10.355   7.772   1.842  1.0781  2.2064 -3.0037
  750MOL0     H98987  10.363   7.582   1.691 -0.0105 -0.3993  1.2184
  750MOL0     H98988  10.215   7.092   1.680 -4.5940  3.1604 -0.0749
  750MOL0     H98989  10.276   6.903   1.521  1.3835 -1.3810 -1.0406
  750MOL0     H98990  10.285   6.751   1.292  0.5377 -0.3973  2.0022
  750MOL0     H98991  10.418   6.848   1.337 -2.3176 -1.9959  1.3504
  750MOL0     H98992  10.339   6.747   1.068  1.0100 -0.3429 -0.6209
  750MOL0     H98993  10.439   6.893   1.072  0.6003  0.0364 -2.0697
  750MOL0     H98994  10.509   6.632   1.213  1.0158  1.7910  2.4475
  750MOL0     H98995  10.606   6.767   1.225  0.2323 -0.9924 -0.4138
  750MOL0     H98996  10.642   6.758   0.955  0.7175 -1.2431 -1.8488
  750MOL0     H98997  10.708   6.627   1.047 -0.2515 -0.5668 -2.1822
  750MOL0     H98998  10.414   6.475   0.789 -0.3799  2.9642 -0.7262
  750MOL0     H98999  10.226   7.215   1.204  1.4855  1.6116  0.7172
  750MOL0     H99000  10.240   7.370   1.357  3.6436  0.5930  1.9566
  751MOL0     O99001   2.976   4.852   3.229 -0.6282  0.3158  0.5536
  751MOL0     C99002   2.877   4.806   3.163  0.5522  0.1691  0.5643
  751MOL0     O99003   2.878   4.682   3.112 -0.6654  0.5697 -0.0377
  751MOL0     C99004   2.986   4.592   3.106 -0.3374  0.1778 -0.4301
  751MOL0     C99005   2.969   4.482   3.024  0.3833 -0.3149 -0.2828
  751MOL0     C99006   3.052   4.371   3.042  0.7923 -0.7003 -0.5566
  751MOL0     C99007   3.149   4.362   3.136 -0.0819  0.5731  0.4753
  751MOL0     O99008   3.207   4.233   3.147  0.0060 -0.1382  0.1651
  751MOL0     C99009   3.331   4.204   3.219 -0.7258  0.8396 -0.7114
  751MOL0     C99010   3.333   4.057   3.265 -0.3416 -0.3071  1.0310
  751MOL0     C99011   3.301   3.948   3.166  0.4943  0.6655  0.4587
  751MOL0     C99012   3.422   3.913   3.081  0.5245  0.0845  0.6363
  751MOL0     C99013   3.396   3.791   2.994  0.2168  0.7871 -0.0472
  751MOL0     C99014   3.414   3.652   3.063 -0.0378  0.6226  0.1131
  751MOL0     C99015   3.446   3.544   2.962  0.2049 -0.6293 -0.0624
  751MOL0     C99016   3.465   3.409   3.026  0.0185  0.0451 -0.0370
  751MOL0     N99017   3.514   3.303   2.932 -0.3307 -0.9044 -0.0533
  751MOL0     C99018   3.626   3.226   2.947  0.2590 -0.3153  0.0371
  751MOL0     C99019   3.626   3.146   2.838  0.5718 -1.0641  0.4205
  751MOL0     C99020   3.731   3.042   2.810  0.4546  0.4581  1.6458
  751MOL0     C99021   3.827   3.092   2.705 -0.1229  0.0657  0.4484
  751MOL0     C99022   3.945   3.005   2.657  0.1413 -0.3089 -0.6465
  751MOL0     C99023   4.041   3.081   2.579  0.9047  0.5657 -1.2386
  751MOL0     O99024   4.078   3.197   2.647 -0.2680 -0.3070  0.8086
  751MOL0     C99025   4.169   3.274   2.585  0.4814 -0.3236 -0.1080
  751MOL0     C99026   4.224   3.275   2.452 -0.1135 -0.7649  0.9366
  751MOL0     C99027   4.300   3.375   2.389 -0.3569 -0.8304 -0.0700
  751MOL0     C99028   4.334   3.481   2.467  0.0561  0.0411  0.1192
  751MOL0     C99029   4.424   3.575   2.399 -0.0000  0.2359 -0.1563
  751MOL0     O99030   4.476   3.550   2.273  0.3900 -0.6527  0.1684
  751MOL0     C99031   4.598   3.580   2.237 -0.0676  0.2522  1.3683
  751MOL0     C99032   4.629   3.552   2.102 -0.2052  0.0545 -0.5304
  751MOL0     C99033   4.753   3.592   2.042 -0.7096 -0.7483 -0.3402
  751MOL0     C99034   4.840   3.672   2.112 -0.9291 -0.5026  0.1515
  751MOL0     O99035   4.958   3.697   2.043  0.2798  0.0129  0.3622
  751MOL0     C99036   5.055   3.790   2.091 -0.1584  0.0016 -0.6044
  751MOL0     C99037   5.145   3.835   1.977 -0.4246  0.3036  1.1195
  751MOL0     C99038   5.263   3.916   2.043 -0.4114  0.6524 -0.5501
  751MOL0     C99039   5.369   3.967   1.947  0.9600 -0.4230 -0.4231
  751MOL0     C99040   5.471   4.046   2.022  0.2863 -0.1032  0.9434
  751MOL0     C99041   5.437   4.192   2.044  0.0850  0.7384 -1.4508
  751MOL0     C99042   5.551   4.276   2.105  0.4089  0.6220 -0.3365
  751MOL0     C99043   5.503   4.430   2.095 -0.5385  0.1803  0.7933
  751MOL0    Cl99044   5.615   4.555   2.169  0.0628  0.3757  0.5746
  751MOL0     C99045   4.806   3.707   2.244 -0.6962  0.4790  0.9450
  751MOL0     C99046   4.695   3.651   2.308  0.1793 -0.3252  0.4562
  751MOL0     O99047   4.426   3.680   2.464 -0.7151 -0.0400  0.4059
  751MOL0     C99048   4.296   3.483   2.604 -0.0644 -0.2273 -0.2960
  751MOL0     C99049   4.210   3.380   2.658 -0.3186 -0.6938 -0.5818
  751MOL0     N99050   3.519   3.175   2.757  0.4578 -0.0688  0.1964
  751MOL0     N99051   3.458   3.267   2.810 -0.2497 -0.1222 -0.6710
  751MOL0     C99052   3.181   4.476   3.204  0.1912  0.1560 -0.4166
  751MOL0     C99053   3.099   4.590   3.191  0.4417  0.3441  0.2242
  751MOL0     C99054   2.759   4.888   3.155  0.8399  0.3513 -0.3005
  751MOL0     C99055   2.732   5.003   3.232  0.3319  0.2361 -0.0072
  751MOL0     C99056   2.618   5.077   3.218  0.6498 -0.1675 -0.8445
  751MOL0     C99057   2.514   5.036   3.135  0.7236  0.2506 -0.3642
  751MOL0     O99058   2.399   5.113   3.133 -0.5543 -0.2594  0.5914
  751MOL0     C99059   2.265   5.055   3.109 -1.0877 -1.3242  0.0849
  751MOL0     C99060   2.185   5.185   3.073 -0.0920 -0.7388 -0.3963
  751MOL0     C99061   2.215   5.246   2.930 -0.1402  0.2403  1.0969
  751MOL0     C99062   2.341   5.329   2.935  0.2125 -0.0036 -0.0269
  751MOL0     C99063   2.433   5.265   2.844  0.0410 -0.2650  0.2165
  751MOL0     C99064   2.522   5.205   2.785 -0.3092  0.0915 -0.1298
  751MOL0     C99065   2.528   4.916   3.071  0.1660  0.6104  0.8824
  751MOL0     C99066   2.657   4.848   3.070 -1.1566  0.0417  0.1503
  751MOL0     H99067   2.894   4.475   2.946  0.3446 -1.5910 -0.1617
  751MOL0     H99068   3.044   4.282   2.980  2.7392 -1.2300 -0.1002
  751MOL0     H99069   3.328   4.283   3.295 -3.7482  1.7162 -1.6090
  751MOL0     H99070   3.407   4.231   3.145 -2.1570  2.1291 -1.7526
  751MOL0     H99071   3.256   4.053   3.343 -1.5740 -1.9833 -0.1894
  751MOL0     H99072   3.432   4.039   3.308 -1.1830 -4.1567  1.7701
  751MOL0     H99073   3.217   3.975   3.100  0.0367 -4.4153 -1.4737
  751MOL0     H99074   3.280   3.857   3.222  2.2336 -0.5688 -0.7636
  751MOL0     H99075   3.440   4.003   3.021 -2.5377  1.2991  1.3518
  751MOL0     H99076   3.503   3.894   3.152 -0.1335  4.0519  2.7581
  751MOL0     H99077   3.479   3.802   2.924  4.1797 -1.1947  3.8309
  751MOL0     H99078   3.301   3.794   2.939 -0.4354 -2.3975  0.6874
  751MOL0     H99079   3.328   3.631   3.127 -0.0880  0.7543  0.0900
  751MOL0     H99080   3.502   3.659   3.128  0.8661  2.2186 -1.1867
  751MOL0     H99081   3.355   3.540   2.902  0.1724  1.1349 -0.1698
  751MOL0     H99082   3.535   3.566   2.902  0.8821  1.3259  1.5304
  751MOL0     H99083   3.378   3.365   3.074 -0.0897 -3.5363 -3.0991
  751MOL0     H99084   3.531   3.426   3.112  1.7138  2.3920 -1.6624
  751MOL0     H99085   3.691   3.239   3.033 -0.7308 -1.4166  0.9717
  751MOL0     H99086   3.682   2.957   2.761  1.9029  0.5288 -0.0035
  751MOL0     H99087   3.784   3.022   2.904  3.8815  1.6498  0.1103
  751MOL0     H99088   3.856   3.189   2.746 -1.1891 -0.8370  3.6132
  751MOL0     H99089   3.762   3.104   2.618 -0.8158  2.2064  1.1827
  751MOL0     H99090   3.991   2.964   2.748 -1.4162 -1.5626 -0.3655
  751MOL0     H99091   3.890   2.927   2.603 -2.5860  1.6423 -0.8913
  751MOL0     H99092   3.995   3.116   2.486  2.4953  0.6049 -2.0510
  751MOL0     H99093   4.123   3.016   2.546  0.4440 -0.2069 -0.8834
  751MOL0     H99094   4.203   3.192   2.386  0.3536  1.3544 -2.0914
  751MOL0     H99095   4.354   3.365   2.296 -0.2154  1.1603 -0.2380
  751MOL0     H99096   4.566   3.488   2.041  1.1102  0.5369 -2.5107
  751MOL0     H99097   4.780   3.563   1.941  0.0726  1.9531 -0.9989
  751MOL0     H99098   5.119   3.732   2.159 -1.1175  0.1314  0.4311
  751MOL0     H99099   5.005   3.875   2.137  2.3973  1.6464 -0.6807
  751MOL0     H99100   5.099   3.904   1.906 -1.5484 -3.9467 -2.7307
  751MOL0     H99101   5.174   3.743   1.925 -0.9346 -1.3455  3.5877
  751MOL0     H99102   5.310   3.852   2.118 -0.9637  1.5950  0.6275
  751MOL0     H99103   5.223   4.002   2.097 -0.3732  0.8689 -0.8627
  751MOL0     H99104   5.419   3.884   1.897  0.9252 -1.3347  0.9943
  751MOL0     H99105   5.320   4.026   1.870  0.0930  0.0929  0.5027
  751MOL0     H99106   5.555   4.045   1.952  1.4374 -0.7416  2.3046
  751MOL0     H99107   5.498   4.002   2.118  0.4940  0.4398  1.1378
  751MOL0     H99108   5.353   4.198   2.113 -0.6387  1.5488 -2.3775
  751MOL0     H99109   5.420   4.238   1.946  0.9076 -0.2673 -2.0895
  751MOL0     H99110   5.573   4.247   2.208  0.0357 -0.8802 -0.6559
  751MOL0     H99111   5.641   4.255   2.047 -0.6207 -0.1180 -1.7316
  751MOL0     H99112   5.402   4.439   2.137 -0.8928 -2.2242  0.5902
  751MOL0     H99113   5.492   4.462   1.991  0.4682  1.6494  1.1059
  751MOL0     H99114   4.890   3.755   2.294  0.7566 -2.3012  1.3648
  751MOL0     H99115   4.683   3.680   2.412 -0.9171  1.4142 -0.1141
  751MOL0     H99116   4.328   3.564   2.670  0.2639  0.4538 -1.2702
  751MOL0     H99117   4.166   3.397   2.756 -0.4925 -4.0281  0.0182
  751MOL0     H99118   3.248   4.485   3.288 -1.6295  0.7392  1.0350
  751MOL0     H99119   3.112   4.671   3.262  0.3039  1.2570 -0.7796
  751MOL0     H99120   2.799   5.025   3.315 -1.4744 -0.2341  1.6741
  751MOL0     H99121   2.620   5.176   3.263 -2.2510 -0.3914 -0.0510
  751MOL0     H99122   2.231   5.004   3.199 -0.1606 -1.9192  0.1119
  751MOL0     H99123   2.259   4.980   3.030 -4.6865  0.1557 -1.2839
  751MOL0     H99124   2.077   5.171   3.085  0.0293 -1.1543  0.2734
  751MOL0     H99125   2.194   5.263   3.150  0.2533  0.1119 -1.2707
  751MOL0     H99126   2.124   5.300   2.902  0.0366 -0.9276 -2.1901
  751MOL0     H99127   2.219   5.162   2.860 -2.8478 -1.0895  2.3878
  751MOL0     H99128   2.322   5.431   2.899  0.7943  0.5739  1.2604
  751MOL0     H99129   2.393   5.344   3.030 -1.2925 -2.3825  1.2617
  751MOL0     H99130   2.586   5.130   2.744  0.0741  0.6520 -0.5637
  751MOL0     H99131   2.449   4.865   3.017 -0.4130  0.3272  1.9661
  751MOL0     H99132   2.665   4.758   3.010 -2.4324  1.4124 -2.2276
  752MOL0     O99133   1.715  11.316   4.811  0.0549  0.1037 -0.1219
  752MOL0     C99134   1.740  11.434   4.817  0.9908 -0.2701 -0.0295
  752MOL0     O99135   1.690  11.530   4.743 -0.6025 -0.9224 -0.3836
  752MOL0     C99136   1.625  11.510   4.630 -0.3050  0.3449 -0.7385
  752MOL0     C99137   1.663  11.408   4.535  0.1907 -0.4119 -0.4129
  752MOL0     C99138   1.594  11.392   4.423  0.6309 -0.3402  0.8393
  752MOL0     C99139   1.505  11.498   4.375 -0.4099  0.3067  0.0407
  752MOL0     O99140   1.433  11.488   4.257  0.1656 -0.6451 -0.0950
  752MOL0     C99141   1.488  11.434   4.139 -1.0109 -0.7899  0.7063
  752MOL0     C99142   1.437  11.292   4.116  0.1303 -0.2888  0.0633
  752MOL0     C99143   1.507  11.207   4.010  0.4081 -0.7429 -0.6917
  752MOL0     C99144   1.460  11.262   3.878 -0.9746 -0.3992 -0.3037
  752MOL0     C99145   1.514  11.199   3.753 -0.3295 -0.4877 -0.3040
  752MOL0     C99146   1.667  11.200   3.729 -0.6418  0.6513  0.1753
  752MOL0     C99147   1.729  11.341   3.719 -0.1856 -0.5088  0.0064
  752MOL0     C99148   1.855  11.328   3.631  0.7870  0.8887 -1.1239
  752MOL0     N99149   1.917  11.462   3.605  0.0974 -0.9737 -0.7563
  752MOL0     C99150   1.942  11.568   3.696 -0.5395  0.3089 -0.5428
  752MOL0     C99151   2.036  11.644   3.636 -0.1303  0.6234 -0.7560
  752MOL0     C99152   2.112  11.755   3.708  0.7092 -0.1776  0.6019
  752MOL0     C99153   2.192  11.700   3.826  0.3699 -0.0707 -1.4284
  752MOL0     C99154   2.304  11.591   3.806  0.0490 -0.3665  0.3202
  752MOL0     C99155   2.395  11.614   3.680 -0.9411 -0.0735 -0.7498
  752MOL0     O99156   2.510  11.527   3.681  0.2492  0.3604  0.4897
  752MOL0     C99157   2.512  11.419   3.594  0.5545 -0.7247  0.4487
  752MOL0     C99158   2.640  11.354   3.590 -0.5040  0.5324 -0.5256
  752MOL0     C99159   2.657  11.234   3.524 -1.1470 -0.4259 -0.4228
  752MOL0     C99160   2.560  11.178   3.449 -0.2431  0.2031  0.2905
  752MOL0     C99161   2.594  11.049   3.379 -0.4824  0.5533 -0.1945
  752MOL0     O99162   2.719  11.010   3.342  0.0802 -0.3432  0.1407
  752MOL0     C99163   2.727  10.897   3.261 -0.3617 -0.0256  0.8330
  752MOL0     C99164   2.775  10.778   3.314  1.1254 -0.5540  0.8516
  752MOL0     C99165   2.785  10.661   3.233  0.3382 -1.2541  0.0192
  752MOL0     C99166   2.764  10.670   3.096  0.2220  0.1625  0.2278
  752MOL0     O99167   2.771  10.557   3.022  0.2410  0.5477  0.1463
  752MOL0     C99168   2.722  10.428   3.060 -0.9874 -0.7145 -0.3818
  752MOL0     C99169   2.759  10.324   2.946  0.5645  0.4268 -1.2387
  752MOL0     C99170   2.767  10.182   2.991 -0.1678  0.5331 -0.5092
  752MOL0     C99171   2.796  10.079   2.874 -0.8636 -0.1024 -0.2775
  752MOL0     C99172   2.785   9.934   2.933  0.6286 -0.3118  0.3037
  752MOL0     C99173   2.643   9.890   2.965  0.3183 -0.7337 -0.3094
  752MOL0     C99174   2.527   9.902   2.861 -0.3914 -0.1626 -0.2116
  752MOL0     C99175   2.555   9.831   2.729  0.5155  0.1110  0.7288
  752MOL0    Cl99176   2.610   9.664   2.747 -0.1016 -0.1824 -0.1727
  752MOL0     C99177   2.735  10.799   3.040  0.6290 -0.1956  0.5791
  752MOL0     C99178   2.711  10.909   3.120  0.5030  0.2771 -1.1755
  752MOL0     O99179   2.500  10.979   3.365 -0.2464  0.0221  0.4613
  752MOL0     C99180   2.434  11.243   3.433  0.2795  0.4462 -0.7036
  752MOL0     C99181   2.413  11.358   3.513 -0.3855  1.2986  0.3799
  752MOL0     N99182   2.067  11.584   3.523 -0.2876 -0.1103  0.5394
  752MOL0     N99183   1.991  11.488   3.499 -0.4118  1.0046 -0.3269
  752MOL0     C99184   1.459  11.597   4.463  0.6169  0.2890 -0.0738
  752MOL0     C99185   1.521  11.601   4.596  0.3388  0.7636 -0.3271
  752MOL0     C99186   1.843  11.480   4.917  0.5526  0.1854  0.4266
  752MOL0     C99187   1.910  11.608   4.899 -0.1863  0.3100  0.2521
  752MOL0     C99188   1.971  11.661   5.009  0.2476  0.2082 -0.7635
  752MOL0     C99189   1.986  11.583   5.134 -0.1378 -1.0073 -0.6276
  752MOL0     O99190   2.050  11.641   5.240  0.4318 -0.2057  0.1298
  752MOL0     C99191   2.171  11.716   5.229 -0.5410  0.1371  0.7871
  752MOL0     C99192   2.168  11.842   5.310 -0.0629  0.2234  0.2172
  752MOL0     C99193   2.078  11.954   5.248 -0.2156 -1.2374  1.0666
  752MOL0     C99194   2.062  12.056   5.354 -0.9848  0.4769 -1.2847
  752MOL0     C99195   1.981  12.172   5.321  0.5455  0.7454 -0.4209
  752MOL0     C99196   1.930  12.276   5.297  0.0343 -0.3455 -0.9541
  752MOL0     C99197   1.954  11.450   5.138  0.4902  0.0240 -0.2049
  752MOL0     C99198   1.870  11.405   5.033 -0.4306 -0.8127  0.8994
  752MOL0     H99199   1.751  11.344   4.540 -0.1444 -0.8678 -0.3256
  752MOL0     H99200   1.627  11.317   4.353  2.9615  0.1006  1.3967
  752MOL0     H99201   1.597  11.429   4.128 -1.1230 -0.8240 -0.5159
  752MOL0     H99202   1.461  11.495   4.051  1.2274 -2.3832 -1.2017
  752MOL0     H99203   1.327  11.297   4.110 -0.2262 -2.7269  2.4659
  752MOL0     H99204   1.464  11.235   4.206  4.8554 -0.3327 -1.1746
  752MOL0     H99205   1.476  11.103   4.023 -2.1102  0.0247 -0.0615
  752MOL0     H99206   1.614  11.210   4.034  0.0799  1.8596  0.8232
  752MOL0     H99207   1.351  11.270   3.875 -0.8496  2.5479 -0.1711
  752MOL0     H99208   1.496  11.366   3.876  2.5148 -1.2681  3.4342
  752MOL0     H99209   1.473  11.245   3.662 -0.2665 -1.1470 -0.6790
  752MOL0     H99210   1.476  11.096   3.752  1.0635 -1.0305  0.1543
  752MOL0     H99211   1.680  11.157   3.629 -3.0311 -0.9031  0.4527
  752MOL0     H99212   1.709  11.128   3.800  2.2301  1.8483 -0.1715
  752MOL0     H99213   1.660  11.408   3.667  1.9702  0.9995 -1.0537
  752MOL0     H99214   1.752  11.387   3.816  3.0690 -0.4395 -0.6656
  752MOL0     H99215   1.826  11.291   3.532  0.1085  2.4033 -1.5227
  752MOL0     H99216   1.920  11.248   3.667 -0.3139 -0.4498 -2.0048
  752MOL0     H99217   1.904  11.581   3.797 -2.2932 -1.1412 -0.9463
  752MOL0     H99218   2.042  11.831   3.743  0.6472  0.3223 -0.5679
  752MOL0     H99219   2.178  11.814   3.643  0.0565  1.2585  1.2173
  752MOL0     H99220   2.127  11.665   3.907 -0.4677  5.4692  0.6895
  752MOL0     H99221   2.227  11.792   3.873  0.3920 -1.1783  0.9012
  752MOL0     H99222   2.366  11.586   3.896  2.1434 -1.1662 -1.1189
  752MOL0     H99223   2.256  11.494   3.792 -0.6410  0.0007  0.0884
  752MOL0     H99224   2.437  11.715   3.686 -1.3890  0.0649  0.3183
  752MOL0     H99225   2.335  11.613   3.589  0.2899  0.8798 -1.6212
  752MOL0     H99226   2.718  11.387   3.657 -2.1425  0.0503  1.7360
  752MOL0     H99227   2.750  11.181   3.512 -3.4127 -4.5092 -1.9569
  752MOL0     H99228   2.789  10.754   3.419 -0.1407 -1.1966  0.8865
  752MOL0     H99229   2.823  10.572   3.281  4.6759  0.5461  0.4145
  752MOL0     H99230   2.614  10.415   3.048 -1.3329 -0.6574  2.2829
  752MOL0     H99231   2.754  10.392   3.158 -2.5308  0.4543  0.6039
  752MOL0     H99232   2.862  10.350   2.918  0.9330 -0.3032 -0.5892
  752MOL0     H99233   2.683  10.325   2.868 -1.4024  4.3848  0.4305
  752MOL0     H99234   2.669  10.156   3.033  0.0092  1.3767  0.4646
  752MOL0     H99235   2.843  10.182   3.070 -0.8975 -1.7075  0.2764
  752MOL0     H99236   2.717  10.088   2.799 -0.0405 -0.6326 -1.2290
  752MOL0     H99237   2.890  10.103   2.825 -0.3106 -0.3165  0.6448
  752MOL0     H99238   2.852   9.918   3.018 -0.2084  1.3539  1.3249
  752MOL0     H99239   2.828   9.872   2.853  0.4324 -0.3777  0.2501
  752MOL0     H99240   2.612   9.947   3.054 -0.0692 -2.1698  0.5044
  752MOL0     H99241   2.644   9.784   2.992  0.2532 -1.1568 -1.9042
  752MOL0     H99242   2.435   9.860   2.903 -0.7570  0.9388  0.1344
  752MOL0     H99243   2.507  10.008   2.840 -2.3995 -0.5296 -0.3803
  752MOL0     H99244   2.615   9.895   2.664 -1.6430 -0.8882 -2.4300
  752MOL0     H99245   2.463   9.829   2.672  1.1777 -0.2509 -0.3489
  752MOL0     H99246   2.710  10.798   2.935  2.2198  0.4810  0.1622
  752MOL0     H99247   2.668  11.001   3.081 -3.1977 -1.5454 -1.8641
  752MOL0     H99248   2.343  11.214   3.381 -1.1071  2.5430  0.3933
  752MOL0     H99249   2.318  11.411   3.509 -1.4850 -0.6333 -0.8808
  752MOL0     H99250   1.390  11.676   4.435  1.4134  2.3074  3.1704
  752MOL0     H99251   1.505  11.684   4.663 -2.9600  0.5597 -0.7220
  752MOL0     H99252   1.897  11.656   4.802  1.6079  0.3751  0.0000
  752MOL0     H99253   2.010  11.762   5.008  0.9895  0.1267  3.1253
  752MOL0     H99254   2.190  11.745   5.125 -3.1405 -0.1165  0.1670
  752MOL0     H99255   2.257  11.656   5.261 -0.2590  1.2721  2.2328
  752MOL0     H99256   2.131  11.813   5.409  0.4919 -0.1945  0.3047
  752MOL0     H99257   2.272  11.873   5.318  0.1465 -0.4394  0.1566
  752MOL0     H99258   1.981  11.914   5.217  0.5382 -1.2701 -1.5119
  752MOL0     H99259   2.131  11.993   5.160 -0.7048 -1.4918  0.6511
  752MOL0     H99260   2.026  12.018   5.450  0.6362  1.2839 -0.3049
  752MOL0     H99261   2.164  12.095   5.364 -0.6148 -0.8358  0.9019
  752MOL0     H99262   1.890  12.374   5.282 -2.0429 -1.5137 -4.0372
  752MOL0     H99263   1.951  11.400   5.235 -0.4889 -1.8421 -1.1441
  752MOL0     H99264   1.839  11.302   5.041 -0.5078 -1.2615 -3.2844
  753MOL0     O99265   2.491   4.560   3.116 -0.6333  1.1336  0.2225
  753MOL0     C99266   2.384   4.615   3.121  0.8246  0.3693  0.1591
  753MOL0     O99267   2.294   4.618   3.021  0.0627  0.0433  0.1932
  753MOL0     C99268   2.331   4.576   2.895  0.4405  0.5877  1.1340
  753MOL0     C99269   2.414   4.475   2.854  0.8670  0.0892 -0.5227
  753MOL0     C99270   2.438   4.452   2.720 -0.9384  0.1160 -0.2996
  753MOL0     C99271   2.385   4.545   2.617 -0.2794  0.0279  0.0863
  753MOL0     O99272   2.389   4.515   2.489 -0.1704 -0.2695 -0.1075
  753MOL0     C99273   2.529   4.513   2.443 -0.5917 -0.1589  1.5362
  753MOL0     C99274   2.567   4.662   2.409 -0.8040  0.1065  0.0128
  753MOL0     C99275   2.701   4.670   2.339 -0.2294  0.2305  0.8740
  753MOL0     C99276   2.690   4.658   2.179 -0.0545 -0.5937  0.2174
  753MOL0     C99277   2.822   4.620   2.120 -1.5237 -1.1764  0.4771
  753MOL0     C99278   2.956   4.696   2.162  0.0797 -0.4334  0.9856
  753MOL0     C99279   3.077   4.622   2.104  0.2423 -0.8784  0.4497
  753MOL0     C99280   3.194   4.680   2.186  0.8315  0.0443 -0.4486
  753MOL0     N99281   3.180   4.637   2.327  0.7645  0.9845  0.0667
  753MOL0     C99282   3.154   4.716   2.433  0.1980  0.1072 -0.1013
  753MOL0     C99283   3.139   4.631   2.537  0.7481 -0.7428  0.8763
  753MOL0     C99284   3.122   4.655   2.677 -0.1358  0.8189 -0.6286
  753MOL0     C99285   3.246   4.733   2.726  0.1368 -0.0607 -1.1257
  753MOL0     C99286   3.227   4.744   2.881  0.4294  0.3593 -0.0619
  753MOL0     C99287   3.350   4.824   2.939  0.1699  0.3520  0.3647
  753MOL0     O99288   3.351   4.959   2.900  0.1522 -0.1023 -0.5413
  753MOL0     C99289   3.254   5.046   2.948  0.4273  0.6393 -0.2531
  753MOL0     C99290   3.236   5.164   2.873  0.5924  0.2915 -0.5370
  753MOL0     C99291   3.140   5.255   2.919  0.2007  1.0289  0.3444
  753MOL0     C99292   3.069   5.234   3.035 -0.2091 -0.3014 -0.2268
  753MOL0     C99293   2.975   5.326   3.097  1.0338 -0.1282  0.5919
  753MOL0     O99294   2.914   5.402   3.002  0.4925 -0.2675  0.4838
  753MOL0     C99295   2.828   5.497   3.049  0.1262 -0.4247  0.3999
  753MOL0     C99296   2.689   5.482   3.046 -0.2825  0.2601 -0.3357
  753MOL0     C99297   2.595   5.577   3.104  0.9868 -0.7029  0.4399
  753MOL0     C99298   2.655   5.690   3.173 -0.1258 -0.4496  0.6786
  753MOL0     O99299   2.565   5.785   3.220  0.4060 -0.8654 -0.3970
  753MOL0     C99300   2.601   5.860   3.339  0.8651  0.1945  0.0274
  753MOL0     C99301   2.480   5.933   3.394  0.8286 -0.6957  0.3700
  753MOL0     C99302   2.500   6.015   3.515  0.0273 -0.2075 -0.7434
  753MOL0     C99303   2.377   6.064   3.591 -1.0414 -0.3975 -0.2362
  753MOL0     C99304   2.269   5.957   3.632 -0.4466  0.3163  0.1212
  753MOL0     C99305   2.133   6.020   3.589  0.1018 -0.6578  0.3444
  753MOL0     C99306   2.121   6.029   3.437 -0.3056 -0.2686 -0.3265
  753MOL0     C99307   1.978   6.068   3.384  0.2732 -0.6927 -0.0680
  753MOL0    Cl99308   1.853   5.945   3.430 -0.6484 -0.2134 -0.2633
  753MOL0     C99309   2.797   5.708   3.171  0.6067  0.1042 -0.5983
  753MOL0     C99310   2.877   5.611   3.110  0.0565 -0.1954 -0.4680
  753MOL0     O99311   2.951   5.317   3.213  0.2664 -0.3022  0.4991
  753MOL0     C99312   3.103   5.123   3.114  0.2380 -0.0478  0.0293
  753MOL0     C99313   3.186   5.024   3.062  1.2656 -0.5543  0.8153
  753MOL0     N99314   3.160   4.499   2.492  0.3743 -0.5393  0.2933
  753MOL0     N99315   3.180   4.508   2.366 -0.5253  0.3577  0.2969
  753MOL0     C99316   2.313   4.654   2.656 -0.1615 -0.0465  0.4108
  753MOL0     C99317   2.279   4.660   2.798  0.5265 -0.4825  1.0816
  753MOL0     C99318   2.335   4.675   3.248 -0.5277 -0.4248 -0.1954
  753MOL0     C99319   2.420   4.722   3.346 -0.9710  0.3476  0.3526
  753MOL0     C99320   2.378   4.789   3.465  0.7961 -0.1694  0.5033
  753MOL0     C99321   2.244   4.789   3.494 -0.1166 -0.7475  0.5597
  753MOL0     O99322   2.184   4.852   3.602  0.6882  0.0431 -0.0357
  753MOL0     C99323   2.271   4.903   3.708 -1.5323  0.6190 -0.1803
  753MOL0     C99324   2.188   4.937   3.833 -0.2609  0.4045  0.2007
  753MOL0     C99325   2.158   5.085   3.828 -0.4633 -1.1632  0.0232
  753MOL0     C99326   2.049   5.123   3.730  0.5624 -0.3347 -0.1184
  753MOL0     C99327   1.917   5.057   3.751 -0.5399 -1.1073 -0.0573
  753MOL0     C99328   1.811   5.018   3.747 -0.0517 -0.6302 -0.2347
  753MOL0     C99329   2.154   4.739   3.397 -0.0807  0.4496  0.1898
  753MOL0     C99330   2.204   4.681   3.279  0.5976  0.1474 -0.1033
  753MOL0     H99331   2.474   4.417   2.923  2.1019 -1.8548 -3.0673
  753MOL0     H99332   2.509   4.375   2.693 -2.5513 -1.1099 -1.2013
  753MOL0     H99333   2.538   4.449   2.354 -0.5991  0.8362  0.8014
  753MOL0     H99334   2.600   4.475   2.518  0.0230 -1.4964  0.3344
  753MOL0     H99335   2.566   4.723   2.500 -0.3250  0.2464 -0.0746
  753MOL0     H99336   2.498   4.719   2.348 -1.4649  1.4978  1.9579
  753MOL0     H99337   2.767   4.588   2.370 -0.3897 -1.0078 -1.7937
  753MOL0     H99338   2.750   4.764   2.363 -0.1933  1.0105 -1.9029
  753MOL0     H99339   2.614   4.587   2.146  0.8081 -2.1044  1.3523
  753MOL0     H99340   2.661   4.757   2.144  2.2441  0.5306  1.2657
  753MOL0     H99341   2.807   4.637   2.013 -1.3672 -1.7854  0.3526
  753MOL0     H99342   2.851   4.515   2.134 -1.2441 -1.2736 -0.7448
  753MOL0     H99343   2.958   4.696   2.272  1.7548  6.3804  1.4092
  753MOL0     H99344   2.966   4.798   2.123 -2.9269 -0.8096 -1.0825
  753MOL0     H99345   3.067   4.516   2.129 -1.8622 -0.6106  0.9638
  753MOL0     H99346   3.095   4.635   1.997 -2.0854 -0.4251  0.0549
  753MOL0     H99347   3.198   4.788   2.166 -0.7293  0.2349  0.1205
  753MOL0     H99348   3.291   4.643   2.153  1.1721  1.4043 -1.0331
  753MOL0     H99349   3.152   4.824   2.446  2.0423  0.1351  0.2592
  753MOL0     H99350   3.101   4.558   2.724 -2.2606  1.1127 -0.8670
  753MOL0     H99351   3.031   4.711   2.696 -0.6118 -0.0676 -0.2214
  753MOL0     H99352   3.261   4.832   2.682  0.0258  0.4829  0.0115
  753MOL0     H99353   3.330   4.671   2.695  1.0043 -0.2894  1.4634
  753MOL0     H99354   3.128   4.782   2.910  0.2465 -0.4102  0.3422
  753MOL0     H99355   3.221   4.643   2.922  1.7429  0.3931  0.2461
  753MOL0     H99356   3.442   4.784   2.895  1.3093  1.2135  1.8610
  753MOL0     H99357   3.350   4.814   3.048 -3.4173  0.2530  0.4693
  753MOL0     H99358   3.305   5.177   2.790  0.3740  0.6559 -0.6622
  753MOL0     H99359   3.118   5.341   2.857 -0.3774 -0.7972 -2.1642
  753MOL0     H99360   2.659   5.386   3.004 -0.3390  0.1363 -0.0184
  753MOL0     H99361   2.487   5.567   3.099  1.0821 -2.6516  1.6382
  753MOL0     H99362   2.678   5.935   3.315 -0.5032  0.5533 -3.8389
  753MOL0     H99363   2.634   5.786   3.412  0.0549 -2.6620 -2.3067
  753MOL0     H99364   2.403   5.856   3.407  1.9601 -1.4560  3.5925
  753MOL0     H99365   2.434   5.997   3.318 -0.3915 -3.3688 -1.3202
  753MOL0     H99366   2.556   6.102   3.479 -3.6979  1.8202 -2.1520
  753MOL0     H99367   2.564   5.964   3.588 -0.5331  0.7450  0.4445
  753MOL0     H99368   2.403   6.097   3.692  0.4062  0.3796 -0.8327
  753MOL0     H99369   2.334   6.153   3.545 -0.2949  0.7266  1.1682
  753MOL0     H99370   2.276   5.921   3.735 -1.5775  0.1888  0.1580
  753MOL0     H99371   2.284   5.863   3.577 -0.4301 -0.9904  2.2411
  753MOL0     H99372   2.134   6.125   3.622 -1.0064 -0.7409  0.6820
  753MOL0     H99373   2.053   5.966   3.641  0.9447 -0.8450  1.4643
  753MOL0     H99374   2.197   6.101   3.405 -0.1050 -1.0379 -1.6695
  753MOL0     H99375   2.153   5.933   3.395 -0.3001 -1.8775  3.0965
  753MOL0     H99376   1.988   6.070   3.275 -0.2824 -2.0104 -0.1585
  753MOL0     H99377   1.946   6.169   3.410 -1.8088 -0.9545 -1.4111
  753MOL0     H99378   2.857   5.785   3.217 -2.1519  1.8982  0.2116
  753MOL0     H99379   2.984   5.623   3.126  0.2455 -2.1164 -0.0646
  753MOL0     H99380   3.064   5.125   3.215  1.9205 -1.0795  0.7439
  753MOL0     H99381   3.191   4.931   3.118  3.7851  1.0083  3.4290
  753MOL0     H99382   2.289   4.724   2.577  5.6125  2.4660  0.3297
  753MOL0     H99383   2.222   4.745   2.833  2.2725  0.1894  2.4943
  753MOL0     H99384   2.526   4.717   3.320 -1.0645 -2.6351  0.1556
  753MOL0     H99385   2.452   4.830   3.533 -1.2219  1.5726  1.7339
  753MOL0     H99386   2.334   4.989   3.682 -3.8638  1.4460 -3.8730
  753MOL0     H99387   2.332   4.817   3.739  1.1147  2.0631 -1.0877
  753MOL0     H99388   2.100   4.873   3.839  1.0125 -1.2965  1.6986
  753MOL0     H99389   2.247   4.922   3.924 -0.4162 -1.6451  0.0215
  753MOL0     H99390   2.238   5.153   3.799 -1.6984  0.9263  1.2492
  753MOL0     H99391   2.130   5.112   3.930  0.5436  0.0996  0.0016
  753MOL0     H99392   2.047   5.232   3.725  1.9698 -0.1916  1.4316
  753MOL0     H99393   2.100   5.104   3.635  4.5399 -0.7597  1.8781
  753MOL0     H99394   1.705   5.005   3.756 -0.0197 -0.6618  0.1292
  753MOL0     H99395   2.045   4.737   3.398 -0.0855 -0.3270  1.8527
  753MOL0     H99396   2.140   4.617   3.220 -0.4372 -0.1297  1.2751
  754MOL0     O99397  10.633   8.047   8.885 -0.4658 -0.3793 -0.7006
  754MOL0     C99398  10.749   8.088   8.869 -0.3042 -0.1858  0.0448
  754MOL0     O99399  10.831   8.135   8.971  0.8099  0.5359 -0.1621
  754MOL0     C99400  10.767   8.157   9.089  0.3825 -0.7168 -0.1452
  754MOL0     C99401  10.721   8.059   9.183  0.2555  0.8524 -0.0839
  754MOL0     C99402  10.672   8.098   9.309 -0.5963 -1.5238 -0.1228
  754MOL0     C99403  10.661   8.235   9.336  0.3986 -0.0157 -0.6426
  754MOL0     O99404  10.616   8.292   9.453 -0.5761  0.3562 -0.4944
  754MOL0     C99405  10.485   8.240   9.489  0.2059 -0.0228  0.2505
  754MOL0     C99406  10.453   8.269   9.626 -0.3488  0.0750 -0.1952
  754MOL0     C99407  10.406   8.422   9.614  0.3137  0.2537 -0.1949
  754MOL0     C99408  10.348   8.471   9.751 -0.1373 -0.2738  0.1914
  754MOL0     C99409  10.456   8.532   9.847 -0.0912 -0.4449  0.2288
  754MOL0     C99410  10.572   8.438   9.887 -0.2936  0.8278 -1.0144
  754MOL0     C99411  10.528   8.319   9.977  0.4829  0.2567 -0.0640
  754MOL0     C99412  10.408   8.352  10.068  0.2098 -0.4389  0.4123
  754MOL0     N99413  10.446   8.441  10.175  0.2836  0.1357  0.8268
  754MOL0     C99414  10.555   8.431  10.253  0.0956 -0.5130 -0.6687
  754MOL0     C99415  10.556   8.543  10.320 -0.3896 -0.8435  0.2527
  754MOL0     C99416  10.649   8.580  10.429 -0.2839  0.4676 -0.6420
  754MOL0     C99417  10.741   8.695  10.408 -0.1178  0.0260  0.2649
  754MOL0     C99418  10.836   8.721  10.520 -0.4285 -0.0173  0.3157
  754MOL0     C99419  10.890   8.864  10.523 -0.4041 -0.0344  0.4270
  754MOL0     O99420  10.958   8.899  10.402 -0.2116  0.0811  0.6781
  754MOL0     C99421  11.091   8.893  10.407  0.2711  0.2509  0.8584
  754MOL0     C99422  11.160   8.809  10.319  0.4898  0.6032  0.3192
  754MOL0     C99423  11.299   8.822  10.302 -0.2049  0.4746 -0.4066
  754MOL0     C99424  11.373   8.914  10.377  1.2744  0.0457  0.5487
  754MOL0     C99425  11.521   8.929  10.361  0.0615  0.4437  0.9565
  754MOL0     O99426  11.584   8.849  10.269 -0.2474  0.3448  0.1619
  754MOL0     C99427  11.689   8.902  10.203 -0.0036  0.0643 -0.4571
  754MOL0     C99428  11.819   8.903  10.256 -0.1583 -1.2786 -0.6899
  754MOL0     C99429  11.926   8.963  10.190  0.3815  0.7882 -1.1433
  754MOL0     C99430  11.897   9.007  10.063  0.0467  0.4387 -0.0832
  754MOL0     O99431  12.001   9.062  10.000 -0.9551 -0.5806  0.6486
  754MOL0     C99432  11.997   9.205   9.981  0.0964  0.3980 -0.6229
  754MOL0     C99433  12.068   9.237   9.849  0.7323 -0.8470  0.4331
  754MOL0     C99434  11.991   9.241   9.706 -0.1553 -0.5849  0.8586
  754MOL0     C99435  12.088   9.245   9.584 -0.0441  0.6841 -0.3728
  754MOL0     C99436  12.014   9.218   9.452  0.7917 -0.9305 -0.4535
  754MOL0     C99437  11.925   9.329   9.394  0.4008  0.3394  0.3218
  754MOL0     C99438  11.837   9.282   9.280  0.7725  1.0072 -0.2267
  754MOL0     C99439  11.708   9.372   9.260  0.3602 -0.6361  0.3956
  754MOL0    Cl99440  11.618   9.298   9.130  0.2308 -0.3568 -0.5698
  754MOL0     C99441  11.767   9.000  10.001 -1.6005  0.5837 -0.0104
  754MOL0     C99442  11.668   8.935  10.070  1.1964 -0.8262  1.2005
  754MOL0     O99443  11.579   9.025  10.422  0.8776 -0.0132  0.2938
  754MOL0     C99444  11.301   8.998  10.463 -0.0238  0.7532  0.7877
  754MOL0     C99445  11.165   8.987  10.476 -0.7336 -0.0557  0.2043
  754MOL0     N99446  10.446   8.625  10.287 -0.1759 -0.4294 -0.4412
  754MOL0     N99447  10.378   8.550  10.205  0.1423 -0.2502  0.3744
  754MOL0     C99448  10.694   8.327   9.239 -0.0813  0.6967  0.1009
  754MOL0     C99449  10.757   8.290   9.122 -0.5117  0.5745 -0.2130
  754MOL0     C99450  10.824   8.080   8.737 -0.5067 -0.1993  0.1620
  754MOL0     C99451  10.764   8.042   8.623  0.5365  0.0618  0.4242
  754MOL0     C99452  10.820   8.076   8.502 -0.4054 -0.1373 -0.5258
  754MOL0     C99453  10.948   8.133   8.496 -0.1611 -1.3197 -0.6010
  754MOL0     O99454  10.983   8.160   8.365  0.2139 -0.5546 -0.1968
  754MOL0     C99455  11.124   8.172   8.345 -0.7381 -0.5432 -0.3436
  754MOL0     C99456  11.164   8.234   8.210  0.7344  0.5153 -1.1658
  754MOL0     C99457  11.298   8.190   8.142  1.1489  0.6579  0.6165
  754MOL0     C99458  11.289   8.220   7.991  0.1579  0.1622  0.3769
  754MOL0     C99459  11.289   8.360   7.946  0.2525 -0.1677 -0.4481
  754MOL0     C99460  11.291   8.469   7.890 -0.6129  0.3974 -0.1704
  754MOL0     C99461  11.024   8.145   8.613  0.7834  0.6586 -0.6432
  754MOL0     C99462  10.956   8.137   8.733 -0.5324  0.3941  0.7396
  754MOL0     H99463  10.732   7.952   9.168  5.1270  1.4117 -2.2931
  754MOL0     H99464  10.623   8.030   9.378 -2.8220  1.6376  1.6604
  754MOL0     H99465  10.490   8.130   9.484  2.2979  0.0870 -1.7848
  754MOL0     H99466  10.419   8.290   9.417  1.4271  2.8732  1.0072
  754MOL0     H99467  10.543   8.257   9.688  0.8447 -2.0740 -2.1721
  754MOL0     H99468  10.378   8.194   9.650 -0.1854 -1.0150 -2.7225
  754MOL0     H99469  10.326   8.430   9.541  1.0200 -0.7390 -1.1075
  754MOL0     H99470  10.482   8.493   9.579 -1.9340  1.6313 -2.6095
  754MOL0     H99471  10.265   8.540   9.734 -1.7418 -1.6692  1.8889
  754MOL0     H99472  10.311   8.379   9.797 -1.8917  0.5287  0.4587
  754MOL0     H99473  10.404   8.570   9.936 -1.0501 -0.8843 -0.1312
  754MOL0     H99474  10.502   8.618   9.797 -0.7403 -1.3744 -2.1025
  754MOL0     H99475  10.661   8.487   9.929  0.8071  0.2191 -2.5198
  754MOL0     H99476  10.620   8.402   9.796  0.2191  1.0011 -0.8197
  754MOL0     H99477  10.499   8.235   9.913 -2.1183  1.0478 -0.0478
  754MOL0     H99478  10.609   8.284  10.042  0.5054  0.3325 -0.0513
  754MOL0     H99479  10.369   8.261  10.115 -2.3088  0.6854  0.6815
  754MOL0     H99480  10.318   8.402  10.031 -0.8740 -0.9468  2.2080
  754MOL0     H99481  10.642   8.366  10.259  2.2173  2.2736  1.4164
  754MOL0     H99482  10.704   8.490  10.454 -1.8451 -0.0641  1.1111
  754MOL0     H99483  10.592   8.593  10.522 -1.9118 -2.5388 -1.0986
  754MOL0     H99484  10.679   8.785  10.412  0.6345  0.5432  0.4443
  754MOL0     H99485  10.795   8.675  10.315  0.4864 -1.4061  0.8950
  754MOL0     H99486  10.790   8.699  10.617  2.2593 -1.1973  1.4424
  754MOL0     H99487  10.920   8.651  10.517  1.2156  1.8763 -2.4936
  754MOL0     H99488  10.949   8.868  10.615 -0.2707 -0.0469  0.3412
  754MOL0     H99489  10.806   8.935  10.527 -2.2459 -1.9610 -1.5288
  754MOL0     H99490  11.103   8.744  10.253  1.9984  1.3353 -1.8470
  754MOL0     H99491  11.352   8.748  10.242 -1.4195 -0.7207 -0.0572
  754MOL0     H99492  11.833   8.867  10.357 -1.4434 -1.9239 -0.7206
  754MOL0     H99493  12.027   8.981  10.223  0.2377  3.8771 -2.0718
  754MOL0     H99494  12.050   9.255  10.063 -2.0690  0.4947  0.8034
  754MOL0     H99495  11.900   9.256   9.982  1.3199  2.8884 -1.1544
  754MOL0     H99496  12.143   9.157   9.842  1.1229 -0.6129  1.6292
  754MOL0     H99497  12.116   9.334   9.864 -0.1063 -0.7211  2.6635
  754MOL0     H99498  11.912   9.317   9.703 -0.4663 -0.8433 -3.7629
  754MOL0     H99499  11.946   9.142   9.716  0.1330 -0.5567  2.9651
  754MOL0     H99500  12.128   9.347   9.580  2.7057 -0.3423 -1.6634
  754MOL0     H99501  12.168   9.171   9.587  0.3547  0.8988 -2.9014
  754MOL0     H99502  11.966   9.120   9.461 -0.6712 -0.3151 -1.2078
  754MOL0     H99503  12.081   9.197   9.369 -0.0752  0.0595 -1.4422
  754MOL0     H99504  11.991   9.412   9.366  0.7184  0.2534  0.8082
  754MOL0     H99505  11.862   9.370   9.474 -1.0785 -0.4778 -0.3812
  754MOL0     H99506  11.890   9.282   9.184  1.7755 -3.1456  0.1282
  754MOL0     H99507  11.809   9.178   9.297 -1.2197  1.6334  0.5826
  754MOL0     H99508  11.747   9.463   9.213  0.0155 -1.4501 -1.5792
  754MOL0     H99509  11.649   9.400   9.348  0.9777 -2.5565  1.4857
  754MOL0     H99510  11.755   9.037   9.899  1.5128 -0.5309 -0.9004
  754MOL0     H99511  11.566   8.929  10.033  0.7803 -1.4425  2.3887
  754MOL0     H99512  11.345   9.088  10.506 -0.6906 -0.0460  3.3532
  754MOL0     H99513  11.108   9.044  10.550  0.4765 -0.3006  1.3756
  754MOL0     H99514  10.682   8.433   9.258  3.5620  1.5868 -1.6628
  754MOL0     H99515  10.801   8.369   9.062  0.0822 -0.1031 -0.6796
  754MOL0     H99516  10.662   8.005   8.626  0.1269  0.9600 -1.0891
  754MOL0     H99517  10.780   8.049   8.405 -0.8098  0.4359 -0.5204
  754MOL0     H99518  11.176   8.076   8.359 -0.8419 -0.2524  2.6500
  754MOL0     H99519  11.163   8.245   8.417  1.1519  0.6110 -2.4078
  754MOL0     H99520  11.084   8.199   8.144 -0.0376 -3.1645  1.4364
  754MOL0     H99521  11.171   8.341   8.230 -0.7086  0.3694  0.3316
  754MOL0     H99522  11.315   8.084   8.159 -0.4286  0.0900 -1.0511
  754MOL0     H99523  11.375   8.245   8.197 -0.2255  0.1689  3.1904
  754MOL0     H99524  11.376   8.176   7.942 -1.5014 -0.6360 -2.0285
  754MOL0     H99525  11.203   8.167   7.949 -2.0648  1.1796  3.3206
  754MOL0     H99526  11.291   8.571   7.856 -2.7961  1.0722  1.6326
  754MOL0     H99527  11.125   8.184   8.618  1.1999 -0.4915  2.4787
  754MOL0     H99528  11.003   8.178   8.822 -1.3451  1.0648  0.8765
  755MOL0     O99529  11.044   3.831   9.540  0.0426  0.0374 -0.3805
  755MOL0     C99530  11.088   3.934   9.489  1.3488 -0.0716 -1.1475
  755MOL0     O99531  11.170   3.936   9.384 -0.5474 -0.2019 -0.8325
  755MOL0     C99532  11.202   3.818   9.316  0.2311  0.2422  0.3173
  755MOL0     C99533  11.329   3.799   9.268  0.4272 -0.3459  1.0375
  755MOL0     C99534  11.368   3.679   9.204 -0.2794  0.2999  0.9290
  755MOL0     C99535  11.281   3.583   9.166 -0.2714 -0.1356 -0.4172
  755MOL0     O99536  11.312   3.452   9.125 -0.1327 -0.8208  0.2228
  755MOL0     C99537  11.361   3.435   8.995 -0.2944 -1.0545  0.8421
  755MOL0     C99538  11.271   3.317   8.930  0.1309 -0.8060 -0.7894
  755MOL0     C99539  11.293   3.289   8.784  0.4755  0.2510 -0.4265
  755MOL0     C99540  11.441   3.275   8.736  0.2477  0.3393 -1.4429
  755MOL0     C99541  11.451   3.225   8.588 -0.1034 -0.6741  0.6771
  755MOL0     C99542  11.412   3.336   8.490 -0.0962 -0.2608 -0.5323
  755MOL0     C99543  11.408   3.294   8.341  0.0778  0.0509 -0.0841
  755MOL0     C99544  11.308   3.183   8.307  0.5624 -0.3925 -0.1798
  755MOL0     N99545  11.306   3.128   8.169 -0.0887  0.4599 -0.7504
  755MOL0     C99546  11.391   3.040   8.102  0.4518 -1.3509 -0.1299
  755MOL0     C99547  11.373   3.061   7.972  0.9421  0.0280  0.8130
  755MOL0     C99548  11.456   3.002   7.858  0.8748  0.8714 -1.6271
  755MOL0     C99549  11.596   3.048   7.865  0.4583 -0.4732 -0.3318
  755MOL0     C99550  11.610   3.190   7.816  0.6142  0.2806  0.4057
  755MOL0     C99551  11.740   3.256   7.852 -0.7297  0.2049  0.0223
  755MOL0     O99552  11.848   3.195   7.789 -0.0333 -0.6296 -0.3251
  755MOL0     C99553  11.957   3.242   7.842 -0.1182  0.4815 -0.2382
  755MOL0     C99554  12.022   3.340   7.765 -1.4430  0.1991 -0.5144
  755MOL0     C99555  12.141   3.398   7.809  0.6427 -0.0855 -1.0334
  755MOL0     C99556  12.201   3.358   7.928  0.7953 -0.2319 -0.3090
  755MOL0     C99557  12.320   3.430   7.983  0.5091 -0.5946  0.3187
  755MOL0     O99558  12.360   3.534   7.911  0.5608 -0.1316 -0.9386
  755MOL0     C99559  12.470   3.596   7.947  0.5806 -0.2211 -0.4099
  755MOL0     C99560  12.461   3.682   8.052  0.1452 -0.6306  0.4439
  755MOL0     C99561  12.574   3.749   8.086  0.2489  0.3306 -0.4868
  755MOL0     C99562  12.690   3.742   8.017 -0.3153 -0.2911  0.1583
  755MOL0     O99563  12.778   3.844   8.052  0.2226  0.3358 -0.2204
  755MOL0     C99564  12.830   3.918   7.941 -0.7971  0.3324 -1.2076
  755MOL0     C99565  12.928   4.029   7.978  0.1473  0.3437  0.1904
  755MOL0     C99566  12.878   4.125   8.098 -0.6665  0.2223  0.0259
  755MOL0     C99567  12.988   4.223   8.147  0.1120  0.6505 -0.1656
  755MOL0     C99568  12.967   4.362   8.101 -0.1732 -0.1332  0.0837
  755MOL0     C99569  13.041   4.459   8.194 -0.4840  0.3707 -0.1129
  755MOL0     C99570  13.101   4.583   8.134  0.6591  0.1235  0.2871
  755MOL0     C99571  13.261   4.581   8.149  0.2627 -0.7379  0.1847
  755MOL0    Cl99572  13.337   4.441   8.064 -0.1281 -0.2540 -0.4998
  755MOL0     C99573  12.698   3.661   7.904  0.1155 -0.2272 -0.9482
  755MOL0     C99574  12.583   3.578   7.873  0.0824 -0.8075  0.1376
  755MOL0     O99575  12.370   3.383   8.080  0.7689 -0.0732 -0.3033
  755MOL0     C99576  12.132   3.261   8.009  0.0017  0.2325  0.6486
  755MOL0     C99577  12.013   3.206   7.966  0.2467 -0.3321 -1.0558
  755MOL0     N99578  11.272   3.153   7.956 -0.2208 -0.3765  0.7157
  755MOL0     N99579  11.236   3.194   8.078  0.7455  0.2477 -0.4268
  755MOL0     C99580  11.147   3.598   9.204 -0.2716 -0.4471  0.1407
  755MOL0     C99581  11.108   3.705   9.285 -0.0413 -0.5984 -0.3719
  755MOL0     C99582  11.015   4.061   9.534 -0.2969  0.5893 -0.5134
  755MOL0     C99583  11.034   4.184   9.477 -0.4576  0.4809 -0.3673
  755MOL0     C99584  10.965   4.303   9.519  0.2230  0.6182  0.5317
  755MOL0     C99585  10.869   4.298   9.609  0.4715  1.1107 -0.3184
  755MOL0     O99586  10.825   4.427   9.642  0.2612 -0.1680 -0.3787
  755MOL0     C99587  10.696   4.447   9.700 -0.0329  1.0076 -0.2978
  755MOL0     C99588  10.705   4.452   9.860  0.4752  0.0225 -0.3197
  755MOL0     C99589  10.802   4.562   9.904  0.1432  0.5180  1.4306
  755MOL0     C99590  10.829   4.542  10.055 -0.0696  0.5846  0.3504
  755MOL0     C99591  10.849   4.669  10.128  0.3529  0.2107 -0.3523
  755MOL0     C99592  10.884   4.762  10.198 -0.0904  0.0898  0.1734
  755MOL0     C99593  10.827   4.169   9.652 -0.5558  0.4060 -0.5130
  755MOL0     C99594  10.905   4.046   9.619  0.0381 -0.0268  0.1099
  755MOL0     H99595  11.392   3.887   9.277  0.6404 -0.3574 -0.1261
  755MOL0     H99596  11.475   3.661   9.194 -0.0349  2.7707 -3.0836
  755MOL0     H99597  11.465   3.403   8.999 -0.3882 -1.2879  1.4918
  755MOL0     H99598  11.353   3.528   8.938 -1.9640 -0.6266  1.7143
  755MOL0     H99599  11.166   3.346   8.944  0.9075  0.2954  4.9742
  755MOL0     H99600  11.279   3.230   8.996 -0.6240 -1.3629 -1.4071
  755MOL0     H99601  11.252   3.374   8.728  1.3077  0.4044 -0.8193
  755MOL0     H99602  11.236   3.198   8.767  2.2501 -0.8872 -0.5272
  755MOL0     H99603  11.499   3.367   8.737  1.2307 -0.2513 -1.8209
  755MOL0     H99604  11.497   3.204   8.797 -1.0267  1.0102  0.6123
  755MOL0     H99605  11.390   3.136   8.569  1.9096 -2.2811  1.3429
  755MOL0     H99606  11.551   3.191   8.559  0.7285  2.1786 -0.1255
  755MOL0     H99607  11.485   3.416   8.501  0.0286 -0.7457  3.5885
  755MOL0     H99608  11.307   3.357   8.515 -0.5096 -1.5193 -1.1029
  755MOL0     H99609  11.387   3.385   8.284  0.4901  2.8804  3.8677
  755MOL0     H99610  11.508   3.257   8.314  0.2823  0.4058  0.1698
  755MOL0     H99611  11.206   3.220   8.325  0.3938 -1.0275  0.1885
  755MOL0     H99612  11.330   3.099   8.373 -0.9633  0.9489  2.2171
  755MOL0     H99613  11.470   2.974   8.135  0.3284 -1.7703 -0.6730
  755MOL0     H99614  11.416   3.023   7.758  3.4419  1.0678 -2.6800
  755MOL0     H99615  11.451   2.893   7.865 -1.1843  1.0521  2.6589
  755MOL0     H99616  11.646   2.980   7.796 -0.7029 -1.0909 -0.5885
  755MOL0     H99617  11.643   3.031   7.962  2.8351 -0.2618 -1.4001
  755MOL0     H99618  11.590   3.198   7.709  0.8560  1.6500  0.4510
  755MOL0     H99619  11.536   3.252   7.867 -3.3387 -1.2959 -2.9014
  755MOL0     H99620  11.752   3.260   7.961  0.9051 -4.3320  0.2145
  755MOL0     H99621  11.744   3.362   7.826  0.4763  0.1236 -0.1874
  755MOL0     H99622  11.988   3.363   7.665 -0.9216 -1.6664 -1.1552
  755MOL0     H99623  12.197   3.463   7.743  3.6996  0.3841  1.7105
  755MOL0     H99624  12.365   3.685   8.102 -0.5397  2.7573 -0.8344
  755MOL0     H99625  12.570   3.812   8.174 -0.4135 -1.4829  0.8679
  755MOL0     H99626  12.740   3.946   7.885 -1.5241 -0.8004 -0.6255
  755MOL0     H99627  12.893   3.851   7.882  0.5654  0.8741 -0.4178
  755MOL0     H99628  12.938   4.099   7.894  0.7167  0.7857  0.6170
  755MOL0     H99629  13.028   3.989   7.994  1.4261  3.1708 -0.0358
  755MOL0     H99630  12.865   4.055   8.181  2.5405  0.7691  1.1265
  755MOL0     H99631  12.787   4.180   8.071 -1.6289 -1.1120  0.4325
  755MOL0     H99632  12.983   4.226   8.256 -2.1886 -0.5665 -0.1857
  755MOL0     H99633  13.086   4.181   8.119 -1.2671 -3.2648  0.2587
  755MOL0     H99634  12.865   4.401   8.110  0.3592  0.8784  2.8280
  755MOL0     H99635  13.000   4.373   7.997  0.0958  0.3641  0.2169
  755MOL0     H99636  13.132   4.411   8.232 -0.1861  0.6628 -0.4515
  755MOL0     H99637  12.985   4.483   8.285 -3.2679 -1.3133 -1.2581
  755MOL0     H99638  13.069   4.600   8.031 -1.0374  1.1688  0.9343
  755MOL0     H99639  13.062   4.656   8.207 -0.6261 -1.0196  0.7965
  755MOL0     H99640  13.276   4.564   8.256 -2.1016 -1.1958  0.4858
  755MOL0     H99641  13.304   4.678   8.121 -1.2438  0.6054  2.2531
  755MOL0     H99642  12.784   3.678   7.841 -0.1557  2.2603 -0.7332
  755MOL0     H99643  12.576   3.513   7.787  2.0994 -0.9779  0.0484
  755MOL0     H99644  12.179   3.220   8.098 -1.7239  0.8324  1.9029
  755MOL0     H99645  11.968   3.120   8.016  0.8191 -0.2662 -0.4054
  755MOL0     H99646  11.068   3.525   9.186 -1.4912  0.1371  2.6706
  755MOL0     H99647  11.001   3.703   9.304  0.1143 -0.8902  0.5268
  755MOL0     H99648  11.120   4.201   9.413  0.3754 -3.7943 -0.6989
  755MOL0     H99649  10.995   4.401   9.483 -0.1464  1.4148  2.2883
  755MOL0     H99650  10.631   4.366   9.666  1.3819 -0.6215  0.6998
  755MOL0     H99651  10.650   4.540   9.665  3.2079  2.2620 -1.6509
  755MOL0     H99652  10.606   4.463   9.906  1.3020 -0.4552  1.7113
  755MOL0     H99653  10.760   4.364   9.894  1.8937  1.7715  2.3894
  755MOL0     H99654  10.752   4.657   9.883 -0.3670 -0.2834 -1.3995
  755MOL0     H99655  10.898   4.550   9.853 -0.1682 -2.2231  1.3637
  755MOL0     H99656  10.745   4.490  10.101 -0.6553  2.3242  1.3656
  755MOL0     H99657  10.916   4.479  10.073  1.0818  1.8838 -0.4606
  755MOL0     H99658  10.902   4.838  10.272  0.4806 -0.2695  0.4072
  755MOL0     H99659  10.730   4.162   9.701 -1.0116 -0.1691 -1.4797
  755MOL0     H99660  10.873   3.947   9.648 -0.2190 -0.0466 -0.2350
  756MOL0     O99661   9.666   1.832   8.289  0.4751  0.3112 -0.4736
  756MOL0     C99662   9.665   1.947   8.239  0.0347 -0.1085  0.1164
  756MOL0     O99663   9.743   1.972   8.128  0.6544  0.3436 -0.1479
  756MOL0     C99664   9.814   1.869   8.069  0.0844 -0.2654  0.0398
  756MOL0     C99665   9.764   1.737   8.034  0.4903 -0.2104 -0.6707
  756MOL0     C99666   9.834   1.635   7.978 -0.2124 -0.0542  0.2573
  756MOL0     C99667   9.969   1.661   7.941  0.2421 -0.6766 -0.9610
  756MOL0     O99668  10.060   1.586   7.882  0.0711 -0.4350 -0.9115
  756MOL0     C99669  10.025   1.455   7.836  0.7586 -1.0600  0.0841
  756MOL0     C99670  10.145   1.374   7.784 -1.3364  0.3424 -0.7962
  756MOL0     C99671  10.087   1.240   7.759  0.3826  0.7915 -0.1022
  756MOL0     C99672  10.184   1.157   7.670  0.4184  0.5439  0.4874
  756MOL0     C99673  10.320   1.121   7.724 -0.0650 -0.3405  0.6444
  756MOL0     C99674  10.305   1.048   7.856  0.3230  0.3990 -0.4999
  756MOL0     C99675  10.442   1.047   7.933  1.1701 -0.0669  0.9434
  756MOL0     C99676  10.464   0.925   8.028  0.2775  0.6454 -0.3886
  756MOL0     N99677  10.400   0.956   8.158  0.0889 -0.0021 -1.2854
  756MOL0     C99678  10.278   0.900   8.197 -0.1093  0.0494  0.0406
  756MOL0     C99679  10.268   0.932   8.326 -1.0808  0.3396  1.1202
  756MOL0     C99680  10.169   0.870   8.415  0.7089 -0.5026 -0.3672
  756MOL0     C99681  10.072   0.970   8.466 -0.7480 -0.5365 -0.2199
  756MOL0     C99682   9.985   0.898   8.570  0.4335  0.1869 -0.4996
  756MOL0     C99683   9.889   1.000   8.653 -1.7278  0.0114  0.4075
  756MOL0     O99684   9.781   0.932   8.721 -0.1735  0.4062  0.1458
  756MOL0     C99685   9.666   0.992   8.771 -0.8867 -0.5776 -0.2466
  756MOL0     C99686   9.661   1.130   8.787 -0.3588  0.2264  0.1071
  756MOL0     C99687   9.538   1.194   8.818  0.1512  0.0134 -0.7909
  756MOL0     C99688   9.424   1.119   8.841  0.6982  0.4751  0.6531
  756MOL0     C99689   9.297   1.195   8.883 -0.9280 -0.5256 -0.6600
  756MOL0     O99690   9.307   1.331   8.884  0.4248 -0.1885  0.3526
  756MOL0     C99691   9.196   1.405   8.899  0.4160  0.3996  0.0298
  756MOL0     C99692   9.059   1.370   8.862  0.4664 -0.4910  0.0795
  756MOL0     C99693   8.949   1.443   8.909  0.3546  0.3657 -0.5202
  756MOL0     C99694   8.966   1.559   8.985 -0.7662  0.3035  0.6288
  756MOL0     O99695   8.871   1.652   9.016 -0.0425 -0.2169  0.2376
  756MOL0     C99696   8.735   1.618   9.001 -0.1158  0.5296  0.1147
  756MOL0     C99697   8.643   1.716   9.074 -0.6561  0.0696  0.4033
  756MOL0     C99698   8.663   1.860   9.031  0.2910  0.7531  0.4470
  756MOL0     C99699   8.533   1.952   9.021 -0.6187  0.8708  0.1630
  756MOL0     C99700   8.497   2.029   9.144  0.7970 -0.4527 -0.1453
  756MOL0     C99701   8.591   2.151   9.167  0.4945  0.5387  0.0060
  756MOL0     C99702   8.531   2.242   9.269  0.1679 -0.5786  0.0135
  756MOL0     C99703   8.626   2.353   9.304 -0.6315 -0.2159 -1.0066
  756MOL0    Cl99704   8.543   2.450   9.443 -0.2138 -0.3467 -0.1674
  756MOL0     C99705   9.100   1.591   9.016  0.1830  0.3177  0.1711
  756MOL0     C99706   9.206   1.520   8.970  0.0831  0.1437 -0.5421
  756MOL0     O99707   9.202   1.134   8.934 -0.4640  0.9288  1.1522
  756MOL0     C99708   9.428   0.983   8.840 -0.2225 -0.2875 -0.5859
  756MOL0     C99709   9.550   0.918   8.801  0.9920  0.7591 -0.7436
  756MOL0     N99710  10.376   1.012   8.366  0.7770  0.0609  0.3693
  756MOL0     N99711  10.448   1.034   8.263 -0.4132 -0.2560 -0.0124
  756MOL0     C99712  10.014   1.794   7.963 -0.0522 -0.0720  0.0822
  756MOL0     C99713   9.940   1.898   8.020  0.5600 -0.3350 -0.2506
  756MOL0     C99714   9.595   2.052   8.303  0.8753 -0.7633  1.0612
  756MOL0     C99715   9.597   2.186   8.242 -0.5471 -0.7207 -0.1488
  756MOL0     C99716   9.538   2.297   8.306  0.6077  0.8214  0.4635
  756MOL0     C99717   9.464   2.271   8.427  0.2366 -0.0902  1.0232
  756MOL0     O99718   9.411   2.385   8.481  0.5558 -0.3689  0.0679
  756MOL0     C99719   9.305   2.381   8.571  0.7385  0.3383  0.1455
  756MOL0     C99720   9.177   2.348   8.500  0.2922 -0.2680 -0.0934
  756MOL0     C99721   9.125   2.456   8.402 -0.3792  0.2603 -0.1057
  756MOL0     C99722   8.992   2.408   8.328  0.2895  0.6877 -0.8695
  756MOL0     C99723   8.886   2.361   8.422  0.5245  0.4709  0.1817
  756MOL0     C99724   8.788   2.326   8.483  0.9358 -0.3351  0.4034
  756MOL0     C99725   9.452   2.134   8.475 -0.6813 -0.0745  0.0912
  756MOL0     C99726   9.515   2.029   8.416  0.8796  0.3451 -0.8406
  756MOL0     H99727   9.658   1.721   8.053  0.2666 -1.1758 -2.5353
  756MOL0     H99728   9.792   1.537   7.958 -2.5310  0.9089  0.0475
  756MOL0     H99729   9.946   1.459   7.761 -0.8799 -2.8905  1.5978
  756MOL0     H99730   9.992   1.386   7.915 -0.1450 -0.8568 -0.1031
  756MOL0     H99731  10.227   1.376   7.856 -0.9490  3.7529 -1.1708
  756MOL0     H99732  10.175   1.423   7.691 -1.6364  2.6005  0.2264
  756MOL0     H99733   9.993   1.250   7.704 -1.8847  0.2710  3.3571
  756MOL0     H99734  10.060   1.197   7.856 -1.2303  0.6405 -0.5968
  756MOL0     H99735  10.146   1.056   7.653  0.8540  0.4834 -0.1674
  756MOL0     H99736  10.202   1.195   7.569 -0.7274 -1.3808 -0.5166
  756MOL0     H99737  10.374   1.214   7.741 -2.9135  1.6372 -0.3803
  756MOL0     H99738  10.372   1.060   7.649  0.9093  2.1993 -0.8624
  756MOL0     H99739  10.273   0.946   7.831 -1.3228  1.1862 -1.7839
  756MOL0     H99740  10.227   1.086   7.923 -0.0120  1.6916 -1.5767
  756MOL0     H99741  10.519   1.029   7.856 -1.8492  0.6206 -2.4977
  756MOL0     H99742  10.449   1.142   7.986 -1.1193  0.8870 -0.3257
  756MOL0     H99743  10.569   0.896   8.033  0.7429  2.1460 -0.9770
  756MOL0     H99744  10.410   0.846   7.974  2.3455 -1.9424  1.1273
  756MOL0     H99745  10.222   0.827   8.140 -1.6170  0.5612  0.8094
  756MOL0     H99746  10.216   0.845   8.511 -0.1517 -1.9895 -0.3005
  756MOL0     H99747  10.118   0.788   8.362  1.0949 -1.6870  1.0107
  756MOL0     H99748  10.018   0.998   8.375  1.3460  3.6925 -0.4071
  756MOL0     H99749  10.125   1.059   8.500  3.2209 -1.3752 -3.3574
  756MOL0     H99750   9.920   0.838   8.505  1.5611 -0.2069 -1.2971
  756MOL0     H99751  10.052   0.843   8.636 -1.8542  1.5919  3.3124
  756MOL0     H99752   9.843   1.069   8.581  3.7707  1.0320 -2.7440
  756MOL0     H99753   9.961   1.042   8.724  0.9087  0.1291 -2.1331
  756MOL0     H99754   9.750   1.191   8.773 -1.2858  1.4613 -0.6079
  756MOL0     H99755   9.526   1.302   8.824 -1.1796 -0.2191  2.4422
  756MOL0     H99756   9.044   1.288   8.792  3.1720 -1.3429  0.3747
  756MOL0     H99757   8.848   1.416   8.881 -0.4399 -1.9037  3.7462
  756MOL0     H99758   8.716   1.517   9.039 -0.4421  0.6832  0.3591
  756MOL0     H99759   8.700   1.609   8.897  0.6544 -2.4363  0.0169
  756MOL0     H99760   8.660   1.721   9.182 -4.1326  1.1917  0.9982
  756MOL0     H99761   8.541   1.684   9.054 -0.7771  1.6977 -1.9535
  756MOL0     H99762   8.709   1.846   8.932 -0.1469 -0.6324  0.4213
  756MOL0     H99763   8.733   1.914   9.095  0.1046  1.4101  0.1104
  756MOL0     H99764   8.553   2.016   8.935 -1.5185 -0.7600 -1.3283
  756MOL0     H99765   8.443   1.902   8.983 -1.7309  3.1691 -0.3619
  756MOL0     H99766   8.506   1.956   9.225  1.5769  1.1724  1.2888
  756MOL0     H99767   8.394   2.064   9.126  1.7223  1.4208 -2.4180
  756MOL0     H99768   8.617   2.202   9.074  2.4920 -0.5409 -0.0847
  756MOL0     H99769   8.692   2.120   9.198  1.9554  2.4773 -2.4417
  756MOL0     H99770   8.430   2.270   9.239  1.0354  0.8107 -1.7536
  756MOL0     H99771   8.513   2.194   9.366 -2.3539  1.6652  0.7375
  756MOL0     H99772   8.643   2.422   9.221  0.2404 -0.9807 -1.4889
  756MOL0     H99773   8.724   2.320   9.341 -1.3059  1.9747  3.5739
  756MOL0     H99774   9.122   1.678   9.077 -1.1738 -0.7649  2.3481
  756MOL0     H99775   9.308   1.546   8.998  0.0622 -0.7883  0.4537
  756MOL0     H99776   9.331   0.933   8.846  0.4170 -1.7199 -1.6450
  756MOL0     H99777   9.561   0.812   8.782 -0.9444  0.4827 -0.5436
  756MOL0     H99778  10.117   1.809   7.934  0.2811  0.0318  1.2901
  756MOL0     H99779   9.987   1.995   8.030 -0.9219  0.4677 -0.8760
  756MOL0     H99780   9.661   2.198   8.155  2.6944 -4.3481  1.4275
  756MOL0     H99781   9.546   2.397   8.264 -0.7381  0.5276 -0.5470
  756MOL0     H99782   9.299   2.485   8.605 -1.5069 -0.3675  2.2138
  756MOL0     H99783   9.319   2.313   8.656 -5.1891 -2.4758 -0.6252
  756MOL0     H99784   9.190   2.254   8.446 -4.6775 -2.2093  1.5185
  756MOL0     H99785   9.094   2.329   8.569 -1.3609  1.7124 -1.4103
  756MOL0     H99786   9.195   2.474   8.320 -1.7218 -2.6347 -2.0315
  756MOL0     H99787   9.107   2.552   8.453  2.3906 -0.2896  2.1312
  756MOL0     H99788   8.948   2.477   8.256 -4.1120  0.4027  1.2757
  756MOL0     H99789   9.020   2.320   8.269  0.0534  0.8595 -1.2395
  756MOL0     H99790   8.696   2.298   8.530  0.2146  1.1829 -0.0555
  756MOL0     H99791   9.406   2.106   8.569  0.3471 -3.1919 -0.2060
  756MOL0     H99792   9.517   1.934   8.468  1.4223  1.1358  0.6240
  757MOL0     O99793  11.136   2.939   2.638 -0.2621 -0.4111 -0.6159
  757MOL0     C99794  11.018   2.957   2.602 -0.8978 -0.0252 -0.4394
  757MOL0     O99795  10.922   3.016   2.687  0.6016  0.5279  0.3843
  757MOL0     C99796  10.958   3.057   2.809  0.2060 -0.5333  0.0900
  757MOL0     C99797  10.915   2.978   2.913  0.1863 -0.1354 -0.3686
  757MOL0     C99798  10.932   3.028   3.043 -0.1303  0.7264  0.0821
  757MOL0     C99799  11.008   3.143   3.066 -0.1710 -0.5710  0.8356
  757MOL0     O99800  11.034   3.187   3.193  0.5780  0.3392  0.2962
  757MOL0     C99801  10.985   3.321   3.225  0.2793  0.7320  0.1554
  757MOL0     C99802  11.027   3.362   3.369 -0.1068  0.0031 -0.1895
  757MOL0     C99803  10.973   3.501   3.409 -0.6787  0.6040  0.8849
  757MOL0     C99804  11.013   3.539   3.552  0.3448  0.2138  0.3267
  757MOL0     C99805  10.971   3.689   3.578 -0.1627 -0.3302 -0.5983
  757MOL0     C99806  10.827   3.722   3.545 -0.0172 -0.7222  0.1921
  757MOL0     C99807  10.784   3.864   3.590  0.6813  0.4502 -0.0029
  757MOL0     C99808  10.884   3.963   3.562  0.5723 -0.4583 -0.2649
  757MOL0     N99809  10.896   3.990   3.419  0.6036  0.2168 -0.1607
  757MOL0     C99810  10.802   4.036   3.327  0.0915 -1.0135 -1.2162
  757MOL0     C99811  10.869   4.069   3.216 -0.4778 -0.4776 -0.7384
  757MOL0     C99812  10.823   4.140   3.085  0.6826  0.6508  0.2629
  757MOL0     C99813  10.758   4.036   2.998  0.0237 -0.7432 -0.5462
  757MOL0     C99814  10.755   4.078   2.857  0.5495  0.3938 -0.1486
  757MOL0     C99815  10.619   4.140   2.832 -0.0568  0.0617 -0.4938
  757MOL0     O99816  10.629   4.192   2.701  1.2606 -0.1246  1.0278
  757MOL0     C99817  10.521   4.268   2.650  0.3343  0.5788  0.0911
  757MOL0     C99818  10.555   4.338   2.534 -0.1025 -0.2412 -0.6566
  757MOL0     C99819  10.462   4.429   2.473  0.4573  1.3061 -0.4541
  757MOL0     C99820  10.329   4.432   2.509 -0.4549  0.3125 -0.6026
  757MOL0     C99821  10.230   4.514   2.436 -0.9006 -0.0917 -0.8272
  757MOL0     O99822  10.099   4.503   2.459  0.0598  0.7511  0.0725
  757MOL0     C99823  10.047   4.622   2.488  1.0393 -0.5220 -0.4833
  757MOL0     C99824  10.030   4.660   2.619  0.5184  0.1247  0.1271
  757MOL0     C99825   9.982   4.786   2.655 -0.8788 -0.1320 -0.6371
  757MOL0     C99826   9.932   4.874   2.555  0.7404  0.3223  0.0066
  757MOL0     O99827   9.883   4.998   2.599  0.1992 -0.0163  0.1805
  757MOL0     C99828   9.899   5.116   2.502 -0.7424  0.1277  0.0913
  757MOL0     C99829   9.941   5.231   2.595 -0.4627 -0.4773 -0.5465
  757MOL0     C99830   9.893   5.365   2.526  0.7668  0.3720  0.9328
  757MOL0     C99831   9.745   5.402   2.515  0.2400 -0.2059  0.2383
  757MOL0     C99832   9.722   5.527   2.434  0.5287 -0.8876  0.7490
  757MOL0     C99833   9.574   5.578   2.406 -0.3615  0.7736  0.1764
  757MOL0     C99834   9.493   5.609   2.528 -0.2613 -0.0003  0.3726
  757MOL0     C99835   9.348   5.651   2.499  0.1890 -0.4553 -0.0073
  757MOL0    Cl99836   9.316   5.774   2.381  0.2495  0.1015  0.2396
  757MOL0     C99837   9.936   4.830   2.418  0.3529 -0.1962 -0.0916
  757MOL0     C99838   9.989   4.711   2.392 -0.0442 -0.2182  0.3434
  757MOL0     O99839  10.283   4.581   2.346 -0.2679 -0.1943 -0.3504
  757MOL0     C99840  10.290   4.359   2.626  0.1818 -0.4560 -0.0668
  757MOL0     C99841  10.387   4.284   2.697  0.1980 -0.9285  0.5410
  757MOL0     N99842  10.999   4.027   3.231 -0.7221 -0.1274 -0.4350
  757MOL0     N99843  11.009   3.971   3.351 -0.4984  0.3851  0.7422
  757MOL0     C99844  11.046   3.218   2.948 -0.4263  0.4355 -0.1680
  757MOL0     C99845  11.018   3.176   2.823  0.2573  0.5136 -0.0465
  757MOL0     C99846  10.974   2.912   2.473  0.4278 -0.2735 -0.1698
  757MOL0     C99847  10.877   2.983   2.404 -0.3738 -0.9585 -0.1904
  757MOL0     C99848  10.827   2.934   2.290 -0.8407  0.9424  0.6120
  757MOL0     C99849  10.869   2.819   2.229 -1.1794 -0.7642  0.0085
  757MOL0     O99850  10.813   2.792   2.106 -1.0446 -0.2122 -0.4514
  757MOL0     C99851  10.890   2.705   2.021  0.4832  0.6241 -0.0180
  757MOL0     C99852  10.807   2.694   1.893  0.4243 -0.0392  0.6828
  757MOL0     C99853  10.667   2.625   1.912  0.1011  0.1181  0.6428
  757MOL0     C99854  10.655   2.486   1.984 -0.0891  0.1810  0.4250
  757MOL0     C99855  10.734   2.375   1.926 -0.7132  1.0944  0.3377
  757MOL0     C99856  10.808   2.285   1.901 -0.3922  0.1385 -0.9169
  757MOL0     C99857  10.983   2.745   2.286  1.3201  0.9666 -0.4275
  757MOL0     C99858  11.032   2.796   2.412 -0.5640 -0.2097 -0.0179
  757MOL0     H99859  10.855   2.888   2.905  1.3222 -0.9395 -0.0334
  757MOL0     H99860  10.875   2.989   3.126 -2.7311  1.9213 -1.0145
  757MOL0     H99861  10.876   3.319   3.215  0.4496  0.7133 -2.7437
  757MOL0     H99862  11.032   3.395   3.160  0.6487  1.8801  1.6954
  757MOL0     H99863  11.135   3.368   3.386  0.0064 -0.1930 -0.8134
  757MOL0     H99864  10.992   3.284   3.437  4.6012 -0.0052  2.7302
  757MOL0     H99865  10.863   3.499   3.412 -0.7637  3.0800  2.3833
  757MOL0     H99866  11.008   3.575   3.337  0.9440  0.3968  1.4193
  757MOL0     H99867  10.956   3.470   3.616  0.2332 -0.9330 -0.9758
  757MOL0     H99868  11.117   3.529   3.585  0.5086 -1.0797 -0.5312
  757MOL0     H99869  11.035   3.761   3.527 -2.1531  2.7848  0.9629
  757MOL0     H99870  10.980   3.708   3.685  2.9486 -2.0298 -0.4441
  757MOL0     H99871  10.759   3.651   3.593  0.3614 -0.7475  0.7031
  757MOL0     H99872  10.808   3.712   3.438  0.9814 -1.4265  0.0649
  757MOL0     H99873  10.688   3.899   3.550 -2.6198 -4.5149  2.5180
  757MOL0     H99874  10.756   3.863   3.696 -1.7287  0.3475 -0.5799
  757MOL0     H99875  10.979   3.945   3.615 -1.1837  0.0788  3.3719
  757MOL0     H99876  10.851   4.057   3.607 -2.0392 -2.0017  1.2723
  757MOL0     H99877  10.698   4.052   3.356  1.0063  0.4726  1.5799
  757MOL0     H99878  10.908   4.185   3.033  0.1959  0.9229 -0.3199
  757MOL0     H99879  10.750   4.220   3.103 -2.6226 -1.8573 -1.0762
  757MOL0     H99880  10.665   4.001   3.045  1.8613 -1.6097  2.7972
  757MOL0     H99881  10.833   3.957   2.991 -0.2793 -1.1091  0.1870
  757MOL0     H99882  10.827   4.153   2.824 -0.3137  1.5310  0.4649
  757MOL0     H99883  10.759   3.990   2.792 -0.3277  0.3568 -0.1596
  757MOL0     H99884  10.597   4.220   2.903  1.0263  1.2492 -1.4229
  757MOL0     H99885  10.542   4.063   2.831  1.5095 -1.7374  2.6933
  757MOL0     H99886  10.649   4.315   2.485  0.7921  0.6216  0.6267
  757MOL0     H99887  10.498   4.482   2.386  0.8923  0.0744 -1.0482
  757MOL0     H99888  10.049   4.594   2.703 -0.1272  2.5162  2.2746
  757MOL0     H99889   9.975   4.822   2.757 -1.8605  3.9954 -1.9567
  757MOL0     H99890   9.802   5.138   2.456  0.0093  0.1043 -1.5532
  757MOL0     H99891   9.971   5.109   2.421 -3.9085 -0.4753 -2.8997
  757MOL0     H99892  10.049   5.232   2.611 -0.9177 -2.2069  3.9494
  757MOL0     H99893   9.888   5.223   2.690  2.6568  0.4608  1.3919
  757MOL0     H99894   9.929   5.364   2.423 -0.1670  2.0323  0.5632
  757MOL0     H99895   9.943   5.453   2.567  1.2536  0.6377 -0.1933
  757MOL0     H99896   9.691   5.325   2.458 -1.1998  1.4771 -0.8138
  757MOL0     H99897   9.699   5.417   2.613  0.6550 -0.7628  0.5224
  757MOL0     H99898   9.757   5.515   2.332 -0.5554 -1.4763  0.4247
  757MOL0     H99899   9.786   5.603   2.479  0.0982  0.1523 -0.3352
  757MOL0     H99900   9.519   5.502   2.350  0.9467  1.1773 -1.7813
  757MOL0     H99901   9.573   5.663   2.337  5.1451 -0.3055 -1.8321
  757MOL0     H99902   9.492   5.520   2.592  0.3554  1.1774  2.0767
  757MOL0     H99903   9.538   5.686   2.591 -0.8393 -1.1289  2.2437
  757MOL0     H99904   9.286   5.670   2.587  2.3778  1.7572  1.1838
  757MOL0     H99905   9.316   5.557   2.452  1.5985 -0.2142 -1.5458
  757MOL0     H99906   9.894   4.892   2.340 -1.4032  1.1815  1.8327
  757MOL0     H99907   9.980   4.670   2.292  0.7217 -0.4618  0.3726
  757MOL0     H99908  10.189   4.376   2.662  1.4001  2.4739  2.3796
  757MOL0     H99909  10.347   4.232   2.783 -0.2215 -0.8143  0.4131
  757MOL0     H99910  11.109   3.306   2.958 -1.0654  1.3764 -3.3535
  757MOL0     H99911  11.048   3.230   2.733  0.3435 -0.7780 -0.8201
  757MOL0     H99912  10.826   3.067   2.451  2.2471 -0.0967  1.3082
  757MOL0     H99913  10.745   2.984   2.239 -3.5228 -1.9469  1.7529
  757MOL0     H99914  10.907   2.607   2.067  1.6558  1.8617  2.3731
  757MOL0     H99915  10.985   2.750   1.992 -0.0251  2.9609  1.6570
  757MOL0     H99916  10.796   2.799   1.864 -1.2234 -0.6398 -1.0962
  757MOL0     H99917  10.851   2.629   1.817 -0.9368 -3.5520  2.6533
  757MOL0     H99918  10.631   2.601   1.811 -1.5098  1.9742  0.7281
  757MOL0     H99919  10.605   2.701   1.960 -1.9084 -0.7919 -0.4238
  757MOL0     H99920  10.674   2.476   2.092 -0.8683  2.7376  0.8633
  757MOL0     H99921  10.552   2.453   1.969 -0.0219  0.5522 -0.9330
  757MOL0     H99922  10.873   2.203   1.879 -1.2921 -1.6723  2.3802
  757MOL0     H99923  11.015   2.653   2.238  4.1522  2.0834 -0.8678
  757MOL0     H99924  11.104   2.740   2.470  0.1731 -1.1701 -1.7590
  758MOL0     O99925   8.835   5.031   0.657  0.0932  0.0049  0.5512
  758MOL0     C99926   8.785   4.932   0.713 -0.0554  0.2087 -0.0307
  758MOL0     O99927   8.813   4.807   0.673 -0.1800 -0.0162 -0.0685
  758MOL0     C99928   8.921   4.780   0.588 -0.0864  1.0365  0.8986
  758MOL0     C99929   9.042   4.846   0.581 -0.4421  1.3110 -1.0563
  758MOL0     C99930   9.135   4.823   0.483  1.1121  0.4561 -0.0396
  758MOL0     C99931   9.117   4.727   0.386  0.2667  0.5241 -1.0287
  758MOL0     O99932   9.227   4.701   0.317  0.0923  0.0620  0.1649
  758MOL0     C99933   9.217   4.738   0.180 -0.2712  1.0465  0.9067
  758MOL0     C99934   9.268   4.620   0.080  0.3506  0.0337 -0.3944
  758MOL0     C99935   9.236   4.673  -0.062 -0.5640 -0.0005 -0.1899
  758MOL0     C99936   9.299   4.592  -0.174 -1.3363  0.3960 -0.5617
  758MOL0     C99937   9.278   4.672  -0.301  0.2546  0.0213  0.1900
  758MOL0     C99938   9.133   4.644  -0.368  0.4874 -0.6360 -1.0376
  758MOL0     C99939   9.117   4.746  -0.492 -0.8400  0.4947  0.0414
  758MOL0     C99940   9.105   4.679  -0.633  0.5302 -0.0948  0.1407
  758MOL0     N99941   8.959   4.649  -0.657 -0.1405 -0.2421  0.5807
  758MOL0     C99942   8.885   4.736  -0.733 -0.5227 -1.1548 -0.8003
  758MOL0     C99943   8.759   4.707  -0.704  0.2026 -0.0073  1.1660
  758MOL0     C99944   8.638   4.782  -0.751 -0.1670 -0.1566 -0.3623
  758MOL0     C99945   8.541   4.682  -0.831 -0.9048  0.1516 -0.8576
  758MOL0     C99946   8.419   4.754  -0.899 -0.1064  0.0205 -0.1084
  758MOL0     C99947   8.455   4.825  -1.035  0.1015 -0.4278  0.4835
  758MOL0     O99948   8.334   4.832  -1.107  0.2326  0.3452 -0.0161
  758MOL0     C99949   8.314   4.872  -1.236 -0.5254 -0.5316 -0.4107
  758MOL0     C99950   8.206   4.826  -1.309 -0.1250 -0.2656 -0.1510
  758MOL0     C99951   8.174   4.861  -1.439 -1.7602  0.0388 -0.0967
  758MOL0     C99952   8.258   4.937  -1.514 -0.9555 -0.1694 -0.1982
  758MOL0     C99953   8.214   4.966  -1.649  1.3388  0.5457 -0.5904
  758MOL0     O99954   8.299   5.058  -1.708 -0.4003 -0.0631  0.8377
  758MOL0     C99955   8.249   5.110  -1.822 -0.1879  0.9767 -0.1060
  758MOL0     C99956   8.283   5.059  -1.945 -0.6464  0.2193 -0.0364
  758MOL0     C99957   8.228   5.100  -2.066 -0.3311 -0.4256 -0.5382
  758MOL0     C99958   8.154   5.220  -2.072  0.0559  1.0003 -0.0708
  758MOL0     O99959   8.101   5.280  -2.186  0.4736 -0.4176  0.4447
  758MOL0     C99960   8.168   5.255  -2.313  0.2473  0.1051 -0.6308
  758MOL0     C99961   8.125   5.122  -2.385  0.6460 -0.3921 -0.5779
  758MOL0     C99962   8.000   5.137  -2.473  0.5494  0.6380  1.0459
  758MOL0     C99963   7.884   5.107  -2.382 -0.2172 -0.3513  0.2388
  758MOL0     C99964   7.757   5.090  -2.457  0.1909 -0.2137  0.4230
  758MOL0     C99965   7.685   5.226  -2.495  0.6500 -1.0772 -0.5988
  758MOL0     C99966   7.589   5.225  -2.619 -0.1957 -0.4054  0.3020
  758MOL0     C99967   7.661   5.223  -2.757  0.1191 -0.8051  0.2885
  758MOL0    Cl99968   7.753   5.379  -2.783  0.0491  0.1286  0.6185
  758MOL0     C99969   8.117   5.272  -1.953  1.1530  0.0459 -0.0174
  758MOL0     C99970   8.165   5.220  -1.831 -0.2324  0.8579 -0.5739
  758MOL0     O99971   8.116   4.909  -1.706 -0.3410 -0.2441 -0.2010
  758MOL0     C99972   8.364   4.993  -1.447  0.2823 -0.9869  0.5257
  758MOL0     C99973   8.397   4.956  -1.314  0.5636 -1.1119  1.0164
  758MOL0     N99974   8.761   4.606  -0.618  0.0435  0.8729 -0.2619
  758MOL0     N99975   8.878   4.566  -0.589  0.1468 -0.2344 -0.0229
  758MOL0     C99976   8.993   4.659   0.386  0.5669  0.6317 -1.0713
  758MOL0     C99977   8.891   4.686   0.481  0.5608 -0.1399 -0.5907
  758MOL0     C99978   8.682   4.940   0.821 -0.6171 -0.3455 -0.5348
  758MOL0     C99979   8.646   5.071   0.854  0.0847  0.4309 -0.3113
  758MOL0     C99980   8.543   5.101   0.945  0.4643  0.7429  0.5140
  758MOL0     C99981   8.468   4.998   1.006  0.3242  0.7886  0.1252
  758MOL0     O99982   8.356   5.038   1.083  0.1369  0.4483 -0.0397
  758MOL0     C99983   8.243   4.955   1.092  0.2810  0.3685 -0.1067
  758MOL0     C99984   8.147   5.008   0.983  0.7411 -0.7241  0.4907
  758MOL0     C99985   8.013   4.928   0.959 -0.2155 -0.2809  0.3856
  758MOL0     C99986   7.938   5.020   0.844  0.0689  0.6502 -1.3565
  758MOL0     C99987   7.820   4.948   0.796 -0.2102 -0.3479 -0.7222
  758MOL0     C99988   7.726   4.890   0.760 -0.4235  0.3381 -0.2864
  758MOL0     C99989   8.513   4.863   0.978  0.5001  0.7006  0.1225
  758MOL0     C99990   8.611   4.836   0.881 -0.3214  0.4745 -0.5619
  758MOL0     H99991   9.061   4.911   0.666 -2.5232 -0.4578  0.8636
  758MOL0     H99992   9.227   4.881   0.475  3.1230 -1.7903  3.5817
  758MOL0     H99993   9.268   4.833   0.157  2.5220 -0.9183 -1.9279
  758MOL0     H99994   9.117   4.765   0.145  0.0472 -0.7798 -1.7230
  758MOL0     H99995   9.206   4.531   0.097  0.5834 -0.4186 -1.7573
  758MOL0     H99996   9.373   4.595   0.095  0.2167 -1.0465 -1.1312
  758MOL0     H99997   9.284   4.770  -0.075  2.6889 -1.6377 -1.5903
  758MOL0     H99998   9.131   4.698  -0.078 -0.0412  1.0752 -2.2010
  758MOL0     H99999   9.406   4.576  -0.156 -1.0445 -0.2784 -2.6219
  758MOL0     H    0   9.260   4.490  -0.175 -1.3722  0.3990  0.0150
  758MOL0     H    1   9.360   4.645  -0.370  0.0546  0.8030 -0.3615
  758MOL0     H    2   9.300   4.778  -0.287  1.2365 -0.4271  2.3939
  758MOL0     H    3   9.054   4.667  -0.296  1.7616  0.5659  0.0391
  758MOL0     H    4   9.132   4.539  -0.401 -0.4247 -0.7721 -0.5977
  758MOL0     H    5   9.025   4.800  -0.469  0.2708  2.3827  0.3019
  758MOL0     H    6   9.194   4.822  -0.479 -0.7165  0.6166 -1.2349
  758MOL0     H    7   9.161   4.586  -0.623 -2.5214 -1.9459  1.4641
  758MOL0     H    8   9.140   4.746  -0.713  0.5014  1.8214  1.6621
  758MOL0     H    9   8.912   4.820  -0.797 -3.2618 -0.2062 -0.8521
  758MOL0     H   10   8.672   4.865  -0.813 -2.0997 -1.0118 -2.7166
  758MOL0     H   11   8.576   4.832  -0.676  0.6235  1.8203 -0.9483
  758MOL0     H   12   8.485   4.616  -0.763 -0.8982  1.4187  0.4102
  758MOL0     H   13   8.593   4.610  -0.896  1.2726 -1.2323  2.1690
  758MOL0     H   14   8.332   4.693  -0.923  0.4957 -0.9136  0.0348
  758MOL0     H   15   8.385   4.828  -0.826 -1.2863  1.6966 -2.2459
  758MOL0     H   16   8.523   4.755  -1.084 -2.3643 -2.1214 -0.7468
  758MOL0     H   17   8.501   4.922  -1.013  0.0791 -0.3364  0.1345
  758MOL0     H   18   8.133   4.765  -1.256  0.6841 -0.7147  0.4627
  758MOL0     H   19   8.087   4.807  -1.475 -0.4811 -2.2124 -0.0700
  758MOL0     H   20   8.349   4.976  -1.970  0.2092  1.1813 -1.1004
  758MOL0     H   21   8.259   5.051  -2.158 -0.5779  4.0999 -3.3468
  758MOL0     H   22   8.277   5.253  -2.310  0.2094 -0.7074  1.0435
  758MOL0     H   23   8.139   5.334  -2.383  2.9547 -0.7247 -2.8772
  758MOL0     H   24   8.105   5.041  -2.313  3.1855 -1.4163 -0.9114
  758MOL0     H   25   8.205   5.092  -2.454 -0.4722 -0.6845 -1.7948
  758MOL0     H   26   8.014   5.058  -2.548  0.0403 -2.5832  4.0506
  758MOL0     H   27   7.986   5.236  -2.517  1.3217  2.0377  3.7269
  758MOL0     H   28   7.910   5.016  -2.327  0.8650  1.1950  2.4538
  758MOL0     H   29   7.868   5.181  -2.303  3.2720 -1.5096  2.2487
  758MOL0     H   30   7.701   5.032  -2.384  3.0206  0.3140  3.2191
  758MOL0     H   31   7.772   5.024  -2.544  0.7301 -3.0044  2.5027
  758MOL0     H   32   7.755   5.310  -2.498 -0.1247 -0.2981  1.1828
  758MOL0     H   33   7.627   5.256  -2.407 -1.6400  0.8569 -2.6146
  758MOL0     H   34   7.511   5.149  -2.607  2.1010 -2.9291  0.4169
  758MOL0     H   35   7.543   5.323  -2.608  0.7552 -0.0653  1.4797
  758MOL0     H   36   7.579   5.212  -2.830 -1.3485 -1.2543  1.9349
  758MOL0     H   37   7.729   5.138  -2.769  1.3936  0.5058 -2.9835
  758MOL0     H   38   8.044   5.352  -1.960 -2.1325 -2.4312  2.5258
  758MOL0     H   39   8.142   5.252  -1.730  0.9103  1.0552 -0.3634
  758MOL0     H   40   8.417   5.074  -1.496 -2.6409  1.5300  1.2027
  758MOL0     H   41   8.481   4.997  -1.259  0.9714 -2.3356  1.3445
  758MOL0     H   42   8.998   4.586   0.305 -1.6626  1.0216 -1.6288
  758MOL0     H   43   8.790   4.648   0.471 -1.3287  4.4820 -1.3668
  758MOL0     H   44   8.706   5.156   0.822  2.4329 -1.2672 -0.6528
  758MOL0     H   45   8.530   5.207   0.965  2.1343  0.6583  2.3370
  758MOL0     H   46   8.198   4.946   1.191  0.4816 -1.8502 -0.1812
  758MOL0     H   47   8.265   4.855   1.055 -0.8857 -0.7062  1.9800
  758MOL0     H   48   8.136   5.114   1.007 -0.1914 -0.5897 -0.4865
  758MOL0     H   49   8.193   5.008   0.884 -0.0413  1.7160  0.0495
  758MOL0     H   50   7.948   4.918   1.046 -0.4943 -4.7024 -0.0866
  758MOL0     H   51   8.037   4.828   0.922  3.5155  0.0509  1.4945
  758MOL0     H   52   7.906   5.117   0.883  0.9171  0.1160  0.8468
  758MOL0     H   53   7.997   5.036   0.754  2.9374 -1.2199  0.0379
  758MOL0     H   54   7.636   4.836   0.740 -0.5663  1.1796 -2.1656
  758MOL0     H   55   8.457   4.779   1.016 -1.7964  0.6309 -3.0908
  758MOL0     H   56   8.640   4.735   0.851 -1.7595 -0.5405  1.2281
  759MOL0     O   57   6.441   9.665   3.820 -0.3555 -0.8167 -0.5925
  759MOL0     C   58   6.435   9.781   3.847 -0.4788 -1.4604 -0.4476
  759MOL0     O   59   6.451   9.888   3.765  0.4343  0.6223  0.7488
  759MOL0     C   60   6.403   9.884   3.637  0.1813  0.4116 -0.0039
  759MOL0     C   61   6.440  10.003   3.561 -0.5911  0.0054 -0.7743
  759MOL0     C   62   6.399  10.010   3.431 -0.6130 -0.6734 -1.2289
  759MOL0     C   63   6.310   9.914   3.383  0.5194 -0.4852  1.0841
  759MOL0     O   64   6.280   9.927   3.244  0.5291  0.7357 -0.2900
  759MOL0     C   65   6.146   9.930   3.220  0.2407 -0.2397  0.7791
  759MOL0     C   66   6.108  10.034   3.123 -0.4626 -0.5713  0.6388
  759MOL0     C   67   6.143  10.175   3.179 -0.5279  0.2693 -0.4334
  759MOL0     C   68   6.122  10.275   3.062  0.4499  0.2704  0.7156
  759MOL0     C   69   6.165  10.412   3.095 -0.0123  0.2013  0.2485
  759MOL0     C   70   6.081  10.505   3.006  0.0566 -0.3876  0.9080
  759MOL0     C   71   6.134  10.649   2.990 -1.0699 -0.9737 -0.3498
  759MOL0     C   72   6.084  10.725   2.875  0.3112 -0.1065  0.7696
  759MOL0     N   73   6.122  10.868   2.888  0.7147  0.0686 -0.4305
  759MOL0     C   74   6.166  10.949   2.791 -0.8908 -1.0643 -0.3556
  759MOL0     C   75   6.194  11.067   2.855  0.4513 -0.2663 -0.8242
  759MOL0     C   76   6.243  11.201   2.812 -0.1640  0.7147 -0.7003
  759MOL0     C   77   6.395  11.207   2.808 -0.6887 -0.3083  0.7175
  759MOL0     C   78   6.467  11.225   2.939 -0.2452 -0.2581  0.0957
  759MOL0     C   79   6.616  11.244   2.913 -0.9309 -0.0724 -0.2058
  759MOL0     O   80   6.663  11.231   3.049 -0.1043 -0.8067  1.4310
  759MOL0     C   81   6.800  11.208   3.060  0.4924 -0.0329  0.5699
  759MOL0     C   82   6.842  11.130   3.157 -0.9816  0.0468  0.0271
  759MOL0     C   83   6.979  11.105   3.189  0.6321  0.2096  0.2675
  759MOL0     C   84   7.077  11.170   3.111 -0.7044  0.3031 -0.3427
  759MOL0     C   85   7.220  11.162   3.139  0.0094 -0.0205  0.1192
  759MOL0     O   86   7.247  11.126   3.267 -1.1005 -0.0360  0.2265
  759MOL0     C   87   7.375  11.141   3.310 -0.3778  0.2628 -0.5431
  759MOL0     C   88   7.451  11.036   3.357 -0.4017  0.3686 -0.6408
  759MOL0     C   89   7.588  11.051   3.388 -0.4138  0.2944 -0.5302
  759MOL0     C   90   7.641  11.184   3.381  0.7327 -0.0009 -1.0564
  759MOL0     O   91   7.774  11.198   3.415 -0.1001  0.5017  0.0938
  759MOL0     C   92   7.799  11.307   3.503 -0.0296  0.4989 -0.1623
  759MOL0     C   93   7.858  11.268   3.643  0.9235  0.2245  0.1653
  759MOL0     C   94   7.759  11.187   3.719 -0.3873  0.7858 -0.3596
  759MOL0     C   95   7.638  11.274   3.751  0.1234  0.4525 -0.2373
  759MOL0     C   96   7.540  11.202   3.834  0.0810  1.4038  0.3859
  759MOL0     C   97   7.483  11.078   3.746 -0.1859 -0.0431  0.0106
  759MOL0     C   98   7.340  11.022   3.802 -0.2191  0.8458 -0.8228
  759MOL0     C   99   7.332  10.975   3.940  1.0292  0.5354  0.2570
  759MOL0    Cl  100   7.173  10.901   3.959  0.5308 -0.2285  0.6207
  759MOL0     C  101   7.556  11.287   3.346  0.2709  0.7376  0.0847
  759MOL0     C  102   7.428  11.266   3.310  0.4888 -0.6876  0.0320
  759MOL0     O  103   7.302  11.180   3.046 -0.1902 -0.2972  0.0717
  759MOL0     C  104   7.044  11.255   3.015  0.2847 -0.3396 -1.2071
  759MOL0     C  105   6.902  11.268   2.978 -0.4426  0.1870 -0.4947
  759MOL0     N  106   6.162  11.048   2.994 -0.4687  0.0005  0.1518
  759MOL0     N  107   6.112  10.932   3.010 -0.1789  0.9151  0.5450
  759MOL0     C  108   6.264   9.807   3.456  0.1907  0.6259 -0.3461
  759MOL0     C  109   6.322   9.789   3.579  0.4814 -0.3763 -0.4542
  759MOL0     C  110   6.419   9.815   3.997  0.4777 -0.4881  0.2545
  759MOL0     C  111   6.429   9.717   4.109  0.4849 -0.2619 -0.4752
  759MOL0     C  112   6.415   9.748   4.240 -0.1404  0.8578  0.2907
  759MOL0     C  113   6.424   9.882   4.271  0.1327 -0.3657  0.0028
  759MOL0     O  114   6.427   9.918   4.404 -0.5037 -0.7547  0.6065
  759MOL0     C  115   6.304   9.923   4.481  0.3024  0.4479  0.4749
  759MOL0     C  116   6.306  10.031   4.578  0.0474  0.7417  0.4851
  759MOL0     C  117   6.364   9.984   4.702  0.3960  0.3729 -0.3718
  759MOL0     C  118   6.410  10.096   4.780  0.0598  0.0354 -0.6717
  759MOL0     C  119   6.489  10.057   4.894  0.0306  0.3926 -0.2191
  759MOL0     C  120   6.560  10.018   4.990  0.7082 -0.5920 -0.0199
  759MOL0     C  121   6.432   9.981   4.174  0.2665 -0.8352 -0.5710
  759MOL0     C  122   6.415   9.946   4.041 -0.4537 -0.3036 -0.6406
  759MOL0     H  123   6.509  10.067   3.615 -2.0673 -0.3442  1.6596
  759MOL0     H  124   6.425  10.094   3.368  1.6005 -0.6633 -0.3815
  759MOL0     H  125   6.082   9.940   3.308  1.2607  2.2696  1.3095
  759MOL0     H  126   6.130   9.825   3.194  2.7097 -0.6551  0.7098
  759MOL0     H  127   6.004  10.048   3.093  0.9514  1.0103 -4.5446
  759MOL0     H  128   6.161  10.002   3.032  3.2053  0.9233  2.0439
  759MOL0     H  129   6.250  10.180   3.202 -0.4432  0.2771 -0.8258
  759MOL0     H  130   6.095  10.204   3.273  0.1661 -1.0383  0.3633
  759MOL0     H  131   6.188  10.243   2.981  1.0409 -0.3064  1.4202
  759MOL0     H  132   6.017  10.261   3.034  1.2014 -0.1061 -2.2726
  759MOL0     H  133   6.273  10.408   3.082 -0.2617 -2.2975 -1.8415
  759MOL0     H  134   6.147  10.433   3.201 -3.1686 -1.0733  0.0886
  759MOL0     H  135   5.981  10.494   3.050  0.8915 -1.8373  2.5481
  759MOL0     H  136   6.081  10.461   2.905  0.0103 -0.9089  1.1331
  759MOL0     H  137   6.099  10.703   3.079 -0.2664 -0.0346 -0.5810
  759MOL0     H  138   6.243  10.652   2.981 -1.0259 -2.8459 -0.9306
  759MOL0     H  139   5.976  10.712   2.888  0.3501 -0.6369  0.5998
  759MOL0     H  140   6.111  10.679   2.779 -2.3528 -0.5709  0.1659
  759MOL0     H  141   6.171  10.930   2.684 -1.4910 -0.4360 -0.5031
  759MOL0     H  142   6.200  11.275   2.880  0.3496 -1.1109  1.7750
  759MOL0     H  143   6.203  11.203   2.710 -0.8810 -0.1114 -0.4493
  759MOL0     H  144   6.422  11.297   2.752  0.1451  0.2523  1.9713
  759MOL0     H  145   6.421  11.116   2.754 -2.9596 -1.5431  1.5664
  759MOL0     H  146   6.435  11.325   2.971  2.1621  0.4197  0.6179
  759MOL0     H  147   6.443  11.145   3.010  3.0459 -2.2674 -0.8420
  759MOL0     H  148   6.656  11.332   2.863 -0.6356 -1.5211 -2.6986
  759MOL0     H  149   6.651  11.161   2.850 -1.7152  0.2485 -1.1023
  759MOL0     H  150   6.768  11.098   3.229 -0.8857 -0.0134  0.0969
  759MOL0     H  151   7.002  11.046   3.277  2.2686 -1.1834 -1.0187
  759MOL0     H  152   7.410  10.936   3.360 -0.4376  0.3963  2.2272
  759MOL0     H  153   7.652  10.966   3.411 -1.0377  0.2870  1.3263
  759MOL0     H  154   7.714  11.374   3.516  0.4752  0.8839  1.3206
  759MOL0     H  155   7.862  11.380   3.451  0.4176 -0.4576 -1.0114
  759MOL0     H  156   7.891  11.357   3.698 -0.2397  0.5950  0.2900
  759MOL0     H  157   7.944  11.203   3.624  0.9078  0.5696 -1.2073
  759MOL0     H  158   7.804  11.148   3.810  2.2564  2.5400 -0.8245
  759MOL0     H  159   7.736  11.095   3.665  4.3697 -1.4691  0.9799
  759MOL0     H  160   7.670  11.366   3.800 -1.8438 -0.4556  3.1473
  759MOL0     H  161   7.587  11.306   3.660  3.1553 -1.0171 -2.6068
  759MOL0     H  162   7.459  11.266   3.867 -0.1436  0.8543  0.9270
  759MOL0     H  163   7.592  11.161   3.922  3.7133 -2.4194 -3.0348
  759MOL0     H  164   7.551  10.992   3.741 -1.4645 -1.0160 -2.5927
  759MOL0     H  165   7.464  11.102   3.641  2.8147  0.0476 -0.5923
  759MOL0     H  166   7.264  11.095   3.771 -0.3782  1.4227  0.8042
  759MOL0     H  167   7.321  10.931   3.745 -1.4496 -1.7774  3.2787
  759MOL0     H  168   7.345  11.057   4.011  1.0918  0.3486  0.4585
  759MOL0     H  169   7.390  10.885   3.960 -1.7600 -1.6848 -0.9666
  759MOL0     H  170   7.597  11.386   3.331  1.2418 -0.1187 -4.2995
  759MOL0     H  171   7.367  11.346   3.268 -0.2683 -1.3268 -0.1198
  759MOL0     H  172   7.106  11.297   2.937  0.4841 -1.1520 -1.4906
  759MOL0     H  173   6.879  11.324   2.888 -2.2315 -1.8946 -1.4339
  759MOL0     H  174   6.193   9.735   3.416  1.6592 -1.4197  0.5664
  759MOL0     H  175   6.277   9.717   3.645  0.3391  1.1424  1.1753
  759MOL0     H  176   6.436   9.615   4.073 -0.8782 -0.6068  0.1790
  759MOL0     H  177   6.399   9.681   4.324  1.0515  1.1858  0.8132
  759MOL0     H  178   6.270   9.828   4.524 -0.3683  0.8783  0.9117
  759MOL0     H  179   6.218   9.948   4.417 -0.1053 -2.0454 -0.0627
  759MOL0     H  180   6.351  10.122   4.536 -2.1904  1.3131 -0.8029
  759MOL0     H  181   6.203  10.062   4.597  0.2968  0.0009  3.7359
  759MOL0     H  182   6.444   9.911   4.688 -2.0975 -2.1944 -2.3547
  759MOL0     H  183   6.291   9.930   4.763  2.1529 -1.3600  0.2987
  759MOL0     H  184   6.474  10.169   4.729  1.5657 -0.8371 -0.0801
  759MOL0     H  185   6.326  10.143   4.832  0.6213 -0.0087  0.3044
  759MOL0     H  186   6.621   9.989   5.073  0.1502  3.6028  2.1493
  759MOL0     H  187   6.424  10.081   4.215  2.3059  0.4770 -3.1075
  759MOL0     H  188   6.407  10.020   3.962  1.3104  0.1497 -0.4422
  760MOL0     O  189   5.249   4.744   8.589 -0.0576 -0.6585  0.5618
  760MOL0     C  190   5.125   4.743   8.571  0.0589 -0.7062 -0.4537
  760MOL0     O  191   5.037   4.628   8.571 -0.7195  0.3304  0.3464
  760MOL0     C  192   5.084   4.513   8.628  0.1377 -0.6113  0.5960
  760MOL0     C  193   5.064   4.389   8.563 -0.6587 -0.2082 -0.1231
  760MOL0     C  194   5.126   4.265   8.597  0.9266 -0.5360  0.4258
  760MOL0     C  195   5.215   4.264   8.711 -0.0621 -0.2111  0.1122
  760MOL0     O  196   5.286   4.152   8.751  0.6517 -0.0463  0.3521
  760MOL0     C  197   5.291   4.039   8.667 -0.0354 -0.6983  0.9196
  760MOL0     C  198   5.393   3.934   8.708  0.0143  0.0098  0.1522
  760MOL0     C  199   5.544   3.950   8.698  0.3693 -0.5562 -0.7295
  760MOL0     C  200   5.605   3.919   8.566 -0.6905  0.2622 -0.2611
  760MOL0     C  201   5.759   3.930   8.578  0.1354 -0.1285 -0.2303
  760MOL0     C  202   5.831   3.850   8.685 -0.3851  0.1999 -0.8715
  760MOL0     C  203   5.835   3.702   8.662 -0.5020  0.7075 -0.0943
  760MOL0     C  204   5.897   3.626   8.787 -0.6212 -0.2210  1.2765
  760MOL0     N  205   5.816   3.609   8.901 -0.3860 -0.5082 -0.0417
  760MOL0     C  206   5.681   3.585   8.897  0.1217 -0.3315 -1.1106
  760MOL0     C  207   5.630   3.638   9.009 -1.3199  0.9228  0.2911
  760MOL0     C  208   5.497   3.625   9.069 -0.7392  0.2195 -0.1550
  760MOL0     C  209   5.425   3.759   9.105 -0.3641  0.1230  1.5407
  760MOL0     C  210   5.283   3.747   9.123 -0.5011 -0.4950  1.0149
  760MOL0     C  211   5.254   3.689   9.261  0.5020 -0.3051 -0.5564
  760MOL0     O  212   5.137   3.613   9.261 -0.1416  0.5531 -0.6654
  760MOL0     C  213   5.023   3.660   9.205  0.7083  0.8606  0.6358
  760MOL0     C  214   4.928   3.567   9.161  0.1562  0.3931 -0.2910
  760MOL0     C  215   4.809   3.596   9.103  0.7737  0.4292  0.7208
  760MOL0     C  216   4.771   3.728   9.095  0.8753 -0.1982  0.8779
  760MOL0     C  217   4.643   3.768   9.028  0.0219  0.4921 -0.9866
  760MOL0     O  218   4.558   3.665   9.009  0.0297 -0.3149 -0.0941
  760MOL0     C  219   4.424   3.691   9.009 -0.4423 -0.5145 -0.0116
  760MOL0     C  220   4.363   3.748   8.905  0.3034 -0.4792  0.5767
  760MOL0     C  221   4.225   3.777   8.900  0.5826  0.6219 -0.3498
  760MOL0     C  222   4.148   3.723   9.002 -0.2340 -0.4260 -0.0922
  760MOL0     O  223   4.010   3.724   8.980 -0.5674 -0.0373  0.5658
  760MOL0     C  224   3.926   3.738   9.095 -0.3004 -0.4255 -0.0741
  760MOL0     C  225   3.788   3.787   9.060 -0.1352  0.8261 -0.3315
  760MOL0     C  226   3.776   3.945   9.053  0.5154 -0.1188 -0.3278
  760MOL0     C  227   3.624   3.994   9.032  0.0255 -0.0961  0.7546
  760MOL0     C  228   3.627   4.143   9.046 -0.2738 -0.3661 -1.4101
  760MOL0     C  229   3.478   4.191   9.038  0.5043  0.3808  0.2821
  760MOL0     C  230   3.462   4.345   9.075 -0.9634 -0.5654 -0.0721
  760MOL0     C  231   3.312   4.376   9.092  0.1118  1.3054 -0.4181
  760MOL0    Cl  232   3.316   4.544   9.159  0.0641 -0.1808  0.4000
  760MOL0     C  233   4.216   3.659   9.108  1.0313 -0.6069 -0.3257
  760MOL0     C  234   4.351   3.635   9.106  0.6943 -0.1162 -0.7861
  760MOL0     O  235   4.641   3.879   8.975  0.2073  0.0269  0.8238
  760MOL0     C  236   4.858   3.830   9.136  0.1337  0.5950  0.1491
  760MOL0     C  237   4.983   3.796   9.195 -0.6801  0.3909  0.0540
  760MOL0     N  238   5.734   3.699   9.077  0.8581  0.5229  0.3803
  760MOL0     N  239   5.848   3.675   9.013  0.2880 -0.0177 -0.2399
  760MOL0     C  240   5.237   4.381   8.784 -1.0991 -0.0520  1.0061
  760MOL0     C  241   5.170   4.502   8.743  0.3350 -0.1643 -0.4320
  760MOL0     C  242   5.064   4.876   8.540  0.1753  0.0831 -0.5170
  760MOL0     C  243   4.929   4.884   8.504  0.0685 -0.3973  0.1843
  760MOL0     C  244   4.871   5.005   8.483  1.0553 -0.1844 -0.0839
  760MOL0     C  245   4.943   5.122   8.475 -0.5234  0.0482 -0.5789
  760MOL0     O  246   4.879   5.236   8.422 -0.5367  0.1650  0.6133
  760MOL0     C  247   4.936   5.366   8.423  0.0760  0.6470  0.5505
  760MOL0     C  248   4.825   5.449   8.475  1.2725 -1.3534 -0.1156
  760MOL0     C  249   4.877   5.589   8.467 -0.6761 -0.3767  0.6279
  760MOL0     C  250   4.765   5.669   8.517  0.2761 -0.6101 -0.0877
  760MOL0     C  251   4.807   5.808   8.536  0.6622 -0.4344 -0.6278
  760MOL0     C  252   4.846   5.926   8.531  0.3652 -0.5264  0.3741
  760MOL0     C  253   5.078   5.117   8.506  0.0024  0.3298 -1.2012
  760MOL0     C  254   5.129   4.995   8.557  0.0737  0.6621 -1.4314
  760MOL0     H  255   5.018   4.403   8.466  1.8998 -0.0158 -1.4004
  760MOL0     H  256   5.099   4.187   8.527 -4.2073  2.3380 -1.3234
  760MOL0     H  257   5.317   4.079   8.568  0.0105 -1.5280  0.5830
  760MOL0     H  258   5.195   3.988   8.652  1.6648 -3.2655 -3.1659
  760MOL0     H  259   5.364   3.837   8.665 -1.1666 -0.3580  1.6949
  760MOL0     H  260   5.387   3.926   8.817  0.5847  2.9683  0.4730
  760MOL0     H  261   5.586   3.874   8.764  1.9169  2.6275  2.2451
  760MOL0     H  262   5.571   4.043   8.748 -1.5596 -1.4040  2.1143
  760MOL0     H  263   5.574   3.823   8.525  0.3745  1.1673 -3.4770
  760MOL0     H  264   5.571   3.998   8.499  1.7402  1.1383 -0.5740
  760MOL0     H  265   5.770   4.033   8.614  2.5603 -0.3435 -0.2033
  760MOL0     H  266   5.806   3.920   8.481  0.5455 -4.2977  0.2283
  760MOL0     H  267   5.794   3.863   8.787  1.7292 -1.9532  0.2878
  760MOL0     H  268   5.936   3.879   8.695  0.7124 -3.5256 -0.2602
  760MOL0     H  269   5.729   3.678   8.653 -0.2846 -0.3582  0.0458
  760MOL0     H  270   5.885   3.679   8.568  0.9065 -2.8415  1.3373
  760MOL0     H  271   5.972   3.698   8.821 -0.2941  1.5192 -2.6213
  760MOL0     H  272   5.938   3.527   8.766 -1.2494 -0.5080  1.4005
  760MOL0     H  273   5.633   3.520   8.824  0.0325 -0.7703 -0.6632
  760MOL0     H  274   5.501   3.559   9.156  1.6920  3.2679  2.2988
  760MOL0     H  275   5.445   3.576   8.986 -1.8403  3.2056 -1.3719
  760MOL0     H  276   5.442   3.820   9.015 -0.1979  0.2696  1.6709
  760MOL0     H  277   5.479   3.806   9.188  0.5968 -1.8227  2.0876
  760MOL0     H  278   5.236   3.845   9.118  0.7704  0.0929 -0.4094
  760MOL0     H  279   5.240   3.694   9.037  0.8216  1.4957 -0.9866
  760MOL0     H  280   5.267   3.769   9.334  0.7829  0.1274 -1.0729
  760MOL0     H  281   5.334   3.622   9.293  0.3552 -3.0886 -5.0537
  760MOL0     H  282   4.956   3.464   9.183 -0.8003  0.3274  0.6939
  760MOL0     H  283   4.744   3.519   9.063  1.3921 -0.7543  1.9349
  760MOL0     H  284   4.428   3.773   8.822  1.1206 -0.2595  1.2616
  760MOL0     H  285   4.180   3.818   8.810  1.0009  1.6520 -0.0997
  760MOL0     H  286   3.968   3.800   9.175 -0.9474 -0.9727  0.7029
  760MOL0     H  287   3.927   3.640   9.143  1.5949 -1.0202 -1.2062
  760MOL0     H  288   3.719   3.753   9.137  2.0033  0.4965  1.5534
  760MOL0     H  289   3.747   3.743   8.969  0.2026  0.4833 -0.3212
  760MOL0     H  290   3.846   3.989   8.981  1.0415  2.2403  1.4772
  760MOL0     H  291   3.799   3.972   9.157 -0.5198 -2.4715  0.5774
  760MOL0     H  292   3.590   3.967   8.931  0.1969  0.2068  0.6155
  760MOL0     H  293   3.559   3.937   9.100  0.0871  0.1929  1.0585
  760MOL0     H  294   3.694   4.192   8.975 -0.4869  2.8543  0.4222
  760MOL0     H  295   3.661   4.163   9.148 -1.4983  0.1418 -1.0856
  760MOL0     H  296   3.436   4.134   9.121  1.6310  0.4645  0.9297
  760MOL0     H  297   3.439   4.167   8.939 -2.2137  0.1476  1.3245
  760MOL0     H  298   3.512   4.362   9.171  1.8042 -1.9227 -1.1680
  760MOL0     H  299   3.490   4.413   8.994 -0.9976 -2.4179 -1.7188
  760MOL0     H  300   3.272   4.303   9.163  4.0726 -1.2366 -0.4779
  760MOL0     H  301   3.261   4.369   8.995 -2.2702 -0.6389  0.8631
  760MOL0     H  302   4.160   3.621   9.192  0.7888 -1.3356 -0.8098
  760MOL0     H  303   4.391   3.583   9.193 -0.5348  0.6402  0.2624
  760MOL0     H  304   4.848   3.936   9.112  3.9030  0.6100 -2.1604
  760MOL0     H  305   5.044   3.882   9.221 -0.2102  0.5217 -1.3991
  760MOL0     H  306   5.285   4.352   8.877 -1.9252 -2.8201  0.6788
  760MOL0     H  307   5.194   4.592   8.800  0.9404 -0.4335 -0.2508
  760MOL0     H  308   4.863   4.798   8.501  2.0254 -1.9631 -0.2222
  760MOL0     H  309   4.765   5.011   8.459  0.6489 -1.6519  1.1815
  760MOL0     H  310   4.975   5.378   8.322  0.9943  1.2217  0.9564
  760MOL0     H  311   5.030   5.381   8.477  0.9124  0.2017 -0.7264
  760MOL0     H  312   4.737   5.440   8.411  0.2394  1.1755  0.8270
  760MOL0     H  313   4.780   5.431   8.573 -2.3351  2.1186 -0.9145
  760MOL0     H  314   4.896   5.617   8.363 -0.7881 -1.4352  0.3064
  760MOL0     H  315   4.958   5.590   8.541  0.2496 -0.4661 -0.3581
  760MOL0     H  316   4.678   5.656   8.451 -0.9589 -0.1332  1.3900
  760MOL0     H  317   4.736   5.629   8.615  2.4383 -2.0748  0.0272
  760MOL0     H  318   4.900   6.019   8.533 -0.5883  0.1555  4.6130
  760MOL0     H  319   5.134   5.210   8.506 -4.8498  3.6292  1.0049
  760MOL0     H  320   5.231   5.003   8.594  0.1956 -0.5247 -1.4878
  761MOL0     O  321   8.642   6.832   4.165 -0.7523  0.8995 -0.0084
  761MOL0     C  322   8.664   6.804   4.287  0.4938  0.8638  0.6640
  761MOL0     O  323   8.576   6.735   4.374  0.0828  0.3595 -0.4787
  761MOL0     C  324   8.450   6.691   4.323 -1.3315 -0.0120  0.1118
  761MOL0     C  325   8.372   6.765   4.239  0.1062 -0.3768  1.8838
  761MOL0     C  326   8.253   6.708   4.178 -0.2509  0.4178 -0.0776
  761MOL0     C  327   8.197   6.586   4.234 -0.2043  0.5684 -0.0393
  761MOL0     O  328   8.085   6.518   4.184 -0.0130 -0.2275  0.5017
  761MOL0     C  329   7.984   6.585   4.102 -0.1773  1.1945  0.4828
  761MOL0     C  330   7.890   6.661   4.194  0.5207  0.1070 -0.1977
  761MOL0     C  331   7.769   6.722   4.121 -0.3324 -0.3698 -0.0013
  761MOL0     C  332   7.647   6.775   4.202  0.9524 -0.1383 -0.0061
  761MOL0     C  333   7.579   6.871   4.106 -0.2975 -0.9909  0.4894
  761MOL0     C  334   7.430   6.892   4.134  1.2470 -0.0925 -0.2128
  761MOL0     C  335   7.388   7.028   4.087  0.8126  0.2660  0.1937
  761MOL0     C  336   7.229   7.027   4.069 -0.4019 -0.2777  0.0560
  761MOL0     N  337   7.185   7.127   3.972 -0.0536  0.3796  0.2777
  761MOL0     C  338   7.211   7.266   3.979 -0.4705 -1.3193 -0.2898
  761MOL0     C  339   7.161   7.313   3.872 -0.8285 -0.8067 -0.4575
  761MOL0     C  340   7.189   7.457   3.838 -0.0545 -0.0623  0.2150
  761MOL0     C  341   7.086   7.552   3.906 -1.2485  0.3547  0.1916
  761MOL0     C  342   7.115   7.700   3.857 -0.2206  0.0532 -0.1889
  761MOL0     C  343   6.999   7.791   3.911 -0.0503 -0.5365  1.1071
  761MOL0     O  344   6.881   7.778   3.839 -0.6150 -0.0110 -0.3582
  761MOL0     C  345   6.843   7.850   3.732  0.2626  1.0783  0.9087
  761MOL0     C  346   6.717   7.814   3.672 -0.3530 -0.2994  1.4984
  761MOL0     C  347   6.669   7.891   3.568  0.5161 -1.0718 -0.4889
  761MOL0     C  348   6.749   7.996   3.518 -0.3012  0.2806  0.6739
  761MOL0     C  349   6.701   8.077   3.411  0.1234 -0.6571  0.4472
  761MOL0     O  350   6.772   8.187   3.383  0.1801  0.2176  0.4160
  761MOL0     C  351   6.737   8.245   3.261  0.4539  0.5280 -0.4354
  761MOL0     C  352   6.775   8.198   3.135  0.0631  0.2679  0.8613
  761MOL0     C  353   6.737   8.273   3.020  0.1489 -0.0459  0.9765
  761MOL0     C  354   6.652   8.380   3.021 -0.9914 -0.0220 -0.6171
  761MOL0     O  355   6.617   8.422   2.889 -0.4838  0.3902  0.2620
  761MOL0     C  356   6.518   8.514   2.875  0.1786  0.0672  0.5872
  761MOL0     C  357   6.387   8.451   2.877  0.5056  1.1040  0.1083
  761MOL0     C  358   6.274   8.558   2.883 -0.8995  0.5584 -0.3410
  761MOL0     C  359   6.127   8.516   2.877 -0.4994  0.0288  0.1419
  761MOL0     C  360   6.024   8.618   2.932  0.5077 -0.6997  0.2727
  761MOL0     C  361   6.015   8.748   2.852 -1.0536  0.6280  0.2321
  761MOL0     C  362   5.901   8.836   2.909 -0.3827  0.0704 -0.4488
  761MOL0     C  363   5.939   8.909   3.037 -0.6347 -0.1442 -0.8072
  761MOL0    Cl  364   6.094   9.011   3.031  0.1124  0.3002 -0.1676
  761MOL0     C  365   6.604   8.418   3.144  0.6421 -0.5873  1.1130
  761MOL0     C  366   6.647   8.357   3.264 -0.9643  0.5342 -0.0759
  761MOL0     O  367   6.610   8.031   3.346 -0.0132  0.1257 -0.0717
  761MOL0     C  368   6.868   8.033   3.581 -0.5510 -0.9196 -0.2249
  761MOL0     C  369   6.915   7.962   3.692  0.7022 -0.1482  0.4854
  761MOL0     N  370   7.111   7.206   3.796 -0.8137  0.2168  0.3931
  761MOL0     N  371   7.124   7.094   3.858  0.3406 -1.0275  0.2154
  761MOL0     C  372   8.279   6.521   4.329 -0.0319  0.3513  0.0366
  761MOL0     C  373   8.398   6.575   4.380 -0.3455  0.2087  0.1414
  761MOL0     C  374   8.781   6.868   4.346  0.1146  0.5867 -1.0285
  761MOL0     C  375   8.848   6.978   4.285  0.7641  0.8359  0.3137
  761MOL0     C  376   8.951   7.042   4.344 -0.0364  0.2157 -0.9097
  761MOL0     C  377   8.997   7.002   4.468  0.5363  1.4899 -1.3585
  761MOL0     O  378   9.095   7.072   4.545  0.2426 -0.2862  0.7962
  761MOL0     C  379   9.223   7.039   4.480  0.5128 -0.5906 -0.1780
  761MOL0     C  380   9.332   7.155   4.499 -0.4311 -0.0922  0.3138
  761MOL0     C  381   9.457   7.123   4.411  0.2942 -0.2704 -0.0496
  761MOL0     C  382   9.570   7.058   4.490 -0.3564  0.3308  0.0394
  761MOL0     C  383   9.533   6.958   4.589 -0.2339  0.4211  0.1282
  761MOL0     C  384   9.514   6.861   4.662 -1.8027 -0.8862  0.3341
  761MOL0     C  385   8.934   6.894   4.534 -0.5753  0.9666  1.0034
  761MOL0     C  386   8.836   6.818   4.467  0.3789 -0.6812  0.3147
  761MOL0     H  387   8.414   6.851   4.187 -1.4506  0.0948  1.3648
  761MOL0     H  388   8.207   6.769   4.102 -0.9141  0.7886  0.6169
  761MOL0     H  389   7.931   6.506   4.048  0.7539  1.0481 -0.2385
  761MOL0     H  390   8.029   6.656   4.032 -1.1988 -0.6699 -2.2225
  761MOL0     H  391   7.940   6.743   4.247  1.1852 -1.3194  1.4886
  761MOL0     H  392   7.857   6.590   4.271  0.7748 -0.0894 -0.2683
  761MOL0     H  393   7.734   6.644   4.053  1.2709 -1.1526  0.0101
  761MOL0     H  394   7.812   6.810   4.072 -1.5370  0.2258 -0.0168
  761MOL0     H  395   7.579   6.695   4.233  0.4855  1.0080  2.1401
  761MOL0     H  396   7.675   6.834   4.290 -3.2578  1.8066  0.2548
  761MOL0     H  397   7.587   6.852   3.999 -1.0357 -4.7055  0.9260
  761MOL0     H  398   7.635   6.964   4.111 -4.3545  2.0449 -3.0459
  761MOL0     H  399   7.404   6.893   4.240 -1.0150  0.2689 -0.7194
  761MOL0     H  400   7.373   6.809   4.091 -0.4466  0.9000  0.0310
  761MOL0     H  401   7.407   7.119   4.145  0.0590  0.4676  0.1333
  761MOL0     H  402   7.435   7.050   3.990  0.7409  2.6390  0.6443
  761MOL0     H  403   7.182   7.037   4.168 -0.1600  0.9931  0.0541
  761MOL0     H  404   7.194   6.931   4.030 -0.1413 -1.2667  2.1118
  761MOL0     H  405   7.277   7.309   4.053 -2.9634 -0.6432  1.6630
  761MOL0     H  406   7.184   7.482   3.731 -2.2665 -2.3609 -0.3165
  761MOL0     H  407   7.290   7.482   3.872  0.6058 -0.8946 -1.0287
  761MOL0     H  408   7.094   7.545   4.015 -1.4353  2.3647  0.3717
  761MOL0     H  409   6.991   7.524   3.859  0.2779 -3.3045 -1.1579
  761MOL0     H  410   7.205   7.731   3.911  0.2426  1.0157 -1.4574
  761MOL0     H  411   7.132   7.698   3.749  1.7046 -1.4716  0.0772
  761MOL0     H  412   7.041   7.892   3.921  0.6384 -0.8878  1.8491
  761MOL0     H  413   6.966   7.762   4.011 -1.3186 -0.3030  0.7735
  761MOL0     H  414   6.666   7.731   3.720 -1.9458 -0.0501  0.3062
  761MOL0     H  415   6.567   7.877   3.536  0.2364 -2.6914  0.9643
  761MOL0     H  416   6.831   8.105   3.124  1.4665  1.2244 -0.5357
  761MOL0     H  417   6.774   8.247   2.922  0.7127 -0.0628  1.1855
  761MOL0     H  418   6.516   8.561   2.777  0.6577 -1.9683 -0.4647
  761MOL0     H  419   6.525   8.602   2.939 -0.2234  1.3497 -1.0782
  761MOL0     H  420   6.393   8.375   2.955  3.3897 -0.0086 -1.0626
  761MOL0     H  421   6.374   8.392   2.786  1.4993  0.4642  0.3553
  761MOL0     H  422   6.303   8.627   2.803 -0.8197 -0.0017 -0.8041
  761MOL0     H  423   6.286   8.614   2.977  0.9191  3.0769 -1.9355
  761MOL0     H  424   6.101   8.478   2.778 -3.8524 -0.0488  0.9318
  761MOL0     H  425   6.112   8.427   2.939 -0.6648 -0.0373  0.0096
  761MOL0     H  426   6.047   8.651   3.033  0.3903  0.6273 -0.1183
  761MOL0     H  427   5.927   8.569   2.930  0.4133 -0.5113  0.2377
  761MOL0     H  428   5.981   8.729   2.750 -2.1152 -0.7975  0.8209
  761MOL0     H  429   6.108   8.806   2.853 -0.0736 -0.8845 -0.6778
  761MOL0     H  430   5.891   8.911   2.830 -0.5095  0.7242  0.1776
  761MOL0     H  431   5.810   8.776   2.919 -0.5823  0.3980 -0.2726
  761MOL0     H  432   5.948   8.840   3.122 -1.8540  0.1692 -0.4078
  761MOL0     H  433   5.858   8.977   3.064 -1.1933 -1.3546  0.7246
  761MOL0     H  434   6.534   8.499   3.128  0.4037 -1.3147 -2.4026
  761MOL0     H  435   6.598   8.394   3.353 -2.4799  2.1654 -1.5379
  761MOL0     H  436   6.939   8.103   3.539  0.8703 -2.7625 -1.0084
  761MOL0     H  437   7.002   7.999   3.744 -1.3528  0.1250  4.0516
  761MOL0     H  438   8.241   6.420   4.338 -3.8870  1.8314  3.2236
  761MOL0     H  439   8.467   6.499   4.414 -0.5291 -0.0418 -0.0395
  761MOL0     H  440   8.826   7.011   4.184  2.1287  3.0289  0.6643
  761MOL0     H  441   8.997   7.125   4.293  1.4449  0.5179  0.8279
  761MOL0     H  442   9.219   7.032   4.371  0.8169  3.7690 -0.6333
  761MOL0     H  443   9.249   6.937   4.509 -0.0125 -0.8723 -0.6763
  761MOL0     H  444   9.298   7.254   4.467 -1.3266 -1.1814 -2.4346
  761MOL0     H  445   9.344   7.164   4.607 -0.7901 -2.1639  0.5556
  761MOL0     H  446   9.499   7.215   4.372  2.5356 -1.2784 -0.1384
  761MOL0     H  447   9.432   7.068   4.320 -0.2606 -0.4410  0.1967
  761MOL0     H  448   9.644   7.010   4.425  0.3579  1.4382  0.0081
  761MOL0     H  449   9.618   7.141   4.544  0.2584 -0.3048  0.4978
  761MOL0     H  450   9.512   6.770   4.720 -1.1059 -2.4214 -1.9340
  761MOL0     H  451   8.973   6.873   4.633  1.4965  0.5179  0.1481
  761MOL0     H  452   8.796   6.735   4.524  2.4070  0.8077  4.3795
  762MOL0     O  453   9.365   8.244   1.278  0.7613 -0.3351  0.5148
  762MOL0     C  454   9.382   8.364   1.293  0.4753 -0.1959  0.0078
  762MOL0     O  455   9.343   8.458   1.201  0.3306  0.4749  0.2414
  762MOL0     C  456   9.297   8.427   1.076  0.1025 -1.5634  0.4324
  762MOL0     C  457   9.181   8.499   1.040  0.0653  0.2504 -0.0733
  762MOL0     C  458   9.128   8.476   0.916  0.3811  0.4789  0.6422
  762MOL0     C  459   9.183   8.384   0.826  0.5973 -0.4237 -0.1538
  762MOL0     O  460   9.120   8.367   0.706 -0.0681  0.3965 -0.0355
  762MOL0     C  461   9.058   8.471   0.638 -0.0338 -1.1109  0.3842
  762MOL0     C  462   9.057   8.454   0.484  0.2048  0.4145  0.1440
  762MOL0     C  463   8.970   8.335   0.449 -0.7956  0.0841 -0.6026
  762MOL0     C  464   8.980   8.322   0.299 -0.6509 -0.3246  0.1060
  762MOL0     C  465   8.890   8.206   0.253 -0.3661 -0.6861 -0.0015
  762MOL0     C  466   8.855   8.219   0.105  0.0779 -0.5633  0.4099
  762MOL0     C  467   8.778   8.343   0.075 -0.7163 -0.3335  0.0635
  762MOL0     C  468   8.841   8.425  -0.035  0.1194 -0.0989 -0.1079
  762MOL0     N  469   8.833   8.371  -0.169  0.0824  0.7310 -0.1153
  762MOL0     C  470   8.943   8.312  -0.227 -0.4704  0.1333 -0.0842
  762MOL0     C  471   8.896   8.259  -0.336 -0.0259 -0.1219 -0.6352
  762MOL0     C  472   8.979   8.187  -0.441  0.4514  0.5089 -0.8112
  762MOL0     C  473   8.942   8.036  -0.472 -0.3332  0.2432 -0.2617
  762MOL0     C  474   9.043   7.963  -0.562  0.3654 -0.3608 -0.6545
  762MOL0     C  475   8.992   7.839  -0.631 -0.3597  0.6938  0.3197
  762MOL0     O  476   9.009   7.737  -0.528  0.2103 -0.3219 -1.3800
  762MOL0     C  477   9.053   7.611  -0.563  0.6875 -0.9010 -0.5365
  762MOL0     C  478   9.092   7.521  -0.451  0.7676  0.2398 -0.2163
  762MOL0     C  479   9.141   7.398  -0.479 -0.2771 -0.3072 -0.5757
  762MOL0     C  480   9.152   7.348  -0.606  0.8872  0.8338 -0.0665
  762MOL0     C  481   9.190   7.199  -0.635  0.0377 -0.6104 -0.0628
  762MOL0     O  482   9.247   7.129  -0.535  0.4758 -1.1543  0.3283
  762MOL0     C  483   9.296   7.002  -0.525 -0.1628  0.6009  0.5159
  762MOL0     C  484   9.383   6.974  -0.424 -0.3337  0.4580 -0.0671
  762MOL0     C  485   9.448   6.852  -0.414 -0.1088  0.4149  0.6957
  762MOL0     C  486   9.424   6.749  -0.516 -0.1563 -0.7833 -0.5817
  762MOL0     O  487   9.481   6.629  -0.509  0.2101  0.4936  0.0553
  762MOL0     C  488   9.525   6.567  -0.377 -0.1304 -0.1569  0.4643
  762MOL0     C  489   9.534   6.413  -0.391  0.8858 -0.0272  0.4202
  762MOL0     C  490   9.644   6.341  -0.315  0.1901  0.4692 -0.3787
  762MOL0     C  491   9.677   6.419  -0.179  0.0057 -0.3515 -0.5999
  762MOL0     C  492   9.730   6.329  -0.063 -0.0487  0.5488  0.8576
  762MOL0     C  493   9.869   6.277  -0.086 -0.8536  0.9774 -0.0917
  762MOL0     C  494   9.916   6.204   0.041 -0.9299 -0.6911  0.1336
  762MOL0     C  495   9.840   6.081   0.087 -0.1878  0.4988 -0.0936
  762MOL0    Cl  496   9.905   6.031   0.243  0.0569  0.0428  0.5936
  762MOL0     C  497   9.322   6.783  -0.608 -0.6793  0.3604 -0.0349
  762MOL0     C  498   9.261   6.908  -0.615 -0.0531  0.3463  0.1563
  762MOL0     O  499   9.156   7.156  -0.745  0.1328  0.5880  0.1047
  762MOL0     C  500   9.129   7.434  -0.715  0.0468 -0.1096  0.0276
  762MOL0     C  501   9.075   7.564  -0.699 -0.8011 -0.4851 -0.8478
  762MOL0     N  502   8.767   8.277  -0.334  0.6107  0.0873  0.0007
  762MOL0     N  503   8.719   8.335  -0.230 -0.2048  0.5129 -0.1485
  762MOL0     C  504   9.302   8.325   0.859 -0.0619  1.0156  0.3316
  762MOL0     C  505   9.359   8.351   0.982  0.3830  0.2567  0.8192
  762MOL0     C  506   9.446   8.405   1.424 -0.9386  1.6662 -0.0368
  762MOL0     C  507   9.445   8.303   1.535  0.2951 -0.7759 -0.5231
  762MOL0     C  508   9.505   8.346   1.650 -0.1209  1.4404 -0.3114
  762MOL0     C  509   9.556   8.466   1.674  0.4510 -0.1335 -0.6623
  762MOL0     O  510   9.595   8.502   1.798 -1.3967 -0.3327 -0.1380
  762MOL0     C  511   9.728   8.551   1.824  0.3884 -0.1732  0.2612
  762MOL0     C  512   9.824   8.428   1.825 -0.7352 -0.2446  0.4738
  762MOL0     C  513   9.965   8.465   1.791 -0.4641 -1.0140 -0.2099
  762MOL0     C  514  10.036   8.519   1.918 -0.2765 -0.6375  0.6782
  762MOL0     C  515  10.038   8.419   2.013  0.3083  0.5352  0.0731
  762MOL0     C  516  10.035   8.342   2.106 -0.3590  0.5845  0.2000
  762MOL0     C  517   9.558   8.566   1.567 -0.0714  0.4248  0.1220
  762MOL0     C  518   9.501   8.528   1.450  0.1318 -0.5516  0.0202
  762MOL0     H  519   9.128   8.570   1.104  1.3652 -0.8207  2.3383
  762MOL0     H  520   9.041   8.537   0.893  2.2134  3.1404  0.2750
  762MOL0     H  521   9.107   8.564   0.670 -0.4760 -0.8993  0.4427
  762MOL0     H  522   8.951   8.476   0.658 -0.1481 -2.2079  0.0970
  762MOL0     H  523   9.154   8.418   0.448  0.3425  0.2796  0.6376
  762MOL0     H  524   9.018   8.542   0.431 -1.3336 -1.6439 -2.4069
  762MOL0     H  525   8.863   8.350   0.466 -1.4502 -3.2977 -1.0924
  762MOL0     H  526   9.007   8.253   0.510  2.9873  1.8373 -0.2830
  762MOL0     H  527   8.949   8.414   0.249 -0.8150  0.0703  0.9132
  762MOL0     H  528   9.085   8.298   0.282 -0.8314 -1.8322  0.9225
  762MOL0     H  529   8.793   8.190   0.300 -2.1864 -2.5650 -3.9524
  762MOL0     H  530   8.935   8.109   0.273 -2.8813 -1.7029  1.1389
  762MOL0     H  531   8.792   8.135   0.076 -1.2963  1.3373 -2.6008
  762MOL0     H  532   8.952   8.214   0.055  1.2086  0.5419  2.3585
  762MOL0     H  533   8.676   8.322   0.043 -0.1604 -1.4482 -1.0680
  762MOL0     H  534   8.781   8.410   0.161  3.2146  0.4320 -0.4824
  762MOL0     H  535   8.944   8.452  -0.013  1.4087 -3.1056 -1.8055
  762MOL0     H  536   8.789   8.521  -0.030  1.0326  0.3252  2.5765
  762MOL0     H  537   9.045   8.297  -0.191 -0.3673 -0.0678 -0.4558
  762MOL0     H  538   9.084   8.199  -0.411  0.1008 -1.9178  1.7581
  762MOL0     H  539   8.958   8.252  -0.527 -2.6786  0.7854  0.0678
  762MOL0     H  540   8.843   8.022  -0.518 -0.3026  1.5644 -0.7655
  762MOL0     H  541   8.944   7.985  -0.375  3.1634 -2.1178 -1.4060
  762MOL0     H  542   9.077   8.034  -0.639  1.0173 -0.4164 -0.4244
  762MOL0     H  543   9.128   7.940  -0.497 -1.8341  0.0925  2.6261
  762MOL0     H  544   9.056   7.811  -0.716 -1.2427 -1.4876  0.3244
  762MOL0     H  545   8.886   7.850  -0.655 -0.8270  0.0587  2.0035
  762MOL0     H  546   9.057   7.557  -0.355  0.0129  0.0882 -0.4284
  762MOL0     H  547   9.150   7.326  -0.399 -3.3189 -0.8255 -0.5764
  762MOL0     H  548   9.414   7.050  -0.354  0.8713 -0.9087  0.9340
  762MOL0     H  549   9.521   6.840  -0.335  2.1047 -0.6634 -1.3797
  762MOL0     H  550   9.445   6.595  -0.308 -2.3577 -0.3481 -1.9095
  762MOL0     H  551   9.611   6.620  -0.333 -1.4276  2.7471 -0.2284
  762MOL0     H  552   9.553   6.395  -0.497 -0.6965 -1.6601  0.3658
  762MOL0     H  553   9.432   6.378  -0.375  2.0663 -4.8197 -0.8436
  762MOL0     H  554   9.731   6.331  -0.380  1.0200  0.5110  0.6884
  762MOL0     H  555   9.600   6.242  -0.296 -0.0498 -0.1267 -3.5500
  762MOL0     H  556   9.745   6.499  -0.209  1.1596 -0.6619  1.0549
  762MOL0     H  557   9.584   6.464  -0.145 -0.2571 -1.6921  0.5250
  762MOL0     H  558   9.660   6.244  -0.058 -1.2288  1.3104 -1.4834
  762MOL0     H  559   9.737   6.392   0.026  4.2210  0.6420  0.6594
  762MOL0     H  560   9.937   6.360  -0.108 -1.7610  2.5259  2.4776
  762MOL0     H  561   9.887   6.216  -0.175  3.9299 -1.8954  2.4661
  762MOL0     H  562  10.023   6.185   0.025 -0.3121  2.0539  0.5307
  762MOL0     H  563   9.919   6.286   0.113 -0.0504  0.3831 -1.0575
  762MOL0     H  564   9.841   6.000   0.015  2.8413  0.2317  0.1463
  762MOL0     H  565   9.733   6.100   0.102 -0.3992 -0.0943 -0.8207
  762MOL0     H  566   9.282   6.702  -0.668 -2.3093  1.9888 -1.3122
  762MOL0     H  567   9.179   6.915  -0.686 -1.7320  1.6900  2.1113
  762MOL0     H  568   9.153   7.404  -0.816 -2.8568  1.2648 -1.2140
  762MOL0     H  569   9.040   7.619  -0.786 -1.3966 -0.4194 -0.5754
  762MOL0     H  570   9.354   8.258   0.791 -4.2480 -1.5026 -0.6973
  762MOL0     H  571   9.454   8.303   1.001 -0.5962 -2.8458 -1.3391
  762MOL0     H  572   9.403   8.203   1.528 -2.7687  0.3034  1.0094
  762MOL0     H  573   9.501   8.272   1.730  0.1084 -0.1380 -1.6842
  762MOL0     H  574   9.738   8.595   1.924  1.1608  2.3640 -0.8357
  762MOL0     H  575   9.757   8.626   1.750  2.6089 -0.7558  0.4853
  762MOL0     H  576   9.807   8.361   1.910 -1.2833 -0.1907  0.4140
  762MOL0     H  577   9.787   8.365   1.742 -1.1887 -0.8639  1.1313
  762MOL0     H  578   9.965   8.547   1.718  1.4733 -1.1500 -0.4186
  762MOL0     H  579  10.028   8.390   1.743 -0.1316  0.1600 -1.6804
  762MOL0     H  580  10.134   8.563   1.895 -1.5679  1.2285 -1.6760
  762MOL0     H  581   9.980   8.604   1.957  1.4197  1.3624 -0.9702
  762MOL0     H  582  10.049   8.265   2.180  2.1878  2.1297  1.4739
  762MOL0     H  583   9.617   8.657   1.563 -1.8919  1.6805  0.4913
  762MOL0     H  584   9.493   8.592   1.363  1.8093 -2.0896 -1.3431
  763MOL0     O  585   5.442  11.179   6.279  0.1449 -0.4636 -0.2375
  763MOL0     C  586   5.501  11.075   6.251  0.3142  0.3696 -0.0673
  763MOL0     O  587   5.509  10.964   6.333 -0.7238  0.4316 -0.0836
  763MOL0     C  588   5.510  10.974   6.469 -0.0227  0.4073  0.5655
  763MOL0     C  589   5.528  11.086   6.546  0.1141 -0.7285  0.6483
  763MOL0     C  590   5.522  11.071   6.680 -0.2375 -0.3365 -0.0281
  763MOL0     C  591   5.500  10.950   6.751 -0.2036  0.2176 -0.4263
  763MOL0     O  592   5.508  10.950   6.890 -0.8756  0.0205 -0.5111
  763MOL0     C  593   5.528  10.830   6.959  1.2149 -0.0764 -0.5089
  763MOL0     C  594   5.390  10.772   6.997  0.1896  0.1466 -0.0888
  763MOL0     C  595   5.402  10.644   7.068 -0.1974  0.2450  0.7284
  763MOL0     C  596   5.272  10.580   7.116 -0.9216 -0.0610 -0.1723
  763MOL0     C  597   5.289  10.450   7.185  0.1555  0.3853 -0.6226
  763MOL0     C  598   5.351  10.334   7.104 -0.1586  0.1015 -0.3671
  763MOL0     C  599   5.276  10.297   6.964 -0.6404  0.2295 -1.3511
  763MOL0     C  600   5.148  10.227   6.994 -0.2700 -0.1760 -0.6537
  763MOL0     N  601   5.100  10.172   6.869 -0.5644  0.0166  0.5655
  763MOL0     C  602   5.128  10.044   6.817 -0.5677  0.4565 -0.7101
  763MOL0     C  603   5.054  10.037   6.709  0.7603 -0.2843  0.2358
  763MOL0     C  604   5.052   9.929   6.610  0.1429  1.3091 -0.1914
  763MOL0     C  605   5.117   9.795   6.667 -0.6025  0.5438  0.1151
  763MOL0     C  606   5.030   9.715   6.760  0.1650  0.5934 -1.5974
  763MOL0     C  607   5.104   9.573   6.785 -0.3585 -0.9561 -0.0904
  763MOL0     O  608   5.014   9.474   6.847 -0.2878  0.0944  0.0288
  763MOL0     C  609   5.017   9.480   6.981  0.2390 -0.5268 -1.0173
  763MOL0     C  610   4.938   9.383   7.054  0.7071  0.0931 -0.0017
  763MOL0     C  611   4.943   9.379   7.197 -0.2327 -0.2856  0.8932
  763MOL0     C  612   5.028   9.465   7.272 -0.1016 -0.3129 -0.2712
  763MOL0     C  613   5.046   9.446   7.424  0.4333  0.8011  0.0955
  763MOL0     O  614   5.142   9.519   7.477 -0.3773  0.3050  0.3874
  763MOL0     C  615   5.220   9.466   7.576  0.4005 -0.2909 -1.4547
  763MOL0     C  616   5.281   9.543   7.685  0.6742  0.0498 -0.3624
  763MOL0     C  617   5.386   9.497   7.759 -0.2112 -0.5574 -0.3627
  763MOL0     C  618   5.422   9.364   7.738 -0.7055 -0.1068 -1.1380
  763MOL0     O  619   5.524   9.299   7.812  0.2870 -0.1258  0.1623
  763MOL0     C  620   5.656   9.318   7.759  0.1012  0.4645 -0.0801
  763MOL0     C  621   5.768   9.298   7.860 -0.7053 -0.1877 -0.0529
  763MOL0     C  622   5.714   9.335   8.010  0.8460  0.1693  0.6573
  763MOL0     C  623   5.662   9.484   8.030 -0.3358 -1.0232  1.5694
  763MOL0     C  624   5.783   9.573   8.079 -0.2925 -0.1566  0.0121
  763MOL0     C  625   5.779   9.727   8.078 -0.1679 -0.4706 -0.6655
  763MOL0     C  626   5.692   9.777   8.200 -0.2744 -0.5732  0.2776
  763MOL0     C  627   5.673   9.928   8.170  0.1730 -0.6448 -0.0210
  763MOL0    Cl  628   5.555  10.006   8.298 -0.4463  0.5277 -0.0637
  763MOL0     C  629   5.353   9.280   7.651 -0.6506  0.3794 -0.6724
  763MOL0     C  630   5.266   9.334   7.562  0.4606 -0.3236 -0.2998
  763MOL0     O  631   4.987   9.358   7.487  0.1170  0.2989 -0.1328
  763MOL0     C  632   5.087   9.570   7.200  0.1240  0.6173  0.3803
  763MOL0     C  633   5.080   9.581   7.059  0.4525  0.5951  0.1714
  763MOL0     N  634   4.983  10.151   6.686  0.3190 -0.1886  0.1630
  763MOL0     N  635   5.017  10.238   6.774  0.4355  0.6501 -0.2701
  763MOL0     C  636   5.494  10.833   6.667 -0.1789 -0.0048  0.6459
  763MOL0     C  637   5.497  10.844   6.528 -1.0787  0.2779  0.0632
  763MOL0     C  638   5.555  11.046   6.121  0.8185 -0.1652  0.2550
  763MOL0     C  639   5.520  11.122   6.003 -0.8634  0.3257 -0.1075
  763MOL0     C  640   5.563  11.079   5.879  0.3482 -0.1289  0.2340
  763MOL0     C  641   5.644  10.964   5.863 -0.0805  0.0781 -0.1219
  763MOL0     O  642   5.665  10.925   5.734 -0.3391 -0.7509 -0.2400
  763MOL0     C  643   5.778  10.852   5.683 -0.6632 -0.4517  0.6601
  763MOL0     C  644   5.890  10.956   5.683  0.2880 -0.2124 -0.3069
  763MOL0     C  645   5.881  11.079   5.589 -0.3455  0.4406  0.1015
  763MOL0     C  646   5.994  11.186   5.590  0.1595  1.2356  0.7361
  763MOL0     C  647   6.030  11.220   5.722 -0.8687 -0.5611  0.3814
  763MOL0     C  648   6.037  11.260   5.840  0.1585  1.0138  0.5061
  763MOL0     C  649   5.674  10.889   5.978 -0.1928  0.7010  0.0187
  763MOL0     C  650   5.644  10.939   6.097  0.0646 -0.8169  0.1619
  763MOL0     H  651   5.541  11.183   6.499  1.1707 -0.9032  0.5654
  763MOL0     H  652   5.543  11.158   6.741 -0.5808  0.6108 -1.2000
  763MOL0     H  653   5.569  10.848   7.059 -4.3655 -2.4233  2.7169
  763MOL0     H  654   5.593  10.757   6.910  0.0254 -1.6976  0.1998
  763MOL0     H  655   5.328  10.763   6.908  1.6610  2.9659 -1.5466
  763MOL0     H  656   5.339  10.846   7.060  0.7268  0.7210 -0.3153
  763MOL0     H  657   5.469  10.665   7.151  0.6875  1.6894 -0.3063
  763MOL0     H  658   5.446  10.563   7.009  1.7787  0.7423  1.4455
  763MOL0     H  659   5.236  10.653   7.190  0.2400 -2.6959  3.2298
  763MOL0     H  660   5.206  10.562   7.030  0.7245 -4.6711 -0.7247
  763MOL0     H  661   5.189  10.428   7.224  1.4171  2.2402  4.5600
  763MOL0     H  662   5.347  10.467   7.276 -3.5573  1.6770  1.7608
  763MOL0     H  663   5.349  10.244   7.167 -0.2100  0.9087  0.8156
  763MOL0     H  664   5.454  10.366   7.090 -0.1115  1.1549  1.9607
  763MOL0     H  665   5.272  10.383   6.896  0.8758 -0.6376 -2.6032
  763MOL0     H  666   5.343  10.228   6.911 -2.6530 -1.2142 -2.1653
  763MOL0     H  667   5.068  10.295   7.025 -1.3617 -1.6751 -0.0689
  763MOL0     H  668   5.169  10.153   7.072  0.8119  1.5290  0.7675
  763MOL0     H  669   5.203   9.977   6.858 -0.4005  0.2131 -1.3857
  763MOL0     H  670   5.108   9.958   6.521  3.3152 -2.2941  0.3524
  763MOL0     H  671   4.946   9.915   6.589 -0.2672 -2.8202  3.2241
  763MOL0     H  672   5.210   9.829   6.712 -0.9467  4.7769 -1.9317
  763MOL0     H  673   5.138   9.726   6.584  0.7305  0.8049  0.2144
  763MOL0     H  674   5.036   9.774   6.853  2.0672  0.5123 -1.6286
  763MOL0     H  675   4.930   9.699   6.720  0.1136 -2.1126 -0.5902
  763MOL0     H  676   5.204   9.586   6.827 -0.8764  0.8901  0.6989
  763MOL0     H  677   5.139   9.529   6.691  1.6309  1.6085 -0.6578
  763MOL0     H  678   4.890   9.308   6.991 -1.1013  0.5338  0.7836
  763MOL0     H  679   4.904   9.284   7.231 -0.0175 -2.2827 -3.6763
  763MOL0     H  680   5.262   9.649   7.699  1.7289  0.2970 -0.6735
  763MOL0     H  681   5.424   9.548   7.847 -0.7304 -0.4316 -0.2061
  763MOL0     H  682   5.660   9.423   7.729  1.9523  0.3693 -0.3181
  763MOL0     H  683   5.672   9.251   7.674  2.7244 -0.3294  0.9431
  763MOL0     H  684   5.860   9.356   7.849 -1.6499  1.6871  1.2618
  763MOL0     H  685   5.808   9.196   7.863  4.1949  1.3507 -2.3869
  763MOL0     H  686   5.785   9.307   8.089  1.6138  0.5670  0.1188
  763MOL0     H  687   5.624   9.274   8.025  1.6436 -0.3184  4.8270
  763MOL0     H  688   5.629   9.513   7.929  3.8231 -0.3911  0.1699
  763MOL0     H  689   5.577   9.494   8.097 -2.9770  0.9950 -1.7388
  763MOL0     H  690   5.872   9.549   8.020  0.9248 -1.6211  2.2724
  763MOL0     H  691   5.798   9.536   8.181 -2.1946 -1.6042 -0.1783
  763MOL0     H  692   5.747   9.768   7.982  0.4180 -0.0501 -0.6891
  763MOL0     H  693   5.880   9.769   8.088 -0.1794  0.2378 -2.9836
  763MOL0     H  694   5.596   9.723   8.199  0.4573 -1.9953 -2.3098
  763MOL0     H  695   5.745   9.771   8.295 -1.2490  1.9396  1.0477
  763MOL0     H  696   5.627   9.941   8.072  0.7676  0.3170 -0.1900
  763MOL0     H  697   5.770   9.979   8.171 -0.0864 -0.1465 -0.0495
  763MOL0     H  698   5.382   9.175   7.647 -5.5485 -1.7055  4.0743
  763MOL0     H  699   5.231   9.258   7.492  1.5769  0.1218 -1.3821
  763MOL0     H  700   5.124   9.655   7.257 -3.7400  0.5243  3.4784
  763MOL0     H  701   5.133   9.667   7.018  1.6529 -0.2238 -0.0758
  763MOL0     H  702   5.492  10.737   6.718  3.2156  1.7592  4.7124
  763MOL0     H  703   5.485  10.765   6.455  2.7836  1.1744 -1.8153
  763MOL0     H  704   5.437  11.192   6.010 -1.1710  0.0992 -1.2638
  763MOL0     H  705   5.516  11.132   5.797  3.4792  3.2316  0.3757
  763MOL0     H  706   5.766  10.800   5.588  1.0002 -0.5310  0.4675
  763MOL0     H  707   5.805  10.770   5.749  0.0809 -0.7486  0.0029
  763MOL0     H  708   5.902  10.994   5.785  0.7874 -0.4832 -0.2604
  763MOL0     H  709   5.985  10.911   5.655  0.7153  0.8992 -0.6843
  763MOL0     H  710   5.792  11.130   5.628 -0.6199  0.7394 -0.8905
  763MOL0     H  711   5.863  11.051   5.485 -0.7026 -1.7089  0.7052
  763MOL0     H  712   6.078  11.140   5.536 -2.4406 -1.4438 -1.3825
  763MOL0     H  713   5.957  11.279   5.546 -0.7671  0.9826  0.9583
  763MOL0     H  714   6.046  11.288   5.943  5.4161  0.4323  0.4798
  763MOL0     H  715   5.718  10.790   5.968 -0.2016  0.8128 -1.4104
  763MOL0     H  716   5.673  10.887   6.188 -1.8785  1.7602  2.4225
  764MOL0     O  717   9.139   7.201   0.573 -0.9342  0.3196 -0.5183
  764MOL0     C  718   9.091   7.293   0.514  0.8101 -0.6711 -1.1801
  764MOL0     O  719   8.987   7.279   0.428 -0.2826  0.0374 -0.6731
  764MOL0     C  720   8.937   7.158   0.379  0.1176  0.0279 -0.2747
  764MOL0     C  721   8.891   7.062   0.469 -0.6880  0.5208  1.0168
  764MOL0     C  722   8.810   6.958   0.423  0.5105  0.7774  0.0058
  764MOL0     C  723   8.815   6.922   0.280  0.3861 -0.9409  0.4481
  764MOL0     O  724   8.782   6.802   0.233 -1.2941  0.6967  0.4094
  764MOL0     C  725   8.702   6.722   0.321  0.6003 -0.2471 -1.1515
  764MOL0     C  726   8.635   6.606   0.246  0.1229 -0.3462  0.2313
  764MOL0     C  727   8.500   6.564   0.315  0.4300  0.9030 -0.2013
  764MOL0     C  728   8.432   6.461   0.229  0.4588  1.2689  0.4798
  764MOL0     C  729   8.307   6.424   0.301  1.0338  0.0797  1.1232
  764MOL0     C  730   8.213   6.341   0.206  0.4224 -0.3515  0.7003
  764MOL0     C  731   8.081   6.282   0.267 -0.6496 -0.5691 -0.6658
  764MOL0     C  732   8.100   6.183   0.374 -0.2566 -0.2710 -0.7058
  764MOL0     N  733   8.163   6.059   0.325  0.2179 -0.3511  0.5650
  764MOL0     C  734   8.109   5.930   0.339 -0.2285 -0.2010 -0.0899
  764MOL0     C  735   8.216   5.851   0.306 -0.8547  0.3817  0.5402
  764MOL0     C  736   8.232   5.695   0.316 -0.0822  0.3079 -0.0923
  764MOL0     C  737   8.330   5.625   0.213  0.0835  0.1988 -0.5410
  764MOL0     C  738   8.475   5.647   0.253 -0.5483  0.8687  0.2415
  764MOL0     C  739   8.576   5.566   0.173  0.0682  0.3108 -0.1306
  764MOL0     O  740   8.544   5.431   0.189 -0.4946  0.0079 -0.2948
  764MOL0     C  741   8.638   5.335   0.156 -0.9228  0.5005 -1.3655
  764MOL0     C  742   8.590   5.215   0.102  0.6307 -0.5453 -0.6874
  764MOL0     C  743   8.674   5.112   0.072 -0.4503 -0.0451 -0.1700
  764MOL0     C  744   8.817   5.128   0.082  0.2836  0.2791 -0.7416
  764MOL0     C  745   8.905   5.023   0.033 -0.3524 -0.2697 -0.5827
  764MOL0     O  746   9.031   4.987   0.074  0.1439 -0.9642 -0.7880
  764MOL0     C  747   9.105   5.045   0.169 -0.4977  0.0532  0.3701
  764MOL0     C  748   9.052   5.055   0.306  0.6246  0.6364 -0.4158
  764MOL0     C  749   9.120   5.138   0.397  0.4512  0.4142 -0.5243
  764MOL0     C  750   9.241   5.204   0.363  0.6255 -0.2658 -0.5348
  764MOL0     O  751   9.288   5.286   0.461  0.0422 -0.1247 -0.3124
  764MOL0     C  752   9.402   5.364   0.425  0.8784  0.4697 -0.2739
  764MOL0     C  753   9.417   5.475   0.529  0.5249 -0.3222 -0.2765
  764MOL0     C  754   9.282   5.543   0.576  0.1662 -0.0757  0.1855
  764MOL0     C  755   9.325   5.656   0.662  0.5632  0.0429 -0.2973
  764MOL0     C  756   9.186   5.733   0.698 -0.4236  0.2979  0.8458
  764MOL0     C  757   9.216   5.881   0.753 -0.6022 -0.3811  1.9622
  764MOL0     C  758   9.279   5.886   0.890  0.2516 -0.2922  0.0247
  764MOL0     C  759   9.330   6.025   0.913 -0.0025  0.2248  0.0208
  764MOL0    Cl  760   9.191   6.124   0.954 -0.1678  0.1415 -0.0946
  764MOL0     C  761   9.290   5.191   0.236  0.5426  0.3300  0.5084
  764MOL0     C  762   9.220   5.119   0.130  0.3120  0.3007 -0.0276
  764MOL0     O  763   8.855   4.957  -0.063  0.0453  0.2571  0.6162
  764MOL0     C  764   8.866   5.254   0.127  0.5031 -0.5273  0.5379
  764MOL0     C  765   8.777   5.346   0.184  0.3462 -0.3099  0.2878
  764MOL0     N  766   8.330   5.927   0.268  0.0407  0.5934  0.5038
  764MOL0     N  767   8.298   6.047   0.301  0.6252 -0.5331  0.2099
  764MOL0     C  768   8.872   7.016   0.189  0.4335  0.0952 -0.0018
  764MOL0     C  769   8.923   7.130   0.243 -0.5780  0.0312  0.2214
  764MOL0     C  770   9.134   7.431   0.538 -1.3375  0.3407 -0.1751
  764MOL0     C  771   9.068   7.544   0.476 -0.4704 -0.5780  0.4146
  764MOL0     C  772   9.120   7.668   0.510  0.0311  0.6731  0.2583
  764MOL0     C  773   9.225   7.681   0.614 -0.5546 -1.1163  0.2381
  764MOL0     O  774   9.277   7.811   0.644 -0.8354  0.1912  0.1194
  764MOL0     C  775   9.203   7.895   0.732  0.2184 -0.3558  0.2596
  764MOL0     C  776   9.200   7.863   0.877 -0.5446  0.3643 -0.2556
  764MOL0     C  777   9.146   7.980   0.971 -0.6436 -0.3594  0.2555
  764MOL0     C  778   9.181   7.961   1.119 -0.2826 -0.7888  0.0510
  764MOL0     C  779   9.095   7.873   1.190  1.9722 -0.3670 -0.5056
  764MOL0     C  780   9.022   7.803   1.256  0.3924 -0.3389  0.4099
  764MOL0     C  781   9.295   7.570   0.652 -0.9655 -0.0760 -0.3864
  764MOL0     C  782   9.255   7.441   0.613  0.6414 -0.4957 -0.4707
  764MOL0     H  783   8.897   7.082   0.576  1.0219  1.7692  0.7183
  764MOL0     H  784   8.753   6.901   0.496 -4.2221  2.9734 -1.6248
  764MOL0     H  785   8.625   6.775   0.378  0.0457 -0.9346 -1.2402
  764MOL0     H  786   8.768   6.672   0.392  1.0102  0.0031 -1.3536
  764MOL0     H  787   8.703   6.523   0.226  1.2178  0.9500 -1.9239
  764MOL0     H  788   8.614   6.643   0.145 -2.5307 -2.2595 -0.0063
  764MOL0     H  789   8.431   6.647   0.327 -1.5669 -0.5014 -1.3050
  764MOL0     H  790   8.509   6.537   0.421 -0.1426 -3.1274 -0.9937
  764MOL0     H  791   8.414   6.496   0.127 -0.7260 -0.7620 -0.0649
  764MOL0     H  792   8.496   6.373   0.221 -0.3010  0.5247  2.1444
  764MOL0     H  793   8.255   6.519   0.314  4.3193  1.7799  3.2545
  764MOL0     H  794   8.316   6.386   0.403  0.6862  1.1697  1.5789
  764MOL0     H  795   8.276   6.259   0.170  3.3867  1.1128  2.1735
  764MOL0     H  796   8.191   6.405   0.121  0.4827  1.0174  1.6919
  764MOL0     H  797   8.025   6.369   0.302  1.5416  0.3668  0.6753
  764MOL0     H  798   8.018   6.248   0.183 -3.8350  2.8258  0.0745
  764MOL0     H  799   8.003   6.164   0.421 -0.1479  3.7555  1.6912
  764MOL0     H  800   8.166   6.225   0.451  0.4130  1.5605 -2.1844
  764MOL0     H  801   8.018   5.890   0.383 -0.5634  1.4224  0.7885
  764MOL0     H  802   8.132   5.654   0.297 -1.7990  2.9005  2.4716
  764MOL0     H  803   8.261   5.676   0.420 -0.4505  1.0231  0.1472
  764MOL0     H  804   8.303   5.669   0.116 -1.0228 -1.8720 -1.2286
  764MOL0     H  805   8.313   5.518   0.199  2.3416 -0.0085 -2.2778
  764MOL0     H  806   8.500   5.750   0.225 -0.0150  1.2318  1.9139
  764MOL0     H  807   8.492   5.640   0.361  4.3278  1.2351 -0.2834
  764MOL0     H  808   8.672   5.594   0.217 -1.7006  3.2867  2.1724
  764MOL0     H  809   8.564   5.591   0.067  1.5615  0.3559 -0.3041
  764MOL0     H  810   8.483   5.209   0.084  0.2235  0.3365  1.1765
  764MOL0     H  811   8.641   5.017   0.033  0.8162  0.4043 -2.4590
  764MOL0     H  812   8.956   5.008   0.329  0.7873  0.2707 -0.4824
  764MOL0     H  813   9.084   5.149   0.499  2.9224 -3.7261  1.0335
  764MOL0     H  814   9.397   5.419   0.330 -0.1456  1.1810  0.1698
  764MOL0     H  815   9.491   5.302   0.438 -0.8745 -1.6731  2.8980
  764MOL0     H  816   9.477   5.562   0.498  0.2643 -0.7809 -2.2241
  764MOL0     H  817   9.472   5.439   0.616 -1.7923 -2.3827  0.4477
  764MOL0     H  818   9.218   5.468   0.623 -0.8330  0.9318  0.4656
  764MOL0     H  819   9.224   5.587   0.495 -2.5988  0.4257  2.2968
  764MOL0     H  820   9.355   5.620   0.760 -1.6152  0.2313  0.4794
  764MOL0     H  821   9.399   5.714   0.606 -1.1527 -0.4981 -3.3530
  764MOL0     H  822   9.128   5.680   0.775 -1.2498  0.2528  0.2052
  764MOL0     H  823   9.128   5.743   0.606 -1.3813 -2.1814  1.0943
  764MOL0     H  824   9.118   5.930   0.747 -0.6657 -0.6825 -0.2794
  764MOL0     H  825   9.283   5.930   0.682 -0.7585 -1.4150  1.0825
  764MOL0     H  826   9.208   5.845   0.962 -1.0550 -1.5218 -1.8688
  764MOL0     H  827   9.365   5.819   0.884  0.8057  0.5280 -1.9606
  764MOL0     H  828   9.386   6.057   0.825  0.2710  1.2642  0.5543
  764MOL0     H  829   9.399   6.026   0.997 -0.5518  2.4336  0.5106
  764MOL0     H  830   9.370   5.257   0.204  3.0359 -2.2558  1.0234
  764MOL0     H  831   9.262   5.102   0.032  2.6086 -2.9471  1.3519
  764MOL0     H  832   8.973   5.273   0.131  0.7005 -0.9368 -1.6927
  764MOL0     H  833   8.802   5.439   0.234 -4.9932  0.5913  1.8697
  764MOL0     H  834   8.894   6.983   0.088  0.2903  1.1214 -0.3715
  764MOL0     H  835   8.954   7.194   0.160  3.3153 -5.0956 -2.9101
  764MOL0     H  836   8.989   7.511   0.409  0.0737 -1.5597  0.2380
  764MOL0     H  837   9.084   7.759   0.463 -2.4020 -1.2219 -1.8681
  764MOL0     H  838   9.100   7.901   0.696  0.2591  0.7245  0.2744
  764MOL0     H  839   9.244   7.993   0.708  3.4951 -2.2577 -2.7096
  764MOL0     H  840   9.143   7.770   0.890  0.5330 -0.2794  0.0519
  764MOL0     H  841   9.304   7.846   0.907 -0.8635  2.1952  2.1864
  764MOL0     H  842   9.037   7.982   0.961 -0.4893  2.7204 -2.9978
  764MOL0     H  843   9.190   8.072   0.932 -2.3328  0.9327  1.2180
  764MOL0     H  844   9.283   7.927   1.134 -0.7839 -1.8374  1.3168
  764MOL0     H  845   9.175   8.054   1.177 -0.7207 -0.1968 -0.9106
  764MOL0     H  846   8.948   7.736   1.293 -0.5805  1.0050  0.9669
  764MOL0     H  847   9.389   7.571   0.706 -0.5163 -0.2137 -1.1470
  764MOL0     H  848   9.303   7.353   0.656  0.3526 -0.8567 -0.8703
  765MOL0     O  849   5.600   4.452   0.578 -1.2728 -0.1805  0.5643
  765MOL0     C  850   5.686   4.404   0.650 -0.0462  0.3111  0.3703
  765MOL0     O  851   5.740   4.273   0.648  0.0995  0.0442  0.7126
  765MOL0     C  852   5.737   4.194   0.539  0.8251 -0.5469  0.2690
  765MOL0     C  853   5.812   4.221   0.422  0.5831 -0.3874  0.4174
  765MOL0     C  854   5.816   4.131   0.319  0.7161  0.3790 -0.7885
  765MOL0     C  855   5.739   4.016   0.328 -0.3055  0.4819  0.5014
  765MOL0     O  856   5.729   3.952   0.209 -0.4974  0.4996 -0.2439
  765MOL0     C  857   5.811   3.833   0.196 -0.7512  0.2289 -0.2711
  765MOL0     C  858   5.783   3.743   0.076  1.0508 -0.5275 -0.1488
  765MOL0     C  859   5.638   3.674   0.079 -0.3657 -0.4108 -0.1531
  765MOL0     C  860   5.519   3.774   0.049 -0.1727  0.5595  0.7898
  765MOL0     C  861   5.387   3.717   0.042  0.3735 -0.2101 -0.3014
  765MOL0     C  862   5.367   3.590  -0.049  0.5542 -1.1264 -0.7109
  765MOL0     C  863   5.221   3.567  -0.067  0.2503  0.2545  0.5328
  765MOL0     C  864   5.179   3.441  -0.148  0.3896  0.4920 -0.4174
  765MOL0     N  865   5.229   3.313  -0.096 -0.6856  0.1558  0.0599
  765MOL0     C  866   5.364   3.273  -0.105  0.7801 -0.1990 -0.4464
  765MOL0     C  867   5.346   3.138  -0.068  1.2609  0.3699 -0.0653
  765MOL0     C  868   5.462   3.041  -0.083  0.1277  0.2236 -0.0621
  765MOL0     C  869   5.547   3.028   0.048 -0.6415 -0.8633  0.2935
  765MOL0     C  870   5.695   3.037   0.010  0.0698  0.0909  0.9730
  765MOL0     C  871   5.775   3.090   0.129  0.3984 -0.0286  1.0861
  765MOL0     O  872   5.782   2.995   0.240  0.0421 -0.0909 -0.0383
  765MOL0     C  873   5.851   3.058   0.347  0.0469 -0.1210  0.7740
  765MOL0     C  874   5.957   2.986   0.407 -0.5911  1.0580  0.4912
  765MOL0     C  875   6.037   3.035   0.507 -0.9100 -0.2237 -0.5308
  765MOL0     C  876   5.996   3.157   0.566 -0.4140  0.3471 -0.0019
  765MOL0     C  877   6.087   3.218   0.665  0.2142  0.3462  0.4413
  765MOL0     O  878   6.073   3.349   0.683  0.5098 -0.4356  0.9073
  765MOL0     C  879   6.145   3.395   0.789 -0.0186 -0.1847  0.4585
  765MOL0     C  880   6.084   3.465   0.899 -0.1891 -0.1984  0.2117
  765MOL0     C  881   6.161   3.510   1.010 -0.7850  1.0459  1.0927
  765MOL0     C  882   6.303   3.512   0.996  0.1580  0.1048  1.5991
  765MOL0     O  883   6.380   3.568   1.093  0.5131 -0.7384 -0.0069
  765MOL0     C  884   6.509   3.621   1.053  1.6007  1.2213 -0.3026
  765MOL0     C  885   6.564   3.719   1.153  0.5988  0.6006 -1.3927
  765MOL0     C  886   6.715   3.706   1.158  0.0812  0.0030  0.1505
  765MOL0     C  887   6.786   3.839   1.197  0.9009  0.0828 -0.8948
  765MOL0     C  888   6.926   3.832   1.252  0.1595 -0.0948 -0.1368
  765MOL0     C  889   6.994   3.969   1.273 -0.1607 -0.3310 -0.0671
  765MOL0     C  890   7.132   3.957   1.325 -0.2373  0.1273  0.3855
  765MOL0     C  891   7.177   4.084   1.395 -0.4458 -0.3411  0.5878
  765MOL0    Cl  892   7.318   4.066   1.505 -0.7508  0.5965  0.1761
  765MOL0     C  893   6.362   3.442   0.891  0.7239  0.1930  0.0417
  765MOL0     C  894   6.280   3.377   0.792 -0.3347  0.1278 -0.3003
  765MOL0     O  895   6.156   3.136   0.735 -0.3848 -0.3182  0.5950
  765MOL0     C  896   5.889   3.235   0.504  0.3394 -0.3891  0.4514
  765MOL0     C  897   5.818   3.183   0.399  0.8812 -0.2074 -0.0892
  765MOL0     N  898   5.213   3.116  -0.028 -0.1973  0.7355 -0.1526
  765MOL0     N  899   5.147   3.213  -0.042  0.2898 -0.3244  1.0358
  765MOL0     C  900   5.661   3.990   0.435 -0.1416 -0.3631  0.5218
  765MOL0     C  901   5.654   4.080   0.547 -0.3567  0.2268  0.1581
  765MOL0     C  902   5.755   4.494   0.742 -0.2933  0.3328 -0.7915
  765MOL0     C  903   5.872   4.470   0.803  0.1918 -0.4475  0.3082
  765MOL0     C  904   5.929   4.553   0.905  0.7204 -0.1778 -0.1118
  765MOL0     C  905   5.863   4.668   0.941 -0.2759  0.0314  0.1068
  765MOL0     O  906   5.926   4.751   1.032  0.1991 -0.0204  0.5743
  765MOL0     C  907   5.844   4.830   1.119  0.9664  0.2885 -0.7264
  765MOL0     C  908   5.780   4.743   1.235 -0.4571 -1.1781 -0.0136
  765MOL0     C  909   5.886   4.690   1.338  0.0110 -0.8592 -0.3768
  765MOL0     C  910   5.984   4.801   1.397  0.1616  0.3664 -0.0807
  765MOL0     C  911   5.906   4.925   1.433 -0.0890  0.0446  0.1812
  765MOL0     C  912   5.850   5.028   1.452 -0.6783  0.2813  0.9210
  765MOL0     C  913   5.750   4.701   0.864  0.4318  0.6482  0.1621
  765MOL0     C  914   5.693   4.615   0.775  0.7564  0.4493 -0.2318
  765MOL0     H  915   5.883   4.303   0.415  2.9675 -1.9373  3.8127
  765MOL0     H  916   5.875   4.163   0.234 -2.2621 -0.8655 -3.5520
  765MOL0     H  917   5.798   3.761   0.277  1.1100 -2.2007 -1.9708
  765MOL0     H  918   5.918   3.853   0.205 -0.5223 -1.2156  0.5693
  765MOL0     H  919   5.864   3.670   0.076  1.4380 -0.2042  2.5164
  765MOL0     H  920   5.794   3.814  -0.007  2.5131 -1.7654 -1.0766
  765MOL0     H  921   5.621   3.639   0.181 -3.1716  0.9336 -0.0635
  765MOL0     H  922   5.638   3.597   0.002  1.2791 -0.7626  0.1607
  765MOL0     H  923   5.520   3.858   0.119 -0.9607  1.7400 -0.5652
  765MOL0     H  924   5.530   3.829  -0.044 -3.0165  2.0596  1.2365
  765MOL0     H  925   5.328   3.800   0.003  1.7122  0.9051 -0.0423
  765MOL0     H  926   5.356   3.692   0.144 -0.9289 -0.8375 -0.8269
  765MOL0     H  927   5.414   3.506   0.003  1.5280  1.2544  2.6516
  765MOL0     H  928   5.409   3.609  -0.148  1.5684  0.4588 -0.0178
  765MOL0     H  929   5.179   3.560   0.033 -1.7770  0.7293 -0.2309
  765MOL0     H  930   5.171   3.654  -0.112  1.2830  0.0403 -1.1241
  765MOL0     H  931   5.211   3.464  -0.250 -0.1331  1.0071 -0.4714
  765MOL0     H  932   5.070   3.436  -0.146  0.4137  0.2430  0.8902
  765MOL0     H  933   5.456   3.318  -0.141  0.4615  0.3431 -0.6018
  765MOL0     H  934   5.519   3.081  -0.168  2.1180  0.2737  1.2366
  765MOL0     H  935   5.437   2.941  -0.120  1.3827  0.8962 -3.0278
  765MOL0     H  936   5.518   2.927   0.080  0.0274 -1.5812 -1.2644
  765MOL0     H  937   5.495   3.086   0.125 -1.0600 -2.3747  1.2073
  765MOL0     H  938   5.743   2.943  -0.020  1.2968  0.0772  2.8516
  765MOL0     H  939   5.721   3.108  -0.069  1.2650 -0.2619  1.0201
  765MOL0     H  940   5.718   3.180   0.153 -0.6442 -0.6631  1.0365
  765MOL0     H  941   5.880   3.105   0.102  0.4729 -1.7803  0.2287
  765MOL0     H  942   5.965   2.887   0.365 -0.3198  1.5327 -0.6046
  765MOL0     H  943   6.127   2.984   0.542  0.1650  2.9430  1.7733
  765MOL0     H  944   5.976   3.463   0.908 -0.3341  2.0467 -0.4680
  765MOL0     H  945   6.110   3.532   1.103 -2.9888 -5.2512  1.8441
  765MOL0     H  946   6.507   3.683   0.964 -1.4594  3.5261  1.2055
  765MOL0     H  947   6.579   3.539   1.033  0.4194  0.2057 -0.3413
  765MOL0     H  948   6.524   3.708   1.254  2.2902  2.6853 -0.4112
  765MOL0     H  949   6.536   3.820   1.121 -0.1314  1.2911  1.2215
  765MOL0     H  950   6.753   3.666   1.063  1.4087 -2.0926  1.4606
  765MOL0     H  951   6.731   3.631   1.236 -1.5750 -0.1459  0.3715
  765MOL0     H  952   6.786   3.895   1.103 -1.1724 -0.5792 -1.3350
  765MOL0     H  953   6.727   3.900   1.267  3.9569  3.8563 -1.3042
  765MOL0     H  954   6.986   3.783   1.174 -0.3528 -0.3648 -0.3666
  765MOL0     H  955   6.921   3.762   1.335  0.8094 -1.7130 -1.3990
  765MOL0     H  956   6.928   4.024   1.342  2.4901  2.1067  0.7192
  765MOL0     H  957   6.991   4.033   1.185  0.5289 -0.8985 -0.5100
  765MOL0     H  958   7.153   3.875   1.395  1.4755  1.2931  1.3062
  765MOL0     H  959   7.190   3.938   1.235  1.2986 -1.4612  1.6332
  765MOL0     H  960   7.099   4.128   1.458 -0.7369  0.3826 -0.2474
  765MOL0     H  961   7.213   4.163   1.328 -2.7201  0.8654  0.6947
  765MOL0     H  962   6.467   3.427   0.866  0.9187 -1.3590  1.5944
  765MOL0     H  963   6.330   3.316   0.717  3.1920 -0.2310  2.1138
  765MOL0     H  964   5.884   3.339   0.534 -0.9719 -0.3440  0.0955
  765MOL0     H  965   5.734   3.249   0.380  0.6363 -0.4026  0.3208
  765MOL0     H  966   5.604   3.898   0.429  1.1136 -1.0833 -2.8884
  765MOL0     H  967   5.597   4.070   0.638  0.3234 -1.8300  0.4207
  765MOL0     H  968   5.933   4.394   0.756 -2.9736 -1.2957 -2.8306
  765MOL0     H  969   6.022   4.535   0.957  0.3307 -0.6474  0.4333
  765MOL0     H  970   5.755   4.881   1.079 -0.8080 -1.8312  0.2927
  765MOL0     H  971   5.902   4.912   1.161  0.8792  0.9957 -1.9364
  765MOL0     H  972   5.701   4.800   1.286 -0.9093 -1.1839 -0.6897
  765MOL0     H  973   5.724   4.662   1.186  0.9799 -2.4214  0.3232
  765MOL0     H  974   5.926   4.598   1.294  0.0400 -0.3936 -1.3474
  765MOL0     H  975   5.824   4.659   1.423 -1.4423  1.0648 -0.6591
  765MOL0     H  976   6.030   4.752   1.483 -0.6344 -0.2681 -0.0017
  765MOL0     H  977   6.068   4.828   1.332  1.0878  0.1462  0.9985
  765MOL0     H  978   5.793   5.118   1.440  0.0112  0.4610 -1.9539
  765MOL0     H  979   5.711   4.802   0.872 -0.4547  0.1874  2.4680
  765MOL0     H  980   5.597   4.640   0.731  0.9276  0.7101 -0.4631
  766MOL0     O  981   7.792   0.745  10.607 -0.2138  0.1321 -0.2215
  766MOL0     C  982   7.740   0.807  10.519  0.2967  0.2671  1.3459
  766MOL0     O  983   7.753   0.940  10.485  0.2430 -0.1686  0.7466
  766MOL0     C  984   7.869   1.008  10.492  0.5803  0.0495 -0.3053
  766MOL0     C  985   7.851   1.147  10.494 -0.0417 -0.5671 -0.2142
  766MOL0     C  986   7.956   1.239  10.504 -0.5593  1.2585  0.4521
  766MOL0     C  987   8.085   1.185  10.517  0.1928  0.4209 -0.2303
  766MOL0     O  988   8.185   1.272  10.520  0.0337 -0.8114 -0.5299
  766MOL0     C  989   8.304   1.245  10.441 -0.2168 -0.3325 -0.1569
  766MOL0     C  990   8.297   1.246  10.291  0.2496  0.2063  0.0145
  766MOL0     C  991   8.283   1.390  10.237 -0.5940  0.2122  0.0220
  766MOL0     C  992   8.143   1.455  10.252  0.1747  1.0433 -0.7510
  766MOL0     C  993   8.140   1.591  10.179  0.5425  0.4803 -0.5269
  766MOL0     C  994   8.232   1.683  10.265 -0.2566 -0.1677 -1.0188
  766MOL0     C  995   8.217   1.842  10.239 -1.1858  0.3549 -0.3242
  766MOL0     C  996   8.085   1.916  10.282  0.0965 -1.4889  0.1749
  766MOL0     N  997   8.112   2.050  10.238 -0.9634  0.1948  0.7874
  766MOL0     C  998   8.157   2.148  10.321  0.2296  0.6934  0.0417
  766MOL0     C  999   8.163   2.258  10.242  0.2191  0.1854  0.5247
  766MOL0     C 1000   8.224   2.394  10.286 -0.2490 -0.5399 -0.5952
  766MOL0     C 1001   8.377   2.401  10.288 -0.3485  0.5122 -0.1737
  766MOL0     C 1002   8.436   2.303  10.393 -0.3074  0.2549 -0.5514
  766MOL0     C 1003   8.596   2.285  10.383  0.9556 -0.2826 -1.0075
  766MOL0     O 1004   8.654   2.214  10.496  0.4798  0.3306 -0.0957
  766MOL0     C 1005   8.777   2.170  10.478  0.1776  0.7110  0.0607
  766MOL0     C 1006   8.818   2.087  10.582 -0.2542 -0.2132  0.1822
  766MOL0     C 1007   8.943   2.041  10.580  0.1844  0.1593 -0.2746
  766MOL0     C 1008   9.036   2.065  10.479 -0.5264 -0.1270  0.8358
  766MOL0     C 1009   9.164   1.994  10.479 -0.7347  0.3384  0.5002
  766MOL0     O 1010   9.214   1.950  10.584 -0.4442  0.0397  0.0927
  766MOL0     C 1011   9.325   1.866  10.597  0.2065  0.2506  0.4094
  766MOL0     C 1012   9.380   1.862  10.718 -0.2772  0.1039  0.5041
  766MOL0     C 1013   9.488   1.771  10.750 -0.4442 -0.1742 -1.3095
  766MOL0     C 1014   9.541   1.689  10.650 -0.6997  0.2278 -1.1706
  766MOL0     O 1015   9.650   1.612  10.690 -0.1484 -1.4859 -0.2566
  766MOL0     C 1016   9.742   1.551  10.602 -0.7080  0.8282  0.2253
  766MOL0     C 1017   9.857   1.483  10.670  0.0482  0.1103 -0.1743
  766MOL0     C 1018   9.964   1.584  10.723  0.0933 -0.4339 -1.1073
  766MOL0     C 1019  10.077   1.521  10.797  1.2494  0.4614  0.7277
  766MOL0     C 1020  10.157   1.415  10.717  0.3505  0.0611  0.5020
  766MOL0     C 1021  10.243   1.453  10.596 -0.1435 -0.6592  0.3052
  766MOL0     C 1022  10.316   1.600  10.593 -0.2340  0.5366 -0.2835
  766MOL0     C 1023  10.436   1.610  10.689  0.9219 -0.5901  0.0852
  766MOL0    Cl 1024  10.572   1.503  10.620 -0.2131 -0.1006 -0.0024
  766MOL0     C 1025   9.480   1.686  10.526  0.2400  0.7356 -0.8576
  766MOL0     C 1026   9.371   1.777  10.500  0.3556  1.4838 -0.6400
  766MOL0     O 1027   9.218   1.987  10.363  0.4533 -0.7230 -0.3580
  766MOL0     C 1028   8.993   2.153  10.378 -0.3508 -0.2583  0.0570
  766MOL0     C 1029   8.866   2.215  10.377 -0.3499  0.6423 -0.0644
  766MOL0     N 1030   8.103   2.231  10.124 -0.7902 -0.0008 -0.4469
  766MOL0     N 1031   8.072   2.107  10.126  0.1331 -0.4323  0.9629
  766MOL0     C 1032   8.100   1.045  10.534 -0.6415 -0.1926  0.7789
  766MOL0     C 1033   7.995   0.962  10.526 -1.1516  0.1207  0.8767
  766MOL0     C 1034   7.640   0.719  10.446  0.4430  0.0321  1.2135
  766MOL0     C 1035   7.644   0.574  10.447  0.4386  0.3065 -0.1732
  766MOL0     C 1036   7.563   0.504  10.354 -0.1442  0.6641  0.9293
  766MOL0     C 1037   7.477   0.561  10.272  1.6987  0.5304  0.8954
  766MOL0     O 1038   7.390   0.501  10.187  0.2776 -0.2294  0.3470
  766MOL0     C 1039   7.394   0.358  10.177 -1.2764 -0.0774  0.9544
  766MOL0     C 1040   7.286   0.305  10.090  0.2437 -1.2816 -0.6842
  766MOL0     C 1041   7.149   0.321  10.151  0.2409 -0.0977 -0.2883
  766MOL0     C 1042   7.026   0.288  10.058  0.0599 -0.5049  0.3232
  766MOL0     C 1043   7.033   0.156   9.990  0.1499  0.3681 -0.5731
  766MOL0     C 1044   7.025   0.040   9.947  1.1965 -0.1565 -0.2016
  766MOL0     C 1045   7.463   0.701  10.279  1.6484 -0.2606  0.4499
  766MOL0     C 1046   7.538   0.784  10.361 -0.6689  0.4047  0.4038
  766MOL0     H 1047   7.752   1.187  10.477  0.5552  0.4961 -1.3655
  766MOL0     H 1048   7.939   1.345  10.492 -0.3889  1.3556  1.0350
  766MOL0     H 1049   8.355   1.159  10.486  0.9789 -0.0959 -1.0015
  766MOL0     H 1050   8.369   1.331  10.461 -1.9821  1.1111 -0.2677
  766MOL0     H 1051   8.212   1.188  10.255 -1.1757  0.4968  2.6281
  766MOL0     H 1052   8.388   1.201  10.251 -0.4352 -2.1879  0.9682
  766MOL0     H 1053   8.284   1.385  10.128  1.7598  0.6479 -0.0458
  766MOL0     H 1054   8.361   1.455  10.277 -3.1378  2.8686  0.9445
  766MOL0     H 1055   8.058   1.394  10.218  0.5184 -1.0867  1.8578
  766MOL0     H 1056   8.122   1.462  10.359 -2.7591  1.5331 -1.2742
  766MOL0     H 1057   8.037   1.629  10.173  0.1397 -0.2801  1.0469
  766MOL0     H 1058   8.179   1.589  10.077 -1.5052  1.8110 -1.4055
  766MOL0     H 1059   8.334   1.666  10.230 -0.6006  0.2685 -2.2660
  766MOL0     H 1060   8.217   1.682  10.374 -1.1767  2.5334 -1.0429
  766MOL0     H 1061   8.303   1.889  10.286  1.6879 -0.7906 -3.9955
  766MOL0     H 1062   8.236   1.858  10.133  1.3506 -0.0244  0.0135
  766MOL0     H 1063   8.077   1.890  10.388  1.5759 -1.1074  0.4122
  766MOL0     H 1064   7.998   1.878  10.227 -0.4967 -0.3967  0.3463
  766MOL0     H 1065   8.183   2.146  10.427  0.9215  1.1598 -0.1130
  766MOL0     H 1066   8.180   2.427  10.380  2.7817  2.0575  0.0721
  766MOL0     H 1067   8.196   2.477  10.220 -0.0010  0.1617  0.1762
  766MOL0     H 1068   8.417   2.496  10.324  2.6619 -0.5168 -0.5120
  766MOL0     H 1069   8.425   2.375  10.193 -1.3475 -1.2508 -0.2221
  766MOL0     H 1070   8.430   2.349  10.493  3.0806 -0.0560 -0.0872
  766MOL0     H 1071   8.383   2.208  10.407 -1.4802  1.0231  0.4258
  766MOL0     H 1072   8.642   2.383  10.367 -0.6589  1.2243  2.5204
  766MOL0     H 1073   8.606   2.229  10.290  0.7781  0.0861 -1.2472
  766MOL0     H 1074   8.748   2.067  10.664  0.6723 -0.2370  0.9876
  766MOL0     H 1075   8.962   1.978  10.666 -1.2223 -0.8151 -0.6342
  766MOL0     H 1076   9.338   1.907  10.808  0.7894  2.1052  0.0603
  766MOL0     H 1077   9.528   1.777  10.851 -1.3871  2.7900 -1.0156
  766MOL0     H 1078   9.789   1.624  10.536  0.2860 -3.0110 -3.8061
  766MOL0     H 1079   9.691   1.481  10.535 -1.8618  0.7553  1.1325
  766MOL0     H 1080   9.907   1.415  10.601 -1.8501 -1.7881  0.2040
  766MOL0     H 1081   9.823   1.409  10.743  2.0655 -2.7712 -1.9822
  766MOL0     H 1082   9.916   1.663  10.781  0.3283 -2.0837  1.5017
  766MOL0     H 1083  10.000   1.638  10.636  3.2459  1.4432  1.1512
  766MOL0     H 1084  10.143   1.606  10.816  1.3116  0.2418  1.5510
  766MOL0     H 1085  10.049   1.479  10.894 -0.6718 -0.1587 -0.0404
  766MOL0     H 1086  10.093   1.335  10.679  1.2020 -1.8937  2.8842
  766MOL0     H 1087  10.225   1.366  10.788  1.7697  1.7658  0.3651
  766MOL0     H 1088  10.161   1.468  10.525 -0.3500  1.3584  0.9057
  766MOL0     H 1089  10.315   1.377  10.567  0.5355 -0.5378  1.5813
  766MOL0     H 1090  10.354   1.611  10.490 -0.3137 -3.8166 -0.9803
  766MOL0     H 1091  10.255   1.688  10.616  0.1745  1.1208 -1.3646
  766MOL0     H 1092  10.412   1.572  10.789 -2.2335 -0.0593 -0.3752
  766MOL0     H 1093  10.466   1.715  10.702 -2.7875  0.3586  2.9624
  766MOL0     H 1094   9.514   1.620  10.447  1.4197  0.8985 -0.4992
  766MOL0     H 1095   9.326   1.777  10.401  1.8358  0.7297 -1.3392
  766MOL0     H 1096   9.054   2.188  10.295 -3.2644  0.3825 -1.9738
  766MOL0     H 1097   8.845   2.297  10.309  1.8543 -0.1199 -1.8132
  766MOL0     H 1098   8.201   1.005  10.540  1.3288  4.3010  1.0701
  766MOL0     H 1099   8.016   0.857  10.542  2.1098  0.9884  3.7725
  766MOL0     H 1100   7.720   0.522  10.505 -0.8552  0.3019  1.6121
  766MOL0     H 1101   7.564   0.397  10.338 -1.3087  0.9607 -1.6075
  766MOL0     H 1102   7.395   0.315  10.277  3.0229  1.2554  1.7049
  766MOL0     H 1103   7.483   0.333  10.119 -4.1910 -0.0889 -4.1116
  766MOL0     H 1104   7.285   0.361   9.997 -0.8617  0.7615  0.4966
  766MOL0     H 1105   7.315   0.200  10.078 -0.2554 -1.4227 -0.6748
  766MOL0     H 1106   7.148   0.422  10.194 -1.9425  0.6851 -2.0012
  766MOL0     H 1107   7.164   0.266  10.245 -0.1531 -0.9733 -0.7278
  766MOL0     H 1108   6.935   0.290  10.117  0.0897  0.4683  0.3516
  766MOL0     H 1109   7.010   0.375   9.994  1.6471  0.8535  1.6812
  766MOL0     H 1110   7.020  -0.060   9.908  1.5502  0.1483 -1.0543
  766MOL0     H 1111   7.385   0.743  10.216  0.8022  0.5962  2.0143
  766MOL0     H 1112   7.531   0.891  10.382  1.4633  0.1752  2.6628
  767MOL0     O 1113   1.321   9.276   4.978 -0.4742 -0.2550  0.2199
  767MOL0     C 1114   1.245   9.188   5.024 -1.1924 -0.3926 -0.5027
  767MOL0     O 1115   1.199   9.185   5.144  0.7127  0.7916 -0.7180
  767MOL0     C 1116   1.215   9.295   5.226 -0.3534 -0.3145  0.2285
  767MOL0     C 1117   1.166   9.424   5.204 -0.8933 -0.9967 -0.1264
  767MOL0     C 1118   1.168   9.524   5.297  0.1285 -0.5155  0.0636
  767MOL0     C 1119   1.237   9.502   5.415  0.7586 -0.0035 -0.7279
  767MOL0     O 1120   1.236   9.605   5.509 -0.0409 -0.3964  0.0583
  767MOL0     C 1121   1.189   9.581   5.644 -0.0390  0.3041 -0.4646
  767MOL0     C 1122   1.042   9.558   5.642  0.9776 -0.3964  0.6067
  767MOL0     C 1123   0.967   9.617   5.759 -0.9107  0.5497 -0.1718
  767MOL0     C 1124   0.816   9.640   5.741 -0.3351  0.5534 -0.3065
  767MOL0     C 1125   0.757   9.735   5.846  0.1758 -1.3544 -0.2787
  767MOL0     C 1126   0.604   9.742   5.837  0.0645  0.8587 -0.0961
  767MOL0     C 1127   0.543   9.786   5.702 -0.1311  0.2387 -0.3853
  767MOL0     C 1128   0.434   9.891   5.729 -0.4978  0.4603 -0.1372
  767MOL0     N 1129   0.319   9.829   5.802  0.0966 -0.4971  0.5591
  767MOL0     C 1130   0.259   9.711   5.765  0.3251 -0.0046  0.0615
  767MOL0     C 1131   0.173   9.674   5.865 -0.3201  0.4807  0.1398
  767MOL0     C 1132   0.076   9.559   5.857  0.2307  0.1014  0.5973
  767MOL0     C 1133  -0.065   9.602   5.817  0.5581  0.4189 -0.6780
  767MOL0     C 1134  -0.127   9.663   5.942 -0.3301  1.0466  0.5442
  767MOL0     C 1135  -0.284   9.653   5.917 -0.5280 -0.3574  0.1701
  767MOL0     O 1136  -0.327   9.519   5.938  0.1224 -0.2681 -0.1034
  767MOL0     C 1137  -0.441   9.480   5.996  0.3722  0.1050  0.0674
  767MOL0     C 1138  -0.553   9.555   5.990  0.7999 -0.6733 -0.1775
  767MOL0     C 1139  -0.675   9.492   6.027 -0.5993 -0.4590 -0.8967
  767MOL0     C 1140  -0.678   9.362   6.085 -0.0333 -0.6221  0.4364
  767MOL0     C 1141  -0.819   9.314   6.122  0.1367 -0.5384 -0.9666
  767MOL0     O 1142  -0.920   9.402   6.118  0.1289 -0.8446  0.0305
  767MOL0     C 1143  -1.054   9.388   6.143  0.0303  0.5631 -0.1346
  767MOL0     C 1144  -1.128   9.271   6.110 -0.0974  0.1477 -0.3563
  767MOL0     C 1145  -1.266   9.277   6.101 -0.0040  0.0775 -0.2056
  767MOL0     C 1146  -1.345   9.382   6.133  0.2941 -0.5174  1.1332
  767MOL0     O 1147  -1.477   9.384   6.132  1.3953  0.0223  0.1558
  767MOL0     C 1148  -1.543   9.256   6.117 -0.2477  0.5533 -0.0311
  767MOL0     C 1149  -1.695   9.269   6.136 -0.3052 -0.9143 -0.7043
  767MOL0     C 1150  -1.737   9.366   6.249 -0.3593  0.5702 -0.7452
  767MOL0     C 1151  -1.892   9.383   6.243  0.5152 -0.2269 -0.4466
  767MOL0     C 1152  -1.934   9.472   6.366  0.5192  0.8548 -0.3744
  767MOL0     C 1153  -2.017   9.391   6.462 -0.5139  1.6536 -0.6040
  767MOL0     C 1154  -2.054   9.443   6.605 -0.4200 -0.0431 -0.5996
  767MOL0     C 1155  -2.090   9.316   6.692 -0.7245  0.1686  0.8760
  767MOL0    Cl 1156  -2.255   9.299   6.687  0.2911  0.3660  0.4776
  767MOL0     C 1157  -1.269   9.498   6.162 -0.8249  0.3842  0.8856
  767MOL0     C 1158  -1.129   9.499   6.174 -0.4601 -0.1098  0.3891
  767MOL0     O 1159  -0.829   9.195   6.141  0.1802 -0.5139 -0.2449
  767MOL0     C 1160  -0.557   9.296   6.097 -0.3317  0.0191  0.0863
  767MOL0     C 1161  -0.434   9.351   6.047 -0.4162 -0.5555 -0.1519
  767MOL0     N 1162   0.201   9.758   5.965 -0.7117 -0.8417 -0.1218
  767MOL0     N 1163   0.290   9.848   5.930  0.0460  0.4575  0.1908
  767MOL0     C 1164   1.284   9.373   5.444 -0.4260  1.0789 -0.5528
  767MOL0     C 1165   1.276   9.274   5.346 -0.8580 -0.4662 -0.5778
  767MOL0     C 1166   1.194   9.076   4.938  0.8275  0.4667 -0.4700
  767MOL0     C 1167   1.096   8.982   4.998  0.4164  0.2240  0.1708
  767MOL0     C 1168   1.051   8.877   4.926  0.1119 -0.3400  0.7220
  767MOL0     C 1169   1.075   8.863   4.792  0.0447 -0.5114  0.3149
  767MOL0     O 1170   1.038   8.757   4.703 -0.7067 -0.2292 -0.8529
  767MOL0     C 1171   0.900   8.713   4.702 -0.0087  0.5759  0.0571
  767MOL0     C 1172   0.907   8.559   4.733 -0.0546 -0.6468 -0.2992
  767MOL0     C 1173   0.771   8.507   4.785 -0.3169  0.3755 -0.4558
  767MOL0     C 1174   0.780   8.357   4.835  0.1031  0.4107  0.4706
  767MOL0     C 1175   0.798   8.270   4.713  1.0148 -0.0765 -1.5676
  767MOL0     C 1176   0.814   8.190   4.630  0.2664  0.7196  0.7132
  767MOL0     C 1177   1.163   8.958   4.732 -0.0847 -1.3705 -0.0337
  767MOL0     C 1178   1.216   9.064   4.804  0.2001  0.0278 -0.7618
  767MOL0     H 1179   1.128   9.433   5.103  3.0583 -1.2330 -1.8126
  767MOL0     H 1180   1.131   9.623   5.274 -2.5622 -1.8426 -1.8993
  767MOL0     H 1181   1.218   9.674   5.694  3.2986 -0.7587 -0.1590
  767MOL0     H 1182   1.240   9.498   5.695  0.4151  2.8276  3.6468
  767MOL0     H 1183   1.012   9.454   5.629 -0.0212  0.1695 -2.7843
  767MOL0     H 1184   1.000   9.612   5.556  0.3458 -0.2857  0.9809
  767MOL0     H 1185   1.018   9.703   5.802  2.2648 -0.0830 -2.2911
  767MOL0     H 1186   0.970   9.547   5.844 -0.0279  0.0287 -0.6185
  767MOL0     H 1187   0.791   9.685   5.645 -0.6185  0.2253 -0.3873
  767MOL0     H 1188   0.772   9.540   5.744 -1.5151  1.0613  0.3546
  767MOL0     H 1189   0.808   9.830   5.827  0.2594 -1.2689  0.3542
  767MOL0     H 1190   0.797   9.708   5.945 -1.8992  0.5753  1.1856
  767MOL0     H 1191   0.562   9.795   5.923 -0.9861 -2.6843  1.7607
  767MOL0     H 1192   0.571   9.638   5.849 -1.2051  1.1637 -0.7382
  767MOL0     H 1193   0.615   9.832   5.634  1.8277 -0.4697  1.1209
  767MOL0     H 1194   0.494   9.704   5.647  1.6705 -2.7756  2.1496
  767MOL0     H 1195   0.389   9.921   5.635  1.6402  2.0466 -0.7221
  767MOL0     H 1196   0.468   9.978   5.786  2.4355 -2.9796  4.1250
  767MOL0     H 1197   0.264   9.654   5.673 -3.5786 -2.7015  1.2544
  767MOL0     H 1198   0.063   9.505   5.951 -3.9967  1.3727  0.9656
  767MOL0     H 1199   0.108   9.494   5.775 -1.3729 -0.5850  0.4791
  767MOL0     H 1200  -0.128   9.517   5.793 -2.4805  1.5557  2.4487
  767MOL0     H 1201  -0.056   9.662   5.726 -0.3145 -0.5833 -1.4432
  767MOL0     H 1202  -0.115   9.614   6.038 -1.0614 -0.2552 -0.0035
  767MOL0     H 1203  -0.101   9.769   5.934 -2.0712  1.7445  3.0125
  767MOL0     H 1204  -0.302   9.695   5.818 -0.0887 -2.1247 -0.6970
  767MOL0     H 1205  -0.336   9.708   5.997 -0.8618  2.4681 -1.8185
  767MOL0     H 1206  -0.549   9.660   5.962  0.2249 -1.6417 -4.5546
  767MOL0     H 1207  -0.759   9.553   5.995 -0.0676  1.1064  0.5312
  767MOL0     H 1208  -1.069   9.184   6.084  0.9731  0.9021 -0.5317
  767MOL0     H 1209  -1.294   9.175   6.077 -0.7436 -0.3605  2.2351
  767MOL0     H 1210  -1.493   9.186   6.184 -0.5710  1.0585  0.7523
  767MOL0     H 1211  -1.527   9.221   6.015 -0.3568 -0.7729  0.3809
  767MOL0     H 1212  -1.734   9.173   6.169 -0.9620  0.7923  4.3289
  767MOL0     H 1213  -1.739   9.294   6.039  1.9343 -0.6279 -1.7327
  767MOL0     H 1214  -1.687   9.463   6.249 -1.5627  1.2315 -1.9428
  767MOL0     H 1215  -1.696   9.315   6.336 -1.4431 -0.2548 -0.6898
  767MOL0     H 1216  -1.929   9.424   6.149 -3.4088 -1.0413  0.5758
  767MOL0     H 1217  -1.931   9.283   6.264 -0.9783  0.6052  0.9978
  767MOL0     H 1218  -1.988   9.561   6.331  2.6690  1.7747 -1.5225
  767MOL0     H 1219  -1.850   9.522   6.415  1.3228  3.1589 -3.6960
  767MOL0     H 1220  -1.957   9.300   6.475 -0.3805  1.9556  1.3149
  767MOL0     H 1221  -2.117   9.370   6.424 -0.4010 -1.0927  0.3766
  767MOL0     H 1222  -1.973   9.506   6.644 -1.8844  1.1919  0.6120
  767MOL0     H 1223  -2.136   9.516   6.602 -0.8788 -0.5655 -0.8288
  767MOL0     H 1224  -2.049   9.341   6.789 -0.0914  0.5980  0.5012
  767MOL0     H 1225  -2.044   9.224   6.655  0.1027  0.6671  0.6478
  767MOL0     H 1226  -1.309   9.589   6.206  0.5729  1.4330  0.0893
  767MOL0     H 1227  -1.071   9.584   6.209  3.9433 -1.8374 -1.9452
  767MOL0     H 1228  -0.567   9.197   6.141 -2.2417 -0.4474 -1.2596
  767MOL0     H 1229  -0.341   9.295   6.038  0.1847  0.3387  0.3460
  767MOL0     H 1230   1.330   9.354   5.541 -0.7265  3.2338  0.0545
  767MOL0     H 1231   1.297   9.174   5.382  1.4940  0.0038 -0.4490
  767MOL0     H 1232   1.054   8.999   5.097 -1.7939 -0.9687 -0.4766
  767MOL0     H 1233   0.982   8.805   4.969  1.7459 -1.6766  1.2462
  767MOL0     H 1234   0.856   8.729   4.602 -0.3281  0.4133  0.1704
  767MOL0     H 1235   0.828   8.758   4.771 -0.9708  0.2906 -0.7254
  767MOL0     H 1236   0.924   8.501   4.642 -0.3919 -0.3427 -0.5604
  767MOL0     H 1237   0.989   8.538   4.803 -0.3858  0.2919  0.3904
  767MOL0     H 1238   0.698   8.507   4.704 -2.3082 -4.4338  1.0045
  767MOL0     H 1239   0.722   8.574   4.857  0.8757  1.4232 -0.5816
  767MOL0     H 1240   0.866   8.353   4.902 -1.3345 -1.6472  2.3319
  767MOL0     H 1241   0.687   8.320   4.879  0.7929 -0.5009  1.1997
  767MOL0     H 1242   0.825   8.108   4.562  0.9092  1.2071  0.2186
  767MOL0     H 1243   1.193   8.960   4.627  0.4669 -0.1948  0.1285
  767MOL0     H 1244   1.267   9.142   4.747  0.3246  0.1834 -0.4411
  768MOL0     O 1245   3.619   9.284   0.508 -0.8119 -0.5392 -0.2334
  768MOL0     C 1246   3.647   9.357   0.414  0.4756 -1.3262  0.0668
  768MOL0     O 1247   3.574   9.369   0.296  0.4030  0.0551  0.0491
  768MOL0     C 1248   3.458   9.300   0.270  0.4122 -0.6090  0.8729
  768MOL0     C 1249   3.372   9.259   0.368 -1.2380 -0.2220 -0.2158
  768MOL0     C 1250   3.254   9.192   0.334  0.0127 -0.0162 -0.8987
  768MOL0     C 1251   3.213   9.181   0.204 -1.5448  0.4316 -0.2771
  768MOL0     O 1252   3.095   9.114   0.173  0.3825  0.3518  0.5226
  768MOL0     C 1253   3.062   9.080   0.035  1.1238  1.4816  0.2662
  768MOL0     C 1254   2.951   8.966   0.039  0.3689  0.3262  0.5983
  768MOL0     C 1255   2.839   8.995   0.136 -0.3871 -0.3788 -0.7215
  768MOL0     C 1256   2.727   8.898   0.119  0.3454 -0.4032 -0.8248
  768MOL0     C 1257   2.720   8.783   0.224  0.6527 -0.5551 -0.8014
  768MOL0     C 1258   2.613   8.679   0.183  0.2479  0.0087 -0.6009
  768MOL0     C 1259   2.629   8.550   0.262  0.3256  0.2097 -0.5351
  768MOL0     C 1260   2.712   8.442   0.190  0.4422  0.2515 -0.4323
  768MOL0     N 1261   2.835   8.487   0.128 -0.5181 -0.5590  0.5189
  768MOL0     C 1262   2.852   8.520  -0.009  0.0163 -0.6319  0.2095
  768MOL0     C 1263   2.993   8.521  -0.030  0.0607  0.0189 -0.0956
  768MOL0     C 1264   3.090   8.522  -0.146  1.0001  0.9175  0.5870
  768MOL0     C 1265   3.147   8.663  -0.165 -0.2372 -0.5781 -0.5733
  768MOL0     C 1266   3.215   8.661  -0.300 -0.2603  0.1699 -0.3025
  768MOL0     C 1267   3.315   8.782  -0.339  0.4511  0.5229 -0.0147
  768MOL0     O 1268   3.425   8.780  -0.254 -0.8908  0.7954 -0.7004
  768MOL0     C 1269   3.494   8.897  -0.255 -0.1831 -0.5414 -0.0614
  768MOL0     C 1270   3.487   8.988  -0.145 -0.7219 -0.5164  0.2627
  768MOL0     C 1271   3.582   9.089  -0.135 -0.5112 -0.1469 -1.1288
  768MOL0     C 1272   3.675   9.108  -0.237 -0.2698  0.0741 -0.3088
  768MOL0     C 1273   3.778   9.212  -0.234 -0.1375 -0.2174  0.6985
  768MOL0     O 1274   3.759   9.301  -0.133 -1.1074 -0.0709 -0.0470
  768MOL0     C 1275   3.854   9.403  -0.105  0.1390 -0.4245 -0.0639
  768MOL0     C 1276   3.899   9.417   0.029 -0.6591 -0.4518  0.2107
  768MOL0     C 1277   4.000   9.515   0.064 -1.4727 -0.2999 -0.8468
  768MOL0     C 1278   4.034   9.609  -0.033 -0.7069  0.1081  0.8815
  768MOL0     O 1279   4.122   9.703  -0.029 -1.0683  0.0948 -0.2783
  768MOL0     C 1280   4.145   9.751   0.103  0.5017  0.7649  0.3784
  768MOL0     C 1281   4.254   9.864   0.099 -0.0430  0.4243 -0.4470
  768MOL0     C 1282   4.392   9.816   0.059 -0.3373  0.8976 -0.6602
  768MOL0     C 1283   4.497   9.915   0.098  0.1263 -0.7535  0.7856
  768MOL0     C 1284   4.637   9.876   0.043  0.0973 -0.9588 -0.5636
  768MOL0     C 1285   4.734  10.001   0.049  0.7155  0.0845 -0.0058
  768MOL0     C 1286   4.706  10.097  -0.065  0.5591 -0.3318 -0.2322
  768MOL0     C 1287   4.705  10.234   0.007  0.2496  0.2310  0.4627
  768MOL0    Cl 1288   4.650  10.350  -0.126 -0.2291 -0.7348  0.3859
  768MOL0     C 1289   3.994   9.594  -0.165  0.0467  0.2463 -0.3049
  768MOL0     C 1290   3.905   9.492  -0.200  0.7431  0.2161  0.2507
  768MOL0     O 1291   3.866   9.223  -0.321 -0.1783 -0.1546 -0.4805
  768MOL0     C 1292   3.681   9.023  -0.348  0.1465 -0.6864 -0.4371
  768MOL0     C 1293   3.588   8.919  -0.360  0.3144  0.1976 -0.5413
  768MOL0     N 1294   3.049   8.493   0.090  0.0806 -0.3182 -0.0124
  768MOL0     N 1295   2.956   8.479   0.182 -1.6844  0.5245 -0.3553
  768MOL0     C 1296   3.296   9.232   0.100  0.3070  0.8809 -1.2189
  768MOL0     C 1297   3.419   9.286   0.132 -0.6258  0.4120  0.3028
  768MOL0     C 1298   3.757   9.455   0.437  0.8101  0.2638  0.2598
  768MOL0     C 1299   3.864   9.442   0.521 -0.4568  0.2494 -0.5412
  768MOL0     C 1300   3.969   9.524   0.534  0.0125  0.2813 -0.6361
  768MOL0     C 1301   3.973   9.635   0.448  0.1711  0.7805  0.7162
  768MOL0     O 1302   4.073   9.732   0.439 -0.7850  0.5514 -1.3181
  768MOL0     C 1303   4.176   9.739   0.545  0.1150  0.2837  0.2886
  768MOL0     C 1304   4.209   9.885   0.545  0.3727 -0.0596  0.7572
  768MOL0     C 1305   4.351   9.906   0.488  0.0498 -0.4436  0.1719
  768MOL0     C 1306   4.393  10.054   0.464 -0.2816  0.9435  0.7489
  768MOL0     C 1307   4.538  10.064   0.451  0.2816 -0.8981  0.0933
  768MOL0     C 1308   4.657  10.076   0.442  0.1783  0.1085 -0.6101
  768MOL0     C 1309   3.860   9.658   0.367  0.0613  0.5392 -0.2262
  768MOL0     C 1310   3.752   9.569   0.369  0.7351 -0.8080 -0.6551
  768MOL0     H 1311   3.396   9.267   0.474 -1.5366  4.2606 -0.2841
  768MOL0     H 1312   3.179   9.160   0.405 -0.5394  3.0591  0.0225
  768MOL0     H 1313   3.150   9.041  -0.018 -0.3547 -1.0752 -0.4680
  768MOL0     H 1314   3.021   9.162  -0.026 -0.0497 -0.9869 -2.4902
  768MOL0     H 1315   2.991   8.872   0.077 -0.5372  0.0157  0.8205
  768MOL0     H 1316   2.913   8.946  -0.062 -1.2674  0.5034  1.1420
  768MOL0     H 1317   2.807   9.099   0.132 -1.3957 -0.4441  2.8737
  768MOL0     H 1318   2.873   8.983   0.239 -1.2321  0.2168 -0.3644
  768MOL0     H 1319   2.633   8.953   0.119  0.4201 -0.2740 -0.4727
  768MOL0     H 1320   2.735   8.847   0.023 -4.0766 -2.2036 -0.4476
  768MOL0     H 1321   2.695   8.833   0.318  1.3179  2.4885 -2.1247
  768MOL0     H 1322   2.823   8.750   0.238  0.5189 -0.5625  0.2612
  768MOL0     H 1323   2.615   8.668   0.075 -0.1895  1.8339 -0.8190
  768MOL0     H 1324   2.512   8.720   0.192  0.1270 -0.1004 -1.3742
  768MOL0     H 1325   2.659   8.587   0.360 -0.8350  0.1041 -0.1208
  768MOL0     H 1326   2.529   8.507   0.275  0.0533  1.3043  1.3414
  768MOL0     H 1327   2.650   8.393   0.114  0.0352 -0.0506  0.0861
  768MOL0     H 1328   2.724   8.367   0.269  3.3416  3.8913  2.9849
  768MOL0     H 1329   2.777   8.532  -0.087  1.3929  1.5677 -0.8851
  768MOL0     H 1330   3.032   8.491  -0.234  2.4500  2.1310 -0.8662
  768MOL0     H 1331   3.175   8.454  -0.152  0.4934  0.1561  1.7974
  768MOL0     H 1332   3.222   8.680  -0.087  0.3163 -2.7066 -0.5985
  768MOL0     H 1333   3.058   8.726  -0.152 -0.9068 -1.9566  2.5232
  768MOL0     H 1334   3.289   8.580  -0.299 -0.1718  0.2534 -0.1698
  768MOL0     H 1335   3.147   8.655  -0.386 -2.9619  2.1339  1.5204
  768MOL0     H 1336   3.252   8.871  -0.328 -2.0605 -0.8660 -2.0219
  768MOL0     H 1337   3.342   8.785  -0.445  0.5850  0.2932  0.0140
  768MOL0     H 1338   3.417   8.961  -0.066 -2.8543  1.9368 -0.6107
  768MOL0     H 1339   3.574   9.144  -0.042 -4.8116  1.2979 -2.0926
  768MOL0     H 1340   3.859   9.358   0.110  0.9882 -2.1069 -0.1212
  768MOL0     H 1341   4.035   9.521   0.166  1.2142 -0.9076 -1.6405
  768MOL0     H 1342   4.173   9.671   0.173  1.1535  0.2466 -0.4475
  768MOL0     H 1343   4.052   9.792   0.143 -1.1607 -3.5145  1.4373
  768MOL0     H 1344   4.255   9.914   0.196  0.2873 -0.3766 -0.0267
  768MOL0     H 1345   4.216   9.937   0.028 -1.8388  1.0057  1.0205
  768MOL0     H 1346   4.399   9.793  -0.047  4.3275  0.7284 -0.5473
  768MOL0     H 1347   4.402   9.728   0.125 -1.6763  1.0828 -0.1746
  768MOL0     H 1348   4.466  10.017   0.074 -1.0141 -0.2530  3.9065
  768MOL0     H 1349   4.499   9.927   0.206  2.9126  1.7177  0.5907
  768MOL0     H 1350   4.630   9.833  -0.057  1.4226  1.1235 -1.6174
  768MOL0     H 1351   4.684   9.803   0.110  1.1749 -4.0602 -4.3248
  768MOL0     H 1352   4.832   9.955   0.029  0.4933  0.5351 -2.4582
  768MOL0     H 1353   4.729  10.048   0.148  1.0561  1.0355 -0.4226
  768MOL0     H 1354   4.782  10.091  -0.144 -0.0968  0.3660 -0.9270
  768MOL0     H 1355   4.603  10.091  -0.101  0.6223  3.0899 -1.3637
  768MOL0     H 1356   4.807  10.256   0.040  0.6842 -1.6635  0.5169
  768MOL0     H 1357   4.638  10.225   0.093  0.1587 -1.6867  0.2284
  768MOL0     H 1358   4.023   9.666  -0.240 -0.1096  2.9457  2.0739
  768MOL0     H 1359   3.871   9.495  -0.303 -1.6591 -0.1065  0.9680
  768MOL0     H 1360   3.752   9.042  -0.429  1.0036 -1.8332  0.0052
  768MOL0     H 1361   3.598   8.864  -0.453  0.3012 -1.0485  0.1791
  768MOL0     H 1362   3.282   9.205  -0.004 -0.5215 -1.4400 -0.5496
  768MOL0     H 1363   3.462   9.335   0.046 -5.1862  1.7030 -1.5715
  768MOL0     H 1364   3.847   9.360   0.591  0.1442  0.5114 -0.0766
  768MOL0     H 1365   4.049   9.508   0.606 -2.1275  0.2398  1.8435
  768MOL0     H 1366   4.251   9.662   0.525 -1.6857 -1.0144 -1.8808
  768MOL0     H 1367   4.129   9.721   0.641 -0.6908  2.9656  0.4761
  768MOL0     H 1368   4.137   9.949   0.493  1.8331  1.1844  0.1749
  768MOL0     H 1369   4.206   9.919   0.649 -1.9655 -2.1534  1.4639
  768MOL0     H 1370   4.364   9.843   0.399  1.3937  0.1948 -0.1013
  768MOL0     H 1371   4.410   9.864   0.570 -1.3875 -0.3387  1.2946
  768MOL0     H 1372   4.345  10.090   0.372 -2.2301 -0.2522  1.2242
  768MOL0     H 1373   4.346  10.102   0.550 -4.1669 -0.2558 -0.4740
  768MOL0     H 1374   4.765  10.078   0.439  0.1747  2.3540 -0.7641
  768MOL0     H 1375   3.848   9.747   0.306 -0.8121  1.2340  0.9196
  768MOL0     H 1376   3.669   9.595   0.304  0.6058 -0.8130 -0.4929
  769MOL0     O 1377   8.596   4.515  10.264  0.3332  0.3317 -0.3039
  769MOL0     C 1378   8.522   4.435  10.201 -0.0114  1.0224  0.3032
  769MOL0     O 1379   8.467   4.325  10.251  0.2755 -0.5079 -0.2539
  769MOL0     C 1380   8.523   4.273  10.364  0.1850 -0.4146 -0.6884
  769MOL0     C 1381   8.471   4.317  10.487 -0.1649 -0.7264  0.0426
  769MOL0     C 1382   8.514   4.272  10.607  0.0796 -0.8232 -0.4440
  769MOL0     C 1383   8.622   4.180  10.607 -0.6920  0.0859  0.3839
  769MOL0     O 1384   8.688   4.138  10.720 -0.6335 -0.2476 -0.9758
  769MOL0     C 1385   8.652   4.181  10.850  0.2082  0.2292  0.1535
  769MOL0     C 1386   8.744   4.127  10.955 -0.8316  0.2123  0.1839
  769MOL0     C 1387   8.737   3.965  10.960 -0.3803  0.9578  1.3303
  769MOL0     C 1388   8.852   3.907  11.045  0.4504  0.1029 -0.1371
  769MOL0     C 1389   8.810   3.792  11.145  0.2582  0.4983  0.0265
  769MOL0     C 1390   8.746   3.667  11.079 -0.2506  0.4745 -0.4760
  769MOL0     C 1391   8.855   3.604  10.994 -0.6993 -0.3566  1.0558
  769MOL0     C 1392   8.787   3.473  10.929 -0.4385  0.5535 -0.1253
  769MOL0     N 1393   8.693   3.486  10.822 -0.0039  0.3015 -0.5631
  769MOL0     C 1394   8.555   3.509  10.815 -0.0800 -0.1152 -0.6667
  769MOL0     C 1395   8.524   3.516  10.684  0.3500 -0.1586  0.4805
  769MOL0     C 1396   8.384   3.549  10.630 -1.0606 -0.2843 -0.7161
  769MOL0     C 1397   8.392   3.690  10.580  0.2157 -0.4326 -0.1363
  769MOL0     C 1398   8.470   3.699  10.441  0.3856  0.7808 -0.3339
  769MOL0     C 1399   8.492   3.848  10.407 -0.2612  0.2257  0.0374
  769MOL0     O 1400   8.495   3.870  10.267  0.0458  0.1437  0.5348
  769MOL0     C 1401   8.404   3.947  10.203  0.2496  0.1412  0.3011
  769MOL0     C 1402   8.399   3.915  10.065  0.0100 -0.2512  0.5624
  769MOL0     C 1403   8.316   3.989   9.976  0.7135 -0.6031  0.8270
  769MOL0     C 1404   8.238   4.097  10.031  0.3158  0.4822  0.2047
  769MOL0     C 1405   8.158   4.189   9.945 -0.5772  0.3403 -0.5550
  769MOL0     O 1406   8.087   4.284  10.003 -0.3851 -0.9496  0.2480
  769MOL0     C 1407   8.021   4.374   9.928  1.2972  0.1852  0.0316
  769MOL0     C 1408   8.077   4.493   9.882  1.0024 -0.1691  0.3842
  769MOL0     C 1409   7.991   4.580   9.806 -0.0595  0.2631  0.8329
  769MOL0     C 1410   7.874   4.537   9.751 -0.3661 -0.1831 -0.7582
  769MOL0     O 1411   7.793   4.608   9.665 -0.6494  0.5615 -0.3766
  769MOL0     C 1412   7.853   4.714   9.596 -0.5969 -0.7480  0.4976
  769MOL0     C 1413   7.764   4.798   9.510 -0.1952 -0.3186  0.8294
  769MOL0     C 1414   7.827   4.942   9.486 -1.0305  0.5821 -0.3746
  769MOL0     C 1415   7.752   5.042   9.413 -0.1785 -0.4364 -0.6393
  769MOL0     C 1416   7.610   5.087   9.472  0.4581  0.1052  1.1772
  769MOL0     C 1417   7.495   5.103   9.363  0.6611 -0.1609 -0.0010
  769MOL0     C 1418   7.430   4.973   9.302  0.0231 -1.0330  1.0154
  769MOL0     C 1419   7.355   5.003   9.170  0.0057 -0.0023 -0.2141
  769MOL0    Cl 1420   7.241   5.143   9.166 -0.3391  0.4466  0.0449
  769MOL0     C 1421   7.824   4.414   9.784 -0.4103 -0.1985 -0.0977
  769MOL0     C 1422   7.890   4.336   9.884 -0.4879 -0.5801 -0.3796
  769MOL0     O 1423   8.183   4.189   9.823  0.6170  0.0255  0.3697
  769MOL0     C 1424   8.234   4.124  10.168  0.9191 -0.2609 -0.7417
  769MOL0     C 1425   8.322   4.053  10.252 -0.8450 -0.4106 -0.6955
  769MOL0     N 1426   8.646   3.486  10.613 -0.5665 -0.3632 -0.5014
  769MOL0     N 1427   8.745   3.475  10.696 -0.2552  0.4059 -0.5879
  769MOL0     C 1428   8.684   4.143  10.487  0.4535  0.0205  0.0552
  769MOL0     C 1429   8.636   4.186  10.360 -0.1924 -0.1829 -0.3828
  769MOL0     C 1430   8.498   4.463  10.057  0.2084  0.3952  1.3185
  769MOL0     C 1431   8.471   4.353   9.972 -1.7028  0.0068  0.4580
  769MOL0     C 1432   8.447   4.367   9.833 -0.7230 -0.4900  0.4750
  769MOL0     C 1433   8.446   4.493   9.785 -0.3840 -0.4372 -0.1585
  769MOL0     O 1434   8.435   4.509   9.653 -0.2596  0.3982 -0.0594
  769MOL0     C 1435   8.325   4.581   9.602  0.2985 -0.0733 -0.5464
  769MOL0     C 1436   8.328   4.581   9.440  0.1403 -2.1066 -0.4531
  769MOL0     C 1437   8.215   4.665   9.377  0.3649 -0.1394  0.3311
  769MOL0     C 1438   8.231   4.674   9.228 -0.8356 -0.6279  0.5842
  769MOL0     C 1439   8.096   4.679   9.160 -0.3759  0.0207  0.5897
  769MOL0     C 1440   7.996   4.658   9.095  0.5321 -0.0427 -0.5759
  769MOL0     C 1441   8.462   4.612   9.860 -1.1538  0.3488  0.1344
  769MOL0     C 1442   8.494   4.591   9.996 -0.5382 -0.9231  0.5271
  769MOL0     H 1443   8.386   4.384  10.486  0.3305 -0.0986 -0.2790
  769MOL0     H 1444   8.452   4.302  10.692 -3.3064  2.7898 -3.7676
  769MOL0     H 1445   8.548   4.169  10.880  0.5826 -0.2026  1.3208
  769MOL0     H 1446   8.651   4.291  10.855 -3.1695  0.2583  1.0370
  769MOL0     H 1447   8.703   4.157  11.052  1.2676  2.3486  0.4910
  769MOL0     H 1448   8.847   4.163  10.946 -1.2635  1.6425  0.7477
  769MOL0     H 1449   8.745   3.922  10.859 -3.0930  2.8662  0.1959
  769MOL0     H 1450   8.638   3.927  10.986 -0.0154 -1.1831 -0.0862
  769MOL0     H 1451   8.932   3.867  10.981  0.0613 -1.1076  0.1121
  769MOL0     H 1452   8.885   3.988  11.111 -1.1737 -1.9849  3.5292
  769MOL0     H 1453   8.745   3.846  11.215 -0.5072  0.0619 -0.3342
  769MOL0     H 1454   8.894   3.764  11.209 -1.0702 -0.1977  1.5339
  769MOL0     H 1455   8.656   3.691  11.023  0.3695  1.0150 -1.2541
  769MOL0     H 1456   8.713   3.597  11.157 -1.4524  1.3183 -0.2032
  769MOL0     H 1457   8.889   3.661  10.908 -0.5692 -1.5932  0.2562
  769MOL0     H 1458   8.943   3.583  11.056  0.2466 -0.8867 -0.4162
  769MOL0     H 1459   8.765   3.411  11.016  1.9189  4.5582  3.7170
  769MOL0     H 1460   8.871   3.412  10.896  0.9139  1.0705  2.1425
  769MOL0     H 1461   8.483   3.508  10.896 -1.7510  2.8593 -1.9907
  769MOL0     H 1462   8.311   3.549  10.711 -0.1392  1.2454  0.1655
  769MOL0     H 1463   8.358   3.479  10.549  1.4638 -1.8860 -0.2680
  769MOL0     H 1464   8.450   3.755  10.646 -1.9837 -1.2818  2.8898
  769MOL0     H 1465   8.297   3.741  10.562  0.5463 -0.1397 -1.0613
  769MOL0     H 1466   8.560   3.637  10.438 -1.8811 -2.8039 -0.1249
  769MOL0     H 1467   8.412   3.656  10.359  0.8201 -1.9925  0.7010
  769MOL0     H 1468   8.589   3.873  10.450  0.0983  1.0741 -1.2157
  769MOL0     H 1469   8.409   3.910  10.444 -2.2547 -2.1095 -0.2522
  769MOL0     H 1470   8.474   3.856  10.012  0.2488  2.3795 -2.3185
  769MOL0     H 1471   8.311   3.989   9.868  0.6484 -0.1261  0.8268
  769MOL0     H 1472   8.180   4.521   9.900  0.5558  0.5578  2.0133
  769MOL0     H 1473   8.032   4.673   9.769  2.4511 -0.6730  1.0250
  769MOL0     H 1474   7.938   4.673   9.541 -0.3704 -2.2999  1.9451
  769MOL0     H 1475   7.888   4.788   9.668 -1.2031 -1.1541  1.2286
  769MOL0     H 1476   7.661   4.810   9.545 -0.5411  0.7649 -0.4947
  769MOL0     H 1477   7.756   4.759   9.408  4.5433  0.5404 -0.1015
  769MOL0     H 1478   7.929   4.935   9.447 -1.7105 -0.3091 -2.0821
  769MOL0     H 1479   7.847   4.984   9.585 -0.6853 -0.9062  0.2056
  769MOL0     H 1480   7.810   5.134   9.395 -0.8305 -0.3572 -2.5528
  769MOL0     H 1481   7.732   4.989   9.319 -1.3157 -0.4577 -0.4047
  769MOL0     H 1482   7.638   5.183   9.518  2.3487  2.2419 -3.7473
  769MOL0     H 1483   7.581   5.025   9.557 -1.8732 -1.4892 -0.6555
  769MOL0     H 1484   7.521   5.169   9.280  0.1507 -1.1143 -0.9384
  769MOL0     H 1485   7.413   5.154   9.415  0.7793 -0.6883  0.7110
  769MOL0     H 1486   7.514   4.909   9.275  2.5338  1.4207  2.4487
  769MOL0     H 1487   7.361   4.932   9.376 -0.3666 -2.0454  0.1088
  769MOL0     H 1488   7.301   4.910   9.147 -4.3658  1.8426  1.6161
  769MOL0     H 1489   7.428   5.011   9.089  2.4170  1.3141  1.9408
  769MOL0     H 1490   7.731   4.389   9.734 -2.0404  2.0801  1.5974
  769MOL0     H 1491   7.851   4.246   9.929  1.1452 -1.8880 -1.4708
  769MOL0     H 1492   8.192   4.213  10.215  0.4925 -0.5493 -0.5685
  769MOL0     H 1493   8.346   4.082  10.354  1.7559  1.2950 -1.6893
  769MOL0     H 1494   8.775   4.085  10.493  0.5133  0.1999  0.9971
  769MOL0     H 1495   8.687   4.154  10.270 -0.1972 -1.9337  0.2022
  769MOL0     H 1496   8.478   4.249  10.003 -2.8886  0.4136  2.2938
  769MOL0     H 1497   8.438   4.283   9.765  1.3987  0.5452 -1.2210
  769MOL0     H 1498   8.320   4.684   9.639  0.5852  0.0329 -0.8079
  769MOL0     H 1499   8.234   4.535   9.642  1.0158 -2.1302 -1.1178
  769MOL0     H 1500   8.424   4.612   9.399  0.7135  0.4285  2.4492
  769MOL0     H 1501   8.325   4.474   9.418  0.2699 -1.7180 -2.5544
  769MOL0     H 1502   8.209   4.755   9.438  0.6862 -0.1095  0.3203
  769MOL0     H 1503   8.122   4.608   9.389 -0.8368  1.1250 -2.2774
  769MOL0     H 1504   8.291   4.760   9.194 -2.0862  0.7239  1.6559
  769MOL0     H 1505   8.274   4.579   9.196 -0.8589  0.0644 -1.6873
  769MOL0     H 1506   7.901   4.628   9.054  0.6429 -0.5223 -0.4776
  769MOL0     H 1507   8.445   4.706   9.808  0.6997  0.8819  0.3851
  769MOL0     H 1508   8.511   4.680  10.056  0.7700 -0.2695 -0.7320
  770MOL0     O 1509   3.669  10.347   0.888 -0.1024  0.3694 -0.1852
  770MOL0     C 1510   3.692  10.357   1.002  0.0005 -0.4789 -0.3962
  770MOL0     O 1511   3.615  10.311   1.107  0.4864 -0.6747 -0.3177
  770MOL0     C 1512   3.513  10.219   1.085  0.9656  0.0138 -0.4811
  770MOL0     C 1513   3.405  10.225   1.178  0.5383 -0.0251 -0.1536
  770MOL0     C 1514   3.299  10.137   1.170  0.8883 -0.8848 -0.6226
  770MOL0     C 1515   3.293  10.040   1.070 -0.3504  0.2010 -1.3661
  770MOL0     O 1516   3.171   9.974   1.060 -0.8952  0.0111 -0.5523
  770MOL0     C 1517   3.123   9.970   0.931  0.3371 -0.8172  0.1149
  770MOL0     C 1518   2.996  10.035   0.912  0.9277 -0.0994 -0.3261
  770MOL0     C 1519   2.982  10.181   0.978 -0.1740  0.8024 -0.3283
  770MOL0     C 1520   2.837  10.216   0.973 -0.3901 -0.1286 -0.2647
  770MOL0     C 1521   2.790  10.344   1.056 -0.2432 -1.1226 -0.3874
  770MOL0     C 1522   2.742  10.461   0.968 -0.1381  0.2747 -0.1724
  770MOL0     C 1523   2.719  10.578   1.067  0.3697  1.0013  0.5681
  770MOL0     C 1524   2.673  10.700   0.989 -0.3399 -0.3041 -0.1278
  770MOL0     N 1525   2.789  10.751   0.918 -0.1259 -0.5883 -1.1636
  770MOL0     C 1526   2.868  10.863   0.951 -0.9668  0.0330 -0.3374
  770MOL0     C 1527   2.933  10.878   0.823 -0.2896  0.0827 -0.1680
  770MOL0     C 1528   3.046  10.980   0.798 -0.0845 -0.4451 -0.3009
  770MOL0     C 1529   3.161  10.980   0.888  0.1814  0.2854 -0.9107
  770MOL0     C 1530   3.278  11.057   0.848  0.3557 -0.8115 -0.2934
  770MOL0     C 1531   3.391  11.083   0.952 -0.4070 -0.5378  0.0852
  770MOL0     O 1532   3.354  11.194   1.034  0.3585  0.0471  0.0920
  770MOL0     C 1533   3.452  11.259   1.096  0.5158  0.2340 -1.0035
  770MOL0     C 1534   3.410  11.375   1.147  0.0615  0.1990 -0.6073
  770MOL0     C 1535   3.511  11.462   1.203  1.3389 -0.1578  0.2848
  770MOL0     C 1536   3.644  11.423   1.213  0.1018  0.5968  0.7431
  770MOL0     C 1537   3.752  11.505   1.278 -0.8747 -0.9029  1.0578
  770MOL0     O 1538   3.879  11.456   1.276  0.2710  0.4987 -0.1244
  770MOL0     C 1539   3.974  11.526   1.343 -0.1759 -0.3657 -0.1796
  770MOL0     C 1540   4.074  11.604   1.281  0.7045 -0.3157 -0.3956
  770MOL0     C 1541   4.162  11.685   1.353 -0.9893 -0.3621 -0.0724
  770MOL0     C 1542   4.165  11.696   1.490 -0.9235 -0.8503 -0.9561
  770MOL0     O 1543   4.249  11.784   1.555  0.8704  0.2906 -0.5393
  770MOL0     C 1544   4.303  11.744   1.678  0.8395  0.1552  0.3422
  770MOL0     C 1545   4.424  11.835   1.706 -0.7019 -0.1227  0.2898
  770MOL0     C 1546   4.498  11.827   1.840  0.5600 -0.0201  0.1391
  770MOL0     C 1547   4.589  11.948   1.855 -0.5531  0.4837 -1.2407
  770MOL0     C 1548   4.635  11.939   1.997 -0.8953  0.3844  0.2385
  770MOL0     C 1549   4.734  12.059   2.028  0.3784 -0.2505 -0.3658
  770MOL0     C 1550   4.660  12.189   2.059  1.0419  0.2771 -0.5339
  770MOL0     C 1551   4.742  12.299   2.133  0.0323  0.4238  0.7088
  770MOL0    Cl 1552   4.658  12.456   2.142 -0.0599 -0.2440 -0.0911
  770MOL0     C 1553   4.065  11.622   1.550 -0.3877  0.4046 -0.1096
  770MOL0     C 1554   3.976  11.530   1.484 -0.3367  0.4316  0.3159
  770MOL0     O 1555   3.729  11.619   1.308 -0.1367 -0.3184 -0.2005
  770MOL0     C 1556   3.681  11.292   1.169  0.3574  0.1957 -1.1748
  770MOL0     C 1557   3.585  11.220   1.104 -0.3641  0.1151  0.1554
  770MOL0     N 1558   2.895  10.779   0.740  0.0979  0.1955 -0.2140
  770MOL0     N 1559   2.804  10.717   0.793  0.4146  0.3752 -0.7027
  770MOL0     C 1560   3.399  10.037   0.976 -0.0705  0.0071  0.7306
  770MOL0     C 1561   3.513  10.118   0.986  0.0822 -1.0115  0.1398
  770MOL0     C 1562   3.820  10.414   1.045  0.2889  1.4226 -1.2809
  770MOL0     C 1563   3.905  10.482   0.958 -0.7190  0.8821 -0.0228
  770MOL0     C 1564   4.022  10.549   0.998 -0.8816 -0.9144  0.4575
  770MOL0     C 1565   4.076  10.542   1.136  0.3814 -0.7118  0.6774
  770MOL0     O 1566   4.180  10.618   1.196 -0.4006  0.6631  0.3675
  770MOL0     C 1567   4.282  10.668   1.106 -0.1887 -0.1559 -0.1119
  770MOL0     C 1568   4.377  10.766   1.179 -0.0380 -1.3242 -0.0474
  770MOL0     C 1569   4.304  10.899   1.241  1.1368 -0.4398  0.0438
  770MOL0     C 1570   4.408  11.004   1.249  0.6721  0.3972  0.1463
  770MOL0     C 1571   4.513  10.974   1.350 -0.1211  0.3011  1.1574
  770MOL0     C 1572   4.603  10.927   1.429  0.0524  0.2305 -0.3149
  770MOL0     C 1573   3.986  10.479   1.220  1.0821 -0.8457  0.1380
  770MOL0     C 1574   3.864  10.412   1.182 -0.3944 -0.2155  0.0051
  770MOL0     H 1575   3.410  10.311   1.245  0.4776  1.3419 -1.8420
  770MOL0     H 1576   3.214  10.146   1.235 -0.3726 -0.4685 -2.2585
  770MOL0     H 1577   3.123   9.864   0.904 -1.2548 -1.2763  1.6744
  770MOL0     H 1578   3.188  10.012   0.854  0.6855 -1.1585  0.2202
  770MOL0     H 1579   2.917   9.967   0.946  1.7665 -1.3108 -0.7531
  770MOL0     H 1580   2.972  10.058   0.808  2.0209  1.8759 -0.1977
  770MOL0     H 1581   3.038  10.253   0.918 -2.2087  1.2908 -1.7489
  770MOL0     H 1582   3.017  10.174   1.082 -0.7966 -1.2146 -0.1992
  770MOL0     H 1583   2.818  10.233   0.866 -2.5478  3.4882  0.5087
  770MOL0     H 1584   2.774  10.138   1.016  2.0974 -1.2353  1.6466
  770MOL0     H 1585   2.870  10.382   1.120 -1.4049  1.2588 -0.2385
  770MOL0     H 1586   2.717  10.313   1.131 -0.0257 -0.2249  0.2127
  770MOL0     H 1587   2.649  10.431   0.919  0.6871  0.5228 -1.9840
  770MOL0     H 1588   2.813  10.487   0.888 -0.8678 -2.3881 -1.8095
  770MOL0     H 1589   2.637  10.560   1.138  2.3053 -0.1581  2.6103
  770MOL0     H 1590   2.809  10.591   1.127  1.1395 -1.8968  0.1746
  770MOL0     H 1591   2.648  10.784   1.054 -0.0193  0.9582 -1.5582
  770MOL0     H 1592   2.588  10.686   0.922 -1.8920  3.0766  0.8948
  770MOL0     H 1593   2.885  10.921   1.042  2.0070  1.6881 -1.8004
  770MOL0     H 1594   3.009  11.083   0.806  1.4850  0.0353  1.8720
  770MOL0     H 1595   3.081  10.963   0.696 -3.2067 -0.8802 -1.4155
  770MOL0     H 1596   3.188  10.874   0.891 -1.5581 -0.1985  1.4117
  770MOL0     H 1597   3.112  11.005   0.983 -0.4436 -1.5852 -0.6950
  770MOL0     H 1598   3.327  10.993   0.774  2.2906 -3.4372  3.0006
  770MOL0     H 1599   3.246  11.148   0.796  1.7520 -0.1708 -0.0611
  770MOL0     H 1600   3.494  11.101   0.919  0.5944 -0.7809  2.8281
  770MOL0     H 1601   3.403  10.992   1.012  4.5789 -0.2327 -0.0229
  770MOL0     H 1602   3.308  11.406   1.126  0.6647  3.7536  0.9292
  770MOL0     H 1603   3.487  11.562   1.237  0.9203  0.6357 -2.1855
  770MOL0     H 1604   4.089  11.602   1.173  2.0811  0.9679 -0.2664
  770MOL0     H 1605   4.248  11.734   1.307  1.1953  0.2403  4.1234
  770MOL0     H 1606   4.357  11.649   1.679  1.3396  0.4226 -0.5146
  770MOL0     H 1607   4.220  11.746   1.749 -1.3918 -3.4150 -1.8554
  770MOL0     H 1608   4.394  11.938   1.682  0.3272 -0.5000 -3.0047
  770MOL0     H 1609   4.504  11.822   1.634 -0.8402  2.1620 -0.3578
  770MOL0     H 1610   4.561  11.738   1.853 -2.7079 -2.3601  1.4945
  770MOL0     H 1611   4.435  11.815   1.928  1.2736 -0.5857  0.5852
  770MOL0     H 1612   4.670  11.970   1.785 -0.4511  1.3027 -0.8742
  770MOL0     H 1613   4.520  12.032   1.843 -0.4471  0.6369 -0.7768
  770MOL0     H 1614   4.665  11.842   2.038 -4.6802 -1.2902 -0.5378
  770MOL0     H 1615   4.550  11.951   2.064 -2.4257 -1.1867 -1.3030
  770MOL0     H 1616   4.799  12.088   1.945  0.5657 -1.2488 -0.5783
  770MOL0     H 1617   4.793  12.025   2.114  2.9048 -0.8597 -2.2318
  770MOL0     H 1618   4.630  12.238   1.966 -0.8480  1.1896  0.5190
  770MOL0     H 1619   4.564  12.174   2.110 -0.4844  1.3179 -2.9374
  770MOL0     H 1620   4.842  12.321   2.095  0.4978  1.9689  2.6324
  770MOL0     H 1621   4.751  12.271   2.238 -0.8793 -0.1503  0.6427
  770MOL0     H 1622   4.057  11.633   1.658  1.8046 -0.9461  0.2639
  770MOL0     H 1623   3.897  11.468   1.525 -1.7794  2.4541  0.7744
  770MOL0     H 1624   3.783  11.259   1.186  0.0625 -0.8743 -1.3964
  770MOL0     H 1625   3.618  11.125   1.064 -1.4987  0.5453 -1.9158
  770MOL0     H 1626   3.404   9.958   0.902 -1.4450 -0.8661  1.5159
  770MOL0     H 1627   3.595  10.105   0.916  0.9459 -0.2334  0.9801
  770MOL0     H 1628   3.862  10.492   0.859 -3.2857 -1.1034  0.7596
  770MOL0     H 1629   4.065  10.620   0.929  0.8326 -1.1690  1.2176
  770MOL0     H 1630   4.239  10.721   1.021  0.7236  2.0522  0.7297
  770MOL0     H 1631   4.338  10.581   1.070 -0.0427 -0.2031  0.2166
  770MOL0     H 1632   4.424  10.714   1.263 -1.1884 -1.2335  0.6760
  770MOL0     H 1633   4.459  10.805   1.119  0.5659  0.4454  1.7925
  770MOL0     H 1634   4.257  10.887   1.339  1.5989  3.9884  1.0203
  770MOL0     H 1635   4.219  10.930   1.180 -0.8277  0.4800  2.9904
  770MOL0     H 1636   4.455  11.018   1.151  2.4887 -3.0052  0.3985
  770MOL0     H 1637   4.361  11.099   1.275 -0.0125  0.3294 -0.7813
  770MOL0     H 1638   4.671  10.879   1.498  1.3725 -2.5820 -3.2782
  770MOL0     H 1639   4.031  10.484   1.319  1.2575  1.6789 -0.0195
  770MOL0     H 1640   3.826  10.347   1.260  3.1903  0.6696  2.7767
  771MOL0     O 1641   9.590   7.894   1.705 -0.2464 -0.5481 -0.3347
  771MOL0     C 1642   9.487   7.915   1.640  0.3337 -0.7309  0.1693
  771MOL0     O 1643   9.480   7.922   1.504 -0.5600  1.0057  0.3173
  771MOL0     C 1644   9.591   7.898   1.425  0.0492  0.2130 -0.5333
  771MOL0     C 1645   9.704   7.825   1.462  0.5772 -0.4550  0.3797
  771MOL0     C 1646   9.803   7.809   1.373 -0.6024 -0.0977  0.8530
  771MOL0     C 1647   9.782   7.852   1.238  0.4505  0.8328 -0.3763
  771MOL0     O 1648   9.894   7.836   1.164  0.4250 -0.5720  0.5181
  771MOL0     C 1649   9.944   7.943   1.078 -0.4472 -0.2297 -0.9844
  771MOL0     C 1650  10.095   7.934   1.059  0.3044  0.1475  0.1352
  771MOL0     C 1651  10.176   7.871   1.172  0.0353  0.3626 -0.1671
  771MOL0     C 1652  10.329   7.897   1.169 -0.1646  0.5771 -0.3043
  771MOL0     C 1653  10.406   7.802   1.254  0.1962 -1.4787 -0.3241
  771MOL0     C 1654  10.349   7.790   1.395 -0.9307 -0.0163  0.3655
  771MOL0     C 1655  10.354   7.917   1.482 -0.0442  0.5244 -0.2729
  771MOL0     C 1656  10.479   7.922   1.573 -0.8339  0.0725  0.0742
  771MOL0     N 1657  10.599   7.962   1.495 -0.5470 -1.2927 -0.4149
  771MOL0     C 1658  10.732   7.920   1.524  0.3900 -0.0587  0.0452
  771MOL0     C 1659  10.816   7.984   1.445 -0.3121  0.2679 -0.0958
  771MOL0     C 1660  10.969   7.952   1.454  0.7068 -0.3887  0.2232
  771MOL0     C 1661  11.024   8.052   1.560 -0.0395 -0.6055 -0.8014
  771MOL0     C 1662  11.148   8.131   1.493 -0.5100  0.0271 -0.3927
  771MOL0     C 1663  11.228   8.220   1.585 -0.0224 -0.5860 -0.1313
  771MOL0     O 1664  11.322   8.146   1.662 -0.1775  1.2398  0.3132
  771MOL0     C 1665  11.388   8.222   1.753  0.2851 -0.1016 -0.3488
  771MOL0     C 1666  11.342   8.316   1.845 -1.2218 -0.4258  0.8197
  771MOL0     C 1667  11.433   8.397   1.917  0.1715  0.9948 -0.1048
  771MOL0     C 1668  11.566   8.378   1.902 -0.1150  0.5667  0.3222
  771MOL0     C 1669  11.669   8.466   1.968 -0.5114 -0.6144  1.0544
  771MOL0     O 1670  11.793   8.465   1.909  0.1904  0.1677 -0.1845
  771MOL0     C 1671  11.898   8.552   1.943  0.8666  0.8773 -0.3582
  771MOL0     C 1672  11.998   8.553   1.848 -0.3579 -0.4480  0.5709
  771MOL0     C 1673  12.117   8.623   1.875 -0.0632  0.4297  0.2872
  771MOL0     C 1674  12.145   8.702   1.986 -0.2722 -0.3241 -0.2375
  771MOL0     O 1675  12.268   8.761   1.994 -0.4291  0.2493 -0.3788
  771MOL0     C 1676  12.295   8.836   2.114  0.1948  0.5545  0.2165
  771MOL0     C 1677  12.452   8.864   2.126 -0.4107 -0.4845 -0.0295
  771MOL0     C 1678  12.518   8.988   2.060 -0.2316 -0.6146 -0.6315
  771MOL0     C 1679  12.437   9.124   2.052 -0.6163  0.2823 -0.4320
  771MOL0     C 1680  12.530   9.239   2.003  0.0810 -0.1417 -0.6718
  771MOL0     C 1681  12.442   9.363   1.978 -0.5346 -0.3175  0.1808
  771MOL0     C 1682  12.541   9.470   1.930 -0.4244  0.5146  0.0736
  771MOL0     C 1683  12.657   9.514   2.025  0.4125  0.5282 -0.0535
  771MOL0    Cl 1684  12.603   9.622   2.155  0.3325  0.4398 -0.7092
  771MOL0     C 1685  12.042   8.702   2.084  0.6016  0.0954  1.6835
  771MOL0     C 1686  11.923   8.620   2.062 -0.5785  0.2198  0.0032
  771MOL0     O 1687  11.633   8.544   2.055  0.4220  0.5446 -0.3561
  771MOL0     C 1688  11.613   8.284   1.818 -0.1899  0.6887 -0.3504
  771MOL0     C 1689  11.520   8.196   1.752 -0.4700 -0.5120  0.0113
  771MOL0     N 1690  10.743   8.058   1.359  0.4649  0.5064  0.3237
  771MOL0     N 1691  10.613   8.047   1.379  0.1033  0.8023 -1.0634
  771MOL0     C 1692   9.661   7.908   1.193 -1.6841 -0.1052  0.4695
  771MOL0     C 1693   9.574   7.939   1.296  0.3616 -0.6105  0.0081
  771MOL0     C 1694   9.359   7.953   1.701  0.4833 -0.1392  0.7233
  771MOL0     C 1695   9.369   8.011   1.826  0.3021  0.5883 -0.3589
  771MOL0     C 1696   9.251   8.045   1.886  0.4984  0.3395  0.1465
  771MOL0     C 1697   9.123   8.046   1.820 -0.5176  0.9113  0.4380
  771MOL0     O 1698   9.017   8.094   1.886  0.1330  0.0564 -1.0929
  771MOL0     C 1699   8.898   8.138   1.817 -0.5612 -0.0873  0.1770
  771MOL0     C 1700   8.788   8.034   1.819  1.1271  0.4217 -0.3726
  771MOL0     C 1701   8.772   7.987   1.964 -0.5456  0.8540  0.5086
  771MOL0     C 1702   8.727   8.100   2.055  1.3226 -0.9027 -1.2563
  771MOL0     C 1703   8.652   8.052   2.169  0.9143  1.1526  0.5070
  771MOL0     C 1704   8.586   8.029   2.271  0.1768 -0.3741  0.7392
  771MOL0     C 1705   9.120   7.987   1.694 -0.7031  0.3554  0.0752
  771MOL0     C 1706   9.238   7.939   1.631  0.1195  1.4679 -0.6649
  771MOL0     H 1707   9.728   7.783   1.559 -1.6004  2.9421  2.5843
  771MOL0     H 1708   9.894   7.757   1.403 -0.5716 -2.1765 -2.2895
  771MOL0     H 1709   9.918   8.037   1.129 -0.8629 -1.6579  1.5842
  771MOL0     H 1710   9.888   7.925   0.986 -4.5896 -1.0074  1.4515
  771MOL0     H 1711  10.126   8.037   1.041  0.4239  0.0581 -0.1681
  771MOL0     H 1712  10.106   7.874   0.968 -4.0762 -0.2003 -0.3813
  771MOL0     H 1713  10.155   7.764   1.174 -2.8911  0.7156 -3.1393
  771MOL0     H 1714  10.145   7.907   1.271 -1.4232 -1.6875  0.1810
  771MOL0     H 1715  10.373   7.892   1.069  1.4859  3.2315  0.1744
  771MOL0     H 1716  10.346   8.000   1.200 -2.0619  0.4048  1.5007
  771MOL0     H 1717  10.514   7.820   1.255  0.1033 -0.3683 -3.0493
  771MOL0     H 1718  10.399   7.700   1.215  0.2129 -1.6337  0.0725
  771MOL0     H 1719  10.410   7.710   1.437  0.0971 -1.1144 -2.9018
  771MOL0     H 1720  10.252   7.739   1.391 -0.3770 -1.0955  0.3594
  771MOL0     H 1721  10.364   8.003   1.416  1.2445 -0.7269 -1.8026
  771MOL0     H 1722  10.253   7.907   1.524 -1.0468 -1.7133 -2.8990
  771MOL0     H 1723  10.496   7.830   1.631 -1.9848 -0.2039 -0.0036
  771MOL0     H 1724  10.465   7.995   1.653 -0.1155 -0.3836  0.6290
  771MOL0     H 1725  10.764   7.840   1.590 -1.4708 -1.1781 -0.3224
  771MOL0     H 1726  11.014   7.966   1.355  1.8079 -0.7426  0.6572
  771MOL0     H 1727  10.972   7.851   1.495  0.6767 -1.4551 -2.2087
  771MOL0     H 1728  11.050   7.998   1.652 -2.0126 -0.3996 -0.0833
  771MOL0     H 1729  10.948   8.127   1.584  0.5332  0.4800 -2.2422
  771MOL0     H 1730  11.226   8.063   1.457  0.3814  1.9152 -2.3106
  771MOL0     H 1731  11.112   8.196   1.413 -1.5498  0.7973  0.6716
  771MOL0     H 1732  11.151   8.276   1.640  1.2793 -0.1195  1.2802
  771MOL0     H 1733  11.277   8.300   1.529 -1.3609 -1.0894 -2.1511
  771MOL0     H 1734  11.236   8.338   1.849 -0.9327  1.5880 -0.7492
  771MOL0     H 1735  11.410   8.477   1.987 -1.8275  1.1610 -0.8761
  771MOL0     H 1736  11.986   8.479   1.769  3.1297 -0.2291 -0.3510
  771MOL0     H 1737  12.196   8.611   1.802 -0.5315 -1.3276  0.0027
  771MOL0     H 1738  12.258   8.778   2.199 -0.5839 -0.4575 -0.7734
  771MOL0     H 1739  12.240   8.930   2.114 -3.0233 -1.1747  2.0835
  771MOL0     H 1740  12.509   8.787   2.074 -1.8440 -0.5859 -1.5446
  771MOL0     H 1741  12.469   8.861   2.233  1.3389 -2.5622 -0.2922
  771MOL0     H 1742  12.543   8.966   1.956  3.7804 -2.6422  0.5601
  771MOL0     H 1743  12.617   9.002   2.107 -0.2038  1.0875 -1.1312
  771MOL0     H 1744  12.350   9.114   1.987  0.0402  3.4088 -1.9873
  771MOL0     H 1745  12.400   9.145   2.153 -0.1553  0.5495 -0.3153
  771MOL0     H 1746  12.583   9.211   1.911 -0.3340 -1.1816 -0.6176
  771MOL0     H 1747  12.599   9.249   2.087  1.8502 -2.6766 -1.6932
  771MOL0     H 1748  12.389   9.404   2.064  0.5973  1.0629  0.2565
  771MOL0     H 1749  12.364   9.347   1.904 -0.4711  0.4179 -0.0516
  771MOL0     H 1750  12.590   9.425   1.844 -1.4612 -3.7405  1.4401
  771MOL0     H 1751  12.480   9.557   1.904  2.5823  2.0122 -2.5574
  771MOL0     H 1752  12.735   9.552   1.957  0.0271  0.1181 -0.7412
  771MOL0     H 1753  12.702   9.421   2.062 -3.0356 -0.7294  1.3580
  771MOL0     H 1754  12.052   8.755   2.179  1.6773  3.2368 -0.0381
  771MOL0     H 1755  11.851   8.608   2.142 -0.3156 -1.1485  0.0614
  771MOL0     H 1756  11.718   8.273   1.791  0.0411 -4.9108  1.5716
  771MOL0     H 1757  11.559   8.112   1.696 -0.5225 -2.9402  3.3073
  771MOL0     H 1758   9.642   7.924   1.087 -1.1899 -0.3511  0.3432
  771MOL0     H 1759   9.486   7.997   1.271  1.4978  2.2479  2.1985
  771MOL0     H 1760   9.465   8.027   1.875 -0.2506 -1.0626  1.3857
  771MOL0     H 1761   9.249   8.090   1.985  1.0438 -1.0648  0.8265
  771MOL0     H 1762   8.926   8.164   1.714  2.6088  3.3711  1.6620
  771MOL0     H 1763   8.861   8.232   1.859  2.0120  0.4549  1.4340
  771MOL0     H 1764   8.689   8.072   1.794  0.9237 -0.9672 -1.8695
  771MOL0     H 1765   8.817   7.955   1.749 -1.1819 -3.5966  2.7163
  771MOL0     H 1766   8.863   7.941   2.003 -0.2590  1.4179  0.5261
  771MOL0     H 1767   8.692   7.913   1.957  0.9627 -0.7626 -0.2032
  771MOL0     H 1768   8.817   8.145   2.098  2.6896 -1.4476 -3.4069
  771MOL0     H 1769   8.655   8.170   2.010 -0.9669 -3.0984 -1.2712
  771MOL0     H 1770   8.533   8.027   2.364  2.8628  1.8729  2.4893
  771MOL0     H 1771   9.027   7.984   1.637 -0.8129  0.9729  0.2157
  771MOL0     H 1772   9.237   7.895   1.532 -1.4273 -1.1215  0.4015
  772MOL0     O 1773   2.735   2.551   9.983 -0.6383 -0.3908 -0.0230
  772MOL0     C 1774   2.659   2.468  10.016 -0.8928 -0.2023 -0.9379
  772MOL0     O 1775   2.694   2.342  10.070  0.3803 -0.2040 -0.2505
  772MOL0     C 1776   2.822   2.305  10.077 -0.6659  0.2011 -0.2564
  772MOL0     C 1777   2.901   2.307  10.193  0.2109  0.9519 -1.1827
  772MOL0     C 1778   3.039   2.258  10.180 -0.1603  0.0357  0.1419
  772MOL0     C 1779   3.085   2.213  10.058 -1.0242 -0.0649 -0.0831
  772MOL0     O 1780   3.218   2.174  10.052  0.2830 -0.0758  0.3570
  772MOL0     C 1781   3.228   2.032  10.099 -1.1454 -0.0347  0.5685
  772MOL0     C 1782   3.348   2.024  10.203 -0.1103  0.0372  0.7313
  772MOL0     C 1783   3.494   2.072  10.166  0.4090 -0.2603  0.3048
  772MOL0     C 1784   3.551   1.987  10.058  0.7366  0.5801  0.9140
  772MOL0     C 1785   3.670   2.049   9.990 -0.6961 -0.0707 -0.0435
  772MOL0     C 1786   3.729   1.983   9.870  0.2034  0.2151 -0.1057
  772MOL0     C 1787   3.636   1.940   9.758  0.9025 -0.4999 -0.0145
  772MOL0     C 1788   3.597   2.065   9.672 -0.2309  0.1766  0.4333
  772MOL0     N 1789   3.486   2.026   9.590 -0.4611 -0.1570  0.5140
  772MOL0     C 1790   3.487   2.041   9.453 -0.2450 -0.4460  0.2735
  772MOL0     C 1791   3.358   2.023   9.415 -0.2692 -0.3804  0.1961
  772MOL0     C 1792   3.311   2.058   9.271  0.4401 -0.8908  0.4532
  772MOL0     C 1793   3.160   2.028   9.260 -0.2911  0.5275 -0.4949
  772MOL0     C 1794   3.099   1.885   9.248 -0.7759  0.1253 -0.0982
  772MOL0     C 1795   2.939   1.887   9.251 -1.2436 -0.2537 -0.1231
  772MOL0     O 1796   2.888   1.990   9.162  0.2046 -0.6392  0.1870
  772MOL0     C 1797   2.868   1.957   9.040  0.3587  0.0777  0.5514
  772MOL0     C 1798   2.806   2.051   8.960 -0.4949  1.0137 -0.6669
  772MOL0     C 1799   2.757   2.031   8.830 -1.1267  0.2625  0.1907
  772MOL0     C 1800   2.783   1.900   8.775  0.3575 -0.5774 -0.3867
  772MOL0     C 1801   2.712   1.868   8.652 -0.0583  0.0742 -1.1158
  772MOL0     O 1802   2.737   1.747   8.592 -0.0473  0.3767 -0.3443
  772MOL0     C 1803   2.713   1.734   8.454  0.4143  0.3434 -0.2632
  772MOL0     C 1804   2.743   1.842   8.371  0.2316 -0.6867 -0.1562
  772MOL0     C 1805   2.697   1.841   8.242  0.0796 -0.1275  1.4645
  772MOL0     C 1806   2.629   1.736   8.188  0.5181 -0.3975  0.4526
  772MOL0     O 1807   2.600   1.761   8.057  1.0763  0.4709  0.3676
  772MOL0     C 1808   2.537   1.659   7.972  0.0777  0.7202  0.6301
  772MOL0     C 1809   2.540   1.704   7.822  0.3683  0.0812  0.5366
  772MOL0     C 1810   2.676   1.695   7.764 -0.6518 -0.5788 -0.1620
  772MOL0     C 1811   2.669   1.672   7.614 -0.5092 -0.5122 -0.1328
  772MOL0     C 1812   2.790   1.594   7.564  0.3389 -0.1719  0.8111
  772MOL0     C 1813   2.808   1.577   7.413  0.0456  0.3051  0.8504
  772MOL0     C 1814   2.846   1.716   7.350  0.0433  0.2757 -0.7942
  772MOL0     C 1815   2.904   1.702   7.212  0.4609  0.3695 -0.2645
  772MOL0    Cl 1816   2.764   1.681   7.111 -0.0630  0.3304 -0.1097
  772MOL0     C 1817   2.612   1.621   8.263 -0.0635 -0.9559  0.6999
  772MOL0     C 1818   2.657   1.611   8.397 -0.8296 -0.4090  0.3249
  772MOL0     O 1819   2.622   1.945   8.625  0.4862  0.5151  0.2466
  772MOL0     C 1820   2.864   1.807   8.854  0.3877  0.1914 -0.3963
  772MOL0     C 1821   2.901   1.837   8.976 -0.9622 -0.1330  0.0548
  772MOL0     N 1822   3.278   1.984   9.526  0.4117 -0.4770  0.0297
  772MOL0     N 1823   3.355   1.995   9.626 -0.7120  0.2332 -0.7412
  772MOL0     C 1824   2.999   2.198   9.949  0.4020 -0.8651  0.9627
  772MOL0     C 1825   2.867   2.243   9.963  0.1157 -0.0907 -0.1834
  772MOL0     C 1826   2.521   2.508   9.994  0.9577  0.2658 -0.6099
  772MOL0     C 1827   2.475   2.647   9.996 -0.1303  0.5034 -1.1304
  772MOL0     C 1828   2.343   2.682   9.996 -0.6689  0.2294 -0.4959
  772MOL0     C 1829   2.247   2.583   9.988 -0.2829 -0.4023 -0.9892
  772MOL0     O 1830   2.114   2.579   9.979 -0.2335 -0.8382  0.0340
  772MOL0     C 1831   2.044   2.704   9.975 -0.7586 -0.7547 -0.7491
  772MOL0     C 1832   1.981   2.729   9.836 -0.2776  1.7641 -0.3230
  772MOL0     C 1833   1.888   2.613   9.787  0.0733 -0.0055 -0.1199
  772MOL0     C 1834   1.758   2.614   9.853  0.0962 -0.1031 -0.3065
  772MOL0     C 1835   1.675   2.721   9.807  0.8015  0.9664 -0.2475
  772MOL0     C 1836   1.601   2.799   9.750  0.6220  0.9214 -0.1029
  772MOL0     C 1837   2.288   2.445   9.984 -0.3741 -0.3558  0.9726
  772MOL0     C 1838   2.420   2.413   9.985  0.0417 -0.4833 -0.2039
  772MOL0     H 1839   2.863   2.349  10.285 -1.0307  0.4366 -1.4416
  772MOL0     H 1840   3.105   2.257  10.265 -0.9029  2.2596  0.8172
  772MOL0     H 1841   3.242   1.964  10.015 -2.5057 -2.0859  1.9115
  772MOL0     H 1842   3.140   1.996  10.152  0.3849  1.4384  4.4670
  772MOL0     H 1843   3.357   1.919  10.233  0.0615 -1.0938 -2.8706
  772MOL0     H 1844   3.330   2.087  10.291 -0.0446  0.6019  0.3408
  772MOL0     H 1845   3.554   2.057  10.256  0.8773 -3.3740 -0.4157
  772MOL0     H 1846   3.494   2.180  10.147 -1.8665  0.2257  2.4534
  772MOL0     H 1847   3.578   1.887  10.093  2.1474 -0.0608 -1.7429
  772MOL0     H 1848   3.473   1.961   9.985  0.5296  1.3421  0.8624
  772MOL0     H 1849   3.746   2.055  10.069 -1.0044  1.5197  0.1679
  772MOL0     H 1850   3.645   2.150   9.958 -1.9261  0.2972  1.9082
  772MOL0     H 1851   3.793   1.898   9.895 -2.3876 -1.6067  0.8092
  772MOL0     H 1852   3.810   2.050   9.841  0.6732  0.2488  1.2227
  772MOL0     H 1853   3.690   1.867   9.697  0.7842 -0.6035  0.0018
  772MOL0     H 1854   3.555   1.876   9.796  2.6334 -2.5578  0.4199
  772MOL0     H 1855   3.689   2.076   9.613 -0.4417 -2.4122 -0.4791
  772MOL0     H 1856   3.602   2.165   9.717  1.5550  1.0539 -1.5506
  772MOL0     H 1857   3.578   2.069   9.400 -0.1240 -1.5404 -0.1295
  772MOL0     H 1858   3.360   2.004   9.190  0.6440  2.7926 -2.1322
  772MOL0     H 1859   3.328   2.166   9.264 -3.4093 -0.0763  1.0882
  772MOL0     H 1860   3.124   2.076   9.169 -0.2014 -0.7153 -1.2130
  772MOL0     H 1861   3.108   2.069   9.347 -5.0636 -2.7568 -1.4056
  772MOL0     H 1862   3.133   1.842   9.154  1.8035 -0.5360  1.0411
  772MOL0     H 1863   3.140   1.824   9.329 -0.6495  2.5475  1.7826
  772MOL0     H 1864   2.900   1.893   9.353  0.8463 -1.0665  0.7800
  772MOL0     H 1865   2.904   1.787   9.224 -0.8202 -0.4141 -0.0758
  772MOL0     H 1866   2.795   2.151   9.002 -0.0961  0.5736  0.4917
  772MOL0     H 1867   2.715   2.102   8.759  0.2784 -0.8143 -1.8079
  772MOL0     H 1868   2.771   1.931   8.426 -2.1962 -0.9114  1.6501
  772MOL0     H 1869   2.714   1.933   8.185 -1.0929  0.3960  1.9236
  772MOL0     H 1870   2.431   1.648   7.996 -0.0873 -0.3718 -0.4690
  772MOL0     H 1871   2.588   1.562   7.981 -2.9164 -1.0794 -0.3792
  772MOL0     H 1872   2.506   1.805   7.797 -3.5346 -1.3066 -0.5225
  772MOL0     H 1873   2.465   1.644   7.768  0.8280  2.8932 -3.7525
  772MOL0     H 1874   2.733   1.617   7.815  0.7732  0.9094  0.6087
  772MOL0     H 1875   2.729   1.791   7.774  0.1759 -1.0347 -0.0918
  772MOL0     H 1876   2.579   1.615   7.590 -0.4343  0.0261 -1.8541
  772MOL0     H 1877   2.663   1.771   7.566  0.5314 -0.3936 -0.0531
  772MOL0     H 1878   2.801   1.498   7.614  1.1573 -0.6917 -0.3142
  772MOL0     H 1879   2.875   1.659   7.588 -0.2061  0.1113  2.0305
  772MOL0     H 1880   2.715   1.540   7.367  0.4727  0.4523 -0.1460
  772MOL0     H 1881   2.881   1.499   7.390 -2.6280 -2.4184  0.8363
  772MOL0     H 1882   2.754   1.775   7.358  0.6373  1.1918 -0.5248
  772MOL0     H 1883   2.923   1.764   7.411  0.4760 -2.4477  0.9435
  772MOL0     H 1884   2.969   1.615   7.196 -1.9965 -1.1826 -2.7121
  772MOL0     H 1885   2.964   1.791   7.194  0.8472  0.3280  0.7257
  772MOL0     H 1886   2.554   1.545   8.211 -0.4658  0.1935 -0.5979
  772MOL0     H 1887   2.629   1.521   8.450  2.2770 -2.2210 -0.8684
  772MOL0     H 1888   2.900   1.716   8.806 -0.7884 -0.4589 -0.0872
  772MOL0     H 1889   2.963   1.758   9.017 -0.3149  0.5637  0.4401
  772MOL0     H 1890   3.035   2.167   9.852 -0.8425 -1.0983  0.5595
  772MOL0     H 1891   2.792   2.256   9.885  3.1172  3.2142 -2.9150
  772MOL0     H 1892   2.551   2.725   9.996 -1.1872  1.5921  0.2947
  772MOL0     H 1893   2.334   2.789  10.012 -1.5966  0.2651 -1.1593
  772MOL0     H 1894   2.104   2.791  10.002  0.3087 -1.7829  0.3126
  772MOL0     H 1895   1.971   2.692  10.055  1.8755 -0.9629  1.7871
  772MOL0     H 1896   1.913   2.815   9.838 -3.0428 -0.3158 -0.2530
  772MOL0     H 1897   2.059   2.730   9.760  2.0277 -1.0778  1.7802
  772MOL0     H 1898   1.946   2.522   9.807  2.0172  0.8953 -1.3260
  772MOL0     H 1899   1.882   2.627   9.679  2.1804  1.7516 -0.0716
  772MOL0     H 1900   1.703   2.521   9.835 -3.0666  0.6785  3.8528
  772MOL0     H 1901   1.770   2.613   9.962  2.7536  0.0259 -0.5429
  772MOL0     H 1902   1.546   2.881   9.708 -2.5031 -1.1469 -0.3306
  772MOL0     H 1903   2.219   2.362   9.988  0.3103 -1.0261 -0.3523
  772MOL0     H 1904   2.450   2.309   9.994 -1.7753 -1.1084 -0.9392
  773MOL0     O 1905  10.370   6.784   4.546 -0.6417  0.2854  0.2410
  773MOL0     C 1906  10.447   6.759   4.640  0.3292 -0.7351 -0.2755
  773MOL0     O 1907  10.427   6.661   4.731  0.3521  0.7275 -0.5159
  773MOL0     C 1908  10.308   6.596   4.751 -0.7760 -0.1282  0.3440
  773MOL0     C 1909  10.227   6.612   4.863  0.0549 -0.2394 -1.3299
  773MOL0     C 1910  10.114   6.534   4.888  0.7776  0.6678 -0.8566
  773MOL0     C 1911  10.076   6.436   4.799  0.2342  1.2580 -0.3290
  773MOL0     O 1912   9.966   6.355   4.832 -0.3806 -0.1721  0.6852
  773MOL0     C 1913   9.945   6.224   4.759  0.9530 -0.1796 -0.1043
  773MOL0     C 1914   9.864   6.231   4.625  0.1751 -0.3235  0.0714
  773MOL0     C 1915   9.721   6.280   4.644 -0.8458  0.9998  0.8616
  773MOL0     C 1916   9.615   6.224   4.538  0.1411  0.3908  0.9256
  773MOL0     C 1917   9.486   6.282   4.556 -0.3761  0.1152  0.2174
  773MOL0     C 1918   9.461   6.430   4.510  0.4092  0.5493 -0.8377
  773MOL0     C 1919   9.489   6.450   4.364  0.0643 -0.3029 -0.2476
  773MOL0     C 1920   9.396   6.367   4.276 -0.1233 -0.0010 -0.0621
  773MOL0     N 1921   9.413   6.383   4.132 -0.1671  0.3622  0.1438
  773MOL0     C 1922   9.303   6.391   4.047 -0.1054 -0.0393 -1.0864
  773MOL0     C 1923   9.349   6.446   3.930 -0.1582 -0.2000 -0.4074
  773MOL0     C 1924   9.284   6.464   3.795 -1.0127  0.4139 -1.0280
  773MOL0     C 1925   9.256   6.608   3.769 -1.0659 -0.8138  0.0070
  773MOL0     C 1926   9.159   6.622   3.646  0.0321 -0.1018 -0.6095
  773MOL0     C 1927   9.141   6.764   3.592  0.4472  0.2097  1.4780
  773MOL0     O 1928   9.270   6.812   3.561  0.0487 -0.4298  0.4486
  773MOL0     C 1929   9.258   6.913   3.475  0.4023  0.3053  0.0800
  773MOL0     C 1930   9.372   6.996   3.473  0.2652  0.0765 -0.9611
  773MOL0     C 1931   9.382   7.101   3.378 -0.1196  0.5765  1.0497
  773MOL0     C 1932   9.289   7.138   3.292  0.0709 -0.7676 -0.4211
  773MOL0     C 1933   9.291   7.259   3.207 -0.3228  0.3923 -0.1566
  773MOL0     O 1934   9.379   7.350   3.241  0.6852 -0.6159 -0.5427
  773MOL0     C 1935   9.395   7.453   3.162 -0.1218 -0.4170 -0.2437
  773MOL0     C 1936   9.491   7.460   3.059  0.1543 -1.0296  0.6286
  773MOL0     C 1937   9.507   7.570   2.973  0.1998 -1.0203  0.0458
  773MOL0     C 1938   9.431   7.684   2.992  0.1291  0.8334 -0.0212
  773MOL0     O 1939   9.422   7.794   2.911 -0.1308 -0.5543 -0.2348
  773MOL0     C 1940   9.542   7.847   2.856  0.5127 -0.2032 -0.2413
  773MOL0     C 1941   9.518   7.996   2.799 -0.7577 -0.0984  0.3620
  773MOL0     C 1942   9.442   7.980   2.674  0.8858 -1.1380 -0.2665
  773MOL0     C 1943   9.360   8.112   2.646 -0.8406 -0.0694 -0.3825
  773MOL0     C 1944   9.279   8.087   2.514 -0.4391 -0.7750  0.0246
  773MOL0     C 1945   9.155   7.997   2.516 -0.4038 -0.4031 -0.1637
  773MOL0     C 1946   9.082   8.010   2.378  0.4898 -0.5287 -0.4311
  773MOL0     C 1947   8.954   7.918   2.388  0.0927  0.2849 -0.6237
  773MOL0    Cl 1948   9.010   7.746   2.375  0.4393 -0.0103 -0.1334
  773MOL0     C 1949   9.337   7.676   3.096 -0.0547  0.9295 -0.1750
  773MOL0     C 1950   9.323   7.567   3.186 -0.4823  0.0914  0.4076
  773MOL0     O 1951   9.198   7.277   3.128  0.5520  0.1940 -0.8497
  773MOL0     C 1952   9.184   7.048   3.282  0.0905 -0.2206 -0.1438
  773MOL0     C 1953   9.165   6.943   3.377 -0.6274  0.4894  0.6176
  773MOL0     N 1954   9.484   6.464   3.954  0.3092 -0.4038 -0.3296
  773MOL0     N 1955   9.525   6.439   4.073 -0.7240  0.1496  0.6117
  773MOL0     C 1956  10.154   6.425   4.686 -0.3362  0.4706  0.7505
  773MOL0     C 1957  10.266   6.498   4.656 -0.4700  0.2685 -0.3609
  773MOL0     C 1958  10.578   6.836   4.652  0.3786  0.3240 -0.4290
  773MOL0     C 1959  10.627   6.909   4.542  0.2578 -0.3617 -1.2459
  773MOL0     C 1960  10.748   6.979   4.562  0.1204 -0.4129  0.5202
  773MOL0     C 1961  10.823   6.971   4.676  0.1884 -0.4614  0.0478
  773MOL0     O 1962  10.934   7.058   4.691  0.0112  0.4157 -0.7502
  773MOL0     C 1963  11.027   7.042   4.801  0.0066  0.5826 -0.0344
  773MOL0     C 1964  11.116   6.927   4.769 -0.0142  1.4274 -0.4506
  773MOL0     C 1965  11.196   6.957   4.637  0.4992  0.9730  0.2731
  773MOL0     C 1966  11.301   6.844   4.609 -0.4518  0.7815  1.5751
  773MOL0     C 1967  11.409   6.860   4.707  1.3843  0.4683  0.0454
  773MOL0     C 1968  11.479   6.876   4.807 -0.6874 -0.1607  0.2986
  773MOL0     C 1969  10.777   6.885   4.778 -0.1036  0.1254 -0.3069
  773MOL0     C 1970  10.651   6.827   4.772  0.5667 -0.1956 -0.1112
  773MOL0     H 1971  10.248   6.701   4.921  1.9714 -1.4984  0.0215
  773MOL0     H 1972  10.068   6.537   4.987 -1.6640 -2.1531 -1.7768
  773MOL0     H 1973   9.898   6.161   4.835 -0.8922  1.6309  0.3345
  773MOL0     H 1974  10.035   6.176   4.720  0.8004 -2.0000  1.6378
  773MOL0     H 1975   9.859   6.129   4.586  0.0370  0.0051 -0.7829
  773MOL0     H 1976   9.920   6.289   4.551  0.0229 -0.3545 -0.0672
  773MOL0     H 1977   9.731   6.386   4.619  0.8516  1.3268  2.6452
  773MOL0     H 1978   9.680   6.268   4.745 -3.7777  1.9523 -0.1200
  773MOL0     H 1979   9.642   6.260   4.438 -3.2329  0.6575 -0.0243
  773MOL0     H 1980   9.615   6.115   4.538  0.5876  0.2224  5.1249
  773MOL0     H 1981   9.457   6.265   4.660 -3.4811  1.1313 -0.3867
  773MOL0     H 1982   9.423   6.221   4.490  1.7217 -1.2590 -0.6022
  773MOL0     H 1983   9.514   6.498   4.578  0.3681 -0.2593  0.0091
  773MOL0     H 1984   9.359   6.441   4.547  1.0706 -3.5259  3.0109
  773MOL0     H 1985   9.482   6.559   4.354  0.6685 -0.2726 -0.4001
  773MOL0     H 1986   9.594   6.423   4.349 -0.1778 -3.0891  2.1737
  773MOL0     H 1987   9.292   6.397   4.293  0.5541  1.4227  1.8601
  773MOL0     H 1988   9.423   6.261   4.284 -0.0283 -0.1719 -2.0747
  773MOL0     H 1989   9.205   6.345   4.047 -0.3471  0.4640 -1.6598
  773MOL0     H 1990   9.203   6.395   3.770  0.4795 -1.4850 -0.8297
  773MOL0     H 1991   9.356   6.427   3.721 -1.7555 -0.0229 -1.5417
  773MOL0     H 1992   9.355   6.656   3.762 -1.3123 -0.2379  0.3528
  773MOL0     H 1993   9.208   6.648   3.859 -0.4112 -2.9933  1.4104
  773MOL0     H 1994   9.203   6.561   3.567 -1.4085 -1.4989 -0.3929
  773MOL0     H 1995   9.063   6.582   3.680 -0.9663  0.4428 -2.6176
  773MOL0     H 1996   9.088   6.823   3.668 -0.5373 -1.2910  2.0175
  773MOL0     H 1997   9.078   6.759   3.503  0.8210 -0.0991  1.2261
  773MOL0     H 1998   9.446   7.003   3.552 -2.1611  1.9091  1.3242
  773MOL0     H 1999   9.468   7.166   3.370  0.8213 -0.6906  0.5166
  773MOL0     H 2000   9.560   7.377   3.045  1.2246 -0.3111  1.4899
  773MOL0     H 2001   9.577   7.553   2.892  1.2012 -1.5237  0.9920
  773MOL0     H 2002   9.593   7.792   2.776  3.1899  3.1563 -1.0520
  773MOL0     H 2003   9.616   7.857   2.935  0.4541 -0.3451 -0.1670
  773MOL0     H 2004   9.613   8.048   2.783  0.5354 -2.2603  0.5198
  773MOL0     H 2005   9.461   8.053   2.873 -1.0667 -2.1940  1.8352
  773MOL0     H 2006   9.371   7.896   2.673  2.4548 -2.5191 -0.3546
  773MOL0     H 2007   9.523   7.979   2.600  4.7326  0.8830  3.4808
  773MOL0     H 2008   9.292   8.127   2.731 -0.0805 -3.1628  0.9056
  773MOL0     H 2009   9.430   8.195   2.637 -1.0250  0.1447  0.0860
  773MOL0     H 2010   9.343   8.056   2.431  1.5163  3.5803 -0.3541
  773MOL0     H 2011   9.231   8.182   2.489 -3.8459 -2.1428  0.6650
  773MOL0     H 2012   9.088   8.016   2.600 -1.7739  1.3272 -1.5697
  773MOL0     H 2013   9.199   7.900   2.538  0.0205 -0.0164  0.7961
  773MOL0     H 2014   9.031   8.104   2.356 -1.5839 -1.5522 -0.1737
  773MOL0     H 2015   9.142   7.981   2.291 -0.3042 -2.9230 -0.2352
  773MOL0     H 2016   8.867   7.945   2.327 -2.1888 -0.4198  2.1189
  773MOL0     H 2017   8.909   7.933   2.486 -1.0156  1.9811 -1.3474
  773MOL0     H 2018   9.270   7.760   3.110  0.0852  0.8134  1.4522
  773MOL0     H 2019   9.252   7.562   3.268  0.8493 -4.4221  1.5406
  773MOL0     H 2020   9.091   7.059   3.227  0.4629 -1.4538 -1.0715
  773MOL0     H 2021   9.074   6.884   3.365 -0.3830  0.2447 -0.0728
  773MOL0     H 2022  10.141   6.351   4.607 -1.1087  1.0902  0.2795
  773MOL0     H 2023  10.323   6.490   4.564 -1.0956 -1.0142 -0.6612
  773MOL0     H 2024  10.591   6.913   4.440  1.0275  3.6192 -1.5121
  773MOL0     H 2025  10.795   7.041   4.487 -2.0659 -1.4702 -1.9151
  773MOL0     H 2026  10.980   7.019   4.897 -0.2545 -2.7565 -0.8448
  773MOL0     H 2027  11.073   7.141   4.805 -5.1479  3.2670  1.7548
  773MOL0     H 2028  11.190   6.915   4.849  1.1299  1.6160 -1.4532
  773MOL0     H 2029  11.058   6.834   4.760  2.2246 -0.4877  2.8807
  773MOL0     H 2030  11.256   7.048   4.645  0.8494  0.7746 -0.0467
  773MOL0     H 2031  11.128   6.977   4.554  0.2784 -1.5968 -0.2627
  773MOL0     H 2032  11.253   6.746   4.600  2.9652 -0.9571  0.3027
  773MOL0     H 2033  11.343   6.874   4.513 -0.3795  2.7206  2.1757
  773MOL0     H 2034  11.526   6.888   4.902 -0.4633  0.5943  0.0971
  773MOL0     H 2035  10.822   6.858   4.872 -3.8070 -4.3032  0.5656
  773MOL0     H 2036  10.609   6.775   4.856  0.5861  0.7788  0.5163
  774MOL0     O 2037   6.924   2.615   4.818 -0.5586 -0.7987  0.1266
  774MOL0     C 2038   7.037   2.654   4.863  0.2969 -0.0107 -0.3556
  774MOL0     O 2039   7.131   2.707   4.785  0.0978  0.0806  0.1835
  774MOL0     C 2040   7.098   2.729   4.654 -0.4346 -0.0335  0.3927
  774MOL0     C 2041   7.091   2.635   4.548 -0.2925 -0.9470 -0.3603
  774MOL0     C 2042   7.068   2.681   4.421  0.4122  0.4293  0.5072
  774MOL0     C 2043   7.033   2.812   4.394  0.5648  0.1615 -0.0617
  774MOL0     O 2044   7.019   2.868   4.261  0.1507  0.9954 -0.6236
  774MOL0     C 2045   7.112   2.838   4.166  0.0173 -0.7455 -0.0774
  774MOL0     C 2046   7.201   2.954   4.142 -0.2694  0.0667 -0.3202
  774MOL0     C 2047   7.309   2.973   4.255  0.0978 -0.2323 -0.2957
  774MOL0     C 2048   7.404   2.856   4.263  0.1712  0.1378  0.1669
  774MOL0     C 2049   7.499   2.858   4.379  0.6945 -0.0278  0.1444
  774MOL0     C 2050   7.627   2.945   4.343 -0.4764  0.4136  0.2497
  774MOL0     C 2051   7.747   2.915   4.433 -0.6038 -0.6561  0.5893
  774MOL0     C 2052   7.731   2.963   4.577 -0.0554 -0.8456  0.8170
  774MOL0     N 2053   7.768   3.099   4.599  0.2100 -0.4040 -0.7886
  774MOL0     C 2054   7.685   3.206   4.576 -0.0628 -0.1949  0.7090
  774MOL0     C 2055   7.748   3.324   4.607 -0.0471  0.0183  0.1922
  774MOL0     C 2056   7.716   3.467   4.585 -0.3925  0.0103  0.7382
  774MOL0     C 2057   7.721   3.550   4.717 -1.2048 -0.6728  0.3810
  774MOL0     C 2058   7.717   3.703   4.697  0.3888  0.0139  0.3393
  774MOL0     C 2059   7.697   3.775   4.831 -0.9131 -0.1429  0.3546
  774MOL0     O 2060   7.702   3.916   4.818  0.0224  0.3713 -0.2801
  774MOL0     C 2061   7.586   3.994   4.818 -0.6145 -0.6647  0.7210
  774MOL0     C 2062   7.521   4.037   4.697 -0.7280  0.2848 -0.0998
  774MOL0     C 2063   7.406   4.118   4.710 -0.4417  0.9547 -0.0456
  774MOL0     C 2064   7.364   4.163   4.836 -0.0414 -0.2515  0.5845
  774MOL0     C 2065   7.239   4.246   4.854 -0.2425 -0.2740 -0.4703
  774MOL0     O 2066   7.150   4.242   4.755  0.1575 -0.2818 -0.1825
  774MOL0     C 2067   7.017   4.291   4.754 -0.7569  0.1345  0.9976
  774MOL0     C 2068   6.948   4.274   4.633  0.7161  0.0748  0.4231
  774MOL0     C 2069   6.813   4.311   4.616 -0.4812 -0.0680 -0.2771
  774MOL0     C 2070   6.735   4.368   4.717  0.2282 -0.0553 -0.8861
  774MOL0     O 2071   6.607   4.387   4.698  0.2448 -0.4581 -0.4164
  774MOL0     C 2072   6.520   4.463   4.788  0.3031  0.1065 -0.2505
  774MOL0     C 2073   6.432   4.352   4.865 -0.3835 -1.4641  0.2283
  774MOL0     C 2074   6.323   4.301   4.769  0.2930  0.7487 -0.0902
  774MOL0     C 2075   6.220   4.405   4.741  0.5386  0.0461  0.0531
  774MOL0     C 2076   6.066   4.374   4.754 -0.4994  1.4130  0.7071
  774MOL0     C 2077   6.013   4.326   4.893 -0.4396  0.6532  0.0261
  774MOL0     C 2078   6.039   4.427   5.008 -0.4828 -0.0007  0.5613
  774MOL0     C 2079   5.957   4.550   4.984  0.8422  0.3934  0.4751
  774MOL0    Cl 2080   5.966   4.649   5.135  0.2522 -0.1628 -0.1671
  774MOL0     C 2081   6.807   4.387   4.841 -0.1483  0.1601  0.3071
  774MOL0     C 2082   6.943   4.352   4.852  0.1434  0.8716 -0.5387
  774MOL0     O 2083   7.229   4.310   4.963 -0.5405  0.5487  0.0495
  774MOL0     C 2084   7.431   4.123   4.950  0.3463 -0.0803  0.1049
  774MOL0     C 2085   7.542   4.041   4.937  0.0945 -0.1533 -0.0629
  774MOL0     N 2086   7.873   3.288   4.659 -0.0005  0.2789 -0.2991
  774MOL0     N 2087   7.876   3.156   4.661  0.8934 -0.3542  0.3976
  774MOL0     C 2088   7.039   2.900   4.494  0.5131  0.0652 -0.6106
  774MOL0     C 2089   7.073   2.858   4.617 -0.9985 -1.0275 -0.6310
  774MOL0     C 2090   7.052   2.670   5.017 -0.4145 -0.0585 -0.2361
  774MOL0     C 2091   6.942   2.663   5.108  0.1626  0.7307  0.8391
  774MOL0     C 2092   6.942   2.689   5.245  0.1799  0.1970 -0.4355
  774MOL0     C 2093   7.066   2.706   5.302 -0.2249 -0.5539  0.8837
  774MOL0     O 2094   7.095   2.724   5.430 -0.0008 -0.1832  0.8269
  774MOL0     C 2095   6.996   2.676   5.520 -0.0646 -0.3499 -0.5013
  774MOL0     C 2096   7.067   2.662   5.651 -0.9608  0.3447 -0.9873
  774MOL0     C 2097   6.985   2.587   5.762  1.1549  0.3400 -0.4415
  774MOL0     C 2098   7.070   2.561   5.892  0.0153  0.3362  1.0191
  774MOL0     C 2099   7.186   2.474   5.849  0.1190  0.4399 -0.4294
  774MOL0     C 2100   7.281   2.402   5.823  0.6728 -0.3456 -0.0192
  774MOL0     C 2101   7.184   2.705   5.217  0.5189  0.4967  0.0701
  774MOL0     C 2102   7.168   2.703   5.074 -0.1290  0.1788 -0.9550
  774MOL0     H 2103   7.115   2.529   4.555  2.8081 -0.2886  0.0374
  774MOL0     H 2104   7.063   2.611   4.338  0.9615  0.1143  0.7320
  774MOL0     H 2105   7.064   2.819   4.070 -0.4410 -2.5356  0.4601
  774MOL0     H 2106   7.163   2.744   4.190 -0.2953 -0.9844 -0.3298
  774MOL0     H 2107   7.150   3.047   4.116 -0.1193 -0.5845 -3.2471
  774MOL0     H 2108   7.253   2.932   4.049 -0.8808 -0.5223 -0.5269
  774MOL0     H 2109   7.272   3.016   4.349  0.9184 -0.7479  0.2804
  774MOL0     H 2110   7.377   3.054   4.226  3.6993 -1.6577  3.1908
  774MOL0     H 2111   7.359   2.759   4.285  2.7062 -1.5508 -1.5538
  774MOL0     H 2112   7.464   2.850   4.171  1.1830 -0.4859  0.8528
  774MOL0     H 2113   7.522   2.754   4.404  1.7197 -0.0189 -0.7046
  774MOL0     H 2114   7.447   2.908   4.462 -0.2504 -0.3874 -0.2171
  774MOL0     H 2115   7.602   3.051   4.342  2.0838  1.0828  0.9823
  774MOL0     H 2116   7.668   2.912   4.247  1.3173  3.4635 -0.1459
  774MOL0     H 2117   7.763   2.806   4.428 -2.3700 -0.8933 -0.9307
  774MOL0     H 2118   7.834   2.969   4.394 -0.3366  0.1752  2.2302
  774MOL0     H 2119   7.802   2.901   4.634  1.0970  0.2796  0.6572
  774MOL0     H 2120   7.629   2.945   4.609  0.2880  0.2840  2.7299
  774MOL0     H 2121   7.584   3.211   4.537  1.0004 -0.6682 -2.4041
  774MOL0     H 2122   7.626   3.474   4.523 -2.1083 -2.6348  2.7096
  774MOL0     H 2123   7.799   3.506   4.525 -1.8774  3.2592  0.5777
  774MOL0     H 2124   7.821   3.528   4.755 -0.5004 -2.2396 -2.1663
  774MOL0     H 2125   7.643   3.506   4.780 -2.4366 -0.2030 -0.7783
  774MOL0     H 2126   7.815   3.731   4.656  0.3755  1.6596  1.3456
  774MOL0     H 2127   7.633   3.714   4.628  0.7295  1.9487  0.1607
  774MOL0     H 2128   7.776   3.744   4.900  0.4708  2.4124  0.0540
  774MOL0     H 2129   7.603   3.745   4.878  0.1173 -1.6282  1.5442
  774MOL0     H 2130   7.552   3.987   4.605  2.1049 -1.9537  1.8785
  774MOL0     H 2131   7.352   4.154   4.623  0.6588  3.0079  0.0602
  774MOL0     H 2132   7.010   4.222   4.560  3.4869  1.6228  1.5379
  774MOL0     H 2133   6.761   4.287   4.524  1.3589  1.2252 -1.7206
  774MOL0     H 2134   6.451   4.520   4.724 -2.1407 -2.1789  0.1842
  774MOL0     H 2135   6.576   4.530   4.854 -0.7665  1.9813 -1.1710
  774MOL0     H 2136   6.403   4.404   4.958  0.5264  3.8740 -2.1122
  774MOL0     H 2137   6.490   4.264   4.894 -1.9016 -2.3179  0.8517
  774MOL0     H 2138   6.274   4.219   4.823 -4.2339  2.5350 -1.0210
  774MOL0     H 2139   6.361   4.263   4.674 -1.4260 -1.9421  0.1647
  774MOL0     H 2140   6.238   4.488   4.810 -1.1386  0.5426 -0.0543
  774MOL0     H 2141   6.243   4.439   4.640 -0.7790 -0.6134 -0.4895
  774MOL0     H 2142   6.044   4.301   4.675  0.9663 -0.1398  1.6685
  774MOL0     H 2143   6.010   4.463   4.724 -0.6505  0.9809 -0.3632
  774MOL0     H 2144   6.065   4.231   4.909 -0.1804  0.4518 -1.7813
  774MOL0     H 2145   5.908   4.297   4.881  0.6606 -3.8004 -0.8784
  774MOL0     H 2146   6.015   4.379   5.103  5.5103 -3.7952  0.6336
  774MOL0     H 2147   6.145   4.451   4.999  0.5699 -4.1763  0.1180
  774MOL0     H 2148   5.851   4.522   4.981  1.0477 -0.4769  0.9930
  774MOL0     H 2149   5.996   4.609   4.900  0.8765  1.7570  1.4204
  774MOL0     H 2150   6.764   4.423   4.933 -2.5602  1.0394 -1.0691
  774MOL0     H 2151   6.977   4.362   4.954 -1.6607 -1.8888  0.4320
  774MOL0     H 2152   7.392   4.152   5.047  1.6212 -4.0562  2.0169
  774MOL0     H 2153   7.591   4.012   5.029 -3.0725  1.0457  2.1925
  774MOL0     H 2154   7.022   3.006   4.475  2.0613  0.7898  1.6288
  774MOL0     H 2155   7.069   2.929   4.699 -1.1353  1.7193 -2.8521
  774MOL0     H 2156   6.844   2.627   5.077  0.9213 -0.5687 -0.1360
  774MOL0     H 2157   6.859   2.683   5.315  1.4654  3.4306  1.6274
  774MOL0     H 2158   6.961   2.576   5.492 -0.3629 -1.8170  4.1419
  774MOL0     H 2159   6.914   2.746   5.538  0.0806 -0.7565  2.2365
  774MOL0     H 2160   7.157   2.602   5.637 -0.9728 -0.6388  2.3191
  774MOL0     H 2161   7.108   2.761   5.674  0.7864  0.7085 -4.9044
  774MOL0     H 2162   6.954   2.492   5.718 -2.1288  0.9578  0.2743
  774MOL0     H 2163   6.902   2.649   5.796  0.4573 -1.8738  2.2597
  774MOL0     H 2164   7.093   2.664   5.920 -0.7266  1.3860 -1.8800
  774MOL0     H 2165   7.007   2.521   5.972  0.7520  5.2719  4.5303
  774MOL0     H 2166   7.368   2.339   5.823 -0.4338 -1.9629  1.5632
  774MOL0     H 2167   7.273   2.739   5.268  1.4521 -2.0628  0.3032
  774MOL0     H 2168   7.252   2.718   5.008 -0.0582 -0.2860 -0.9723
  775MOL0     O 2169   1.501   8.325   5.380  1.0843  0.1101  0.2283
  775MOL0     C 2170   1.514   8.264   5.481  0.9113  0.4349 -0.3489
  775MOL0     O 2171   1.593   8.156   5.502  0.2613 -0.1935 -0.5592
  775MOL0     C 2172   1.689   8.110   5.413 -0.1306 -0.5979  1.0992
  775MOL0     C 2173   1.773   8.202   5.350  0.2965 -0.1104  0.5205
  775MOL0     C 2174   1.880   8.160   5.273 -1.0168  0.5476  0.0061
  775MOL0     C 2175   1.909   8.024   5.259  1.0017  0.1462 -0.3378
  775MOL0     O 2176   2.026   7.980   5.199  0.0110 -0.2395 -0.2738
  775MOL0     C 2177   2.105   7.879   5.272  0.2400  0.1734 -0.5844
  775MOL0     C 2178   2.230   7.866   5.201  0.0535 -0.8270  0.0237
  775MOL0     C 2179   2.330   7.766   5.254  0.7170 -0.3060 -0.2834
  775MOL0     C 2180   2.483   7.806   5.240  0.9824  0.2737 -0.1123
  775MOL0     C 2181   2.517   7.899   5.358  0.0952  0.0197 -0.3974
  775MOL0     C 2182   2.673   7.946   5.354  1.1069  0.3233  0.3297
  775MOL0     C 2183   2.779   7.837   5.356 -1.2807  0.4098 -0.0136
  775MOL0     C 2184   2.914   7.903   5.340 -0.9040  1.0576 -0.2120
  775MOL0     N 2185   2.952   7.976   5.466  0.0827 -0.0196 -0.2965
  775MOL0     C 2186   2.951   7.921   5.590 -0.1398  0.0875  0.4239
  775MOL0     C 2187   2.971   8.022   5.673 -0.6548  0.2900 -0.7391
  775MOL0     C 2188   3.005   8.001   5.824  0.1528 -0.4160  0.2086
  775MOL0     C 2189   3.135   7.920   5.844 -1.6443  0.1260  0.8737
  775MOL0     C 2190   3.180   7.939   5.985  0.2253 -0.5573 -0.3721
  775MOL0     C 2191   3.314   7.870   6.010  0.4468 -0.0067 -0.5345
  775MOL0     O 2192   3.422   7.958   5.986 -0.4067  0.0045 -0.0469
  775MOL0     C 2193   3.525   7.956   6.081 -0.0663  0.5525 -0.5611
  775MOL0     C 2194   3.600   7.842   6.101  0.2375  0.6307  0.0803
  775MOL0     C 2195   3.699   7.843   6.198  0.0023 -0.1179  0.7947
  775MOL0     C 2196   3.711   7.954   6.283 -0.0766 -0.7573  0.0579
  775MOL0     C 2197   3.820   7.968   6.382 -1.8501 -0.4876  0.2179
  775MOL0     O 2198   3.873   8.100   6.395  0.1958 -0.6571 -0.6014
  775MOL0     C 2199   3.969   8.124   6.484  0.4632  0.4011 -0.7043
  775MOL0     C 2200   3.933   8.177   6.605  0.0557  0.1396  0.0854
  775MOL0     C 2201   4.034   8.219   6.691  0.5972 -0.3371  0.8796
  775MOL0     C 2202   4.165   8.199   6.656 -0.4733  0.6261  0.3205
  775MOL0     O 2203   4.270   8.246   6.744  0.4744  0.1224  0.1334
  775MOL0     C 2204   4.407   8.212   6.735  0.2275  0.0470  0.3184
  775MOL0     C 2205   4.480   8.308   6.833 -0.4204  0.0413 -0.3337
  775MOL0     C 2206   4.629   8.285   6.871 -0.4552  0.1861  0.8036
  775MOL0     C 2207   4.721   8.245   6.752  0.4763 -0.0544  0.3476
  775MOL0     C 2208   4.862   8.200   6.807 -0.9981 -0.0755 -1.2168
  775MOL0     C 2209   4.958   8.176   6.696 -0.1392  0.0824  0.0628
  775MOL0     C 2210   5.096   8.127   6.754 -0.2779  0.4773  0.3487
  775MOL0     C 2211   5.207   8.130   6.646  0.1284 -0.5529 -0.2626
  775MOL0    Cl 2212   5.224   8.294   6.597 -0.2896  0.7949 -0.1029
  775MOL0     C 2213   4.198   8.133   6.539  0.2863  0.3880  0.8974
  775MOL0     C 2214   4.103   8.094   6.452 -0.3641 -0.8552 -0.4368
  775MOL0     O 2215   3.865   7.867   6.437 -0.3690  0.5003  0.6616
  775MOL0     C 2216   3.637   8.072   6.257  0.1066 -0.1750  0.1163
  775MOL0     C 2217   3.541   8.073   6.158 -1.1079 -0.7370  0.7315
  775MOL0     N 2218   2.985   8.136   5.599  0.0349 -0.0622 -0.6468
  775MOL0     N 2219   2.979   8.107   5.473  0.4458 -0.5907  0.1911
  775MOL0     C 2220   1.823   7.928   5.313  0.4420 -1.1668 -0.3205
  775MOL0     C 2221   1.714   7.969   5.397  0.8009 -0.8474  0.3701
  775MOL0     C 2222   1.447   8.334   5.597  0.3674 -0.2879 -0.4704
  775MOL0     C 2223   1.466   8.280   5.723  0.3852  0.7373 -0.4406
  775MOL0     C 2224   1.406   8.324   5.842 -0.0141  0.2043 -0.8432
  775MOL0     C 2225   1.298   8.414   5.828 -0.5329 -0.6790 -0.1181
  775MOL0     O 2226   1.225   8.463   5.933  0.5209 -0.4963 -0.0618
  775MOL0     C 2227   1.208   8.380   6.056  0.0333  1.3094  1.1283
  775MOL0     C 2228   1.090   8.431   6.143 -0.2668  0.0756 -0.1544
  775MOL0     C 2229   1.130   8.565   6.211 -0.0076  0.4751 -0.9538
  775MOL0     C 2230   1.198   8.539   6.344  0.5872 -0.3176  0.4395
  775MOL0     C 2231   1.342   8.508   6.326  0.7065 -0.2319 -0.8836
  775MOL0     C 2232   1.454   8.463   6.297 -0.4121 -0.0027 -0.5120
  775MOL0     C 2233   1.277   8.473   5.705 -0.2839  0.4736  0.5237
  775MOL0     C 2234   1.352   8.436   5.590 -0.4856 -1.2433 -0.9652
  775MOL0     H 2235   1.759   8.308   5.371 -0.3667 -0.5794  2.6844
  775MOL0     H 2236   1.951   8.237   5.245 -1.7574  1.8692  1.5602
  775MOL0     H 2237   2.050   7.784   5.273 -4.6163  2.6070  1.6002
  775MOL0     H 2238   2.116   7.911   5.376 -1.3742 -0.5169 -0.1686
  775MOL0     H 2239   2.277   7.964   5.189  4.3155 -2.9998 -4.8690
  775MOL0     H 2240   2.202   7.838   5.100 -0.4086  1.4679 -0.5311
  775MOL0     H 2241   2.301   7.671   5.208 -1.6583 -0.7471  1.8740
  775MOL0     H 2242   2.315   7.753   5.362 -1.0673  1.4660 -0.2760
  775MOL0     H 2243   2.544   7.715   5.243 -3.5289 -3.4934 -4.1514
  775MOL0     H 2244   2.506   7.871   5.155  2.5114  0.7576  0.6270
  775MOL0     H 2245   2.489   7.843   5.448  0.1666 -1.8589 -1.4985
  775MOL0     H 2246   2.447   7.983   5.357  0.4260  0.4020  1.8587
  775MOL0     H 2247   2.701   8.009   5.439 -0.1871 -0.4768  1.3681
  775MOL0     H 2248   2.684   7.998   5.258 -0.5455  0.3856  0.1504
  775MOL0     H 2249   2.775   7.768   5.441 -2.5337  1.7166  1.0437
  775MOL0     H 2250   2.759   7.781   5.264  3.7706 -0.2713 -0.9860
  775MOL0     H 2251   2.911   7.962   5.247 -2.8067 -0.8949 -1.4959
  775MOL0     H 2252   2.997   7.832   5.342 -0.0328  2.0634  0.8365
  775MOL0     H 2253   2.931   7.818   5.619 -1.9462  0.8198  2.0035
  775MOL0     H 2254   2.923   7.943   5.866 -0.1477 -0.1939 -0.0604
  775MOL0     H 2255   3.010   8.098   5.875  0.1540 -1.1297  1.6179
  775MOL0     H 2256   3.213   7.971   5.787 -1.6250  0.6458  1.3497
  775MOL0     H 2257   3.132   7.814   5.818 -1.5961  0.1797  0.6436
  775MOL0     H 2258   3.177   8.044   6.015 -0.0678  0.0099 -2.2376
  775MOL0     H 2259   3.103   7.894   6.048 -1.7308  4.3236  1.1870
  775MOL0     H 2260   3.333   7.779   5.953  0.7242 -1.3924  1.6709
  775MOL0     H 2261   3.317   7.833   6.113 -1.7732 -1.7037 -1.0170
  775MOL0     H 2262   3.597   7.772   6.019  3.6229 -1.0806  1.2616
  775MOL0     H 2263   3.773   7.766   6.217  0.0405  0.5757  4.0066
  775MOL0     H 2264   3.828   8.188   6.629  0.1421 -0.5781  0.8284
  775MOL0     H 2265   4.006   8.275   6.780 -3.0753  1.4285 -1.1521
  775MOL0     H 2266   4.440   8.232   6.633 -1.2885 -2.1456 -0.6955
  775MOL0     H 2267   4.422   8.104   6.748 -1.2486 -0.7433 -3.3201
  775MOL0     H 2268   4.419   8.327   6.922  0.3908  1.0555  0.0258
  775MOL0     H 2269   4.482   8.408   6.788  0.5566  0.6308  0.9599
  775MOL0     H 2270   4.632   8.205   6.945 -1.9057 -1.1904 -0.5619
  775MOL0     H 2271   4.664   8.377   6.919 -3.8234  2.2925 -0.3484
  775MOL0     H 2272   4.672   8.170   6.690  1.2131  0.7761 -1.3121
  775MOL0     H 2273   4.736   8.333   6.689 -1.6628 -0.8274 -1.3575
  775MOL0     H 2274   4.844   8.111   6.868 -1.2892 -0.6609 -2.1405
  775MOL0     H 2275   4.913   8.271   6.873  0.1070 -3.0251  1.3438
  775MOL0     H 2276   4.960   8.270   6.641 -0.1817  1.0039  1.5660
  775MOL0     H 2277   4.918   8.106   6.623  0.4333  2.1319 -2.3349
  775MOL0     H 2278   5.123   8.203   6.828 -0.7070  1.0032 -0.0188
  775MOL0     H 2279   5.092   8.032   6.807  0.3060 -0.2169 -0.8329
  775MOL0     H 2280   5.183   8.069   6.558 -0.3497 -0.2776 -0.3259
  775MOL0     H 2281   5.293   8.076   6.686  1.1004  0.1794 -1.2998
  775MOL0     H 2282   4.301   8.114   6.508 -0.7533 -1.8593 -1.5827
  775MOL0     H 2283   4.118   8.041   6.358 -2.0522 -1.9399 -0.1474
  775MOL0     H 2284   3.663   8.166   6.305  0.3706 -0.7522  1.1376
  775MOL0     H 2285   3.480   8.157   6.127  1.9729  1.2095 -0.5814
  775MOL0     H 2286   1.839   7.821   5.307 -1.2113 -1.4301 -0.5532
  775MOL0     H 2287   1.665   7.907   5.473  0.5655 -0.5393  0.4732
  775MOL0     H 2288   1.523   8.190   5.739  0.3598  0.0357 -3.6119
  775MOL0     H 2289   1.421   8.277   5.939 -1.9146  0.0291 -0.6087
  775MOL0     H 2290   1.303   8.372   6.109 -0.0390  3.7105  1.7399
  775MOL0     H 2291   1.193   8.276   6.028  1.1227  1.8826 -1.9842
  775MOL0     H 2292   1.010   8.465   6.077  1.5195  3.9744 -0.5720
  775MOL0     H 2293   1.055   8.353   6.211 -1.9823 -1.4804 -2.6618
  775MOL0     H 2294   1.048   8.632   6.236  0.8238  0.3568  2.5877
  775MOL0     H 2295   1.200   8.627   6.155  3.1726  1.0800  3.2023
  775MOL0     H 2296   1.194   8.634   6.397 -0.5364  1.8024 -3.0807
  775MOL0     H 2297   1.162   8.452   6.399  2.5569  0.5107  3.2609
  775MOL0     H 2298   1.554   8.430   6.279 -0.9372 -1.8144 -0.2833
  775MOL0     H 2299   1.198   8.548   5.703 -0.3539  0.5914  3.4348
  775MOL0     H 2300   1.336   8.492   5.498 -1.3264  2.0802  1.0394
  776MOL0     O 2301   0.334   3.630   0.964 -1.2908  0.1924 -0.0470
  776MOL0     C 2302   0.262   3.681   1.047  0.6875 -0.2271 -0.7139
  776MOL0     O 2303   0.258   3.816   1.083  0.2078 -0.6006  0.1196
  776MOL0     C 2304   0.365   3.910   1.045  0.8883  0.3292  0.8352
  776MOL0     C 2305   0.338   4.042   1.061  0.1515  0.7641 -0.5252
  776MOL0     C 2306   0.432   4.149   1.057 -0.8220  0.3434 -0.5894
  776MOL0     C 2307   0.557   4.125   1.006 -0.2519 -0.3712  0.1178
  776MOL0     O 2308   0.627   4.237   0.972  0.2906  0.3149  0.2065
  776MOL0     C 2309   0.719   4.228   0.866 -0.5087 -0.0973 -0.0572
  776MOL0     C 2310   0.857   4.204   0.941 -0.2110  0.7134 -0.3345
  776MOL0     C 2311   0.979   4.196   0.847 -0.6199 -0.0151  0.4515
  776MOL0     C 2312   1.113   4.195   0.923  0.2660 -1.0689  0.0212
  776MOL0     C 2313   1.172   4.064   0.962 -0.6084 -0.2196 -0.2899
  776MOL0     C 2314   1.237   3.977   0.848  0.1019  0.2722  0.6896
  776MOL0     C 2315   1.358   3.914   0.918 -1.0915  0.2238  0.9494
  776MOL0     C 2316   1.380   3.764   0.872  0.9741 -0.6618 -0.8443
  776MOL0     N 2317   1.511   3.701   0.908  0.3224 -0.4298  0.1259
  776MOL0     C 2318   1.632   3.726   0.840 -1.4505  0.7815 -0.5940
  776MOL0     C 2319   1.715   3.646   0.900 -0.3984 -0.3349  0.1028
  776MOL0     C 2320   1.860   3.620   0.866 -0.2760  0.0388 -0.4043
  776MOL0     C 2321   1.878   3.512   0.756  0.5771  0.0553 -0.5155
  776MOL0     C 2322   2.016   3.480   0.714 -0.3393 -0.0723  0.0366
  776MOL0     C 2323   2.025   3.414   0.575  0.9468  0.8257 -0.8101
  776MOL0     O 2324   1.956   3.489   0.473 -1.0473  0.3809 -0.4108
  776MOL0     C 2325   2.021   3.593   0.417 -0.4196 -1.4690 -0.2438
  776MOL0     C 2326   2.151   3.637   0.448  0.6538  0.6845 -0.3740
  776MOL0     C 2327   2.215   3.744   0.391  0.0537 -0.1689  0.1893
  776MOL0     C 2328   2.153   3.813   0.283 -0.6868  0.6922  0.0706
  776MOL0     C 2329   2.227   3.921   0.215  1.0883  0.4487 -0.4356
  776MOL0     O 2330   2.156   3.985   0.116  0.3219  0.9067 -0.0033
  776MOL0     C 2331   2.180   4.116   0.082 -0.1080 -0.3451 -0.0754
  776MOL0     C 2332   2.103   4.164  -0.020 -0.0713 -0.7838  0.1214
  776MOL0     C 2333   2.089   4.303  -0.053  0.3671  0.1483  0.2325
  776MOL0     C 2334   2.156   4.393   0.025  0.5294 -0.0046  0.1480
  776MOL0     O 2335   2.142   4.528  -0.000 -1.0177  0.0121 -0.0353
  776MOL0     C 2336   2.272   4.586  -0.037  0.0587 -0.1135 -0.3300
  776MOL0     C 2337   2.234   4.699  -0.131 -0.2078 -0.0752 -0.2512
  776MOL0     C 2338   2.160   4.661  -0.259 -0.1172 -0.4831 -0.2679
  776MOL0     C 2339   2.242   4.560  -0.342 -0.3191  0.3102  0.9708
  776MOL0     C 2340   2.176   4.533  -0.479  0.1356  0.1354  0.3908
  776MOL0     C 2341   2.283   4.495  -0.587  0.0876  0.0625 -0.3492
  776MOL0     C 2342   2.234   4.521  -0.729  1.1081  0.1339  0.1823
  776MOL0     C 2343   2.346   4.486  -0.826 -0.5224  0.3891 -0.5201
  776MOL0    Cl 2344   2.380   4.312  -0.847  0.2443  0.0430  0.6579
  776MOL0     C 2345   2.228   4.346   0.134  0.2738 -0.7922  0.4241
  776MOL0     C 2346   2.246   4.206   0.166  0.4506 -0.7557 -0.3817
  776MOL0     O 2347   2.333   3.943   0.266 -0.4188 -0.0752 -0.0811
  776MOL0     C 2348   2.026   3.767   0.246  0.1676  0.8551  0.0115
  776MOL0     C 2349   1.960   3.667   0.315  0.4600  0.1051 -0.1958
  776MOL0     N 2350   1.652   3.569   0.989 -0.4717  0.0946 -0.7303
  776MOL0     N 2351   1.531   3.604   1.005  0.5024 -0.3154 -0.0582
  776MOL0     C 2352   0.595   3.986   0.980  0.6363  0.6858  0.8997
  776MOL0     C 2353   0.500   3.883   1.011 -0.0350  0.3026  0.9590
  776MOL0     C 2354   0.164   3.596   1.126 -0.1013 -0.2934  0.3326
  776MOL0     C 2355   0.083   3.644   1.228 -0.4811  0.2460 -1.0060
  776MOL0     C 2356   0.007   3.566   1.310 -0.3990 -0.7642  0.6473
  776MOL0     C 2357   0.005   3.428   1.285 -0.3618  0.2707 -0.9575
  776MOL0     O 2358  -0.067   3.331   1.350 -0.0442  1.1352  0.1119
  776MOL0     C 2359  -0.116   3.351   1.483  0.8283 -0.1642 -0.0006
  776MOL0     C 2360  -0.265   3.323   1.484  0.7876 -0.8177  0.6766
  776MOL0     C 2361  -0.291   3.167   1.466  0.4479  0.8276 -0.2844
  776MOL0     C 2362  -0.442   3.146   1.417  0.4144  0.8926 -0.0803
  776MOL0     C 2363  -0.503   3.016   1.453 -1.0284  0.5336 -0.0476
  776MOL0     C 2364  -0.538   2.916   1.504 -1.5585  0.5798 -0.6515
  776MOL0     C 2365   0.084   3.374   1.183  0.4409 -0.8087 -0.4018
  776MOL0     C 2366   0.161   3.458   1.098  0.2447  0.1911  0.4374
  776MOL0     H 2367   0.253   4.036   1.128  0.8815 -3.9318  0.2970
  776MOL0     H 2368   0.419   4.246   1.104 -0.6074  0.2050 -0.2389
  776MOL0     H 2369   0.709   4.313   0.798  0.2208 -0.5949 -0.8177
  776MOL0     H 2370   0.706   4.135   0.808  1.2197 -0.1428 -0.4047
  776MOL0     H 2371   0.851   4.112   1.000 -1.8472  3.2526  3.8992
  776MOL0     H 2372   0.870   4.292   1.004 -0.3292  0.8416 -0.4892
  776MOL0     H 2373   0.985   4.288   0.788  3.3567  0.9695  2.0706
  776MOL0     H 2374   0.970   4.107   0.784 -0.1180 -1.5296  2.3964
  776MOL0     H 2375   1.190   4.249   0.867 -0.9049  0.6873  0.0506
  776MOL0     H 2376   1.091   4.255   1.012  0.9247  1.0052 -1.1573
  776MOL0     H 2377   1.094   4.001   1.004 -1.6682 -0.6255 -2.6606
  776MOL0     H 2378   1.253   4.078   1.034 -0.9473  0.5968 -0.0490
  776MOL0     H 2379   1.264   4.050   0.772 -1.8004  2.2032  1.7490
  776MOL0     H 2380   1.170   3.910   0.792  1.2006 -0.6937  0.5012
  776MOL0     H 2381   1.450   3.966   0.894 -1.1937 -0.3725 -0.9051
  776MOL0     H 2382   1.344   3.889   1.024 -3.0168 -3.9732 -0.0476
  776MOL0     H 2383   1.368   3.764   0.763  1.3592 -3.9040 -0.9832
  776MOL0     H 2384   1.305   3.692   0.907  2.8353 -0.8364  3.3003
  776MOL0     H 2385   1.665   3.784   0.755  0.2713  0.2360 -0.3365
  776MOL0     H 2386   1.899   3.588   0.963 -2.7608  4.3136  2.3619
  776MOL0     H 2387   1.895   3.720   0.838 -0.8662  0.9120  1.7064
  776MOL0     H 2388   1.828   3.556   0.669 -0.8640 -0.5941 -0.0567
  776MOL0     H 2389   1.822   3.426   0.795 -0.3629  1.3722  1.1107
  776MOL0     H 2390   2.066   3.576   0.701  3.2546 -2.0772 -2.5951
  776MOL0     H 2391   2.076   3.423   0.786 -1.0624  0.8112  1.3864
  776MOL0     H 2392   1.955   3.330   0.581 -1.2466  2.2054 -3.8929
  776MOL0     H 2393   2.122   3.374   0.545  1.1415  1.5289 -1.1477
  776MOL0     H 2394   2.203   3.582   0.526  0.4636  2.3233  0.9695
  776MOL0     H 2395   2.316   3.775   0.417 -1.2249  3.6381  1.2010
  776MOL0     H 2396   2.046   4.084  -0.067  0.5323  0.9938 -4.0869
  776MOL0     H 2397   2.035   4.337  -0.141  0.8112  1.9056  0.6036
  776MOL0     H 2398   2.346   4.528  -0.093  0.3481 -1.0066  0.9340
  776MOL0     H 2399   2.302   4.626   0.060 -1.2128 -1.4375  0.6660
  776MOL0     H 2400   2.326   4.756  -0.143  1.0755 -2.2011 -1.0063
  776MOL0     H 2401   2.173   4.768  -0.072  0.0701 -0.7064  0.8030
  776MOL0     H 2402   2.133   4.755  -0.309 -2.5022  0.4288  2.4369
  776MOL0     H 2403   2.069   4.605  -0.232  1.3369 -2.6035  0.4798
  776MOL0     H 2404   2.344   4.594  -0.359 -0.3281  0.4641  1.2099
  776MOL0     H 2405   2.259   4.467  -0.287  2.5326  0.5045  0.5526
  776MOL0     H 2406   2.127   4.618  -0.528 -1.2658 -2.0452 -2.2627
  776MOL0     H 2407   2.098   4.457  -0.488  0.9584 -0.4605 -3.4016
  776MOL0     H 2408   2.298   4.388  -0.570 -1.3362 -0.2086 -0.7082
  776MOL0     H 2409   2.385   4.535  -0.584  0.3128 -0.4329 -1.0575
  776MOL0     H 2410   2.151   4.460  -0.767 -2.4959  2.4165  3.6539
  776MOL0     H 2411   2.201   4.622  -0.756  1.4537 -0.4120 -2.5847
  776MOL0     H 2412   2.438   4.537  -0.796  1.5644 -2.7110 -1.2298
  776MOL0     H 2413   2.322   4.525  -0.925 -3.5055  1.8502  0.6372
  776MOL0     H 2414   2.266   4.416   0.207 -0.0938 -0.1225 -0.0203
  776MOL0     H 2415   2.296   4.184   0.260 -1.1923  0.4905  0.8517
  776MOL0     H 2416   1.976   3.795   0.153 -0.5609  1.2848  0.5202
  776MOL0     H 2417   1.854   3.650   0.299  0.4896 -0.8972  0.5525
  776MOL0     H 2418   0.695   3.959   0.947 -0.7659 -2.7543 -1.1026
  776MOL0     H 2419   0.540   3.782   1.003  1.1420  0.9087 -2.3810
  776MOL0     H 2420   0.086   3.749   1.256 -1.6976  0.1889 -0.5771
  776MOL0     H 2421  -0.045   3.609   1.395  0.7391 -0.4407  1.1920
  776MOL0     H 2422  -0.098   3.454   1.513 -1.1295  0.5811 -1.2319
  776MOL0     H 2423  -0.062   3.277   1.544 -0.5585 -4.3590 -3.3629
  776MOL0     H 2424  -0.303   3.369   1.576 -0.0624  0.0280 -0.0735
  776MOL0     H 2425  -0.310   3.380   1.402  0.3319 -0.8953  0.8680
  776MOL0     H 2426  -0.274   3.122   1.565  1.6879  2.1641  0.1517
  776MOL0     H 2427  -0.231   3.121   1.388 -1.0674  3.8475 -3.4890
  776MOL0     H 2428  -0.506   3.232   1.439 -0.3179 -0.2048  2.4663
  776MOL0     H 2429  -0.433   3.145   1.308  1.0809  5.2228 -0.2638
  776MOL0     H 2430  -0.601   2.836   1.535 -2.1124  1.2785  0.0584
  776MOL0     H 2431   0.112   3.270   1.175  3.3781 -0.0434 -1.3817
  776MOL0     H 2432   0.214   3.419   1.011 -1.4816  0.5492 -0.8394
  777MOL0     O 2433   4.958   4.502  10.666 -0.9896  0.8730 -0.1612
  777MOL0     C 2434   4.922   4.503  10.554  0.9353 -0.2730 -0.7626
  777MOL0     O 2435   4.799   4.476  10.512  0.7863 -0.3664  0.2817
  777MOL0     C 2436   4.691   4.439  10.598 -0.1780  0.1925  0.8295
  777MOL0     C 2437   4.685   4.449  10.731  0.7881  0.9368 -0.4188
  777MOL0     C 2438   4.565   4.418  10.798 -0.4396 -0.0247  0.5897
  777MOL0     C 2439   4.461   4.345  10.733  0.7409  0.4374  0.6110
  777MOL0     O 2440   4.343   4.314  10.800  0.7245  0.3460 -0.3212
  777MOL0     C 2441   4.239   4.234  10.749  0.0330  0.3906  0.8563
  777MOL0     C 2442   4.142   4.197  10.862 -0.1493  0.1539 -0.1409
  777MOL0     C 2443   4.079   4.322  10.927 -0.3866  0.5903  0.4394
  777MOL0     C 2444   4.181   4.414  10.998  0.6785 -1.0243 -0.1313
  777MOL0     C 2445   4.103   4.494  11.106 -0.7430 -0.4404 -0.2423
  777MOL0     C 2446   4.192   4.575  11.209 -0.1883  0.0872  0.9763
  777MOL0     C 2447   4.285   4.677  11.132 -0.6880 -1.2299  0.3678
  777MOL0     C 2448   4.371   4.758  11.229 -0.8970  0.1079  0.0201
  777MOL0     N 2449   4.495   4.692  11.270 -0.1824 -0.6840  0.1731
  777MOL0     C 2450   4.625   4.701  11.218 -0.0754 -0.6562  0.5214
  777MOL0     C 2451   4.700   4.637  11.317 -0.5304  0.3884  0.0538
  777MOL0     C 2452   4.851   4.609  11.329 -0.6761 -1.0445 -0.0044
  777MOL0     C 2453   4.924   4.684  11.442  0.2634  0.2712  0.4947
  777MOL0     C 2454   4.898   4.644  11.592 -0.2741 -0.2547 -1.2204
  777MOL0     C 2455   4.995   4.718  11.693  0.0222 -0.1957  0.0933
  777MOL0     O 2456   4.968   4.675  11.825 -0.5030  0.3462  0.5596
  777MOL0     C 2457   5.002   4.543  11.853  0.1662  1.0003 -1.2028
  777MOL0     C 2458   4.904   4.462  11.917 -0.2925  0.6371 -0.0007
  777MOL0     C 2459   4.956   4.347  11.975 -0.3315 -0.5867 -0.1461
  777MOL0     C 2460   5.086   4.298  11.968  0.8379 -0.0543 -0.5215
  777MOL0     C 2461   5.126   4.157  12.021 -0.8532 -0.7234  0.1843
  777MOL0     O 2462   5.033   4.068  12.050  0.1239  0.8668 -0.0282
  777MOL0     C 2463   5.067   3.943  12.109 -0.8867  0.5493  0.5816
  777MOL0     C 2464   4.997   3.887  12.222 -0.1719  0.0068  1.0872
  777MOL0     C 2465   5.038   3.763  12.296  0.5963 -0.5612 -0.4968
  777MOL0     C 2466   5.157   3.697  12.260 -0.4819 -0.2604  0.6107
  777MOL0     O 2467   5.201   3.578  12.326 -0.5369 -0.2652 -0.2127
  777MOL0     C 2468   5.176   3.552  12.465 -0.3151  0.5304 -0.0964
  777MOL0     C 2469   5.282   3.450  12.503 -0.6070 -0.2424 -0.5368
  777MOL0     C 2470   5.414   3.524  12.542  0.4700  0.3686  0.2642
  777MOL0     C 2471   5.534   3.433  12.592 -0.4009 -0.9345  0.6558
  777MOL0     C 2472   5.647   3.416  12.486  0.7408 -0.3469  1.0031
  777MOL0     C 2473   5.611   3.346  12.356 -0.2446 -0.2488 -0.0711
  777MOL0     C 2474   5.577   3.199  12.376 -0.3454  0.4234 -0.7838
  777MOL0     C 2475   5.503   3.123  12.263 -0.1115  0.8638  0.9413
  777MOL0    Cl 2476   5.334   3.143  12.281  0.0079 -0.0243  0.4534
  777MOL0     C 2477   5.224   3.746  12.143 -0.5012  0.7176 -0.5735
  777MOL0     C 2478   5.187   3.861  12.074 -0.8590  0.1802  0.4756
  777MOL0     O 2479   5.245   4.141  12.035 -0.5808  1.7464 -0.2293
  777MOL0     C 2480   5.172   4.376  11.898 -0.3747 -0.6053 -0.3305
  777MOL0     C 2481   5.130   4.494  11.838 -0.8522 -0.6239 -0.3481
  777MOL0     N 2482   4.617   4.619  11.426 -0.8927  0.4213 -0.2443
  777MOL0     N 2483   4.498   4.648  11.398  0.0596 -0.5819  0.5978
  777MOL0     C 2484   4.470   4.325  10.594  0.7402  0.4435  0.6231
  777MOL0     C 2485   4.583   4.384  10.526 -0.6328  0.4512 -0.2038
  777MOL0     C 2486   5.023   4.525  10.447 -0.3048 -0.1865 -0.6849
  777MOL0     C 2487   4.986   4.555  10.312 -0.7856 -1.1059  0.1314
  777MOL0     C 2488   5.091   4.576  10.216 -0.0576 -0.7104  0.6694
  777MOL0     C 2489   5.222   4.560  10.251  0.1636 -1.0922  0.0029
  777MOL0     O 2490   5.317   4.584  10.158  0.3937  0.3084  0.9685
  777MOL0     C 2491   5.451   4.572  10.195  0.6345 -0.1977  0.8534
  777MOL0     C 2492   5.533   4.563  10.070  0.4328  0.1001 -0.0643
  777MOL0     C 2493   5.511   4.666   9.955 -0.5832 -0.4130 -0.4358
  777MOL0     C 2494   5.580   4.791   9.960  0.8754  0.0391  0.1793
  777MOL0     C 2495   5.730   4.781   9.968 -0.2782 -0.6282  0.1461
  777MOL0     C 2496   5.845   4.746   9.964 -0.2874  0.7293 -0.1970
  777MOL0     C 2497   5.253   4.532  10.382 -0.1103 -0.3251 -0.1880
  777MOL0     C 2498   5.158   4.508  10.478 -0.2125  0.4738 -0.4453
  777MOL0     H 2499   4.756   4.499  10.796 -0.2464  2.9101 -0.7422
  777MOL0     H 2500   4.552   4.443  10.903 -1.2399  0.4261  0.3934
  777MOL0     H 2501   4.286   4.151  10.695 -0.9644 -0.3880  1.1686
  777MOL0     H 2502   4.181   4.295  10.680 -0.4669 -0.3473  0.6096
  777MOL0     H 2503   4.185   4.130  10.938 -1.8244  1.2678  1.8955
  777MOL0     H 2504   4.058   4.140  10.822 -1.5617  1.3025  1.0849
  777MOL0     H 2505   4.008   4.289  11.003 -2.5582 -0.0804 -1.7744
  777MOL0     H 2506   4.014   4.370  10.853 -2.5796 -0.1125  1.8514
  777MOL0     H 2507   4.266   4.359  11.039  0.2028 -0.2967  1.9313
  777MOL0     H 2508   4.216   4.481  10.918 -3.2947  0.6988 -0.6720
  777MOL0     H 2509   4.032   4.430  11.159 -0.8101  1.0351  1.5314
  777MOL0     H 2510   4.040   4.570  11.058 -1.3359 -0.3723  0.6234
  777MOL0     H 2511   4.259   4.507  11.262  2.1838  1.4654 -0.0688
  777MOL0     H 2512   4.129   4.630  11.279 -4.4990  1.2009 -3.2508
  777MOL0     H 2513   4.342   4.622  11.058 -0.4768 -4.4869  2.7431
  777MOL0     H 2514   4.227   4.750  11.074  3.1241  1.0899 -0.9215
  777MOL0     H 2515   4.316   4.785  11.320  0.4418 -2.1581  1.5954
  777MOL0     H 2516   4.392   4.848  11.171  1.2970  0.1422  0.7597
  777MOL0     H 2517   4.655   4.740  11.121 -0.5301 -2.7881 -0.5442
  777MOL0     H 2518   4.905   4.641  11.239 -1.2341 -1.6444 -0.5629
  777MOL0     H 2519   4.884   4.507  11.349 -0.9950 -0.9821  0.8988
  777MOL0     H 2520   4.918   4.792  11.427  0.4735  0.1755 -0.3243
  777MOL0     H 2521   5.032   4.668  11.431 -0.0929 -1.3194 -1.0992
  777MOL0     H 2522   4.794   4.663  11.619  1.2663  3.4220  3.6354
  777MOL0     H 2523   4.924   4.537  11.597  2.2726  0.2823 -1.4105
  777MOL0     H 2524   4.971   4.825  11.695 -3.4760 -0.8545 -0.5849
  777MOL0     H 2525   5.099   4.702  11.665 -0.1900  1.5847 -2.0240
  777MOL0     H 2526   4.798   4.482  11.932 -0.2039 -0.0447  1.8609
  777MOL0     H 2527   4.888   4.294  12.041 -2.4411  1.1413 -0.8285
  777MOL0     H 2528   4.914   3.947  12.256 -0.7780 -0.7203  0.9256
  777MOL0     H 2529   4.994   3.748  12.395 -2.5259  0.9513 -1.4938
  777MOL0     H 2530   5.078   3.505  12.458 -1.1015  2.3874 -3.8949
  777MOL0     H 2531   5.162   3.638  12.531 -3.4890 -1.2894  1.8484
  777MOL0     H 2532   5.289   3.390  12.413 -0.6507 -0.6970 -0.2395
  777MOL0     H 2533   5.256   3.392  12.592  2.9291 -1.0496  0.1007
  777MOL0     H 2534   5.399   3.593  12.626  1.9928  0.3090  0.6025
  777MOL0     H 2535   5.429   3.599  12.463  1.7150  1.8102  1.7847
  777MOL0     H 2536   5.573   3.475  12.685 -1.1905 -0.9312  0.9903
  777MOL0     H 2537   5.499   3.335  12.626 -0.8600 -0.7809  0.6267
  777MOL0     H 2538   5.730   3.357  12.525  0.0213 -3.3657 -1.6434
  777MOL0     H 2539   5.686   3.517  12.471  1.6637 -0.9997 -1.2744
  777MOL0     H 2540   5.698   3.355  12.290  0.6388 -0.6589  1.0262
  777MOL0     H 2541   5.524   3.395  12.312 -0.5531 -0.9846 -0.3041
  777MOL0     H 2542   5.668   3.139  12.378 -0.3303  0.4550 -0.5958
  777MOL0     H 2543   5.523   3.176  12.468  1.8174  0.2332  0.5111
  777MOL0     H 2544   5.527   3.019  12.283  3.6101  1.3955 -0.0639
  777MOL0     H 2545   5.521   3.153  12.159  0.0759  2.3911  1.3868
  777MOL0     H 2546   5.305   3.682  12.113  1.4709  1.5271  2.5399
  777MOL0     H 2547   5.248   3.891  11.990 -0.5480 -3.1103 -0.6173
  777MOL0     H 2548   5.274   4.343  11.878 -1.0009 -2.6394 -0.4753
  777MOL0     H 2549   5.196   4.551  11.773 -1.2546 -0.9352 -1.0358
  777MOL0     H 2550   4.384   4.286  10.539 -1.1335  3.7556  0.9327
  777MOL0     H 2551   4.590   4.383  10.417 -0.8344  0.9953 -0.2272
  777MOL0     H 2552   4.885   4.580  10.281 -0.3253 -0.0105 -0.5469
  777MOL0     H 2553   5.068   4.609  10.115  0.1145  1.6710  1.3735
  777MOL0     H 2554   5.468   4.486  10.261  1.8639 -0.3074  0.4248
  777MOL0     H 2555   5.487   4.665  10.240  0.0822  0.6133 -0.3109
  777MOL0     H 2556   5.639   4.556  10.098 -0.1795  1.3331  3.0280
  777MOL0     H 2557   5.516   4.464  10.028  2.3658 -0.7460  0.9947
  777MOL0     H 2558   5.404   4.686   9.943 -0.4656 -0.1017 -0.9780
  777MOL0     H 2559   5.553   4.613   9.870  2.2353  1.6636 -0.4751
  777MOL0     H 2560   5.566   4.849   9.868 -2.2877  0.3126  0.7332
  777MOL0     H 2561   5.547   4.855  10.042 -2.4347 -1.3960  0.1260
  777MOL0     H 2562   5.944   4.706   9.952 -0.0251  0.6565  1.9006
  777MOL0     H 2563   5.357   4.541  10.413  1.1730  3.8983 -4.4671
  777MOL0     H 2564   5.179   4.498  10.584  0.5727 -3.5951 -0.8074
  778MOL0     O 2565   0.083   0.927   9.918 -0.8305  0.3907 -0.3037
  778MOL0     C 2566   0.075   0.976   9.806 -0.4131 -0.3896 -0.3987
  778MOL0     O 2567   0.076   0.912   9.691 -1.4340  0.0259  0.2617
  778MOL0     C 2568   0.155   0.805   9.663 -0.6052  0.2460  0.0794
  778MOL0     C 2569   0.274   0.774   9.740  0.1010  0.0239  0.7125
  778MOL0     C 2570   0.360   0.662   9.711  1.0531 -0.0611 -0.2950
  778MOL0     C 2571   0.339   0.592   9.594  0.1309 -0.5862 -0.6616
  778MOL0     O 2572   0.423   0.500   9.541  0.4374 -1.1272  0.8139
  778MOL0     C 2573   0.504   0.410   9.625 -0.3601  1.4158  0.6835
  778MOL0     C 2574   0.632   0.372   9.544 -0.1773 -0.2255  1.7314
  778MOL0     C 2575   0.701   0.263   9.626  0.5592 -0.3820  0.0195
  778MOL0     C 2576   0.848   0.238   9.585 -0.1513 -0.0017  0.0185
  778MOL0     C 2577   0.869   0.188   9.441  0.3085  0.1782  0.0829
  778MOL0     C 2578   0.804   0.046   9.409 -0.4963 -0.0311 -0.1376
  778MOL0     C 2579   0.878  -0.070   9.485 -0.4148 -1.0889 -0.9038
  778MOL0     C 2580   0.834  -0.206   9.432  0.1514 -0.0874  1.1087
  778MOL0     N 2581   0.931  -0.302   9.496  0.6893 -0.3445  0.3373
  778MOL0     C 2582   0.959  -0.322   9.635 -0.2782 -0.4311 -0.0620
  778MOL0     C 2583   1.073  -0.397   9.635  0.2251 -0.0168  1.0207
  778MOL0     C 2584   1.134  -0.465   9.755 -1.1120 -0.3117  0.5024
  778MOL0     C 2585   1.241  -0.386   9.821 -0.0958 -0.2477 -0.7373
  778MOL0     C 2586   1.302  -0.462   9.936  0.9884  0.0407  0.1209
  778MOL0     C 2587   1.371  -0.361  10.025 -0.7561  1.1489  0.8645
  778MOL0     O 2588   1.467  -0.431  10.100  1.1259  0.5102 -0.2961
  778MOL0     C 2589   1.558  -0.369  10.177 -0.0666  0.5458 -1.2275
  778MOL0     C 2590   1.653  -0.445  10.238  0.1854 -0.4168  0.7884
  778MOL0     C 2591   1.752  -0.392  10.315 -0.0034  0.4670  0.0475
  778MOL0     C 2592   1.764  -0.260  10.330  1.1399 -0.5354 -0.0076
  778MOL0     C 2593   1.854  -0.209  10.437  0.3012 -0.0291  0.5978
  778MOL0     O 2594   1.950  -0.290  10.480 -0.0904 -0.0196 -0.6449
  778MOL0     C 2595   2.037  -0.249  10.581 -0.9049  0.0218 -0.1108
  778MOL0     C 2596   2.146  -0.340  10.604  0.4184 -0.9037  0.0476
  778MOL0     C 2597   2.238  -0.321  10.704  0.3789 -0.6549  0.0536
  778MOL0     C 2598   2.225  -0.210  10.796 -1.0440  0.5399  0.2803
  778MOL0     O 2599   2.327  -0.216  10.889 -0.6715 -0.1931 -0.0319
  778MOL0     C 2600   2.368  -0.094  10.958 -0.2820  0.5462 -0.6323
  778MOL0     C 2601   2.316  -0.082  11.098  0.1872 -0.1553  0.2783
  778MOL0     C 2602   2.344  -0.206  11.181 -0.0157  0.2863 -0.2349
  778MOL0     C 2603   2.327  -0.196  11.331 -0.6680 -0.3896  0.2446
  778MOL0     C 2604   2.183  -0.149  11.374 -1.1351  0.2695  0.0909
  778MOL0     C 2605   2.071  -0.255  11.339 -0.5338  0.3481 -0.4640
  778MOL0     C 2606   1.933  -0.199  11.313  0.0048 -0.0239 -0.3311
  778MOL0     C 2607   1.853  -0.128  11.432  0.2112 -0.8605 -0.4105
  778MOL0    Cl 2608   1.792  -0.251  11.556 -0.3580  0.0983  0.2048
  778MOL0     C 2609   2.127  -0.112  10.767 -0.1176  0.1693  0.6326
  778MOL0     C 2610   2.030  -0.134  10.663  0.2778  0.1454 -0.1808
  778MOL0     O 2611   1.837  -0.091  10.463 -0.1349  0.0779 -0.4122
  778MOL0     C 2612   1.677  -0.173  10.256  0.0666  0.2619 -0.4004
  778MOL0     C 2613   1.572  -0.226  10.176 -0.1013 -0.7940  0.8106
  778MOL0     N 2614   1.135  -0.400   9.505 -0.3749 -0.9119  0.4614
  778MOL0     N 2615   1.042  -0.346   9.428 -0.2098  0.0783 -0.3175
  778MOL0     C 2616   0.225   0.622   9.515 -0.0501  0.1165  0.0079
  778MOL0     C 2617   0.135   0.723   9.555  0.4798  0.9802  0.5076
  778MOL0     C 2618   0.056   1.121   9.792  0.7873 -0.4943 -0.4906
  778MOL0     C 2619   0.053   1.179   9.667  1.0861 -0.4042  0.1565
  778MOL0     C 2620   0.027   1.311   9.659  1.1042  0.1458 -0.0726
  778MOL0     C 2621   0.021   1.395   9.768 -0.6469  0.4240 -0.7265
  778MOL0     O 2622  -0.016   1.520   9.748  0.0539  0.1093  0.2958
  778MOL0     C 2623   0.011   1.625   9.847  0.4504  0.1685  0.2555
  778MOL0     C 2624  -0.120   1.708   9.857  0.4929 -1.5065 -0.4504
  778MOL0     C 2625  -0.158   1.790   9.740 -0.6961 -0.6587 -0.1183
  778MOL0     C 2626  -0.055   1.908   9.704  0.3373  1.0031  0.0968
  778MOL0     C 2627  -0.021   1.995   9.816  0.6799 -1.2020  0.3616
  778MOL0     C 2628   0.012   2.078   9.904 -0.7263  0.0612 -0.5153
  778MOL0     C 2629   0.022   1.337   9.900 -0.0311  0.7615 -0.9284
  778MOL0     C 2630   0.030   1.194   9.907 -0.4996 -0.1441  0.6412
  778MOL0     H 2631   0.291   0.819   9.837 -0.5429 -2.0468  1.8388
  778MOL0     H 2632   0.449   0.642   9.769  1.1800  0.1691 -0.4075
  778MOL0     H 2633   0.454   0.316   9.650  0.4539  0.1983 -1.8351
  778MOL0     H 2634   0.539   0.450   9.720  2.4279 -2.7829  1.7070
  778MOL0     H 2635   0.691   0.463   9.531 -1.0289  0.1039 -0.2423
  778MOL0     H 2636   0.605   0.344   9.441 -4.6513  4.3887  1.2624
  778MOL0     H 2637   0.645   0.170   9.616 -1.1990  0.5625  0.8064
  778MOL0     H 2638   0.692   0.289   9.732  1.4886 -0.5184  0.1444
  778MOL0     H 2639   0.894   0.337   9.595  3.2730 -0.9450 -3.6493
  778MOL0     H 2640   0.885   0.161   9.653  3.8602 -0.2232 -2.0948
  778MOL0     H 2641   0.972   0.197   9.406 -0.5988  1.9845 -2.4497
  778MOL0     H 2642   0.827   0.263   9.373 -0.5309 -0.4905 -0.1546
  778MOL0     H 2643   0.798   0.021   9.303  0.1986 -1.2564  0.0872
  778MOL0     H 2644   0.700   0.046   9.442 -0.3207  3.0910  0.6938
  778MOL0     H 2645   0.977  -0.048   9.444 -1.0317  1.4308 -1.2190
  778MOL0     H 2646   0.877  -0.054   9.594  1.4058 -0.0996 -0.9879
  778MOL0     H 2647   0.838  -0.215   9.324 -2.6945  3.5672  0.4956
  778MOL0     H 2648   0.738  -0.252   9.458  0.7795 -1.3219  1.3443
  778MOL0     H 2649   0.903  -0.306   9.726  0.5494 -0.4896  0.4740
  778MOL0     H 2650   1.178  -0.556   9.713  3.5044  1.9409 -0.1246
  778MOL0     H 2651   1.055  -0.496   9.824 -0.5933 -0.7144  0.9245
  778MOL0     H 2652   1.205  -0.287   9.849  0.3591 -0.1175 -0.5994
  778MOL0     H 2653   1.322  -0.375   9.748  2.6997  1.1736  2.3293
  778MOL0     H 2654   1.220  -0.516   9.984  0.2950 -0.4265 -1.4911
  778MOL0     H 2655   1.370  -0.537   9.894  1.6426  0.1344  0.9972
  778MOL0     H 2656   1.297  -0.313  10.089 -0.8772  1.4606  0.4967
  778MOL0     H 2657   1.421  -0.285   9.964  1.1276  1.4037  2.6355
  778MOL0     H 2658   1.641  -0.552  10.221 -0.2418 -0.1027 -1.1885
  778MOL0     H 2659   1.806  -0.461  10.379  1.8694  1.7956  0.0003
  778MOL0     H 2660   2.144  -0.428  10.540  1.0620  0.4608 -1.9530
  778MOL0     H 2661   2.315  -0.396  10.720  2.2164  1.2869  0.8230
  778MOL0     H 2662   2.334  -0.007  10.901 -1.0811 -0.8907 -2.4393
  778MOL0     H 2663   2.477  -0.091  10.957  0.0784 -4.2653 -0.7941
  778MOL0     H 2664   2.209  -0.072  11.078  0.0101  1.7684  1.9690
  778MOL0     H 2665   2.348   0.009  11.148 -0.9962  1.1875 -1.2674
  778MOL0     H 2666   2.451  -0.231  11.175 -0.3858 -0.9663 -2.1803
  778MOL0     H 2667   2.288  -0.288  11.137  1.4272 -0.6996 -0.3217
  778MOL0     H 2668   2.350  -0.289  11.383  3.1449 -0.2101 -0.8277
  778MOL0     H 2669   2.409  -0.129  11.360 -0.4300  0.0456 -1.3296
  778MOL0     H 2670   2.154  -0.059  11.318 -2.8295  0.1082  0.6532
  778MOL0     H 2671   2.184  -0.112  11.477 -1.0408 -0.7183  0.4492
  778MOL0     H 2672   2.087  -0.334  11.413  5.0958 -0.1534 -1.7279
  778MOL0     H 2673   2.101  -0.304  11.245  0.6712  0.3248 -0.0915
  778MOL0     H 2674   1.936  -0.134  11.225 -2.4611 -0.2870 -0.6890
  778MOL0     H 2675   1.878  -0.288  11.280  1.7299 -0.3373 -2.5669
  778MOL0     H 2676   1.770  -0.069  11.392 -0.3667 -0.8702  0.7364
  778MOL0     H 2677   1.926  -0.058  11.472  0.0412  0.1066 -1.7311
  778MOL0     H 2678   2.126  -0.027  10.834 -0.3057  0.1492  0.6555
  778MOL0     H 2679   1.959  -0.053  10.650  1.5228  1.6580  1.9114
  778MOL0     H 2680   1.692  -0.066  10.265 -2.3034  0.5006  1.7233
  778MOL0     H 2681   1.499  -0.166  10.122  0.3773  0.2605  1.3016
  778MOL0     H 2682   0.204   0.573   9.420 -4.9394 -0.3934  1.0484
  778MOL0     H 2683   0.045   0.739   9.496  0.2200  2.5012  1.2713
  778MOL0     H 2684   0.065   1.117   9.579 -3.1660 -2.2693  0.6604
  778MOL0     H 2685   0.014   1.366   9.567  0.6467 -1.3639 -0.9218
  778MOL0     H 2686   0.089   1.688   9.804 -0.9596  0.0672 -2.7325
  778MOL0     H 2687   0.035   1.588   9.947  0.2664  1.0463  0.6376
  778MOL0     H 2688  -0.195   1.634   9.886 -2.6812  1.3987 -0.5891
  778MOL0     H 2689  -0.116   1.783   9.936 -2.7136  0.6422 -2.1020
  778MOL0     H 2690  -0.250   1.839   9.773 -0.7422 -1.0635  0.3581
  778MOL0     H 2691  -0.182   1.723   9.656  0.3186 -1.0748 -0.0879
  778MOL0     H 2692   0.040   1.872   9.662  1.7880  1.2003  2.9375
  778MOL0     H 2693  -0.095   1.970   9.624  1.0106 -0.0802 -1.1152
  778MOL0     H 2694   0.035   2.151   9.979  1.1036  0.2561 -1.2092
  778MOL0     H 2695  -0.008   1.388   9.991 -4.7540  0.8365 -2.2981
  778MOL0     H 2696   0.005   1.154  10.004 -1.4580  0.5082  0.6750
  779MOL0     O 2697   7.394   2.759   3.331 -0.2376 -0.6381  0.4626
  779MOL0     C 2698   7.388   2.837   3.234  0.2558 -0.2452  0.0414
  779MOL0     O 2699   7.281   2.861   3.155 -1.0904 -0.3948  0.3498
  779MOL0     C 2700   7.150   2.832   3.183 -0.0771 -0.0757 -0.5187
  779MOL0     C 2701   7.063   2.864   3.079  0.7131  0.3466 -0.6389
  779MOL0     C 2702   6.928   2.835   3.091 -0.1734 -0.2953 -0.1720
  779MOL0     C 2703   6.877   2.780   3.206  0.2916 -1.0835 -0.7741
  779MOL0     O 2704   6.739   2.760   3.226  0.1802  0.3080  0.2981
  779MOL0     C 2705   6.675   2.725   3.100  0.4464 -0.0932 -0.4703
  779MOL0     C 2706   6.530   2.672   3.130  0.4089 -0.0229  0.2540
  779MOL0     C 2707   6.471   2.606   2.995 -0.0206 -0.2764 -1.4631
  779MOL0     C 2708   6.365   2.501   3.035 -1.0130  0.5919  0.7827
  779MOL0     C 2709   6.328   2.421   2.902  0.0851 -0.1057 -0.6334
  779MOL0     C 2710   6.230   2.305   2.938 -0.6689  0.2698  0.4541
  779MOL0     C 2711   6.229   2.181   2.833  0.9052 -0.0524 -0.5604
  779MOL0     C 2712   6.358   2.101   2.858  0.7147 -0.4608  0.1326
  779MOL0     N 2713   6.341   1.964   2.915 -0.5843  0.4644 -0.8213
  779MOL0     C 2714   6.302   1.943   3.045 -0.1876  0.4374 -0.2347
  779MOL0     C 2715   6.301   1.811   3.044 -0.0878  1.0728 -0.0184
  779MOL0     C 2716   6.249   1.736   3.169  0.0040  1.0745 -0.4984
  779MOL0     C 2717   6.349   1.730   3.284 -0.1866 -0.4784 -0.5263
  779MOL0     C 2718   6.291   1.670   3.415 -0.7927 -0.0088 -0.5594
  779MOL0     C 2719   6.183   1.751   3.479  0.8583 -1.0227 -0.7778
  779MOL0     O 2720   6.107   1.663   3.567 -0.3703  0.0713 -0.4129
  779MOL0     C 2721   6.003   1.712   3.632  0.1344 -0.0304 -0.7486
  779MOL0     C 2722   5.949   1.849   3.615  1.5126 -0.0966  0.0330
  779MOL0     C 2723   5.838   1.885   3.696 -0.2586 -0.8149 -0.1893
  779MOL0     C 2724   5.770   1.792   3.774 -1.1335  0.4073 -0.7902
  779MOL0     C 2725   5.653   1.836   3.851  0.2627  0.1674 -0.0803
  779MOL0     O 2726   5.588   1.954   3.812 -0.1205  0.5069  0.7984
  779MOL0     C 2727   5.461   1.987   3.857 -0.3234  0.0298  0.5052
  779MOL0     C 2728   5.380   1.912   3.951  1.4815  0.2977 -0.1435
  779MOL0     C 2729   5.245   1.949   3.976 -0.2168 -0.2785  0.0157
  779MOL0     C 2730   5.188   2.065   3.919 -0.3806  0.0376 -0.6806
  779MOL0     O 2731   5.067   2.117   3.966 -0.0839 -0.1918  0.0409
  779MOL0     C 2732   4.955   2.029   3.977  0.7354  0.5510  0.0666
  779MOL0     C 2733   4.848   2.080   4.077  0.7615  0.0189 -1.3091
  779MOL0     C 2734   4.901   2.083   4.225  0.1277  0.7595  0.6426
  779MOL0     C 2735   4.793   2.104   4.331 -0.7452  1.2455  1.0285
  779MOL0     C 2736   4.864   2.158   4.456  0.7917 -0.8653 -0.8397
  779MOL0     C 2737   4.791   2.178   4.588 -0.2190  0.6158 -0.7077
  779MOL0     C 2738   4.649   2.235   4.558 -0.1850  0.0914  0.1455
  779MOL0     C 2739   4.565   2.302   4.676  0.1887 -0.3163  0.1983
  779MOL0    Cl 2740   4.685   2.427   4.727 -0.2501  0.1396 -0.7467
  779MOL0     C 2741   5.266   2.143   3.826  0.0558  0.5650  0.7454
  779MOL0     C 2742   5.398   2.101   3.798 -0.2279 -0.6701  0.5249
  779MOL0     O 2743   5.624   1.764   3.946  0.0757 -0.4556 -0.7966
  779MOL0     C 2744   5.825   1.661   3.796  0.9774 -0.0743 -0.4954
  779MOL0     C 2745   5.942   1.627   3.729 -0.3419  0.2017 -0.0182
  779MOL0     N 2746   6.333   1.746   2.925 -0.5655 -0.9210 -0.5898
  779MOL0     N 2747   6.350   1.847   2.848  0.4371 -0.5336 -0.5574
  779MOL0     C 2748   6.954   2.758   3.319  0.9108  0.5763 -0.3167
  779MOL0     C 2749   7.090   2.784   3.309 -0.7927 -0.0806 -0.0209
  779MOL0     C 2750   7.520   2.875   3.180 -0.1632  0.6537  0.0917
  779MOL0     C 2751   7.630   2.877   3.260  0.2818  0.6766  1.2502
  779MOL0     C 2752   7.758   2.919   3.213  0.5314  0.4233 -0.2513
  779MOL0     C 2753   7.780   2.947   3.075  0.7611  0.2980  0.4568
  779MOL0     O 2754   7.893   2.996   3.021 -0.2420 -0.2610  0.0149
  779MOL0     C 2755   8.012   2.990   3.104 -0.2248 -0.6588 -0.1132
  779MOL0     C 2756   8.143   3.001   3.014  0.2414  0.6780  0.1082
  779MOL0     C 2757   8.137   3.113   2.906  0.3521  0.0010 -1.1729
  779MOL0     C 2758   8.100   3.059   2.768 -0.4163 -1.6324 -0.4693
  779MOL0     C 2759   8.074   3.160   2.662 -0.5560  0.0848 -0.2592
  779MOL0     C 2760   8.063   3.230   2.567 -0.5990  0.9735  0.2907
  779MOL0     C 2761   7.671   2.924   2.989 -0.1167 -0.0877 -0.3743
  779MOL0     C 2762   7.543   2.894   3.042  0.1010 -0.5756 -0.9970
  779MOL0     H 2763   7.110   2.911   2.994  1.5504 -0.1187 -0.4466
  779MOL0     H 2764   6.867   2.860   3.005  0.7411 -1.3273 -1.1449
  779MOL0     H 2765   6.721   2.637   3.053 -1.6773 -3.4531  3.1267
  779MOL0     H 2766   6.668   2.810   3.031 -4.6874 -0.1024 -0.3986
  779MOL0     H 2767   6.449   2.736   3.166 -3.5606 -4.0608 -0.6772
  779MOL0     H 2768   6.536   2.588   3.199 -4.5148  1.5282  3.0612
  779MOL0     H 2769   6.557   2.556   2.950  0.9453 -0.0225  0.0117
  779MOL0     H 2770   6.433   2.682   2.926 -1.4791  0.5075  0.1327
  779MOL0     H 2771   6.396   2.433   3.115  0.5569 -0.0800 -0.3522
  779MOL0     H 2772   6.279   2.559   3.070 -0.4276  1.2903  1.0978
  779MOL0     H 2773   6.424   2.384   2.866 -0.3666 -0.5358 -1.4382
  779MOL0     H 2774   6.277   2.493   2.836 -1.7866  0.1141  0.9400
  779MOL0     H 2775   6.128   2.344   2.936 -1.3273 -1.3322 -2.2270
  779MOL0     H 2776   6.250   2.257   3.034  4.1402  0.2591 -0.3082
  779MOL0     H 2777   6.136   2.124   2.845  0.1614  0.4562 -3.3102
  779MOL0     H 2778   6.222   2.225   2.734 -2.5199  2.9084  0.7611
  779MOL0     H 2779   6.430   2.153   2.922  1.4366 -1.4278  0.1360
  779MOL0     H 2780   6.405   2.093   2.760 -1.2481 -0.4663 -0.8539
  779MOL0     H 2781   6.285   2.009   3.130  1.7553  0.0063  0.5231
  779MOL0     H 2782   6.213   1.637   3.141 -2.5788  1.1863  1.9381
  779MOL0     H 2783   6.159   1.794   3.196  0.7967  2.1703 -0.1179
  779MOL0     H 2784   6.400   1.824   3.305 -2.5050  0.4197  1.5510
  779MOL0     H 2785   6.434   1.669   3.251  2.4815  3.7314 -2.1918
  779MOL0     H 2786   6.266   1.566   3.397  0.4441 -0.0828 -2.0815
  779MOL0     H 2787   6.378   1.673   3.481 -1.3145  1.4091  0.1186
  779MOL0     H 2788   6.108   1.789   3.409  1.1761  1.4303  0.1104
  779MOL0     H 2789   6.234   1.827   3.539 -2.8827 -1.1347  2.9957
  779MOL0     H 2790   5.994   1.927   3.554  0.6493 -0.7966 -1.5349
  779MOL0     H 2791   5.790   1.982   3.701  0.3900 -0.4622 -0.6839
  779MOL0     H 2792   5.405   1.826   4.011  0.8941 -1.6429 -2.5297
  779MOL0     H 2793   5.175   1.891   4.035 -0.5399  1.8765  1.9116
  779MOL0     H 2794   4.974   1.924   4.001 -2.8862 -0.0078  1.0882
  779MOL0     H 2795   4.915   2.024   3.875  1.7499  0.9014 -0.3608
  779MOL0     H 2796   4.767   2.008   4.091 -0.0150  1.3188  1.9949
  779MOL0     H 2797   4.803   2.177   4.054  0.7274  0.2911 -0.1593
  779MOL0     H 2798   4.974   2.164   4.230  2.0345 -0.5811 -2.4183
  779MOL0     H 2799   4.948   1.989   4.256 -0.1597  0.2594 -0.4007
  779MOL0     H 2800   4.716   2.169   4.287 -3.5577 -3.1366 -1.2878
  779MOL0     H 2801   4.748   2.008   4.360  3.5395 -1.9988 -1.7650
  779MOL0     H 2802   4.900   2.255   4.421  2.7197 -2.2067 -2.8796
  779MOL0     H 2803   4.946   2.091   4.486 -0.7136 -1.7013  1.7363
  779MOL0     H 2804   4.849   2.235   4.662 -1.2352 -1.3482  1.7405
  779MOL0     H 2805   4.771   2.077   4.625 -1.5217  1.0415 -0.1914
  779MOL0     H 2806   4.666   2.307   4.478  4.0067 -0.4604  0.3223
  779MOL0     H 2807   4.586   2.157   4.513  0.2247 -0.4657  0.5125
  779MOL0     H 2808   4.543   2.231   4.756  0.1909 -3.6432 -2.5331
  779MOL0     H 2809   4.474   2.324   4.619 -0.1971 -1.1412  0.4796
  779MOL0     H 2810   5.222   2.230   3.779 -2.2201 -0.9126 -0.0315
  779MOL0     H 2811   5.453   2.163   3.728  1.8574 -0.4092  2.3115
  779MOL0     H 2812   5.777   1.592   3.864  1.3111  0.7198  0.5795
  779MOL0     H 2813   5.981   1.530   3.758  0.8274  1.3540  2.5734
  779MOL0     H 2814   6.919   2.712   3.410 -0.9916 -0.9812 -1.7368
  779MOL0     H 2815   7.156   2.751   3.388 -3.4239 -1.4556  1.7451
  779MOL0     H 2816   7.611   2.863   3.366 -3.5080 -1.3803  0.4652
  779MOL0     H 2817   7.839   2.926   3.285  0.0996 -1.1947  0.4211
  779MOL0     H 2818   8.014   2.901   3.167 -2.3425  1.7436  3.8028
  779MOL0     H 2819   8.021   3.071   3.177  0.3207 -2.9098  2.4838
  779MOL0     H 2820   8.235   3.014   3.072  1.2616 -0.3167 -1.2429
  779MOL0     H 2821   8.160   2.904   2.967 -2.0545 -0.9601  2.3526
  779MOL0     H 2822   8.242   3.145   2.912 -0.4470  2.4785  2.2861
  779MOL0     H 2823   8.070   3.194   2.937 -1.0441 -1.6829  0.3648
  779MOL0     H 2824   8.176   2.993   2.726  0.4673 -1.1761  0.3787
  779MOL0     H 2825   8.013   2.997   2.790 -2.7607  2.0891  1.9316
  779MOL0     H 2826   8.057   3.299   2.484 -0.1617 -1.9968 -2.4041
  779MOL0     H 2827   7.679   2.944   2.882 -2.0460  1.0847 -0.3506
  779MOL0     H 2828   7.453   2.887   2.981  0.3907 -0.4214 -1.4547
  780MOL0     O 2829  11.384  11.030   3.438 -0.2120 -0.1517 -0.3462
  780MOL0     C 2830  11.412  11.145   3.457  0.1519  0.2376 -0.2392
  780MOL0     O 2831  11.542  11.193   3.465  0.4991 -0.9713  0.4395
  780MOL0     C 2832  11.637  11.143   3.375  0.2198 -0.3623  0.5805
  780MOL0     C 2833  11.775  11.184   3.408 -0.3065 -0.7865  0.3408
  780MOL0     C 2834  11.882  11.156   3.330  0.6974  0.8658  0.4272
  780MOL0     C 2835  11.865  11.082   3.210 -0.6375 -0.0685  0.0015
  780MOL0     O 2836  11.969  11.068   3.124  0.1544  0.3193  0.1846
  780MOL0     C 2837  11.944  11.135   2.998  0.1587  0.0682  0.7808
  780MOL0     C 2838  11.973  11.291   3.016 -0.8945  0.3001 -0.2392
  780MOL0     C 2839  11.968  11.359   2.884 -0.9088  0.0853 -0.2482
  780MOL0     C 2840  11.978  11.511   2.899 -0.0348  0.9230 -0.8646
  780MOL0     C 2841  12.097  11.556   2.812  0.0399  0.0733 -1.3982
  780MOL0     C 2842  12.113  11.706   2.821  0.1811 -0.1418 -0.3482
  780MOL0     C 2843  12.240  11.748   2.746 -0.0604  0.5208  0.3182
  780MOL0     C 2844  12.276  11.889   2.712  0.2693 -0.3903  0.2751
  780MOL0     N 2845  12.171  11.977   2.760  0.2739  0.0958  0.3938
  780MOL0     C 2846  12.048  11.994   2.699 -0.1131  0.1298  0.4284
  780MOL0     C 2847  11.973  12.058   2.787  0.6820 -0.6330  0.1120
  780MOL0     C 2848  11.829  12.110   2.784  0.4541  0.0787 -0.0979
  780MOL0     C 2849  11.816  12.263   2.819  0.0265  0.4124 -0.4017
  780MOL0     C 2850  11.862  12.360   2.710  0.0188 -0.2150  0.1502
  780MOL0     C 2851  12.010  12.361   2.690  0.1064  0.0776  0.1027
  780MOL0     O 2852  12.054  12.439   2.574  1.0776  0.4757  0.5019
  780MOL0     C 2853  12.185  12.467   2.553  0.2420  0.5658  0.5880
  780MOL0     C 2854  12.292  12.411   2.626 -0.7828  0.0649 -0.2332
  780MOL0     C 2855  12.419  12.453   2.610 -0.1396 -0.7410  0.1660
  780MOL0     C 2856  12.447  12.514   2.479  0.2961  0.3610  0.4544
  780MOL0     C 2857  12.581  12.561   2.449  0.4479 -0.6402  1.1792
  780MOL0     O 2858  12.597  12.656   2.349 -0.0218 -0.4018  0.6762
  780MOL0     C 2859  12.713  12.726   2.320 -0.1876 -0.9905  0.0545
  780MOL0     C 2860  12.690  12.824   2.223 -0.0644  1.5611  0.3344
  780MOL0     C 2861  12.780  12.918   2.180 -0.2718 -0.1578  0.0726
  780MOL0     C 2862  12.907  12.915   2.240  0.4954 -0.5230 -0.4270
  780MOL0     O 2863  12.986  13.018   2.194  0.1100  0.0392 -0.0044
  780MOL0     C 2864  13.125  12.988   2.203 -0.7558  0.1222 -0.6811
  780MOL0     C 2865  13.193  13.091   2.107  0.2272  1.1813  0.4509
  780MOL0     C 2866  13.158  13.234   2.133  0.4212 -0.4491  0.3337
  780MOL0     C 2867  13.232  13.334   2.049 -0.2824 -0.5857 -0.9382
  780MOL0     C 2868  13.378  13.341   2.062 -0.0431 -0.5596 -0.1514
  780MOL0     C 2869  13.419  13.336   2.209 -1.0147  0.1013  0.0817
  780MOL0     C 2870  13.574  13.367   2.241 -0.0459  0.1646 -0.1811
  780MOL0     C 2871  13.609  13.288   2.365 -0.3065  0.8414  0.0687
  780MOL0    Cl 2872  13.784  13.283   2.391  0.2417  0.0761 -0.0230
  780MOL0     C 2873  12.938  12.805   2.324 -0.6376  0.1939 -0.2122
  780MOL0     C 2874  12.848  12.709   2.363  0.3658  0.4251 -0.5197
  780MOL0     O 2875  12.671  12.524   2.528  0.6182  1.0091 -0.6721
  780MOL0     C 2876  12.345  12.559   2.397 -0.6373 -0.3941 -0.0361
  780MOL0     C 2877  12.218  12.539   2.438  0.4222  0.0012  0.2289
  780MOL0     N 2878  12.053  12.068   2.904 -0.3705  0.4351 -0.0843
  780MOL0     N 2879  12.173  12.027   2.882  1.4183 -0.2492 -0.6295
  780MOL0     C 2880  11.739  11.025   3.190 -0.6157  0.8418 -0.7044
  780MOL0     C 2881  11.627  11.059   3.269 -0.5741 -0.1912  0.2245
  780MOL0     C 2882  11.317  11.247   3.512  0.4460 -0.5688  0.0523
  780MOL0     C 2883  11.347  11.385   3.499 -0.0623  1.1616  0.8176
  780MOL0     C 2884  11.282  11.480   3.583  0.4194 -0.4638  0.3623
  780MOL0     C 2885  11.192  11.439   3.675  0.2781 -0.6661 -0.1779
  780MOL0     O 2886  11.123  11.531   3.744  0.3604  0.6605 -0.0964
  780MOL0     C 2887  11.206  11.579   3.845 -0.4610 -0.3305 -0.8486
  780MOL0     C 2888  11.128  11.693   3.903  0.4293  0.5879 -0.0426
  780MOL0     C 2889  11.162  11.761   4.036 -1.1508 -0.6240 -0.3596
  780MOL0     C 2890  11.107  11.705   4.165 -0.5680 -0.5047 -0.1504
  780MOL0     C 2891  11.108  11.803   4.270 -0.0257 -0.1421  0.1200
  780MOL0     C 2892  11.105  11.859   4.370 -0.0029 -0.0481 -0.6183
  780MOL0     C 2893  11.142  11.307   3.662  0.1263  0.2656  1.1088
  780MOL0     C 2894  11.210  11.202   3.595 -0.1269  0.1364 -0.2703
  780MOL0     H 2895  11.794  11.252   3.491  1.5212 -1.4442  0.4936
  780MOL0     H 2896  11.975  11.195   3.369 -1.1139  2.2535  3.8374
  780MOL0     H 2897  11.846  11.111   2.956  1.7772 -1.6238 -2.4172
  780MOL0     H 2898  12.018  11.099   2.925 -0.2096  0.1864  0.3512
  780MOL0     H 2899  12.075  11.295   3.056 -1.5319 -2.0741  1.8678
  780MOL0     H 2900  11.907  11.332   3.092  1.2806  1.9011  0.9000
  780MOL0     H 2901  11.877  11.327   2.833 -0.8558  1.4530 -1.2572
  780MOL0     H 2902  12.060  11.321   2.838 -1.8339  2.4638 -4.5864
  780MOL0     H 2903  11.882  11.555   2.869 -0.8048 -1.5472 -2.3611
  780MOL0     H 2904  11.998  11.541   3.002  1.6361  2.0501 -1.4755
  780MOL0     H 2905  12.093  11.527   2.707  0.5232 -1.9715 -0.9090
  780MOL0     H 2906  12.190  11.520   2.857  0.1821  0.9670 -0.9511
  780MOL0     H 2907  12.125  11.734   2.926  0.2257 -0.8665 -0.1549
  780MOL0     H 2908  12.030  11.756   2.770 -1.1235 -0.8712  0.9722
  780MOL0     H 2909  12.323  11.699   2.797 -0.8619 -0.6352  0.5740
  780MOL0     H 2910  12.243  11.693   2.651 -1.0975  0.6385  0.2008
  780MOL0     H 2911  12.277  11.900   2.604  0.5224 -2.9531 -0.0473
  780MOL0     H 2912  12.378  11.905   2.750  0.7651 -2.9921  0.2409
  780MOL0     H 2913  12.018  11.943   2.608 -0.8758 -2.0148  1.8118
  780MOL0     H 2914  11.773  12.057   2.862 -1.5267 -0.3358 -1.7290
  780MOL0     H 2915  11.783  12.074   2.692  3.3055 -2.9144 -0.5492
  780MOL0     H 2916  11.862  12.282   2.917 -1.5977 -0.7247  0.6246
  780MOL0     H 2917  11.709  12.284   2.828 -1.1306 -4.5028 -0.0295
  780MOL0     H 2918  11.804  12.331   2.622  2.7598 -1.3085 -1.4213
  780MOL0     H 2919  11.828  12.462   2.734  2.0722  1.2574 -2.5636
  780MOL0     H 2920  12.041  12.259   2.662 -0.5146  0.5010 -2.3095
  780MOL0     H 2921  12.064  12.391   2.781  1.0835 -0.4443 -0.2852
  780MOL0     H 2922  12.267  12.357   2.716  1.0260 -2.4215 -1.1185
  780MOL0     H 2923  12.503  12.439   2.677  1.0340  0.4525 -0.9899
  780MOL0     H 2924  12.588  12.826   2.184 -0.4543  0.1368  1.1839
  780MOL0     H 2925  12.745  12.990   2.107 -2.0102 -0.5859  0.4413
  780MOL0     H 2926  13.151  12.884   2.180 -1.8573 -0.5518  0.9314
  780MOL0     H 2927  13.145  12.996   2.310  2.3135 -1.5890 -0.9859
  780MOL0     H 2928  13.163  13.082   2.002  2.9773  3.4510 -0.6600
  780MOL0     H 2929  13.302  13.084   2.109  0.4129  3.4214  0.2030
  780MOL0     H 2930  13.183  13.253   2.238  2.2308 -3.6801  0.6186
  780MOL0     H 2931  13.050  13.237   2.116  0.5024 -2.1283 -0.6811
  780MOL0     H 2932  13.192  13.315   1.949 -3.7753 -0.6593  0.2994
  780MOL0     H 2933  13.183  13.429   2.071 -2.9339 -1.4393 -2.7031
  780MOL0     H 2934  13.411  13.439   2.028  0.4921 -1.4685 -2.4353
  780MOL0     H 2935  13.435  13.270   2.002 -0.5501  1.2376 -2.9336
  780MOL0     H 2936  13.403  13.240   2.258  2.5359 -0.1899  0.9195
  780MOL0     H 2937  13.354  13.406   2.263 -0.2227  0.7513  0.2008
  780MOL0     H 2938  13.638  13.340   2.157 -2.1170 -1.2001 -1.4155
  780MOL0     H 2939  13.584  13.475   2.258 -2.6591  0.3835  0.3948
  780MOL0     H 2940  13.580  13.186   2.340  1.8882  0.8082 -2.7925
  780MOL0     H 2941  13.542  13.320   2.445  0.0027  1.5158  0.0653
  780MOL0     H 2942  13.035  12.784   2.368 -1.2834  0.3061  1.2971
  780MOL0     H 2943  12.880  12.631   2.431  1.9079 -0.1146 -1.7971
  780MOL0     H 2944  12.357  12.612   2.304 -0.7966 -1.4842 -0.7028
  780MOL0     H 2945  12.138  12.591   2.388 -0.8195  1.2909  3.2923
  780MOL0     H 2946  11.733  10.959   3.104  1.5540  0.3543 -0.5444
  780MOL0     H 2947  11.528  11.028   3.236 -0.2814 -5.1810  3.0512
  780MOL0     H 2948  11.421  11.422   3.428 -2.2915  1.5349 -1.4285
  780MOL0     H 2949  11.298  11.584   3.560  0.3845 -0.2608  1.2413
  780MOL0     H 2950  11.300  11.613   3.802  0.1418 -1.4057 -0.4099
  780MOL0     H 2951  11.215  11.499   3.919 -1.5109 -0.0710 -0.4136
  780MOL0     H 2952  11.143  11.763   3.821 -0.6710  0.5023 -0.3358
  780MOL0     H 2953  11.026  11.654   3.903  1.3894 -2.4339 -3.7196
  780MOL0     H 2954  11.105  11.854   4.026  2.7085  1.7159 -3.3634
  780MOL0     H 2955  11.267  11.792   4.028 -1.9264  3.4968  2.5380
  780MOL0     H 2956  11.002  11.676   4.153 -0.2299 -2.0912  0.5092
  780MOL0     H 2957  11.169  11.621   4.199 -0.0606 -0.9009 -1.9505
  780MOL0     H 2958  11.106  11.906   4.466  0.0624 -0.2526 -0.5185
  780MOL0     H 2959  11.044  11.305   3.708 -0.4177  2.9589  0.2924
  780MOL0     H 2960  11.178  11.101   3.615 -0.5930  0.4633  0.6720
  781MOL0     O 2961   3.221   6.993  10.837 -0.5117 -0.3406 -0.4040
  781MOL0     C 2962   3.283   6.957  10.739  0.4394 -0.9996 -0.2630
  781MOL0     O 2963   3.354   7.035  10.657  1.0326 -0.8090  0.2245
  781MOL0     C 2964   3.378   7.161  10.690 -0.7166 -0.7375  0.0066
  781MOL0     C 2965   3.497   7.198  10.750  0.0796 -0.2744 -0.4677
  781MOL0     C 2966   3.527   7.328  10.786 -0.1026 -0.0183 -0.7702
  781MOL0     C 2967   3.437   7.431  10.739  0.3409 -0.4636 -0.1731
  781MOL0     O 2968   3.455   7.560  10.785 -0.4863 -0.0050 -0.5961
  781MOL0     C 2969   3.351   7.656  10.774 -0.9863  0.3099  0.2365
  781MOL0     C 2970   3.243   7.638  10.888 -0.2311 -0.9044  0.4330
  781MOL0     C 2971   3.174   7.769  10.888  0.6858  1.0308  0.2803
  781MOL0     C 2972   3.059   7.772  10.993 -0.5385 -0.3066  0.5470
  781MOL0     C 2973   3.000   7.911  11.011 -0.4828  0.8643  0.2551
  781MOL0     C 2974   3.089   8.015  11.065 -0.5888  0.9754  0.6935
  781MOL0     C 2975   3.015   8.129  11.138  0.4427  0.5235  1.1550
  781MOL0     C 2976   2.891   8.096  11.230 -0.9976 -0.2288  0.3576
  781MOL0     N 2977   2.762   8.123  11.166 -0.0994  0.2426  0.0093
  781MOL0     C 2978   2.683   8.035  11.103  0.5908 -0.0934  0.2399
  781MOL0     C 2979   2.562   8.089  11.084  1.1563  0.4643 -0.8358
  781MOL0     C 2980   2.442   8.052  10.994 -0.2817 -0.0484  0.2106
  781MOL0     C 2981   2.458   8.116  10.846  0.3025  0.1170  0.5899
  781MOL0     C 2982   2.469   8.270  10.852  0.9050 -0.3904  1.0722
  781MOL0     C 2983   2.415   8.336  10.728  0.4662 -1.0710  0.3718
  781MOL0     O 2984   2.411   8.471  10.748 -0.3889 -0.2258 -0.0819
  781MOL0     C 2985   2.308   8.531  10.691 -0.6187 -0.1239  0.4104
  781MOL0     C 2986   2.289   8.537  10.559 -0.7958  0.8235  0.5145
  781MOL0     C 2987   2.174   8.592  10.506 -0.5202  0.1368  0.6258
  781MOL0     C 2988   2.067   8.632  10.586  0.1824 -1.1271 -0.7224
  781MOL0     C 2989   1.937   8.684  10.533 -0.2470  0.1640 -0.7134
  781MOL0     O 2990   1.829   8.671  10.607 -0.4050  0.1075 -0.5102
  781MOL0     C 2991   1.704   8.738  10.586  0.3144 -0.6342 -0.8063
  781MOL0     C 2992   1.607   8.708  10.667  0.2663  0.2599 -0.7541
  781MOL0     C 2993   1.483   8.778  10.680 -0.8886 -0.0759  0.4857
  781MOL0     C 2994   1.467   8.884  10.590  0.2393  0.4716  0.3745
  781MOL0     O 2995   1.334   8.932  10.587 -0.3446 -0.5934  0.2058
  781MOL0     C 2996   1.280   9.030  10.501  0.0180 -0.3985 -0.4026
  781MOL0     C 2997   1.137   9.000  10.459 -0.7692 -0.0021  0.4758
  781MOL0     C 2998   1.069   9.116  10.377  0.2593 -0.4583 -0.8770
  781MOL0     C 2999   1.167   9.185  10.273 -0.5311 -0.9031 -0.4880
  781MOL0     C 3000   1.086   9.294  10.204  0.1611  0.7018 -0.4525
  781MOL0     C 3001   1.050   9.259  10.061 -0.6516  0.6829 -0.7089
  781MOL0     C 3002   0.986   9.376  10.002 -1.4293 -0.2400 -0.4058
  781MOL0     C 3003   0.982   9.376   9.845  0.4091  0.8361 -0.3727
  781MOL0    Cl 3004   0.956   9.543   9.788 -0.0162 -0.3402  0.2323
  781MOL0     C 3005   1.570   8.914  10.499 -0.3877 -0.4621  0.7147
  781MOL0     C 3006   1.688   8.845  10.498  0.0102 -0.1038  1.1163
  781MOL0     O 3007   1.951   8.719  10.421  0.2079  0.1589  0.2668
  781MOL0     C 3008   2.082   8.614  10.730 -0.5344  0.6923 -0.7561
  781MOL0     C 3009   2.205   8.569  10.774 -0.5489 -0.5277 -0.0230
  781MOL0     N 3010   2.576   8.217  11.148 -0.8463  0.3487 -0.5645
  781MOL0     N 3011   2.696   8.240  11.191  0.0392  0.0776 -1.5528
  781MOL0     C 3012   3.322   7.396  10.662  0.3057 -0.9615 -0.7590
  781MOL0     C 3013   3.292   7.260  10.644  0.2494 -0.2043  0.0663
  781MOL0     C 3014   3.282   6.816  10.733 -1.2610  0.1107  0.2921
  781MOL0     C 3015   3.197   6.736  10.818  0.0194  0.6727  1.0420
  781MOL0     C 3016   3.187   6.594  10.793  0.6162  0.3570 -0.3349
  781MOL0     C 3017   3.258   6.541  10.677  1.1436 -0.2028  0.1022
  781MOL0     O 3018   3.248   6.410  10.642 -1.5045 -0.5369  0.8223
  781MOL0     C 3019   3.124   6.336  10.630 -0.0694 -1.4378  0.2045
  781MOL0     C 3020   3.119   6.201  10.712 -1.0789 -0.3495 -0.4289
  781MOL0     C 3021   3.223   6.101  10.653  0.2659 -0.3655 -0.5245
  781MOL0     C 3022   3.344   6.069  10.735  0.6481 -0.7608 -0.0219
  781MOL0     C 3023   3.423   5.965  10.670  1.3739  0.4897  0.2899
  781MOL0     C 3024   3.488   5.868  10.636  0.3814  0.0201 -0.0861
  781MOL0     C 3025   3.343   6.623  10.602 -0.5458 -1.1007  0.4846
  781MOL0     C 3026   3.362   6.749  10.643 -0.9671 -0.8403 -0.1784
  781MOL0     H 3027   3.574   7.129  10.782  1.6063  3.0668  4.1751
  781MOL0     H 3028   3.616   7.356  10.840  0.1218  1.5022 -1.8680
  781MOL0     H 3029   3.314   7.662  10.671 -1.3902 -1.7149  0.2133
  781MOL0     H 3030   3.404   7.748  10.799 -0.0931 -0.3642  0.9063
  781MOL0     H 3031   3.299   7.610  10.978  0.8323 -0.1892  0.0236
  781MOL0     H 3032   3.172   7.560  10.862 -0.9313  0.1409 -0.9050
  781MOL0     H 3033   3.144   7.792  10.786  0.1406  2.0017  0.6453
  781MOL0     H 3034   3.243   7.847  10.923  0.9257  0.9803 -0.0852
  781MOL0     H 3035   2.987   7.698  10.957  0.3098 -0.0373 -1.8804
  781MOL0     H 3036   3.100   7.730  11.086  1.5944  1.3291  0.3981
  781MOL0     H 3037   2.921   7.886  11.083 -2.4812  0.6159 -1.9020
  781MOL0     H 3038   2.950   7.947  10.921 -1.4775 -1.0017  0.0011
  781MOL0     H 3039   3.149   8.049  10.980  0.3963 -2.7098 -0.2611
  781MOL0     H 3040   3.149   7.961  11.139  0.3799  1.6032  0.3922
  781MOL0     H 3041   3.096   8.167  11.202 -0.2427  2.8465  0.7377
  781MOL0     H 3042   2.997   8.217  11.075 -1.1486  0.3280  1.3159
  781MOL0     H 3043   2.899   8.155  11.322 -0.1915 -1.6337  1.2286
  781MOL0     H 3044   2.904   7.995  11.269 -0.1052 -0.0422  0.5556
  781MOL0     H 3045   2.708   7.932  11.076  1.5706 -0.7083  3.1060
  781MOL0     H 3046   2.359   8.105  11.042  1.3586  1.3257  1.6563
  781MOL0     H 3047   2.425   7.945  10.980  1.3279 -0.0718 -1.9578
  781MOL0     H 3048   2.380   8.085  10.776  0.4586  3.6417 -1.3408
  781MOL0     H 3049   2.559   8.082  10.821 -0.1434 -0.3465 -0.6132
  781MOL0     H 3050   2.408   8.304  10.936 -3.6031 -2.7777 -0.9075
  781MOL0     H 3051   2.576   8.291  10.860  1.2380 -1.0714 -1.0223
  781MOL0     H 3052   2.317   8.289  10.711  1.4091 -3.1008  0.1447
  781MOL0     H 3053   2.475   8.308  10.641  1.3341 -0.0057  0.6137
  781MOL0     H 3054   2.370   8.481  10.513 -0.3687  0.3049  1.8544
  781MOL0     H 3055   2.156   8.586  10.399  0.5446  0.2224  0.4325
  781MOL0     H 3056   1.600   8.625  10.736  1.6138  0.7391  0.0044
  781MOL0     H 3057   1.397   8.740  10.734 -0.2673  1.0679  2.3804
  781MOL0     H 3058   1.336   9.055  10.411 -0.7208 -0.6931 -0.9503
  781MOL0     H 3059   1.289   9.126  10.554 -2.2106  0.2811 -1.1270
  781MOL0     H 3060   1.075   8.963  10.541 -1.3006  0.4513  0.2859
  781MOL0     H 3061   1.158   8.915  10.392  3.4924 -0.3245  1.9333
  781MOL0     H 3062   1.021   9.194  10.438  1.3208  1.0467 -1.9008
  781MOL0     H 3063   0.989   9.066  10.323 -1.2807 -0.0047  0.8786
  781MOL0     H 3064   1.240   9.247  10.325 -1.6102 -0.1212  0.1573
  781MOL0     H 3065   1.211   9.113  10.203 -0.9587 -0.6776 -0.9996
  781MOL0     H 3066   1.145   9.386  10.206  0.8825  0.2538  1.7451
  781MOL0     H 3067   0.988   9.316  10.249  0.5906 -1.0243  1.5094
  781MOL0     H 3068   0.975   9.180  10.052 -1.5033  1.2772  0.8767
  781MOL0     H 3069   1.145   9.233  10.012 -2.6821 -0.0582 -4.6657
  781MOL0     H 3070   0.885   9.385  10.043 -0.8765 -0.3277  1.0312
  781MOL0     H 3071   1.042   9.465  10.031 -1.3309 -0.9561  1.7614
  781MOL0     H 3072   0.901   9.310   9.811  0.1441  0.4029  1.0185
  781MOL0     H 3073   1.075   9.336   9.804  0.0016  0.1433 -0.6544
  781MOL0     H 3074   1.556   8.984  10.417  2.8174 -1.0205 -0.4341
  781MOL0     H 3075   1.759   8.871  10.420 -1.3007  1.1110  0.2661
  781MOL0     H 3076   2.009   8.653  10.801 -2.3323 -2.4944 -0.6573
  781MOL0     H 3077   2.205   8.573  10.882 -0.2539  2.0879 -0.0534
  781MOL0     H 3078   3.260   7.472  10.615 -0.3315 -1.4103 -0.6586
  781MOL0     H 3079   3.198   7.228  10.599 -0.6682 -1.6913  2.7997
  781MOL0     H 3080   3.137   6.771  10.901  0.3240 -4.4369  3.8086
  781MOL0     H 3081   3.120   6.532  10.852 -0.6298  0.4883 -1.5566
  781MOL0     H 3082   3.121   6.309  10.524  1.8373  0.7253 -0.4958
  781MOL0     H 3083   3.035   6.398  10.646  1.9651  2.4108 -1.6905
  781MOL0     H 3084   3.135   6.208  10.820 -0.1419  1.1127 -0.6413
  781MOL0     H 3085   3.024   6.152  10.687 -0.9725 -0.8951  0.2128
  781MOL0     H 3086   3.265   6.128  10.556  0.7962 -0.1019 -0.2262
  781MOL0     H 3087   3.162   6.011  10.643 -2.2305  0.7533  2.8081
  781MOL0     H 3088   3.404   6.156  10.764  2.5144 -2.0263  0.1123
  781MOL0     H 3089   3.302   6.027  10.827  1.7906 -4.1496 -0.9273
  781MOL0     H 3090   3.544   5.789  10.590  0.1840  0.4931 -1.1869
  781MOL0     H 3091   3.392   6.589  10.511  1.2187 -3.0171  2.0293
  781MOL0     H 3092   3.424   6.813  10.581  1.8062 -1.8748  1.3472
  782MOL0     O 3093   8.921  10.352   8.652  0.1431 -1.1042 -0.8250
  782MOL0     C 3094   8.902  10.422   8.755 -0.9600  0.3919 -0.1947
  782MOL0     O 3095   8.786  10.426   8.826  0.6928 -0.2504  0.4526
  782MOL0     C 3096   8.684  10.344   8.795  0.2552  0.2217 -1.0636
  782MOL0     C 3097   8.687  10.212   8.750  1.0962  0.6554 -0.7712
  782MOL0     C 3098   8.574  10.143   8.717  0.7218  0.8890 -0.0517
  782MOL0     C 3099   8.453  10.208   8.726 -0.1038 -0.8501 -1.1891
  782MOL0     O 3100   8.343  10.127   8.694 -0.6456  0.2324 -0.6609
  782MOL0     C 3101   8.228  10.184   8.651 -0.0413  0.2036 -1.2146
  782MOL0     C 3102   8.140  10.077   8.591 -0.5362 -0.4182 -0.0919
  782MOL0     C 3103   8.005  10.066   8.653  1.0139  0.3374 -0.9678
  782MOL0     C 3104   7.917  10.192   8.678  0.0560  0.6207  0.5426
  782MOL0     C 3105   7.768  10.157   8.699  0.8643  0.6128 -0.6325
  782MOL0     C 3106   7.734  10.099   8.839  0.4454  0.3795 -0.5658
  782MOL0     C 3107   7.592  10.053   8.870  0.4950  0.2209  0.6787
  782MOL0     C 3108   7.584   9.988   9.008  0.2218 -0.3005  0.7063
  782MOL0     N 3109   7.629  10.086   9.110  0.4269  0.1224 -0.4204
  782MOL0     C 3110   7.588  10.210   9.114 -0.5298 -0.4932 -0.4794
  782MOL0     C 3111   7.675  10.261   9.212  0.2311  0.4442  0.0959
  782MOL0     C 3112   7.646  10.389   9.287 -1.0766 -0.0163  0.7364
  782MOL0     C 3113   7.493  10.418   9.304  0.0823 -0.5269  0.5319
  782MOL0     C 3114   7.457  10.520   9.419  1.0018  0.5433  0.0451
  782MOL0     C 3115   7.462  10.450   9.554 -0.3382  0.3185  0.5503
  782MOL0     O 3116   7.602  10.423   9.595 -0.8655  0.5797  0.1622
  782MOL0     C 3117   7.658  10.518   9.666 -0.6323  0.5595  0.5653
  782MOL0     C 3118   7.748  10.458   9.761 -0.0891 -0.3836 -1.0098
  782MOL0     C 3119   7.812  10.540   9.856 -0.9386 -0.0754  0.2665
  782MOL0     C 3120   7.793  10.677   9.871 -0.3505 -0.9652 -0.0626
  782MOL0     C 3121   7.869  10.758   9.979  0.4457  0.0915 -0.3078
  782MOL0     O 3122   7.856  10.892   9.972 -0.2678 -0.9952  0.3931
  782MOL0     C 3123   7.911  10.968  10.066 -0.7029  0.2480 -0.4933
  782MOL0     C 3124   7.834  11.047  10.156  0.0186  0.5630 -0.2208
  782MOL0     C 3125   7.897  11.139  10.237 -0.2547  0.5567 -0.6845
  782MOL0     C 3126   8.034  11.154  10.252  0.2338  0.4790  0.1718
  782MOL0     O 3127   8.084  11.239  10.349 -0.1548  0.7807  0.4150
  782MOL0     C 3128   8.199  11.188  10.423  0.3446 -0.5059 -0.1409
  782MOL0     C 3129   8.297  11.305  10.443  0.1389  0.0333  0.4883
  782MOL0     C 3130   8.353  11.333  10.309  0.4839  0.4070 -0.7111
  782MOL0     C 3131   8.417  11.475  10.297  0.3034 -0.1008  0.4464
  782MOL0     C 3132   8.541  11.492  10.386 -0.1870 -0.2276  0.4305
  782MOL0     C 3133   8.531  11.596  10.497  0.2560  0.5453 -0.3066
  782MOL0     C 3134   8.662  11.605  10.566 -0.4346  0.2836  0.0230
  782MOL0     C 3135   8.663  11.734  10.653  0.5299  0.9078  0.5176
  782MOL0    Cl 3136   8.801  11.748  10.761  0.1944 -0.1115  0.3425
  782MOL0     C 3137   8.114  11.081  10.159  0.1560 -0.7300 -0.4259
  782MOL0     C 3138   8.052  10.991  10.067  0.5404 -0.5181  0.9833
  782MOL0     O 3139   7.919  10.697  10.070 -0.7523  0.1841  0.2758
  782MOL0     C 3140   7.705  10.733   9.774  0.8200  0.2009 -0.1656
  782MOL0     C 3141   7.634  10.658   9.675 -0.4233  0.5241  0.8482
  782MOL0     N 3142   7.781  10.186   9.233 -0.0527 -0.3037 -0.0769
  782MOL0     N 3143   7.751  10.068   9.176  0.5113 -0.3401  1.0267
  782MOL0     C 3144   8.439  10.341   8.761 -0.3854 -0.0918  0.0946
  782MOL0     C 3145   8.562  10.402   8.799  1.1179 -1.0162 -0.1629
  782MOL0     C 3146   9.008  10.500   8.820  0.4933 -0.6610  0.0293
  782MOL0     C 3147   9.143  10.488   8.793  0.4259  0.8929  0.1422
  782MOL0     C 3148   9.246  10.559   8.856  0.8371 -0.1209 -0.3418
  782MOL0     C 3149   9.207  10.650   8.944 -0.7126 -0.7644 -1.0189
  782MOL0     O 3150   9.310  10.711   9.010  0.4299  0.9329 -0.2100
  782MOL0     C 3151   9.298  10.851   9.048 -0.5352 -1.1983  0.9329
  782MOL0     C 3152   9.428  10.931   9.020 -0.7268 -0.2682  0.4989
  782MOL0     C 3153   9.488  10.911   8.880  0.3891  0.9923  0.3685
  782MOL0     C 3154   9.639  10.953   8.865  1.0590  0.0906 -0.2506
  782MOL0     C 3155   9.730  10.893   8.962  0.4632  0.6295 -0.2837
  782MOL0     C 3156   9.821  10.857   9.031  1.2924  0.2592 -0.0456
  782MOL0     C 3157   9.073  10.666   8.984 -0.0999 -0.4056  0.1651
  782MOL0     C 3158   8.970  10.598   8.911 -0.7379  0.6464 -0.0968
  782MOL0     H 3159   8.772  10.145   8.745 -0.0928 -1.8767  4.7756
  782MOL0     H 3160   8.584  10.036   8.700 -0.0137  0.6354  1.0211
  782MOL0     H 3161   8.248  10.255   8.570 -1.0131  1.4669 -0.4010
  782MOL0     H 3162   8.187  10.233   8.740  2.7020 -0.9304  0.7978
  782MOL0     H 3163   8.185   9.981   8.621  0.4303 -0.1829 -0.7508
  782MOL0     H 3164   8.136  10.081   8.482  2.1799 -0.8370 -0.2777
  782MOL0     H 3165   8.014  10.031   8.756  1.3488  1.8735 -0.4397
  782MOL0     H 3166   7.939   9.995   8.604  2.6274 -0.4314 -2.1094
  782MOL0     H 3167   7.964  10.235   8.767 -0.8211 -1.2502  1.9757
  782MOL0     H 3168   7.918  10.265   8.597 -3.1723 -1.2276 -1.3629
  782MOL0     H 3169   7.743  10.074   8.633  4.6945 -1.2149 -0.0896
  782MOL0     H 3170   7.705  10.244   8.680 -1.9682 -0.5743  2.3280
  782MOL0     H 3171   7.759  10.174   8.914 -4.0272  3.4665 -1.7304
  782MOL0     H 3172   7.797  10.010   8.846 -0.6663 -0.3521  0.7732
  782MOL0     H 3173   7.533  10.145   8.871  0.5593  0.3738  4.4591
  782MOL0     H 3174   7.555   9.984   8.793  2.0708 -1.6639  1.5215
  782MOL0     H 3175   7.636   9.892   9.010 -1.5177 -1.3813 -1.3346
  782MOL0     H 3176   7.477   9.972   9.028 -0.9659  0.4441 -3.8939
  782MOL0     H 3177   7.498  10.261   9.081 -0.1422  0.2854 -0.3444
  782MOL0     H 3178   7.684  10.468   9.222 -2.0696  0.4703  0.7346
  782MOL0     H 3179   7.701  10.392   9.382 -0.9634 -2.9074  0.8494
  782MOL0     H 3180   7.436  10.325   9.311 -1.8901  0.5585 -0.2929
  782MOL0     H 3181   7.468  10.476   9.214 -0.0407 -0.7097  0.4491
  782MOL0     H 3182   7.504  10.619   9.426 -0.8407  2.0489 -4.5091
  782MOL0     H 3183   7.355  10.548   9.392 -0.1662 -1.1677  2.4120
  782MOL0     H 3184   7.408  10.355   9.549 -1.3892  0.7092  2.9444
  782MOL0     H 3185   7.420  10.515   9.631  0.4826  0.5815  0.7847
  782MOL0     H 3186   7.762  10.351   9.758 -1.5846 -0.7676  2.1043
  782MOL0     H 3187   7.878  10.484   9.920  1.4631 -0.8439 -2.6442
  782MOL0     H 3188   7.725  11.041  10.150  0.0521  1.0692 -1.8722
  782MOL0     H 3189   7.837  11.189  10.312  0.1846 -2.7609  2.1226
  782MOL0     H 3190   8.256  11.109  10.374 -0.3634 -1.6117  0.7661
  782MOL0     H 3191   8.173  11.147  10.521  0.6203 -0.4741 -0.0541
  782MOL0     H 3192   8.375  11.273  10.513 -1.6423 -0.4559  2.3807
  782MOL0     H 3193   8.251  11.401  10.467 -2.9889 -0.4160 -2.8987
  782MOL0     H 3194   8.276  11.333  10.232  1.3268 -1.0742 -1.6122
  782MOL0     H 3195   8.418  11.250  10.279 -1.9905 -2.0384  0.2281
  782MOL0     H 3196   8.431  11.496  10.191  2.9482 -1.2075  0.5045
  782MOL0     H 3197   8.350  11.557  10.328  0.3039 -0.4105  1.3076
  782MOL0     H 3198   8.626  11.510  10.320  1.7290 -3.4771  1.8355
  782MOL0     H 3199   8.552  11.395  10.434  1.0911 -0.3967 -0.1694
  782MOL0     H 3200   8.461  11.563  10.575  1.3936 -0.4907  0.3250
  782MOL0     H 3201   8.486  11.691  10.468 -2.5587 -0.7082 -0.3749
  782MOL0     H 3202   8.680  11.514  10.624 -1.0640  0.4147  0.4335
  782MOL0     H 3203   8.742  11.620  10.493  0.5952  2.0551  1.4085
  782MOL0     H 3204   8.573  11.722  10.714 -1.2839  0.7085 -2.0293
  782MOL0     H 3205   8.662  11.826  10.594  0.6552 -1.4867 -3.5724
  782MOL0     H 3206   8.221  11.097  10.165  0.6522 -3.6123 -0.3633
  782MOL0     H 3207   8.126  10.943  10.003  0.7949  1.9100 -0.7030
  782MOL0     H 3208   7.694  10.841   9.776 -3.7769 -0.0633 -0.2726
  782MOL0     H 3209   7.569  10.716   9.610  1.7658  1.7325 -0.4062
  782MOL0     H 3210   8.344  10.388   8.784  0.2821  0.3211  2.3055
  782MOL0     H 3211   8.562  10.506   8.831 -1.4500 -1.1940  0.6366
  782MOL0     H 3212   9.161  10.407   8.724  4.1370  0.8662  0.9194
  782MOL0     H 3213   9.348  10.535   8.830  0.6186  0.2054 -1.5325
  782MOL0     H 3214   9.262  10.860   9.151  0.5820  1.7890  1.1462
  782MOL0     H 3215   9.214  10.891   8.991  1.4551  1.5292 -0.2697
  782MOL0     H 3216   9.400  11.037   9.030  0.9133  0.4480 -1.7865
  782MOL0     H 3217   9.498  10.899   9.097  1.1383  1.0276 -0.5692
  782MOL0     H 3218   9.435  10.956   8.796  2.3120  0.3029 -1.2848
  782MOL0     H 3219   9.487  10.803   8.860  0.1476  0.6103  2.2383
  782MOL0     H 3220   9.670  10.930   8.762 -3.1694 -2.2953 -1.2267
  782MOL0     H 3221   9.635  11.061   8.876  0.3134  0.1024 -0.5780
  782MOL0     H 3222   9.908  10.838   9.090  1.6238 -0.5897 -0.7848
  782MOL0     H 3223   9.053  10.722   9.075  1.0673 -2.2033  1.5992
  782MOL0     H 3224   8.865  10.611   8.933 -1.0998 -1.6237 -0.2064
  783MOL0     O 3225  10.814   6.596   4.879 -0.3045 -0.6872  0.0593
  783MOL0     C 3226  10.871   6.531   4.966 -0.2873 -0.2726 -0.8138
  783MOL0     O 3227  11.006   6.525   4.984  0.7735 -0.7268 -0.6298
  783MOL0     C 3228  11.084   6.529   4.875 -0.3464 -0.8921  0.4182
  783MOL0     C 3229  11.056   6.453   4.758 -0.6789  0.8929 -0.5633
  783MOL0     C 3230  11.151   6.425   4.658 -0.8877 -0.3673 -0.3962
  783MOL0     C 3231  11.281   6.470   4.673 -0.3574  0.6055  0.6426
  783MOL0     O 3232  11.392   6.453   4.601  0.1509  0.0846  0.4016
  783MOL0     C 3233  11.369   6.383   4.479  0.0012  0.5870  0.3274
  783MOL0     C 3234  11.331   6.479   4.368 -0.3569  0.2269 -0.5431
  783MOL0     C 3235  11.422   6.599   4.348 -0.6208  0.2486  0.1370
  783MOL0     C 3236  11.352   6.702   4.256 -0.0940 -0.2944  0.6187
  783MOL0     C 3237  11.450   6.815   4.222  0.0658 -0.3115  0.3612
  783MOL0     C 3238  11.402   6.942   4.160 -0.4791 -0.9152  0.3834
  783MOL0     C 3239  11.277   6.925   4.070  0.4628 -0.7348 -0.5310
  783MOL0     C 3240  11.213   7.061   4.017 -0.7079 -1.0451  0.4031
  783MOL0     N 3241  11.206   7.163   4.123  0.3988 -0.9521 -0.2589
  783MOL0     C 3242  11.138   7.171   4.241  0.2120  0.3328 -1.4714
  783MOL0     C 3243  11.207   7.263   4.307 -0.3946  1.0400 -0.0481
  783MOL0     C 3244  11.177   7.274   4.453  0.6558  0.1651  0.0490
  783MOL0     C 3245  11.220   7.423   4.500 -0.1750 -0.7387  0.2118
  783MOL0     C 3246  11.122   7.525   4.468  0.4474 -0.1653 -0.7051
  783MOL0     C 3247  11.109   7.567   4.329  0.5224 -0.4087  0.0890
  783MOL0     O 3248  11.050   7.691   4.333  0.1673  0.0099 -0.3641
  783MOL0     C 3249  11.025   7.769   4.229 -0.0615 -0.3402 -1.0260
  783MOL0     C 3250  10.939   7.877   4.237  0.2234 -0.1870 -0.1504
  783MOL0     C 3251  10.926   7.978   4.141 -0.1164 -0.5510 -0.3395
  783MOL0     C 3252  10.999   7.961   4.029 -0.6615 -0.0522 -0.3065
  783MOL0     C 3253  10.983   8.058   3.923  0.0570  1.3154 -0.1817
  783MOL0     O 3254  10.930   8.005   3.807 -0.1091  0.3712  0.2864
  783MOL0     C 3255  10.932   8.074   3.689  0.5403 -0.4173 -0.6333
  783MOL0     C 3256  10.812   8.141   3.657 -0.5810  0.6946  0.4276
  783MOL0     C 3257  10.810   8.205   3.527  0.9411  0.6148 -0.4740
  783MOL0     C 3258  10.910   8.190   3.434  0.6668 -0.2954  0.6767
  783MOL0     O 3259  10.873   8.245   3.314 -1.0108 -0.1931 -1.1468
  783MOL0     C 3260  10.974   8.257   3.218 -0.1777  1.0335  0.2235
  783MOL0     C 3261  10.917   8.347   3.105 -0.9522  0.0629  0.0111
  783MOL0     C 3262  10.799   8.281   3.039  0.0301 -0.5461  0.6575
  783MOL0     C 3263  10.770   8.346   2.900  0.0358  0.0624 -0.5938
  783MOL0     C 3264  10.636   8.309   2.842 -0.0398  0.9584  0.5667
  783MOL0     C 3265  10.518   8.368   2.905 -0.7736 -0.4713  0.1173
  783MOL0     C 3266  10.394   8.337   2.821  0.5341 -0.2084  0.0774
  783MOL0     C 3267  10.265   8.349   2.894 -0.7910 -0.5082 -1.0492
  783MOL0    Cl 3268  10.236   8.512   2.967  0.0469  0.0344  0.4109
  783MOL0     C 3269  11.024   8.117   3.473 -0.4941 -0.7872  0.6596
  783MOL0     C 3270  11.033   8.059   3.600 -0.4526  0.1776  0.0117
  783MOL0     O 3271  11.020   8.171   3.939 -0.1525 -0.0105 -0.2478
  783MOL0     C 3272  11.076   7.849   4.003  0.1561  0.2550  0.4561
  783MOL0     C 3273  11.088   7.752   4.109 -0.9447  0.4757  0.6550
  783MOL0     N 3274  11.285   7.339   4.220 -0.0341 -1.0296  0.5404
  783MOL0     N 3275  11.293   7.274   4.106  0.4232 -0.6742 -1.0782
  783MOL0     C 3276  11.314   6.549   4.783  0.3777  0.6679 -0.1270
  783MOL0     C 3277  11.214   6.568   4.885 -0.1910 -0.2825 -0.4445
  783MOL0     C 3278  10.789   6.457   5.067 -0.9969  0.5220  0.3486
  783MOL0     C 3279  10.847   6.356   5.142 -0.3495  0.4543  1.1808
  783MOL0     C 3280  10.773   6.287   5.240  0.5117 -0.0345  0.7141
  783MOL0     C 3281  10.645   6.319   5.275  0.1430 -0.0550  0.0514
  783MOL0     O 3282  10.555   6.271   5.358 -0.2842  0.1555 -0.4822
  783MOL0     C 3283  10.595   6.163   5.442  0.9712  0.9989 -0.6675
  783MOL0     C 3284  10.567   6.034   5.367 -0.1256 -0.8599 -0.3142
  783MOL0     C 3285  10.607   5.904   5.448 -0.0846 -0.4457 -0.4040
  783MOL0     C 3286  10.755   5.876   5.451 -1.0681  0.9819 -0.8915
  783MOL0     C 3287  10.773   5.764   5.536 -0.0739  0.5568  0.4143
  783MOL0     C 3288  10.790   5.665   5.601 -0.2037 -0.6591  1.2226
  783MOL0     C 3289  10.590   6.428   5.202  0.1691  0.3020 -0.5746
  783MOL0     C 3290  10.656   6.503   5.105 -0.3816  0.0146 -0.4441
  783MOL0     H 3291  10.960   6.403   4.752  0.8647 -2.6556  1.0731
  783MOL0     H 3292  11.129   6.360   4.574  4.3149 -2.3554 -0.5692
  783MOL0     H 3293  11.306   6.294   4.481 -0.2416  0.7138 -0.9148
  783MOL0     H 3294  11.470   6.346   4.459  0.1791  0.8712  0.6782
  783MOL0     H 3295  11.229   6.518   4.376  0.2361  1.5154  1.9811
  783MOL0     H 3296  11.331   6.425   4.273  1.2565 -1.3321  0.2886
  783MOL0     H 3297  11.514   6.556   4.308  0.4644  2.8863 -0.4595
  783MOL0     H 3298  11.449   6.661   4.434  0.2206  1.1169 -0.7266
  783MOL0     H 3299  11.324   6.650   4.165 -0.5584  1.1835 -0.1198
  783MOL0     H 3300  11.263   6.737   4.309  0.2725  1.3302  0.2278
  783MOL0     H 3301  11.509   6.779   4.137 -2.0247 -0.1777 -1.2230
  783MOL0     H 3302  11.528   6.839   4.296  1.2390  3.2614 -1.7668
  783MOL0     H 3303  11.481   6.982   4.095 -2.1538  2.2008  0.0611
  783MOL0     H 3304  11.383   7.024   4.230  5.2815  2.2087 -1.0988
  783MOL0     H 3305  11.309   6.860   3.989 -1.2976 -2.5801  0.1781
  783MOL0     H 3306  11.201   6.866   4.121  1.1655 -2.0361 -0.9590
  783MOL0     H 3307  11.110   7.037   3.990 -0.3998 -1.6648 -0.2590
  783MOL0     H 3308  11.270   7.103   3.934  0.9404 -2.8323  0.5613
  783MOL0     H 3309  11.072   7.090   4.271  1.2218 -0.6202 -1.7489
  783MOL0     H 3310  11.242   7.199   4.499  0.7453 -0.1253 -0.5428
  783MOL0     H 3311  11.076   7.247   4.484  1.5430 -2.6567  0.7541
  783MOL0     H 3312  11.311   7.448   4.445 -0.7560 -3.0304 -2.0122
  783MOL0     H 3313  11.236   7.430   4.608 -0.2388  1.0768  0.1303
  783MOL0     H 3314  11.027   7.489   4.507  0.3743  1.0569  0.2934
  783MOL0     H 3315  11.152   7.616   4.521  1.9196 -0.6610 -0.6333
  783MOL0     H 3316  11.036   7.503   4.278  1.3017  0.7260 -2.6689
  783MOL0     H 3317  11.199   7.570   4.267  0.3413  0.6209 -0.1490
  783MOL0     H 3318  10.891   7.891   4.333 -0.0713 -0.9478 -0.1763
  783MOL0     H 3319  10.855   8.059   4.159  1.3112  0.5079  0.7782
  783MOL0     H 3320  10.734   8.137   3.731 -1.3686  0.7815 -0.3807
  783MOL0     H 3321  10.724   8.264   3.496  1.7301  0.3150 -3.6092
  783MOL0     H 3322  11.005   8.162   3.174  0.6229  2.0191 -1.4241
  783MOL0     H 3323  11.066   8.301   3.259 -1.7839  3.2565  1.6844
  783MOL0     H 3324  10.990   8.351   3.023 -3.1752  0.5259 -2.0763
  783MOL0     H 3325  10.911   8.450   3.138  2.0199  0.4687 -0.3731
  783MOL0     H 3326  10.716   8.295   3.108  0.2756  0.3529  0.7861
  783MOL0     H 3327  10.814   8.173   3.036  0.0116 -0.5289 -0.7469
  783MOL0     H 3328  10.779   8.454   2.916 -1.0702  0.0601  0.1316
  783MOL0     H 3329  10.848   8.318   2.828  0.6509  0.5545 -0.1326
  783MOL0     H 3330  10.617   8.201   2.841 -0.1996  0.9829 -0.7807
  783MOL0     H 3331  10.636   8.341   2.737  2.0501 -0.3846  0.0849
  783MOL0     H 3332  10.534   8.476   2.909 -0.2733 -0.5520  0.4181
  783MOL0     H 3333  10.512   8.317   3.002  0.8291 -1.6524 -0.3705
  783MOL0     H 3334  10.394   8.407   2.737  0.0453 -0.0500  0.2056
  783MOL0     H 3335  10.399   8.237   2.777 -0.1645 -0.9416  1.5659
  783MOL0     H 3336  10.268   8.277   2.976 -1.2977  1.0370  0.3700
  783MOL0     H 3337  10.176   8.327   2.834 -2.3123  2.8662 -0.2778
  783MOL0     H 3338  11.110   8.107   3.408 -0.5475  0.8261  0.2952
  783MOL0     H 3339  11.122   7.999   3.619  1.4585  1.6029 -3.5766
  783MOL0     H 3340  11.130   7.838   3.909 -1.0002 -0.9897 -0.0899
  783MOL0     H 3341  11.155   7.669   4.090 -1.1607  0.5124 -0.2989
  783MOL0     H 3342  11.416   6.585   4.796 -0.2219  1.9519  1.3524
  783MOL0     H 3343  11.258   6.625   4.967  2.7951  2.3676 -3.5849
  783MOL0     H 3344  10.953   6.337   5.124 -1.0758 -0.8380 -2.3994
  783MOL0     H 3345  10.833   6.213   5.292  2.6963  1.5144  0.5728
  783MOL0     H 3346  10.533   6.168   5.532 -0.3537 -3.0007 -1.1563
  783MOL0     H 3347  10.699   6.157   5.476 -0.1283  0.1127  2.9244
  783MOL0     H 3348  10.459   6.027   5.351 -0.5790  1.3468  1.2716
  783MOL0     H 3349  10.622   6.043   5.273  2.4409 -0.4804  1.1460
  783MOL0     H 3350  10.551   5.824   5.399 -1.3876  0.7067 -0.8867
  783MOL0     H 3351  10.563   5.913   5.548  2.3559  0.3964  0.6609
  783MOL0     H 3352  10.793   5.866   5.349  0.9273  0.8582 -0.1987
  783MOL0     H 3353  10.803   5.966   5.493 -0.5496  0.3238 -0.0399
  783MOL0     H 3354  10.823   5.577   5.653  2.0427  0.1563  1.2962
  783MOL0     H 3355  10.494   6.460   5.240  1.0832  2.7384 -0.1243
  783MOL0     H 3356  10.611   6.581   5.044  0.3553 -1.1681 -2.6247
  784MOL0     O 3357   8.144   4.183   5.459  0.2694  0.0247  0.1743
  784MOL0     C 3358   8.129   4.139   5.573  0.8022  0.5541  0.5986
  784MOL0     O 3359   8.227   4.121   5.664  0.0321 -0.0274  0.2372
  784MOL0     C 3360   8.353   4.173   5.638 -0.0384  1.0285  0.9317
  784MOL0     C 3361   8.432   4.093   5.560 -0.1640 -0.3689  0.6071
  784MOL0     C 3362   8.557   4.143   5.520 -0.0655  0.1307  0.1450
  784MOL0     C 3363   8.599   4.270   5.558  0.3325 -0.3104  0.2650
  784MOL0     O 3364   8.723   4.317   5.521  0.2238  0.7223  0.2058
  784MOL0     C 3365   8.779   4.299   5.394 -0.8339 -0.1939 -0.7741
  784MOL0     C 3366   8.920   4.370   5.407 -0.5408 -0.8539  0.2313
  784MOL0     C 3367   9.022   4.297   5.502  0.7575  0.1178  0.1325
  784MOL0     C 3368   9.169   4.317   5.481 -0.1572  0.4790 -0.0388
  784MOL0     C 3369   9.253   4.195   5.462 -0.6735 -0.9058 -0.0072
  784MOL0     C 3370   9.243   4.158   5.313  0.6092 -0.3866  0.0024
  784MOL0     C 3371   9.111   4.118   5.255 -0.0948 -0.7858 -0.1346
  784MOL0     C 3372   9.051   3.983   5.316 -0.5026 -0.2378  0.7300
  784MOL0     N 3373   9.139   3.862   5.286  0.0820  0.4612 -0.3051
  784MOL0     C 3374   9.151   3.791   5.165  0.2948  0.5506 -0.6642
  784MOL0     C 3375   9.266   3.722   5.169  0.5750 -0.3462  0.2018
  784MOL0     C 3376   9.307   3.624   5.064  0.1044 -0.1334 -0.4794
  784MOL0     C 3377   9.453   3.588   5.096  0.6223  0.0427 -0.1549
  784MOL0     C 3378   9.558   3.705   5.096 -0.3668 -0.0663 -0.6661
  784MOL0     C 3379   9.648   3.699   5.227 -0.5584  0.2759 -0.4951
  784MOL0     O 3380   9.727   3.820   5.231 -0.6117 -0.5595  0.7178
  784MOL0     C 3381   9.852   3.830   5.270 -0.0470 -0.4763  0.0722
  784MOL0     C 3382   9.890   3.762   5.379  0.1168 -0.0850 -0.0311
  784MOL0     C 3383  10.021   3.774   5.431 -0.1101 -0.4883 -0.2910
  784MOL0     C 3384  10.125   3.830   5.359 -0.3535  0.5540  0.1899
  784MOL0     C 3385  10.269   3.813   5.394  0.6032  0.1021  0.2858
  784MOL0     O 3386  10.353   3.875   5.300  0.0517 -0.0946  0.2175
  784MOL0     C 3387  10.489   3.871   5.315  0.3373 -0.4235 -0.0268
  784MOL0     C 3388  10.568   3.994   5.284 -0.7653  0.4946 -0.4471
  784MOL0     C 3389  10.705   3.996   5.309 -0.5320 -0.2168  1.5106
  784MOL0     C 3390  10.770   3.873   5.341 -1.0182 -2.2492 -0.0009
  784MOL0     O 3391  10.915   3.890   5.334  0.2017 -0.1280 -0.5348
  784MOL0     C 3392  10.980   3.761   5.349 -1.0273 -0.1159 -0.7302
  784MOL0     C 3393  11.129   3.787   5.326 -0.4138  0.1460 -0.8300
  784MOL0     C 3394  11.162   3.823   5.189  0.0458  0.2710  0.7665
  784MOL0     C 3395  11.320   3.846   5.164  0.3398 -0.1732  0.5894
  784MOL0     C 3396  11.387   3.936   5.271 -0.6687 -0.7629  0.6318
  784MOL0     C 3397  11.543   3.963   5.238 -0.3185 -0.3882 -0.3686
  784MOL0     C 3398  11.598   4.055   5.344  0.4250  0.4977  0.1742
  784MOL0     C 3399  11.602   4.001   5.492 -1.2968  0.0014  0.5002
  784MOL0    Cl 3400  11.594   4.120   5.620 -0.5235 -0.2654 -0.3012
  784MOL0     C 3401  10.698   3.763   5.363  0.3925 -0.1853  0.8029
  784MOL0     C 3402  10.562   3.756   5.342  0.7777 -0.2565 -0.2108
  784MOL0     O 3403  10.305   3.755   5.497  0.9119  0.1295  0.2832
  784MOL0     C 3404  10.083   3.901   5.242  0.8276 -0.4486 -0.3097
  784MOL0     C 3405   9.952   3.898   5.199  0.2295 -0.7060  0.4460
  784MOL0     N 3406   9.316   3.750   5.288  0.3321  0.0981  0.2816
  784MOL0     N 3407   9.240   3.825   5.364  1.1284 -0.3921  0.5645
  784MOL0     C 3408   8.515   4.345   5.647  0.3812 -0.1055  0.2725
  784MOL0     C 3409   8.394   4.296   5.678  0.1645 -0.4687 -0.9096
  784MOL0     C 3410   7.991   4.096   5.605  0.3283  1.3824  0.8338
  784MOL0     C 3411   7.959   4.054   5.732  0.3060  1.3423  0.2522
  784MOL0     C 3412   7.824   4.026   5.767 -0.2332  0.5610  0.2764
  784MOL0     C 3413   7.718   4.037   5.676 -1.7116 -0.5111 -0.3677
  784MOL0     O 3414   7.599   3.996   5.732 -0.6897 -0.4601  0.6678
  784MOL0     C 3415   7.575   3.854   5.722 -1.1213 -0.0789 -0.8507
  784MOL0     C 3416   7.427   3.828   5.738  0.2652 -0.4404  0.2430
  784MOL0     C 3417   7.361   3.866   5.870  0.1144 -0.1741  0.3666
  784MOL0     C 3418   7.405   3.776   5.989  0.0374  0.0772 -0.7391
  784MOL0     C 3419   7.363   3.639   5.991 -0.1508 -0.5641  0.2348
  784MOL0     C 3420   7.318   3.528   5.982  0.5495  1.1891  0.0778
  784MOL0     C 3421   7.745   4.089   5.548 -0.0325  0.9265 -0.4260
  784MOL0     C 3422   7.879   4.121   5.516 -0.2484  0.3557  0.5303
  784MOL0     H 3423   8.396   3.994   5.534  2.1525 -1.7072  2.1674
  784MOL0     H 3424   8.621   4.069   5.473  0.1491  0.6453 -0.3971
  784MOL0     H 3425   8.723   4.347   5.313 -0.0272 -1.7677 -2.3544
  784MOL0     H 3426   8.796   4.193   5.372 -0.5076 -0.5208  0.9545
  784MOL0     H 3427   8.903   4.477   5.423  0.5133 -0.4403 -1.2091
  784MOL0     H 3428   8.955   4.376   5.303 -3.2913 -1.7090 -0.8544
  784MOL0     H 3429   8.993   4.192   5.512  3.0462 -0.6559 -0.7738
  784MOL0     H 3430   9.000   4.335   5.602  1.6724 -1.4161  0.9426
  784MOL0     H 3431   9.189   4.396   5.409  2.1675  0.7888  0.8808
  784MOL0     H 3432   9.203   4.352   5.579  0.7598  0.8291 -0.4764
  784MOL0     H 3433   9.227   4.111   5.527  0.0729 -0.2842  1.1361
  784MOL0     H 3434   9.352   4.228   5.495 -0.9555 -1.5504  1.5876
  784MOL0     H 3435   9.302   4.067   5.303  1.5647  0.2794 -0.4834
  784MOL0     H 3436   9.276   4.242   5.252  2.2325 -1.3637 -0.5152
  784MOL0     H 3437   9.037   4.196   5.238  1.1405  0.2618 -0.9594
  784MOL0     H 3438   9.138   4.083   5.155 -0.8647 -1.6142 -0.0596
  784MOL0     H 3439   8.959   3.958   5.261  2.0919  0.2221 -4.4915
  784MOL0     H 3440   9.035   3.990   5.424 -1.7638 -2.2961  0.7400
  784MOL0     H 3441   9.081   3.789   5.082 -1.1764  0.9732  0.5187
  784MOL0     H 3442   9.300   3.675   4.968 -0.9493 -2.0007 -1.4634
  784MOL0     H 3443   9.241   3.536   5.062  1.6695 -1.4530  1.4525
  784MOL0     H 3444   9.487   3.515   5.022  2.1882 -2.4220  2.7189
  784MOL0     H 3445   9.458   3.536   5.193 -2.2318 -1.0250 -0.4816
  784MOL0     H 3446   9.615   3.711   5.003  1.8011  0.1383  0.6026
  784MOL0     H 3447   9.516   3.805   5.113  2.0531  1.0287 -0.8058
  784MOL0     H 3448   9.710   3.610   5.214  0.8587  1.3050 -1.1512
  784MOL0     H 3449   9.580   3.700   5.313  0.8599 -3.5320  0.8954
  784MOL0     H 3450   9.807   3.720   5.437 -0.6437 -4.6256 -3.7599
  784MOL0     H 3451  10.042   3.715   5.520 -2.5224 -1.8636 -0.5484
  784MOL0     H 3452  10.520   4.085   5.249  3.2456  3.0623  0.0814
  784MOL0     H 3453  10.762   4.088   5.314 -0.4861 -0.2364  1.3662
  784MOL0     H 3454  10.948   3.685   5.277 -2.6197 -1.4786  1.3254
  784MOL0     H 3455  10.969   3.712   5.446  0.8395 -2.1771 -1.4817
  784MOL0     H 3456  11.188   3.699   5.355  0.3247  1.8127  3.4449
  784MOL0     H 3457  11.156   3.855   5.407 -1.1360  1.3922 -1.6081
  784MOL0     H 3458  11.129   3.925   5.168  0.3152  0.1702 -0.2198
  784MOL0     H 3459  11.112   3.762   5.112 -0.9280 -1.3874  2.6240
  784MOL0     H 3460  11.378   3.753   5.170  1.4832  0.4394 -0.4795
  784MOL0     H 3461  11.329   3.888   5.063 -2.2292 -0.2547  0.2721
  784MOL0     H 3462  11.376   3.875   5.361  2.0280 -3.3538 -0.6220
  784MOL0     H 3463  11.339   4.034   5.278  2.0185  0.5268  3.5703
  784MOL0     H 3464  11.556   4.022   5.147  3.5256  0.6546  0.6880
  784MOL0     H 3465  11.595   3.867   5.226  1.8386  0.4604  1.4747
  784MOL0     H 3466  11.693   4.096   5.309 -2.0205  4.3319 -2.7507
  784MOL0     H 3467  11.539   4.147   5.336 -1.5224 -0.7030 -0.0100
  784MOL0     H 3468  11.691   3.940   5.505 -0.0355  1.8625  1.0407
  784MOL0     H 3469  11.515   3.937   5.512 -0.6074 -0.5460  1.8127
  784MOL0     H 3470  10.741   3.670   5.398 -1.3640 -2.6297 -2.9569
  784MOL0     H 3471  10.517   3.657   5.337 -1.8213  0.9015 -2.0230
  784MOL0     H 3472  10.157   3.950   5.180  0.5279 -2.4237 -2.3740
  784MOL0     H 3473   9.919   3.940   5.105 -3.9779 -3.1531  0.6227
  784MOL0     H 3474   8.540   4.446   5.679 -2.1618  0.4133  0.8072
  784MOL0     H 3475   8.322   4.350   5.738  0.6973  0.1839 -0.8421
  784MOL0     H 3476   8.036   4.021   5.801 -0.7277  0.0738  0.8504
  784MOL0     H 3477   7.801   3.981   5.863  2.5596 -0.0622  0.7442
  784MOL0     H 3478   7.625   3.812   5.810  3.2069  2.0141 -2.0554
  784MOL0     H 3479   7.627   3.804   5.640  1.9480  0.0813  0.8325
  784MOL0     H 3480   7.385   3.871   5.647  1.1568 -1.9849 -0.9566
  784MOL0     H 3481   7.416   3.721   5.719  0.4555 -0.9390  2.6189
  784MOL0     H 3482   7.254   3.861   5.849  0.1031 -1.7538  0.6480
  784MOL0     H 3483   7.386   3.970   5.892  0.0932  0.7486 -3.3174
  784MOL0     H 3484   7.512   3.797   6.002 -0.3860  3.0956 -1.4521
  784MOL0     H 3485   7.351   3.827   6.069  2.1123 -0.9835  1.4935
  784MOL0     H 3486   7.274   3.431   5.973 -1.0701  1.9560 -0.6891
  784MOL0     H 3487   7.656   4.098   5.487 -1.9717 -3.4732  1.3010
  784MOL0     H 3488   7.894   4.168   5.419 -2.0278 -1.2510 -0.5925
  785MOL0     O 3489   7.947   1.768   0.203  0.4864 -0.5788 -0.3436
  785MOL0     C 3490   7.989   1.772   0.088 -0.2340  0.6603 -0.9249
  785MOL0     O 3491   7.912   1.722  -0.018  0.8240  0.3097  0.1077
  785MOL0     C 3492   7.795   1.664   0.033 -0.9609 -0.4165  0.3343
  785MOL0     C 3493   7.785   1.528   0.063  0.6341  0.2533  0.4741
  785MOL0     C 3494   7.680   1.473   0.133 -0.1063 -0.4509  0.3484
  785MOL0     C 3495   7.574   1.553   0.178 -0.1226  0.5093 -0.5100
  785MOL0     O 3496   7.473   1.492   0.251 -0.5610 -0.5742 -0.8206
  785MOL0     C 3497   7.356   1.472   0.181  0.2535  0.3788  0.1503
  785MOL0     C 3498   7.249   1.580   0.220  0.4062 -0.0444 -0.4432
  785MOL0     C 3499   7.181   1.542   0.357  0.5512  0.6297 -0.8454
  785MOL0     C 3500   7.062   1.643   0.382 -0.3075  0.1362  0.4147
  785MOL0     C 3501   6.935   1.586   0.311  0.1579 -0.3343  0.2823
  785MOL0     C 3502   6.818   1.686   0.300  0.6338 -0.4092 -0.6694
  785MOL0     C 3503   6.701   1.634   0.211 -0.6832  0.0147 -0.5848
  785MOL0     C 3504   6.578   1.731   0.219 -0.2637 -0.5656  0.4906
  785MOL0     N 3505   6.456   1.677   0.168  0.6375  0.5956  0.1960
  785MOL0     C 3506   6.416   1.707   0.048 -0.0441  0.2715  0.3016
  785MOL0     C 3507   6.307   1.627   0.014  0.2843 -0.5098 -0.6738
  785MOL0     C 3508   6.218   1.629  -0.113 -0.4764 -0.7480  0.1397
  785MOL0     C 3509   6.075   1.662  -0.079  0.1018 -0.4732  0.8002
  785MOL0     C 3510   6.061   1.808  -0.021 -0.9935 -0.2613  0.4724
  785MOL0     C 3511   5.920   1.842   0.010 -0.1987 -0.6853 -0.1209
  785MOL0     O 3512   5.919   1.951   0.099  0.9763  0.1939 -0.0325
  785MOL0     C 3513   5.803   1.995   0.150 -0.0306  0.8812 -0.2906
  785MOL0     C 3514   5.826   2.094   0.238  0.8852  0.1149  0.0312
  785MOL0     C 3515   5.713   2.129   0.322  0.6987  1.2600 -1.0017
  785MOL0     C 3516   5.579   2.092   0.299 -0.1554  0.3764 -1.1971
  785MOL0     C 3517   5.454   2.141   0.376  0.7032 -0.1912 -0.3107
  785MOL0     O 3518   5.479   2.239   0.478 -0.1571 -0.3845  0.0196
  785MOL0     C 3519   5.383   2.269   0.569 -0.1346 -0.2720  0.0873
  785MOL0     C 3520   5.295   2.181   0.626 -0.1316 -0.5772  0.4599
  785MOL0     C 3521   5.214   2.223   0.730 -0.4860  0.6355 -0.5249
  785MOL0     C 3522   5.193   2.353   0.767 -0.6916  0.7243  0.0788
  785MOL0     O 3523   5.129   2.388   0.885  0.6866 -0.9491 -0.7073
  785MOL0     C 3524   5.105   2.302   0.992  0.7508  0.7059 -0.5854
  785MOL0     C 3525   5.027   2.386   1.100 -0.4054  1.4246  0.4913
  785MOL0     C 3526   4.954   2.301   1.205  0.5278 -0.2344  0.0756
  785MOL0     C 3527   4.862   2.399   1.289 -0.7230  0.7020  0.9678
  785MOL0     C 3528   4.792   2.320   1.395 -0.9495  0.1729  0.0729
  785MOL0     C 3529   4.677   2.233   1.349  0.6449  0.5438  0.3237
  785MOL0     C 3530   4.615   2.156   1.469  0.7862  0.7468 -0.0027
  785MOL0     C 3531   4.539   2.222   1.578  0.1383 -0.4553  0.4103
  785MOL0    Cl 3532   4.492   2.101   1.697 -0.3534  0.2867 -0.3255
  785MOL0     C 3533   5.279   2.453   0.708  0.6060  0.3124 -0.1246
  785MOL0     C 3534   5.370   2.410   0.612 -0.2069  0.3257  0.5522
  785MOL0     O 3535   5.343   2.089   0.351  0.0892 -0.6691 -0.2131
  785MOL0     C 3536   5.565   2.002   0.197 -0.9586  1.1885  0.5127
  785MOL0     C 3537   5.673   1.954   0.127 -0.6677  0.2729  0.7818
  785MOL0     N 3538   6.282   1.559   0.134  0.2343 -0.3115  0.2697
  785MOL0     N 3539   6.369   1.591   0.228  0.0117  0.1876 -0.3951
  785MOL0     C 3540   7.579   1.686   0.146  0.5807 -0.3319 -0.4088
  785MOL0     C 3541   7.684   1.744   0.069 -0.4087  0.6249 -0.5787
  785MOL0     C 3542   8.119   1.831   0.050  0.8075 -0.7486  0.8686
  785MOL0     C 3543   8.186   1.913   0.139 -1.5046 -0.3949  0.0108
  785MOL0     C 3544   8.297   1.984   0.082 -0.7219  0.1861  0.5581
  785MOL0     C 3545   8.341   1.980  -0.055  0.8855  0.6773 -0.8707
  785MOL0     O 3546   8.444   2.050  -0.114  0.2223 -0.3850 -0.7476
  785MOL0     C 3547   8.544   2.110  -0.023 -0.1220 -0.4186  0.6952
  785MOL0     C 3548   8.664   2.176  -0.096 -0.6734 -0.3050  0.0376
  785MOL0     C 3549   8.778   2.235  -0.021 -0.6634 -0.4494 -0.5573
  785MOL0     C 3550   8.863   2.159   0.076  0.2151 -0.6189 -0.5411
  785MOL0     C 3551   8.904   2.030   0.029 -1.1849  0.0890 -0.4353
  785MOL0     C 3552   8.947   1.924  -0.011  0.5526 -0.6495 -0.0254
  785MOL0     C 3553   8.276   1.885  -0.133  0.3862 -1.2867 -0.3873
  785MOL0     C 3554   8.160   1.825  -0.087 -0.2781 -0.7714  0.0879
  785MOL0     H 3555   7.861   1.457   0.030 -0.6580 -0.7604 -0.4737
  785MOL0     H 3556   7.671   1.365   0.142 -2.3506 -0.3002  0.5274
  785MOL0     H 3557   7.309   1.376   0.201 -1.4431 -0.0537 -4.5984
  785MOL0     H 3558   7.384   1.477   0.075 -0.4146  0.9606 -0.0047
  785MOL0     H 3559   7.165   1.586   0.151 -4.2572 -1.6129  4.3892
  785MOL0     H 3560   7.278   1.685   0.229 -0.1214  0.0866 -0.2045
  785MOL0     H 3561   7.244   1.544   0.446 -2.7547  0.6087  1.6827
  785MOL0     H 3562   7.142   1.440   0.360 -0.7886  1.1526  0.5176
  785MOL0     H 3563   7.047   1.648   0.491 -1.5646  0.2650  0.2494
  785MOL0     H 3564   7.089   1.742   0.344  0.0167 -0.3108 -0.5515
  785MOL0     H 3565   6.903   1.498   0.369 -0.7660  1.6479  3.0131
  785MOL0     H 3566   6.956   1.557   0.208 -0.8585  4.5738 -1.5450
  785MOL0     H 3567   6.848   1.782   0.257  0.9404 -0.1729  0.0535
  785MOL0     H 3568   6.789   1.692   0.405 -1.9976  0.0146 -1.3579
  785MOL0     H 3569   6.731   1.635   0.106 -0.6199  0.5675 -0.5634
  785MOL0     H 3570   6.675   1.533   0.244  0.3975  0.3168  1.2990
  785MOL0     H 3571   6.611   1.825   0.174 -0.7429 -1.2574 -1.4234
  785MOL0     H 3572   6.561   1.765   0.321  0.1317 -1.3696  0.8355
  785MOL0     H 3573   6.459   1.773  -0.027  0.4112  0.4285  0.6927
  785MOL0     H 3574   6.218   1.529  -0.157 -3.3540 -0.8576  0.1726
  785MOL0     H 3575   6.243   1.701  -0.192  1.6160 -1.9313 -0.3369
  785MOL0     H 3576   6.029   1.596  -0.006 -0.0850  0.0288  1.1395
  785MOL0     H 3577   6.015   1.675  -0.170  0.5727  3.0659  0.8419
  785MOL0     H 3578   6.125   1.825   0.066  1.5895 -0.2769 -1.2925
  785MOL0     H 3579   6.107   1.872  -0.098 -0.8922  0.3307  1.0171
  785MOL0     H 3580   5.860   1.763   0.056  0.0940 -0.3352  0.8858
  785MOL0     H 3581   5.867   1.865  -0.083 -0.9998 -1.5585  0.1034
  785MOL0     H 3582   5.925   2.135   0.258  0.1269  3.1381 -1.6576
  785MOL0     H 3583   5.740   2.194   0.405  0.8990 -1.0273  0.8419
  785MOL0     H 3584   5.287   2.078   0.594 -2.0249  0.1361 -1.7052
  785MOL0     H 3585   5.155   2.150   0.783  0.7378  0.7263  1.0304
  785MOL0     H 3586   5.198   2.264   1.037 -0.8050  1.1134  3.3293
  785MOL0     H 3587   5.042   2.220   0.956  1.3883  0.0916 -0.3423
  785MOL0     H 3588   4.949   2.431   1.037  0.5557  0.3089 -1.6279
  785MOL0     H 3589   5.078   2.474   1.139 -2.3899  2.5089  0.7576
  785MOL0     H 3590   5.036   2.264   1.268  1.8636 -1.2034 -2.1133
  785MOL0     H 3591   4.903   2.213   1.166  1.7227 -0.9336  0.0282
  785MOL0     H 3592   4.927   2.473   1.337  0.5278 -0.8369  1.7157
  785MOL0     H 3593   4.806   2.455   1.213  2.5762  0.9490 -1.5353
  785MOL0     H 3594   4.755   2.383   1.477 -0.9951 -0.5953  0.6517
  785MOL0     H 3595   4.870   2.260   1.441 -0.8200  0.1945 -0.1166
  785MOL0     H 3596   4.706   2.150   1.284  3.4482  0.1937  1.8225
  785MOL0     H 3597   4.608   2.293   1.289 -1.0054  0.6535  2.2278
  785MOL0     H 3598   4.536   2.095   1.424  0.2404  0.3155  1.4930
  785MOL0     H 3599   4.680   2.078   1.511 -2.1700 -3.0246 -1.7789
  785MOL0     H 3600   4.447   2.272   1.546  1.4562 -0.2261 -3.4512
  785MOL0     H 3601   4.601   2.302   1.619 -2.8278  2.9047 -1.1718
  785MOL0     H 3602   5.254   2.557   0.725 -0.8815  0.3774 -2.3820
  785MOL0     H 3603   5.431   2.489   0.570  1.4744 -1.5484 -0.7518
  785MOL0     H 3604   5.471   1.962   0.161  0.0657 -0.7160 -0.1605
  785MOL0     H 3605   5.659   1.884   0.045  1.5900  1.8011 -1.0301
  785MOL0     H 3606   7.502   1.756   0.178  2.7235  2.0727 -0.1710
  785MOL0     H 3607   7.684   1.848   0.040  2.7582  0.9548  0.2081
  785MOL0     H 3608   8.150   1.947   0.236  0.2629  1.3724  0.1211
  785MOL0     H 3609   8.353   2.063   0.131  2.7760 -0.6984 -1.6396
  785MOL0     H 3610   8.589   2.047   0.054  3.7672 -0.1761 -1.1485
  785MOL0     H 3611   8.497   2.196   0.025  0.5834  0.2356  0.2275
  785MOL0     H 3612   8.702   2.097  -0.162 -0.0880 -1.0924  1.2699
  785MOL0     H 3613   8.625   2.248  -0.168 -0.3165 -0.3662 -0.2235
  785MOL0     H 3614   8.748   2.324   0.034  1.2695  0.5752 -1.0679
  785MOL0     H 3615   8.855   2.268  -0.092 -0.1847 -1.4513 -0.5197
  785MOL0     H 3616   8.944   2.213   0.124  0.5327 -0.1871 -1.5445
  785MOL0     H 3617   8.801   2.137   0.164  0.8852 -3.0208 -0.5929
  785MOL0     H 3618   8.983   1.827  -0.041  0.3855 -0.1350 -2.0187
  785MOL0     H 3619   8.299   1.861  -0.236 -0.8378  1.1074 -1.2960
  785MOL0     H 3620   8.114   1.760  -0.161  2.1928 -0.4350 -1.8781
  786MOL0     O 3621   9.671   7.321   3.318  0.3009  0.0365  0.7833
  786MOL0     C 3622   9.746   7.335   3.415 -0.3238 -0.1324 -0.1375
  786MOL0     O 3623   9.809   7.449   3.452 -0.1937  0.1201 -0.5733
  786MOL0     C 3624   9.788   7.562   3.384 -0.1238  0.3358 -0.0399
  786MOL0     C 3625   9.659   7.600   3.338  0.6803 -0.7343  0.0392
  786MOL0     C 3626   9.635   7.728   3.299  0.0089  0.0058 -0.5204
  786MOL0     C 3627   9.730   7.828   3.320 -0.3129 -0.0025 -0.0495
  786MOL0     O 3628   9.707   7.961   3.312 -0.1800  0.7073  0.2653
  786MOL0     C 3629   9.594   8.000   3.239  1.0845  0.0450 -1.1122
  786MOL0     C 3630   9.448   8.001   3.301  0.7694 -0.0983 -1.3658
  786MOL0     C 3631   9.347   8.070   3.206  0.4361  0.2221 -0.2231
  786MOL0     C 3632   9.202   8.096   3.268  0.2668  0.7503 -1.2258
  786MOL0     C 3633   9.126   7.969   3.302 -0.1655 -0.0428  0.1980
  786MOL0     C 3634   9.032   8.008   3.424 -0.2280  0.1850  0.4740
  786MOL0     C 3635   8.938   7.887   3.448 -0.9359  0.3812  0.4244
  786MOL0     C 3636   8.844   7.912   3.561  0.4603 -0.3850  0.4751
  786MOL0     N 3637   8.736   7.815   3.590  0.0431  0.0450  0.0376
  786MOL0     C 3638   8.603   7.832   3.545 -0.3540  0.5685  0.6377
  786MOL0     C 3639   8.533   7.725   3.579  0.3770  1.0388  0.1398
  786MOL0     C 3640   8.389   7.695   3.559  0.2508 -0.7932  0.8755
  786MOL0     C 3641   8.355   7.687   3.412  0.0521 -0.8176 -0.0339
  786MOL0     C 3642   8.400   7.558   3.344  0.4561  0.3290  0.4499
  786MOL0     C 3643   8.545   7.558   3.293 -0.2077 -0.0748 -0.1652
  786MOL0     O 3644   8.565   7.514   3.153 -0.7638  0.0433 -0.6207
  786MOL0     C 3645   8.570   7.615   3.059  0.3571 -0.7366  0.4788
  786MOL0     C 3646   8.578   7.570   2.927 -1.0135  0.1991  0.3563
  786MOL0     C 3647   8.569   7.658   2.813 -0.1201  0.0589 -0.5173
  786MOL0     C 3648   8.554   7.798   2.835 -0.1117  0.3876 -0.6876
  786MOL0     C 3649   8.524   7.889   2.737 -0.1185 -0.0157  1.4048
  786MOL0     O 3650   8.452   8.001   2.765 -0.6578  0.2061 -0.0217
  786MOL0     C 3651   8.456   8.091   2.665 -0.3012  0.2180 -0.1891
  786MOL0     C 3652   8.576   8.147   2.612 -0.6017  0.0494 -0.1401
  786MOL0     C 3653   8.579   8.258   2.525  0.6972  0.9787  0.0932
  786MOL0     C 3654   8.450   8.295   2.472  0.1257  0.0197 -0.4207
  786MOL0     O 3655   8.452   8.393   2.380 -0.4274 -0.2669 -0.2703
  786MOL0     C 3656   8.405   8.351   2.253 -0.0466 -1.0158  0.1938
  786MOL0     C 3657   8.425   8.465   2.144  0.8079  0.2731  0.4213
  786MOL0     C 3658   8.566   8.474   2.088 -0.3015  0.0039 -0.3307
  786MOL0     C 3659   8.599   8.600   2.007  0.1497 -1.2402 -0.9245
  786MOL0     C 3660   8.527   8.617   1.874 -0.0109 -0.0929  1.2269
  786MOL0     C 3661   8.569   8.512   1.764  0.7954 -1.2519 -0.0452
  786MOL0     C 3662   8.475   8.524   1.641  0.9081  0.0786  0.4885
  786MOL0     C 3663   8.510   8.428   1.522  0.6443 -0.0340  0.0652
  786MOL0    Cl 3664   8.545   8.513   1.358  0.0229 -0.2463  0.1238
  786MOL0     C 3665   8.334   8.236   2.529  0.0776 -1.2898 -0.6339
  786MOL0     C 3666   8.335   8.134   2.629  0.6275 -0.2493  0.0973
  786MOL0     O 3667   8.560   7.860   2.621  0.0986 -0.2898  0.0381
  786MOL0     C 3668   8.550   7.838   2.972  0.2895 -0.0229 -0.6801
  786MOL0     C 3669   8.559   7.756   3.081 -0.5191 -0.2162 -0.1417
  786MOL0     N 3670   8.617   7.644   3.653 -0.6014  0.2125 -0.2762
  786MOL0     N 3671   8.732   7.698   3.661 -0.4421  0.1173 -0.4367
  786MOL0     C 3672   9.860   7.787   3.352 -0.6360  0.5147 -0.9415
  786MOL0     C 3673   9.893   7.658   3.388  0.1057 -0.4503 -0.3211
  786MOL0     C 3674   9.778   7.210   3.498 -1.3687 -1.4988 -0.2196
  786MOL0     C 3675   9.842   7.232   3.621  0.1865  0.5688  0.1045
  786MOL0     C 3676   9.850   7.130   3.710 -0.3252 -0.4960  0.2958
  786MOL0     C 3677   9.795   7.002   3.687  0.4672 -0.0592 -0.6426
  786MOL0     O 3678   9.808   6.917   3.793 -0.2468  0.6503 -0.3773
  786MOL0     C 3679   9.749   6.789   3.775  0.1792 -0.0747 -0.1680
  786MOL0     C 3680   9.770   6.702   3.900  0.6226  0.3066  0.3119
  786MOL0     C 3681   9.709   6.745   4.026  0.0318 -0.0685 -0.9644
  786MOL0     C 3682   9.757   6.642   4.137  1.1782 -0.0712 -0.3968
  786MOL0     C 3683   9.891   6.665   4.195  0.3449  1.3921 -0.2136
  786MOL0     C 3684   9.986   6.672   4.264  0.3986  0.8941  1.1053
  786MOL0     C 3685   9.727   6.984   3.569 -0.5138  1.1486  0.7501
  786MOL0     C 3686   9.721   7.089   3.476 -0.2147 -0.5397  0.0547
  786MOL0     H 3687   9.580   7.527   3.350  0.0728 -0.4524 -1.8686
  786MOL0     H 3688   9.531   7.748   3.277 -0.0002 -0.9657 -1.4630
  786MOL0     H 3689   9.599   7.949   3.142  3.6936  0.7866 -1.4336
  786MOL0     H 3690   9.613   8.106   3.220  0.8270  0.8224  2.3327
  786MOL0     H 3691   9.451   8.063   3.391  3.1882 -0.8713 -0.8404
  786MOL0     H 3692   9.412   7.901   3.326  1.2404  0.2850  1.1538
  786MOL0     H 3693   9.338   7.994   3.128  1.4105  0.1692 -0.2971
  786MOL0     H 3694   9.378   8.169   3.171 -2.0746  0.2989 -2.5359
  786MOL0     H 3695   9.219   8.145   3.365 -1.0322  1.1916 -1.1988
  786MOL0     H 3696   9.138   8.160   3.207  0.8351  2.5642 -0.0057
  786MOL0     H 3697   9.195   7.887   3.327 -1.7194 -1.8114 -0.9853
  786MOL0     H 3698   9.069   7.928   3.218 -1.1964 -2.5797  1.9780
  786MOL0     H 3699   8.967   8.087   3.383 -0.3652 -1.7764 -3.5755
  786MOL0     H 3700   9.092   8.019   3.514 -0.2221 -5.1119  1.4323
  786MOL0     H 3701   8.884   7.871   3.355  1.3098 -0.7859 -0.7597
  786MOL0     H 3702   9.002   7.803   3.476 -1.2086  0.2933  0.7864
  786MOL0     H 3703   8.800   8.007   3.531 -0.4862 -0.9084  0.1827
  786MOL0     H 3704   8.905   7.924   3.652  3.8360 -2.4391 -1.3049
  786MOL0     H 3705   8.580   7.922   3.489  1.0839  1.4301  1.4014
  786MOL0     H 3706   8.341   7.775   3.616 -4.2951 -2.9071  0.5142
  786MOL0     H 3707   8.370   7.605   3.618  1.2647 -2.0600 -0.6425
  786MOL0     H 3708   8.398   7.780   3.372 -2.2419  0.6507  0.7416
  786MOL0     H 3709   8.251   7.710   3.389  0.8136  2.0581 -1.0065
  786MOL0     H 3710   8.380   7.472   3.409 -0.3420 -0.7820 -1.1992
  786MOL0     H 3711   8.331   7.542   3.260  1.0053  1.5712 -0.2536
  786MOL0     H 3712   8.599   7.483   3.351  0.7460 -0.8107 -1.9436
  786MOL0     H 3713   8.596   7.653   3.313  0.1829 -0.6318  1.6564
  786MOL0     H 3714   8.592   7.464   2.909  0.4277  0.4308 -0.0577
  786MOL0     H 3715   8.567   7.614   2.714 -0.3940  0.6484 -0.7799
  786MOL0     H 3716   8.661   8.109   2.666 -0.9348  2.2026  2.0604
  786MOL0     H 3717   8.672   8.308   2.499  1.5584 -0.9374 -0.7201
  786MOL0     H 3718   8.297   8.337   2.263  0.0999 -1.3105  1.4490
  786MOL0     H 3719   8.449   8.258   2.216 -0.5041 -0.1645 -2.7478
  786MOL0     H 3720   8.393   8.563   2.181 -2.4285  0.5796 -2.6561
  786MOL0     H 3721   8.360   8.461   2.056  1.3382 -0.6226  0.0620
  786MOL0     H 3722   8.576   8.394   2.014 -2.0181 -0.5822  0.0307
  786MOL0     H 3723   8.636   8.469   2.172 -0.6278  1.9183  0.1030
  786MOL0     H 3724   8.579   8.684   2.074 -1.7560 -0.9473 -1.7906
  786MOL0     H 3725   8.707   8.608   1.991  0.3824 -2.8988 -0.2931
  786MOL0     H 3726   8.561   8.714   1.837 -1.3470 -0.2306 -0.4867
  786MOL0     H 3727   8.418   8.623   1.877  0.0155  1.9460  0.1296
  786MOL0     H 3728   8.566   8.416   1.817 -2.0231  0.4243  3.1698
  786MOL0     H 3729   8.672   8.534   1.736  0.7252  2.1608  1.9115
  786MOL0     H 3730   8.369   8.510   1.664  0.6200 -0.4639 -1.0485
  786MOL0     H 3731   8.491   8.626   1.604 -0.2255  0.1692  0.1845
  786MOL0     H 3732   8.419   8.367   1.521  0.9635 -0.5124 -0.5820
  786MOL0     H 3733   8.591   8.358   1.543  1.2664 -0.4140 -3.0620
  786MOL0     H 3734   8.239   8.269   2.487  0.6746 -1.7658 -2.4420
  786MOL0     H 3735   8.253   8.117   2.698  1.7794  3.9383  2.8456
  786MOL0     H 3736   8.540   7.944   2.994 -3.9632 -0.6606  1.6408
  786MOL0     H 3737   8.562   7.807   3.177  0.3284  0.2184 -0.3859
  786MOL0     H 3738   9.937   7.862   3.366  2.1321 -2.3316  0.3724
  786MOL0     H 3739   9.990   7.635   3.429  0.0792 -2.6546 -1.3314
  786MOL0     H 3740   9.898   7.323   3.639  1.3822 -0.2552  0.7133
  786MOL0     H 3741   9.898   7.164   3.802 -1.8414  1.9838  0.2627
  786MOL0     H 3742   9.794   6.745   3.686 -2.1668 -0.1071 -1.4093
  786MOL0     H 3743   9.642   6.801   3.754  0.0838  3.0422  1.4212
  786MOL0     H 3744   9.736   6.599   3.886 -0.7026  0.9359 -1.4976
  786MOL0     H 3745   9.878   6.696   3.915  0.6953 -0.2798 -0.3801
  786MOL0     H 3746   9.600   6.747   4.015 -0.0607 -1.7799 -0.6373
  786MOL0     H 3747   9.738   6.847   4.054  0.5730 -0.5544  0.3061
  786MOL0     H 3748   9.685   6.649   4.219  1.9910  0.5165  0.2724
  786MOL0     H 3749   9.751   6.539   4.101  3.2165  0.2617 -1.8851
  786MOL0     H 3750  10.065   6.672   4.336  1.0745  2.4401  0.4129
  786MOL0     H 3751   9.682   6.888   3.545  1.9905 -0.3459  1.6081
  786MOL0     H 3752   9.677   7.073   3.379  0.1465  0.3933 -0.2783
  787MOL0     O 3753  10.599  10.104  10.801  0.1462  0.1972 -0.8744
  787MOL0     C 3754  10.642  10.143  10.909 -0.3109 -1.2376  0.4018
  787MOL0     O 3755  10.779  10.163  10.936  1.6249  0.4152 -0.5333
  787MOL0     C 3756  10.871  10.090  10.863 -0.0300 -0.3997  0.0588
  787MOL0     C 3757  10.853   9.955  10.854 -0.2376 -0.2844  0.3018
  787MOL0     C 3758  10.957   9.883  10.792 -0.0766  0.3879 -0.3078
  787MOL0     C 3759  11.064   9.950  10.728 -0.6140  0.6507  0.1092
  787MOL0     O 3760  11.170   9.898  10.660  0.4401 -0.4201 -0.0752
  787MOL0     C 3761  11.218   9.771  10.712 -0.2900 -0.3048  0.4041
  787MOL0     C 3762  11.334   9.721  10.621  0.4036 -0.1709  0.5369
  787MOL0     C 3763  11.456   9.823  10.610  0.1876 -0.3649  0.1644
  787MOL0     C 3764  11.540   9.786  10.492  0.1710  0.5098 -0.3488
  787MOL0     C 3765  11.659   9.869  10.478  0.0546  1.1231  0.9481
  787MOL0     C 3766  11.774   9.847  10.370  0.4835  0.7944  0.4319
  787MOL0     C 3767  11.825   9.701  10.364  0.4620  0.3505 -0.0140
  787MOL0     C 3768  11.974   9.680  10.323  0.0452 -0.1349 -0.9257
  787MOL0     N 3769  12.030   9.550  10.346 -0.4119 -0.2500 -0.5980
  787MOL0     C 3770  12.050   9.486  10.465  0.0715 -0.0527  0.0204
  787MOL0     C 3771  12.103   9.363  10.431 -0.5883 -0.7000  0.2041
  787MOL0     C 3772  12.120   9.253  10.531 -0.1634 -0.1272 -0.4903
  787MOL0     C 3773  12.021   9.142  10.531  1.1122  0.3853 -0.7505
  787MOL0     C 3774  11.985   9.089  10.668 -0.5838 -0.4876 -0.2615
  787MOL0     C 3775  11.911   8.966  10.655  0.4787  0.2722  1.0532
  787MOL0     O 3776  12.000   8.865  10.614  0.5094 -0.9948 -0.4081
  787MOL0     C 3777  12.073   8.783  10.692  0.0473  0.3006  0.7416
  787MOL0     C 3778  12.073   8.782  10.837 -0.1112 -0.1528 -0.5686
  787MOL0     C 3779  12.132   8.683  10.908 -0.0648  0.3667 -0.4914
  787MOL0     C 3780  12.201   8.576  10.844  0.2208 -1.3426 -0.1886
  787MOL0     C 3781  12.271   8.477  10.923 -0.4601 -0.9400 -0.9367
  787MOL0     O 3782  12.241   8.463  11.059  0.2764  0.4508 -0.8095
  787MOL0     C 3783  12.305   8.370  11.137  0.8990 -0.6579 -0.4219
  787MOL0     C 3784  12.340   8.240  11.093  0.4057 -0.2269 -0.2631
  787MOL0     C 3785  12.408   8.150  11.168  0.2415 -0.0633 -1.0262
  787MOL0     C 3786  12.428   8.183  11.307 -0.0220 -0.0123 -1.4380
  787MOL0     O 3787  12.485   8.108  11.405 -0.1852 -0.3175 -0.5552
  787MOL0     C 3788  12.536   7.982  11.371  0.1700  0.6222  0.2542
  787MOL0     C 3789  12.679   7.977  11.312  0.2247 -0.0512  0.1999
  787MOL0     C 3790  12.771   8.104  11.345  1.0184  1.0305 -0.8188
  787MOL0     C 3791  12.919   8.086  11.307  0.0535 -1.0032 -0.4242
  787MOL0     C 3792  12.995   7.981  11.392  0.9447 -0.0861  0.5505
  787MOL0     C 3793  13.122   7.930  11.327 -1.4189 -0.8631 -0.4398
  787MOL0     C 3794  13.093   7.841  11.211  0.2220 -0.2902  0.5484
  787MOL0     C 3795  13.227   7.811  11.134  1.0002  0.5280 -0.7652
  787MOL0    Cl 3796  13.289   7.971  11.075 -0.1157 -0.1640 -0.6532
  787MOL0     C 3797  12.375   8.305  11.357  0.5329 -0.4494  0.3725
  787MOL0     C 3798  12.323   8.391  11.271  0.2816  0.1204 -0.7225
  787MOL0     O 3799  12.347   8.402  10.866 -0.2147  0.4151  0.5025
  787MOL0     C 3800  12.197   8.580  10.704 -0.7551 -0.8608 -0.3058
  787MOL0     C 3801  12.135   8.675  10.628  0.7602  0.6174 -0.7972
  787MOL0     N 3802  12.105   9.367  10.290 -0.0094 -0.2901 -0.2563
  787MOL0     N 3803  12.058   9.467  10.242 -0.4585  0.3567  0.0011
  787MOL0     C 3804  11.084  10.081  10.745  0.0472  0.2330 -0.6381
  787MOL0     C 3805  10.998  10.154  10.817  0.0100  0.5083 -0.0202
  787MOL0     C 3806  10.546  10.196  11.010  0.5682  0.5346 -0.2612
  787MOL0     C 3807  10.420  10.235  10.971  0.3602 -0.6911 -0.3991
  787MOL0     C 3808  10.330  10.271  11.073  0.4858  0.1016 -0.0219
  787MOL0     C 3809  10.366  10.271  11.207  0.7626  1.1594 -0.3407
  787MOL0     O 3810  10.290  10.305  11.314  0.1148 -0.0611  0.4626
  787MOL0     C 3811  10.146  10.299  11.309 -0.0126  0.0213 -0.3680
  787MOL0     C 3812  10.072  10.426  11.352  0.0232 -0.2024  0.2661
  787MOL0     C 3813  10.170  10.545  11.328  1.3322 -0.3344 -0.1603
  787MOL0     C 3814  10.155  10.597  11.175  0.2111 -0.4262  0.2972
  787MOL0     C 3815  10.236  10.717  11.180  0.3383  0.3797  0.8788
  787MOL0     C 3816  10.276  10.831  11.166 -0.0776  0.8167  0.2380
  787MOL0     C 3817  10.503  10.249  11.245 -0.2332 -0.0629 -0.4969
  787MOL0     C 3818  10.584  10.216  11.143  0.4029 -0.2448 -0.9041
  787MOL0     H 3819  10.763   9.914  10.898  0.8097 -4.5474 -0.9859
  787MOL0     H 3820  10.956   9.775  10.783  2.3793  0.2711  0.1957
  787MOL0     H 3821  11.148   9.686  10.709  2.4299 -2.7033 -3.4893
  787MOL0     H 3822  11.261   9.790  10.811  0.6141  1.6410 -0.3092
  787MOL0     H 3823  11.277   9.712  10.529 -0.7054 -0.7575  1.2491
  787MOL0     H 3824  11.357   9.622  10.662  1.1071 -0.1724  0.1434
  787MOL0     H 3825  11.500   9.824  10.710  1.0283 -0.3924 -0.1995
  787MOL0     H 3826  11.432   9.927  10.589  1.2492 -0.4266 -1.4906
  787MOL0     H 3827  11.564   9.680  10.504  0.9172  0.6807 -0.2998
  787MOL0     H 3828  11.484   9.780  10.398  1.1195 -4.1524 -0.8715
  787MOL0     H 3829  11.699   9.854  10.578 -0.7875  0.9365  1.2669
  787MOL0     H 3830  11.630   9.974  10.471  0.3223  1.1727  0.5670
  787MOL0     H 3831  11.857   9.916  10.384 -1.6288  3.7310 -0.5349
  787MOL0     H 3832  11.734   9.860  10.269 -2.5726  0.0828  1.4272
  787MOL0     H 3833  11.809   9.662  10.465  0.6661  2.0592  0.7212
  787MOL0     H 3834  11.769   9.647  10.287 -1.7859  0.6195  1.3141
  787MOL0     H 3835  12.022   9.739  10.402 -2.5058 -0.3378  0.9349
  787MOL0     H 3836  11.988   9.713  10.220  1.1359 -1.2892 -1.1674
  787MOL0     H 3837  12.017   9.528  10.560  2.9603  0.4402  0.9040
  787MOL0     H 3838  12.110   9.303  10.628 -2.7055 -1.0746 -0.2047
  787MOL0     H 3839  12.221   9.212  10.535  1.0442  2.7127  1.6383
  787MOL0     H 3840  12.079   9.066  10.477 -0.1592 -1.2617  0.1314
  787MOL0     H 3841  11.936   9.176  10.471  1.6976  0.3708 -1.6060
  787MOL0     H 3842  12.071   9.073  10.734 -1.5399 -1.6567  0.7474
  787MOL0     H 3843  11.921   9.167  10.710 -0.5126 -0.9805  0.7856
  787MOL0     H 3844  11.826   8.967  10.587 -1.0764 -0.3778  2.8820
  787MOL0     H 3845  11.863   8.941  10.750  0.8643  0.0256  1.1891
  787MOL0     H 3846  12.046   8.868  10.898 -1.8237  0.1921 -1.7493
  787MOL0     H 3847  12.123   8.704  11.014  0.1770  3.1433 -0.9505
  787MOL0     H 3848  12.319   8.212  10.990  0.4795  1.1995 -0.6975
  787MOL0     H 3849  12.444   8.056  11.127  0.3270  0.8330 -3.1937
  787MOL0     H 3850  12.469   7.930  11.302  1.3548 -0.1299 -0.3684
  787MOL0     H 3851  12.548   7.933  11.468 -1.4561  2.7362  1.5862
  787MOL0     H 3852  12.681   7.972  11.203 -3.3664  1.7307 -0.0811
  787MOL0     H 3853  12.732   7.891  11.355  0.1917 -0.0005  0.3409
  787MOL0     H 3854  12.776   8.123  11.453  2.2434  2.2796 -1.0802
  787MOL0     H 3855  12.730   8.194  11.298 -0.4460  2.1248  2.2529
  787MOL0     H 3856  12.938   8.067  11.201  0.4925 -1.7083 -0.2236
  787MOL0     H 3857  12.962   8.184  11.331 -1.8730 -0.2655  0.2668
  787MOL0     H 3858  12.929   7.898  11.419  2.1146 -1.4533 -0.6388
  787MOL0     H 3859  13.024   8.023  11.489  1.5296  0.0019  0.3392
  787MOL0     H 3860  13.188   7.878  11.397 -2.1576  0.5379  1.4049
  787MOL0     H 3861  13.183   8.016  11.298 -0.5377 -1.0358  0.8002
  787MOL0     H 3862  13.049   7.746  11.240  1.6038 -0.4927  2.0925
  787MOL0     H 3863  13.031   7.892  11.136  2.1257  0.1788 -0.7788
  787MOL0     H 3864  13.206   7.757  11.042 -2.2845  0.3145 -0.0011
  787MOL0     H 3865  13.302   7.748  11.183  0.7136  0.2129 -0.7316
  787MOL0     H 3866  12.383   8.321  11.464  2.2504 -0.5873  0.2965
  787MOL0     H 3867  12.293   8.486  11.314 -0.8848 -0.4529 -0.2388
  787MOL0     H 3868  12.255   8.500  10.658 -0.2126  1.2030 -3.5019
  787MOL0     H 3869  12.134   8.661  10.520  1.1383 -0.6591 -0.6512
  787MOL0     H 3870  11.180  10.119  10.709 -0.9722 -0.0092 -3.9845
  787MOL0     H 3871  11.041  10.250  10.845  1.6424 -0.5145  1.1064
  787MOL0     H 3872  10.394  10.227  10.866  1.0753  2.1320 -0.8576
  787MOL0     H 3873  10.227  10.284  11.042 -0.0665 -0.0174  1.6916
  787MOL0     H 3874  10.114  10.209  11.362 -0.1615  0.0501 -0.4073
  787MOL0     H 3875  10.121  10.262  11.209  1.0951  2.3661 -1.6070
  787MOL0     H 3876   9.987  10.443  11.285  0.5575 -2.7567 -1.1704
  787MOL0     H 3877  10.045  10.438  11.457  0.1136  5.1242 -0.0322
  787MOL0     H 3878  10.276  10.535  11.352  1.7612  1.4160 -1.1242
  787MOL0     H 3879  10.132  10.620  11.399 -3.1104 -1.3532 -1.1295
  787MOL0     H 3880  10.202  10.535  11.099  1.0990  1.3848 -0.6849
  787MOL0     H 3881  10.052  10.614  11.143 -0.1316 -1.3608  0.8319
  787MOL0     H 3882  10.306  10.933  11.151 -2.1149  1.6138  1.1501
  787MOL0     H 3883  10.522  10.251  11.352  1.4759  1.3593 -0.7792
  787MOL0     H 3884  10.690  10.207  11.164  0.1776 -2.7361 -0.5431
  788MOL0     O 3885   3.343   0.414  10.432  0.0155  0.5041  0.5152
  788MOL0     C 3886   3.377   0.352  10.332  0.5695  0.0121  0.2968
  788MOL0     O 3887   3.352   0.391  10.205  0.4734 -0.6007 -0.4202
  788MOL0     C 3888   3.259   0.488  10.166 -0.2836 -0.3561 -0.1027
  788MOL0     C 3889   3.270   0.520  10.031 -0.4762 -0.1549  0.9384
  788MOL0     C 3890   3.176   0.607   9.979 -0.1029 -0.4821  0.5620
  788MOL0     C 3891   3.075   0.667  10.056 -0.0061  0.0572  0.2706
  788MOL0     O 3892   2.983   0.753  10.010  0.0525 -0.3235  0.6372
  788MOL0     C 3893   2.912   0.723   9.884 -0.7224 -0.0240  0.2176
  788MOL0     C 3894   2.793   0.821   9.872  0.3310  0.6783 -0.7171
  788MOL0     C 3895   2.714   0.838   9.994  0.7283  0.7203 -0.5869
  788MOL0     C 3896   2.567   0.885   9.967  0.1740 -0.2088  0.1494
  788MOL0     C 3897   2.488   0.876  10.105 -0.4130  0.1711 -0.4322
  788MOL0     C 3898   2.341   0.909  10.106  0.0904 -0.3650  0.3472
  788MOL0     C 3899   2.299   1.030  10.025 -0.1547  0.5410  0.1003
  788MOL0     C 3900   2.367   1.159  10.063  0.5941  0.6210  0.0873
  788MOL0     N 3901   2.280   1.268  10.039  0.1492 -0.8507 -1.1641
  788MOL0     C 3902   2.192   1.314  10.127 -0.3993  0.4317  0.0887
  788MOL0     C 3903   2.109   1.402  10.063  0.1081 -1.1142 -0.4006
  788MOL0     C 3904   1.985   1.465  10.119 -0.0136 -0.5127 -0.3257
  788MOL0     C 3905   1.874   1.362  10.100  0.1812  0.4750 -0.2050
  788MOL0     C 3906   1.734   1.428  10.103 -0.2913  0.0282  0.7605
  788MOL0     C 3907   1.626   1.328  10.055  0.8292  0.5939  0.2945
  788MOL0     O 3908   1.583   1.243  10.163 -0.1536 -0.2336  0.4943
  788MOL0     C 3909   1.478   1.277  10.241  0.9385 -0.8780 -0.0794
  788MOL0     C 3910   1.368   1.361  10.201  0.4949 -0.3048 -0.6731
  788MOL0     C 3911   1.249   1.362  10.277 -0.8057  0.0405 -1.1556
  788MOL0     C 3912   1.247   1.290  10.396  0.1767 -0.0018  0.2940
  788MOL0     C 3913   1.124   1.284  10.473 -0.0952 -0.6561  0.6350
  788MOL0     O 3914   1.121   1.212  10.580 -0.0772 -0.3695 -0.6911
  788MOL0     C 3915   1.026   1.223  10.675 -0.0211  0.8496  0.7318
  788MOL0     C 3916   1.065   1.296  10.781 -0.4487 -0.3395 -1.1428
  788MOL0     C 3917   0.964   1.324  10.879 -0.0648  0.0485 -0.7464
  788MOL0     C 3918   0.826   1.279  10.874  0.1064 -0.6886 -0.6849
  788MOL0     O 3919   0.741   1.318  10.983  0.2913  0.2678  0.3624
  788MOL0     C 3920   0.620   1.387  10.949 -0.1438  0.0111 -0.2347
  788MOL0     C 3921   0.639   1.521  10.906 -0.7552 -0.1716 -0.1379
  788MOL0     C 3922   0.641   1.635  11.012 -0.3888  0.2201  0.4408
  788MOL0     C 3923   0.761   1.615  11.102  0.2381  0.8834  0.4742
  788MOL0     C 3924   0.890   1.682  11.047 -0.0842 -0.0276 -0.1853
  788MOL0     C 3925   1.002   1.678  11.148 -0.0993 -0.2197  0.3741
  788MOL0     C 3926   1.125   1.746  11.091 -0.1522 -0.0192 -0.6352
  788MOL0     C 3927   1.188   1.657  10.969  0.0474  0.3649 -0.5149
  788MOL0    Cl 3928   1.234   1.492  11.034  0.2465 -0.4964  0.4521
  788MOL0     C 3929   0.792   1.206  10.754 -0.2233 -0.3634  0.0085
  788MOL0     C 3930   0.893   1.180  10.656 -0.5631 -0.9087  0.5608
  788MOL0     O 3931   1.030   1.348  10.428 -0.0937 -0.1593  0.6920
  788MOL0     C 3932   1.358   1.207  10.435  1.1538  0.5404 -0.7230
  788MOL0     C 3933   1.473   1.200  10.359  0.4145  0.2646  1.0140
  788MOL0     N 3934   2.143   1.401   9.931  0.1004  0.3484 -0.6295
  788MOL0     N 3935   2.245   1.326   9.924 -0.0952  0.2538  0.0682
  788MOL0     C 3936   3.068   0.637  10.189 -0.7556 -0.9074 -0.0127
  788MOL0     C 3937   3.162   0.546  10.247 -0.2724 -0.8700  0.5567
  788MOL0     C 3938   3.469   0.243  10.354 -0.3281 -0.1674  0.1544
  788MOL0     C 3939   3.599   0.262  10.303  0.3927 -1.1407 -0.2653
  788MOL0     C 3940   3.701   0.179  10.353 -0.4199  0.0328 -0.3065
  788MOL0     C 3941   3.670   0.075  10.440  1.3371  0.4925 -0.5584
  788MOL0     O 3942   3.775   0.003  10.492  0.8084  0.2004 -0.7411
  788MOL0     C 3943   3.752  -0.143  10.491 -0.2838 -0.3319 -1.1182
  788MOL0     C 3944   3.761  -0.187  10.639  0.1059 -0.9522  0.1626
  788MOL0     C 3945   3.767  -0.334  10.671 -1.0846 -0.8562 -1.0418
  788MOL0     C 3946   3.795  -0.348  10.821  0.1323  0.5587 -0.0701
  788MOL0     C 3947   3.774  -0.494  10.861  0.0889 -0.0249 -0.2294
  788MOL0     C 3948   3.745  -0.606  10.890 -1.0564 -0.5159  1.0235
  788MOL0     C 3949   3.537   0.054  10.484  0.1195 -0.2781 -0.6792
  788MOL0     C 3950   3.435   0.138  10.439  0.7071 -0.4187  0.6706
  788MOL0     H 3951   3.332   0.458   9.968 -1.2389  2.1217 -2.3035
  788MOL0     H 3952   3.168   0.625   9.872  0.4289 -1.1689  0.3960
  788MOL0     H 3953   2.878   0.619   9.892  3.2299 -1.4325  0.5561
  788MOL0     H 3954   2.993   0.737   9.812  2.1056 -0.9132  3.0032
  788MOL0     H 3955   2.727   0.768   9.802 -1.6125 -1.3739  2.3803
  788MOL0     H 3956   2.809   0.918   9.824 -2.1618  1.0576 -0.9174
  788MOL0     H 3957   2.774   0.894  10.066  2.0185  0.4893 -1.4644
  788MOL0     H 3958   2.701   0.736  10.031  1.6153  1.2620  1.3532
  788MOL0     H 3959   2.589   0.985   9.927  1.6709  0.1378  1.7194
  788MOL0     H 3960   2.522   0.819   9.892 -1.5007 -0.7950  1.6106
  788MOL0     H 3961   2.551   0.927  10.178  1.8889 -1.4028 -1.2108
  788MOL0     H 3962   2.492   0.774  10.141 -4.2604 -0.3620 -1.0033
  788MOL0     H 3963   2.299   0.901  10.206  1.1204 -0.5720  0.7701
  788MOL0     H 3964   2.300   0.822  10.054  2.6229 -0.6123 -1.3807
  788MOL0     H 3965   2.311   0.999   9.920 -0.9570  0.0102  0.1543
  788MOL0     H 3966   2.193   1.036  10.052 -0.3669  0.9003 -0.7850
  788MOL0     H 3967   2.456   1.165  10.000  1.6973 -1.0359  1.3954
  788MOL0     H 3968   2.406   1.148  10.165  3.2840  3.1168 -0.5205
  788MOL0     H 3969   2.196   1.276  10.229  1.4026  2.2300  0.7535
  788MOL0     H 3970   1.970   1.556  10.060 -2.6667 -1.6949 -1.6309
  788MOL0     H 3971   1.990   1.508  10.219  0.1104 -1.1508 -0.0546
  788MOL0     H 3972   1.886   1.282  10.174 -0.8903  1.2960  0.8917
  788MOL0     H 3973   1.896   1.313  10.004 -0.4492  1.2220 -0.7335
  788MOL0     H 3974   1.715   1.470  10.202 -1.4713 -0.3680  0.7206
  788MOL0     H 3975   1.723   1.512  10.035 -1.3273 -2.3871 -2.3101
  788MOL0     H 3976   1.672   1.253   9.990  0.7655  0.2435  0.6528
  788MOL0     H 3977   1.544   1.383  10.007  0.8983  0.9305  0.5613
  788MOL0     H 3978   1.372   1.432  10.119 -1.2665  2.9834  1.8311
  788MOL0     H 3979   1.155   1.409  10.249 -0.5420  0.0633 -2.0251
  788MOL0     H 3980   1.167   1.327  10.798 -1.1943  0.5705  2.6088
  788MOL0     H 3981   0.996   1.366  10.974 -1.0248 -1.0181  0.0854
  788MOL0     H 3982   0.549   1.385  11.032 -1.6487 -0.2077 -1.4793
  788MOL0     H 3983   0.561   1.334  10.873  1.3325 -3.1554  0.6389
  788MOL0     H 3984   0.557   1.539  10.836  1.8829 -2.8439 -4.3908
  788MOL0     H 3985   0.721   1.535  10.835  0.4474 -1.0883  0.9971
  788MOL0     H 3986   0.547   1.630  11.068  0.0478 -0.7150  1.1029
  788MOL0     H 3987   0.646   1.731  10.959 -0.3998 -0.1826 -0.3029
  788MOL0     H 3988   0.728   1.677  11.186  0.4559  0.1347  1.1251
  788MOL0     H 3989   0.793   1.515  11.133  1.8263  0.9634 -0.7795
  788MOL0     H 3990   0.857   1.782  11.017 -0.7961 -0.8470 -2.3031
  788MOL0     H 3991   0.930   1.639  10.955  0.5437  1.2987 -0.5531
  788MOL0     H 3992   1.023   1.578  11.187 -1.1473 -0.4185  0.4544
  788MOL0     H 3993   0.976   1.728  11.241  0.7250 -2.9072  2.1817
  788MOL0     H 3994   1.103   1.850  11.066 -1.2367  0.1634  0.9425
  788MOL0     H 3995   1.206   1.755  11.163 -0.2424  0.4739 -0.5925
  788MOL0     H 3996   1.279   1.706  10.932 -1.5996  5.3547  1.2287
  788MOL0     H 3997   1.116   1.638  10.889 -4.0778 -1.5255  3.2539
  788MOL0     H 3998   0.688   1.174  10.748 -0.7132  0.5431  2.4930
  788MOL0     H 3999   0.873   1.126  10.564 -0.7000  0.0144  0.0399
  788MOL0     H 4000   1.335   1.142  10.519 -0.5872  1.0389 -0.7782
  788MOL0     H 4001   1.560   1.140  10.388  1.2284  0.2493 -1.2470
  788MOL0     H 4002   2.991   0.689  10.245  0.6259  0.0930  0.9930
  788MOL0     H 4003   3.148   0.518  10.351 -0.0698 -3.6712 -0.0894
  788MOL0     H 4004   3.610   0.347  10.237  0.7096 -1.7806 -1.0404
  788MOL0     H 4005   3.804   0.191  10.323 -1.2055  0.1624 -3.2148
  788MOL0     H 4006   3.822  -0.194  10.425  1.6802 -0.3371  0.8401
  788MOL0     H 4007   3.654  -0.167  10.450 -0.2745 -0.5312 -1.0251
  788MOL0     H 4008   3.848  -0.136  10.681 -2.3045  3.8191  0.1111
  788MOL0     H 4009   3.680  -0.132  10.690  0.2893 -0.5615  0.0398
  788MOL0     H 4010   3.845  -0.389  10.619  0.0125 -1.8835  1.4997
  788MOL0     H 4011   3.671  -0.382  10.648 -1.9841 -0.1225  0.9770
  788MOL0     H 4012   3.897  -0.313  10.844  0.6680 -2.1139  2.0562
  788MOL0     H 4013   3.727  -0.285  10.878 -0.2104  0.8239 -0.7634
  788MOL0     H 4014   3.728  -0.708  10.916 -1.9781 -0.2942  1.3234
  788MOL0     H 4015   3.521  -0.014  10.568  0.1803  1.4427  0.7814
  788MOL0     H 4016   3.340   0.151  10.490 -0.6113  2.3311 -2.1310
  789MOL0     O 4017  11.094  10.892   1.699  0.0657 -0.1970  1.1702
  789MOL0     C 4018  11.210  10.895   1.698 -0.6062 -0.6891 -0.5119
  789MOL0     O 4019  11.284  10.850   1.802  0.0171 -0.4282  0.7460
  789MOL0     C 4020  11.217  10.825   1.921 -0.2278 -0.7036  0.2959
  789MOL0     C 4021  11.245  10.708   1.989 -0.4547  0.1190  0.1128
  789MOL0     C 4022  11.194  10.683   2.118 -0.4518  0.2613  0.1614
  789MOL0     C 4023  11.096  10.767   2.172 -1.1215  0.5127 -0.5028
  789MOL0     O 4024  11.045  10.761   2.301 -0.6349 -0.0400  0.8041
  789MOL0     C 4025  11.104  10.681   2.411 -0.2453  0.0894  0.7979
  789MOL0     C 4026  11.076  10.737   2.546  0.0120 -0.2093  0.0007
  789MOL0     C 4027  11.127  10.877   2.572  0.4979  0.6074 -0.3060
  789MOL0     C 4028  11.094  10.912   2.719  0.5301 -0.0136 -0.1003
  789MOL0     C 4029  11.140  11.060   2.755  0.4678  0.0440  0.5891
  789MOL0     C 4030  11.093  11.104   2.895  0.7437 -0.0972 -0.4202
  789MOL0     C 4031  10.945  11.047   2.941 -0.0897  1.0360  0.0987
  789MOL0     C 4032  10.931  11.048   3.090  0.5604 -0.0793 -0.9275
  789MOL0     N 4033  11.012  10.937   3.158  0.6181  0.2128 -0.2826
  789MOL0     C 4034  11.112  10.942   3.259 -0.4775  0.7477 -0.1969
  789MOL0     C 4035  11.125  10.807   3.277  0.4327 -0.1861 -0.5330
  789MOL0     C 4036  11.226  10.757   3.369  0.0026  0.6944 -0.8240
  789MOL0     C 4037  11.367  10.742   3.317  0.6364  0.2729 -0.4349
  789MOL0     C 4038  11.416  10.608   3.267  0.4548 -0.1640 -0.3170
  789MOL0     C 4039  11.410  10.494   3.376 -0.4884  0.1386 -0.4372
  789MOL0     O 4040  11.472  10.379   3.311  0.0337 -0.0710  0.6139
  789MOL0     C 4041  11.421  10.254   3.337 -0.8909 -0.1787 -0.3451
  789MOL0     C 4042  11.460  10.155   3.249  0.1664 -1.5537  1.0716
  789MOL0     C 4043  11.427  10.024   3.263 -1.1018 -0.7308  1.2030
  789MOL0     C 4044  11.361   9.982   3.376  1.2697 -1.2171 -0.5360
  789MOL0     C 4045  11.329   9.839   3.394 -0.3464 -0.1021  0.3779
  789MOL0     O 4046  11.328   9.760   3.280 -0.1705  0.4607  1.0312
  789MOL0     C 4047  11.240   9.651   3.259 -1.9943 -0.6482  0.2007
  789MOL0     C 4048  11.119   9.634   3.330  0.2087 -0.2639  0.9061
  789MOL0     C 4049  11.031   9.520   3.312  0.3559  0.0139 -0.4540
  789MOL0     C 4050  11.062   9.432   3.211 -0.4748  0.6104  0.8695
  789MOL0     O 4051  10.969   9.331   3.194 -0.4784  0.1008  0.6114
  789MOL0     C 4052  10.853   9.367   3.116 -0.1598 -0.0763  0.5731
  789MOL0     C 4053  10.738   9.348   3.223 -1.2880  0.2436  1.2526
  789MOL0     C 4054  10.599   9.406   3.167 -0.3771  0.2595 -0.3044
  789MOL0     C 4055  10.563   9.384   3.016  1.2811  0.8257 -1.0144
  789MOL0     C 4056  10.447   9.473   2.967  0.7323  0.4437  0.5573
  789MOL0     C 4057  10.310   9.436   3.032 -0.2086 -0.3094 -0.4199
  789MOL0     C 4058  10.213   9.542   3.004 -0.5117 -0.2376  0.7265
  789MOL0     C 4059  10.075   9.485   3.002  0.6156  0.7228 -0.1784
  789MOL0    Cl 4060  10.041   9.448   2.845 -0.0555 -0.5198  0.3361
  789MOL0     C 4061  11.181   9.463   3.128  0.4770  0.0989 -0.6201
  789MOL0     C 4062  11.271   9.564   3.155  0.8380  0.3856  0.9783
  789MOL0     O 4063  11.286   9.804   3.498 -0.1708  0.6678 -0.6302
  789MOL0     C 4064  11.325  10.086   3.469 -0.7357 -0.6051 -0.5153
  789MOL0     C 4065  11.347  10.218   3.447  0.6770  0.0461 -0.1986
  789MOL0     N 4066  11.046  10.729   3.201 -0.3755  0.0268 -0.0064
  789MOL0     N 4067  10.976  10.813   3.133 -0.4587  0.8292 -1.0237
  789MOL0     C 4068  11.067  10.884   2.099  0.2772  0.5690  0.1595
  789MOL0     C 4069  11.132  10.914   1.982  0.3556  0.1881  0.4658
  789MOL0     C 4070  11.288  10.960   1.590  0.4860  0.3226  0.1835
  789MOL0     C 4071  11.424  10.940   1.588  0.0705  0.2703 -0.0470
  789MOL0     C 4072  11.507  10.993   1.486 -0.2997  0.4943 -0.3685
  789MOL0     C 4073  11.448  11.057   1.380 -0.2785  0.0925 -0.6356
  789MOL0     O 4074  11.523  11.112   1.285 -0.3188  0.1263 -0.4130
  789MOL0     C 4075  11.594  11.014   1.212  1.0827 -0.3424  0.0542
  789MOL0     C 4076  11.719  11.087   1.146 -0.4706 -0.5898  0.2387
  789MOL0     C 4077  11.833  11.121   1.248  0.6199  0.3440 -0.3391
  789MOL0     C 4078  11.814  11.232   1.350  0.4360 -1.2205 -0.4356
  789MOL0     C 4079  11.792  11.363   1.296  0.2901 -0.1980  0.0444
  789MOL0     C 4080  11.791  11.485   1.267 -0.4970  0.1908 -1.0424
  789MOL0     C 4081  11.309  11.071   1.377  0.4828  0.8868  1.0648
  789MOL0     C 4082  11.230  11.016   1.477  0.8374 -0.7521 -0.5946
  789MOL0     H 4083  11.314  10.634   1.949 -0.3298  0.3357 -0.0772
  789MOL0     H 4084  11.215  10.591   2.171  0.7101 -0.6563 -1.7834
  789MOL0     H 4085  11.212  10.680   2.397 -0.1572 -0.1614  1.4671
  789MOL0     H 4086  11.061  10.581   2.407 -3.5299  1.3716 -0.3438
  789MOL0     H 4087  11.109  10.676   2.630  2.4452 -0.4759 -1.0620
  789MOL0     H 4088  10.969  10.742   2.564 -0.5814 -2.5662 -2.3213
  789MOL0     H 4089  11.076  10.942   2.500  0.0856 -0.0238 -0.5887
  789MOL0     H 4090  11.233  10.889   2.546 -0.2862  2.5148 -3.1265
  789MOL0     H 4091  10.985  10.908   2.724  0.4399  1.8857  0.2905
  789MOL0     H 4092  11.141  10.835   2.780  1.0584  2.0238  2.2091
  789MOL0     H 4093  11.092  11.121   2.678 -1.0577 -1.9771 -0.1698
  789MOL0     H 4094  11.248  11.073   2.744  0.6401 -0.6929  1.3325
  789MOL0     H 4095  11.093  11.212   2.908 -3.0170 -0.2782  3.1452
  789MOL0     H 4096  11.168  11.074   2.969  0.8880  1.2541  0.0096
  789MOL0     H 4097  10.864  11.105   2.895 -1.3515 -2.9515 -3.2407
  789MOL0     H 4098  10.912  10.947   2.912  2.6259  0.6172 -2.0580
  789MOL0     H 4099  10.828  11.056   3.123  1.2066  4.6027  0.6806
  789MOL0     H 4100  10.959  11.150   3.120  0.7770  0.5674 -3.1489
  789MOL0     H 4101  11.172  11.017   3.310  1.1290 -1.8817  2.0955
  789MOL0     H 4102  11.192  10.656   3.391  1.8270  0.4051  1.0366
  789MOL0     H 4103  11.222  10.820   3.458 -5.4663 -1.5303  0.8837
  789MOL0     H 4104  11.432  10.774   3.399  2.4409 -1.3237 -1.1652
  789MOL0     H 4105  11.379  10.813   3.235  1.1384  0.2250 -0.4050
  789MOL0     H 4106  11.367  10.559   3.183  0.3750 -1.8264  0.6425
  789MOL0     H 4107  11.520  10.607   3.232  1.2766 -0.5723  1.9290
  789MOL0     H 4108  11.308  10.466   3.403 -0.5138  1.8154  1.4155
  789MOL0     H 4109  11.477  10.524   3.458  1.6998  1.9074 -2.7146
  789MOL0     H 4110  11.526  10.190   3.170  1.3211  0.1024  2.6824
  789MOL0     H 4111  11.482   9.967   3.188  0.4480  2.4873 -0.2878
  789MOL0     H 4112  11.079   9.700   3.406  2.7040  1.7836  0.6135
  789MOL0     H 4113  10.939   9.516   3.368  0.9403  0.4350  0.5619
  789MOL0     H 4114  10.836   9.310   3.024  0.9739  0.5082 -0.0239
  789MOL0     H 4115  10.857   9.473   3.089  1.6040 -0.4906 -0.9709
  789MOL0     H 4116  10.780   9.389   3.316  1.1920 -2.9100  1.6599
  789MOL0     H 4117  10.730   9.240   3.237  2.5403 -0.7702 -2.3204
  789MOL0     H 4118  10.607   9.515   3.168 -3.7330  0.6808 -2.9720
  789MOL0     H 4119  10.526   9.378   3.243  2.6303 -4.5348  1.2854
  789MOL0     H 4120  10.650   9.407   2.954  1.9016 -0.5186 -0.6788
  789MOL0     H 4121  10.552   9.276   3.001  5.5660  0.5236 -4.0961
  789MOL0     H 4122  10.437   9.450   2.860  0.1492 -1.2580  0.9427
  789MOL0     H 4123  10.464   9.580   2.978 -0.0640  0.6249  0.1197
  789MOL0     H 4124  10.314   9.438   3.141  0.3040  4.1386 -0.3523
  789MOL0     H 4125  10.275   9.338   2.998 -1.4587 -0.6942  1.7710
  789MOL0     H 4126  10.216   9.617   3.084 -0.8381  2.3791 -1.5482
  789MOL0     H 4127  10.242   9.597   2.914  1.9381 -4.1278 -1.0890
  789MOL0     H 4128  10.010   9.572   3.012 -0.6753 -0.1512 -0.6366
  789MOL0     H 4129  10.056   9.413   3.083  0.4605 -0.1828 -0.9907
  789MOL0     H 4130  11.197   9.386   3.054 -1.7664 -0.2422 -0.8151
  789MOL0     H 4131  11.363   9.589   3.102 -0.7430 -2.1468 -3.4156
  789MOL0     H 4132  11.257  10.058   3.548  0.2771 -2.2104 -0.1619
  789MOL0     H 4133  11.316  10.290   3.522  2.2168  0.4804  0.0562
  789MOL0     H 4134  10.987  10.943   2.143 -1.1690 -1.5162  0.4668
  789MOL0     H 4135  11.126  11.006   1.926  0.4146 -0.1770 -0.1542
  789MOL0     H 4136  11.472  10.888   1.670  0.6806 -1.4607 -1.4532
  789MOL0     H 4137  11.612  10.965   1.479 -0.8424 -1.6656 -0.3772
  789MOL0     H 4138  11.521  10.976   1.139  0.4676  0.4541  0.2458
  789MOL0     H 4139  11.633  10.925   1.262  2.9519  0.3349 -0.1177
  789MOL0     H 4140  11.748  11.026   1.060 -0.3974  0.2413 -0.3332
  789MOL0     H 4141  11.681  11.181   1.106  1.4940  0.5317  0.8875
  789MOL0     H 4142  11.924  11.155   1.199  0.6113 -1.3268 -1.6009
  789MOL0     H 4143  11.852  11.027   1.300  1.6073 -0.1950 -1.6277
  789MOL0     H 4144  11.729  11.227   1.418  0.0082  2.7862 -0.4526
  789MOL0     H 4145  11.904  11.244   1.412 -0.3511  1.1650  0.3668
  789MOL0     H 4146  11.802  11.584   1.226 -1.6837 -0.3796 -2.8383
  789MOL0     H 4147  11.254  11.121   1.298  3.0814  0.2662 -1.2907
  789MOL0     H 4148  11.121  11.021   1.484  0.7466 -2.7044 -0.0496
  790MOL0     O 4149  10.281   1.549   6.954  0.8357 -0.5907  0.4134
  790MOL0     C 4150  10.271   1.464   6.862  0.0365 -0.0241  0.1688
  790MOL0     O 4151  10.321   1.337   6.869 -0.0422  0.3967  0.8180
  790MOL0     C 4152  10.368   1.293   6.990  0.1122  0.4803  0.3603
  790MOL0     C 4153  10.274   1.244   7.086 -0.5079 -0.7917  0.8301
  790MOL0     C 4154  10.308   1.233   7.214  0.2992  0.4840 -0.4083
  790MOL0     C 4155  10.446   1.222   7.248 -0.7902  0.4923 -0.2333
  790MOL0     O 4156  10.476   1.181   7.375  0.6655 -0.3626 -0.3249
  790MOL0     C 4157  10.569   1.266   7.449  0.7217  0.1838 -0.4012
  790MOL0     C 4158  10.679   1.180   7.512  0.4042 -0.1167 -0.5018
  790MOL0     C 4159  10.796   1.268   7.568  0.0106 -0.0038 -0.0169
  790MOL0     C 4160  10.906   1.191   7.625 -0.8250 -0.0763  0.0274
  790MOL0     C 4161  10.880   1.135   7.768 -0.0676  0.4557  0.5073
  790MOL0     C 4162  10.995   1.037   7.807  0.2278 -0.7479 -0.8661
  790MOL0     C 4163  10.987   0.974   7.945  0.3019  0.1926  0.4483
  790MOL0     C 4164  10.855   0.922   7.987 -0.3804 -0.1207 -0.1485
  790MOL0     N 4165  10.842   0.932   8.133  0.3842  0.2351 -0.3373
  790MOL0     C 4166  10.772   1.032   8.194  0.0256  0.1056  0.1496
  790MOL0     C 4167  10.793   1.005   8.319 -0.9601 -0.1702 -0.1402
  790MOL0     C 4168  10.741   1.094   8.425 -1.2939 -0.7509 -0.0612
  790MOL0     C 4169  10.845   1.210   8.430 -0.0903 -1.2845  0.2522
  790MOL0     C 4170  10.816   1.312   8.534  0.0838 -0.3125  0.3920
  790MOL0     C 4171  10.837   1.256   8.679  0.7380  0.2693  0.2091
  790MOL0     O 4172  10.873   1.362   8.770  0.5892  0.4383 -0.6463
  790MOL0     C 4173  11.006   1.396   8.780  0.1880  1.2510 -0.5572
  790MOL0     C 4174  11.040   1.470   8.896  0.3944 -0.4445 -0.2654
  790MOL0     C 4175  11.174   1.514   8.910  1.3703  0.1552 -1.0345
  790MOL0     C 4176  11.271   1.492   8.819  0.2371 -0.4801  0.4397
  790MOL0     C 4177  11.404   1.534   8.843 -0.4297  0.4447 -0.7800
  790MOL0     O 4178  11.455   1.523   8.972  0.0495  0.3990 -1.1545
  790MOL0     C 4179  11.580   1.570   9.003  0.4026  0.4353  0.5077
  790MOL0     C 4180  11.640   1.681   8.956 -0.5281 -0.2491  0.4467
  790MOL0     C 4181  11.756   1.733   9.019  0.6424 -0.2405 -0.0594
  790MOL0     C 4182  11.812   1.670   9.127  0.0065  0.7051  0.9745
  790MOL0     O 4183  11.928   1.731   9.179  0.4950  0.1386  0.4143
  790MOL0     C 4184  11.952   1.731   9.326 -0.1965 -0.1001  0.9749
  790MOL0     C 4185  12.054   1.832   9.354 -0.1455  0.6623 -0.5216
  790MOL0     C 4186  12.199   1.775   9.362  0.2664 -0.6228 -0.2519
  790MOL0     C 4187  12.311   1.877   9.386  0.0524 -0.3335  0.1879
  790MOL0     C 4188  12.437   1.794   9.400  0.4977  0.3309 -0.0880
  790MOL0     C 4189  12.553   1.892   9.393 -1.0438 -0.6252  0.1890
  790MOL0     C 4190  12.685   1.813   9.416 -0.8034  0.1820 -0.2794
  790MOL0     C 4191  12.818   1.902   9.421 -0.8332  0.1759 -0.5413
  790MOL0    Cl 4192  12.869   1.981   9.572 -0.2007 -0.2045 -0.4018
  790MOL0     C 4193  11.751   1.555   9.179 -1.1160  0.3078 -0.5417
  790MOL0     C 4194  11.641   1.499   9.115 -0.2529  0.0646  0.2199
  790MOL0     O 4195  11.474   1.567   8.746  0.0287  0.4877 -0.3694
  790MOL0     C 4196  11.236   1.422   8.699 -0.2606  0.4106  0.2865
  790MOL0     C 4197  11.106   1.369   8.684 -0.5393 -0.4611  0.2168
  790MOL0     N 4198  10.882   0.901   8.341 -0.6263  0.5741  0.8950
  790MOL0     N 4199  10.908   0.849   8.220 -0.9167 -1.0188 -0.0745
  790MOL0     C 4200  10.537   1.262   7.154 -0.0573 -0.8749 -0.0869
  790MOL0     C 4201  10.492   1.310   7.026 -0.8127 -0.1083 -0.3024
  790MOL0     C 4202  10.211   1.500   6.737  0.5250 -0.4981  0.4302
  790MOL0     C 4203  10.214   1.634   6.682  0.7803 -0.0025  0.5941
  790MOL0     C 4204  10.145   1.669   6.562  0.3271 -0.1548  0.8044
  790MOL0     C 4205  10.076   1.569   6.488  0.4845 -0.8444 -0.5944
  790MOL0     O 4206  10.010   1.600   6.375  0.7644 -0.0690 -0.6265
  790MOL0     C 4207  10.100   1.625   6.270 -0.2985  0.0617 -0.3214
  790MOL0     C 4208  10.051   1.577   6.127  0.9350 -0.1999 -0.2988
  790MOL0     C 4209   9.984   1.448   6.143 -0.3517 -0.1051  0.4987
  790MOL0     C 4210   9.936   1.396   6.013  0.2317 -0.2892  0.6645
  790MOL0     C 4211   9.815   1.316   6.037 -0.0998 -0.5589 -0.3991
  790MOL0     C 4212   9.707   1.251   6.045  0.3744  0.0908 -0.7440
  790MOL0     C 4213  10.066   1.447   6.547  0.8593 -0.6288 -0.7470
  790MOL0     C 4214  10.129   1.406   6.670  0.8446 -0.0987 -0.5948
  790MOL0     H 4215  10.167   1.235   7.068 -0.8144 -0.7592  2.4799
  790MOL0     H 4216  10.241   1.215   7.298  2.7151 -1.6419  1.2298
  790MOL0     H 4217  10.514   1.322   7.525  1.0095  0.9273 -0.7355
  790MOL0     H 4218  10.615   1.351   7.398  0.0935  1.7497  1.5190
  790MOL0     H 4219  10.712   1.106   7.439 -0.3556 -1.8421  0.8202
  790MOL0     H 4220  10.634   1.118   7.591  0.2625 -0.0843 -0.5574
  790MOL0     H 4221  10.746   1.337   7.638  0.7591  0.1266  0.4016
  790MOL0     H 4222  10.835   1.331   7.488  1.4227  1.3199  1.6351
  790MOL0     H 4223  10.943   1.109   7.562 -0.7789 -1.3812  1.6607
  790MOL0     H 4224  10.989   1.257   7.649 -0.7420 -0.7582  1.8328
  790MOL0     H 4225  10.782   1.086   7.761  0.0685  0.0913  1.0360
  790MOL0     H 4226  10.867   1.217   7.839  1.3926 -1.2855  2.9111
  790MOL0     H 4227  11.091   1.090   7.801  0.5874 -1.1671  0.6998
  790MOL0     H 4228  10.998   0.962   7.727 -3.3492 -0.1431 -1.7348
  790MOL0     H 4229  11.055   0.889   7.957 -0.1276 -0.2632 -0.3105
  790MOL0     H 4230  11.033   1.054   8.005 -0.1818 -0.1241  1.2650
  790MOL0     H 4231  10.845   0.816   7.960  0.7002 -0.9929  2.4951
  790MOL0     H 4232  10.780   0.983   7.937 -2.1282 -1.2862  0.9573
  790MOL0     H 4233  10.717   1.119   8.161  1.1236  0.8694  0.2962
  790MOL0     H 4234  10.732   1.042   8.521 -2.2590  0.7678  0.7104
  790MOL0     H 4235  10.647   1.135   8.387 -0.6729  0.8670  0.0607
  790MOL0     H 4236  10.818   1.255   8.334 -0.1393  3.7431  2.3572
  790MOL0     H 4237  10.950   1.180   8.425 -0.7849 -3.7216 -1.9322
  790MOL0     H 4238  10.880   1.401   8.527 -2.5853  1.5990 -4.3295
  790MOL0     H 4239  10.716   1.356   8.534  1.3396  2.9370  2.7708
  790MOL0     H 4240  10.918   1.182   8.680 -1.5706 -2.4679  0.1054
  790MOL0     H 4241  10.748   1.205   8.716  1.4784  0.8018  2.9427
  790MOL0     H 4242  10.960   1.468   8.970  0.1164 -1.7175 -0.5834
  790MOL0     H 4243  11.183   1.562   9.006  0.3960 -0.3552 -0.6773
  790MOL0     H 4244  11.602   1.741   8.874  1.3465  2.2686  1.2880
  790MOL0     H 4245  11.793   1.829   8.982  0.9977 -0.3514  0.0070
  790MOL0     H 4246  11.993   1.637   9.365  0.6780 -0.8121 -1.5001
  790MOL0     H 4247  11.864   1.767   9.380 -1.7338 -0.7120 -1.0017
  790MOL0     H 4248  12.039   1.884   9.449  1.6047  2.2096 -1.0363
  790MOL0     H 4249  12.040   1.911   9.279 -1.8574  0.1415 -0.8051
  790MOL0     H 4250  12.227   1.717   9.273  2.2434  0.0454 -0.1288
  790MOL0     H 4251  12.197   1.712   9.451  0.2263  0.9604  0.9103
  790MOL0     H 4252  12.312   1.933   9.292  0.0138  1.1977  1.0629
  790MOL0     H 4253  12.305   1.952   9.465 -0.7728  2.3789 -2.2825
  790MOL0     H 4254  12.448   1.725   9.316 -0.0454  2.2018 -1.7596
  790MOL0     H 4255  12.433   1.746   9.498 -1.3943 -0.6315 -0.5939
  790MOL0     H 4256  12.533   1.962   9.475  0.7814 -1.1153  1.1004
  790MOL0     H 4257  12.551   1.934   9.292 -0.4030  0.0323  0.4429
  790MOL0     H 4258  12.681   1.750   9.504 -0.7119  0.6856  0.0920
  790MOL0     H 4259  12.687   1.745   9.330  1.3292  1.6206 -1.4674
  790MOL0     H 4260  12.824   1.979   9.343 -1.4343 -1.8749 -2.7341
  790MOL0     H 4261  12.912   1.854   9.394 -0.2790  1.7288 -1.5363
  790MOL0     H 4262  11.774   1.510   9.275 -1.3499 -3.1821 -1.9725
  790MOL0     H 4263  11.586   1.415   9.157 -0.5410  0.3375  0.3937
  790MOL0     H 4264  11.301   1.409   8.614 -1.2979  0.2118 -0.4901
  790MOL0     H 4265  11.093   1.316   8.590  0.3535  0.1955 -0.2971
  790MOL0     H 4266  10.640   1.268   7.187  0.0655  0.3943 -0.6215
  790MOL0     H 4267  10.565   1.353   6.958  0.8799  0.1823  1.6063
  790MOL0     H 4268  10.273   1.713   6.725  1.9963 -0.2781 -0.4922
  790MOL0     H 4269  10.161   1.771   6.529  3.4265  0.1430  2.8004
  790MOL0     H 4270  10.205   1.600   6.286  0.1431  3.1516  3.1506
  790MOL0     H 4271  10.096   1.734   6.261 -2.6268 -0.0277 -1.0984
  790MOL0     H 4272   9.994   1.661   6.087  4.5907  2.1964 -1.0204
  790MOL0     H 4273  10.142   1.559   6.069  0.6970  2.6611 -1.7412
  790MOL0     H 4274   9.906   1.456   6.218 -0.0027 -0.0581  0.8622
  790MOL0     H 4275  10.055   1.370   6.173  1.7072  1.2419 -0.5675
  790MOL0     H 4276   9.909   1.486   5.957  1.4745  0.9004  1.8810
  790MOL0     H 4277  10.009   1.339   5.955 -0.6622  0.1560 -0.9416
  790MOL0     H 4278   9.613   1.208   6.072  0.4358 -0.4689 -1.3899
  790MOL0     H 4279  10.002   1.378   6.492 -1.2833 -0.0387  0.9002
  790MOL0     H 4280  10.099   1.312   6.714  1.1228  0.5402  1.0332
  791MOL0     O 4281   2.901   3.527   3.823  0.6532 -0.0178  0.3406
  791MOL0     C 4282   2.856   3.468   3.721  0.3493  0.4324 -0.5024
  791MOL0     O 4283   2.871   3.331   3.692 -0.3475  0.2750 -0.5074
  791MOL0     C 4284   2.918   3.254   3.783 -0.0219  0.3809  0.4918
  791MOL0     C 4285   3.023   3.170   3.742  0.6933 -0.0228  0.6809
  791MOL0     C 4286   3.099   3.104   3.830  0.3568 -0.4443  0.6403
  791MOL0     C 4287   3.069   3.100   3.967 -0.4300 -0.5998  0.8502
  791MOL0     O 4288   3.153   3.019   4.043  0.8355 -0.0733  0.2428
  791MOL0     C 4289   3.158   3.056   4.187  0.0967  0.5145 -0.3285
  791MOL0     C 4290   3.251   2.962   4.254  0.7007 -1.0223 -0.2384
  791MOL0     C 4291   3.396   2.994   4.229  0.8008 -0.4046 -1.1346
  791MOL0     C 4292   3.482   2.912   4.325 -0.3790 -0.1053 -0.2425
  791MOL0     C 4293   3.636   2.938   4.309 -0.1175 -0.7999 -0.4161
  791MOL0     C 4294   3.725   2.836   4.387  0.4044 -0.6821  0.4051
  791MOL0     C 4295   3.715   2.687   4.342 -0.0635  0.6300  0.1991
  791MOL0     C 4296   3.836   2.657   4.255  0.8840  0.0842 -0.5112
  791MOL0     N 4297   3.801   2.534   4.184  0.4275  1.1881 -0.1932
  791MOL0     C 4298   3.767   2.523   4.050 -0.6257 -0.6380  0.0404
  791MOL0     C 4299   3.748   2.388   4.023 -0.7422  0.7790 -0.1994
  791MOL0     C 4300   3.744   2.313   3.891 -0.0324  0.0438  0.3746
  791MOL0     C 4301   3.832   2.387   3.790 -0.3099 -0.1136 -0.1100
  791MOL0     C 4302   3.850   2.321   3.646 -0.0501 -0.0569 -0.1886
  791MOL0     C 4303   3.938   2.414   3.552 -0.2051 -0.3066 -0.4191
  791MOL0     O 4304   4.075   2.397   3.593  0.5752 -0.6742  0.8534
  791MOL0     C 4305   4.174   2.440   3.502  0.7682 -0.1352  0.0363
  791MOL0     C 4306   4.164   2.546   3.411  0.6054 -0.6666  0.3522
  791MOL0     C 4307   4.263   2.583   3.321 -0.6934 -0.9196  0.8957
  791MOL0     C 4308   4.378   2.499   3.307 -0.4803 -1.0574  0.6144
  791MOL0     C 4309   4.487   2.518   3.211 -0.4731 -0.1252 -0.9320
  791MOL0     O 4310   4.565   2.411   3.182  0.8822 -0.7352  0.9174
  791MOL0     C 4311   4.687   2.424   3.121  0.6593 -0.4998 -0.5335
  791MOL0     C 4312   4.774   2.534   3.126 -0.2376  0.2114  0.6060
  791MOL0     C 4313   4.907   2.526   3.066  0.0757 -0.3122  0.1374
  791MOL0     C 4314   4.947   2.406   3.000  0.0779 -1.1688 -1.0786
  791MOL0     O 4315   5.072   2.397   2.952  0.1167  0.3001 -0.2257
  791MOL0     C 4316   5.184   2.437   3.039  0.3151  1.0866  0.1215
  791MOL0     C 4317   5.299   2.466   2.946  1.1282  0.2439 -0.4387
  791MOL0     C 4318   5.428   2.432   3.030 -0.0577  0.3491  0.2085
  791MOL0     C 4319   5.560   2.472   2.956  0.8999  0.5245 -0.0737
  791MOL0     C 4320   5.679   2.462   3.051  0.1778  0.4183  0.5561
  791MOL0     C 4321   5.800   2.454   2.953 -1.0426  0.6353 -0.6047
  791MOL0     C 4322   5.814   2.584   2.872 -0.5451  0.3005  0.1915
  791MOL0     C 4323   5.956   2.637   2.861 -1.0963 -0.8839  0.3016
  791MOL0    Cl 4324   6.036   2.679   3.018  0.0558 -0.1879 -0.4704
  791MOL0     C 4325   4.853   2.300   3.000  0.2671  0.5503  0.9165
  791MOL0     C 4326   4.729   2.305   3.055  0.9444 -0.1311  0.6958
  791MOL0     O 4327   4.488   2.625   3.154 -0.0557 -0.1236  0.6317
  791MOL0     C 4328   4.390   2.388   3.397  0.4879 -0.4886  0.3986
  791MOL0     C 4329   4.290   2.367   3.499 -0.2484 -0.2160  0.3515
  791MOL0     N 4330   3.766   2.327   4.145  0.2680  0.4784  0.6835
  791MOL0     N 4331   3.787   2.412   4.243 -0.2938  0.0252 -0.6054
  791MOL0     C 4332   2.948   3.157   4.011  0.2597 -0.4677  0.9994
  791MOL0     C 4333   2.870   3.242   3.915  0.7831 -0.6627  0.2967
  791MOL0     C 4334   2.780   3.544   3.615 -0.2848 -0.5779  0.4123
  791MOL0     C 4335   2.682   3.484   3.535 -0.7954  0.8713 -0.1620
  791MOL0     C 4336   2.632   3.553   3.432  0.5167  1.3067  0.6566
  791MOL0     C 4337   2.651   3.694   3.415 -0.3062  0.1395 -2.1190
  791MOL0     O 4338   2.560   3.750   3.333 -0.5620 -0.1326 -0.5482
  791MOL0     C 4339   2.580   3.889   3.301  0.0752 -0.6157 -0.0971
  791MOL0     C 4340   2.511   3.927   3.178  0.7350 -0.6735  0.8980
  791MOL0     C 4341   2.362   3.874   3.177 -0.5932  0.1842  0.2603
  791MOL0     C 4342   2.292   3.916   3.046 -0.1198  0.1252 -1.2182
  791MOL0     C 4343   2.271   4.068   3.047 -0.3037 -0.1356  0.1184
  791MOL0     C 4344   2.269   4.195   3.043  0.2373  0.6520  0.4826
  791MOL0     C 4345   2.733   3.752   3.506 -0.7361 -0.2756 -0.8160
  791MOL0     C 4346   2.805   3.676   3.601 -0.9970 -0.8704  0.2814
  791MOL0     H 4347   3.048   3.163   3.637 -0.7148  1.3004  0.2283
  791MOL0     H 4348   3.181   3.044   3.794  2.5206  1.6173  1.8738
  791MOL0     H 4349   3.064   3.029   4.237  0.4062  1.6554  0.9330
  791MOL0     H 4350   3.178   3.163   4.196 -0.5896  1.0667 -4.0452
  791MOL0     H 4351   3.229   2.856   4.235 -2.4426 -1.2086  3.4178
  791MOL0     H 4352   3.233   2.986   4.359 -2.1053  1.5900 -1.1824
  791MOL0     H 4353   3.404   3.100   4.256  1.2959 -0.5660 -0.6312
  791MOL0     H 4354   3.414   2.974   4.123  2.1267 -1.2735 -0.7695
  791MOL0     H 4355   3.459   2.922   4.431  0.5523 -0.0154 -0.0358
  791MOL0     H 4356   3.462   2.807   4.306 -1.0124  0.0592 -0.4990
  791MOL0     H 4357   3.642   3.039   4.352  2.3186 -0.4555 -1.3855
  791MOL0     H 4358   3.656   2.937   4.201  3.5640 -1.1591  0.1367
  791MOL0     H 4359   3.689   2.855   4.489 -1.0940  0.0543 -0.2366
  791MOL0     H 4360   3.831   2.865   4.381  0.5042 -1.1484 -0.1431
  791MOL0     H 4361   3.716   2.616   4.425  0.5274 -0.8021 -0.9718
  791MOL0     H 4362   3.627   2.663   4.282  0.7921  1.0682 -1.2861
  791MOL0     H 4363   3.922   2.645   4.322 -2.6232  3.0020  5.3256
  791MOL0     H 4364   3.843   2.746   4.192  1.0493  0.6324  0.2555
  791MOL0     H 4365   3.758   2.601   3.975  0.3332 -0.2606  0.3030
  791MOL0     H 4366   3.640   2.320   3.859  0.4028  1.6419 -0.7960
  791MOL0     H 4367   3.772   2.207   3.895 -2.5313 -0.6491  2.1103
  791MOL0     H 4368   3.921   2.415   3.848 -1.2633  0.3535  1.1700
  791MOL0     H 4369   3.792   2.485   3.764  2.5171  1.5862  1.3710
  791MOL0     H 4370   3.907   2.229   3.660 -0.0609  0.2493  2.1755
  791MOL0     H 4371   3.756   2.296   3.597 -0.8063  0.5691  0.9046
  791MOL0     H 4372   3.907   2.516   3.578  5.2927  1.1995  1.7677
  791MOL0     H 4373   3.933   2.397   3.445  0.8028 -0.3969 -0.4638
  791MOL0     H 4374   4.066   2.593   3.419 -0.8726 -3.3731 -0.5445
  791MOL0     H 4375   4.249   2.667   3.253  4.0898  0.2460  0.9760
  791MOL0     H 4376   4.753   2.632   3.167  0.7613 -0.2873  2.3931
  791MOL0     H 4377   4.960   2.620   3.062  0.6790 -0.4848  2.7823
  791MOL0     H 4378   5.219   2.350   3.094  1.4662  0.8605 -0.9216
  791MOL0     H 4379   5.161   2.520   3.106  0.2347  2.8495 -1.9652
  791MOL0     H 4380   5.311   2.568   2.908  0.0203  0.6264  0.2144
  791MOL0     H 4381   5.297   2.393   2.865  1.7570 -0.3301  0.0480
  791MOL0     H 4382   5.433   2.328   3.064  0.6108  0.7766  1.4766
  791MOL0     H 4383   5.431   2.486   3.125  2.9102  0.8891 -0.0852
  791MOL0     H 4384   5.579   2.411   2.868  1.5787  1.0751 -0.3267
  791MOL0     H 4385   5.547   2.578   2.930  2.3856  1.0873  1.2839
  791MOL0     H 4386   5.675   2.362   3.096 -3.5730  0.0978 -0.1722
  791MOL0     H 4387   5.688   2.544   3.123  1.4647 -2.9723  4.7317
  791MOL0     H 4388   5.783   2.365   2.891 -1.2110  0.4917 -0.3519
  791MOL0     H 4389   5.885   2.426   3.015 -1.7964 -2.7885 -0.8769
  791MOL0     H 4390   5.781   2.555   2.772  1.4380 -0.4529 -0.3019
  791MOL0     H 4391   5.746   2.661   2.911  2.4696  2.4420  1.6329
  791MOL0     H 4392   5.947   2.728   2.803 -0.1327 -0.7113  0.3942
  791MOL0     H 4393   6.017   2.563   2.807  1.1374  1.5139 -0.6575
  791MOL0     H 4394   4.894   2.211   2.954 -4.1945 -0.5551 -1.4967
  791MOL0     H 4395   4.657   2.225   3.064 -1.3579  1.5319 -1.5971
  791MOL0     H 4396   4.475   2.321   3.397 -0.0612 -1.2100  1.2020
  791MOL0     H 4397   4.305   2.285   3.568  0.9268 -0.5569 -0.2931
  791MOL0     H 4398   2.914   3.151   4.114  0.8381  1.5125  1.3403
  791MOL0     H 4399   2.781   3.295   3.945  0.9743 -0.6156  0.7893
  791MOL0     H 4400   2.651   3.381   3.551 -0.9569  0.8500 -0.6080
  791MOL0     H 4401   2.573   3.496   3.360 -0.4236 -1.3530  3.3363
  791MOL0     H 4402   2.685   3.914   3.286 -0.0670  0.6619  0.9082
  791MOL0     H 4403   2.538   3.947   3.384 -0.3476 -0.2112 -0.5896
  791MOL0     H 4404   2.507   4.036   3.187  1.2986 -0.5579 -0.1217
  791MOL0     H 4405   2.568   3.902   3.088 -0.4663  3.9159 -1.4419
  791MOL0     H 4406   2.300   3.906   3.261 -1.1171 -0.2131  0.0265
  791MOL0     H 4407   2.369   3.765   3.171  0.3693  0.1018  2.2474
  791MOL0     H 4408   2.362   3.894   2.965  1.9382 -0.8380  0.7206
  791MOL0     H 4409   2.201   3.857   3.029  1.9898 -3.6705 -0.2730
  791MOL0     H 4410   2.256   4.300   3.026 -0.3746  0.3285 -1.2771
  791MOL0     H 4411   2.750   3.858   3.498  2.4907 -0.5687  0.6949
  791MOL0     H 4412   2.882   3.733   3.651  0.1333 -3.0400  1.1319
  792MOL0     O 4413   5.854   7.619   3.638 -0.9249 -0.1421 -0.2665
  792MOL0     C 4414   5.891   7.741   3.625  0.4999  0.9858  1.7154
  792MOL0     O 4415   5.995   7.781   3.539 -0.2785  0.3569  0.0182
  792MOL0     C 4416   6.056   7.687   3.462 -0.3431 -0.9237  0.3735
  792MOL0     C 4417   6.095   7.733   3.329  1.2149  0.0772  0.4014
  792MOL0     C 4418   6.142   7.648   3.237 -0.9236  0.8172 -0.0813
  792MOL0     C 4419   6.153   7.510   3.258  0.0239 -0.4135  0.0007
  792MOL0     O 4420   6.205   7.419   3.187 -0.1054 -0.3155  0.3554
  792MOL0     C 4421   6.342   7.398   3.202 -0.6747 -0.9270 -1.1052
  792MOL0     C 4422   6.418   7.513   3.139  0.8951  0.1462 -0.5942
  792MOL0     C 4423   6.387   7.522   2.982  0.2480  0.1384 -0.0571
  792MOL0     C 4424   6.449   7.646   2.917 -0.1742 -0.1631 -0.1466
  792MOL0     C 4425   6.446   7.633   2.766  0.1938 -0.2646  0.3158
  792MOL0     C 4426   6.307   7.621   2.697 -0.2189  0.5536 -0.5310
  792MOL0     C 4427   6.317   7.642   2.546 -0.8393 -0.3436 -0.2750
  792MOL0     C 4428   6.180   7.662   2.474  0.4288 -0.5626 -0.5407
  792MOL0     N 4429   6.198   7.678   2.319  0.1165 -0.1229 -1.0088
  792MOL0     C 4430   6.316   7.679   2.253  0.7386  0.2720  0.0824
  792MOL0     C 4431   6.290   7.745   2.141  0.0082 -0.2714 -0.7145
  792MOL0     C 4432   6.391   7.792   2.045 -0.1422  1.0390 -0.7451
  792MOL0     C 4433   6.400   7.693   1.932 -0.1943 -0.4303 -0.3734
  792MOL0     C 4434   6.436   7.752   1.791 -0.0920 -0.2551 -0.5842
  792MOL0     C 4435   6.450   7.651   1.677 -0.4320  0.2255  0.3233
  792MOL0     O 4436   6.324   7.593   1.647  0.2387  0.4816  0.6827
  792MOL0     C 4437   6.335   7.491   1.549 -0.2417 -0.0772 -0.4169
  792MOL0     C 4438   6.219   7.422   1.523 -1.0250  0.8309  0.3243
  792MOL0     C 4439   6.215   7.333   1.421  0.7301  0.2258 -0.5222
  792MOL0     C 4440   6.324   7.310   1.345 -0.5853  0.5335  0.2374
  792MOL0     C 4441   6.312   7.210   1.235  0.2883 -0.7869 -0.5632
  792MOL0     O 4442   6.199   7.138   1.226 -0.2937  0.5523 -0.1383
  792MOL0     C 4443   6.195   7.053   1.124 -0.1416  0.6828  0.1223
  792MOL0     C 4444   6.243   6.922   1.121  0.2378 -1.0370 -0.5565
  792MOL0     C 4445   6.242   6.831   1.014  0.3664 -1.1039  0.9778
  792MOL0     C 4446   6.180   6.877   0.898 -0.3553  0.6195  0.0014
  792MOL0     O 4447   6.198   6.791   0.780 -0.5021 -0.3596  0.0283
  792MOL0     C 4448   6.163   6.831   0.652 -1.0061 -0.1382  0.2808
  792MOL0     C 4449   6.279   6.916   0.602  0.1420 -0.3111  0.1213
  792MOL0     C 4450   6.265   6.946   0.454 -0.7056 -0.2027  0.2088
  792MOL0     C 4451   6.393   7.002   0.395  0.2437  0.5019  0.1161
  792MOL0     C 4452   6.409   6.976   0.244  0.5298 -0.5149  1.0301
  792MOL0     C 4453   6.397   7.103   0.164 -0.5266  0.0789  0.6260
  792MOL0     C 4454   6.433   7.104   0.008 -0.1168  0.2168 -0.7685
  792MOL0     C 4455   6.352   7.204  -0.068  0.3816 -0.8060  0.4925
  792MOL0    Cl 4456   6.184   7.152  -0.087 -0.4440  0.2779 -0.6639
  792MOL0     C 4457   6.135   7.013   0.887 -0.1752 -0.1196 -0.2951
  792MOL0     C 4458   6.137   7.093   1.000 -0.3921 -0.1813 -0.5230
  792MOL0     O 4459   6.403   7.213   1.144 -0.3517  0.4072 -0.5095
  792MOL0     C 4460   6.441   7.374   1.380  0.2840 -0.0563  0.7650
  792MOL0     C 4461   6.454   7.447   1.488 -0.8114 -0.4738 -0.8301
  792MOL0     N 4462   6.159   7.774   2.122 -0.5309 -0.4752  0.2540
  792MOL0     N 4463   6.115   7.751   2.242 -0.0065  0.4045 -0.7034
  792MOL0     C 4464   6.121   7.470   3.386 -0.2831  0.3011 -0.4482
  792MOL0     C 4465   6.090   7.558   3.493  0.8972 -0.0651 -0.6627
  792MOL0     C 4466   5.817   7.847   3.686 -0.7551  1.1332 -0.8486
  792MOL0     C 4467   5.859   7.978   3.677 -0.7099  0.5692  1.2141
  792MOL0     C 4468   5.790   8.083   3.742  0.7440 -1.0084 -0.6836
  792MOL0     C 4469   5.691   8.051   3.839  0.7801  0.7998  0.0967
  792MOL0     O 4470   5.621   8.158   3.901 -0.7229  0.3722  0.1098
  792MOL0     C 4471   5.489   8.143   3.950  0.9368 -0.6413 -0.4158
  792MOL0     C 4472   5.391   8.138   3.827 -0.7967  0.7002  0.3916
  792MOL0     C 4473   5.395   8.264   3.749  0.1028  0.4705  0.3232
  792MOL0     C 4474   5.498   8.268   3.640 -0.9275  0.2630  0.1134
  792MOL0     C 4475   5.482   8.393   3.570 -0.0978 -0.9856  1.0410
  792MOL0     C 4476   5.471   8.489   3.497 -0.0500 -1.5130  0.0664
  792MOL0     C 4477   5.648   7.916   3.851  0.0810  0.1548  0.2488
  792MOL0     C 4478   5.710   7.818   3.769  0.1548  0.1824 -0.1740
  792MOL0     H 4479   6.077   7.837   3.301 -5.1021 -1.3703 -2.6723
  792MOL0     H 4480   6.168   7.688   3.139 -0.9745  2.4042  0.5236
  792MOL0     H 4481   6.384   7.311   3.151  3.3563 -0.7245  1.4293
  792MOL0     H 4482   6.362   7.392   3.310  1.7555 -0.4668 -1.4719
  792MOL0     H 4483   6.526   7.498   3.148  1.0145  0.5864 -1.3121
  792MOL0     H 4484   6.383   7.603   3.189 -2.2216 -1.2116 -0.0377
  792MOL0     H 4485   6.279   7.518   2.965  0.2508  2.1016 -0.7553
  792MOL0     H 4486   6.434   7.432   2.941  1.8708 -0.1340  2.2134
  792MOL0     H 4487   6.408   7.743   2.947 -1.1986 -0.6110 -0.0828
  792MOL0     H 4488   6.556   7.644   2.940 -0.3385 -0.2550  0.6349
  792MOL0     H 4489   6.505   7.544   2.743  2.7628  0.9451  1.7558
  792MOL0     H 4490   6.502   7.720   2.731 -1.8484  2.4622  3.2149
  792MOL0     H 4491   6.241   7.695   2.743  1.0112  0.2925  1.8170
  792MOL0     H 4492   6.258   7.527   2.724 -0.0019  0.8197  0.8324
  792MOL0     H 4493   6.379   7.726   2.514 -0.4731 -0.5943 -0.2254
  792MOL0     H 4494   6.373   7.554   2.514 -1.6211 -0.8253 -0.3600
  792MOL0     H 4495   6.131   7.754   2.509  0.5235 -0.2019 -1.3219
  792MOL0     H 4496   6.105   7.588   2.504 -2.2172  3.0293  2.8319
  792MOL0     H 4497   6.416   7.644   2.276  0.1933 -3.6971 -2.6090
  792MOL0     H 4498   6.486   7.794   2.100  0.8120  0.9170 -2.3174
  792MOL0     H 4499   6.354   7.888   2.006 -2.7809  0.7754  0.8873
  792MOL0     H 4500   6.306   7.638   1.925 -1.5039  1.8595 -2.2506
  792MOL0     H 4501   6.478   7.619   1.953  0.7135  0.9154  1.2065
  792MOL0     H 4502   6.361   7.828   1.767  0.5189  0.5403 -0.0452
  792MOL0     H 4503   6.529   7.808   1.798 -0.8456  0.7970  2.6639
  792MOL0     H 4504   6.530   7.583   1.709  0.4615  1.5883  1.1120
  792MOL0     H 4505   6.491   7.705   1.591  1.6256  1.7252  2.1205
  792MOL0     H 4506   6.132   7.454   1.580 -2.0530  2.7269 -2.1267
  792MOL0     H 4507   6.114   7.295   1.408 -0.9698  2.0374  4.7005
  792MOL0     H 4508   6.285   6.893   1.217 -2.1507  2.1431  1.6815
  792MOL0     H 4509   6.298   6.738   1.020  1.0806 -1.0563 -2.7237
  792MOL0     H 4510   6.075   6.895   0.646 -0.3188  0.6663 -2.4164
  792MOL0     H 4511   6.156   6.749   0.580  1.3673 -0.4945  0.3578
  792MOL0     H 4512   6.372   6.863   0.623 -0.9863 -1.4979  2.5710
  792MOL0     H 4513   6.289   7.011   0.656  1.4054  1.1431 -2.4800
  792MOL0     H 4514   6.188   7.017   0.422  1.0336  0.8283 -2.0169
  792MOL0     H 4515   6.246   6.853   0.401 -1.9035  0.0702  0.1270
  792MOL0     H 4516   6.400   7.103   0.436  1.0416 -0.8953  3.9032
  792MOL0     H 4517   6.473   6.943   0.441 -1.0172 -1.3373  0.0474
  792MOL0     H 4518   6.343   6.899   0.204 -1.2365  1.8346 -0.9386
  792MOL0     H 4519   6.506   6.935   0.216 -0.1032  0.1225 -2.6004
  792MOL0     H 4520   6.465   7.176   0.207 -0.3504 -0.2728  0.9460
  792MOL0     H 4521   6.297   7.147   0.171 -0.6238 -0.3376  2.1760
  792MOL0     H 4522   6.537   7.135   0.001 -0.3087  1.7216  1.9805
  792MOL0     H 4523   6.420   7.006  -0.041  0.5175 -1.2921  1.9091
  792MOL0     H 4524   6.404   7.199  -0.164  2.5753 -2.0713  1.6644
  792MOL0     H 4525   6.371   7.309  -0.041  1.0073 -0.4342 -1.2607
  792MOL0     H 4526   6.082   7.041   0.796 -1.2397 -1.0306  0.0285
  792MOL0     H 4527   6.109   7.197   0.991 -0.5847 -0.2835 -1.1111
  792MOL0     H 4528   6.520   7.370   1.305 -0.8982 -1.4120 -0.4769
  792MOL0     H 4529   6.556   7.470   1.517 -0.8384 -0.2587 -0.9005
  792MOL0     H 4530   6.146   7.369   3.416 -0.3041  0.4001 -0.0932
  792MOL0     H 4531   6.085   7.508   3.589  1.2719  1.1255 -0.0015
  792MOL0     H 4532   5.944   8.009   3.617 -0.3941 -1.2810  0.6456
  792MOL0     H 4533   5.822   8.187   3.732 -1.1476  0.4316  4.8196
  792MOL0     H 4534   5.471   8.224   4.020  0.0038 -2.0691  1.0705
  792MOL0     H 4535   5.477   8.052   4.010 -2.3530  0.1870  0.3778
  792MOL0     H 4536   5.410   8.053   3.760 -0.1185  1.3472 -0.2634
  792MOL0     H 4537   5.286   8.125   3.855 -0.8729  0.7180  0.1154
  792MOL0     H 4538   5.411   8.346   3.820 -0.3178  1.2887 -0.4999
  792MOL0     H 4539   5.297   8.268   3.701 -0.2467  1.1703  1.0695
  792MOL0     H 4540   5.591   8.275   3.698 -0.9100 -2.4567  0.5297
  792MOL0     H 4541   5.495   8.176   3.581 -2.6394 -0.4849  1.3065
  792MOL0     H 4542   5.476   8.581   3.442  1.3773 -0.5673  1.6807
  792MOL0     H 4543   5.562   7.894   3.914 -0.2860 -0.0137 -0.2968
  792MOL0     H 4544   5.676   7.715   3.778 -2.4274  0.9233 -0.7245
  793MOL0     O 4545   8.999   4.243   2.863 -0.2033 -0.2874 -1.0300
  793MOL0     C 4546   9.076   4.174   2.797  0.2086  0.6350  0.6299
  793MOL0     O 4547   9.174   4.219   2.717 -0.0102 -1.2397  0.1401
  793MOL0     C 4548   9.167   4.349   2.677  0.2314  0.6655 -1.0608
  793MOL0     C 4549   9.129   4.383   2.545  0.5522  0.3044 -0.3201
  793MOL0     C 4550   9.110   4.517   2.505 -0.1266  1.4834 -0.0009
  793MOL0     C 4551   9.151   4.616   2.592 -0.1499 -0.6590 -0.2618
  793MOL0     O 4552   9.143   4.743   2.537  0.0340  0.3977 -0.4115
  793MOL0     C 4553   9.208   4.849   2.613  1.0460 -0.4296  0.8626
  793MOL0     C 4554   9.150   4.983   2.563  1.1799 -0.2177  0.4572
  793MOL0     C 4555   9.003   5.024   2.597 -0.3695  0.5867  0.3063
  793MOL0     C 4556   8.902   4.949   2.509  1.5125  0.5528  0.2083
  793MOL0     C 4557   8.749   4.969   2.543 -0.1380  0.0259 -0.2127
  793MOL0     C 4558   8.703   5.102   2.601 -0.2914 -0.4133  0.9009
  793MOL0     C 4559   8.720   5.222   2.495 -0.2021  0.9476 -0.9531
  793MOL0     C 4560   8.625   5.346   2.516 -0.2310  0.6971  1.4725
  793MOL0     N 4561   8.650   5.448   2.414  0.2405  0.7298  0.2817
  793MOL0     C 4562   8.567   5.463   2.313 -0.6936  0.2150  0.4182
  793MOL0     C 4563   8.609   5.569   2.242 -1.2692  0.0244 -0.0498
  793MOL0     C 4564   8.531   5.612   2.117  0.4575  0.3158 -0.9044
  793MOL0     C 4565   8.632   5.692   2.027 -0.5716 -0.3106  1.2391
  793MOL0     C 4566   8.611   5.847   2.020  0.2407  0.4774 -0.4767
  793MOL0     C 4567   8.717   5.908   1.931  0.7231 -0.4229 -0.1157
  793MOL0     O 4568   8.841   5.938   2.000 -0.3946 -1.0976  0.4429
  793MOL0     C 4569   8.948   5.851   1.998 -0.7384  0.3478 -0.1462
  793MOL0     C 4570   8.952   5.736   1.924 -0.1270  0.4751 -0.1967
  793MOL0     C 4571   9.074   5.669   1.920  0.2235 -0.0266 -0.2647
  793MOL0     C 4572   9.181   5.718   2.001 -0.3615  1.1479  0.0920
  793MOL0     C 4573   9.301   5.632   2.010  0.3834 -0.5770  0.7466
  793MOL0     O 4574   9.418   5.694   2.059  0.0689 -0.2582 -0.4677
  793MOL0     C 4575   9.537   5.651   2.011 -0.1839 -0.0309 -0.2925
  793MOL0     C 4576   9.581   5.522   2.034 -0.8038 -0.3847  0.2319
  793MOL0     C 4577   9.697   5.481   1.976 -0.3061 -0.4310 -0.3684
  793MOL0     C 4578   9.764   5.543   1.874  1.0725  0.3366 -0.3968
  793MOL0     O 4579   9.870   5.479   1.809 -0.0138  0.1298  0.2540
  793MOL0     C 4580   9.968   5.529   1.709 -0.3342  0.4792 -0.5859
  793MOL0     C 4581  10.107   5.477   1.751  0.0039  0.3166  0.4917
  793MOL0     C 4582  10.223   5.564   1.704  0.1413  0.4464 -0.1449
  793MOL0     C 4583  10.348   5.479   1.718  0.8599  0.4467 -1.2601
  793MOL0     C 4584  10.475   5.531   1.676 -0.3214  0.2167 -0.4502
  793MOL0     C 4585  10.475   5.614   1.544 -0.8609  0.4379 -0.2380
  793MOL0     C 4586  10.458   5.528   1.413  0.2430  0.6779 -0.2394
  793MOL0     C 4587  10.450   5.619   1.291  0.0921  0.4465  1.4726
  793MOL0    Cl 4588  10.285   5.709   1.276  0.1450  0.0672  0.5268
  793MOL0     C 4589   9.706   5.665   1.837 -0.3807 -0.9327 -0.2298
  793MOL0     C 4590   9.598   5.721   1.914 -0.2091 -0.5830 -0.7600
  793MOL0     O 4591   9.287   5.522   1.973  0.4354  0.7961  0.5206
  793MOL0     C 4592   9.175   5.842   2.070 -0.6731 -0.4602 -0.1147
  793MOL0     C 4593   9.056   5.908   2.073  1.8767 -0.1459 -0.6643
  793MOL0     N 4594   8.719   5.625   2.307  0.1331 -0.7833 -0.3067
  793MOL0     N 4595   8.742   5.543   2.402 -0.7051  0.7165 -1.2651
  793MOL0     C 4596   9.193   4.575   2.729 -0.1220  0.2286 -1.1801
  793MOL0     C 4597   9.199   4.445   2.783  0.6466 -0.1083  0.4766
  793MOL0     C 4598   9.052   4.029   2.788  0.2507  0.0333  0.8949
  793MOL0     C 4599   9.134   3.960   2.696  0.7470 -0.3257  0.1214
  793MOL0     C 4600   9.112   3.826   2.669  1.0852  0.3720 -0.6892
  793MOL0     C 4601   9.009   3.748   2.743  0.5031  0.3436 -0.1812
  793MOL0     O 4602   8.982   3.616   2.707 -0.8115 -0.2918 -0.3453
  793MOL0     C 4603   8.865   3.547   2.723 -0.2564  0.1272  0.0100
  793MOL0     C 4604   8.868   3.416   2.653 -0.3592 -0.2950 -0.1606
  793MOL0     C 4605   8.805   3.428   2.514  0.7024  0.3671 -0.1930
  793MOL0     C 4606   8.877   3.517   2.408  0.9624 -0.4743 -0.4284
  793MOL0     C 4607   8.790   3.531   2.294  0.0937 -0.1945  0.4116
  793MOL0     C 4608   8.705   3.552   2.210 -0.1607 -0.6126 -0.1747
  793MOL0     C 4609   8.922   3.827   2.827  1.0610 -0.4862  0.6473
  793MOL0     C 4610   8.945   3.959   2.850  0.4582  0.6244 -1.0041
  793MOL0     H 4611   9.105   4.300   2.478  1.6613 -0.4366  0.1723
  793MOL0     H 4612   9.074   4.533   2.404 -3.9294  0.4579  1.0461
  793MOL0     H 4613   9.313   4.838   2.585  0.6551 -0.9453 -0.4943
  793MOL0     H 4614   9.192   4.845   2.721 -1.8983  0.7434  0.5660
  793MOL0     H 4615   9.158   4.981   2.454  1.3576  5.5432  0.0482
  793MOL0     H 4616   9.219   5.063   2.592  0.4696  1.1045 -1.2868
  793MOL0     H 4617   8.987   5.132   2.587 -3.6159  0.0828 -1.3513
  793MOL0     H 4618   8.999   5.001   2.703  4.7171  0.8955  0.7899
  793MOL0     H 4619   8.908   4.982   2.405 -0.1773 -0.6068 -0.2980
  793MOL0     H 4620   8.918   4.841   2.511 -2.1971 -0.1382  2.7055
  793MOL0     H 4621   8.713   4.894   2.615 -2.7339  0.2448 -1.1610
  793MOL0     H 4622   8.692   4.944   2.453 -1.1437 -3.3691  1.2105
  793MOL0     H 4623   8.748   5.112   2.700 -1.4357 -2.7468  1.7561
  793MOL0     H 4624   8.595   5.092   2.616 -0.6363  2.6106  0.8642
  793MOL0     H 4625   8.823   5.257   2.508 -0.5026  2.0789 -1.4616
  793MOL0     H 4626   8.706   5.181   2.395  2.2533  2.4094 -1.9929
  793MOL0     H 4627   8.627   5.392   2.615  0.0786  2.0651  0.8543
  793MOL0     H 4628   8.520   5.317   2.515  0.1131 -0.5971  0.5336
  793MOL0     H 4629   8.487   5.399   2.276  0.0645  0.2709 -1.3959
  793MOL0     H 4630   8.440   5.660   2.154  1.2512  1.2040 -0.0107
  793MOL0     H 4631   8.509   5.521   2.061 -2.1629 -1.3103  2.4176
  793MOL0     H 4632   8.602   5.661   1.927 -2.3700  1.4556  1.1577
  793MOL0     H 4633   8.734   5.667   2.056 -0.1250 -0.8615 -0.6636
  793MOL0     H 4634   8.512   5.865   1.978  0.9574  3.4093 -1.0983
  793MOL0     H 4635   8.609   5.892   2.120  1.7389  1.0919 -0.6949
  793MOL0     H 4636   8.684   6.009   1.902 -0.0365 -1.1172 -1.7918
  793MOL0     H 4637   8.729   5.846   1.842 -0.5398  1.0933 -1.3937
  793MOL0     H 4638   8.870   5.686   1.873 -1.5006  2.7227 -0.3311
  793MOL0     H 4639   9.067   5.573   1.868 -1.8097 -0.3693  0.5576
  793MOL0     H 4640   9.519   5.457   2.094 -3.0365 -1.8954 -3.3198
  793MOL0     H 4641   9.732   5.388   2.021  0.7678  1.2774  2.6086
  793MOL0     H 4642   9.973   5.638   1.718  0.6365  0.4001 -0.0720
  793MOL0     H 4643   9.942   5.500   1.607  0.6346 -1.3060 -0.3557
  793MOL0     H 4644  10.124   5.380   1.703  3.1980  1.1672 -0.3106
  793MOL0     H 4645  10.110   5.460   1.859 -0.4228 -3.7262  0.0152
  793MOL0     H 4646  10.227   5.656   1.763 -0.1936 -0.7298  1.7849
  793MOL0     H 4647  10.217   5.594   1.599 -0.4400 -4.4476 -1.7312
  793MOL0     H 4648  10.361   5.433   1.817  1.7278 -2.2062 -2.5297
  793MOL0     H 4649  10.344   5.387   1.659 -0.5497 -1.8984  2.1564
  793MOL0     H 4650  10.544   5.448   1.662 -2.0119 -1.7874  2.0890
  793MOL0     H 4651  10.524   5.579   1.761 -2.7912  0.4598  0.9293
  793MOL0     H 4652  10.568   5.672   1.537  0.9026 -2.1252  0.6938
  793MOL0     H 4653  10.401   5.695   1.546 -0.8676  0.4965  3.3587
  793MOL0     H 4654  10.536   5.451   1.414 -1.0752 -0.9127  3.7816
  793MOL0     H 4655  10.367   5.467   1.417  0.7238 -0.4317 -3.3195
  793MOL0     H 4656  10.462   5.552   1.205  3.1884  0.1955  1.9639
  793MOL0     H 4657  10.536   5.687   1.281 -1.8312  2.6569 -2.2350
  793MOL0     H 4658   9.733   5.702   1.739  0.5739 -1.3321 -0.1313
  793MOL0     H 4659   9.546   5.802   1.865  1.2977 -0.3764 -2.1211
  793MOL0     H 4660   9.257   5.878   2.132 -0.6564 -3.5432  1.9235
  793MOL0     H 4661   9.037   6.005   2.116  0.2353  0.1809 -2.0122
  793MOL0     H 4662   9.210   4.647   2.808  2.1399 -1.3690 -0.1120
  793MOL0     H 4663   9.225   4.416   2.884 -2.2108 -1.3274  0.9722
  793MOL0     H 4664   9.197   4.004   2.619 -1.1713  1.8998 -0.2635
  793MOL0     H 4665   9.175   3.773   2.598  0.9029 -3.2098  1.5841
  793MOL0     H 4666   8.788   3.608   2.675 -0.9101 -0.0876  0.7543
  793MOL0     H 4667   8.834   3.545   2.828 -3.3832  1.8422 -0.7397
  793MOL0     H 4668   8.966   3.367   2.647 -0.6789 -1.2030  1.4499
  793MOL0     H 4669   8.802   3.346   2.704 -2.7014  0.6688 -1.6998
  793MOL0     H 4670   8.703   3.466   2.524 -0.7901 -3.2371  0.0414
  793MOL0     H 4671   8.806   3.323   2.484  2.0096 -0.4065  2.2644
  793MOL0     H 4672   8.913   3.609   2.454  2.7281 -2.1618  1.7692
  793MOL0     H 4673   8.969   3.466   2.381  1.8530 -0.3003  2.0229
  793MOL0     H 4674   8.641   3.568   2.125 -2.9950 -3.2598  1.2552
  793MOL0     H 4675   8.835   3.788   2.879  0.0520  1.3007  0.3845
  793MOL0     H 4676   8.878   4.007   2.921  1.8145 -0.0662  0.8184
  794MOL0     O 4677   8.822   1.529   1.568 -0.3380  0.2780 -0.5742
  794MOL0     C 4678   8.882   1.482   1.667 -1.2364 -0.0700  0.6495
  794MOL0     O 4679   8.927   1.559   1.771 -0.1474  0.6097 -0.5179
  794MOL0     C 4680   8.898   1.696   1.765  0.0544 -0.8336  0.4444
  794MOL0     C 4681   8.815   1.748   1.867 -0.2739  1.7926  0.8437
  794MOL0     C 4682   8.780   1.883   1.863  0.5080  0.0688 -0.5488
  794MOL0     C 4683   8.836   1.983   1.786 -0.1496 -0.4147  0.8959
  794MOL0     O 4684   8.811   2.118   1.795  0.1981  0.2065  0.0041
  794MOL0     C 4685   8.883   2.225   1.725 -0.3239 -0.2776  0.2594
  794MOL0     C 4686   8.990   2.277   1.811 -0.2642  0.1865  0.2079
  794MOL0     C 4687   8.910   2.352   1.926  0.1726 -0.1565 -0.8013
  794MOL0     C 4688   9.002   2.462   1.988  0.8110  0.3072  0.0659
  794MOL0     C 4689   9.020   2.448   2.135 -0.3625 -0.3130  0.6210
  794MOL0     C 4690   9.086   2.558   2.214 -0.0808 -0.5740 -1.3799
  794MOL0     C 4691   9.221   2.615   2.167  0.7869 -0.1321  0.2009
  794MOL0     C 4692   9.337   2.519   2.188 -0.1286 -0.5003  0.4550
  794MOL0     N 4693   9.380   2.511   2.324  0.0175 -0.5597  0.2239
  794MOL0     C 4694   9.414   2.603   2.425 -0.6090 -0.3524  0.2060
  794MOL0     C 4695   9.465   2.528   2.526 -0.2978 -0.3467 -0.1288
  794MOL0     C 4696   9.518   2.577   2.658  0.9724 -0.3268  0.0180
  794MOL0     C 4697   9.674   2.603   2.629 -0.3310  1.0301  0.1349
  794MOL0     C 4698   9.733   2.705   2.721 -0.2019 -0.0603 -0.6985
  794MOL0     C 4699   9.879   2.736   2.715 -1.4164  0.3425  0.4453
  794MOL0     O 4700   9.964   2.616   2.694 -0.0648 -0.0353  0.7024
  794MOL0     C 4701   9.997   2.534   2.799 -0.9811  1.0451  0.2936
  794MOL0     C 4702  10.071   2.416   2.766 -0.3351  0.2504 -0.5313
  794MOL0     C 4703  10.107   2.334   2.870 -0.6187  0.4573  0.0047
  794MOL0     C 4704  10.066   2.355   3.005 -0.1905  0.9498 -0.4434
  794MOL0     C 4705  10.089   2.253   3.114 -0.5752 -0.1364  0.7222
  794MOL0     O 4706  10.190   2.160   3.094  0.2647  0.0754  0.0188
  794MOL0     C 4707  10.212   2.048   3.181 -0.0958 -0.0724  0.0045
  794MOL0     C 4708  10.121   2.014   3.284 -0.0955  0.0535 -0.9223
  794MOL0     C 4709  10.154   1.902   3.370 -0.0083 -0.5258 -0.1346
  794MOL0     C 4710  10.284   1.857   3.381  0.2185  0.4301  0.4397
  794MOL0     O 4711  10.306   1.759   3.476 -0.2954 -0.1533  0.0783
  794MOL0     C 4712  10.420   1.672   3.453  0.2313  0.4284 -0.6735
  794MOL0     C 4713  10.377   1.542   3.520 -0.5031  0.5920 -0.6833
  794MOL0     C 4714  10.495   1.438   3.492  0.4049  0.0193  0.2929
  794MOL0     C 4715  10.523   1.344   3.610 -0.6687  0.7186 -0.5947
  794MOL0     C 4716  10.660   1.272   3.608  1.0881 -0.7741  0.3028
  794MOL0     C 4717  10.685   1.152   3.517 -0.7356  0.3496  0.0575
  794MOL0     C 4718  10.802   1.070   3.568 -0.2193 -0.6061 -0.8248
  794MOL0     C 4719  10.830   0.947   3.479 -0.1071 -0.3103  0.9837
  794MOL0    Cl 4720  10.865   1.000   3.312 -0.1789  0.0248 -0.2807
  794MOL0     C 4721  10.373   1.902   3.280  0.1939  0.2690  0.9860
  794MOL0     C 4722  10.337   1.986   3.176  0.7296  0.2770 -0.2283
  794MOL0     O 4723  10.040   2.278   3.226 -0.1515  0.0779 -0.2645
  794MOL0     C 4724   9.984   2.464   3.030 -0.0153  0.7858  0.0154
  794MOL0     C 4725   9.954   2.548   2.932  0.1496 -0.3574 -0.3793
  794MOL0     N 4726   9.459   2.398   2.499 -0.1278 -0.4806 -0.0908
  794MOL0     N 4727   9.404   2.386   2.376 -0.5479 -0.2977 -0.4794
  794MOL0     C 4728   8.922   1.928   1.692  0.1052 -0.2837 -0.2598
  794MOL0     C 4729   8.945   1.788   1.676 -0.5694  0.3521 -0.0512
  794MOL0     C 4730   8.903   1.339   1.674 -0.6181  0.0654 -0.2194
  794MOL0     C 4731   8.837   1.263   1.575 -0.0154 -0.2372  0.4567
  794MOL0     C 4732   8.851   1.124   1.568 -0.2128 -0.1860  0.0020
  794MOL0     C 4733   8.916   1.061   1.668 -0.3847 -0.0773  0.7387
  794MOL0     O 4734   8.914   0.925   1.662 -0.0541  0.0214 -0.2825
  794MOL0     C 4735   9.013   0.846   1.737  1.4637 -0.5091  1.0535
  794MOL0     C 4736   9.035   0.726   1.643  0.0219  0.5054  0.3534
  794MOL0     C 4737   9.139   0.629   1.721 -0.8729 -0.3606  0.5769
  794MOL0     C 4738   9.058   0.550   1.825  0.1343  0.5511 -0.0456
  794MOL0     C 4739   9.000   0.429   1.752 -0.7698  0.5380 -1.0621
  794MOL0     C 4740   8.955   0.349   1.665 -0.8040  0.4046  0.1068
  794MOL0     C 4741   8.993   1.133   1.767  1.5897 -0.3162 -0.3306
  794MOL0     C 4742   8.987   1.271   1.769 -0.9018  1.1618 -0.1226
  794MOL0     H 4743   8.765   1.685   1.940 -1.0108  2.2864  0.7777
  794MOL0     H 4744   8.704   1.921   1.931 -0.1293 -1.5519 -0.3013
  794MOL0     H 4745   8.816   2.305   1.693  0.0518 -1.7265 -5.1457
  794MOL0     H 4746   8.930   2.192   1.632  1.2095 -1.6101  1.4535
  794MOL0     H 4747   9.067   2.342   1.769 -1.1191  1.1556  0.1213
  794MOL0     H 4748   9.043   2.197   1.864 -2.9140 -1.1145  1.0706
  794MOL0     H 4749   8.887   2.287   2.011  2.0845  0.3062  0.1478
  794MOL0     H 4750   8.819   2.401   1.892 -0.6102  1.3739  3.0014
  794MOL0     H 4751   9.102   2.454   1.947  0.7752 -0.5862  0.1404
  794MOL0     H 4752   8.960   2.561   1.965  0.8730  0.9293  2.3704
  794MOL0     H 4753   9.077   2.357   2.154  0.9648  0.7050  1.7117
  794MOL0     H 4754   8.927   2.433   2.192 -0.8300  3.4194  1.1316
  794MOL0     H 4755   9.095   2.511   2.312 -1.5930  0.0654 -0.9041
  794MOL0     H 4756   9.015   2.638   2.235  0.9932 -0.2568  1.5917
  794MOL0     H 4757   9.209   2.641   2.062 -2.0529 -1.9182 -0.0164
  794MOL0     H 4758   9.237   2.699   2.235 -0.1340 -1.9198  2.7920
  794MOL0     H 4759   9.415   2.559   2.123 -0.3304 -0.7911  0.0236
  794MOL0     H 4760   9.320   2.426   2.133  2.7915 -1.3201  0.7642
  794MOL0     H 4761   9.411   2.711   2.424  0.3001 -0.3166 -0.8062
  794MOL0     H 4762   9.495   2.506   2.737 -3.7578  0.8152 -0.0059
  794MOL0     H 4763   9.474   2.672   2.691  0.1966 -1.9900  4.3862
  794MOL0     H 4764   9.697   2.644   2.530  1.7251 -3.4284 -1.4764
  794MOL0     H 4765   9.719   2.504   2.638 -2.5627  0.1157  2.7174
  794MOL0     H 4766   9.675   2.797   2.706  0.0856 -0.0465 -1.8451
  794MOL0     H 4767   9.704   2.687   2.825  1.8209  4.1209  0.8142
  794MOL0     H 4768   9.910   2.804   2.795  1.4565  2.8240 -2.5147
  794MOL0     H 4769   9.887   2.804   2.630 -3.8511 -2.8921 -2.6287
  794MOL0     H 4770  10.087   2.384   2.664  1.4070 -1.6596  0.2720
  794MOL0     H 4771  10.171   2.251   2.840 -0.3058  1.8416 -3.7349
  794MOL0     H 4772  10.020   2.054   3.274 -0.0060  0.0495 -1.8917
  794MOL0     H 4773  10.077   1.869   3.439 -0.8254  0.5301 -0.5166
  794MOL0     H 4774  10.514   1.712   3.494 -0.6375  1.2224  0.5814
  794MOL0     H 4775  10.436   1.644   3.348  1.1503 -1.5741 -0.0476
  794MOL0     H 4776  10.289   1.501   3.469 -0.6973  0.3974 -0.1922
  794MOL0     H 4777  10.372   1.553   3.629  1.1645 -1.5028 -0.3300
  794MOL0     H 4778  10.590   1.491   3.475 -1.7534  3.3099 -3.1785
  794MOL0     H 4779  10.460   1.379   3.407 -0.3209  3.3062 -1.8875
  794MOL0     H 4780  10.516   1.402   3.703  1.4183  0.6106 -0.3191
  794MOL0     H 4781  10.446   1.266   3.608  1.8087 -2.0244  1.4359
  794MOL0     H 4782  10.669   1.231   3.709 -1.6133 -0.7684  0.6143
  794MOL0     H 4783  10.746   1.338   3.592  1.6316 -1.8947 -1.7199
  794MOL0     H 4784  10.694   1.185   3.414 -4.9190 -2.1585 -1.3422
  794MOL0     H 4785  10.591   1.096   3.524  0.1763 -1.2101  0.5247
  794MOL0     H 4786  10.888   1.135   3.556 -1.0496  0.7140  0.1203
  794MOL0     H 4787  10.801   1.045   3.675 -0.8412 -0.6400 -0.8304
  794MOL0     H 4788  10.748   0.875   3.490 -0.4481 -0.4903 -1.8581
  794MOL0     H 4789  10.917   0.899   3.524  0.3363  0.5801  1.0965
  794MOL0     H 4790  10.467   1.848   3.277  0.4844  0.6150 -3.8933
  794MOL0     H 4791  10.418   2.004   3.107 -0.1423 -1.5988 -1.8618
  794MOL0     H 4792   9.945   2.500   3.124 -1.5331  0.3392 -0.4180
  794MOL0     H 4793   9.886   2.625   2.967  0.4226 -0.8144  1.2508
  794MOL0     H 4794   8.980   1.994   1.628  0.8905  0.3066  1.0142
  794MOL0     H 4795   9.008   1.739   1.602  1.0009 -0.5406  1.7973
  794MOL0     H 4796   8.768   1.311   1.507 -0.5793  0.6413  1.6142
  794MOL0     H 4797   8.784   1.073   1.500 -2.3181  1.1897  0.9437
  794MOL0     H 4798   8.977   0.813   1.835  3.2711 -0.9596  1.6107
  794MOL0     H 4799   9.110   0.895   1.749 -0.2729  2.6726  3.8027
  794MOL0     H 4800   8.951   0.663   1.614  0.9171  0.1591 -1.6655
  794MOL0     H 4801   9.091   0.758   1.555  0.6887 -2.7029 -0.5413
  794MOL0     H 4802   9.223   0.687   1.760  0.3723 -1.3416 -0.5170
  794MOL0     H 4803   9.176   0.555   1.648 -2.4142 -0.6040 -0.0009
  794MOL0     H 4804   9.123   0.510   1.903  0.4841 -2.7091 -1.7993
  794MOL0     H 4805   8.970   0.598   1.869 -0.1993 -0.2972  0.2395
  794MOL0     H 4806   8.914   0.295   1.582  1.1927  1.8697 -1.9589
  794MOL0     H 4807   9.060   1.079   1.833  1.5602  2.2680  1.9726
  794MOL0     H 4808   9.056   1.326   1.833  0.5353  1.0402 -1.5203
  795MOL0     O 4809   0.203   5.450   0.657 -0.2065  0.2201 -0.1571
  795MOL0     C 4810   0.163   5.417   0.542 -0.4822  0.1327  0.9067
  795MOL0     O 4811   0.210   5.473   0.422 -0.1413 -0.6633 -0.1672
  795MOL0     C 4812   0.298   5.578   0.447  0.3570  0.2526 -0.4162
  795MOL0     C 4813   0.252   5.710   0.413 -0.8293  0.2000 -0.0578
  795MOL0     C 4814   0.331   5.817   0.432 -0.6912 -0.2560  0.1336
  795MOL0     C 4815   0.459   5.796   0.487  0.0536 -0.9799 -0.1036
  795MOL0     O 4816   0.535   5.910   0.509  0.2683  0.4254  0.2022
  795MOL0     C 4817   0.471   6.041   0.528  0.1688  0.1736  0.1054
  795MOL0     C 4818   0.578   6.134   0.576  0.3315 -0.1607  1.3731
  795MOL0     C 4819   0.528   6.284   0.583  0.6725 -0.4084  0.4781
  795MOL0     C 4820   0.646   6.380   0.619  1.0954  0.6665  0.9019
  795MOL0     C 4821   0.604   6.489   0.712  0.0198 -0.8291 -0.4712
  795MOL0     C 4822   0.699   6.604   0.724 -1.1599  0.0522 -0.5415
  795MOL0     C 4823   0.684   6.656   0.872 -0.2013 -0.6712  0.0979
  795MOL0     C 4824   0.759   6.572   0.969 -0.1494 -0.4694 -0.7990
  795MOL0     N 4825   0.906   6.589   0.968  0.6835 -0.5288  0.5487
  795MOL0     C 4826   0.981   6.507   0.883 -0.9125  0.3384 -0.0660
  795MOL0     C 4827   1.109   6.530   0.916  0.2795 -0.3553 -0.4584
  795MOL0     C 4828   1.218   6.458   0.839 -0.8633 -0.2874 -0.4092
  795MOL0     C 4829   1.248   6.518   0.698  0.4962 -0.4419 -0.2531
  795MOL0     C 4830   1.267   6.677   0.698  0.0896 -0.2685  0.2547
  795MOL0     C 4831   1.146   6.748   0.642 -0.1425  0.2040  0.1670
  795MOL0     O 4832   1.094   6.692   0.519 -0.7425  0.3895 -0.7614
  795MOL0     C 4833   0.992   6.761   0.462 -0.6141  0.3500  0.6634
  795MOL0     C 4834   0.922   6.881   0.498 -0.1158 -0.5016  0.7781
  795MOL0     C 4835   0.804   6.928   0.428  1.1244 -0.4838 -0.2706
  795MOL0     C 4836   0.771   6.870   0.311 -0.1346  0.0059  0.0151
  795MOL0     C 4837   0.656   6.931   0.234 -0.4398 -0.3244 -0.6697
  795MOL0     O 4838   0.614   6.865   0.123  0.2480  0.0651 -0.6217
  795MOL0     C 4839   0.501   6.898   0.062 -0.5949  0.5570  0.4444
  795MOL0     C 4840   0.500   6.881  -0.073  1.3180 -0.2349  0.0510
  795MOL0     C 4841   0.391   6.917  -0.159 -0.4607  0.7946  0.1520
  795MOL0     C 4842   0.283   6.971  -0.094 -0.6746 -0.5872 -0.6937
  795MOL0     O 4843   0.169   7.022  -0.160  0.1464  0.2403  0.7234
  795MOL0     C 4844   0.187   7.097  -0.283  0.6171 -0.6772  0.9249
  795MOL0     C 4845   0.085   7.211  -0.301 -0.4262  0.3118 -0.5051
  795MOL0     C 4846  -0.056   7.157  -0.341 -0.3071 -0.3627  0.5076
  795MOL0     C 4847  -0.156   7.262  -0.300 -0.6344 -0.0343  0.6497
  795MOL0     C 4848  -0.304   7.210  -0.308 -0.4255  0.1765  0.3746
  795MOL0     C 4849  -0.360   7.201  -0.444 -0.1356  0.5000 -0.0094
  795MOL0     C 4850  -0.374   7.321  -0.526 -0.4500  0.8853 -0.1370
  795MOL0     C 4851  -0.458   7.305  -0.659 -0.6134 -0.3515  0.0533
  795MOL0    Cl 4852  -0.403   7.169  -0.757 -0.6154  0.6351 -0.1589
  795MOL0     C 4853   0.274   6.986   0.047  0.3772  0.1516  0.1287
  795MOL0     C 4854   0.380   6.943   0.124 -0.2727  0.6431 -0.6113
  795MOL0     O 4855   0.607   7.032   0.279  0.1090 -0.5516 -0.3067
  795MOL0     C 4856   0.830   6.736   0.282  0.2931 -0.5590 -0.1188
  795MOL0     C 4857   0.930   6.692   0.357 -0.3477 -0.2347  0.4041
  795MOL0     N 4858   1.115   6.635   1.008 -0.7760 -0.1995 -0.1738
  795MOL0     N 4859   0.994   6.669   1.035 -0.5286 -0.3280 -0.2490
  795MOL0     C 4860   0.507   5.663   0.509  0.1465  0.5500 -0.8365
  795MOL0     C 4861   0.421   5.555   0.489  0.4838 -0.2164 -0.6181
  795MOL0     C 4862   0.048   5.320   0.542 -0.3773  0.2313  0.7528
  795MOL0     C 4863  -0.027   5.304   0.417  0.2268 -1.1302  0.0093
  795MOL0     C 4864  -0.130   5.204   0.422  0.0536 -0.4263 -0.2125
  795MOL0     C 4865  -0.181   5.144   0.542 -0.5862 -0.8258 -0.2696
  795MOL0     O 4866  -0.281   5.048   0.551 -0.7391 -0.5529  0.4669
  795MOL0     C 4867  -0.360   5.006   0.441  0.0367  0.5470 -0.0127
  795MOL0     C 4868  -0.323   4.864   0.407 -0.3051 -0.2346  0.0857
  795MOL0     C 4869  -0.347   4.750   0.509  0.3985 -0.3637 -0.0211
  795MOL0     C 4870  -0.308   4.776   0.653  0.1855  0.1773 -0.0029
  795MOL0     C 4871  -0.305   4.642   0.720 -0.8248  0.1430 -0.0737
  795MOL0     C 4872  -0.291   4.536   0.785 -0.4003  0.2241  0.6250
  795MOL0     C 4873  -0.103   5.172   0.653 -0.5067  0.3828  0.0383
  795MOL0     C 4874   0.010   5.252   0.647  0.2359 -1.0199 -0.4852
  795MOL0     H 4875   0.149   5.707   0.379 -1.0149 -0.9011  0.5584
  795MOL0     H 4876   0.284   5.914   0.425  1.4950  0.7568 -1.6585
  795MOL0     H 4877   0.386   6.043   0.596 -0.1517  2.2193 -0.2786
  795MOL0     H 4878   0.439   6.089   0.435  3.6803 -1.3934 -2.0992
  795MOL0     H 4879   0.665   6.137   0.509 -0.7014  0.2030  0.0126
  795MOL0     H 4880   0.616   6.106   0.675 -3.2526 -0.1410  2.9036
  795MOL0     H 4881   0.440   6.297   0.646  0.6312  0.8832  0.1717
  795MOL0     H 4882   0.505   6.312   0.480  1.9259  1.6893  0.6995
  795MOL0     H 4883   0.718   6.320   0.675 -0.0241 -2.3014 -0.6453
  795MOL0     H 4884   0.680   6.426   0.526 -0.0868  0.6782  0.4630
  795MOL0     H 4885   0.579   6.446   0.809 -1.0948 -0.2297 -0.4806
  795MOL0     H 4886   0.506   6.520   0.675  0.6187  1.6253 -0.1486
  795MOL0     H 4887   0.678   6.690   0.660  1.4751  1.2014  0.0076
  795MOL0     H 4888   0.798   6.566   0.696 -1.2024 -0.9126  0.5265
  795MOL0     H 4889   0.717   6.761   0.871  2.3123 -1.3190 -2.7630
  795MOL0     H 4890   0.577   6.651   0.891 -0.7287  0.4145 -2.2281
  795MOL0     H 4891   0.744   6.465   0.956  0.9892 -0.4948 -2.0810
  795MOL0     H 4892   0.730   6.601   1.071  3.8354 -2.0614  1.0121
  795MOL0     H 4893   0.934   6.435   0.817 -1.4275 -1.0917  1.7974
  795MOL0     H 4894   1.196   6.351   0.844  0.3864 -0.5016  1.5865
  795MOL0     H 4895   1.315   6.472   0.885  0.3998 -0.9395 -2.6896
  795MOL0     H 4896   1.171   6.480   0.631  0.5457 -1.7338  0.3757
  795MOL0     H 4897   1.339   6.475   0.656 -0.2894 -0.4451 -2.0202
  795MOL0     H 4898   1.282   6.707   0.802 -2.0374 -1.1869  0.8858
  795MOL0     H 4899   1.354   6.694   0.634  0.1313 -1.4734 -0.0485
  795MOL0     H 4900   1.155   6.856   0.654  2.4389 -0.0863  1.6420
  795MOL0     H 4901   1.068   6.722   0.715  0.6159 -0.2313  0.8352
  795MOL0     H 4902   0.949   6.955   0.573 -1.2764  1.5759 -0.7219
  795MOL0     H 4903   0.757   7.020   0.463  0.8185 -0.4444 -0.7826
  795MOL0     H 4904   0.596   6.862  -0.120  0.4925 -1.9928 -1.0103
  795MOL0     H 4905   0.396   6.891  -0.264  0.2730 -0.5536  0.5026
  795MOL0     H 4906   0.184   7.038  -0.376  0.6400  0.8308 -0.0605
  795MOL0     H 4907   0.289   7.134  -0.274  0.6669 -1.1982  2.8568
  795MOL0     H 4908   0.122   7.270  -0.386 -0.4609 -2.1543 -2.3531
  795MOL0     H 4909   0.078   7.270  -0.210  5.3367 -0.3710  0.7897
  795MOL0     H 4910  -0.075   7.063  -0.288  1.9943 -1.4031 -0.3845
  795MOL0     H 4911  -0.054   7.138  -0.449  0.5473  1.8435  0.0820
  795MOL0     H 4912  -0.139   7.290  -0.196  1.3326 -0.1625  0.4122
  795MOL0     H 4913  -0.141   7.343  -0.373 -1.0617  0.6364  1.2899
  795MOL0     H 4914  -0.360   7.279  -0.244  1.9304  3.3087 -0.6732
  795MOL0     H 4915  -0.296   7.108  -0.268  1.9329 -0.0801 -0.5674
  795MOL0     H 4916  -0.462   7.166  -0.427  0.3457  0.6126  4.2178
  795MOL0     H 4917  -0.311   7.126  -0.507  0.1192 -0.1054  0.8967
  795MOL0     H 4918  -0.435   7.384  -0.462 -1.9917 -1.5264  0.9175
  795MOL0     H 4919  -0.273   7.354  -0.552  0.2023 -1.4929 -0.9416
  795MOL0     H 4920  -0.452   7.389  -0.729  2.0227 -0.9279 -0.5055
  795MOL0     H 4921  -0.560   7.287  -0.623  0.0378 -0.5577  1.9356
  795MOL0     H 4922   0.183   7.020   0.095  1.0245 -2.7473  3.8585
  795MOL0     H 4923   0.364   6.921   0.229 -1.0778 -0.8757 -1.0157
  795MOL0     H 4924   0.787   6.678   0.201  0.0463  1.4545 -1.4914
  795MOL0     H 4925   0.964   6.589   0.343 -0.6522 -0.4512  1.1809
  795MOL0     H 4926   0.612   5.659   0.538 -0.2249  2.1323  0.9151
  795MOL0     H 4927   0.453   5.452   0.507  2.5651  0.7008  1.6081
  795MOL0     H 4928   0.005   5.337   0.319 -1.3455 -0.2677 -0.2484
  795MOL0     H 4929  -0.173   5.181   0.325  0.5941  0.3523 -0.6529
  795MOL0     H 4930  -0.348   5.060   0.347  0.5038 -1.3506 -1.1091
  795MOL0     H 4931  -0.462   5.017   0.477 -0.0234  2.5935 -0.7096
  795MOL0     H 4932  -0.382   4.833   0.320  2.4902 -4.2109 -0.6438
  795MOL0     H 4933  -0.216   4.861   0.384 -0.1140  0.7196  0.7731
  795MOL0     H 4934  -0.281   4.671   0.473  0.9447 -1.3120  2.7540
  795MOL0     H 4935  -0.452   4.722   0.505 -0.2821  1.6151  1.8037
  795MOL0     H 4936  -0.210   4.825   0.656 -1.0722  2.8735  2.3137
  795MOL0     H 4937  -0.382   4.840   0.702  1.2524 -0.3029  2.4212
  795MOL0     H 4938  -0.272   4.444   0.836  0.0596 -0.9126 -1.4760
  795MOL0     H 4939  -0.133   5.132   0.750  1.4729  2.0226  1.4071
  795MOL0     H 4940   0.068   5.270   0.736 -0.1042  3.4459 -0.9624
  796MOL0     O 4941   2.723   9.131   1.610 -0.2469 -0.3877  0.4822
  796MOL0     C 4942   2.650   9.044   1.662 -0.2235  0.3600 -1.0724
  796MOL0     O 4943   2.559   9.070   1.764  0.4836 -0.5922  0.7989
  796MOL0     C 4944   2.509   9.201   1.792  0.6367  0.4367  0.3872
  796MOL0     C 4945   2.511   9.311   1.706 -0.4363  0.0525  0.5786
  796MOL0     C 4946   2.453   9.441   1.755 -0.4237  0.4938 -0.7252
  796MOL0     C 4947   2.397   9.456   1.887  0.2027 -0.2510 -0.8390
  796MOL0     O 4948   2.355   9.580   1.938  1.0608  0.3137  0.0261
  796MOL0     C 4949   2.343   9.686   1.847 -0.2114  1.3982 -0.1333
  796MOL0     C 4950   2.275   9.798   1.916  0.0826  0.0029 -0.3893
  796MOL0     C 4951   2.373   9.906   1.963 -1.4572 -0.0210  1.0476
  796MOL0     C 4952   2.304  10.022   2.027 -0.4382 -0.8086 -0.6263
  796MOL0     C 4953   2.200  10.094   1.941  0.6070  0.8154 -0.2353
  796MOL0     C 4954   2.154  10.239   1.981  0.2444 -0.0557  0.5171
  796MOL0     C 4955   2.100  10.300   1.845  0.9137  0.9345  0.2865
  796MOL0     C 4956   2.064  10.448   1.863  0.0525  0.4930  0.0459
  796MOL0     N 4957   1.959  10.495   1.769  0.3453  0.1757  0.0450
  796MOL0     C 4958   1.855  10.576   1.797 -0.0732 -1.1424 -0.0462
  796MOL0     C 4959   1.776  10.587   1.687  0.4122  0.6480  0.1408
  796MOL0     C 4960   1.664  10.688   1.676  0.9849  0.4355  0.5779
  796MOL0     C 4961   1.706  10.820   1.614  0.1611  0.2124  0.0949
  796MOL0     C 4962   1.584  10.908   1.578 -0.4965 -0.4971  0.1381
  796MOL0     C 4963   1.615  11.056   1.600 -1.5475 -0.4840 -0.0705
  796MOL0     O 4964   1.731  11.117   1.530  0.4425  0.1054 -0.1131
  796MOL0     C 4965   1.712  11.182   1.413  0.1381  0.1606 -0.2801
  796MOL0     C 4966   1.615  11.163   1.310  0.1546 -0.5638 -0.0775
  796MOL0     C 4967   1.624  11.234   1.191 -0.7085  0.6273 -0.6432
  796MOL0     C 4968   1.715  11.341   1.183 -0.0378 -0.2273  1.5103
  796MOL0     C 4969   1.733  11.416   1.054  0.0702 -0.3814 -0.3019
  796MOL0     O 4970   1.823  11.519   1.068 -0.0482  0.4058  0.2434
  796MOL0     C 4971   1.864  11.590   0.962 -0.1074 -0.4047  0.5257
  796MOL0     C 4972   1.869  11.730   0.982 -0.3566  0.3525 -0.0004
  796MOL0     C 4973   1.902  11.814   0.879  0.5310  0.4949  0.2384
  796MOL0     C 4974   1.946  11.761   0.757  1.1354  0.8558  1.1284
  796MOL0     O 4975   1.975  11.848   0.654  0.3433 -0.0838  0.3219
  796MOL0     C 4976   1.863  11.898   0.572 -0.1670  0.7381 -0.7220
  796MOL0     C 4977   1.889  12.033   0.509  0.3584  0.2861  0.9047
  796MOL0     C 4978   1.783  12.041   0.391  0.1358 -0.7973 -0.8545
  796MOL0     C 4979   1.763  12.184   0.352 -0.1563  0.0387 -0.7621
  796MOL0     C 4980   1.637  12.204   0.254 -0.0283  0.0742 -0.8646
  796MOL0     C 4981   1.571  12.341   0.237  0.3967  0.6613 -1.2929
  796MOL0     C 4982   1.489  12.364   0.107 -0.8562  0.0143 -0.3518
  796MOL0     C 4983   1.581  12.375  -0.022  0.1703 -0.7507  0.3976
  796MOL0    Cl 4984   1.476  12.322  -0.150  0.1184  0.2605  0.3594
  796MOL0     C 4985   1.939  11.623   0.739 -0.4364 -0.0993 -0.8572
  796MOL0     C 4986   1.899  11.535   0.840  0.2828  0.6312 -0.6657
  796MOL0     O 4987   1.656  11.401   0.955 -0.2711  0.4754 -0.2279
  796MOL0     C 4988   1.807  11.374   1.290  0.1583 -0.5483 -0.3710
  796MOL0     C 4989   1.809  11.294   1.404 -0.0621  0.6138 -0.7009
  796MOL0     N 4990   1.842  10.506   1.594 -0.0049  0.0788  0.6302
  796MOL0     N 4991   1.948  10.454   1.638  0.4889  0.0387  0.6520
  796MOL0     C 4992   2.403   9.339   1.962  0.5974  0.5989 -0.3269
  796MOL0     C 4993   2.458   9.220   1.919  0.4461  0.2638  1.2252
  796MOL0     C 4994   2.651   8.908   1.606  1.1274  0.0466  1.0312
  796MOL0     C 4995   2.739   8.863   1.506 -0.4250 -0.2560  0.8512
  796MOL0     C 4996   2.751   8.739   1.449 -0.1464  0.2113 -0.0204
  796MOL0     C 4997   2.654   8.646   1.473  0.3908 -0.6952 -0.5019
  796MOL0     O 4998   2.654   8.531   1.405 -0.0866 -0.1380  0.0498
  796MOL0     C 4999   2.558   8.426   1.427 -0.1663 -0.2203  0.3168
  796MOL0     C 5000   2.610   8.319   1.524  0.2539 -0.9583 -0.0360
  796MOL0     C 5001   2.727   8.261   1.450  0.7631 -0.4226 -0.2686
  796MOL0     C 5002   2.811   8.173   1.522  0.3142  0.7136  0.6255
  796MOL0     C 5003   2.899   8.096   1.424  0.4583 -0.5549 -0.0408
  796MOL0     C 5004   2.959   8.048   1.333 -0.5250 -0.6798  0.1083
  796MOL0     C 5005   2.560   8.679   1.572  0.2510  0.6256  0.0403
  796MOL0     C 5006   2.552   8.808   1.639  0.7710 -0.4193 -0.1825
  796MOL0     H 5007   2.549   9.290   1.606 -1.3330  2.0904 -0.2557
  796MOL0     H 5008   2.477   9.528   1.695  2.4691  0.1659 -0.2059
  796MOL0     H 5009   2.284   9.638   1.768  1.2974 -3.1984  1.1694
  796MOL0     H 5010   2.443   9.713   1.813  0.7587 -2.8044 -1.2267
  796MOL0     H 5011   2.211   9.770   2.000 -1.5822 -0.3589 -1.7291
  796MOL0     H 5012   2.205   9.846   1.847 -1.9229  1.6660  2.5784
  796MOL0     H 5013   2.435   9.936   1.878 -1.9988  3.2932  1.6964
  796MOL0     H 5014   2.443   9.861   2.033  1.1394 -0.3839 -1.5712
  796MOL0     H 5015   2.268   9.976   2.120  1.3118  0.4172  0.7476
  796MOL0     H 5016   2.379  10.099   2.048  2.3267 -3.0000 -1.7940
  796MOL0     H 5017   2.107  10.037   1.957  0.8578  0.4694  0.0116
  796MOL0     H 5018   2.247  10.085   1.843  2.4467 -1.9983  0.7776
  796MOL0     H 5019   2.236  10.301   2.020 -3.2336  1.6572  6.2828
  796MOL0     H 5020   2.083  10.236   2.064  2.7282  3.9144  3.1156
  796MOL0     H 5021   2.165  10.286   1.758 -0.3918 -2.4263 -0.3136
  796MOL0     H 5022   2.005  10.248   1.828  1.1738  0.3854  0.4911
  796MOL0     H 5023   2.149  10.515   1.846 -1.0716  2.0503  0.2394
  796MOL0     H 5024   2.011  10.465   1.958 -3.1592  0.7403 -1.6653
  796MOL0     H 5025   1.846  10.627   1.893  3.4427 -2.2157  0.9945
  796MOL0     H 5026   1.621  10.710   1.774  2.3688  1.7324  0.9282
  796MOL0     H 5027   1.588  10.638   1.615  1.2236 -1.5215  1.7821
  796MOL0     H 5028   1.756  10.785   1.524 -2.7782 -1.1729 -1.1333
  796MOL0     H 5029   1.775  10.877   1.678 -0.4232  2.4567 -1.1941
  796MOL0     H 5030   1.563  10.902   1.471 -2.8040 -1.0205  0.5611
  796MOL0     H 5031   1.503  10.880   1.647 -1.4014 -2.6486 -1.6589
  796MOL0     H 5032   1.637  11.073   1.706  0.3327  1.2411 -0.6623
  796MOL0     H 5033   1.518  11.104   1.584 -0.5671  2.0820  1.0897
  796MOL0     H 5034   1.552  11.075   1.308 -0.7046  0.0251  0.4211
  796MOL0     H 5035   1.579  11.193   1.101 -1.1325 -0.8290  0.2094
  796MOL0     H 5036   1.840  11.784   1.072  1.8059  0.9060  0.4166
  796MOL0     H 5037   1.898  11.920   0.900  1.2357  0.4985  0.3695
  796MOL0     H 5038   1.770  11.891   0.629  0.2437 -0.9977 -0.2033
  796MOL0     H 5039   1.852  11.820   0.496  2.4780  0.0633 -0.5084
  796MOL0     H 5040   1.990  12.031   0.467  0.5975 -0.9265  1.5002
  796MOL0     H 5041   1.873  12.114   0.581 -3.1221  2.0125 -1.5228
  796MOL0     H 5042   1.688  11.999   0.425  0.6898 -3.3015 -2.1432
  796MOL0     H 5043   1.801  11.976   0.305 -0.8270 -3.6483  0.9712
  796MOL0     H 5044   1.734  12.224   0.450 -3.9088 -2.0491 -0.7994
  796MOL0     H 5045   1.849  12.225   0.300 -0.1402 -0.3557 -1.0506
  796MOL0     H 5046   1.572  12.125   0.293  3.8964 -2.7489  0.5815
  796MOL0     H 5047   1.661  12.158   0.158  0.0967 -0.0657 -0.7695
  796MOL0     H 5048   1.649  12.417   0.249 -0.9061  1.5913  2.3709
  796MOL0     H 5049   1.509  12.348   0.327 -1.2530 -5.4472 -1.4795
  796MOL0     H 5050   1.404  12.296   0.096 -1.7857  1.0098  0.4838
  796MOL0     H 5051   1.430  12.453   0.129  0.6566  0.1785  4.1572
  796MOL0     H 5052   1.673  12.317  -0.008  2.3294  2.9612  3.6605
  796MOL0     H 5053   1.618  12.477  -0.032 -1.2854 -0.4389 -2.9025
  796MOL0     H 5054   1.967  11.569   0.649  0.2475  0.0663 -0.7483
  796MOL0     H 5055   1.892  11.427   0.834 -3.8989  0.7486 -1.3130
  796MOL0     H 5056   1.881  11.453   1.288 -1.1967  0.7681 -2.3545
  796MOL0     H 5057   1.880  11.317   1.484 -2.2877  3.1682  0.6738
  796MOL0     H 5058   2.373   9.336   2.066  1.5369  0.0041 -0.0594
  796MOL0     H 5059   2.450   9.127   1.974  0.7764 -2.5112 -2.9467
  796MOL0     H 5060   2.812   8.936   1.471  1.1716 -0.7042  3.0453
  796MOL0     H 5061   2.833   8.718   1.380  2.0379  0.0798  2.4565
  796MOL0     H 5062   2.543   8.378   1.330  3.9833  1.4816 -1.4360
  796MOL0     H 5063   2.466   8.466   1.470 -0.1474  0.3209 -0.1252
  796MOL0     H 5064   2.644   8.359   1.620  1.8916 -1.7733 -0.2423
  796MOL0     H 5065   2.532   8.243   1.533  0.2249 -0.6808  2.8927
  796MOL0     H 5066   2.792   8.342   1.413 -0.7047  2.3529  2.7146
  796MOL0     H 5067   2.678   8.208   1.368 -4.8994  2.0775  1.0460
  796MOL0     H 5068   2.870   8.221   1.601  1.0418  1.6487 -0.4569
  796MOL0     H 5069   2.742   8.113   1.583 -2.8016  1.0300 -2.3399
  796MOL0     H 5070   2.998   8.012   1.240 -0.9058 -0.4649 -0.1370
  796MOL0     H 5071   2.477   8.612   1.591 -1.6398  2.4641 -1.2737
  796MOL0     H 5072   2.476   8.839   1.709 -1.8783  0.3029 -3.1596
  797MOL0     O 5073   8.334   6.987   8.615 -0.3141  0.0578  0.0722
  797MOL0     C 5074   8.346   6.908   8.517  0.5056 -0.4289  0.3764
  797MOL0     O 5075   8.281   6.793   8.499 -0.3556  0.3792  0.2345
  797MOL0     C 5076   8.166   6.763   8.569 -0.1631  0.0167 -0.5048
  797MOL0     C 5077   8.135   6.625   8.587  0.2576  0.4712  0.2208
  797MOL0     C 5078   8.016   6.584   8.634 -0.5211 -0.2826 -0.6250
  797MOL0     C 5079   7.925   6.674   8.690 -0.9909 -0.2871  0.3780
  797MOL0     O 5080   7.805   6.642   8.734 -0.2827 -0.7721  0.2289
  797MOL0     C 5081   7.809   6.615   8.879  0.0808 -0.2415  0.7018
  797MOL0     C 5082   7.863   6.475   8.911  0.0129 -0.0871 -0.2355
  797MOL0     C 5083   7.783   6.367   8.847 -0.0398 -0.6066  0.1814
  797MOL0     C 5084   7.777   6.239   8.940 -1.0924  0.4677  1.0583
  797MOL0     C 5085   7.694   6.263   9.056 -0.6801  0.0864 -0.3311
  797MOL0     C 5086   7.735   6.163   9.173 -0.6098  0.3662  0.0567
  797MOL0     C 5087   7.643   6.155   9.297 -0.2577  0.0216 -0.2330
  797MOL0     C 5088   7.697   6.054   9.393  0.1504  0.9722  0.1432
  797MOL0     N 5089   7.796   6.115   9.478 -0.4592 -0.2002  0.2635
  797MOL0     C 5090   7.764   6.203   9.588 -1.0011  0.3661  0.3248
  797MOL0     C 5091   7.876   6.190   9.664 -0.3735 -0.0214  0.4007
  797MOL0     C 5092   7.898   6.256   9.797 -0.3064 -0.4138  0.8596
  797MOL0     C 5093   7.972   6.164   9.901  0.8504  0.1979  0.2830
  797MOL0     C 5094   7.995   6.252  10.031 -0.4450 -0.5600 -1.1478
  797MOL0     C 5095   8.057   6.170  10.140  0.7533 -0.5436 -0.4520
  797MOL0     O 5096   8.200   6.144  10.111 -0.2071  0.7536  0.2262
  797MOL0     C 5097   8.288   6.156  10.215  0.5370  0.0961 -0.3215
  797MOL0     C 5098   8.408   6.230  10.211 -0.8495  0.4418 -0.4184
  797MOL0     C 5099   8.495   6.255  10.314 -0.1254  0.0720 -0.0396
  797MOL0     C 5100   8.462   6.198  10.443  0.5049 -1.0279  0.8198
  797MOL0     C 5101   8.543   6.231  10.564 -0.5906  0.6880 -0.7670
  797MOL0     O 5102   8.509   6.165  10.680  0.8518 -0.8534  0.0611
  797MOL0     C 5103   8.576   6.190  10.798 -0.9052  0.4537  0.5178
  797MOL0     C 5104   8.532   6.274  10.896  0.4951  0.4907  0.1766
  797MOL0     C 5105   8.582   6.290  11.026 -0.3750  0.2697  0.1394
  797MOL0     C 5106   8.701   6.218  11.061  0.0511  0.5248  0.9995
  797MOL0     O 5107   8.766   6.233  11.178  0.1053  0.0998  0.0359
  797MOL0     C 5108   8.690   6.274  11.293  0.5163  0.0920 -1.3115
  797MOL0     C 5109   8.793   6.283  11.408 -0.1846 -0.0802  0.3293
  797MOL0     C 5110   8.933   6.207  11.407  0.0379 -0.3798 -0.5593
  797MOL0     C 5111   8.995   6.193  11.549 -0.0156 -0.0215 -0.8930
  797MOL0     C 5112   9.047   6.328  11.616  0.0111  0.2632  0.8663
  797MOL0     C 5113   9.168   6.394  11.545  1.1821 -0.7496 -0.1265
  797MOL0     C 5114   9.274   6.300  11.514 -0.0726  0.1103  0.4222
  797MOL0     C 5115   9.397   6.375  11.456 -0.3522 -0.1126 -0.1910
  797MOL0    Cl 5116   9.460   6.486  11.585  0.3596 -0.0941  0.2291
  797MOL0     C 5117   8.752   6.136  10.953 -0.8906 -0.4269  0.1667
  797MOL0     C 5118   8.697   6.127  10.823 -0.9761 -0.1682 -0.5200
  797MOL0     O 5119   8.646   6.299  10.550 -0.4659  0.4969  0.8837
  797MOL0     C 5120   8.346   6.113  10.453  0.3972 -0.0300  0.0407
  797MOL0     C 5121   8.262   6.093  10.347  0.0958 -0.1869 -0.1194
  797MOL0     N 5122   7.977   6.113   9.601  0.6374  0.1168 -0.1078
  797MOL0     N 5123   7.920   6.067   9.489 -0.4511  0.2356  0.0293
  797MOL0     C 5124   7.960   6.813   8.679 -0.1947  0.2355 -0.5768
  797MOL0     C 5125   8.079   6.854   8.616 -0.3438  0.6393  0.4039
  797MOL0     C 5126   8.460   6.937   8.428  0.4011  0.3996 -0.2795
  797MOL0     C 5127   8.474   7.070   8.387  0.0660  0.2495 -0.0537
  797MOL0     C 5128   8.571   7.087   8.285 -0.3292  0.2319  0.9950
  797MOL0     C 5129   8.656   6.984   8.238 -0.5372  0.7662 -0.4107
  797MOL0     O 5130   8.739   7.009   8.129  0.0066 -0.5170 -0.0981
  797MOL0     C 5131   8.852   6.916   8.104  0.2915  0.0643 -0.3902
  797MOL0     C 5132   8.935   6.951   7.979  0.0856  0.0313 -0.1614
  797MOL0     C 5133   9.040   7.067   8.006 -0.5540  0.1353 -0.0424
  797MOL0     C 5134   9.179   7.019   7.985 -0.2760  0.2338  0.5004
  797MOL0     C 5135   9.229   6.928   8.093 -0.3611 -0.0302  0.9918
  797MOL0     C 5136   9.274   6.857   8.173  0.4366  0.5247 -0.3624
  797MOL0     C 5137   8.643   6.860   8.301  0.5668  0.6089  1.2354
  797MOL0     C 5138   8.541   6.834   8.391  0.2421  0.2459 -1.4690
  797MOL0     H 5139   8.202   6.550   8.545  4.4354  2.0601  3.2823
  797MOL0     H 5140   7.992   6.479   8.643  1.0887 -0.7738 -1.5696
  797MOL0     H 5141   7.706   6.615   8.918 -0.5307  2.7153 -0.6252
  797MOL0     H 5142   7.860   6.694   8.935  0.9334 -1.4471  1.6755
  797MOL0     H 5143   7.876   6.455   9.018 -0.0336 -2.1251 -0.5881
  797MOL0     H 5144   7.960   6.463   8.862 -0.1848  3.3372 -1.7648
  797MOL0     H 5145   7.837   6.345   8.754 -1.8203 -3.1687 -0.3320
  797MOL0     H 5146   7.681   6.400   8.825  0.0632 -0.5603 -0.2309
  797MOL0     H 5147   7.751   6.154   8.877  0.2754  2.4297 -2.4667
  797MOL0     H 5148   7.877   6.216   8.977 -0.7161 -2.1985 -1.2297
  797MOL0     H 5149   7.590   6.269   9.024 -0.9629  0.8356  0.6935
  797MOL0     H 5150   7.711   6.363   9.097  0.9822  0.2322 -1.2655
  797MOL0     H 5151   7.829   6.205   9.208 -2.6413  2.1042  4.0645
  797MOL0     H 5152   7.748   6.062   9.131  0.2074 -0.2179  1.6426
  797MOL0     H 5153   7.651   6.255   9.340  0.6865 -0.1176 -0.0643
  797MOL0     H 5154   7.538   6.131   9.275  0.1099 -1.4824 -0.4853
  797MOL0     H 5155   7.748   5.977   9.334 -3.1684 -1.8061  0.6039
  797MOL0     H 5156   7.626   5.998   9.453  1.7692  1.3856  2.5943
  797MOL0     H 5157   7.673   6.255   9.616  0.8984  2.0570  4.1621
  797MOL0     H 5158   7.802   6.294   9.831 -2.3251 -2.4185 -2.0366
  797MOL0     H 5159   7.956   6.347   9.782 -2.1181  0.8585  1.2744
  797MOL0     H 5160   8.063   6.129   9.852  0.4488  1.1825 -1.2705
  797MOL0     H 5161   7.917   6.071   9.920  1.4031  0.1137  1.5425
  797MOL0     H 5162   8.066   6.335  10.025  1.4047 -1.8944  0.4627
  797MOL0     H 5163   7.902   6.304  10.055 -0.1242  0.0286 -1.1481
  797MOL0     H 5164   8.008   6.075  10.163 -1.1173  0.4862 -0.0432
  797MOL0     H 5165   8.050   6.230  10.231  3.3136 -3.3426  1.8118
  797MOL0     H 5166   8.422   6.274  10.112 -0.7242  0.3817 -0.4278
  797MOL0     H 5167   8.591   6.300  10.287 -0.5779  0.1747 -1.5388
  797MOL0     H 5168   8.446   6.330  10.860  2.1138  1.1235 -3.0904
  797MOL0     H 5169   8.529   6.357  11.093 -0.4616 -0.9868  1.3690
  797MOL0     H 5170   8.623   6.190  11.317  0.3009  0.0722 -1.9625
  797MOL0     H 5171   8.631   6.366  11.286  1.9605  1.2540  0.7471
  797MOL0     H 5172   8.744   6.238  11.495  2.1229  0.3667  1.9451
  797MOL0     H 5173   8.812   6.389  11.429 -4.7698  1.2514 -1.0623
  797MOL0     H 5174   9.003   6.250  11.335  2.3626 -2.7888  0.0734
  797MOL0     H 5175   8.923   6.105  11.369 -1.3577 -2.6089  4.8915
  797MOL0     H 5176   8.928   6.157  11.628  2.9429 -0.7490  1.4560
  797MOL0     H 5177   9.080   6.124  11.547 -0.1114 -0.2953  1.5650
  797MOL0     H 5178   9.097   6.286  11.704  1.7821  0.0393 -0.2023
  797MOL0     H 5179   8.964   6.398  11.634  0.7656  0.9834  1.5939
  797MOL0     H 5180   9.196   6.482  11.604  0.3767 -0.5443 -0.0447
  797MOL0     H 5181   9.131   6.446  11.456  0.5873 -2.2539 -0.7877
  797MOL0     H 5182   9.310   6.235  11.594  0.2569 -0.6555 -0.3423
  797MOL0     H 5183   9.233   6.246  11.428 -4.1927  0.3240  1.9844
  797MOL0     H 5184   9.387   6.424  11.358  0.3560  0.7827  0.1579
  797MOL0     H 5185   9.482   6.309  11.435  1.8608  2.9091 -1.6587
  797MOL0     H 5186   8.838   6.073  10.974 -1.6121 -1.3641  0.3867
  797MOL0     H 5187   8.728   6.053  10.751  0.1043  0.3240 -0.5826
  797MOL0     H 5188   8.322   6.060  10.545 -0.7636  1.4670  0.6314
  797MOL0     H 5189   8.185   6.019  10.362  1.3601 -1.2081  1.8029
  797MOL0     H 5190   7.888   6.889   8.709  0.1415  0.3094  0.0592
  797MOL0     H 5191   8.101   6.961   8.610 -1.6964  0.9687  0.9760
  797MOL0     H 5192   8.411   7.149   8.425  1.1391  0.9855  0.2444
  797MOL0     H 5193   8.572   7.186   8.240 -0.7618  0.7574  2.0950
  797MOL0     H 5194   8.813   6.816   8.080 -2.3928  1.2714 -1.4597
  797MOL0     H 5195   8.916   6.905   8.192  0.1469  1.4717 -0.0792
  797MOL0     H 5196   8.969   6.858   7.932  1.6251  0.2178  0.5217
  797MOL0     H 5197   8.861   6.993   7.911 -3.0159  0.6313  3.2617
  797MOL0     H 5198   9.027   7.114   8.104 -3.6891 -1.9078  0.6492
  797MOL0     H 5199   9.034   7.130   7.917  0.1073 -1.2610 -1.1075
  797MOL0     H 5200   9.189   6.973   7.886  2.2676 -2.4726  1.8403
  797MOL0     H 5201   9.250   7.102   7.982 -0.2128  0.1447 -1.3789
  797MOL0     H 5202   9.322   6.779   8.228  1.0332  1.9070  1.1356
  797MOL0     H 5203   8.713   6.779   8.279 -0.9588 -0.1447 -1.2337
  797MOL0     H 5204   8.530   6.733   8.429  5.5185 -0.6662 -1.6240
  798MOL0     O 5205   3.801   9.987   7.745  0.7029 -0.5649  0.0953
  798MOL0     C 5206   3.707  10.057   7.709 -0.3790 -0.3945  0.8700
  798MOL0     O 5207   3.699  10.192   7.713  0.3278 -0.0421 -0.1746
  798MOL0     C 5208   3.797  10.278   7.755  0.2607 -1.0466 -0.7579
  798MOL0     C 5209   3.928  10.259   7.751  0.1929  0.8630  0.1404
  798MOL0     C 5210   4.021  10.354   7.799 -0.2679 -0.3510  0.1784
  798MOL0     C 5211   3.968  10.479   7.854 -0.2877  0.3539  0.5140
  798MOL0     O 5212   4.058  10.575   7.902  0.2059 -1.1406  0.4676
  798MOL0     C 5213   4.019  10.707   7.948  0.1077  0.6274  0.2283
  798MOL0     C 5214   3.966  10.705   8.088 -0.1450 -0.0975 -0.3289
  798MOL0     C 5215   4.073  10.662   8.195 -0.1331  0.0313 -0.3264
  798MOL0     C 5216   4.017  10.678   8.338 -0.4349  0.1470 -1.0174
  798MOL0     C 5217   4.123  10.678   8.451 -0.3227 -0.2718 -0.0651
  798MOL0     C 5218   4.067  10.717   8.594 -0.0213 -0.3670  0.3937
  798MOL0     C 5219   4.042  10.867   8.614  0.0967  0.1800 -0.2371
  798MOL0     C 5220   4.057  10.926   8.760  0.9241 -0.3416  0.0944
  798MOL0     N 5221   4.032  11.069   8.753 -0.1760 -1.1785  0.1753
  798MOL0     C 5222   3.907  11.121   8.775  0.0963 -1.0468 -1.6460
  798MOL0     C 5223   3.922  11.256   8.770  0.2115 -0.0747 -0.5263
  798MOL0     C 5224   3.825  11.365   8.787  0.9651 -0.4972 -0.3174
  798MOL0     C 5225   3.894  11.500   8.842  0.8801 -0.3421  0.0598
  798MOL0     C 5226   3.780  11.585   8.889 -0.0690  0.1651 -0.0657
  798MOL0     C 5227   3.837  11.703   8.966 -0.2021 -0.1144 -0.5657
  798MOL0     O 5228   3.855  11.664   9.102  0.7046  0.4020 -0.2274
  798MOL0     C 5229   3.753  11.666   9.186 -0.3492 -0.0379 -1.7334
  798MOL0     C 5230   3.620  11.653   9.156 -0.1332 -0.3287  0.1897
  798MOL0     C 5231   3.523  11.655   9.255 -0.2467  0.8431 -1.4349
  798MOL0     C 5232   3.560  11.667   9.385  0.4735  0.4171 -0.9543
  798MOL0     C 5233   3.452  11.647   9.496  0.5814  0.7009  0.4612
  798MOL0     O 5234   3.324  11.637   9.450  0.5558 -0.3752 -0.0079
  798MOL0     C 5235   3.223  11.590   9.529 -0.8825  0.6272 -0.2124
  798MOL0     C 5236   3.194  11.641   9.649  0.8646  0.7260  0.8371
  798MOL0     C 5237   3.115  11.587   9.743  0.4490 -0.2201  0.3072
  798MOL0     C 5238   3.040  11.471   9.708  0.5315  0.7227 -0.2725
  798MOL0     O 5239   2.941  11.433   9.806  0.0555  0.2138 -0.0463
  798MOL0     C 5240   2.937  11.295   9.835  0.3881  0.4957  0.8303
  798MOL0     C 5241   2.895  11.254   9.971  0.0285 -0.5588 -0.1323
  798MOL0     C 5242   2.919  11.107  10.021  0.3303 -0.8038 -0.9462
  798MOL0     C 5243   2.820  11.055  10.128 -0.2639 -0.0516  0.5181
  798MOL0     C 5244   2.817  11.127  10.263 -0.5755  0.0049 -0.3730
  798MOL0     C 5245   2.681  11.138  10.334  0.1485  0.0323 -0.2438
  798MOL0     C 5246   2.672  11.232  10.452  0.3408  0.2215  0.4181
  798MOL0     C 5247   2.565  11.201  10.550  0.3762 -0.3138  0.1931
  798MOL0    Cl 5248   2.587  11.042  10.618  0.1855 -0.2127 -0.1848
  798MOL0     C 5249   3.060  11.413   9.580 -0.0184 -0.5431  0.5801
  798MOL0     C 5250   3.160  11.468   9.495 -0.6083 -0.1660 -0.9128
  798MOL0     O 5251   3.484  11.630   9.612 -0.1103 -0.2230 -0.3450
  798MOL0     C 5252   3.695  11.680   9.418  0.1945  0.5626  0.4052
  798MOL0     C 5253   3.784  11.677   9.316 -0.6586  0.0132  0.1357
  798MOL0     N 5254   4.059  11.285   8.771  0.0822 -0.1831 -0.0776
  798MOL0     N 5255   4.116  11.174   8.768 -0.4883  0.9618  0.3490
  798MOL0     C 5256   3.827  10.499   7.864 -0.5724 -0.5254  1.1349
  798MOL0     C 5257   3.749  10.404   7.806  0.0851  0.2297 -0.4619
  798MOL0     C 5258   3.590   9.972   7.686  0.0538 -0.0164  0.0106
  798MOL0     C 5259   3.490  10.005   7.583 -0.4287  0.1207 -0.9660
  798MOL0     C 5260   3.380   9.916   7.577  0.2136 -0.0689  0.2046
  798MOL0     C 5261   3.359   9.809   7.660 -0.1456  0.1301  0.2974
  798MOL0     O 5262   3.250   9.724   7.627  0.5141 -0.4951 -0.5233
  798MOL0     C 5263   3.243   9.593   7.698 -0.2988 -0.9298 -0.6165
  798MOL0     C 5264   3.330   9.495   7.618 -0.4578  0.6605 -0.5417
  798MOL0     C 5265   3.310   9.476   7.465  1.3950 -0.1936 -0.2342
  798MOL0     C 5266   3.168   9.468   7.427  0.4533  1.6269 -0.4035
  798MOL0     C 5267   3.145   9.428   7.280  0.2176  0.7591  0.1643
  798MOL0     C 5268   3.102   9.394   7.172  0.0991  0.0998 -0.0386
  798MOL0     C 5269   3.458   9.788   7.759  0.8777  0.5095  0.5068
  798MOL0     C 5270   3.572   9.862   7.770  0.8117  0.2578 -0.8561
  798MOL0     H 5271   3.978  10.167   7.719  0.1977  0.8260  0.2549
  798MOL0     H 5272   4.127  10.336   7.793 -0.2676 -2.0106  3.0969
  798MOL0     H 5273   3.939  10.742   7.882  0.2060 -2.1109 -1.5280
  798MOL0     H 5274   4.100  10.780   7.938  1.4756 -0.3291  3.1735
  798MOL0     H 5275   3.886  10.632   8.100  1.5101 -1.5165  5.4854
  798MOL0     H 5276   3.931  10.807   8.109  0.5514  0.3936 -1.4442
  798MOL0     H 5277   4.168  10.714   8.183 -0.3646  1.0832  1.9057
  798MOL0     H 5278   4.101  10.558   8.178  2.6142  1.0358 -2.6412
  798MOL0     H 5279   3.956  10.769   8.341 -3.5113 -1.7945 -0.3802
  798MOL0     H 5280   3.944  10.600   8.360  0.5188  0.4275  4.6117
  798MOL0     H 5281   4.194  10.758   8.429  0.7017 -0.6230  1.7561
  798MOL0     H 5282   4.175  10.582   8.460  0.5703  0.0090 -1.9041
  798MOL0     H 5283   4.113  10.676   8.685 -1.9403  1.1494  2.1432
  798MOL0     H 5284   3.972  10.662   8.589 -0.4465  0.1681  1.8226
  798MOL0     H 5285   4.119  10.922   8.559  0.2425 -2.8386 -3.4042
  798MOL0     H 5286   3.939  10.891   8.588 -0.9038 -0.3795  2.8051
  798MOL0     H 5287   4.159  10.902   8.790  0.2205 -0.0260  2.9879
  798MOL0     H 5288   4.002  10.878   8.841  2.6881 -1.0628  0.9124
  798MOL0     H 5289   3.813  11.070   8.794  0.4328 -0.7080  1.4783
  798MOL0     H 5290   3.743  11.345   8.857 -1.3945  1.2757 -2.4118
  798MOL0     H 5291   3.780  11.384   8.689  0.0508  1.1645  0.3890
  798MOL0     H 5292   3.959  11.546   8.767 -1.4685  1.6367 -0.8922
  798MOL0     H 5293   3.948  11.471   8.933  1.1510  0.6834  0.2275
  798MOL0     H 5294   3.722  11.629   8.807 -2.6719  3.0103  2.9629
  798MOL0     H 5295   3.715  11.536   8.962 -0.2652  1.3516  0.5856
  798MOL0     H 5296   3.765  11.786   8.960 -0.0734  0.1456  0.9615
  798MOL0     H 5297   3.932  11.741   8.927  0.0289  3.0662  2.5870
  798MOL0     H 5298   3.588  11.646   9.052 -2.8711 -0.2643  0.9589
  798MOL0     H 5299   3.422  11.627   9.227 -0.4462 -1.7088  1.3999
  798MOL0     H 5300   3.246  11.734   9.669 -2.9872  3.4886 -0.7796
  798MOL0     H 5301   3.105  11.625   9.845  2.8693 -0.0114  0.5252
  798MOL0     H 5302   3.038  11.256   9.824 -0.8724 -2.5763 -1.6561
  798MOL0     H 5303   2.891  11.233   9.757  1.5470  0.9496 -0.2424
  798MOL0     H 5304   2.790  11.279   9.987 -0.4550 -2.4311 -0.1896
  798MOL0     H 5305   2.955  11.317  10.037 -0.9526 -0.6390  0.8675
  798MOL0     H 5306   3.014  11.089  10.072 -0.6500  0.0273  1.3007
  798MOL0     H 5307   2.925  11.047   9.930  2.0777  1.2849 -2.3197
  798MOL0     H 5308   2.725  11.061  10.075  1.5959 -1.3307 -3.2998
  798MOL0     H 5309   2.828  10.949  10.152 -1.5144 -0.2913 -0.0649
  798MOL0     H 5310   2.852  11.229  10.242 -0.5587 -0.6964 -4.4994
  798MOL0     H 5311   2.886  11.079  10.334  1.1768  2.7684 -0.0382
  798MOL0     H 5312   2.647  11.036  10.355 -1.1156  0.2589 -1.0748
  798MOL0     H 5313   2.619  11.184  10.256 -0.9954  0.8178  1.0977
  798MOL0     H 5314   2.763  11.224  10.512  1.1529 -1.6805 -0.9602
  798MOL0     H 5315   2.662  11.339  10.433 -1.9859 -0.1560 -0.7584
  798MOL0     H 5316   2.472  11.205  10.492 -0.3311  1.8799  1.3531
  798MOL0     H 5317   2.551  11.276  10.628  1.4148 -1.0056  1.0759
  798MOL0     H 5318   3.004  11.321   9.563  2.2832 -2.6032  3.1256
  798MOL0     H 5319   3.185  11.425   9.399  0.0318 -0.1523 -0.7554
  798MOL0     H 5320   3.716  11.674   9.524  2.1919 -0.7408 -0.0182
  798MOL0     H 5321   3.888  11.694   9.344 -0.9740  1.2288  0.6229
  798MOL0     H 5322   3.785  10.587   7.912 -3.9873 -0.9075 -0.8504
  798MOL0     H 5323   3.644  10.421   7.829  0.5845  0.4432  1.8652
  798MOL0     H 5324   3.493  10.091   7.518 -0.6713  0.1854 -0.8919
  798MOL0     H 5325   3.303   9.940   7.504 -0.3724 -0.2198  0.7596
  798MOL0     H 5326   3.136   9.575   7.691 -0.6812  0.2931  1.2471
  798MOL0     H 5327   3.275   9.589   7.803  0.7579  0.4453 -0.8392
  798MOL0     H 5328   3.437   9.515   7.633  0.0492 -1.4676 -0.8908
  798MOL0     H 5329   3.313   9.395   7.660  0.0098 -0.8757 -3.6945
  798MOL0     H 5330   3.367   9.387   7.439 -0.5222 -0.9676 -2.0748
  798MOL0     H 5331   3.348   9.565   7.415 -1.0527 -0.2402 -2.4261
  798MOL0     H 5332   3.112   9.401   7.493  2.2566  2.1323  1.7213
  798MOL0     H 5333   3.131   9.570   7.439  2.1000  2.2341 -0.3064
  798MOL0     H 5334   3.060   9.364   7.078  0.3937  2.3377 -0.9490
  798MOL0     H 5335   3.455   9.707   7.832  0.1041 -1.3738 -1.5162
  798MOL0     H 5336   3.634   9.847   7.858  2.5433  1.6250 -1.7611
  799MOL0     O 5337   1.406   3.133   2.158  0.1543 -0.1456  1.1904
  799MOL0     C 5338   1.471   3.195   2.075 -0.0196  1.4097 -0.0767
  799MOL0     O 5339   1.459   3.177   1.944  0.3352  0.1655  0.0321
  799MOL0     C 5340   1.334   3.131   1.896  0.7182 -0.3043  0.3009
  799MOL0     C 5341   1.340   3.035   1.792  0.4387 -0.3543 -0.8587
  799MOL0     C 5342   1.223   2.983   1.739  0.1285  0.1736 -0.3796
  799MOL0     C 5343   1.096   3.015   1.788 -0.1570 -0.2266 -0.6937
  799MOL0     O 5344   0.979   2.959   1.754  0.9551  0.2446  0.1711
  799MOL0     C 5345   0.952   2.982   1.613  0.2031  0.5982 -0.6791
  799MOL0     C 5346   0.800   2.988   1.591  0.4808 -0.8176  0.9109
  799MOL0     C 5347   0.736   3.100   1.654 -0.2135 -0.0036  0.1006
  799MOL0     C 5348   0.635   3.187   1.562 -0.6934 -0.8466 -0.0273
  799MOL0     C 5349   0.504   3.197   1.633  0.2355  0.4362 -0.5832
  799MOL0     C 5350   0.424   3.057   1.654 -0.2523 -0.3800  0.5931
  799MOL0     C 5351   0.308   3.061   1.757 -0.5098  0.1580 -0.4843
  799MOL0     C 5352   0.171   3.070   1.684 -0.0813  0.4979 -0.2735
  799MOL0     N 5353   0.057   3.071   1.777 -0.1663 -0.2024 -0.2706
  799MOL0     C 5354   0.029   2.983   1.881 -0.0686 -0.6766  0.3025
  799MOL0     C 5355  -0.082   3.034   1.943 -1.0123  0.8185 -0.2926
  799MOL0     C 5356  -0.150   2.966   2.068 -0.5643 -0.0260 -0.9306
  799MOL0     C 5357  -0.120   3.041   2.195  0.9013 -0.1333 -0.4050
  799MOL0     C 5358  -0.210   3.165   2.221 -0.3627 -0.2566 -0.1121
  799MOL0     C 5359  -0.210   3.224   2.362  0.2217 -0.6699  0.0257
  799MOL0     O 5360  -0.208   3.366   2.356 -0.3026  0.0234  0.5108
  799MOL0     C 5361  -0.185   3.438   2.471  0.2982  0.3328 -0.1521
  799MOL0     C 5362  -0.160   3.372   2.591 -0.3562  0.0349 -0.6607
  799MOL0     C 5363  -0.151   3.447   2.708  0.0976 -0.1807 -0.1192
  799MOL0     C 5364  -0.153   3.584   2.705  0.5649 -0.4012  0.0264
  799MOL0     C 5365  -0.126   3.663   2.827 -0.3348  0.4510 -0.0619
  799MOL0     O 5366  -0.071   3.784   2.807 -0.8168 -0.3731 -0.3205
  799MOL0     C 5367  -0.042   3.861   2.912 -0.2699 -0.0682 -1.1944
  799MOL0     C 5368  -0.139   3.904   3.003  0.5840  0.0121 -0.0507
  799MOL0     C 5369  -0.104   3.989   3.113 -0.3243  0.8233  0.0221
  799MOL0     C 5370   0.033   4.011   3.137 -0.4212 -0.4912 -0.4583
  799MOL0     O 5371   0.072   4.086   3.240 -0.2007 -0.5080 -0.5239
  799MOL0     C 5372   0.200   4.144   3.242 -0.3122 -0.2189 -0.3308
  799MOL0     C 5373   0.226   4.230   3.370  0.1629 -0.1341  0.8824
  799MOL0     C 5374   0.228   4.153   3.502  0.1146  0.3528  0.4598
  799MOL0     C 5375   0.317   4.232   3.603 -0.5042 -0.0046  0.5549
  799MOL0     C 5376   0.330   4.160   3.738  0.6857  0.2293 -0.0212
  799MOL0     C 5377   0.382   4.250   3.858 -0.3118 -0.3235  0.7272
  799MOL0     C 5378   0.424   4.180   3.989  0.3639  0.6029 -0.6252
  799MOL0     C 5379   0.307   4.114   4.063  0.4760 -0.1792 -0.1432
  799MOL0    Cl 5380   0.293   3.943   4.022  0.3058 -0.4566 -0.5403
  799MOL0     C 5381   0.124   3.966   3.040  0.1907  0.1330  0.7604
  799MOL0     C 5382   0.090   3.889   2.930  0.3308  0.4542 -0.3334
  799MOL0     O 5383  -0.137   3.601   2.943 -0.0675 -0.5648 -0.3741
  799MOL0     C 5384  -0.175   3.657   2.588 -1.2176  0.9869  0.8446
  799MOL0     C 5385  -0.185   3.580   2.473 -0.2227  0.9770  0.0827
  799MOL0     N 5386  -0.106   3.156   1.886 -0.2004  0.1378  0.0640
  799MOL0     N 5387  -0.023   3.178   1.793 -0.0178 -0.0099 -0.4658
  799MOL0     C 5388   1.090   3.106   1.883  0.0977  0.1291  0.3144
  799MOL0     C 5389   1.205   3.164   1.935  0.0496 -0.5297 -0.9568
  799MOL0     C 5390   1.569   3.301   2.126  0.0066  0.0170  0.3537
  799MOL0     C 5391   1.648   3.396   2.043 -0.6115 -0.8332  1.4989
  799MOL0     C 5392   1.741   3.489   2.098  0.6605 -0.2142 -0.0952
  799MOL0     C 5393   1.760   3.493   2.232 -1.1059 -0.4340 -0.7248
  799MOL0     O 5394   1.854   3.580   2.275  0.4050  0.7267  0.4369
  799MOL0     C 5395   1.988   3.559   2.301 -0.1703  1.1850 -0.1486
  799MOL0     C 5396   2.042   3.690   2.354 -0.6062 -0.3223 -0.2713
  799MOL0     C 5397   2.051   3.796   2.240 -0.7496  0.4557  0.1086
  799MOL0     C 5398   2.132   3.923   2.278 -1.1887 -1.2192  0.8347
  799MOL0     C 5399   2.108   4.027   2.176  0.4282  0.4107 -0.3275
  799MOL0     C 5400   2.074   4.100   2.093 -0.4785  0.3935 -0.4369
  799MOL0     C 5401   1.685   3.409   2.312 -0.0432  0.7791 -0.2673
  799MOL0     C 5402   1.581   3.319   2.264 -0.0892  0.1129 -0.6470
  799MOL0     H 5403   1.437   3.011   1.750  0.9905  1.7166 -0.8695
  799MOL0     H 5404   1.245   2.921   1.652 -0.4851 -1.5636  0.6491
  799MOL0     H 5405   0.997   2.900   1.556 -1.9314 -1.5780  0.5687
  799MOL0     H 5406   0.999   3.080   1.596 -0.8639  1.2417 -0.0269
  799MOL0     H 5407   0.759   2.891   1.621 -1.0266 -0.2042  0.8825
  799MOL0     H 5408   0.774   2.986   1.484  0.4440 -1.4948  0.9271
  799MOL0     H 5409   0.817   3.173   1.666 -0.2294 -0.3680  3.2623
  799MOL0     H 5410   0.699   3.070   1.752 -0.6874  0.4829  0.0759
  799MOL0     H 5411   0.659   3.294   1.557 -2.8357 -0.2030  1.7285
  799MOL0     H 5412   0.610   3.143   1.465  2.7302 -3.3401  0.0629
  799MOL0     H 5413   0.439   3.252   1.565 -0.2504  1.3628  0.5949
  799MOL0     H 5414   0.528   3.250   1.725  0.7161 -0.1309 -0.3733
  799MOL0     H 5415   0.508   2.991   1.679  2.4088  2.8893  1.0276
  799MOL0     H 5416   0.387   3.018   1.559 -1.8721  2.3028  0.0174
  799MOL0     H 5417   0.325   2.972   1.818 -1.8011  1.3178  1.6800
  799MOL0     H 5418   0.314   3.150   1.821  1.5621  1.1079 -1.8669
  799MOL0     H 5419   0.146   2.988   1.616 -2.4979  0.2511  0.8071
  799MOL0     H 5420   0.150   3.164   1.632 -0.9933  0.9108  0.8000
  799MOL0     H 5421   0.097   2.903   1.908  2.9854  0.5181 -3.0113
  799MOL0     H 5422  -0.121   2.860   2.077  0.0557  0.3285  3.3273
  799MOL0     H 5423  -0.259   2.963   2.063 -0.8462 -3.8768  2.2581
  799MOL0     H 5424  -0.015   3.064   2.216  0.0624  1.7497  2.4416
  799MOL0     H 5425  -0.154   2.984   2.282 -0.7694  0.6154 -0.5281
  799MOL0     H 5426  -0.181   3.238   2.145 -1.3625 -0.0975 -0.3503
  799MOL0     H 5427  -0.316   3.144   2.208 -0.3017 -1.0501  0.5510
  799MOL0     H 5428  -0.123   3.178   2.410 -0.7606 -1.1499  1.4137
  799MOL0     H 5429  -0.303   3.199   2.412 -1.6224  2.7102 -1.3885
  799MOL0     H 5430  -0.160   3.265   2.606 -2.3103  0.3007  2.0630
  799MOL0     H 5431  -0.130   3.394   2.800  0.3195 -1.8811 -1.0988
  799MOL0     H 5432  -0.239   3.868   2.983  0.3496  0.0062  1.0503
  799MOL0     H 5433  -0.173   4.037   3.182  0.0066  0.3475  0.7046
  799MOL0     H 5434   0.230   4.202   3.154  2.4693  0.7846  1.1273
  799MOL0     H 5435   0.275   4.065   3.250 -1.0427 -0.9287 -0.4479
  799MOL0     H 5436   0.158   4.316   3.370  1.6401  1.1328 -1.4501
  799MOL0     H 5437   0.330   4.263   3.363  0.6083 -1.0767  2.4466
  799MOL0     H 5438   0.267   4.053   3.483 -2.8713 -0.7408 -0.5274
  799MOL0     H 5439   0.130   4.133   3.546  0.0984 -0.2569  0.1543
  799MOL0     H 5440   0.417   4.260   3.569  1.4035 -4.5352  1.6972
  799MOL0     H 5441   0.253   4.320   3.614 -0.1056  0.7605 -2.3521
  799MOL0     H 5442   0.389   4.067   3.738 -0.5205 -0.6025  1.7982
  799MOL0     H 5443   0.226   4.134   3.761  0.7906  0.1531  0.3823
  799MOL0     H 5444   0.313   4.331   3.882 -2.1133 -0.8139 -2.2749
  799MOL0     H 5445   0.477   4.291   3.822 -1.8388  2.4494 -0.4354
  799MOL0     H 5446   0.495   4.098   3.977 -1.1546 -1.0797  1.1290
  799MOL0     H 5447   0.466   4.264   4.043  3.8826 -1.6750  0.4908
  799MOL0     H 5448   0.208   4.158   4.051  0.4649  0.1704  1.0947
  799MOL0     H 5449   0.327   4.127   4.170  0.4554 -2.8889  0.2707
  799MOL0     H 5450   0.228   3.991   3.056  0.3239 -0.6705  1.2056
  799MOL0     H 5451   0.167   3.865   2.857 -0.9213 -1.3174 -1.1570
  799MOL0     H 5452  -0.174   3.766   2.589  2.3203  1.1060 -0.6744
  799MOL0     H 5453  -0.202   3.618   2.373 -2.2112 -1.9603 -0.8324
  799MOL0     H 5454   0.992   3.123   1.927  0.1618  1.8118 -0.1419
  799MOL0     H 5455   1.202   3.231   2.020 -0.4909 -0.6206 -0.8994
  799MOL0     H 5456   1.637   3.396   1.935  0.1050 -1.1708  1.4253
  799MOL0     H 5457   1.797   3.559   2.037  0.7466  1.4482  1.7889
  799MOL0     H 5458   2.024   3.525   2.203  0.8572  0.7182  0.3679
  799MOL0     H 5459   1.997   3.477   2.372  0.3321  2.5300  1.4144
  799MOL0     H 5460   1.984   3.716   2.443 -0.1824 -2.5201  0.6871
  799MOL0     H 5461   2.143   3.661   2.384 -0.9949 -0.9634  0.4444
  799MOL0     H 5462   1.949   3.827   2.215 -0.3294  3.0873  1.3204
  799MOL0     H 5463   2.086   3.748   2.148 -1.3532 -1.6217  0.9069
  799MOL0     H 5464   2.090   3.966   2.370  0.4815  0.8624  0.6971
  799MOL0     H 5465   2.238   3.900   2.296 -0.3143  1.7837  0.1299
  799MOL0     H 5466   2.056   4.173   2.017  3.7297 -0.5317 -2.6401
  799MOL0     H 5467   1.692   3.419   2.420  2.7905  0.1195 -0.3187
  799MOL0     H 5468   1.510   3.271   2.331 -0.1600 -2.3448 -2.3511
  800MOL0     O 5469   7.490   9.834   2.820  0.0902  0.6263  0.4475
  800MOL0     C 5470   7.427   9.929   2.856  1.3325  0.4901 -0.8747
  800MOL0     O 5471   7.396   9.950   2.989 -0.7739  0.2840 -0.0304
  800MOL0     C 5472   7.433   9.852   3.075 -0.2937  0.7109 -1.0868
  800MOL0     C 5473   7.332   9.757   3.109  0.3536  0.7142 -0.1382
  800MOL0     C 5474   7.371   9.654   3.196  0.1266 -0.6071  0.9943
  800MOL0     C 5475   7.498   9.645   3.248  1.1284  0.3482  0.0568
  800MOL0     O 5476   7.507   9.551   3.350 -0.9573 -0.2660  0.1436
  800MOL0     C 5477   7.634   9.527   3.412 -0.0967  0.1401 -0.4000
  800MOL0     C 5478   7.628   9.394   3.492 -0.3728 -0.5916  0.1109
  800MOL0     C 5479   7.767   9.323   3.521 -0.0568 -0.4761  0.4803
  800MOL0     C 5480   7.864   9.417   3.595  0.7876  0.5376 -0.3845
  800MOL0     C 5481   7.991   9.341   3.618 -0.7163 -0.6133 -0.1066
  800MOL0     C 5482   8.110   9.431   3.654 -0.2301  0.3709  0.1356
  800MOL0     C 5483   8.244   9.365   3.680 -0.1259 -1.4886 -0.2551
  800MOL0     C 5484   8.286   9.281   3.560 -0.1752 -0.5541 -1.0086
  800MOL0     N 5485   8.416   9.307   3.507  0.5554  0.2210  1.1950
  800MOL0     C 5486   8.535   9.227   3.507  0.2489 -0.4947  0.2620
  800MOL0     C 5487   8.635   9.308   3.467  0.3549 -0.0672 -0.5984
  800MOL0     C 5488   8.780   9.268   3.465 -0.3553  0.2663 -0.7104
  800MOL0     C 5489   8.804   9.124   3.481 -0.1014 -0.0035 -0.7910
  800MOL0     C 5490   8.951   9.092   3.434 -0.1420  0.7752  0.5290
  800MOL0     C 5491   8.977   8.947   3.469 -0.1964 -0.1873  1.3005
  800MOL0     O 5492   9.112   8.926   3.432 -0.0352  0.2938  0.0558
  800MOL0     C 5493   9.190   8.829   3.488 -0.3596  0.2116  0.3588
  800MOL0     C 5494   9.169   8.778   3.615  0.2336 -0.7179  1.2262
  800MOL0     C 5495   9.255   8.688   3.664  0.5486 -0.3392  0.3446
  800MOL0     C 5496   9.379   8.654   3.595  0.3928  0.4679  0.1704
  800MOL0     C 5497   9.465   8.548   3.649 -0.4679  0.0027 -0.1263
  800MOL0     O 5498   9.567   8.518   3.564  0.4301  1.0310 -0.2429
  800MOL0     C 5499   9.668   8.421   3.586 -0.2045 -1.1205  0.9244
  800MOL0     C 5500   9.736   8.411   3.709  0.6960 -0.5040 -0.1292
  800MOL0     C 5501   9.823   8.305   3.735 -0.0954  0.5913 -0.4174
  800MOL0     C 5502   9.841   8.207   3.632  0.3107  0.2992 -0.3108
  800MOL0     O 5503   9.921   8.096   3.655  0.1424 -0.1519 -1.2398
  800MOL0     C 5504   9.840   7.982   3.700 -0.0348  0.7811  0.4213
  800MOL0     C 5505   9.924   7.853   3.711  0.3520  0.5813 -0.0388
  800MOL0     C 5506   9.832   7.740   3.766 -0.2610 -0.5541  0.4349
  800MOL0     C 5507   9.910   7.623   3.836 -0.1356  0.0517  0.4411
  800MOL0     C 5508   9.822   7.549   3.927 -0.2894 -1.0193  0.2992
  800MOL0     C 5509   9.789   7.614   4.061 -0.1381 -0.5848  0.5183
  800MOL0     C 5510   9.709   7.529   4.153 -0.8025  0.4501 -0.5587
  800MOL0     C 5511   9.717   7.569   4.294 -0.2567 -0.1274  0.4347
  800MOL0    Cl 5512   9.604   7.488   4.404 -0.0036  0.1263  0.2644
  800MOL0     C 5513   9.786   8.225   3.508 -0.3798 -0.6692  0.0116
  800MOL0     C 5514   9.699   8.336   3.485  0.2075 -1.0413 -0.2508
  800MOL0     O 5515   9.455   8.511   3.768  1.5545  0.5242  0.4916
  800MOL0     C 5516   9.407   8.718   3.479  0.1785 -0.0368  0.0746
  800MOL0     C 5517   9.307   8.802   3.422  1.5404  0.7891  0.4487
  800MOL0     N 5518   8.573   9.430   3.428 -0.4689  0.2723 -0.1137
  800MOL0     N 5519   8.448   9.423   3.442 -0.6312 -0.3430 -0.0531
  800MOL0     C 5520   7.598   9.742   3.215 -0.2860 -0.1206  0.5769
  800MOL0     C 5521   7.559   9.849   3.130 -0.1196  0.9993  0.5498
  800MOL0     C 5522   7.379  10.035   2.775 -0.6114  0.7001 -0.2600
  800MOL0     C 5523   7.280  10.126   2.814  0.5992 -0.0538  0.7197
  800MOL0     C 5524   7.236  10.227   2.721 -0.0536 -0.8810  0.5817
  800MOL0     C 5525   7.295  10.257   2.596 -0.2845  0.5158 -0.1756
  800MOL0     O 5526   7.253  10.346   2.504 -0.3054 -0.9536 -0.3457
  800MOL0     C 5527   7.124  10.399   2.513  0.3701 -0.7637 -1.0918
  800MOL0     C 5528   7.110  10.509   2.401 -0.7111  0.1440  0.4565
  800MOL0     C 5529   7.135  10.442   2.260  0.0967  0.8896 -0.1983
  800MOL0     C 5530   7.239  10.521   2.172 -0.2702 -0.7367 -0.2853
  800MOL0     C 5531   7.380  10.477   2.188  0.0885 -0.7604  0.0447
  800MOL0     C 5532   7.490  10.443   2.212  0.4351  0.6940  0.1503
  800MOL0     C 5533   7.391  10.166   2.557 -0.5429  0.6788  0.3165
  800MOL0     C 5534   7.430  10.057   2.644  0.4071 -0.0937  0.1905
  800MOL0     H 5535   7.225   9.770   3.093  0.2861  1.2578  0.6940
  800MOL0     H 5536   7.296   9.587   3.238  0.7426 -0.2002  2.8217
  800MOL0     H 5537   7.654   9.610   3.482 -3.5139  0.7979 -0.0345
  800MOL0     H 5538   7.710   9.517   3.334 -0.8087 -0.7329 -0.9993
  800MOL0     H 5539   7.562   9.324   3.438 -2.5126  0.5420  1.1429
  800MOL0     H 5540   7.572   9.411   3.584 -2.1740  1.9282 -1.3173
  800MOL0     H 5541   7.814   9.276   3.434 -2.2515  1.3549 -1.8693
  800MOL0     H 5542   7.748   9.238   3.587  1.8108 -1.0951  0.2550
  800MOL0     H 5543   7.869   9.501   3.525 -0.9738  1.6148  0.7100
  800MOL0     H 5544   7.819   9.447   3.690  0.0975  1.3101 -0.9419
  800MOL0     H 5545   8.009   9.288   3.524 -0.5386 -1.7141  0.5329
  800MOL0     H 5546   7.966   9.264   3.692  2.5812 -1.0558  0.7144
  800MOL0     H 5547   8.089   9.482   3.748  2.2065 -2.7963  2.6422
  800MOL0     H 5548   8.123   9.513   3.582 -1.4262  1.1651  0.7966
  800MOL0     H 5549   8.309   9.453   3.687  3.2081 -3.8493  0.9351
  800MOL0     H 5550   8.254   9.319   3.779 -2.0797  1.1775  1.3425
  800MOL0     H 5551   8.213   9.299   3.480  0.3342 -0.6170 -1.4928
  800MOL0     H 5552   8.281   9.180   3.601 -3.1304  0.2754  1.0280
  800MOL0     H 5553   8.562   9.129   3.543  0.7055 -0.8921 -1.1030
  800MOL0     H 5554   8.820   9.316   3.556  0.1657  2.4950 -2.0273
  800MOL0     H 5555   8.824   9.308   3.373 -0.6348 -2.0257 -1.8907
  800MOL0     H 5556   8.736   9.064   3.420  1.5979  0.6147 -3.4433
  800MOL0     H 5557   8.799   9.100   3.588 -4.2178  0.0507 -0.8081
  800MOL0     H 5558   8.970   9.105   3.327 -3.6362 -0.8536 -0.4569
  800MOL0     H 5559   9.024   9.149   3.492  2.3108 -2.9826  1.4754
  800MOL0     H 5560   8.908   8.886   3.410 -1.4932  2.1247  0.3024
  800MOL0     H 5561   8.960   8.933   3.576  2.3882  0.3013  1.8528
  800MOL0     H 5562   9.077   8.811   3.662 -0.0308  2.6075 -1.2165
  800MOL0     H 5563   9.230   8.642   3.759 -2.1122 -1.6190 -0.8703
  800MOL0     H 5564   9.709   8.479   3.789 -2.3150 -1.8124  0.1167
  800MOL0     H 5565   9.874   8.294   3.830 -1.9451  0.1845  0.5634
  800MOL0     H 5566   9.756   7.974   3.630 -0.0740 -0.1058  0.5633
  800MOL0     H 5567   9.807   8.011   3.800 -0.4981  2.2589 -0.1205
  800MOL0     H 5568   9.994   7.869   3.793  2.6721 -3.1177 -1.0233
  800MOL0     H 5569   9.979   7.823   3.621 -0.8075  2.2606 -1.3747
  800MOL0     H 5570   9.777   7.692   3.685 -2.0252 -1.0556  1.8534
  800MOL0     H 5571   9.755   7.773   3.837 -0.5870 -0.9624  0.2802
  800MOL0     H 5572   9.947   7.549   3.765 -3.5953 -1.2747 -0.1765
  800MOL0     H 5573   9.993   7.663   3.894  1.2357 -2.0919  0.0635
  800MOL0     H 5574   9.878   7.465   3.970 -1.3333 -0.1922  3.5477
  800MOL0     H 5575   9.736   7.508   3.875  0.4514 -0.3860 -1.5164
  800MOL0     H 5576   9.733   7.707   4.048  1.8108  0.8360  1.6510
  800MOL0     H 5577   9.880   7.652   4.109  0.6224  1.4192 -2.2161
  800MOL0     H 5578   9.607   7.515   4.116 -0.8033  0.7717 -0.6832
  800MOL0     H 5579   9.754   7.430   4.152 -0.5591  0.5580 -1.9468
  800MOL0     H 5580   9.683   7.673   4.287 -1.1778 -0.4002  0.6500
  800MOL0     H 5581   9.821   7.559   4.326 -0.2818  1.8699  1.2779
  800MOL0     H 5582   9.809   8.150   3.433  0.3612 -1.1256  0.6888
  800MOL0     H 5583   9.658   8.342   3.384 -1.4003 -1.7402  0.3237
  800MOL0     H 5584   9.495   8.691   3.421 -2.1188 -1.4902 -3.0164
  800MOL0     H 5585   9.321   8.848   3.325  2.6826 -0.2567  0.0786
  800MOL0     H 5586   7.700   9.728   3.252  0.3089 -2.6900 -1.6892
  800MOL0     H 5587   7.639   9.920   3.112  1.8125 -0.9470  0.8891
  800MOL0     H 5588   7.226  10.116   2.907  0.3903  2.2185  0.9091
  800MOL0     H 5589   7.159  10.295   2.755 -2.1852 -0.8400 -3.6819
  800MOL0     H 5590   7.100  10.446   2.609  0.9171 -0.5144 -1.0720
  800MOL0     H 5591   7.045  10.327   2.488 -1.0405 -0.2489  1.4962
  800MOL0     H 5592   7.015  10.564   2.399 -0.9519 -0.1506 -3.3869
  800MOL0     H 5593   7.182  10.589   2.421 -0.4246 -0.6683  3.1091
  800MOL0     H 5594   7.040  10.432   2.208  0.6523 -2.1724 -0.7926
  800MOL0     H 5595   7.169  10.339   2.276  1.2702  0.8020 -2.8272
  800MOL0     H 5596   7.211  10.520   2.066 -0.3654  1.5507 -0.3315
  800MOL0     H 5597   7.227  10.627   2.194 -0.9651 -0.6363 -1.1130
  800MOL0     H 5598   7.586  10.396   2.219 -0.0487 -0.3446  0.0671
  800MOL0     H 5599   7.438  10.180   2.461 -0.2272  1.6826  0.6038
  800MOL0     H 5600   7.505   9.987   2.607 -0.4103 -0.5848 -0.5771
  801MOL0     O 5601   8.353   8.151   4.304 -0.1715 -0.0874  1.0037
  801MOL0     C 5602   8.347   8.028   4.291  0.5153  0.1587  0.4439
  801MOL0     O 5603   8.398   7.940   4.379  0.3854 -1.3027  0.3011
  801MOL0     C 5604   8.420   7.972   4.511  0.1555 -0.7134 -0.1118
  801MOL0     C 5605   8.524   7.900   4.581  0.1602 -1.1945  0.6209
  801MOL0     C 5606   8.554   7.924   4.710 -0.1321 -0.2597  0.0491
  801MOL0     C 5607   8.482   8.018   4.785  0.0346 -0.1599  0.1710
  801MOL0     O 5608   8.506   8.039   4.916  0.1392  0.1855 -0.5976
  801MOL0     C 5609   8.400   8.034   5.014 -0.1245  0.4781 -0.0347
  801MOL0     C 5610   8.330   8.163   5.063  0.2030  0.0382  0.2182
  801MOL0     C 5611   8.422   8.292   5.065  0.8538  0.7648 -0.1196
  801MOL0     C 5612   8.378   8.404   5.155  0.2115 -1.0430  0.1369
  801MOL0     C 5613   8.273   8.491   5.089 -0.9721 -0.0585 -0.0458
  801MOL0     C 5614   8.269   8.631   5.163  0.5060 -0.8750 -1.0989
  801MOL0     C 5615   8.128   8.689   5.144 -0.1986  0.0573 -0.2069
  801MOL0     C 5616   8.125   8.831   5.190 -0.2048  0.7593  0.2758
  801MOL0     N 5617   8.115   8.840   5.340 -0.5758 -0.0085  1.1695
  801MOL0     C 5618   8.126   8.951   5.428  0.0405  0.3717  0.7935
  801MOL0     C 5619   8.109   8.892   5.550 -0.0395 -0.1290  0.2079
  801MOL0     C 5620   8.108   8.976   5.677  0.4388  0.3625 -0.1528
  801MOL0     C 5621   8.231   8.951   5.764 -0.1865  0.1856  1.3416
  801MOL0     C 5622   8.343   9.050   5.725  0.5112  0.5859 -0.9564
  801MOL0     C 5623   8.465   9.020   5.814  0.4841  0.7081  0.8720
  801MOL0     O 5624   8.533   8.915   5.748  0.0169  0.4964 -0.1132
  801MOL0     C 5625   8.633   8.839   5.814  0.7460 -0.7596  0.4280
  801MOL0     C 5626   8.662   8.857   5.951  0.7827  0.6304  2.3781
  801MOL0     C 5627   8.740   8.764   6.017  0.7425 -0.0441  0.9106
  801MOL0     C 5628   8.814   8.665   5.946  0.6335 -0.0139  0.9142
  801MOL0     C 5629   8.916   8.589   6.014 -0.3652 -0.3484  0.2905
  801MOL0     O 5630   8.981   8.505   5.944 -0.4900  0.5821  0.3762
  801MOL0     C 5631   9.101   8.452   5.992  0.1816 -0.6565 -0.2620
  801MOL0     C 5632   9.197   8.530   6.060  0.4757 -0.1831  0.7052
  801MOL0     C 5633   9.316   8.479   6.105 -0.1453  0.8897  0.6347
  801MOL0     C 5634   9.364   8.344   6.068  0.0962 -0.6625  0.9487
  801MOL0     O 5635   9.489   8.301   6.108  0.6623 -0.7221  0.3174
  801MOL0     C 5636   9.489   8.253   6.246  0.1450  0.5129  0.2703
  801MOL0     C 5637   9.626   8.290   6.319 -0.4060 -0.4974 -1.1601
  801MOL0     C 5638   9.665   8.444   6.301  0.6846  0.8006 -0.7654
  801MOL0     C 5639   9.751   8.486   6.425  1.1239 -0.1292 -0.4329
  801MOL0     C 5640   9.886   8.412   6.410 -0.1203 -0.3316  0.4379
  801MOL0     C 5641   9.970   8.458   6.283  0.7646  0.0869 -0.1565
  801MOL0     C 5642  10.104   8.379   6.293  0.0998  0.1450 -1.2019
  801MOL0     C 5643  10.223   8.473   6.250  0.1819  0.8813  0.1647
  801MOL0    Cl 5644  10.361   8.402   6.150 -0.0618  0.0504 -0.3161
  801MOL0     C 5645   9.268   8.275   6.000 -0.8108  0.6108  1.0576
  801MOL0     C 5646   9.142   8.320   5.951 -0.4340 -0.4093 -0.3176
  801MOL0     O 5647   8.932   8.606   6.138 -0.1501 -0.1471  0.7250
  801MOL0     C 5648   8.779   8.658   5.805 -0.8027  0.3102  0.0877
  801MOL0     C 5649   8.691   8.745   5.742  0.1208 -0.3057  0.3000
  801MOL0     N 5650   8.077   8.757   5.541  0.0040 -0.3348 -0.7383
  801MOL0     N 5651   8.094   8.732   5.420 -0.0264 -0.1773 -1.0264
  801MOL0     C 5652   8.381   8.092   4.727  0.2562  0.3926  0.7203
  801MOL0     C 5653   8.358   8.077   4.585 -0.9886 -0.5583 -0.4829
  801MOL0     C 5654   8.283   7.962   4.168 -0.1611 -1.2979 -0.4765
  801MOL0     C 5655   8.258   8.028   4.047  0.0020 -0.3063 -0.2505
  801MOL0     C 5656   8.213   7.956   3.931  0.3198  0.9245  0.2154
  801MOL0     C 5657   8.193   7.816   3.939  0.6170  0.8161 -0.7235
  801MOL0     O 5658   8.145   7.753   3.827 -0.2216 -0.3465 -0.1188
  801MOL0     C 5659   8.060   7.648   3.826  0.0402  0.7672 -0.1934
  801MOL0     C 5660   8.037   7.622   3.675 -0.1315 -0.1236 -0.4280
  801MOL0     C 5661   7.938   7.730   3.622 -0.4260 -0.4049  1.0131
  801MOL0     C 5662   7.943   7.746   3.466  0.1420  0.5001 -0.8956
  801MOL0     C 5663   7.853   7.849   3.429  0.1844  0.0903  0.1065
  801MOL0     C 5664   7.771   7.943   3.395 -0.3374  1.0058 -0.6398
  801MOL0     C 5665   8.199   7.754   4.073  0.1250 -0.8297  0.2927
  801MOL0     C 5666   8.246   7.833   4.175  0.0259  0.7817  0.5323
  801MOL0     H 5667   8.581   7.819   4.536  0.6842 -1.0389  0.9986
  801MOL0     H 5668   8.642   7.874   4.748 -0.5618 -5.7233 -4.7973
  801MOL0     H 5669   8.452   7.988   5.099 -0.5715 -2.3956 -1.1926
  801MOL0     H 5670   8.328   7.956   4.986  0.1637  0.5610 -1.0410
  801MOL0     H 5671   8.299   8.128   5.162  0.1770  1.7762  0.8533
  801MOL0     H 5672   8.239   8.184   5.006  0.9311  0.7569 -0.7012
  801MOL0     H 5673   8.440   8.318   4.961 -0.6477  0.7354 -0.4135
  801MOL0     H 5674   8.500   8.236   5.118 -1.8379 -0.1949  3.1953
  801MOL0     H 5675   8.357   8.372   5.257  2.9662 -3.2589  0.1226
  801MOL0     H 5676   8.464   8.472   5.161 -1.7279  1.4923  1.0043
  801MOL0     H 5677   8.188   8.424   5.101 -0.9777  0.4135  4.5015
  801MOL0     H 5678   8.295   8.503   4.983 -0.7073 -3.3265 -0.4612
  801MOL0     H 5679   8.351   8.687   5.118  0.1675 -0.1341 -0.8229
  801MOL0     H 5680   8.287   8.618   5.270 -4.0923 -0.9500 -0.1488
  801MOL0     H 5681   8.102   8.695   5.038  3.9632  2.8239 -1.3521
  801MOL0     H 5682   8.058   8.619   5.189  0.8432 -1.5952 -1.0576
  801MOL0     H 5683   8.032   8.875   5.153 -1.0353  0.3010  1.7397
  801MOL0     H 5684   8.207   8.895   5.155 -1.1391  1.8793  0.0906
  801MOL0     H 5685   8.148   9.056   5.407 -1.8015  0.3048 -1.9633
  801MOL0     H 5686   8.025   8.938   5.738  0.8294 -0.4869 -0.1366
  801MOL0     H 5687   8.095   9.083   5.662  0.9177  0.1462 -2.3856
  801MOL0     H 5688   8.264   8.850   5.738  0.0037  0.0440  2.1111
  801MOL0     H 5689   8.193   8.969   5.865  1.0747  3.1056  1.4110
  801MOL0     H 5690   8.369   9.043   5.619  1.3680 -0.1495 -0.7048
  801MOL0     H 5691   8.300   9.149   5.745 -1.1547 -0.5591  1.7352
  801MOL0     H 5692   8.427   9.005   5.916 -2.0275  1.7773  0.1644
  801MOL0     H 5693   8.542   9.098   5.810  0.0321  1.1497  0.7429
  801MOL0     H 5694   8.616   8.935   6.010 -0.5100 -1.1500  3.8606
  801MOL0     H 5695   8.749   8.784   6.123 -0.1250 -1.2825  1.2483
  801MOL0     H 5696   9.193   8.638   6.066  1.7237 -0.1451  1.2453
  801MOL0     H 5697   9.385   8.548   6.152  0.1640 -1.0575  3.2779
  801MOL0     H 5698   9.486   8.144   6.240 -1.4365  0.5800 -0.6847
  801MOL0     H 5699   9.399   8.290   6.297  0.0547  1.3863 -0.5042
  801MOL0     H 5700   9.708   8.228   6.283 -0.0335 -0.6623 -0.0751
  801MOL0     H 5701   9.622   8.264   6.425  1.5049  0.3841 -0.8374
  801MOL0     H 5702   9.574   8.502   6.318  2.2497  2.9804  0.7418
  801MOL0     H 5703   9.697   8.472   6.200 -0.2737  0.2789 -1.2293
  801MOL0     H 5704   9.759   8.594   6.434 -0.4482  0.1523 -1.9194
  801MOL0     H 5705   9.698   8.454   6.516 -1.2722 -0.9341 -2.0027
  801MOL0     H 5706   9.873   8.304   6.418  1.3091 -0.3681  5.8539
  801MOL0     H 5707   9.949   8.429   6.498 -1.4670  0.5633  1.2551
  801MOL0     H 5708   9.981   8.567   6.285  1.7764  0.0129  2.2608
  801MOL0     H 5709   9.925   8.442   6.185 -2.1773 -1.1474  1.2966
  801MOL0     H 5710  10.124   8.347   6.396 -1.0927 -0.5312 -1.1694
  801MOL0     H 5711  10.078   8.289   6.237 -2.4232 -0.4862  0.8098
  801MOL0     H 5712  10.263   8.519   6.341  1.3049 -0.1887  0.2389
  801MOL0     H 5713  10.172   8.545   6.185  0.3367  1.2924  0.4906
  801MOL0     H 5714   9.309   8.181   5.963  0.7191  2.0001 -0.9569
  801MOL0     H 5715   9.078   8.263   5.884  1.0791 -4.9485  1.6704
  801MOL0     H 5716   8.821   8.585   5.737  1.8120  3.1029 -1.5552
  801MOL0     H 5717   8.656   8.739   5.639 -0.0891  1.6536  0.2275
  801MOL0     H 5718   8.317   8.156   4.787 -1.0506 -0.9411  0.7960
  801MOL0     H 5719   8.279   8.138   4.544 -1.5519 -2.4311 -2.3915
  801MOL0     H 5720   8.266   8.136   4.060 -1.2353 -0.2648  0.3619
  801MOL0     H 5721   8.182   7.995   3.835 -0.2661 -0.6860 -0.2755
  801MOL0     H 5722   7.968   7.664   3.882  1.2735  1.8817  1.6277
  801MOL0     H 5723   8.103   7.553   3.862 -0.5389 -0.2937 -2.1510
  801MOL0     H 5724   8.128   7.629   3.615 -1.5086 -0.8537 -2.7167
  801MOL0     H 5725   7.993   7.523   3.660  1.0587 -0.3961 -2.5087
  801MOL0     H 5726   7.953   7.831   3.661 -0.0859 -0.3101  0.6515
  801MOL0     H 5727   7.837   7.701   3.651  0.4741 -1.9615  2.7654
  801MOL0     H 5728   8.042   7.782   3.436  0.2278  0.4713 -0.6494
  801MOL0     H 5729   7.928   7.651   3.415 -0.2257 -0.3856  0.8091
  801MOL0     H 5730   7.701   8.020   3.371 -0.2171  0.8527 -1.5083
  801MOL0     H 5731   8.161   7.655   4.094 -0.2918  0.0457  4.4050
  801MOL0     H 5732   8.253   7.782   4.271  1.1801 -0.6066 -0.2440
  802MOL0     O 5733   1.437   0.636   7.176  0.1368  0.6643  0.7975
  802MOL0     C 5734   1.329   0.671   7.123  0.1293 -0.7924  0.3646
  802MOL0     O 5735   1.299   0.654   6.995  0.0621 -1.3760 -0.3291
  802MOL0     C 5736   1.390   0.592   6.917  0.1549 -0.0929  0.2121
  802MOL0     C 5737   1.451   0.664   6.816  1.2168 -0.1455 -0.0677
  802MOL0     C 5738   1.544   0.597   6.722 -0.5694 -0.1105 -0.0792
  802MOL0     C 5739   1.565   0.461   6.738  0.2956 -0.2142  0.9277
  802MOL0     O 5740   1.640   0.377   6.665  0.2986  0.5121  0.5337
  802MOL0     C 5741   1.635   0.383   6.521  0.9578  1.1747 -0.6331
  802MOL0     C 5742   1.700   0.263   6.460 -0.1474 -0.6482 -0.3555
  802MOL0     C 5743   1.593   0.154   6.430  0.3806  0.1334  0.3025
  802MOL0     C 5744   1.662   0.021   6.405  0.7034 -1.0444 -0.7206
  802MOL0     C 5745   1.561  -0.077   6.370  0.1039  1.2524 -1.4622
  802MOL0     C 5746   1.586  -0.232   6.378 -0.5985  0.4909 -0.0494
  802MOL0     C 5747   1.700  -0.267   6.280  0.2400 -0.1014 -0.1678
  802MOL0     C 5748   1.785  -0.386   6.321  0.5107 -0.5648  0.1043
  802MOL0     N 5749   1.917  -0.375   6.254 -0.3581  0.4544  0.1638
  802MOL0     C 5750   2.013  -0.275   6.273  0.2142  0.2311 -1.0361
  802MOL0     C 5751   2.085  -0.280   6.158 -0.2777  0.2889 -0.2616
  802MOL0     C 5752   2.171  -0.169   6.111 -0.2006  0.1664 -0.5021
  802MOL0     C 5753   2.084  -0.036   6.115  0.2973 -0.5383  0.6725
  802MOL0     C 5754   2.150   0.096   6.162  0.1014  1.4737  0.1544
  802MOL0     C 5755   2.259   0.142   6.059 -0.5526 -0.3773 -0.1244
  802MOL0     O 5756   2.389   0.083   6.062  0.0715 -0.1437 -0.0847
  802MOL0     C 5757   2.483   0.126   5.965 -0.6015  0.6869 -0.0564
  802MOL0     C 5758   2.499   0.258   5.919 -0.2076  0.0503  0.4482
  802MOL0     C 5759   2.603   0.286   5.827 -0.2813 -0.1856  0.0817
  802MOL0     C 5760   2.674   0.181   5.770 -0.6497  0.5357  0.6127
  802MOL0     C 5761   2.783   0.223   5.668  0.1842  0.1956  1.0832
  802MOL0     O 5762   2.849   0.117   5.630 -0.2484  0.5576 -0.1544
  802MOL0     C 5763   2.930   0.105   5.517 -0.3142 -0.2604 -0.0201
  802MOL0     C 5764   2.886   0.036   5.409 -0.2937  0.0183 -0.3609
  802MOL0     C 5765   2.951   0.035   5.283  0.4933 -0.1674 -0.4539
  802MOL0     C 5766   3.077   0.078   5.269  0.3485  1.4436  0.8063
  802MOL0     O 5767   3.142   0.066   5.142 -0.0833  0.6423 -1.0407
  802MOL0     C 5768   3.279   0.051   5.149 -0.2684 -0.2486  0.0702
  802MOL0     C 5769   3.326  -0.009   5.011 -0.8052  0.6082  0.1952
  802MOL0     C 5770   3.376   0.105   4.922 -1.1229 -0.6164 -0.0718
  802MOL0     C 5771   3.447   0.048   4.798  1.1000  0.5712 -0.3952
  802MOL0     C 5772   3.467   0.156   4.691 -0.8371  0.7025 -0.0457
  802MOL0     C 5773   3.599   0.116   4.622  0.0313  0.1057  0.3313
  802MOL0     C 5774   3.650   0.230   4.543 -0.5014  0.1315  0.1956
  802MOL0     C 5775   3.748   0.189   4.437 -0.1620 -0.3579  0.3375
  802MOL0    Cl 5776   3.918   0.164   4.515  0.5539  0.2145  0.4915
  802MOL0     C 5777   3.137   0.132   5.387  0.3411 -0.0225 -1.0327
  802MOL0     C 5778   3.067   0.140   5.501  0.2987 -0.4824 -0.4451
  802MOL0     O 5779   2.793   0.332   5.626 -0.7397  0.4418 -0.7564
  802MOL0     C 5780   2.649   0.044   5.814  0.6139 -0.2617  0.6892
  802MOL0     C 5781   2.560   0.020   5.913  0.8539 -0.4590  0.2849
  802MOL0     N 5782   2.039  -0.378   6.081  0.3715  0.1875 -0.0513
  802MOL0     N 5783   1.942  -0.434   6.140  0.2585  0.7107  0.5925
  802MOL0     C 5784   1.495   0.395   6.840  0.6540 -0.0327  0.3135
  802MOL0     C 5785   1.420   0.453   6.929  0.6675  0.7053 -0.7855
  802MOL0     C 5786   1.236   0.740   7.214 -0.4509 -0.0783 -0.6344
  802MOL0     C 5787   1.279   0.798   7.336  0.8563 -0.1643 -0.7682
  802MOL0     C 5788   1.200   0.876   7.419  0.2390  0.1057  0.3072
  802MOL0     C 5789   1.064   0.887   7.393 -0.5028  0.0286  0.4786
  802MOL0     O 5790   1.001   0.967   7.487 -0.5501 -0.4111 -0.3744
  802MOL0     C 5791   0.870   1.011   7.460  0.2890 -0.0786  0.6164
  802MOL0     C 5792   0.768   0.923   7.542 -0.0160 -0.0494 -0.1104
  802MOL0     C 5793   0.619   0.960   7.524  0.2216 -0.3348  0.8408
  802MOL0     C 5794   0.580   1.034   7.397 -0.2905  0.4563 -0.4824
  802MOL0     C 5795   0.436   1.070   7.390  0.0790  0.4399 -0.5196
  802MOL0     C 5796   0.317   1.105   7.391 -0.4530  0.2454 -0.7653
  802MOL0     C 5797   1.017   0.830   7.275 -0.7998  0.2144 -0.2843
  802MOL0     C 5798   1.100   0.771   7.187 -0.4938  0.1265 -0.0658
  802MOL0     H 5799   1.421   0.767   6.804 -0.3787 -0.6845 -0.9119
  802MOL0     H 5800   1.578   0.652   6.634 -0.7631 -1.5400 -1.0856
  802MOL0     H 5801   1.683   0.472   6.480 -0.3396  1.9183 -0.6050
  802MOL0     H 5802   1.528   0.381   6.497  0.6656 -0.6959  0.5616
  802MOL0     H 5803   1.778   0.216   6.522  0.9039 -1.2885 -2.0918
  802MOL0     H 5804   1.742   0.295   6.364  2.0329  1.2604  1.1084
  802MOL0     H 5805   1.532   0.193   6.347  0.2760  0.6520  0.6176
  802MOL0     H 5806   1.522   0.144   6.513  1.9324 -2.4589  1.4330
  802MOL0     H 5807   1.748   0.017   6.337  0.0162 -1.5637 -1.5946
  802MOL0     H 5808   1.708  -0.006   6.500  0.6587 -1.8919 -0.9245
  802MOL0     H 5809   1.513  -0.058   6.274  0.5425 -0.6596 -2.0907
  802MOL0     H 5810   1.480  -0.061   6.442 -0.5097 -0.9794 -1.5805
  802MOL0     H 5811   1.490  -0.276   6.350 -0.3823  0.3892 -0.6456
  802MOL0     H 5812   1.613  -0.248   6.483  2.9278  2.2394 -0.5298
  802MOL0     H 5813   1.650  -0.297   6.187 -0.4083 -1.5798  0.6166
  802MOL0     H 5814   1.764  -0.180   6.262  0.7407  0.0755  2.1121
  802MOL0     H 5815   1.739  -0.483   6.301 -2.7508  0.2868  2.5483
  802MOL0     H 5816   1.799  -0.391   6.429 -0.1690 -2.9191  0.1313
  802MOL0     H 5817   2.012  -0.186   6.335  0.1652 -1.0120  0.8259
  802MOL0     H 5818   2.226  -0.187   6.018  0.1807 -1.5673  0.0385
  802MOL0     H 5819   2.249  -0.162   6.187  2.8245  2.3287 -3.4725
  802MOL0     H 5820   1.997  -0.035   6.181 -1.6405 -0.2449 -1.7087
  802MOL0     H 5821   2.035  -0.026   6.017 -0.4349 -1.0325  0.9872
  802MOL0     H 5822   2.074   0.173   6.179 -2.2030 -0.7665  0.6424
  802MOL0     H 5823   2.205   0.080   6.256 -0.5239 -2.9392 -0.0071
  802MOL0     H 5824   2.278   0.250   6.055 -1.4279 -0.2345 -1.2072
  802MOL0     H 5825   2.212   0.120   5.962 -1.8353 -2.9831  0.9896
  802MOL0     H 5826   2.433   0.330   5.967 -1.1777 -0.3185 -0.3048
  802MOL0     H 5827   2.630   0.387   5.798 -1.2376  1.3231  3.8032
  802MOL0     H 5828   2.789  -0.013   5.410 -0.3032  0.0251 -0.9139
  802MOL0     H 5829   2.903   0.018   5.187 -0.3414  2.0265 -0.4837
  802MOL0     H 5830   3.301  -0.025   5.224  0.4574 -1.1711 -1.0618
  802MOL0     H 5831   3.320   0.149   5.176 -2.6591  0.6008  0.9668
  802MOL0     H 5832   3.247  -0.064   4.959  1.1546 -1.0329 -1.1963
  802MOL0     H 5833   3.408  -0.079   5.030 -0.8869  0.5414  0.2995
  802MOL0     H 5834   3.451   0.171   4.968  0.9858 -2.7691 -0.2418
  802MOL0     H 5835   3.298   0.176   4.891 -0.1701  1.3451  1.7225
  802MOL0     H 5836   3.540   0.007   4.839  0.4108 -0.6629 -0.0081
  802MOL0     H 5837   3.390  -0.036   4.758  1.3221  1.0133 -1.6544
  802MOL0     H 5838   3.493   0.251   4.738  0.3113  0.6505 -0.5528
  802MOL0     H 5839   3.376   0.156   4.630 -3.1824  2.5549  3.1891
  802MOL0     H 5840   3.596   0.022   4.567  3.4862  0.0121  0.1035
  802MOL0     H 5841   3.674   0.107   4.702 -1.0722  0.6386  1.4625
  802MOL0     H 5842   3.564   0.291   4.514 -0.9125 -0.5567 -0.0737
  802MOL0     H 5843   3.709   0.302   4.601  0.0840 -0.1338 -0.0610
  802MOL0     H 5844   3.759   0.265   4.360  2.3858 -2.2701 -1.3381
  802MOL0     H 5845   3.720   0.092   4.394 -0.0087 -1.7699  3.1520
  802MOL0     H 5846   3.237   0.173   5.401 -0.3305  0.7940  2.1949
  802MOL0     H 5847   3.113   0.188   5.587  3.5396  2.8954 -3.7029
  802MOL0     H 5848   2.704  -0.042   5.779 -1.0356 -1.5999  1.2652
  802MOL0     H 5849   2.552  -0.079   5.957  1.4891 -1.6963 -2.2121
  802MOL0     H 5850   1.509   0.287   6.846 -1.5873 -0.3760  0.0903
  802MOL0     H 5851   1.382   0.384   7.004  0.6618 -0.8108 -2.1387
  802MOL0     H 5852   1.384   0.775   7.354  0.6720 -1.5791 -1.3822
  802MOL0     H 5853   1.257   0.922   7.499 -1.9850 -0.6779  2.4540
  802MOL0     H 5854   0.845   0.994   7.355  0.8029 -3.0851  0.8858
  802MOL0     H 5855   0.866   1.114   7.496 -3.3462 -0.4339  1.6295
  802MOL0     H 5856   0.776   0.821   7.505 -0.3977 -1.3148  3.0165
  802MOL0     H 5857   0.802   0.925   7.646 -0.9332 -1.6083  0.2440
  802MOL0     H 5858   0.591   1.019   7.611 -0.3166 -0.3097  0.6537
  802MOL0     H 5859   0.552   0.873   7.520  2.2726 -2.0151 -2.9110
  802MOL0     H 5860   0.640   1.125   7.386  1.4518 -0.6596 -0.6437
  802MOL0     H 5861   0.607   0.962   7.319  0.4673  2.8452 -2.5721
  802MOL0     H 5862   0.211   1.115   7.392 -0.3628  2.2906  1.9635
  802MOL0     H 5863   0.911   0.830   7.250 -0.5787  0.2526 -1.2587
  802MOL0     H 5864   1.062   0.739   7.091 -3.7784 -0.6391  1.3608
  803MOL0     O 5865   8.020   9.538   1.232 -0.1845 -0.2544 -0.1400
  803MOL0     C 5866   7.939   9.541   1.140  0.3244 -0.3616  0.4189
  803MOL0     O 5867   7.896   9.657   1.075 -0.0185  0.3512 -0.1401
  803MOL0     C 5868   7.991   9.752   1.053  0.0883  0.3606  0.2936
  803MOL0     C 5869   7.942   9.880   1.024  0.0320 -0.3124 -0.1417
  803MOL0     C 5870   8.020   9.988   0.992  0.1286  0.6781 -0.6842
  803MOL0     C 5871   8.158   9.967   0.990 -0.5296 -0.1535  1.1223
  803MOL0     O 5872   8.247  10.073   0.973 -0.0770 -0.7304  0.0156
  803MOL0     C 5873   8.207  10.215   0.983 -0.0398  0.4811  0.0423
  803MOL0     C 5874   8.163  10.260   0.843  0.9648  0.4595 -0.1828
  803MOL0     C 5875   8.064  10.382   0.872  0.0979  0.1649  0.3992
  803MOL0     C 5876   7.995  10.423   0.737 -1.1477  0.4970 -0.7767
  803MOL0     C 5877   7.948  10.572   0.734 -0.8236 -0.0602  0.6213
  803MOL0     C 5878   7.924  10.616   0.590  1.1693 -0.3044 -0.2670
  803MOL0     C 5879   7.798  10.560   0.520  0.9781  0.5659  0.8428
  803MOL0     C 5880   7.756  10.647   0.405  0.2418 -0.5353 -0.3467
  803MOL0     N 5881   7.852  10.622   0.301  0.2201 -0.2972  0.1414
  803MOL0     C 5882   7.949  10.708   0.264  0.4375  0.1561  1.0559
  803MOL0     C 5883   8.016  10.659   0.156  0.4316  0.6827  0.5354
  803MOL0     C 5884   8.147  10.706   0.090 -0.8057 -0.5704  0.6999
  803MOL0     C 5885   8.151  10.663  -0.052 -0.5170  0.4964  0.7556
  803MOL0     C 5886   8.287  10.696  -0.133  0.4863 -1.0939 -0.1393
  803MOL0     C 5887   8.276  10.660  -0.283 -0.2662  0.7664 -0.2130
  803MOL0     O 5888   8.354  10.765  -0.341  1.0067 -0.0243  0.9332
  803MOL0     C 5889   8.347  10.773  -0.480 -1.0028 -0.2481 -0.1607
  803MOL0     C 5890   8.403  10.882  -0.538 -0.5393  0.7978  0.5977
  803MOL0     C 5891   8.409  10.898  -0.685 -0.5607 -0.2795 -0.0346
  803MOL0     C 5892   8.359  10.803  -0.772  0.1332  0.6507 -0.7642
  803MOL0     C 5893   8.367  10.836  -0.920  1.2442  0.1816  1.2248
  803MOL0     O 5894   8.313  10.748  -1.014 -0.5442 -0.0522  0.2305
  803MOL0     C 5895   8.328  10.768  -1.147  0.2322  0.0579 -0.4810
  803MOL0     C 5896   8.435  10.829  -1.213  0.2039 -0.4307 -0.2983
  803MOL0     C 5897   8.448  10.824  -1.356  0.4688  0.0207  0.3949
  803MOL0     C 5898   8.342  10.766  -1.434 -0.0882  0.9463  0.0959
  803MOL0     O 5899   8.351  10.745  -1.566  0.2385  0.4305 -1.0155
  803MOL0     C 5900   8.419  10.627  -1.603 -0.0795  0.3363  0.2842
  803MOL0     C 5901   8.452  10.633  -1.759  0.2273  0.5354 -1.9270
  803MOL0     C 5902   8.573  10.725  -1.774  0.0770 -0.5177 -0.4985
  803MOL0     C 5903   8.703  10.636  -1.736 -0.3321 -0.4860  0.2262
  803MOL0     C 5904   8.821  10.733  -1.754 -0.3149 -0.4234 -0.0782
  803MOL0     C 5905   8.845  10.831  -1.641  0.0720  0.1697  0.1638
  803MOL0     C 5906   8.979  10.904  -1.659 -0.0640 -0.4400 -0.1392
  803MOL0     C 5907   9.006  10.965  -1.525  0.5053 -1.1502 -0.8167
  803MOL0    Cl 5908   9.103  10.852  -1.412  0.4795 -0.1454 -0.0909
  803MOL0     C 5909   8.231  10.712  -1.364  1.2964  0.8466 -1.4024
  803MOL0     C 5910   8.218  10.721  -1.221  0.5760  0.0505 -0.7457
  803MOL0     O 5911   8.433  10.939  -0.950  0.0232  0.2410 -0.2760
  803MOL0     C 5912   8.307  10.693  -0.706  0.2409 -0.3618 -0.6424
  803MOL0     C 5913   8.307  10.677  -0.566 -1.0086 -0.2167  0.3427
  803MOL0     N 5914   7.952  10.530   0.132  0.6828 -0.5936  0.6071
  803MOL0     N 5915   7.855  10.515   0.215 -1.0341  1.0035 -0.2352
  803MOL0     C 5916   8.211   9.839   1.016  0.3226 -0.1781  0.2703
  803MOL0     C 5917   8.130   9.730   1.047  0.2333  0.1075  0.5445
  803MOL0     C 5918   7.901   9.412   1.078 -0.1361  1.1352 -0.2859
  803MOL0     C 5919   7.817   9.407   0.967 -0.1043  0.3859  0.0076
  803MOL0     C 5920   7.773   9.283   0.929 -0.2464 -0.0062  0.4724
  803MOL0     C 5921   7.834   9.162   0.972  0.5305 -1.1077 -0.9744
  803MOL0     O 5922   7.802   9.043   0.910 -0.3055 -0.2180 -0.1342
  803MOL0     C 5923   7.812   9.036   0.773  0.2538 -0.0467 -0.0364
  803MOL0     C 5924   7.956   9.048   0.719  0.0983  0.4653 -1.1774
  803MOL0     C 5925   8.073   8.998   0.810  0.0193 -0.2169  0.4602
  803MOL0     C 5926   8.033   8.856   0.852  0.0434  0.4074 -0.6644
  803MOL0     C 5927   8.119   8.811   0.963  0.5725  0.1722 -0.1597
  803MOL0     C 5928   8.195   8.759   1.046  0.2198  0.7613  0.9357
  803MOL0     C 5929   7.928   9.172   1.076  0.1342 -0.0796 -0.0182
  803MOL0     C 5930   7.951   9.297   1.132  0.4562 -0.1077  1.1848
  803MOL0     H 5931   7.834   9.889   1.034  0.2163 -0.3144  2.3673
  803MOL0     H 5932   7.987  10.091   0.986  3.0163  1.7058 -0.5501
  803MOL0     H 5933   8.300  10.266   1.008  0.8741 -0.1040 -1.9718
  803MOL0     H 5934   8.136  10.226   1.066 -1.0347 -1.3932 -0.4964
  803MOL0     H 5935   8.106  10.177   0.800 -0.5606  1.0057  0.7013
  803MOL0     H 5936   8.242  10.293   0.774  0.8194 -2.5543 -1.9782
  803MOL0     H 5937   8.114  10.468   0.918  0.3941 -1.7540  4.0126
  803MOL0     H 5938   7.986  10.335   0.932  0.8485 -1.5181  0.0957
  803MOL0     H 5939   8.070  10.412   0.658 -2.9437  0.2213 -2.5103
  803MOL0     H 5940   7.907  10.367   0.704 -0.9329  0.6919 -1.7093
  803MOL0     H 5941   8.028  10.627   0.784 -0.3427  2.1580 -2.3174
  803MOL0     H 5942   7.866  10.597   0.803 -0.7182  4.3758 -0.5385
  803MOL0     H 5943   8.006  10.591   0.523  2.0753  1.2486  0.2288
  803MOL0     H 5944   7.930  10.724   0.604 -0.6082 -0.4437  2.4522
  803MOL0     H 5945   7.803  10.458   0.481 -1.2690  0.2056  1.3548
  803MOL0     H 5946   7.714  10.557   0.590 -1.5275  0.6335 -1.9637
  803MOL0     H 5947   7.747  10.748   0.449  0.4998 -0.4792 -0.4214
  803MOL0     H 5948   7.662  10.613   0.362 -0.6278  2.8767 -1.4830
  803MOL0     H 5949   7.957  10.815   0.283 -0.8509  0.4040  0.3708
  803MOL0     H 5950   8.240  10.673   0.136  1.1739  2.6897 -0.6091
  803MOL0     H 5951   8.149  10.816   0.092 -2.7969 -0.4254 -0.9722
  803MOL0     H 5952   8.067  10.701  -0.109 -1.3374 -2.4319 -0.1837
  803MOL0     H 5953   8.150  10.554  -0.044 -0.9101  0.3912 -0.5149
  803MOL0     H 5954   8.307  10.803  -0.122 -0.0982 -1.2688  3.9480
  803MOL0     H 5955   8.368  10.637  -0.089  2.2278  0.9912 -0.3441
  803MOL0     H 5956   8.177  10.645  -0.326  0.3770 -2.6685 -0.7585
  803MOL0     H 5957   8.325  10.565  -0.306  0.8051  1.3490 -0.4349
  803MOL0     H 5958   8.446  10.957  -0.472 -1.2718 -0.5803  2.7426
  803MOL0     H 5959   8.453  10.992  -0.715  1.9273 -1.6649 -1.1015
  803MOL0     H 5960   8.515  10.869  -1.152  0.3309  0.2239 -0.8816
  803MOL0     H 5961   8.543  10.847  -1.404 -1.3765  0.8330 -3.2115
  803MOL0     H 5962   8.354  10.539  -1.594  1.1055 -0.7211 -1.0489
  803MOL0     H 5963   8.508  10.605  -1.543  0.4685 -2.6522 -1.4520
  803MOL0     H 5964   8.368  10.675  -1.814 -2.3072 -2.7696 -0.9428
  803MOL0     H 5965   8.475  10.536  -1.804  3.1353 -1.0079  2.2614
  803MOL0     H 5966   8.566  10.808  -1.703 -0.4778 -0.6727 -0.3690
  803MOL0     H 5967   8.582  10.758  -1.878 -1.5034  2.0869  0.0985
  803MOL0     H 5968   8.688  10.594  -1.636 -4.0476 -1.8545 -0.7390
  803MOL0     H 5969   8.720  10.554  -1.806  2.9835 -0.1893  0.5124
  803MOL0     H 5970   8.799  10.798  -1.839 -0.7414  0.5678  0.7664
  803MOL0     H 5971   8.910  10.671  -1.768  1.6156  2.1633 -0.0771
  803MOL0     H 5972   8.856  10.771  -1.550  0.7466 -2.3575 -1.4677
  803MOL0     H 5973   8.770  10.910  -1.633 -0.7429 -0.7630  3.3912
  803MOL0     H 5974   9.058  10.834  -1.688  0.1107 -0.9267  1.4401
  803MOL0     H 5975   8.961  10.985  -1.730  0.1772  2.4295  2.8612
  803MOL0     H 5976   8.919  11.010  -1.475  2.9508  2.5542  0.4950
  803MOL0     H 5977   9.068  11.055  -1.532 -0.8043  0.1323  2.1839
  803MOL0     H 5978   8.154  10.649  -1.407 -1.0523  2.1268  0.6611
  803MOL0     H 5979   8.137  10.678  -1.163  1.4107 -0.0341  0.3770
  803MOL0     H 5980   8.252  10.614  -0.756 -2.1218  1.0683 -0.4340
  803MOL0     H 5981   8.264  10.586  -0.526 -0.9932 -1.4940 -2.3464
  803MOL0     H 5982   8.318   9.827   1.025  0.3074 -0.7696 -0.2343
  803MOL0     H 5983   8.167   9.628   1.053  0.1503 -0.0003 -0.5396
  803MOL0     H 5984   7.777   9.489   0.909 -0.1966  2.8544  3.3013
  803MOL0     H 5985   7.715   9.271   0.838 -0.2502 -2.9161  0.7612
  803MOL0     H 5986   7.745   9.108   0.726 -0.7753 -0.1021  1.2858
  803MOL0     H 5987   7.771   8.936   0.757  1.1148 -0.8539  2.3618
  803MOL0     H 5988   7.950   8.976   0.637 -1.3127  2.0891 -2.5686
  803MOL0     H 5989   7.971   9.144   0.669 -2.1634  0.0624 -2.7779
  803MOL0     H 5990   8.089   9.063   0.896 -1.2618 -1.3157  1.5779
  803MOL0     H 5991   8.162   9.007   0.747 -0.1961  1.4523  0.3332
  803MOL0     H 5992   7.933   8.848   0.895  1.5172 -1.6235  2.8102
  803MOL0     H 5993   8.048   8.779   0.775  0.5861 -1.4781  1.2263
  803MOL0     H 5994   8.250   8.694   1.110  3.4807  1.9010 -0.4612
  803MOL0     H 5995   7.999   9.092   1.099  1.5256  0.0667 -3.2427
  803MOL0     H 5996   8.029   9.303   1.208 -0.6562 -0.9226  2.4444
  804MOL0     O 5997   3.088   6.779   9.115  0.1587  0.2722  0.3174
  804MOL0     C 5998   3.069   6.759   8.992 -0.6114 -0.4046  0.2656
  804MOL0     O 5999   3.082   6.852   8.898  0.5304  0.1990 -1.1129
  804MOL0     C 6000   3.175   6.950   8.903 -0.5100  0.2746 -0.2052
  804MOL0     C 6001   3.130   7.074   8.949  0.1154 -0.3436 -0.2830
  804MOL0     C 6002   3.209   7.180   8.952 -0.1819 -1.0598  0.3978
  804MOL0     C 6003   3.342   7.168   8.893  0.3906 -0.4230 -0.0583
  804MOL0     O 6004   3.437   7.267   8.876  0.3824 -0.4638 -0.4489
  804MOL0     C 6005   3.394   7.403   8.903 -0.2998  0.1852  1.0727
  804MOL0     C 6006   3.523   7.468   8.950  0.2467  0.0154  0.7084
  804MOL0     C 6007   3.555   7.412   9.099  0.5503  0.0885  1.4383
  804MOL0     C 6008   3.673   7.470   9.166 -0.4613  0.2695 -1.2474
  804MOL0     C 6009   3.657   7.613   9.223  0.8721 -1.1462 -0.6237
  804MOL0     C 6010   3.565   7.625   9.351 -0.0898  0.1607 -0.9636
  804MOL0     C 6011   3.550   7.766   9.401  0.3343 -0.1369  0.3686
  804MOL0     C 6012   3.487   7.772   9.538 -0.1754  1.1393  0.2479
  804MOL0     N 6013   3.491   7.894   9.610 -0.1277 -0.4137  0.3181
  804MOL0     C 6014   3.477   8.024   9.567  0.0292 -0.3334  0.0771
  804MOL0     C 6015   3.530   8.095   9.665  0.0176 -0.2241 -0.0269
  804MOL0     C 6016   3.543   8.251   9.687  0.2961 -0.5428 -0.2972
  804MOL0     C 6017   3.416   8.324   9.737  0.3962  0.0405  0.2498
  804MOL0     C 6018   3.444   8.469   9.770 -0.1970  0.7249  0.7798
  804MOL0     C 6019   3.458   8.567   9.652  0.0842 -0.1390  0.0064
  804MOL0     O 6020   3.402   8.532   9.525 -0.5081  0.1684  0.2874
  804MOL0     C 6021   3.278   8.574   9.498  0.2862 -0.5903  0.3106
  804MOL0     C 6022   3.171   8.574   9.596 -0.0168  0.8074 -0.3678
  804MOL0     C 6023   3.041   8.612   9.566 -0.8944 -0.0400  0.6227
  804MOL0     C 6024   3.010   8.654   9.437  0.2352 -1.0195 -0.9044
  804MOL0     C 6025   2.866   8.698   9.409 -0.4679  0.1068  0.3880
  804MOL0     O 6026   2.782   8.677   9.511  0.2988  0.1764 -0.3363
  804MOL0     C 6027   2.644   8.695   9.485  0.6486  0.1457  0.2880
  804MOL0     C 6028   2.594   8.828   9.460 -0.1886  0.4350  0.3958
  804MOL0     C 6029   2.458   8.847   9.456 -0.3203 -0.2457  1.0365
  804MOL0     C 6030   2.372   8.740   9.479 -0.0057 -0.4282  0.1846
  804MOL0     O 6031   2.236   8.776   9.482 -0.0598  0.3325 -0.3310
  804MOL0     C 6032   2.138   8.668   9.489  0.1278  0.6231 -0.2699
  804MOL0     C 6033   2.111   8.614   9.623  0.8122  0.7299 -0.3783
  804MOL0     C 6034   2.042   8.485   9.597  0.8546  0.0735 -0.9873
  804MOL0     C 6035   2.002   8.416   9.730  0.3080  0.3819  0.6494
  804MOL0     C 6036   1.886   8.321   9.709  0.0710  0.0359  0.0102
  804MOL0     C 6037   1.866   8.222   9.822 -0.9740  1.1097  0.9769
  804MOL0     C 6038   1.773   8.110   9.784  0.6778 -0.6955 -0.9581
  804MOL0     C 6039   1.720   8.035   9.911 -0.5328 -0.7342  0.2639
  804MOL0    Cl 6040   1.855   8.034  10.022 -0.0800 -0.4692  0.1773
  804MOL0     C 6041   2.417   8.609   9.514 -0.5970  0.8134 -0.0024
  804MOL0     C 6042   2.556   8.588   9.516  0.8334 -0.1648 -0.7094
  804MOL0     O 6043   2.836   8.740   9.301 -0.5060  0.3334  0.1479
  804MOL0     C 6044   3.115   8.671   9.346  0.6954  0.6135 -0.6390
  804MOL0     C 6045   3.239   8.615   9.371 -1.3033 -0.5338 -0.1920
  804MOL0     N 6046   3.584   8.008   9.759 -0.0709  0.2031  0.6586
  804MOL0     N 6047   3.560   7.884   9.728  0.8196 -0.0794  0.6309
  804MOL0     C 6048   3.382   7.047   8.852 -0.1605  0.2528  0.4245
  804MOL0     C 6049   3.306   6.936   8.858 -0.2578  0.0258 -0.4267
  804MOL0     C 6050   3.025   6.631   8.938 -1.4492  1.1052  0.7178
  804MOL0     C 6051   2.980   6.617   8.808  0.1626 -0.2181 -0.0569
  804MOL0     C 6052   2.938   6.505   8.747 -0.3127  0.4650 -0.1302
  804MOL0     C 6053   2.912   6.397   8.828 -1.1603  0.7686 -0.8550
  804MOL0     O 6054   2.878   6.276   8.779 -0.2626 -0.6764  0.0969
  804MOL0     C 6055   2.847   6.256   8.645  0.1529  0.6241  0.0040
  804MOL0     C 6056   2.814   6.102   8.625  0.6413 -0.3993 -0.3390
  804MOL0     C 6057   2.664   6.084   8.649 -1.3170  0.2829  0.3566
  804MOL0     C 6058   2.581   6.105   8.522 -0.3672  0.8138 -0.0952
  804MOL0     C 6059   2.538   5.975   8.452 -0.3109 -0.4494 -0.8165
  804MOL0     C 6060   2.474   5.871   8.437 -0.8164 -0.4210 -0.3764
  804MOL0     C 6061   2.949   6.405   8.974 -0.5884 -0.4050 -0.7192
  804MOL0     C 6062   3.015   6.513   9.019 -0.1788  0.5617  0.4829
  804MOL0     H 6063   3.032   7.070   8.995  1.6219 -1.1241  3.1405
  804MOL0     H 6064   3.182   7.279   8.989  3.5454  0.4252 -0.4057
  804MOL0     H 6065   3.317   7.416   8.980  0.8329 -1.3184  2.5341
  804MOL0     H 6066   3.362   7.452   8.811 -0.9613 -0.6667  0.8301
  804MOL0     H 6067   3.530   7.577   8.942  1.7162  0.0252  1.6224
  804MOL0     H 6068   3.610   7.432   8.894 -0.3263 -1.2213  0.5850
  804MOL0     H 6069   3.570   7.303   9.093 -3.3329 -0.5594  0.3313
  804MOL0     H 6070   3.473   7.426   9.171 -0.6604  1.2630 -0.0946
  804MOL0     H 6071   3.705   7.416   9.256  1.5499  2.8628 -0.2783
  804MOL0     H 6072   3.765   7.479   9.108  2.6368  2.8925  3.4292
  804MOL0     H 6073   3.610   7.683   9.153 -2.1147 -3.7950 -1.4575
  804MOL0     H 6074   3.753   7.658   9.252 -1.3176  2.5179  1.8904
  804MOL0     H 6075   3.596   7.552   9.426  0.6567 -1.4812 -2.7908
  804MOL0     H 6076   3.468   7.585   9.322  0.3465 -0.3335 -1.7996
  804MOL0     H 6077   3.650   7.804   9.422  0.1755  0.5511 -0.1015
  804MOL0     H 6078   3.494   7.827   9.330 -3.2146 -2.6574  0.6974
  804MOL0     H 6079   3.532   7.693   9.599 -1.0266  0.2290 -0.2692
  804MOL0     H 6080   3.385   7.734   9.526  1.0549 -2.9789  1.0673
  804MOL0     H 6081   3.433   8.049   9.471 -2.6533  1.1543  1.5881
  804MOL0     H 6082   3.579   8.299   9.596  1.2516  2.6839  1.6100
  804MOL0     H 6083   3.625   8.265   9.759 -0.0935 -2.2845  0.5434
  804MOL0     H 6084   3.384   8.280   9.831  1.8862 -1.6898  0.0030
  804MOL0     H 6085   3.342   8.309   9.659  1.3641 -5.0251  0.0090
  804MOL0     H 6086   3.366   8.510   9.834 -1.3167  0.6175 -0.4654
  804MOL0     H 6087   3.532   8.476   9.835 -0.8625  2.3367  1.5432
  804MOL0     H 6088   3.565   8.573   9.629  0.5731 -1.6581  1.7169
  804MOL0     H 6089   3.433   8.666   9.693  4.2563  0.6657  1.0299
  804MOL0     H 6090   3.193   8.525   9.690  3.4482  2.1769 -0.3084
  804MOL0     H 6091   2.969   8.591   9.644 -2.3978  0.7628 -0.5011
  804MOL0     H 6092   2.674   8.900   9.448  2.8540 -2.2723  2.8993
  804MOL0     H 6093   2.428   8.941   9.412  3.1287  0.7450  0.4328
  804MOL0     H 6094   2.174   8.590   9.420 -1.0039 -0.5766  0.4470
  804MOL0     H 6095   2.043   8.696   9.442  0.7455  1.0488 -1.3007
  804MOL0     H 6096   2.036   8.670   9.678 -1.2088  0.2653 -2.5298
  804MOL0     H 6097   2.206   8.603   9.676  2.0192  1.8244 -2.1597
  804MOL0     H 6098   2.091   8.417   9.526  0.4817 -1.7469  0.4206
  804MOL0     H 6099   1.953   8.516   9.541  0.3391  0.2901 -0.0603
  804MOL0     H 6100   2.092   8.357   9.752  1.8601  2.1949 -0.5392
  804MOL0     H 6101   1.978   8.485   9.811  2.6353  1.3814  0.5790
  804MOL0     H 6102   1.900   8.265   9.616  0.3795 -0.5427  0.3952
  804MOL0     H 6103   1.805   8.395   9.708 -1.3396 -1.2565  3.4448
  804MOL0     H 6104   1.820   8.276   9.905 -2.8276  1.8559 -0.4618
  804MOL0     H 6105   1.964   8.180   9.846 -0.4449  1.3991 -0.5631
  804MOL0     H 6106   1.684   8.150   9.735 -0.5850 -0.7148  1.2037
  804MOL0     H 6107   1.832   8.031   9.736 -0.0582 -1.6824 -0.2696
  804MOL0     H 6108   1.685   7.933   9.891  0.6348 -0.4912 -3.9709
  804MOL0     H 6109   1.638   8.095   9.952 -0.1910  0.8920 -1.3154
  804MOL0     H 6110   2.353   8.524   9.536  0.2418 -0.2906 -1.6191
  804MOL0     H 6111   2.590   8.490   9.550  1.0015 -0.0579 -0.5661
  804MOL0     H 6112   3.088   8.695   9.244 -2.4828 -2.8498 -0.8359
  804MOL0     H 6113   3.313   8.626   9.292  1.3699  0.1344  2.2549
  804MOL0     H 6114   3.476   7.034   8.800  0.6999 -0.7984  2.1274
  804MOL0     H 6115   3.351   6.842   8.831  0.3324  0.9579 -2.9781
  804MOL0     H 6116   2.972   6.712   8.757  0.2031  0.1510  0.6141
  804MOL0     H 6117   2.919   6.508   8.641  1.5999 -0.1358 -0.5243
  804MOL0     H 6118   2.933   6.269   8.578  0.3771 -1.8215 -0.2896
  804MOL0     H 6119   2.760   6.311   8.609 -0.7620 -1.3191 -0.8811
  804MOL0     H 6120   2.833   6.054   8.528 -1.0980  1.0467 -1.4547
  804MOL0     H 6121   2.869   6.057   8.708  1.7191  0.2339 -0.7038
  804MOL0     H 6122   2.627   6.154   8.725 -1.5057  0.2084  0.3329
  804MOL0     H 6123   2.650   5.985   8.694  2.3537 -0.2435  0.6986
  804MOL0     H 6124   2.493   6.166   8.548 -0.3720  0.0100  1.9902
  804MOL0     H 6125   2.637   6.162   8.448  0.1419  2.6156  1.5809
  804MOL0     H 6126   2.405   5.789   8.439 -2.0692  0.5139 -2.0654
  804MOL0     H 6127   2.938   6.320   9.040 -0.0781 -0.2824 -0.4773
  804MOL0     H 6128   3.055   6.513   9.119  2.4405  1.3409 -0.4750
  805MOL0     O 6129   3.814   5.560   5.722 -0.1822 -1.2210 -0.1394
  805MOL0     C 6130   3.780   5.507   5.619 -0.1766  0.4380 -0.1994
  805MOL0     O 6131   3.865   5.462   5.521  0.8672 -0.1455 -0.1938
  805MOL0     C 6132   3.992   5.497   5.535 -0.0259  0.7411  0.6272
  805MOL0     C 6133   4.088   5.481   5.634  0.7926 -0.6537  0.2599
  805MOL0     C 6134   4.203   5.565   5.626 -0.3927  0.2778 -0.6860
  805MOL0     C 6135   4.238   5.634   5.511 -0.3011  0.1064  0.3450
  805MOL0     O 6136   4.340   5.726   5.526 -0.3223 -1.3401 -0.5159
  805MOL0     C 6137   4.442   5.745   5.422  0.0514  0.2561 -0.4248
  805MOL0     C 6138   4.556   5.834   5.470  0.1081  0.8628  0.2627
  805MOL0     C 6139   4.672   5.858   5.369 -0.5977  0.0319  1.2227
  805MOL0     C 6140   4.766   5.959   5.431  0.1707  0.2079 -0.3599
  805MOL0     C 6141   4.901   5.968   5.358  0.5116  0.3304  0.4681
  805MOL0     C 6142   5.010   6.051   5.431  0.1291 -0.3568 -0.6353
  805MOL0     C 6143   5.014   6.197   5.398 -0.7437 -0.1436  0.0717
  805MOL0     C 6144   4.879   6.278   5.418 -0.3774 -0.2337 -0.2304
  805MOL0     N 6145   4.905   6.422   5.415  0.3383  0.1893  0.3158
  805MOL0     C 6146   4.918   6.505   5.305 -0.0094  0.8175  0.1656
  805MOL0     C 6147   4.970   6.616   5.356 -0.5584  0.3991 -0.3117
  805MOL0     C 6148   5.008   6.732   5.273 -0.3822  0.0887 -0.7455
  805MOL0     C 6149   5.088   6.833   5.353  0.3335 -0.3846  0.0698
  805MOL0     C 6150   5.123   6.951   5.275 -0.0133 -0.1275  0.0852
  805MOL0     C 6151   5.022   7.041   5.204  0.3275 -0.9124 -0.4311
  805MOL0     O 6152   4.929   7.076   5.310 -0.1772  0.3287 -1.3455
  805MOL0     C 6153   4.936   7.194   5.378 -0.3548 -0.7233 -0.1494
  805MOL0     C 6154   5.035   7.293   5.366  0.2928 -0.1093 -0.5548
  805MOL0     C 6155   5.013   7.412   5.439 -0.1949 -0.4408  0.8288
  805MOL0     C 6156   4.920   7.444   5.528  0.2605  0.8211  0.0545
  805MOL0     C 6157   4.924   7.575   5.609 -0.5536 -0.0875 -0.0297
  805MOL0     O 6158   4.815   7.591   5.684  0.3243  0.0178 -0.2459
  805MOL0     C 6159   4.821   7.653   5.802 -0.8584  0.0368  0.2845
  805MOL0     C 6160   4.770   7.578   5.906  0.1336 -0.3713  0.2676
  805MOL0     C 6161   4.767   7.627   6.037 -0.8290 -0.5128 -0.1726
  805MOL0     C 6162   4.806   7.759   6.071  0.3155  0.8036 -0.6577
  805MOL0     O 6163   4.802   7.792   6.208  0.2254 -0.0176  0.0545
  805MOL0     C 6164   4.819   7.930   6.244 -0.9979 -1.2364  0.3712
  805MOL0     C 6165   4.967   7.954   6.274  0.9100 -0.3465 -1.0012
  805MOL0     C 6166   5.017   8.102   6.283  0.1306  0.5334  0.2749
  805MOL0     C 6167   5.069   8.145   6.143  0.2796 -0.0173 -0.1957
  805MOL0     C 6168   5.123   8.291   6.143 -0.4852 -0.5272 -0.6749
  805MOL0     C 6169   5.206   8.337   6.265  0.3816  0.2688  0.4351
  805MOL0     C 6170   5.279   8.458   6.235  0.6833  0.0895  0.1139
  805MOL0     C 6171   5.374   8.493   6.351 -0.5493 -0.0215  1.1733
  805MOL0    Cl 6172   5.475   8.650   6.324  0.1082  0.2694 -0.0947
  805MOL0     C 6173   4.860   7.831   5.970 -0.5982 -0.0072 -0.0886
  805MOL0     C 6174   4.877   7.777   5.837  0.1876 -0.4683  1.0491
  805MOL0     O 6175   5.035   7.634   5.629 -0.1531  0.3723  0.3273
  805MOL0     C 6176   4.821   7.347   5.545  0.0121 -0.0165 -0.9513
  805MOL0     C 6177   4.834   7.226   5.473  0.7648 -0.9737  0.1668
  805MOL0     N 6178   4.986   6.596   5.492  0.8147  0.1409  0.4419
  805MOL0     N 6179   4.949   6.485   5.519 -0.2156  0.4250  0.4084
  805MOL0     C 6180   4.153   5.628   5.402 -0.8465 -0.8121 -0.2199
  805MOL0     C 6181   4.024   5.571   5.418  0.0244  0.2801  0.4022
  805MOL0     C 6182   3.636   5.484   5.603 -0.8219  0.3741 -0.1002
  805MOL0     C 6183   3.593   5.422   5.486 -0.5338  0.0295 -0.4033
  805MOL0     C 6184   3.460   5.379   5.469  0.1366  0.4875 -0.1357
  805MOL0     C 6185   3.371   5.390   5.580  0.0731  0.8697 -0.0997
  805MOL0     O 6186   3.237   5.361   5.579  0.6707 -0.0743  0.1440
  805MOL0     C 6187   3.178   5.314   5.455 -0.5279 -0.2177 -0.4507
  805MOL0     C 6188   3.058   5.232   5.479  1.1707  0.2854 -0.0600
  805MOL0     C 6189   2.928   5.290   5.533  0.6708  0.2079  0.1722
  805MOL0     C 6190   2.924   5.430   5.609 -1.0738  1.0053  0.9571
  805MOL0     C 6191   2.974   5.550   5.542 -0.6001 -0.1683  0.2789
  805MOL0     C 6192   3.005   5.660   5.498 -0.9187 -0.5654  0.1256
  805MOL0     C 6193   3.423   5.446   5.697  0.3287  0.0356 -0.1683
  805MOL0     C 6194   3.558   5.475   5.721  0.3640 -0.4039  0.7336
  805MOL0     H 6195   4.071   5.422   5.724  0.4842 -1.1382 -0.1078
  805MOL0     H 6196   4.271   5.565   5.711 -1.3737 -0.4645  0.1148
  805MOL0     H 6197   4.399   5.775   5.326  1.0871 -2.0568 -1.6846
  805MOL0     H 6198   4.491   5.650   5.399  0.5169  0.4237 -0.1332
  805MOL0     H 6199   4.586   5.785   5.563  0.9784  0.3435 -0.2787
  805MOL0     H 6200   4.507   5.923   5.512  1.8099  1.1836  1.6479
  805MOL0     H 6201   4.639   5.901   5.275  2.7486 -0.0646 -0.1336
  805MOL0     H 6202   4.723   5.764   5.346 -1.9878 -1.0042  2.1859
  805MOL0     H 6203   4.715   6.055   5.422  0.8642  0.5151 -1.1074
  805MOL0     H 6204   4.771   5.934   5.538 -3.3178  1.3314  0.1739
  805MOL0     H 6205   4.891   6.002   5.254  3.2057  0.4984  0.1983
  805MOL0     H 6206   4.937   5.865   5.353  1.7151  0.7257  0.5827
  805MOL0     H 6207   5.107   6.005   5.413  0.5734  1.0854 -2.1664
  805MOL0     H 6208   4.983   6.033   5.536 -0.0469 -1.3884 -0.8529
  805MOL0     H 6209   5.093   6.241   5.461  1.7778  1.2738 -3.7414
  805MOL0     H 6210   5.043   6.219   5.295  3.8933 -0.7603  1.0310
  805MOL0     H 6211   4.838   6.248   5.515 -0.2603  0.7376  0.1288
  805MOL0     H 6212   4.803   6.261   5.341 -1.0882  0.4639  0.2934
  805MOL0     H 6213   4.889   6.493   5.201 -3.6242 -2.3703  1.2705
  805MOL0     H 6214   4.916   6.776   5.233 -0.0865 -0.4541 -2.1053
  805MOL0     H 6215   5.062   6.705   5.182  0.3655 -0.6790 -0.0863
  805MOL0     H 6216   5.170   6.781   5.403  1.7929 -0.6894 -2.4404
  805MOL0     H 6217   5.015   6.868   5.426 -0.6691 -3.2421  0.5191
  805MOL0     H 6218   5.171   7.017   5.347  1.3220 -0.6950 -0.2476
  805MOL0     H 6219   5.210   6.920   5.216  3.3668  4.2421  2.2905
  805MOL0     H 6220   4.977   6.982   5.124  0.5503 -1.5398 -0.0965
  805MOL0     H 6221   5.081   7.122   5.160  0.6451 -0.7059  0.3555
  805MOL0     H 6222   5.118   7.264   5.303  0.7030 -2.0414  0.7789
  805MOL0     H 6223   5.086   7.492   5.428 -1.7668  1.2846  2.2865
  805MOL0     H 6224   4.742   7.474   5.898  0.8843 -0.7199  1.8150
  805MOL0     H 6225   4.722   7.565   6.114 -0.9376 -2.5451 -1.7888
  805MOL0     H 6226   4.775   7.946   6.343  1.1783  1.0956  1.0848
  805MOL0     H 6227   4.782   8.000   6.168  0.7750 -0.0863  0.5102
  805MOL0     H 6228   5.019   7.882   6.209  1.9524 -1.7848  1.3168
  805MOL0     H 6229   4.978   7.909   6.373  0.2686 -3.5937 -2.2520
  805MOL0     H 6230   5.106   8.104   6.347 -0.3321  0.5384  0.9243
  805MOL0     H 6231   4.939   8.165   6.327  2.1693  3.3745  0.0991
  805MOL0     H 6232   5.141   8.072   6.107 -1.6405 -2.4345  0.6262
  805MOL0     H 6233   4.983   8.128   6.077  1.4202 -4.3704 -0.8474
  805MOL0     H 6234   5.039   8.358   6.122 -0.1569  0.0385 -0.2247
  805MOL0     H 6235   5.192   8.304   6.059  1.9371  1.1458  1.4285
  805MOL0     H 6236   5.266   8.253   6.300  0.2976 -1.9418 -4.0291
  805MOL0     H 6237   5.137   8.346   6.349 -0.0821 -2.1416  0.3882
  805MOL0     H 6238   5.351   8.431   6.157 -2.0513 -1.1326 -2.1780
  805MOL0     H 6239   5.213   8.539   6.204  1.0505  0.0997 -0.6775
  805MOL0     H 6240   5.446   8.414   6.374  1.1316  1.6344  1.8031
  805MOL0     H 6241   5.313   8.518   6.439 -0.7697  2.3816  0.4213
  805MOL0     H 6242   4.912   7.925   5.985 -3.5224  2.1898 -2.3736
  805MOL0     H 6243   4.943   7.821   5.764  2.5523 -4.5467  0.4314
  805MOL0     H 6244   4.730   7.365   5.603  0.4625  1.6346 -0.7015
  805MOL0     H 6245   4.748   7.160   5.473  0.9713 -1.3357 -2.3597
  805MOL0     H 6246   4.185   5.682   5.313  0.3090  0.4845  0.9413
  805MOL0     H 6247   3.955   5.603   5.341  0.9469  3.4487  0.7394
  805MOL0     H 6248   3.671   5.400   5.413 -0.3299  2.2848 -0.9461
  805MOL0     H 6249   3.424   5.331   5.379 -2.4251  0.1900  0.9732
  805MOL0     H 6250   3.248   5.258   5.392 -2.0985  0.2159 -2.7143
  805MOL0     H 6251   3.147   5.397   5.390  2.0929  0.4363 -0.9698
  805MOL0     H 6252   3.033   5.169   5.393  3.7838 -1.7796  0.5618
  805MOL0     H 6253   3.088   5.159   5.554 -3.9097 -2.8529 -0.5981
  805MOL0     H 6254   2.884   5.213   5.597 -0.4911 -0.5197 -1.4371
  805MOL0     H 6255   2.862   5.304   5.447  4.2132  0.3136 -2.7888
  805MOL0     H 6256   2.816   5.447   5.623 -0.8615  2.4198  0.9765
  805MOL0     H 6257   2.969   5.427   5.709 -1.9979  2.5741  1.4572
  805MOL0     H 6258   3.025   5.762   5.472 -1.1786 -0.4711  0.2995
  805MOL0     H 6259   3.355   5.453   5.781 -2.0164 -3.0701 -1.6150
  805MOL0     H 6260   3.593   5.498   5.821  0.2471 -0.7162  0.8500
  806MOL0     O 6261   6.945   6.887   4.705  0.5612  0.3902 -0.0187
  806MOL0     C 6262   7.064   6.862   4.684  0.3246  0.2961 -0.5403
  806MOL0     O 6263   7.162   6.954   4.679 -0.2856 -0.1001 -0.3155
  806MOL0     C 6264   7.128   7.083   4.700 -0.2372  0.8429  0.2793
  806MOL0     C 6265   7.149   7.174   4.598 -0.3319  0.1701  0.3395
  806MOL0     C 6266   7.093   7.301   4.607  0.5275 -0.1335  0.3033
  806MOL0     C 6267   7.046   7.348   4.728 -0.4238 -0.8467  0.0215
  806MOL0     O 6268   7.007   7.481   4.727 -0.7191  0.1550  0.5469
  806MOL0     C 6269   6.964   7.542   4.856  0.4086 -0.1192  1.1701
  806MOL0     C 6270   6.975   7.689   4.833  0.5245 -0.0679  0.4712
  806MOL0     C 6271   6.932   7.762   4.963  0.6803  0.7034  0.9524
  806MOL0     C 6272   6.927   7.913   4.950  0.2627  0.5681 -0.7969
  806MOL0     C 6273   6.903   7.987   5.083 -0.9431 -0.7721  1.2301
  806MOL0     C 6274   6.772   7.942   5.149  0.7525 -0.1771  1.5378
  806MOL0     C 6275   6.704   8.018   5.268 -0.4576 -0.5046 -1.0741
  806MOL0     C 6276   6.803   8.024   5.386 -0.2442  0.6933  0.0362
  806MOL0     N 6277   6.772   8.127   5.486 -0.5476  0.2240 -0.5331
  806MOL0     C 6278   6.804   8.124   5.615 -0.6819 -0.0219 -1.0072
  806MOL0     C 6279   6.798   8.250   5.664  0.4629 -0.3695  0.3657
  806MOL0     C 6280   6.804   8.287   5.801 -0.7043 -1.0659  0.9529
  806MOL0     C 6281   6.909   8.402   5.810  0.2958  0.0384  0.2713
  806MOL0     C 6282   6.933   8.442   5.952  0.6791 -0.3584 -0.2345
  806MOL0     C 6283   6.811   8.528   6.008 -0.6368 -0.6371  0.1198
  806MOL0     O 6284   6.695   8.451   6.048 -0.1995  0.0513 -0.7310
  806MOL0     C 6285   6.579   8.518   6.071 -0.1925  0.1424 -0.4538
  806MOL0     C 6286   6.574   8.628   6.163  0.7141 -0.8672  0.3416
  806MOL0     C 6287   6.455   8.695   6.184  0.3817  0.8229 -0.4025
  806MOL0     C 6288   6.336   8.650   6.119 -0.0017 -0.8012 -0.0306
  806MOL0     C 6289   6.205   8.717   6.146 -0.8746  1.2510  0.4256
  806MOL0     O 6290   6.207   8.805   6.249  0.7106 -0.0601 -1.0554
  806MOL0     C 6291   6.092   8.838   6.304  1.4325  0.0885 -0.3862
  806MOL0     C 6292   6.018   8.749   6.383 -0.3259 -0.3638 -0.3164
  806MOL0     C 6293   5.901   8.779   6.443  0.4817 -0.4314  0.5641
  806MOL0     C 6294   5.842   8.910   6.424 -0.3237 -0.2155 -1.4965
  806MOL0     O 6295   5.714   8.945   6.465  0.1777 -0.3676 -0.1691
  806MOL0     C 6296   5.629   8.846   6.529 -0.2418  0.1372 -0.3511
  806MOL0     C 6297   5.648   8.854   6.672  0.1910 -0.1318 -0.6922
  806MOL0     C 6298   5.590   8.741   6.768 -1.0656  0.0994 -0.2785
  806MOL0     C 6299   5.452   8.695   6.714 -0.2995 -0.2950 -0.0877
  806MOL0     C 6300   5.370   8.653   6.837 -0.2580  0.6440  0.3733
  806MOL0     C 6301   5.229   8.615   6.791 -0.1835 -0.6334  0.3649
  806MOL0     C 6302   5.134   8.561   6.901 -0.0619 -0.4213  0.8968
  806MOL0     C 6303   4.985   8.600   6.875 -0.5820 -1.0518  0.3550
  806MOL0    Cl 6304   4.873   8.554   7.021 -0.6593  0.1481  0.0359
  806MOL0     C 6305   5.916   8.998   6.346  1.2768  0.7503  0.0122
  806MOL0     C 6306   6.043   8.966   6.298  0.5742 -0.6723  0.2198
  806MOL0     O 6307   6.105   8.683   6.084  0.6851  0.5125  0.1226
  806MOL0     C 6308   6.339   8.536   6.038  0.4813 -0.1193  0.7262
  806MOL0     C 6309   6.465   8.475   6.007  0.1349  0.1224  0.1959
  806MOL0     N 6310   6.747   8.332   5.564 -0.1133  0.1795  0.0127
  806MOL0     N 6311   6.738   8.257   5.456 -0.0107 -0.2772 -1.0107
  806MOL0     C 6312   7.039   7.263   4.834 -0.7993 -0.3908  0.3738
  806MOL0     C 6313   7.085   7.129   4.822  1.2571 -0.6873  0.0736
  806MOL0     C 6314   7.102   6.716   4.702  0.3178 -0.3198  0.6555
  806MOL0     C 6315   7.017   6.611   4.681  0.8049  0.6057  0.1322
  806MOL0     C 6316   7.054   6.479   4.686  0.0907  0.3405 -0.3042
  806MOL0     C 6317   7.182   6.441   4.707  0.3346 -1.2303 -0.9529
  806MOL0     O 6318   7.205   6.313   4.712  0.3155 -0.7980 -0.2995
  806MOL0     C 6319   7.261   6.275   4.588 -0.4596 -0.3061 -0.2789
  806MOL0     C 6320   7.229   6.126   4.569 -0.6790  0.6442  0.1882
  806MOL0     C 6321   7.081   6.096   4.542 -0.1202  0.8317  0.7392
  806MOL0     C 6322   7.048   5.950   4.526 -0.1432  0.5949 -0.5990
  806MOL0     C 6323   6.998   5.911   4.400 -0.2495 -0.1989  0.3577
  806MOL0     C 6324   6.955   5.883   4.294 -0.8662  0.7498 -0.3570
  806MOL0     C 6325   7.278   6.542   4.729  0.5933  0.4440  0.1137
  806MOL0     C 6326   7.247   6.680   4.733 -0.2838  0.0258  0.1950
  806MOL0     H 6327   7.189   7.136   4.505  2.5271  0.6277  1.2935
  806MOL0     H 6328   7.096   7.387   4.540 -3.6074  0.7936  1.0443
  806MOL0     H 6329   7.036   7.515   4.934  0.9949 -0.3641  0.5594
  806MOL0     H 6330   6.864   7.505   4.878  0.7873 -1.7322  0.3684
  806MOL0     H 6331   6.909   7.734   4.759 -1.3788 -2.0101  0.8932
  806MOL0     H 6332   7.079   7.717   4.814  0.0206  2.0375  0.5308
  806MOL0     H 6333   6.990   7.724   5.048 -0.5069  1.0597  1.9634
  806MOL0     H 6334   6.835   7.737   5.009  0.7280 -1.2495  0.0703
  806MOL0     H 6335   7.017   7.956   4.903 -0.5670  3.3355 -0.0683
  806MOL0     H 6336   6.847   7.934   4.878  2.0804 -1.9064 -3.8176
  806MOL0     H 6337   6.891   8.093   5.059  1.2858 -1.2203 -2.8457
  806MOL0     H 6338   6.989   7.980   5.151 -0.9903 -1.3144  1.2381
  806MOL0     H 6339   6.781   7.837   5.179 -1.2502 -0.1308  2.4963
  806MOL0     H 6340   6.696   7.945   5.071  1.5310  3.1324  0.7620
  806MOL0     H 6341   6.674   8.119   5.238 -0.9012 -0.8375 -1.7708
  806MOL0     H 6342   6.619   7.963   5.311  1.4673 -2.9937 -0.2406
  806MOL0     H 6343   6.911   8.039   5.373 -0.1109  2.6241  2.4834
  806MOL0     H 6344   6.793   7.928   5.437 -2.2012  1.1926  0.7044
  806MOL0     H 6345   6.827   8.033   5.670 -0.8163 -1.0191 -2.5520
  806MOL0     H 6346   6.851   8.215   5.869  2.3708  0.4058  0.5451
  806MOL0     H 6347   6.705   8.311   5.842 -0.1352 -0.3366  1.9513
  806MOL0     H 6348   6.876   8.490   5.755  0.1893  0.1174  0.4582
  806MOL0     H 6349   7.000   8.367   5.760 -2.0646 -1.4422 -3.3878
  806MOL0     H 6350   6.939   8.354   6.017 -1.5525  0.4726  1.2218
  806MOL0     H 6351   7.023   8.504   5.952  0.6784 -0.3596 -0.3994
  806MOL0     H 6352   6.785   8.594   5.925  0.6124 -0.2186  0.0543
  806MOL0     H 6353   6.841   8.583   6.098 -1.6752  1.3474 -0.6806
  806MOL0     H 6354   6.661   8.661   6.218 -1.4828  2.4851  2.1373
  806MOL0     H 6355   6.441   8.779   6.251 -5.5704 -0.4297  0.4773
  806MOL0     H 6356   6.054   8.647   6.396  0.5333 -0.1307 -0.8256
  806MOL0     H 6357   5.845   8.700   6.493  0.2557  0.4336  1.7328
  806MOL0     H 6358   5.640   8.748   6.483  0.0383  1.1361 -2.5865
  806MOL0     H 6359   5.526   8.860   6.495  0.2868 -1.5115 -2.8857
  806MOL0     H 6360   5.601   8.949   6.699 -2.3760 -1.1469 -1.2263
  806MOL0     H 6361   5.751   8.863   6.706 -0.2770  2.3310  0.2809
  806MOL0     H 6362   5.582   8.773   6.872  2.0213  0.2971  0.0014
  806MOL0     H 6363   5.661   8.659   6.751 -0.7592  0.8414 -3.2053
  806MOL0     H 6364   5.403   8.762   6.644 -0.8851  0.8424  1.3495
  806MOL0     H 6365   5.463   8.597   6.666 -0.9341 -1.6041  2.2367
  806MOL0     H 6366   5.363   8.734   6.910  0.0254  1.3235 -0.3406
  806MOL0     H 6367   5.413   8.563   6.883  4.2383  1.9504 -0.8164
  806MOL0     H 6368   5.219   8.542   6.711 -1.2361 -2.9244  2.4580
  806MOL0     H 6369   5.184   8.706   6.752  2.1039  0.8084  0.8837
  806MOL0     H 6370   5.147   8.454   6.917 -2.4109 -0.2194  6.3599
  806MOL0     H 6371   5.173   8.602   6.995  2.9983  0.2150 -0.5432
  806MOL0     H 6372   4.942   8.564   6.781 -1.1677  1.1832 -0.2893
  806MOL0     H 6373   4.967   8.707   6.860  1.3600 -0.9166 -1.5660
  806MOL0     H 6374   5.874   9.095   6.321 -0.1046  0.7730  2.1698
  806MOL0     H 6375   6.094   9.040   6.238 -0.9913  0.2476 -0.0211
  806MOL0     H 6376   6.246   8.505   5.992  1.9988 -0.8684 -2.0839
  806MOL0     H 6377   6.467   8.386   5.945 -1.8501  0.4186 -0.3528
  806MOL0     H 6378   7.004   7.285   4.934 -0.9230 -0.0089  0.2500
  806MOL0     H 6379   7.078   7.065   4.910 -0.0153 -0.8716 -0.1515
  806MOL0     H 6380   6.917   6.641   4.653  0.7570 -1.4263 -2.1787
  806MOL0     H 6381   6.969   6.412   4.671  0.3141 -0.4028  1.4514
  806MOL0     H 6382   7.368   6.277   4.610 -1.0857  2.7685  3.6472
  806MOL0     H 6383   7.236   6.343   4.506 -0.5404 -0.9577 -0.8050
  806MOL0     H 6384   7.271   6.098   4.472 -1.6334 -2.5751  0.6002
  806MOL0     H 6385   7.268   6.070   4.654  1.5837  1.6837 -0.0979
  806MOL0     H 6386   7.065   6.153   4.451  0.3002  1.6966  1.1931
  806MOL0     H 6387   7.037   6.140   4.632  0.9562 -0.9706  2.2306
  806MOL0     H 6388   7.141   5.897   4.547 -0.9333 -0.7350 -0.3417
  806MOL0     H 6389   6.985   5.905   4.603  0.6789 -0.4964 -0.5409
  806MOL0     H 6390   6.914   5.832   4.209  0.6940 -1.1083 -0.0728
  806MOL0     H 6391   7.378   6.511   4.758  0.6883 -1.9564 -2.3104
  806MOL0     H 6392   7.322   6.753   4.761  2.4510 -1.5703 -2.3762
  807MOL0     O 6393   0.897   7.273   7.042 -0.3014  0.2175 -0.3683
  807MOL0     C 6394   0.822   7.286   7.138  0.0769  0.3236 -0.3276
  807MOL0     O 6395   0.851   7.234   7.259  0.5838 -0.0865  0.2719
  807MOL0     C 6396   0.970   7.177   7.294  0.3532  0.7416 -0.0658
  807MOL0     C 6397   0.971   7.111   7.416  0.8724  0.5820 -0.4474
  807MOL0     C 6398   1.078   7.029   7.461  0.1319 -0.6060  0.9795
  807MOL0     C 6399   1.194   7.030   7.389  0.3066  0.0940  0.1166
  807MOL0     O 6400   1.308   6.959   7.425  0.6278  0.6815 -0.4352
  807MOL0     C 6401   1.293   6.821   7.463  0.2938 -0.1706  0.4403
  807MOL0     C 6402   1.411   6.744   7.407  0.4594  0.0166 -0.3343
  807MOL0     C 6403   1.392   6.592   7.418  0.1354  0.1159 -0.8285
  807MOL0     C 6404   1.291   6.533   7.308 -1.1698 -0.0722  0.6583
  807MOL0     C 6405   1.281   6.385   7.322 -0.4040  0.1054  0.0695
  807MOL0     C 6406   1.157   6.335   7.260  0.3569 -0.5601  0.2264
  807MOL0     C 6407   1.137   6.192   7.299  0.3204 -0.3558  0.1288
  807MOL0     C 6408   0.992   6.162   7.316  0.3824 -0.3520  0.1640
  807MOL0     N 6409   0.959   6.021   7.329  0.2830 -0.2324 -0.4002
  807MOL0     C 6410   0.901   5.965   7.439  0.1232  0.6823 -0.0234
  807MOL0     C 6411   0.893   5.829   7.404 -0.3268 -1.1194  0.1865
  807MOL0     C 6412   0.825   5.727   7.498  0.2680 -0.8983  0.6421
  807MOL0     C 6413   0.672   5.739   7.501 -0.1602 -0.6688  0.4707
  807MOL0     C 6414   0.594   5.750   7.379 -0.6491  0.0462  0.6087
  807MOL0     C 6415   0.444   5.736   7.403 -0.2801  0.7667  0.9277
  807MOL0     O 6416   0.371   5.763   7.290  0.1923  0.4853 -0.4341
  807MOL0     C 6417   0.242   5.707   7.290 -0.8869 -0.2745  0.3076
  807MOL0     C 6418   0.174   5.710   7.169  0.0734 -0.4356  0.1278
  807MOL0     C 6419   0.046   5.674   7.158  0.4593  0.1866 -0.9091
  807MOL0     C 6420  -0.019   5.618   7.267  0.1138 -0.3882  0.5549
  807MOL0     C 6421  -0.159   5.559   7.248  0.1024  0.7093 -0.5852
  807MOL0     O 6422  -0.215   5.497   7.355  0.3180  0.4496  0.0329
  807MOL0     C 6423  -0.307   5.395   7.334  0.2471  0.4504  0.3286
  807MOL0     C 6424  -0.287   5.265   7.384  0.2442 -0.7693 -0.4305
  807MOL0     C 6425  -0.383   5.165   7.363  0.0695  0.5452  0.2966
  807MOL0     C 6426  -0.500   5.196   7.290 -0.1753 -0.0974 -0.5039
  807MOL0     O 6427  -0.606   5.113   7.272  0.0633 -0.1923  0.3894
  807MOL0     C 6428  -0.623   4.997   7.353  0.0912  0.3141  0.7625
  807MOL0     C 6429  -0.757   4.939   7.321 -0.7975 -0.6180  0.5615
  807MOL0     C 6430  -0.788   4.835   7.423  0.0116  0.0260 -0.1796
  807MOL0     C 6431  -0.931   4.792   7.417 -0.2403  0.4755 -0.5721
  807MOL0     C 6432  -0.952   4.665   7.501 -0.1905  0.2704  0.2036
  807MOL0     C 6433  -1.100   4.641   7.507 -0.0186 -0.1951  0.0076
  807MOL0     C 6434  -1.113   4.491   7.531  0.7037 -0.5402  0.3451
  807MOL0     C 6435  -1.264   4.451   7.558 -0.0109  0.9172 -0.0302
  807MOL0    Cl 6436  -1.391   4.510   7.435 -0.0091  0.4104 -0.7033
  807MOL0     C 6437  -0.516   5.329   7.244 -0.7751  0.6064 -0.3765
  807MOL0     C 6438  -0.425   5.430   7.275 -0.2921  0.0405  0.1572
  807MOL0     O 6439  -0.218   5.584   7.142  0.0960 -0.5005  0.0157
  807MOL0     C 6440   0.045   5.610   7.394  1.1251 -0.1659 -0.5033
  807MOL0     C 6441   0.174   5.660   7.395  0.4458  0.8811  0.4237
  807MOL0     N 6442   0.949   5.817   7.275 -0.4383 -0.6638  0.1965
  807MOL0     N 6443   0.993   5.934   7.236 -0.0112 -0.1292  0.2328
  807MOL0     C 6444   1.213   7.123   7.278 -0.0244  1.2127 -0.2086
  807MOL0     C 6445   1.097   7.184   7.229  0.1942 -0.0071 -0.1991
  807MOL0     C 6446   0.691   7.351   7.114  0.0620 -0.0071  0.0773
  807MOL0     C 6447   0.596   7.335   7.207  0.6977 -0.3330 -0.3256
  807MOL0     C 6448   0.468   7.375   7.182  0.5474 -0.5004 -0.0912
  807MOL0     C 6449   0.444   7.459   7.073  0.5872  0.2855 -0.5320
  807MOL0     O 6450   0.320   7.507   7.060  0.0609  0.6820  0.2455
  807MOL0     C 6451   0.292   7.645   7.016 -0.4799  0.7687 -0.1067
  807MOL0     C 6452   0.296   7.724   7.145 -0.5505  0.3003  0.1569
  807MOL0     C 6453   0.199   7.673   7.242  0.3493 -0.5761  0.1390
  807MOL0     C 6454   0.198   7.752   7.371 -0.6350  0.6185  0.2998
  807MOL0     C 6455   0.113   7.680   7.465  0.4204 -0.2592 -0.8200
  807MOL0     C 6456   0.037   7.624   7.549  0.3595 -0.4453 -0.3677
  807MOL0     C 6457   0.548   7.507   6.983  0.6139 -0.1192  0.0581
  807MOL0     C 6458   0.671   7.434   7.002  0.2572 -0.7628  0.3705
  807MOL0     H 6459   0.872   7.094   7.459  0.5766 -0.5616 -1.5262
  807MOL0     H 6460   1.053   6.955   7.536 -2.9415  1.8478  2.6427
  807MOL0     H 6461   1.192   6.781   7.445  0.6236 -0.2162 -1.6352
  807MOL0     H 6462   1.308   6.815   7.571 -0.0294 -0.3615  0.4762
  807MOL0     H 6463   1.495   6.779   7.467  0.8865  0.9710 -1.4404
  807MOL0     H 6464   1.419   6.766   7.300 -1.4520 -0.7990 -0.6872
  807MOL0     H 6465   1.358   6.569   7.519 -0.7404 -1.3881 -1.4374
  807MOL0     H 6466   1.490   6.545   7.410  0.5478  0.9260 -0.6566
  807MOL0     H 6467   1.194   6.576   7.336 -1.1635 -0.6879  1.6865
  807MOL0     H 6468   1.324   6.551   7.206 -0.5174 -1.6460  0.5591
  807MOL0     H 6469   1.293   6.366   7.429  2.1640 -2.3591 -0.5600
  807MOL0     H 6470   1.357   6.333   7.263 -1.9400 -2.4552  0.1915
  807MOL0     H 6471   1.180   6.353   7.155  0.1197  0.5563  0.3603
  807MOL0     H 6472   1.079   6.401   7.299  3.0806  0.2647  5.1602
  807MOL0     H 6473   1.176   6.128   7.220  1.0548  3.3766 -2.8420
  807MOL0     H 6474   1.188   6.170   7.393 -2.8702 -0.0702  2.0856
  807MOL0     H 6475   0.933   6.206   7.234  0.5615  2.5925  1.4833
  807MOL0     H 6476   0.953   6.217   7.403  1.2731  2.0252 -0.8499
  807MOL0     H 6477   0.860   6.009   7.530 -0.2456 -2.7732  1.6641
  807MOL0     H 6478   0.867   5.748   7.597 -1.8293  0.6448  1.2632
  807MOL0     H 6479   0.845   5.624   7.468 -2.8455 -1.8535  1.5606
  807MOL0     H 6480   0.651   5.834   7.550 -1.1357  0.2535 -1.5934
  807MOL0     H 6481   0.625   5.657   7.555  2.2483 -0.4499  3.1146
  807MOL0     H 6482   0.611   5.844   7.326 -0.5885 -1.7484 -2.8622
  807MOL0     H 6483   0.623   5.673   7.307  0.8684  1.7630 -0.7280
  807MOL0     H 6484   0.409   5.807   7.477 -0.9329 -0.2406  1.6187
  807MOL0     H 6485   0.423   5.637   7.445 -2.7094  1.4383  1.4140
  807MOL0     H 6486   0.226   5.754   7.084  1.5154 -0.3529  1.0155
  807MOL0     H 6487   0.004   5.673   7.057 -1.2420  1.1461 -0.2461
  807MOL0     H 6488  -0.189   5.243   7.426 -0.1115 -3.6273 -0.9233
  807MOL0     H 6489  -0.367   5.060   7.386  1.9103  0.0542 -2.6059
  807MOL0     H 6490  -0.622   5.043   7.453 -0.8899  0.7229  0.5918
  807MOL0     H 6491  -0.544   4.922   7.343  1.8284  2.1160  0.1118
  807MOL0     H 6492  -0.767   4.894   7.221  1.3324  0.5179 -0.2185
  807MOL0     H 6493  -0.839   5.010   7.337 -0.8037 -0.1292 -1.3855
  807MOL0     H 6494  -0.767   4.869   7.525 -2.0562 -4.5487  2.0503
  807MOL0     H 6495  -0.726   4.748   7.399  0.8949  0.3962  0.7060
  807MOL0     H 6496  -0.988   4.876   7.459  2.0661  0.8478  2.0685
  807MOL0     H 6497  -0.976   4.771   7.319 -0.8862  1.0707 -0.4086
  807MOL0     H 6498  -0.911   4.680   7.601  0.7936  3.4439 -0.5665
  807MOL0     H 6499  -0.897   4.588   7.447  3.1054  1.3185  1.8203
  807MOL0     H 6500  -1.159   4.679   7.423  0.5776  1.2245  0.1965
  807MOL0     H 6501  -1.134   4.687   7.601 -0.6604 -3.5103  1.5740
  807MOL0     H 6502  -1.093   4.430   7.442  0.5258  2.8889 -2.2517
  807MOL0     H 6503  -1.052   4.461   7.617  0.5375  1.5863  1.2745
  807MOL0     H 6504  -1.290   4.493   7.655 -0.0529 -3.2099  1.9992
  807MOL0     H 6505  -1.266   4.341   7.553  1.6948  0.5155  3.9372
  807MOL0     H 6506  -0.598   5.362   7.180 -0.5803  2.7169  0.3811
  807MOL0     H 6507  -0.454   5.532   7.252 -2.3935  0.6453  4.3393
  807MOL0     H 6508  -0.007   5.578   7.483 -1.3010 -0.8301 -2.0800
  807MOL0     H 6509   0.215   5.666   7.496  1.9528  0.5041 -0.1401
  807MOL0     H 6510   1.314   7.130   7.241 -0.0308  2.0826 -0.1015
  807MOL0     H 6511   1.105   7.243   7.138  0.0649  0.2665 -0.0334
  807MOL0     H 6512   0.608   7.272   7.294  0.7139  0.3405  0.1692
  807MOL0     H 6513   0.392   7.342   7.252  2.0200 -1.1587  1.2426
  807MOL0     H 6514   0.188   7.652   6.982 -1.0152 -0.3328  1.2192
  807MOL0     H 6515   0.356   7.688   6.938 -2.2115  1.2330 -1.3291
  807MOL0     H 6516   0.394   7.706   7.189  0.3036  0.2162 -1.6977
  807MOL0     H 6517   0.299   7.833   7.135 -0.7004  0.2218 -0.8450
  807MOL0     H 6518   0.211   7.568   7.268 -1.6144 -0.8092  0.2788
  807MOL0     H 6519   0.104   7.691   7.190  0.0730 -0.5886  0.6311
  807MOL0     H 6520   0.300   7.767   7.408 -0.1115  1.6735 -1.4782
  807MOL0     H 6521   0.165   7.852   7.340 -0.6932  0.7854  0.8896
  807MOL0     H 6522  -0.032   7.589   7.622  0.9581 -0.4247  0.2189
  807MOL0     H 6523   0.547   7.589   6.913 -0.4692 -1.7163 -1.9096
  807MOL0     H 6524   0.758   7.459   6.943  0.0239 -1.9895 -0.5117
  808MOL0     O 6525   5.168   6.591  11.227  0.1530 -0.1691 -0.5871
  808MOL0     C 6526   5.202   6.628  11.110 -0.2986  0.1807  0.6590
  808MOL0     O 6527   5.328   6.639  11.066  0.4058 -0.1775  0.0150
  808MOL0     C 6528   5.435   6.632  11.157  0.0598  0.8919 -0.5660
  808MOL0     C 6529   5.434   6.709  11.279 -0.1281  0.9440  0.0397
  808MOL0     C 6530   5.551   6.707  11.362  0.0406 -0.1052  0.7396
  808MOL0     C 6531   5.660   6.630  11.320  0.3499  0.0622 -0.0807
  808MOL0     O 6532   5.773   6.654  11.392 -0.1556  0.0026 -0.0791
  808MOL0     C 6533   5.893   6.591  11.344 -0.5652  0.3522 -0.9578
  808MOL0     C 6534   6.019   6.663  11.405 -0.3336  0.1462 -0.5466
  808MOL0     C 6535   6.030   6.816  11.382  0.2367  0.5158  0.1084
  808MOL0     C 6536   5.978   6.906  11.498 -0.5090 -0.3890 -0.0801
  808MOL0     C 6537   5.844   6.959  11.466 -0.0575  0.0260 -0.7025
  808MOL0     C 6538   5.836   7.059  11.346 -0.0552  0.2346 -0.7130
  808MOL0     C 6539   5.716   7.160  11.381  0.3349 -0.2778  0.2147
  808MOL0     C 6540   5.669   7.232  11.249 -0.3721 -0.4925 -0.5216
  808MOL0     N 6541   5.771   7.329  11.202  0.3473 -0.8747  0.6202
  808MOL0     C 6542   5.752   7.465  11.212  0.2581 -0.4596 -0.1168
  808MOL0     C 6543   5.828   7.524  11.116  0.6124  0.7245  0.2686
  808MOL0     C 6544   5.822   7.672  11.081  0.1858 -0.6262 -0.4307
  808MOL0     C 6545   5.910   7.742  11.192  0.0475 -0.8144 -0.0116
  808MOL0     C 6546   6.060   7.712  11.166 -0.5221 -0.0022  0.8031
  808MOL0     C 6547   6.123   7.808  11.052  0.6554 -0.8013 -0.3778
  808MOL0     O 6548   6.170   7.931  11.118 -0.5869 -0.2904  0.3029
  808MOL0     C 6549   6.178   8.032  11.032  0.6560 -0.5194 -1.0146
  808MOL0     C 6550   6.239   8.029  10.909  0.3473 -0.6057  0.1112
  808MOL0     C 6551   6.234   8.144  10.832 -0.4834 -0.7761  0.2267
  808MOL0     C 6552   6.168   8.265  10.869  0.4114  0.0059  0.3575
  808MOL0     C 6553   6.170   8.374  10.760  0.3709  0.1801  0.0512
  808MOL0     O 6554   6.175   8.336  10.630  0.5820 -0.2148  0.5220
  808MOL0     C 6555   6.192   8.420  10.523  0.4697 -0.4123 -0.2970
  808MOL0     C 6556   6.147   8.375  10.396  0.1362 -0.3631 -0.2468
  808MOL0     C 6557   6.152   8.467  10.295  0.0278  1.1828  0.1471
  808MOL0     C 6558   6.193   8.597  10.302  0.1993  0.6289  0.0711
  808MOL0     O 6559   6.198   8.683  10.198  0.0707 -0.2694 -0.9567
  808MOL0     C 6560   6.203   8.822  10.216  0.3259 -0.9973 -0.6760
  808MOL0     C 6561   6.127   8.888  10.103  0.7674 -0.4769 -0.0801
  808MOL0     C 6562   6.116   9.044  10.128  0.2301  0.5176  0.5677
  808MOL0     C 6563   6.043   9.122  10.021 -0.6699  0.2350 -0.1688
  808MOL0     C 6564   6.050   9.268  10.059 -0.7750 -0.5546  0.1309
  808MOL0     C 6565   5.972   9.363   9.970 -0.1493  1.3934 -0.6991
  808MOL0     C 6566   6.015   9.514   9.988  0.6600  0.7672 -0.0736
  808MOL0     C 6567   6.027   9.599   9.871 -0.5693  0.4231  1.3030
  808MOL0    Cl 6568   6.090   9.758   9.940  0.0494  0.0115  0.1851
  808MOL0     C 6569   6.247   8.632  10.426  0.2343  0.8249 -0.0558
  808MOL0     C 6570   6.244   8.550  10.532 -0.1571 -0.3829 -0.8256
  808MOL0     O 6571   6.175   8.481  10.805  0.8267 -0.0390  0.3783
  808MOL0     C 6572   6.120   8.263  10.999 -0.3539 -0.5568  0.1145
  808MOL0     C 6573   6.120   8.153  11.083 -0.8444  0.1947  1.0476
  808MOL0     N 6574   5.894   7.417  11.051 -0.2544  0.7897  0.1495
  808MOL0     N 6575   5.847   7.306  11.099 -0.2413  0.5699 -1.0778
  808MOL0     C 6576   5.649   6.533  11.224 -0.0894  0.0393 -0.6559
  808MOL0     C 6577   5.537   6.531  11.138 -0.0524  0.6763  0.0468
  808MOL0     C 6578   5.093   6.671  11.013  0.1339 -0.3347 -0.1806
  808MOL0     C 6579   5.130   6.687  10.878  0.5054 -0.9106  0.1144
  808MOL0     C 6580   5.045   6.747  10.780  0.0282 -0.9808  0.0812
  808MOL0     C 6581   4.910   6.778  10.820 -0.7228  0.4995 -0.0146
  808MOL0     O 6582   4.824   6.833  10.724 -0.1974  0.4865 -0.0276
  808MOL0     C 6583   4.689   6.791  10.718  0.4929 -0.1137  1.2077
  808MOL0     C 6584   4.583   6.892  10.757 -0.0603 -0.7322 -0.7614
  808MOL0     C 6585   4.499   6.911  10.632 -0.4785 -0.4219  0.2266
  808MOL0     C 6586   4.375   6.993  10.672 -0.5162  0.4899  0.2374
  808MOL0     C 6587   4.414   7.118  10.734 -0.2070 -0.7638 -0.6123
  808MOL0     C 6588   4.442   7.220  10.787 -0.6821  0.5098 -0.3435
  808MOL0     C 6589   4.870   6.742  10.952  0.7666 -0.1615 -0.2743
  808MOL0     C 6590   4.961   6.692  11.049 -0.2765 -0.3286  0.5736
  808MOL0     H 6591   5.365   6.791  11.295 -1.2435  0.2352 -0.9802
  808MOL0     H 6592   5.573   6.758  11.455  2.0062 -2.7384  1.8752
  808MOL0     H 6593   5.909   6.594  11.236 -0.9802  0.6537 -1.0097
  808MOL0     H 6594   5.900   6.486  11.375 -0.2830  1.0515  1.6448
  808MOL0     H 6595   6.110   6.613  11.370  0.8225  1.3237  0.6358
  808MOL0     H 6596   6.030   6.647  11.512 -1.9265 -2.1836 -0.6648
  808MOL0     H 6597   5.969   6.847  11.297 -1.9100 -3.0215  0.1367
  808MOL0     H 6598   6.136   6.836  11.370  0.0558  1.6780  0.3391
  808MOL0     H 6599   5.982   6.847  11.590  0.8791  0.3710  0.3664
  808MOL0     H 6600   6.048   6.989  11.508 -0.1941 -0.3910 -1.9190
  808MOL0     H 6601   5.809   7.017  11.553 -1.7259 -1.1568 -0.5279
  808MOL0     H 6602   5.770   6.882  11.443 -1.3294  0.8114  0.5294
  808MOL0     H 6603   5.808   7.000  11.259  0.5001 -1.3419  0.1396
  808MOL0     H 6604   5.923   7.122  11.328 -0.3207  1.3044  1.3243
  808MOL0     H 6605   5.623   7.113  11.414  0.4977 -1.8182 -1.3494
  808MOL0     H 6606   5.745   7.226  11.463  1.4826 -0.6797  0.1403
  808MOL0     H 6607   5.577   7.286  11.272 -0.8816 -0.6042 -2.1690
  808MOL0     H 6608   5.648   7.160  11.170  0.6919 -1.1690 -0.2130
  808MOL0     H 6609   5.678   7.514  11.275  0.6801 -1.4712  1.2097
  808MOL0     H 6610   5.717   7.698  11.094 -0.0244 -1.3160 -0.7405
  808MOL0     H 6611   5.848   7.701  10.979  2.0707 -0.0816  0.1474
  808MOL0     H 6612   5.875   7.700  11.287 -2.9335  1.2635 -0.0433
  808MOL0     H 6613   5.880   7.848  11.189  0.7011 -0.6150  0.2773
  808MOL0     H 6614   6.111   7.723  11.262  1.0869 -1.6457  0.1922
  808MOL0     H 6615   6.079   7.608  11.140  0.1217 -0.9174  4.4607
  808MOL0     H 6616   6.048   7.821  10.974  0.5636 -1.9219 -0.4828
  808MOL0     H 6617   6.208   7.766  10.998 -0.3301 -2.1453 -0.9287
  808MOL0     H 6618   6.266   7.932  10.869  0.0360 -0.6577  0.0317
  808MOL0     H 6619   6.261   8.131  10.728 -2.5876  2.2158 -0.8111
  808MOL0     H 6620   6.108   8.275  10.378 -1.1665 -0.5965  3.1159
  808MOL0     H 6621   6.123   8.429  10.198 -2.4353 -0.5388  1.4440
  808MOL0     H 6622   6.308   8.847  10.200  0.1670 -0.9752 -1.7488
  808MOL0     H 6623   6.166   8.865  10.310  3.9003 -2.4159  1.6132
  808MOL0     H 6624   6.027   8.845  10.108  0.8260 -0.4823  1.0932
  808MOL0     H 6625   6.172   8.864  10.006 -2.1472 -0.1576 -1.6395
  808MOL0     H 6626   6.223   9.063  10.118  1.6759 -5.3132  0.8243
  808MOL0     H 6627   6.087   9.068  10.230  2.6065 -1.2852  1.8055
  808MOL0     H 6628   6.089   9.108   9.923  2.3753 -3.4549  1.5480
  808MOL0     H 6629   5.938   9.093  10.016 -0.5327 -0.5361  0.9352
  808MOL0     H 6630   6.153   9.304  10.065 -1.2763  1.0281 -0.3846
  808MOL0     H 6631   6.011   9.291  10.159 -3.7320 -0.6256 -0.9013
  808MOL0     H 6632   5.866   9.342   9.990 -0.3177  1.3673 -1.6015
  808MOL0     H 6633   6.000   9.332   9.869  0.0903 -2.2302  0.3550
  808MOL0     H 6634   5.950   9.569  10.057 -0.1670  0.1869 -0.3666
  808MOL0     H 6635   6.114   9.511  10.035 -0.6909  0.8134  3.0465
  808MOL0     H 6636   5.928   9.596   9.825  1.0158 -5.0100 -2.9778
  808MOL0     H 6637   6.108   9.571   9.803 -1.2753  3.5354 -1.0510
  808MOL0     H 6638   6.287   8.732  10.442  0.9845  0.5112  0.0898
  808MOL0     H 6639   6.287   8.593  10.623  2.2367 -0.3963 -1.8852
  808MOL0     H 6640   6.059   8.350  11.021  1.1427  1.1127 -1.8951
  808MOL0     H 6641   6.072   8.148  11.180  0.8855  1.0082  2.0004
  808MOL0     H 6642   5.722   6.454  11.209 -0.4628 -0.9295  2.0540
  808MOL0     H 6643   5.548   6.469  11.049  1.4366 -0.7853  1.1858
  808MOL0     H 6644   5.230   6.662  10.842  0.8319  0.0078  0.3460
  808MOL0     H 6645   5.078   6.779  10.682 -0.2338  0.8802  0.5567
  808MOL0     H 6646   4.656   6.709  10.783 -0.1096  0.0404  1.1093
  808MOL0     H 6647   4.679   6.765  10.613  3.1345  2.7888  0.0890
  808MOL0     H 6648   4.513   6.856  10.833 -1.6973 -0.5783 -2.1268
  808MOL0     H 6649   4.632   6.984  10.787  0.7767 -2.0251  2.2473
  808MOL0     H 6650   4.467   6.825  10.573 -0.2456  1.2978 -2.5414
  808MOL0     H 6651   4.558   6.956  10.552  1.0175 -1.7730  0.5085
  808MOL0     H 6652   4.309   7.005  10.585  1.4186 -2.8079 -1.9334
  808MOL0     H 6653   4.311   6.934  10.738 -2.0354  1.1381 -0.6020
  808MOL0     H 6654   4.477   7.307  10.838 -3.1600  1.5099 -0.1800
  808MOL0     H 6655   4.764   6.764  10.964  0.5582  0.5661 -2.8854
  808MOL0     H 6656   4.943   6.682  11.156  0.1853  1.8355  0.9013
  809MOL0     O 6657   8.729   1.467   9.373 -0.3751  0.3439  0.1570
  809MOL0     C 6658   8.825   1.552   9.362 -0.6925  0.6708 -0.7548
  809MOL0     O 6659   8.948   1.517   9.316 -0.4793  0.3127 -0.4132
  809MOL0     C 6660   9.005   1.401   9.349  1.1142 -0.4639 -0.7585
  809MOL0     C 6661   8.986   1.354   9.483 -0.0620 -0.0537  0.4592
  809MOL0     C 6662   9.043   1.236   9.519 -0.6879 -0.0420 -0.2699
  809MOL0     C 6663   9.125   1.169   9.428 -0.4187  0.2213  0.3797
  809MOL0     O 6664   9.194   1.055   9.455 -0.2481 -0.7547 -0.6599
  809MOL0     C 6665   9.196   1.008   9.585  0.2128 -0.0987 -0.5149
  809MOL0     C 6666   9.270   0.870   9.594 -0.4095 -0.9744 -0.2071
  809MOL0     C 6667   9.326   0.842   9.733 -0.3643  0.3147  1.7963
  809MOL0     C 6668   9.219   0.807   9.836  0.1794  0.4378 -0.4251
  809MOL0     C 6669   9.277   0.801   9.981  1.0876 -0.0120 -0.1170
  809MOL0     C 6670   9.312   0.930  10.048 -0.2321  0.2731 -0.5048
  809MOL0     C 6671   9.362   0.910  10.189  0.1600  0.0124 -0.0115
  809MOL0     C 6672   9.517   0.903  10.182 -0.0029 -0.0619  0.3147
  809MOL0     N 6673   9.594   0.841  10.299  1.1797 -0.6806  0.4431
  809MOL0     C 6674   9.593   0.710  10.337  0.7294  0.8128  0.7621
  809MOL0     C 6675   9.649   0.711  10.453 -0.4992 -0.0233  0.1462
  809MOL0     C 6676   9.673   0.592  10.538  1.0818  0.2643 -0.2763
  809MOL0     C 6677   9.817   0.531  10.513 -0.4261 -0.5029 -0.4569
  809MOL0     C 6678   9.835   0.426  10.614 -0.7442  0.6084  0.5414
  809MOL0     C 6679   9.968   0.349  10.585 -0.8322  0.1578  0.5484
  809MOL0     O 6680   9.989   0.229  10.661  0.3973  0.2305 -0.1863
  809MOL0     C 6681  10.033   0.237  10.788 -0.5569  0.0469 -0.3633
  809MOL0     C 6682  10.034   0.117  10.863 -0.8362 -0.4794  0.4825
  809MOL0     C 6683  10.093   0.110  10.990  0.3021 -0.2259  0.2063
  809MOL0     C 6684  10.118   0.231  11.066 -0.9491 -0.0425 -0.6315
  809MOL0     C 6685  10.182   0.227  11.201  0.6510 -0.1677 -0.2779
  809MOL0     O 6686  10.203   0.340  11.270 -0.7496 -0.7907 -0.0534
  809MOL0     C 6687  10.294   0.336  11.376  0.6495 -0.9118 -0.1002
  809MOL0     C 6688  10.428   0.324  11.372 -0.1729  0.6511 -0.1198
  809MOL0     C 6689  10.509   0.325  11.481  0.5199  0.3629  0.1173
  809MOL0     C 6690  10.446   0.321  11.609 -0.2412 -0.2359  0.4665
  809MOL0     O 6691  10.530   0.314  11.726  0.9637  0.5273  0.4832
  809MOL0     C 6692  10.504   0.423  11.821  0.7600  0.2694  1.0251
  809MOL0     C 6693  10.627   0.479  11.900  0.1588 -0.2050  0.8217
  809MOL0     C 6694  10.680   0.394  12.013 -0.0937  0.2034  0.4046
  809MOL0     C 6695  10.768   0.472  12.108  0.3177 -0.1347 -0.5506
  809MOL0     C 6696  10.822   0.373  12.218  0.0517 -0.7905 -1.3930
  809MOL0     C 6697  10.908   0.254  12.170 -0.9602  0.5757  0.2195
  809MOL0     C 6698  11.004   0.206  12.279 -0.5800 -0.2600 -0.0870
  809MOL0     C 6699  11.095   0.096  12.227  0.0939  0.3687  0.2498
  809MOL0    Cl 6700  11.010  -0.055  12.202  0.1022  0.0764  0.1549
  809MOL0     C 6701  10.299   0.325  11.615 -0.9511  0.1954 -0.4532
  809MOL0     C 6702  10.222   0.351  11.500 -0.4029  0.4621 -0.5646
  809MOL0     O 6703  10.208   0.114  11.239  1.0044 -0.6804 -1.0010
  809MOL0     C 6704  10.094   0.349  10.998 -0.8936  0.0037  0.6538
  809MOL0     C 6705  10.042   0.351  10.869  0.0541  0.2151  0.0907
  809MOL0     N 6706   9.672   0.842  10.495  0.3850  0.1528  0.1449
  809MOL0     N 6707   9.636   0.918  10.398  0.4954  0.4422  0.1338
  809MOL0     C 6708   9.130   1.207   9.291  1.1594 -0.2700 -0.4884
  809MOL0     C 6709   9.064   1.327   9.254  0.5320  0.5272 -0.4829
  809MOL0     C 6710   8.816   1.695   9.406  0.6646  0.9302  0.2890
  809MOL0     C 6711   8.706   1.749   9.472 -0.0535  0.8599 -0.1700
  809MOL0     C 6712   8.703   1.886   9.518 -1.2038  0.8277  1.0264
  809MOL0     C 6713   8.800   1.979   9.489  0.5666 -0.1679 -1.0205
  809MOL0     O 6714   8.775   2.112   9.506  0.1664 -0.3992  0.0959
  809MOL0     C 6715   8.811   2.161   9.631 -0.2056  0.1618  0.3740
  809MOL0     C 6716   8.715   2.126   9.732  0.9326 -0.8692 -0.2112
  809MOL0     C 6717   8.712   2.240   9.839 -0.6348  0.0319  0.3439
  809MOL0     C 6718   8.668   2.188   9.976  0.2427 -0.3361  0.2085
  809MOL0     C 6719   8.521   2.167   9.956 -0.6140 -0.4869  0.0223
  809MOL0     C 6720   8.403   2.176   9.937 -0.8892 -0.3352  0.9500
  809MOL0     C 6721   8.907   1.923   9.420 -0.0658  0.5839 -0.3892
  809MOL0     C 6722   8.908   1.789   9.375  0.1024 -0.1107  0.3421
  809MOL0     H 6723   8.924   1.419   9.544  1.5160  1.5550  0.4498
  809MOL0     H 6724   9.037   1.219   9.625 -1.5865  0.5331 -0.2165
  809MOL0     H 6725   9.093   0.998   9.622 -0.2957 -2.4814 -2.3394
  809MOL0     H 6726   9.254   1.079   9.644 -1.4337  0.0045  1.0686
  809MOL0     H 6727   9.357   0.891   9.532  0.4807 -0.4812  1.1581
  809MOL0     H 6728   9.205   0.790   9.558 -0.9464 -0.8324  0.4235
  809MOL0     H 6729   9.379   0.934   9.759  0.2284  0.1310  1.2625
  809MOL0     H 6730   9.403   0.765   9.730 -0.4756  0.1095  3.4070
  809MOL0     H 6731   9.138   0.880   9.832 -0.5858 -0.4339 -1.8808
  809MOL0     H 6732   9.180   0.707   9.816 -2.6552  1.4442 -0.3863
  809MOL0     H 6733   9.363   0.734   9.980  0.0246 -1.4304 -0.2187
  809MOL0     H 6734   9.208   0.753  10.051 -0.8842  3.2338  0.3524
  809MOL0     H 6735   9.222   0.989  10.062 -1.3586 -1.8733  2.3199
  809MOL0     H 6736   9.391   0.980   9.991  0.4695  0.5513  0.6535
  809MOL0     H 6737   9.344   0.996  10.254  0.0090 -0.3095  0.3760
  809MOL0     H 6738   9.317   0.819  10.230  0.8646  0.0885  0.9627
  809MOL0     H 6739   9.579   0.994  10.179  2.2309 -1.5317 -1.6725
  809MOL0     H 6740   9.547   0.837  10.100  1.1055 -0.5904  1.1172
  809MOL0     H 6741   9.557   0.629  10.274  0.6274  1.6395 -0.2588
  809MOL0     H 6742   9.596   0.517  10.518  0.3383  1.1560 -0.7937
  809MOL0     H 6743   9.667   0.607  10.646 -1.4633 -0.6367 -0.2331
  809MOL0     H 6744   9.893   0.610  10.521 -0.9854  0.1042 -0.9821
  809MOL0     H 6745   9.829   0.492  10.412 -1.2347  0.1765 -0.8309
  809MOL0     H 6746   9.835   0.473  10.713  2.9690  0.0223  0.9385
  809MOL0     H 6747   9.757   0.350  10.610  0.2253 -0.4825  1.6435
  809MOL0     H 6748  10.057   0.413  10.592  0.2611 -1.5091  4.7773
  809MOL0     H 6749   9.951   0.322  10.480 -1.6316 -2.5738  1.3037
  809MOL0     H 6750  10.012   0.025  10.810 -0.8203 -1.5117  2.2063
  809MOL0     H 6751  10.112   0.014  11.038  1.1902  0.6996  1.7797
  809MOL0     H 6752  10.486   0.333  11.281 -0.1654 -2.2024 -0.4705
  809MOL0     H 6753  10.615   0.319  11.459  0.4694 -0.0357 -0.0140
  809MOL0     H 6754  10.430   0.385  11.891  1.7335 -2.9362  0.4923
  809MOL0     H 6755  10.463   0.512  11.772 -0.0688 -0.4580  0.3672
  809MOL0     H 6756  10.594   0.574  11.944  0.8764 -0.2024  1.3638
  809MOL0     H 6757  10.704   0.494  11.824  2.2389  0.2007  2.8785
  809MOL0     H 6758  10.733   0.309  11.970 -1.3786  0.4565 -1.8096
  809MOL0     H 6759  10.597   0.350  12.069 -0.3951  0.3721  0.0942
  809MOL0     H 6760  10.854   0.519  12.058  1.5982 -2.0031 -0.2096
  809MOL0     H 6761  10.703   0.548  12.152  2.3653  1.2076  0.3215
  809MOL0     H 6762  10.750   0.334  12.290  0.7436 -0.8255 -0.7070
  809MOL0     H 6763  10.886   0.436  12.281 -0.1507 -1.8277 -0.1249
  809MOL0     H 6764  10.963   0.282  12.080  0.9802  3.3991  2.1262
  809MOL0     H 6765  10.839   0.171  12.151 -0.6074  0.1576  0.7398
  809MOL0     H 6766  11.063   0.287  12.324 -0.0309 -1.6683  1.8829
  809MOL0     H 6767  10.945   0.169  12.364 -1.7575 -1.9784 -1.5713
  809MOL0     H 6768  11.189   0.078  12.279  0.0937 -0.5187 -0.0473
  809MOL0     H 6769  11.125   0.114  12.123 -0.4453 -2.5263 -0.4733
  809MOL0     H 6770  10.262   0.341  11.716 -0.0179  0.4101 -0.1328
  809MOL0     H 6771  10.115   0.365  11.498 -1.2321 -3.8244  1.0530
  809MOL0     H 6772  10.123   0.448  11.032 -1.3615  0.1139  0.7301
  809MOL0     H 6773  10.044   0.449  10.824  0.7082  0.7607  1.2486
  809MOL0     H 6774   9.194   1.160   9.217 -1.1295 -0.2139 -2.6080
  809MOL0     H 6775   9.079   1.370   9.155  2.5785  2.1726  0.4816
  809MOL0     H 6776   8.617   1.688   9.488  0.2786 -0.1258 -1.8903
  809MOL0     H 6777   8.614   1.930   9.563 -0.0542  2.3072  1.9423
  809MOL0     H 6778   8.828   2.269   9.626  2.2699 -0.2137 -3.0712
  809MOL0     H 6779   8.909   2.117   9.652 -0.8712 -1.5848  0.0108
  809MOL0     H 6780   8.610   2.135   9.699  0.3728  0.6028  1.7691
  809MOL0     H 6781   8.727   2.029   9.780 -0.6627 -0.2240  1.6178
  809MOL0     H 6782   8.651   2.323   9.802 -2.1895 -1.2175  0.0056
  809MOL0     H 6783   8.812   2.280   9.855 -0.5487 -0.4821  1.1684
  809MOL0     H 6784   8.719   2.096  10.006  0.3687 -0.7054 -1.0977
  809MOL0     H 6785   8.693   2.268  10.047  4.3598 -0.0915 -1.2303
  809MOL0     H 6786   8.297   2.163   9.933 -0.9093 -0.8450  2.3717
  809MOL0     H 6787   8.989   1.980   9.376  1.7949 -2.8946 -1.8091
  809MOL0     H 6788   8.979   1.761   9.297 -1.9655  3.8684 -3.4087
  810MOL0     O 6789   8.813   0.471   9.274 -0.3486  0.0675  0.9134
  810MOL0     C 6790   8.887   0.432   9.183 -0.0707 -0.4165 -0.7807
  810MOL0     O 6791   9.012   0.355   9.195  0.4129  0.0059  0.6579
  810MOL0     C 6792   9.045   0.303   9.317 -0.2148  0.1082  0.3544
  810MOL0     C 6793   9.092   0.172   9.308 -0.0364  0.3063  0.0519
  810MOL0     C 6794   9.147   0.101   9.413  0.8176 -0.4548 -0.4648
  810MOL0     C 6795   9.135   0.159   9.539  0.4661  0.1969 -0.1511
  810MOL0     O 6796   9.174   0.089   9.649 -0.9455 -0.9239 -0.7583
  810MOL0     C 6797   9.206  -0.054   9.632  0.1371 -0.5721 -0.2349
  810MOL0     C 6798   9.253  -0.111   9.765  0.0639 -0.5466  0.4042
  810MOL0     C 6799   9.403  -0.081   9.785  0.0984 -0.3805  0.9292
  810MOL0     C 6800   9.463  -0.147   9.909  0.4296 -0.0184  0.5721
  810MOL0     C 6801   9.399  -0.105  10.043  0.0890  0.2556  0.5599
  810MOL0     C 6802   9.432  -0.199  10.159  1.3914  0.2143  0.6233
  810MOL0     C 6803   9.362  -0.334  10.162 -0.9982  0.7020 -0.4735
  810MOL0     C 6804   9.406  -0.420  10.285 -0.4331  0.5076 -0.0374
  810MOL0     N 6805   9.365  -0.368  10.420 -0.9214  0.4002  0.1448
  810MOL0     C 6806   9.440  -0.346  10.530 -0.3379  1.1072  0.0073
  810MOL0     C 6807   9.356  -0.337  10.637  0.8274  0.0451 -0.9089
  810MOL0     C 6808   9.392  -0.309  10.784  0.6447 -1.1374  0.4787
  810MOL0     C 6809   9.381  -0.425  10.876 -0.4293  0.7548 -0.1079
  810MOL0     C 6810   9.231  -0.446  10.936 -0.4680 -0.0937 -1.3327
  810MOL0     C 6811   9.219  -0.584  11.008  0.0214  0.0284 -0.0590
  810MOL0     O 6812   9.296  -0.598  11.127 -0.0421 -0.1185  0.0645
  810MOL0     C 6813   9.262  -0.527  11.239  0.1590  0.5140  0.1390
  810MOL0     C 6814   9.351  -0.555  11.340  0.9191  0.5053 -0.3890
  810MOL0     C 6815   9.320  -0.513  11.468 -1.1944  0.5023 -0.4627
  810MOL0     C 6816   9.210  -0.436  11.503 -0.2776  0.0521  0.2989
  810MOL0     C 6817   9.203  -0.372  11.648  0.2845  0.1848  0.1139
  810MOL0     O 6818   9.129  -0.253  11.674  0.2131 -0.0861  0.1378
  810MOL0     C 6819   9.086  -0.166  11.569  1.3247  1.1428 -1.6391
  810MOL0     C 6820   9.158  -0.105  11.467 -0.1479  0.3466  0.1517
  810MOL0     C 6821   9.092  -0.022  11.375 -0.1013  0.6060  0.5985
  810MOL0     C 6822   8.953  -0.022  11.372 -0.2063 -0.1222  0.3893
  810MOL0     O 6823   8.887   0.031  11.264  0.0309 -0.3208 -0.0170
  810MOL0     C 6824   8.943   0.129  11.187  0.1943 -0.7248  1.0694
  810MOL0     C 6825   8.833   0.193  11.112  1.1243 -0.9089 -0.4485
  810MOL0     C 6826   8.731   0.262  11.209 -0.4763 -0.5346  0.3790
  810MOL0     C 6827   8.591   0.284  11.128  0.3143  0.5953 -0.1639
  810MOL0     C 6828   8.489   0.352  11.223 -0.1200  0.7492 -0.1637
  810MOL0     C 6829   8.428   0.478  11.163 -0.4357 -0.4641 -0.2918
  810MOL0     C 6830   8.347   0.556  11.272 -0.5281  0.6925  0.8484
  810MOL0     C 6831   8.413   0.615  11.391  0.3850 -0.7039  0.5251
  810MOL0    Cl 6832   8.570   0.698  11.356 -0.6454 -0.1114  0.1342
  810MOL0     C 6833   8.875  -0.100  11.458  0.1436 -0.7522  0.2641
  810MOL0     C 6834   8.946  -0.167  11.564 -0.8262  0.1650 -0.5950
  810MOL0     O 6835   9.255  -0.436  11.738  0.4162  0.4640 -0.1132
  810MOL0     C 6836   9.113  -0.418  11.398  1.4896  0.1966  0.1047
  810MOL0     C 6837   9.141  -0.461  11.268 -0.7069  0.2465 -0.8570
  810MOL0     N 6838   9.225  -0.343  10.580  0.7325  0.2836 -0.7707
  810MOL0     N 6839   9.232  -0.364  10.460  0.2677 -0.3153  0.7581
  810MOL0     C 6840   9.092   0.295   9.555 -0.0614 -0.7629  0.4252
  810MOL0     C 6841   9.050   0.371   9.439  0.2534  0.5311 -0.6753
  810MOL0     C 6842   8.860   0.461   9.042  1.1300 -0.3531  0.3697
  810MOL0     C 6843   8.957   0.447   8.939 -0.2140  0.6584 -0.0670
  810MOL0     C 6844   8.918   0.463   8.805 -0.5509  1.0210  0.3673
  810MOL0     C 6845   8.782   0.503   8.776 -0.6301  0.2411 -0.0699
  810MOL0     O 6846   8.746   0.539   8.653 -0.5392  0.4265  0.0962
  810MOL0     C 6847   8.843   0.573   8.548  0.2787 -0.3945  0.2493
  810MOL0     C 6848   8.771   0.539   8.413  0.1643 -0.0145  0.2266
  810MOL0     C 6849   8.819   0.401   8.344  0.5620 -0.2748  0.1294
  810MOL0     C 6850   8.883   0.434   8.208 -0.5188  0.9636 -0.5168
  810MOL0     C 6851   8.905   0.299   8.140 -0.3671  0.5914 -0.0206
  810MOL0     C 6852   8.914   0.183   8.082  0.8219  0.2911 -0.4558
  810MOL0     C 6853   8.692   0.509   8.880  0.0932  1.3932 -0.1396
  810MOL0     C 6854   8.722   0.491   9.011  0.6110 -0.0360 -0.3995
  810MOL0     H 6855   9.086   0.132   9.207  0.3040 -0.0923  0.1888
  810MOL0     H 6856   9.175  -0.002   9.395  1.5025 -0.4675  0.5286
  810MOL0     H 6857   9.290  -0.074   9.564  2.7222 -0.3102  2.6411
  810MOL0     H 6858   9.113  -0.104   9.606  0.9325 -2.4449  0.2925
  810MOL0     H 6859   9.259  -0.219   9.751 -0.6974 -0.6002  0.4292
  810MOL0     H 6860   9.178  -0.089   9.842 -0.2281  2.8714 -0.6796
  810MOL0     H 6861   9.428   0.025   9.783  1.5071 -0.6791  1.1870
  810MOL0     H 6862   9.453  -0.111   9.692 -0.7030  0.9953  0.0247
  810MOL0     H 6863   9.442  -0.252   9.885  1.1370  0.4833 -2.6973
  810MOL0     H 6864   9.573  -0.146   9.906  0.4047  0.4651 -1.0024
  810MOL0     H 6865   9.291  -0.084  10.036 -0.1245  0.1817  2.8874
  810MOL0     H 6866   9.444  -0.007  10.062 -2.3180  1.2525  1.5501
  810MOL0     H 6867   9.396  -0.146  10.248 -1.8240 -0.4047 -0.2120
  810MOL0     H 6868   9.541  -0.209  10.158  1.3543 -0.1813  0.0141
  810MOL0     H 6869   9.256  -0.319  10.184 -0.4301  0.5471  2.8316
  810MOL0     H 6870   9.374  -0.388  10.067  3.1590 -0.9988  0.8018
  810MOL0     H 6871   9.515  -0.428  10.275 -0.1541  0.0664  2.6300
  810MOL0     H 6872   9.348  -0.512  10.280 -1.2971  0.9622  1.0709
  810MOL0     H 6873   9.544  -0.321  10.552 -0.1116  0.3361 -0.1390
  810MOL0     H 6874   9.315  -0.242  10.824  0.8546 -0.5256 -0.1295
  810MOL0     H 6875   9.487  -0.255  10.792 -1.7151  3.2336  3.7382
  810MOL0     H 6876   9.451  -0.411  10.959 -0.9448 -0.1293  0.4880
  810MOL0     H 6877   9.407  -0.520  10.829 -1.4598  0.5268 -0.2515
  810MOL0     H 6878   9.222  -0.370  11.015  2.6411 -0.6390 -0.3206
  810MOL0     H 6879   9.147  -0.424  10.870  0.0624 -0.7964 -2.2642
  810MOL0     H 6880   9.237  -0.658  10.930 -0.4832  0.6858 -0.8136
  810MOL0     H 6881   9.114  -0.598  11.036 -0.2806  1.0200 -0.6673
  810MOL0     H 6882   9.440  -0.612  11.316 -0.3672 -0.8595 -2.2540
  810MOL0     H 6883   9.398  -0.530  11.541 -1.3064 -0.4674 -0.5609
  810MOL0     H 6884   9.266  -0.109  11.473 -0.0652 -2.7471 -1.2180
  810MOL0     H 6885   9.149   0.016  11.291  1.8542 -0.1891  1.5058
  810MOL0     H 6886   9.012   0.083  11.116  0.8407  0.6050  0.7891
  810MOL0     H 6887   8.999   0.201  11.248  0.9491  0.0826 -0.5109
  810MOL0     H 6888   8.788   0.105  11.066  2.9550 -2.0674 -0.1308
  810MOL0     H 6889   8.850   0.268  11.033 -0.7139  0.2121  0.1606
  810MOL0     H 6890   8.778   0.354  11.244 -0.8923 -1.7393  4.5726
  810MOL0     H 6891   8.708   0.211  11.303  0.2554  1.8245  1.9064
  810MOL0     H 6892   8.603   0.329  11.029  0.2396  0.2184 -0.3454
  810MOL0     H 6893   8.552   0.183  11.113  0.8212  0.0842  1.6363
  810MOL0     H 6894   8.545   0.375  11.314  1.3430  0.2805 -0.9182
  810MOL0     H 6895   8.402   0.291  11.251  0.1396  0.6571  0.4610
  810MOL0     H 6896   8.362   0.452  11.079 -1.4680  0.1011  0.3186
  810MOL0     H 6897   8.499   0.547  11.117 -2.8009  0.1506 -3.3425
  810MOL0     H 6898   8.301   0.640  11.218 -2.8703 -2.2737 -2.2676
  810MOL0     H 6899   8.280   0.475  11.302 -1.0770  0.2999 -1.2492
  810MOL0     H 6900   8.433   0.541  11.469 -1.4732  0.4017  2.1517
  810MOL0     H 6901   8.336   0.681  11.432  0.9503  0.7451 -0.6591
  810MOL0     H 6902   8.767  -0.097  11.455  0.1508 -0.6284  0.0344
  810MOL0     H 6903   8.887  -0.200  11.649 -2.3146  3.5405 -0.1760
  810MOL0     H 6904   9.024  -0.357  11.397  0.1426 -1.6442 -1.3994
  810MOL0     H 6905   9.069  -0.462  11.187 -1.2059 -0.7422 -0.4138
  810MOL0     H 6906   9.081   0.346   9.650 -1.3907 -0.0152 -0.1035
  810MOL0     H 6907   9.016   0.474   9.450  0.1746  0.3199  1.7706
  810MOL0     H 6908   9.059   0.419   8.958  0.1501  1.4613 -0.7170
  810MOL0     H 6909   8.993   0.431   8.733 -0.7774 -2.7204  1.5577
  810MOL0     H 6910   8.935   0.514   8.554 -0.1943 -1.0444  1.2441
  810MOL0     H 6911   8.876   0.677   8.556  0.1390 -0.0203 -2.6618
  810MOL0     H 6912   8.664   0.529   8.430 -0.4517  2.3757 -1.7302
  810MOL0     H 6913   8.787   0.618   8.339  1.5654  1.3868  1.9058
  810MOL0     H 6914   8.737   0.333   8.318  0.4168  0.4415 -1.3510
  810MOL0     H 6915   8.882   0.353   8.419  2.1888  0.8522 -0.4743
  810MOL0     H 6916   8.834   0.506   8.142 -2.1290 -0.4210 -0.9079
  810MOL0     H 6917   8.976   0.489   8.227  1.0334 -1.5832 -0.2008
  810MOL0     H 6918   8.924   0.085   8.040  0.8951  0.7378 -1.5010
  810MOL0     H 6919   8.585   0.521   8.863 -0.0709  0.0407 -0.1238
  810MOL0     H 6920   8.638   0.499   9.079  0.4226  1.0199 -0.7361
  811MOL0     O 6921   6.446   1.195   1.969  0.1086  1.3987  0.1245
  811MOL0     C 6922   6.381   1.276   1.904 -0.0459  0.7067  0.9119
  811MOL0     O 6923   6.371   1.405   1.931 -0.2693 -0.7003 -0.4471
  811MOL0     C 6924   6.420   1.466   2.051  0.8862  0.5436 -0.2251
  811MOL0     C 6925   6.466   1.597   2.041  0.3522 -0.3904 -0.2851
  811MOL0     C 6926   6.514   1.657   2.153  0.3162  0.2042 -0.2432
  811MOL0     C 6927   6.507   1.590   2.282  0.8152 -0.7069  0.8809
  811MOL0     O 6928   6.559   1.657   2.386 -0.1735  0.4472 -0.0629
  811MOL0     C 6929   6.463   1.700   2.487 -0.0628  0.3042  0.2317
  811MOL0     C 6930   6.489   1.856   2.520 -0.0278 -0.0465 -0.4587
  811MOL0     C 6931   6.404   1.946   2.427  0.0516  0.1559  0.3535
  811MOL0     C 6932   6.474   2.088   2.431 -0.2151  1.6692  0.4388
  811MOL0     C 6933   6.393   2.193   2.361  0.0615 -0.1466 -0.6437
  811MOL0     C 6934   6.367   2.151   2.218  1.2074 -1.8393  0.5272
  811MOL0     C 6935   6.335   2.258   2.113  0.3798  0.8616  0.2062
  811MOL0     C 6936   6.178   2.290   2.117 -0.1279  0.4419  0.4022
  811MOL0     N 6937   6.152   2.424   2.046  0.3036 -0.4256 -0.6644
  811MOL0     C 6938   6.163   2.550   2.093 -0.0934  0.0965 -0.7695
  811MOL0     C 6939   6.131   2.625   1.988  1.5514  0.2759  0.8808
  811MOL0     C 6940   6.131   2.781   1.973  0.1257 -0.9894 -0.1187
  811MOL0     C 6941   6.257   2.849   1.925 -0.6670  0.3316  0.3846
  811MOL0     C 6942   6.319   2.774   1.798  0.4346  0.3167  0.0122
  811MOL0     C 6943   6.219   2.774   1.676  0.0201  0.2446  0.1215
  811MOL0     O 6944   6.155   2.897   1.652  0.3830 -0.1942  0.3671
  811MOL0     C 6945   6.091   2.908   1.532  0.8210  0.5252 -0.3186
  811MOL0     C 6946   6.037   2.799   1.458  0.8516  1.3775 -1.1740
  811MOL0     C 6947   5.963   2.816   1.344 -0.7829  0.1670 -0.5176
  811MOL0     C 6948   5.926   2.937   1.293 -0.2496 -0.2965 -0.5542
  811MOL0     C 6949   5.854   2.957   1.168  0.3359 -0.2117  0.3099
  811MOL0     O 6950   5.802   2.837   1.109  0.8957  0.0087 -0.3271
  811MOL0     C 6951   5.758   2.832   0.981  0.6674  0.3336 -0.7057
  811MOL0     C 6952   5.650   2.740   0.961 -0.6452  0.1595 -0.5002
  811MOL0     C 6953   5.592   2.727   0.834 -0.1730 -0.0682 -0.5018
  811MOL0     C 6954   5.639   2.800   0.729 -0.7008  0.4683  0.3049
  811MOL0     O 6955   5.580   2.777   0.609 -0.1723  0.3197 -0.2990
  811MOL0     C 6956   5.633   2.845   0.493  0.6363  0.4687 -0.4808
  811MOL0     C 6957   5.538   2.815   0.376 -0.8271 -0.3998 -0.8179
  811MOL0     C 6958   5.420   2.918   0.383  0.6513 -0.0103  0.2735
  811MOL0     C 6959   5.293   2.861   0.310  0.6839 -0.1118 -0.5503
  811MOL0     C 6960   5.194   2.978   0.286  0.9321 -1.1086 -0.0626
  811MOL0     C 6961   5.053   2.932   0.242  0.5369 -0.6834  0.8962
  811MOL0     C 6962   4.948   3.044   0.206 -0.5925 -0.0804 -0.3982
  811MOL0     C 6963   4.844   2.989   0.109  0.8344 -0.4199 -0.0162
  811MOL0    Cl 6964   4.772   3.148   0.032 -0.0622 -0.2972  0.4258
  811MOL0     C 6965   5.745   2.892   0.745 -0.5526  0.9044  0.5013
  811MOL0     C 6966   5.803   2.907   0.869  0.5708  0.4519 -0.5133
  811MOL0     O 6967   5.841   3.076   1.124  0.0428 -0.0515  0.0929
  811MOL0     C 6968   5.964   3.041   1.368 -0.0704 -0.4865 -0.3756
  811MOL0     C 6969   6.037   3.035   1.490 -0.5306  0.7086  0.3758
  811MOL0     N 6970   6.089   2.541   1.888 -0.2067  0.1262 -0.7001
  811MOL0     N 6971   6.099   2.418   1.922 -0.3422  0.3738 -0.6021
  811MOL0     C 6972   6.469   1.460   2.286 -0.0472  0.4898  0.6842
  811MOL0     C 6973   6.428   1.387   2.173  1.2702  0.4039  0.1390
  811MOL0     C 6974   6.319   1.239   1.771 -0.3183  0.6548  1.1839
  811MOL0     C 6975   6.346   1.124   1.697 -0.1907  0.9423 -0.3712
  811MOL0     C 6976   6.300   1.101   1.568  0.0396 -0.3517 -0.0563
  811MOL0     C 6977   6.222   1.205   1.506 -0.1428 -0.2411  0.0173
  811MOL0     O 6978   6.167   1.209   1.380 -0.0219 -0.5384 -0.5052
  811MOL0     C 6979   6.157   1.089   1.300 -0.7692  0.4471  0.5005
  811MOL0     C 6980   6.139   1.149   1.159 -0.5667 -0.1221 -1.0655
  811MOL0     C 6981   5.994   1.168   1.140 -0.1944  0.7051 -0.0865
  811MOL0     C 6982   5.953   1.246   1.006 -0.1206 -0.0384 -0.9285
  811MOL0     C 6983   5.930   1.143   0.892 -0.5863 -0.5284  0.3639
  811MOL0     C 6984   5.913   1.057   0.814 -0.0535  0.8068  0.3713
  811MOL0     C 6985   6.190   1.322   1.579  0.0932  0.1843  0.0943
  811MOL0     C 6986   6.231   1.335   1.711 -0.4916 -0.2816 -0.0120
  811MOL0     H 6987   6.478   1.655   1.950  1.7919 -1.1432 -0.6036
  811MOL0     H 6988   6.573   1.748   2.159  0.3462  0.1582  0.1705
  811MOL0     H 6989   6.487   1.648   2.581 -1.4752  3.6501  2.6406
  811MOL0     H 6990   6.360   1.671   2.465  0.7481 -1.0918 -2.0895
  811MOL0     H 6991   6.592   1.883   2.495  1.4857 -4.6650 -0.0815
  811MOL0     H 6992   6.479   1.875   2.628 -2.1436  0.9979 -0.7747
  811MOL0     H 6993   6.297   1.947   2.452 -0.5468 -3.4654 -1.2832
  811MOL0     H 6994   6.414   1.913   2.323  1.1396  1.8279 -0.1136
  811MOL0     H 6995   6.481   2.115   2.537 -0.1052  2.2342  0.2863
  811MOL0     H 6996   6.572   2.079   2.385  0.3505  3.3898  1.2395
  811MOL0     H 6997   6.445   2.289   2.362 -0.2976  0.1479 -3.0180
  811MOL0     H 6998   6.296   2.200   2.410  0.5220 -2.4156  0.7365
  811MOL0     H 6999   6.276   2.091   2.223 -0.9337  0.9909 -1.0400
  811MOL0     H 7000   6.445   2.096   2.166  0.6772 -1.5023 -0.6707
  811MOL0     H 7001   6.395   2.347   2.135  2.3903  0.0632 -1.6782
  811MOL0     H 7002   6.372   2.233   2.013  2.9146  1.6521  0.8734
  811MOL0     H 7003   6.150   2.300   2.223 -0.8446  0.6193  0.2018
  811MOL0     H 7004   6.129   2.206   2.068  3.4121 -2.2241  1.0435
  811MOL0     H 7005   6.201   2.581   2.190 -0.7279  0.6945 -0.7086
  811MOL0     H 7006   6.108   2.825   2.070  0.8724  1.5185 -1.0057
  811MOL0     H 7007   6.050   2.799   1.903  0.7708 -2.0085 -1.1754
  811MOL0     H 7008   6.325   2.842   2.010 -2.2672  2.0108  1.8783
  811MOL0     H 7009   6.255   2.957   1.903  2.4622  0.1296 -1.6757
  811MOL0     H 7010   6.411   2.827   1.771  0.8365  0.1590  1.0139
  811MOL0     H 7011   6.357   2.673   1.816  0.8537 -0.0795 -2.7053
  811MOL0     H 7012   6.144   2.699   1.704  0.2591  0.4551  1.4005
  811MOL0     H 7013   6.263   2.720   1.592 -3.8608 -4.4303  0.6037
  811MOL0     H 7014   6.061   2.694   1.467 -1.3114  0.6983 -2.4515
  811MOL0     H 7015   5.939   2.725   1.290 -3.3967 -1.2445  2.6857
  811MOL0     H 7016   5.609   2.678   1.040  1.0850  0.5370  0.7472
  811MOL0     H 7017   5.505   2.664   0.816  1.2698 -1.6287 -2.5324
  811MOL0     H 7018   5.737   2.818   0.473 -0.3220 -0.9855 -4.3188
  811MOL0     H 7019   5.622   2.953   0.505 -0.2954  0.2569  0.9333
  811MOL0     H 7020   5.505   2.711   0.384  2.5468 -1.4939  0.5225
  811MOL0     H 7021   5.590   2.839   0.282  0.1018  0.4571 -0.1046
  811MOL0     H 7022   5.448   3.016   0.344 -3.1335  0.5918 -1.3336
  811MOL0     H 7023   5.389   2.935   0.487  1.7596 -0.4827  0.6957
  811MOL0     H 7024   5.328   2.811   0.219  2.1116  0.6444 -0.4519
  811MOL0     H 7025   5.237   2.795   0.376  0.2105  1.8722  1.1146
  811MOL0     H 7026   5.237   3.041   0.208  1.1009  0.8106  1.5011
  811MOL0     H 7027   5.181   3.048   0.369 -1.1396  0.9399 -1.9307
  811MOL0     H 7028   5.005   2.881   0.326 -0.1998  1.2589  1.7281
  811MOL0     H 7029   5.076   2.878   0.150  1.8539  1.5640 -0.1912
  811MOL0     H 7030   4.897   3.086   0.293 -0.3729 -2.3154  0.8919
  811MOL0     H 7031   5.009   3.127   0.169  2.5164 -0.9670  2.2155
  811MOL0     H 7032   4.766   2.929   0.155  0.2615 -0.2971 -0.8069
  811MOL0     H 7033   4.890   2.939   0.022  4.7808 -0.0296  1.6265
  811MOL0     H 7034   5.794   2.948   0.667 -1.4463 -0.3108 -0.9760
  811MOL0     H 7035   5.883   2.980   0.881 -0.3804  2.4526 -4.3663
  811MOL0     H 7036   5.942   3.141   1.332  0.2724 -0.7772 -1.4065
  811MOL0     H 7037   6.069   3.124   1.545 -0.9378  0.1831  1.5054
  811MOL0     H 7038   6.464   1.420   2.387  2.9774  0.7019  1.0155
  811MOL0     H 7039   6.376   1.293   2.189  0.2246  0.9673  0.1666
  811MOL0     H 7040   6.395   1.041   1.747 -1.6986  1.1460  1.5741
  811MOL0     H 7041   6.322   1.004   1.525 -1.1623 -1.7920  2.3204
  811MOL0     H 7042   6.079   1.017   1.325 -0.8638  0.4933  0.3437
  811MOL0     H 7043   6.253   1.037   1.299  0.7411  3.0405  0.4778
  811MOL0     H 7044   6.202   1.236   1.139  0.4677 -1.3418 -3.5465
  811MOL0     H 7045   6.181   1.084   1.082  2.2174 -1.6307  1.5271
  811MOL0     H 7046   5.952   1.226   1.223 -0.1710 -0.3941  0.7182
  811MOL0     H 7047   5.943   1.071   1.143 -3.4166  2.2392 -0.6604
  811MOL0     H 7048   5.859   1.299   1.020  0.5526  1.6293 -2.3773
  811MOL0     H 7049   6.020   1.330   0.987  0.7540  0.0250  2.0078
  811MOL0     H 7050   5.893   0.976   0.747  2.9581 -0.2957  0.6721
  811MOL0     H 7051   6.136   1.408   1.542 -0.3237  1.4582  3.3640
  811MOL0     H 7052   6.200   1.419   1.772 -0.4322  1.1893 -1.9301
  812MOL0     O 7053   5.898  11.284  10.223 -0.3532  0.3892 -0.0814
  812MOL0     C 7054   5.993  11.280  10.301 -0.8216  0.5624 -0.4064
  812MOL0     O 7055   5.998  11.304  10.438  0.0758  0.0142 -0.0758
  812MOL0     C 7056   5.888  11.351  10.508 -0.6631 -0.8268 -0.0595
  812MOL0     C 7057   5.802  11.440  10.456 -0.3977  0.3830 -0.2362
  812MOL0     C 7058   5.682  11.471  10.518  0.5531 -0.8867  0.5237
  812MOL0     C 7059   5.667  11.420  10.648  0.4551  0.1237  0.7881
  812MOL0     O 7060   5.555  11.465  10.710  0.0373 -0.6429 -0.0963
  812MOL0     C 7061   5.482  11.357  10.770  0.4237  0.8834  0.7049
  812MOL0     C 7062   5.335  11.402  10.745  0.0939  0.1922 -1.0726
  812MOL0     C 7063   5.232  11.299  10.783  0.1318  0.7863  0.0958
  812MOL0     C 7064   5.091  11.352  10.777  0.1918  0.2590  0.8575
  812MOL0     C 7065   4.976  11.246  10.792  0.3122  0.0215 -0.7066
  812MOL0     C 7066   4.844  11.311  10.797 -0.6491 -0.0300 -0.0111
  812MOL0     C 7067   4.819  11.379  10.668  0.3926 -0.9567  0.3611
  812MOL0     C 7068   4.675  11.433  10.664  0.2633  0.5364  0.6191
  812MOL0     N 7069   4.645  11.509  10.539  0.2416 -0.1822  0.7362
  812MOL0     C 7070   4.678  11.498  10.410  1.2044  0.2548  0.0128
  812MOL0     C 7071   4.627  11.607  10.345 -0.6827  0.8887 -1.0555
  812MOL0     C 7072   4.653  11.639  10.203 -0.5144 -0.9058 -0.7124
  812MOL0     C 7073   4.806  11.686  10.177 -0.1324 -0.5172 -1.2646
  812MOL0     C 7074   4.855  11.813  10.254  0.9663 -0.1967 -0.0295
  812MOL0     C 7075   4.855  11.935  10.157  0.6691  0.3601 -0.1160
  812MOL0     O 7076   4.964  12.030  10.193  0.2529 -0.1551 -0.0276
  812MOL0     C 7077   4.960  12.120  10.301 -0.1874 -0.0184 -0.3627
  812MOL0     C 7078   4.841  12.175  10.355  0.7661  0.0005 -0.5569
  812MOL0     C 7079   4.861  12.284  10.450  0.5888 -0.4963  0.6284
  812MOL0     C 7080   4.979  12.340  10.486  0.5235 -0.1817 -0.1742
  812MOL0     C 7081   4.987  12.464  10.570 -0.0454 -0.3542  0.1973
  812MOL0     O 7082   4.878  12.524  10.618 -0.0708 -0.3120  0.5399
  812MOL0     C 7083   4.890  12.601  10.732 -0.1408 -0.4053  1.2082
  812MOL0     C 7084   4.944  12.544  10.843 -0.4149 -0.5861 -0.1240
  812MOL0     C 7085   4.958  12.621  10.964 -0.1357  0.7663  0.2116
  812MOL0     C 7086   4.914  12.754  10.971 -0.2997  0.6114  0.3800
  812MOL0     O 7087   4.921  12.827  11.089 -0.5959 -0.1267  0.0823
  812MOL0     C 7088   4.856  12.785  11.211 -0.1616  1.2244 -0.5108
  812MOL0     C 7089   4.883  12.869  11.335 -0.2184  1.2026 -0.0560
  812MOL0     C 7090   4.785  12.987  11.350 -0.3201 -0.3293 -0.5136
  812MOL0     C 7091   4.776  13.086  11.235 -0.9843  0.5177  0.2510
  812MOL0     C 7092   4.736  13.231  11.269  0.8588  0.1563 -0.0240
  812MOL0     C 7093   4.598  13.231  11.327 -0.1004  0.9395  0.2686
  812MOL0     C 7094   4.561  13.366  11.366 -1.1244  0.1995  0.1727
  812MOL0     C 7095   4.520  13.455  11.246  0.2243 -0.1763 -0.7230
  812MOL0    Cl 7096   4.370  13.377  11.168  0.0983 -0.0011 -0.6536
  812MOL0     C 7097   4.864  12.814  10.849 -0.0992  0.5111 -0.1525
  812MOL0     C 7098   4.851  12.731  10.734  0.1482  0.1900  0.5564
  812MOL0     O 7099   5.105  12.494  10.592  0.7105 -0.4794  0.2686
  812MOL0     C 7100   5.091  12.279  10.430  0.4546 -0.0259 -0.5021
  812MOL0     C 7101   5.081  12.166  10.340  0.5401 -0.4722 -0.5314
  812MOL0     N 7102   4.571  11.674  10.439 -0.9898  0.1022  0.0698
  812MOL0     N 7103   4.574  11.622  10.553 -0.8447  0.1619 -0.2733
  812MOL0     C 7104   5.757  11.326  10.697 -0.7849  0.7614  0.2052
  812MOL0     C 7105   5.876  11.296  10.634  0.6701 -0.0236  0.1755
  812MOL0     C 7106   6.116  11.214  10.247  0.3159  0.0533 -0.1627
  812MOL0     C 7107   6.228  11.211  10.325  0.6099  0.0004 -1.3602
  812MOL0     C 7108   6.343  11.145  10.284 -0.0218 -0.5902 -0.4171
  812MOL0     C 7109   6.356  11.112  10.153 -0.4719  0.8664 -1.3687
  812MOL0     O 7110   6.481  11.066  10.127 -0.0588  0.6093 -0.2384
  812MOL0     C 7111   6.513  11.027   9.995 -0.0112 -0.4211 -0.4065
  812MOL0     C 7112   6.525  11.152   9.904  0.0056  0.2972  0.0426
  812MOL0     C 7113   6.532  11.110   9.755 -0.3226 -0.3215  0.1062
  812MOL0     C 7114   6.597  11.223   9.672 -0.1758  0.7166 -0.8096
  812MOL0     C 7115   6.593  11.190   9.525 -0.5766  0.1706  0.6525
  812MOL0     C 7116   6.608  11.169   9.407 -0.1372  0.2850  1.1192
  812MOL0     C 7117   6.242  11.113  10.066 -0.6474 -0.0842 -0.4798
  812MOL0     C 7118   6.120  11.164  10.116  0.4720  0.1566 -0.2341
  812MOL0     H 7119   5.821  11.506  10.371 -0.4806  0.5639 -0.1147
  812MOL0     H 7120   5.619  11.548  10.475  0.0693 -1.5834 -0.0544
  812MOL0     H 7121   5.508  11.345  10.876 -2.1035 -0.0187  1.3102
  812MOL0     H 7122   5.497  11.262  10.719 -2.8339  0.6755 -0.1177
  812MOL0     H 7123   5.314  11.419  10.639  0.6357 -5.5590 -2.4052
  812MOL0     H 7124   5.313  11.495  10.798 -1.6518 -0.9013  0.2404
  812MOL0     H 7125   5.239  11.263  10.886 -2.8899  1.0963  0.5098
  812MOL0     H 7126   5.232  11.227  10.701 -0.5372  1.1427 -0.2224
  812MOL0     H 7127   5.088  11.434  10.850  2.5763  0.1472  1.1681
  812MOL0     H 7128   5.081  11.400  10.679  0.1356 -2.1476 -0.3791
  812MOL0     H 7129   4.991  11.200  10.890  1.1183 -0.4285 -1.0314
  812MOL0     H 7130   4.984  11.162  10.722  1.3283 -0.6335  0.1707
  812MOL0     H 7131   4.818  11.375  10.882  1.0825 -2.6442  2.7388
  812MOL0     H 7132   4.767  11.233  10.800 -1.0730  0.3616 -0.6058
  812MOL0     H 7133   4.885  11.464  10.651 -1.0502 -0.0528 -1.0304
  812MOL0     H 7134   4.836  11.306  10.588  2.1673 -0.5103  0.3045
  812MOL0     H 7135   4.672  11.508  10.743  1.1749 -0.1800  1.3740
  812MOL0     H 7136   4.600  11.354  10.669  0.5562 -0.1480 -3.0483
  812MOL0     H 7137   4.743  11.424  10.362  1.8468  1.8191 -1.6537
  812MOL0     H 7138   4.580  11.710  10.162 -0.8945 -0.3771  0.8305
  812MOL0     H 7139   4.636  11.555  10.135 -2.2171 -1.0958 -0.0925
  812MOL0     H 7140   4.808  11.696  10.068 -1.8920  0.6406 -1.2342
  812MOL0     H 7141   4.875  11.606  10.205  0.2805 -1.5828 -4.8103
  812MOL0     H 7142   4.799  11.833  10.346  1.5668  0.8009  0.1356
  812MOL0     H 7143   4.963  11.803  10.270  1.2611  0.0777 -1.6876
  812MOL0     H 7144   4.755  11.979  10.167 -1.4002 -3.5138 -1.8611
  812MOL0     H 7145   4.862  11.915  10.050 -0.0256 -0.0012 -0.1024
  812MOL0     H 7146   4.741  12.141  10.333 -0.4035  4.2717 -2.7560
  812MOL0     H 7147   4.775  12.322  10.504 -2.2515 -1.9321 -2.5060
  812MOL0     H 7148   4.980  12.441  10.843 -0.3537 -0.5760 -1.3153
  812MOL0     H 7149   4.986  12.561  11.050 -2.3655 -1.5557 -0.5670
  812MOL0     H 7150   4.884  12.683  11.239 -4.0043  0.0356 -0.3965
  812MOL0     H 7151   4.751  12.788  11.183  0.2147 -0.0486 -2.2493
  812MOL0     H 7152   4.986  12.905  11.320  1.5179 -1.8426  2.9236
  812MOL0     H 7153   4.873  12.808  11.426 -1.5167  0.2122 -0.8262
  812MOL0     H 7154   4.813  13.054  11.432 -1.9557  0.7596 -0.7958
  812MOL0     H 7155   4.689  12.946  11.386  0.5051 -1.0369  0.9713
  812MOL0     H 7156   4.878  13.080  11.195  0.2883 -4.9686  3.3070
  812MOL0     H 7157   4.715  13.042  11.156  1.3694  3.6483 -3.6897
  812MOL0     H 7158   4.730  13.277  11.170  1.0106  0.3841  0.0726
  812MOL0     H 7159   4.802  13.290  11.333 -1.2686  0.2128  2.2489
  812MOL0     H 7160   4.598  13.172  11.420 -0.8271  2.4766  1.2953
  812MOL0     H 7161   4.529  13.178  11.261 -1.4992  0.8862  1.7021
  812MOL0     H 7162   4.474  13.353  11.431 -1.1838 -1.1332 -0.1496
  812MOL0     H 7163   4.641  13.414  11.424 -0.6586  3.0750 -2.5514
  812MOL0     H 7164   4.596  13.451  11.168 -0.2578  0.0371 -1.2065
  812MOL0     H 7165   4.497  13.559  11.274  2.7868  0.0525  0.8787
  812MOL0     H 7166   4.826  12.915  10.855  1.8315  1.5792 -3.4034
  812MOL0     H 7167   4.809  12.782  10.648 -1.1889  3.4732  2.9218
  812MOL0     H 7168   5.184  12.335  10.439  0.4579  0.3167 -2.3446
  812MOL0     H 7169   5.172  12.133  10.291  1.8106  0.2660  1.2362
  812MOL0     H 7170   5.754  11.285  10.797 -0.4947  0.6227  0.1585
  812MOL0     H 7171   5.957  11.233  10.668 -0.8986 -1.0407  2.2593
  812MOL0     H 7172   6.245  11.253  10.423 -1.5929  5.4945 -2.9919
  812MOL0     H 7173   6.420  11.142  10.361 -0.9310  1.8211  0.7026
  812MOL0     H 7174   6.437  10.961   9.952  1.9546  1.3629 -8.3411
  812MOL0     H 7175   6.609  10.976   9.988  1.2424  1.5909  1.0458
  812MOL0     H 7176   6.439  11.219   9.917 -1.4247 -1.5719  0.5484
  812MOL0     H 7177   6.615  11.204   9.938 -1.9927  3.7682  0.5745
  812MOL0     H 7178   6.436  11.071   9.720 -2.1128  2.7662  1.1756
  812MOL0     H 7179   6.600  11.025   9.742 -3.9727 -3.6808  0.8736
  812MOL0     H 7180   6.535  11.312   9.681 -0.9820  0.0433  0.5473
  812MOL0     H 7181   6.703  11.233   9.700 -0.3091  0.4094 -0.1708
  812MOL0     H 7182   6.620  11.139   9.305 -1.7456 -6.0649  2.3695
  812MOL0     H 7183   6.248  11.087   9.961  3.6854 -1.2270 -0.1388
  812MOL0     H 7184   6.027  11.169  10.061  0.0829 -2.2323  0.0685
  813MOL0     O 7185   2.925   4.887   5.301  0.0886 -0.0020  0.4030
  813MOL0     C 7186   3.012   4.941   5.231 -0.2203 -0.5754  0.1223
  813MOL0     O 7187   3.139   4.885   5.230  0.0147 -0.0482 -0.6423
  813MOL0     C 7188   3.165   4.763   5.280 -0.9035  0.7793 -0.1065
  813MOL0     C 7189   3.253   4.734   5.384  0.7016 -0.2230 -0.1042
  813MOL0     C 7190   3.268   4.608   5.433  0.4099  0.4495 -0.7402
  813MOL0     C 7191   3.216   4.496   5.369 -0.8560 -0.5152  0.9587
  813MOL0     O 7192   3.269   4.373   5.411  0.3529 -0.4433  0.6701
  813MOL0     C 7193   3.239   4.262   5.327  0.2329  0.4463  0.3975
  813MOL0     C 7194   3.310   4.278   5.187  0.1130 -0.2001 -0.5078
  813MOL0     C 7195   3.237   4.218   5.066  0.2900  0.8922 -0.1212
  813MOL0     C 7196   3.274   4.252   4.919 -0.4724 -0.0178 -0.3324
  813MOL0     C 7197   3.154   4.216   4.827  0.8945  0.9039  0.6767
  813MOL0     C 7198   3.187   4.251   4.688 -0.5382  0.1624 -0.1324
  813MOL0     C 7199   3.067   4.217   4.586  0.4654  0.5065 -1.3589
  813MOL0     C 7200   2.934   4.276   4.641  0.5180  0.4038  0.4527
  813MOL0     N 7201   2.827   4.274   4.544 -0.0346  0.6007 -0.4763
  813MOL0     C 7202   2.741   4.165   4.528  0.7634  0.3280 -0.1624
  813MOL0     C 7203   2.626   4.227   4.480 -0.1590  1.2042  0.4706
  813MOL0     C 7204   2.506   4.143   4.463  0.5652  0.7196 -0.0016
  813MOL0     C 7205   2.369   4.212   4.484 -0.5661 -0.2769  0.5719
  813MOL0     C 7206   2.330   4.211   4.626 -0.3636  0.4486  0.3122
  813MOL0     C 7207   2.214   4.297   4.652 -0.4421  0.4887 -0.0388
  813MOL0     O 7208   2.200   4.321   4.791 -0.6729 -0.1551 -0.1518
  813MOL0     C 7209   2.065   4.312   4.839 -0.3909 -0.7074 -0.5035
  813MOL0     C 7210   2.004   4.431   4.892  0.9875  0.2083  0.2683
  813MOL0     C 7211   1.884   4.415   4.956  0.7102  0.2201 -0.6370
  813MOL0     C 7212   1.819   4.292   4.958 -0.1340  1.4863  0.1477
  813MOL0     C 7213   1.680   4.276   5.013 -0.5765  0.1952 -0.1552
  813MOL0     O 7214   1.640   4.156   5.044 -0.8929 -0.1972 -0.4742
  813MOL0     C 7215   1.526   4.146   5.125 -0.2275 -0.8516  1.2520
  813MOL0     C 7216   1.440   4.051   5.086 -0.5218  1.1229 -0.6071
  813MOL0     C 7217   1.328   4.018   5.164  0.3200  1.1364 -1.1264
  813MOL0     C 7218   1.295   4.096   5.288 -0.5968  0.0153  0.0407
  813MOL0     O 7219   1.179   4.063   5.339  0.2084  0.9566 -0.1343
  813MOL0     C 7220   1.144   4.121   5.463 -0.5228 -0.6976  0.1613
  813MOL0     C 7221   1.086   4.271   5.452  0.5015  0.8452 -0.2771
  813MOL0     C 7222   0.985   4.318   5.557 -0.9801  0.6613 -0.5979
  813MOL0     C 7223   1.030   4.299   5.700 -0.3061 -0.4388 -0.4567
  813MOL0     C 7224   0.935   4.365   5.802  0.6140 -0.0141 -0.3237
  813MOL0     C 7225   0.990   4.354   5.945 -0.1552 -0.4849 -0.2422
  813MOL0     C 7226   1.056   4.225   5.996  0.1413  0.1685 -0.0231
  813MOL0     C 7227   0.957   4.111   5.981  0.0297  0.4014  0.7561
  813MOL0    Cl 7228   0.813   4.155   6.072 -0.0097 -0.2572 -0.3273
  813MOL0     C 7229   1.389   4.196   5.322  0.1767  0.4212  0.6499
  813MOL0     C 7230   1.497   4.222   5.239 -0.0782 -0.7183  0.6235
  813MOL0     O 7231   1.614   4.382   5.031 -1.2171  1.0107 -0.5650
  813MOL0     C 7232   1.887   4.182   4.908  0.8669 -0.4585  0.2554
  813MOL0     C 7233   2.015   4.184   4.853 -0.4313 -0.8700  1.1386
  813MOL0     N 7234   2.647   4.357   4.462  0.0905 -0.2684 -0.0342
  813MOL0     N 7235   2.765   4.389   4.495  0.1452  0.2101  0.0883
  813MOL0     C 7236   3.117   4.525   5.273 -0.0088  1.0357  0.1750
  813MOL0     C 7237   3.082   4.652   5.226 -0.5559  0.1374 -0.0045
  813MOL0     C 7238   2.998   5.065   5.155  0.3553 -0.3377 -0.5804
  813MOL0     C 7239   3.111   5.131   5.098 -0.6594 -0.4147  0.0029
  813MOL0     C 7240   3.095   5.268   5.053 -0.0986  0.2499  0.0357
  813MOL0     C 7241   2.972   5.332   5.042 -0.1571 -0.4084  0.6498
  813MOL0     O 7242   2.966   5.465   4.996 -0.3201 -0.1304 -0.8095
  813MOL0     C 7243   2.905   5.566   5.086 -0.0628  0.0280 -0.1543
  813MOL0     C 7244   3.001   5.689   5.104  0.8256 -0.5024  0.4622
  813MOL0     C 7245   3.145   5.638   5.130  0.3286 -0.2948 -0.2831
  813MOL0     C 7246   3.250   5.749   5.180 -0.3865  1.2714  0.5690
  813MOL0     C 7247   3.256   5.862   5.092  0.0554 -0.9379  0.5745
  813MOL0     C 7248   3.258   5.930   4.988 -0.3545 -0.8609 -1.3076
  813MOL0     C 7249   2.865   5.264   5.092  0.7072 -0.0570 -0.2601
  813MOL0     C 7250   2.874   5.137   5.148 -0.0079 -0.2728 -0.1205
  813MOL0     H 7251   3.300   4.813   5.442  0.8175 -0.6000  0.3234
  813MOL0     H 7252   3.343   4.597   5.511 -0.0559 -0.0445 -0.3547
  813MOL0     H 7253   3.130   4.254   5.316  0.3505 -0.5674 -0.1305
  813MOL0     H 7254   3.279   4.170   5.369  1.4284  0.1822 -1.2256
  813MOL0     H 7255   3.410   4.234   5.186  1.2303  2.0805  0.9990
  813MOL0     H 7256   3.316   4.385   5.165 -1.5215  0.1917  0.7469
  813MOL0     H 7257   3.134   4.251   5.079 -0.0903 -1.0013  2.4503
  813MOL0     H 7258   3.250   4.110   5.070  3.4257  1.0487 -2.3803
  813MOL0     H 7259   3.290   4.360   4.916 -3.0631  0.3999 -2.4815
  813MOL0     H 7260   3.368   4.199   4.900 -0.7714 -1.1782  1.2110
  813MOL0     H 7261   3.067   4.275   4.857  0.0875 -0.2539  0.6551
  813MOL0     H 7262   3.130   4.110   4.835  3.2899  0.1249 -1.2270
  813MOL0     H 7263   3.272   4.188   4.658  0.5000  1.0508  0.8424
  813MOL0     H 7264   3.215   4.356   4.680  0.7908 -0.3176 -2.6725
  813MOL0     H 7265   3.073   4.254   4.483 -0.6144  0.9093 -1.2942
  813MOL0     H 7266   3.061   4.108   4.593  2.3764  0.4247 -0.4473
  813MOL0     H 7267   2.954   4.382   4.663  1.4436  0.2913  0.2071
  813MOL0     H 7268   2.898   4.234   4.735  2.7210 -0.8267  0.8141
  813MOL0     H 7269   2.756   4.063   4.564  2.6233 -0.2843 -2.4350
  813MOL0     H 7270   2.509   4.061   4.535 -1.2415 -2.3379 -3.1416
  813MOL0     H 7271   2.506   4.086   4.370 -3.9983  1.6473 -0.7632
  813MOL0     H 7272   2.294   4.154   4.428  1.6410 -1.3191 -1.4981
  813MOL0     H 7273   2.363   4.309   4.434 -3.2029 -1.4476 -1.7059
  813MOL0     H 7274   2.315   4.108   4.660 -0.5011  0.2755 -0.2680
  813MOL0     H 7275   2.414   4.257   4.680  0.1329  0.7031 -0.6634
  813MOL0     H 7276   2.130   4.248   4.603  1.4040  0.0175 -2.9599
  813MOL0     H 7277   2.230   4.396   4.609 -1.5118  0.6288 -0.1275
  813MOL0     H 7278   2.067   4.518   4.885  1.4494 -0.1050  0.5264
  813MOL0     H 7279   1.838   4.499   5.007  0.9295  0.2485 -0.4848
  813MOL0     H 7280   1.459   3.990   4.997 -2.5041 -0.8347  0.2168
  813MOL0     H 7281   1.253   3.943   5.140 -1.5961  1.8545  2.0462
  813MOL0     H 7282   1.222   4.107   5.538 -0.7057  2.7316  1.1561
  813MOL0     H 7283   1.063   4.055   5.496  1.2824 -1.4093  3.6169
  813MOL0     H 7284   1.032   4.276   5.357 -1.2476 -1.2209  0.5370
  813MOL0     H 7285   1.176   4.333   5.450  1.0787  0.0045 -1.9051
  813MOL0     H 7286   0.890   4.269   5.535 -0.3394 -0.2242 -1.4676
  813MOL0     H 7287   0.972   4.424   5.538  0.3459  1.1118  0.7362
  813MOL0     H 7288   1.029   4.191   5.718  1.8103 -1.1327 -3.6668
  813MOL0     H 7289   1.131   4.339   5.715  0.9065 -1.5202 -4.3936
  813MOL0     H 7290   0.839   4.312   5.794  0.9666 -0.6265 -0.5308
  813MOL0     H 7291   0.927   4.469   5.770  1.0386 -0.8943 -3.6858
  813MOL0     H 7292   0.907   4.378   6.012 -0.0853 -2.7997  0.7961
  813MOL0     H 7293   1.071   4.428   5.951  0.3502 -1.0483  0.0414
  813MOL0     H 7294   1.131   4.183   5.928  1.9363 -0.8230  2.3971
  813MOL0     H 7295   1.094   4.241   6.097 -0.3833  1.6195 -0.0318
  813MOL0     H 7296   1.004   4.020   6.020  1.1613  0.5761 -0.1301
  813MOL0     H 7297   0.936   4.101   5.874  1.8392  2.1860  0.1719
  813MOL0     H 7298   1.375   4.254   5.413 -0.1210 -1.4846  1.8706
  813MOL0     H 7299   1.570   4.298   5.265 -2.0825  1.2012  0.8694
  813MOL0     H 7300   1.835   4.090   4.929 -1.8265  0.9264  0.0337
  813MOL0     H 7301   2.050   4.088   4.817  3.8419  1.7054 -2.6784
  813MOL0     H 7302   3.058   4.446   5.226  0.4557  1.7332 -1.6881
  813MOL0     H 7303   2.997   4.657   5.159  0.3204  2.9836 -1.0443
  813MOL0     H 7304   3.205   5.077   5.094 -1.1680 -1.2628 -1.3217
  813MOL0     H 7305   3.168   5.343   5.024 -0.1629  0.0444 -0.6549
  813MOL0     H 7306   2.902   5.517   5.184  2.2975  0.7915  0.3652
  813MOL0     H 7307   2.803   5.594   5.059 -0.3077  0.5301  1.1899
  813MOL0     H 7308   2.994   5.761   5.023 -0.8309 -2.9783 -1.7758
  813MOL0     H 7309   2.969   5.744   5.193  1.0862 -0.5098  0.5633
  813MOL0     H 7310   3.177   5.591   5.037 -3.5507 -0.9089 -1.4812
  813MOL0     H 7311   3.149   5.563   5.210  1.8349  2.6681  2.6619
  813MOL0     H 7312   3.216   5.789   5.276  0.7980  2.0092  0.7016
  813MOL0     H 7313   3.350   5.705   5.191 -0.4599 -0.3821 -3.4465
  813MOL0     H 7314   3.259   5.996   4.903 -2.4384  1.1579  0.0977
  813MOL0     H 7315   2.768   5.310   5.075 -0.2935 -2.4936 -1.6404
  813MOL0     H 7316   2.780   5.100   5.186 -0.6611  1.1352 -0.2958
  814MOL0     O 7317   8.077   0.313  10.905  0.8067 -0.2974  0.3777
  814MOL0     C 7318   8.013   0.215  10.944 -0.0875  0.2969  1.0424
  814MOL0     O 7319   8.061   0.085  10.944  0.6470  0.2236  0.6045
  814MOL0     C 7320   8.188   0.050  10.893  0.1808  0.2408 -0.4000
  814MOL0     C 7321   8.208  -0.070  10.828 -0.0087  0.3980  0.2108
  814MOL0     C 7322   8.339  -0.110  10.796 -0.5971  0.0883  0.1552
  814MOL0     C 7323   8.449  -0.033  10.830  0.1833 -0.6383  0.6545
  814MOL0     O 7324   8.574  -0.080  10.806 -0.3654  0.2505  0.1405
  814MOL0     C 7325   8.665  -0.097  10.918 -0.3751 -1.6043  0.5489
  814MOL0     C 7326   8.739  -0.224  10.887  0.3574 -0.4848 -0.0608
  814MOL0     C 7327   8.860  -0.249  10.978 -0.3096 -0.6744 -0.1619
  814MOL0     C 7328   8.823  -0.272  11.130  0.1379  0.7585  0.6561
  814MOL0     C 7329   8.766  -0.412  11.154 -1.1733 -0.0795  0.1032
  814MOL0     C 7330   8.708  -0.411  11.294 -0.3350 -0.6022 -0.1971
  814MOL0     C 7331   8.620  -0.539  11.316  1.0526 -0.9083 -0.0954
  814MOL0     C 7332   8.711  -0.657  11.354 -1.1759 -0.2627  0.2346
  814MOL0     N 7333   8.770  -0.722  11.230 -0.9961 -0.1804 -0.3326
  814MOL0     C 7334   8.705  -0.780  11.117  0.5603 -0.4607  0.3569
  814MOL0     C 7335   8.812  -0.819  11.037  0.7670 -1.0979 -0.0030
  814MOL0     C 7336   8.797  -0.888  10.903  0.6310 -0.4431  0.1975
  814MOL0     C 7337   8.731  -0.795  10.801  0.7486 -0.1383 -0.1286
  814MOL0     C 7338   8.816  -0.794  10.672 -0.3075  0.5272  0.4804
  814MOL0     C 7339   8.819  -0.663  10.607 -0.5777  0.3656  0.7849
  814MOL0     O 7340   8.890  -0.673  10.483 -0.3315  0.0494 -0.0334
  814MOL0     C 7341   9.027  -0.706  10.481 -0.4287 -0.4880  0.3668
  814MOL0     C 7342   9.120  -0.680  10.582 -0.0899 -0.1032 -0.2658
  814MOL0     C 7343   9.247  -0.731  10.574 -0.4146 -0.0840  0.4315
  814MOL0     C 7344   9.293  -0.793  10.456 -0.5688  0.2424 -0.8111
  814MOL0     C 7345   9.423  -0.850  10.428 -0.4545 -0.1198 -0.3410
  814MOL0     O 7346   9.469  -0.874  10.303 -0.6041  0.1586  0.5510
  814MOL0     C 7347   9.583  -0.953  10.293  0.2444  0.5042 -0.9341
  814MOL0     C 7348   9.555  -1.069  10.212 -0.0773 -0.7135 -0.3223
  814MOL0     C 7349   9.651  -1.167  10.196 -0.2286  0.0237 -0.4209
  814MOL0     C 7350   9.779  -1.154  10.257 -0.2716  0.3237  0.3858
  814MOL0     O 7351   9.869  -1.246  10.205  0.2249  0.1241  0.2113
  814MOL0     C 7352  10.005  -1.199  10.180  0.8954  0.7233 -0.6742
  814MOL0     C 7353  10.083  -1.309  10.109 -1.1256  0.2405 -0.3683
  814MOL0     C 7354  10.048  -1.316   9.959 -0.9995  0.1122  0.1727
  814MOL0     C 7355  10.094  -1.440   9.880 -0.1229  0.2648 -0.1140
  814MOL0     C 7356  10.045  -1.430   9.741 -1.3690  0.4675 -0.6482
  814MOL0     C 7357  10.149  -1.493   9.654 -0.1375 -0.6694  0.0792
  814MOL0     C 7358  10.107  -1.510   9.502 -0.5226  0.3152 -0.6974
  814MOL0     C 7359   9.989  -1.599   9.496  0.2764 -0.1762 -0.6123
  814MOL0    Cl 7360   9.941  -1.630   9.333 -0.1470 -0.0294 -0.1997
  814MOL0     C 7361   9.801  -1.052  10.355  0.3746  0.8213 -0.0103
  814MOL0     C 7362   9.706  -0.951  10.371  0.0721 -0.4250  0.7455
  814MOL0     O 7363   9.478  -0.885  10.529  0.0957  0.4304 -1.8007
  814MOL0     C 7364   9.208  -0.815  10.346  0.0839  0.0700 -0.3371
  814MOL0     C 7365   9.075  -0.767  10.359 -0.1472 -0.2246  0.5286
  814MOL0     N 7366   8.927  -0.809  11.100  0.1725 -0.0373 -0.6019
  814MOL0     N 7367   8.903  -0.739  11.220 -0.6979  0.9747 -0.0005
  814MOL0     C 7368   8.436   0.089  10.895  0.0977 -0.3089  1.2769
  814MOL0     C 7369   8.304   0.132  10.929 -0.5319  0.0559  0.5667
  814MOL0     C 7370   7.871   0.236  10.989 -0.2463 -0.0893  0.3585
  814MOL0     C 7371   7.811   0.147  11.071 -1.0683 -0.3724  0.2054
  814MOL0     C 7372   7.678   0.172  11.114 -0.9068 -0.1779  0.1455
  814MOL0     C 7373   7.606   0.271  11.055  0.3668 -0.4164 -0.4825
  814MOL0     O 7374   7.478   0.289  11.101  0.3026  0.1836 -0.1264
  814MOL0     C 7375   7.461   0.389  11.201 -0.8911 -0.4281 -0.6478
  814MOL0     C 7376   7.501   0.343  11.339  1.2075 -0.6007  0.4269
  814MOL0     C 7377   7.495   0.469  11.439  0.6292  0.1214  0.5560
  814MOL0     C 7378   7.386   0.572  11.421  0.4079 -0.8589 -1.6743
  814MOL0     C 7379   7.377   0.653  11.543  0.9037 -0.3556  0.3735
  814MOL0     C 7380   7.364   0.725  11.642 -0.4075  0.0264  0.2320
  814MOL0     C 7381   7.660   0.359  10.963 -0.7217 -1.1106 -0.5379
  814MOL0     C 7382   7.791   0.345  10.940  0.8678 -0.0424 -0.4261
  814MOL0     H 7383   8.124  -0.138  10.812 -1.5635  2.7006 -2.4244
  814MOL0     H 7384   8.371  -0.204  10.753 -1.2418 -0.1690  0.2316
  814MOL0     H 7385   8.619  -0.084  11.016  0.6412 -0.3620  0.8886
  814MOL0     H 7386   8.726  -0.006  10.910  0.4296 -1.7351  3.7671
  814MOL0     H 7387   8.780  -0.217  10.786 -1.4018 -1.2861 -0.8693
  814MOL0     H 7388   8.665  -0.304  10.879  0.9652 -1.0205 -0.5061
  814MOL0     H 7389   8.915  -0.154  10.988  0.9169 -1.2771 -0.9054
  814MOL0     H 7390   8.922  -0.325  10.929  1.0278  1.1709 -1.4921
  814MOL0     H 7391   8.906  -0.270  11.201 -0.2316  1.2627  1.0851
  814MOL0     H 7392   8.752  -0.191  11.149  0.4390  1.7083 -1.9742
  814MOL0     H 7393   8.837  -0.495  11.148 -0.6717  0.3911 -0.7392
  814MOL0     H 7394   8.690  -0.442  11.081 -0.0930 -2.2371 -0.2086
  814MOL0     H 7395   8.632  -0.332  11.299 -1.4148 -1.3680 -2.7490
  814MOL0     H 7396   8.787  -0.396  11.367 -1.7290  1.8045  0.9277
  814MOL0     H 7397   8.549  -0.513  11.395 -0.6550 -0.1652 -1.7940
  814MOL0     H 7398   8.547  -0.569  11.240  0.9280 -0.1069 -0.3046
  814MOL0     H 7399   8.664  -0.728  11.422 -1.3296  0.1101  0.5202
  814MOL0     H 7400   8.795  -0.626  11.418  0.6665 -3.2657 -0.5512
  814MOL0     H 7401   8.601  -0.802  11.096  0.2601  1.2949 -0.1891
  814MOL0     H 7402   8.739  -0.979  10.921 -1.7862 -0.2489 -4.8395
  814MOL0     H 7403   8.900  -0.910  10.873  0.9011 -0.9714  1.4624
  814MOL0     H 7404   8.749  -0.691  10.831  2.0737 -0.8255  1.6188
  814MOL0     H 7405   8.626  -0.818  10.785 -0.0154  1.2601  2.2839
  814MOL0     H 7406   8.916  -0.826  10.700 -1.2321 -1.7376  1.3907
  814MOL0     H 7407   8.775  -0.867  10.602  0.7656 -0.4783  0.8770
  814MOL0     H 7408   8.864  -0.588  10.673 -1.6827 -0.5018  2.6095
  814MOL0     H 7409   8.718  -0.631  10.582  0.3697  2.5979 -0.4886
  814MOL0     H 7410   9.096  -0.623  10.671 -1.8669  0.6798 -1.1930
  814MOL0     H 7411   9.325  -0.716  10.648  1.2208 -0.6012 -1.1120
  814MOL0     H 7412   9.458  -1.071  10.163  0.9088 -1.7516 -2.3764
  814MOL0     H 7413   9.623  -1.252  10.135  1.4744 -1.5782  0.9382
  814MOL0     H 7414  10.062  -1.191  10.273  0.7004  0.3326 -0.5174
  814MOL0     H 7415  10.013  -1.103  10.128  0.4347  2.6204  2.4795
  814MOL0     H 7416  10.060  -1.402  10.161  0.4006  0.3778  0.6310
  814MOL0     H 7417  10.191  -1.294  10.123 -0.8481 -1.4690 -0.3885
  814MOL0     H 7418  10.081  -1.226   9.907 -0.9114  2.8728  4.5700
  814MOL0     H 7419   9.939  -1.317   9.944 -1.2169 -1.8047  1.4588
  814MOL0     H 7420  10.201  -1.453   9.898 -0.7312 -1.8688  2.5845
  814MOL0     H 7421  10.051  -1.533   9.919 -0.7038 -0.2997 -2.0116
  814MOL0     H 7422  10.029  -1.325   9.714  2.2763  1.3632  0.0889
  814MOL0     H 7423   9.951  -1.484   9.734 -0.3286 -1.6808  0.7458
  814MOL0     H 7424  10.164  -1.595   9.693 -4.3243 -1.0617  1.1635
  814MOL0     H 7425  10.237  -1.431   9.668  2.4627 -4.5423  3.3119
  814MOL0     H 7426  10.081  -1.412   9.461 -2.9368 -1.4351 -3.8885
  814MOL0     H 7427  10.188  -1.547   9.439  1.5840  1.0121  1.4843
  814MOL0     H 7428   9.902  -1.550   9.541 -0.2491 -0.0106 -1.7666
  814MOL0     H 7429   9.997  -1.691   9.555 -0.4437 -0.9775 -1.7354
  814MOL0     H 7430   9.893  -1.056  10.412  1.3327  0.1124 -1.5279
  814MOL0     H 7431   9.731  -0.867  10.436 -0.3929 -0.3247  0.8003
  814MOL0     H 7432   9.242  -0.852  10.250 -0.3646 -0.1398 -0.4170
  814MOL0     H 7433   9.008  -0.792  10.278 -0.4387 -0.3166  0.7963
  814MOL0     H 7434   8.525   0.150  10.909 -0.3305  0.8229 -0.6192
  814MOL0     H 7435   8.288   0.215  10.996 -0.0163  1.0721 -0.5267
  814MOL0     H 7436   7.862   0.058  11.108 -1.0219 -2.1040 -3.5174
  814MOL0     H 7437   7.621   0.117  11.188 -2.8464  0.9477 -0.4415
  814MOL0     H 7438   7.359   0.430  11.200 -0.9022 -0.3511  0.9678
  814MOL0     H 7439   7.526   0.474  11.179  0.0344 -0.4511  1.6996
  814MOL0     H 7440   7.446   0.267  11.396 -0.3956  0.9704  1.0642
  814MOL0     H 7441   7.601   0.300  11.334  1.6334  0.3531  0.4742
  814MOL0     H 7442   7.597   0.508  11.439  1.2662 -1.4045 -0.8655
  814MOL0     H 7443   7.495   0.419  11.537  3.0749  0.8804  1.0243
  814MOL0     H 7444   7.397   0.642  11.338  0.7442 -0.4411 -1.2791
  814MOL0     H 7445   7.290   0.519  11.414  0.2501 -0.4710 -2.5606
  814MOL0     H 7446   7.350   0.786  11.729  0.4694 -1.6100  1.5700
  814MOL0     H 7447   7.623   0.440  10.901 -1.6231  0.5699  2.0442
  814MOL0     H 7448   7.829   0.418  10.870 -1.3958  2.4781  0.7899
  815MOL0     O 7449  11.072   7.812   7.385 -0.8154 -0.2095  0.4436
  815MOL0     C 7450  11.133   7.916   7.349  0.5484  0.3688 -0.5540
  815MOL0     O 7451  11.114   8.030   7.407 -0.6986 -0.3311  0.3249
  815MOL0     C 7452  11.066   8.035   7.538  0.3654  0.0679  1.4126
  815MOL0     C 7453  10.959   8.127   7.566 -0.1177 -1.0782 -0.0360
  815MOL0     C 7454  10.910   8.145   7.699 -0.2477  0.1521  0.0934
  815MOL0     C 7455  10.970   8.063   7.801  0.0513 -0.3562  0.2150
  815MOL0     O 7456  10.934   8.100   7.922 -1.3353  0.2095 -1.0278
  815MOL0     C 7457  10.836   8.000   7.961  0.5962 -0.4179 -0.7734
  815MOL0     C 7458  10.750   8.068   8.066  0.5835  0.9377 -0.0438
  815MOL0     C 7459  10.614   7.988   8.094 -0.2018 -0.3913  0.2023
  815MOL0     C 7460  10.513   8.072   8.177  0.0589 -0.4997  0.3180
  815MOL0     C 7461  10.390   7.990   8.213  0.3228  0.0584  0.6027
  815MOL0     C 7462  10.258   8.059   8.212 -0.9456 -0.0236 -0.2289
  815MOL0     C 7463  10.251   8.184   8.304 -1.3342  0.2142 -0.1928
  815MOL0     C 7464  10.104   8.227   8.326 -0.5985  0.2435  0.4912
  815MOL0     N 7465  10.045   8.277   8.208  0.5793 -0.5706  0.7922
  815MOL0     C 7466  10.037   8.411   8.167 -0.1028 -0.7224  0.1408
  815MOL0     C 7467   9.950   8.412   8.053  0.3212 -0.2187 -1.2595
  815MOL0     C 7468   9.898   8.522   7.958 -0.0467  0.4776 -0.1293
  815MOL0     C 7469   9.962   8.660   7.985 -1.0570 -0.5168 -0.1822
  815MOL0     C 7470   9.900   8.732   8.107 -0.3001  0.0771  0.0687
  815MOL0     C 7471   9.749   8.744   8.093  0.3135  0.4515 -0.1773
  815MOL0     O 7472   9.699   8.831   8.188 -0.1182  0.2996  0.8915
  815MOL0     C 7473   9.668   8.781   8.313 -0.7380  0.1118  0.9428
  815MOL0     C 7474   9.712   8.667   8.372 -1.1136  0.3513 -0.8431
  815MOL0     C 7475   9.671   8.634   8.497 -0.7482 -1.0694 -1.0457
  815MOL0     C 7476   9.608   8.722   8.583 -0.3977  0.5090  0.1963
  815MOL0     C 7477   9.581   8.687   8.717  0.4286 -0.3565 -0.2010
  815MOL0     O 7478   9.601   8.555   8.740  0.5047  0.0428  0.1401
  815MOL0     C 7479   9.589   8.499   8.868  0.6718  0.9141 -0.5309
  815MOL0     C 7480   9.467   8.440   8.902 -0.1758  0.1336  0.1622
  815MOL0     C 7481   9.448   8.386   9.031  0.9255 -0.2572  0.0800
  815MOL0     C 7482   9.550   8.385   9.126  0.8631 -0.0146 -0.0876
  815MOL0     O 7483   9.524   8.328   9.251 -0.4753  0.9469  0.0683
  815MOL0     C 7484   9.632   8.259   9.325  0.9136 -0.1931  0.5683
  815MOL0     C 7485   9.585   8.168   9.433  0.6451 -0.1439 -0.6851
  815MOL0     C 7486   9.700   8.096   9.511  0.2484 -0.1854 -0.5052
  815MOL0     C 7487   9.646   7.983   9.593  0.2384 -0.1158 -0.4329
  815MOL0     C 7488   9.559   8.028   9.714 -0.8586 -0.2225  0.3908
  815MOL0     C 7489   9.508   7.912   9.804 -0.4854  0.7135  0.1870
  815MOL0     C 7490   9.459   7.967   9.940  0.1714  0.4600 -0.5138
  815MOL0     C 7491   9.296   7.941   9.937  0.0805  0.6550 -0.1281
  815MOL0    Cl 7492   9.212   7.993   9.789 -0.2812 -0.1577  0.4647
  815MOL0     C 7493   9.672   8.444   9.090  0.5054  0.4444 -0.4665
  815MOL0     C 7494   9.687   8.512   8.968  0.0558 -0.4306 -0.1874
  815MOL0     O 7495   9.538   8.763   8.795  0.2171 -0.6827  0.2006
  815MOL0     C 7496   9.574   8.845   8.517 -0.2616 -0.6556 -0.7905
  815MOL0     C 7497   9.601   8.873   8.385  0.5516  0.2459 -0.5871
  815MOL0     N 7498   9.904   8.284   8.034 -0.3024 -0.1760 -0.2879
  815MOL0     N 7499   9.961   8.209   8.118  0.2822  0.3020  0.1858
  815MOL0     C 7500  11.067   7.970   7.764  1.4362 -0.7846 -0.7108
  815MOL0     C 7501  11.121   7.963   7.637 -0.8006 -0.1601  0.4717
  815MOL0     C 7502  11.219   7.899   7.229  0.0069 -0.6455  0.1205
  815MOL0     C 7503  11.291   8.016   7.176 -0.7499  0.3040 -0.8177
  815MOL0     C 7504  11.351   8.006   7.049 -0.6370 -0.1400 -0.0556
  815MOL0     C 7505  11.344   7.885   6.978 -0.8646  0.2686  0.2322
  815MOL0     O 7506  11.397   7.876   6.850  0.3142  0.0196 -0.0114
  815MOL0     C 7507  11.462   7.983   6.785  0.4463 -0.4655 -0.5213
  815MOL0     C 7508  11.517   7.952   6.647  0.3256 -0.1251 -0.5655
  815MOL0     C 7509  11.399   7.881   6.560  0.0600  0.0317 -0.2088
  815MOL0     C 7510  11.428   7.864   6.409 -0.5017  0.2326  0.8857
  815MOL0     C 7511  11.559   7.798   6.391  0.1975  0.0125 -0.4766
  815MOL0     C 7512  11.667   7.758   6.349  0.4129  0.5484 -0.0047
  815MOL0     C 7513  11.295   7.772   7.037 -1.2250 -0.0441 -0.0675
  815MOL0     C 7514  11.231   7.773   7.156 -0.9937  0.2036 -0.1022
  815MOL0     H 7515  10.930   8.201   7.492  0.5762 -1.5598 -0.8047
  815MOL0     H 7516  10.844   8.224   7.732  1.6707  1.4574  0.9753
  815MOL0     H 7517  10.885   7.922   8.019 -1.5472 -0.3377  1.2783
  815MOL0     H 7518  10.775   7.967   7.876  0.4983 -2.6546  0.1162
  815MOL0     H 7519  10.703   8.157   8.023 -3.2095 -0.5697  0.6107
  815MOL0     H 7520  10.811   8.078   8.157  1.1401 -1.6983 -0.0437
  815MOL0     H 7521  10.645   7.896   8.145  1.4933 -0.1390 -0.3240
  815MOL0     H 7522  10.552   7.948   8.014  1.7970 -2.7996 -0.2600
  815MOL0     H 7523  10.552   8.101   8.276 -2.0999  1.2939  0.7085
  815MOL0     H 7524  10.485   8.163   8.123 -0.9147 -0.4741  0.8372
  815MOL0     H 7525  10.416   7.941   8.307 -0.7282  1.4351  1.6592
  815MOL0     H 7526  10.391   7.908   8.141  2.0956  0.2198  0.3821
  815MOL0     H 7527  10.195   7.983   8.258  0.6718 -1.2481  0.0411
  815MOL0     H 7528  10.223   8.073   8.110 -1.0221 -1.5120 -0.4297
  815MOL0     H 7529  10.299   8.161   8.400 -1.0960  0.1088 -0.3341
  815MOL0     H 7530  10.316   8.259   8.257  0.4157 -0.8202  0.4662
  815MOL0     H 7531  10.102   8.305   8.403  5.0827  0.3233  1.0097
  815MOL0     H 7532  10.044   8.136   8.338 -0.2714  0.0158  0.4216
  815MOL0     H 7533  10.090   8.496   8.209 -0.1368 -1.1527  1.0751
  815MOL0     H 7534   9.789   8.530   7.970  0.2641  2.8575  1.8279
  815MOL0     H 7535   9.915   8.494   7.854 -2.5967  1.0349 -0.7710
  815MOL0     H 7536   9.942   8.718   7.895  3.5524  1.4704 -0.1876
  815MOL0     H 7537  10.071   8.656   7.998 -1.1952  0.1139  1.4689
  815MOL0     H 7538   9.933   8.694   8.204 -1.9171  1.0919  1.0698
  815MOL0     H 7539   9.934   8.836   8.110 -0.1566  0.0110  2.0897
  815MOL0     H 7540   9.694   8.651   8.112 -1.4758  1.5664  0.4066
  815MOL0     H 7541   9.731   8.787   7.994  0.2345  0.4867 -0.1476
  815MOL0     H 7542   9.783   8.605   8.317  2.1881  2.4842  0.6518
  815MOL0     H 7543   9.707   8.538   8.532  0.3364  0.3202  1.9980
  815MOL0     H 7544   9.400   8.448   8.816  2.9568  0.4526 -2.4171
  815MOL0     H 7545   9.353   8.334   9.041 -0.6545  1.6668 -3.0482
  815MOL0     H 7546   9.704   8.327   9.372  0.8873 -0.6101  1.2305
  815MOL0     H 7547   9.674   8.198   9.244  0.1033  0.2438 -0.1950
  815MOL0     H 7548   9.514   8.095   9.394  0.9135 -1.7771  1.6419
  815MOL0     H 7549   9.530   8.225   9.508 -1.1070 -1.0808 -1.2193
  815MOL0     H 7550   9.745   8.171   9.576 -3.4188  1.1471  0.7421
  815MOL0     H 7551   9.767   8.065   9.430  0.5860 -3.5221  0.8867
  815MOL0     H 7552   9.584   7.927   9.523 -1.2681  3.1317 -1.8849
  815MOL0     H 7553   9.730   7.917   9.616  0.5671  0.7583  1.0363
  815MOL0     H 7554   9.475   8.086   9.676 -3.5062 -1.9061  3.2088
  815MOL0     H 7555   9.619   8.097   9.775  0.3510 -0.7387 -0.1682
  815MOL0     H 7556   9.588   7.838   9.807 -0.7470  0.3501 -1.2043
  815MOL0     H 7557   9.426   7.859   9.753 -0.8054  0.9842  0.4125
  815MOL0     H 7558   9.499   7.914  10.027  0.1136  1.2405 -0.0043
  815MOL0     H 7559   9.471   8.073   9.960 -4.5899  1.7534 -2.9847
  815MOL0     H 7560   9.251   7.970  10.033 -0.3460  2.0215 -0.7257
  815MOL0     H 7561   9.273   7.834   9.947  0.8805  0.6985  3.7267
  815MOL0     H 7562   9.759   8.440   9.155  2.8092 -1.3025 -3.4254
  815MOL0     H 7563   9.782   8.557   8.941  0.9571 -1.1225  1.6557
  815MOL0     H 7564   9.529   8.928   8.571  1.9401  0.5945 -0.7719
  815MOL0     H 7565   9.560   8.966   8.346 -3.0704 -1.7146 -1.9050
  815MOL0     H 7566  11.105   7.910   7.846  1.2876 -0.2665 -0.2633
  815MOL0     H 7567  11.211   7.906   7.614 -2.5511 -2.7938 -0.2597
  815MOL0     H 7568  11.270   8.114   7.217 -0.3114  0.8563 -1.8795
  815MOL0     H 7569  11.396   8.097   7.010  0.7216 -0.6687  0.2015
  815MOL0     H 7570  11.552   8.023   6.832  0.7431 -0.3755 -1.1592
  815MOL0     H 7571  11.388   8.064   6.782  0.9456 -0.0303 -2.5007
  815MOL0     H 7572  11.557   8.039   6.594  0.7584  0.5611  0.8584
  815MOL0     H 7573  11.606   7.888   6.654  2.0193  2.1140 -0.4127
  815MOL0     H 7574  11.308   7.942   6.555 -0.3773 -0.5039  0.8200
  815MOL0     H 7575  11.369   7.783   6.599  1.2959 -0.2555  0.0485
  815MOL0     H 7576  11.371   7.793   6.350  1.6057 -0.5872 -0.2925
  815MOL0     H 7577  11.418   7.959   6.356 -3.4699 -1.8659 -2.7438
  815MOL0     H 7578  11.761   7.723   6.312 -0.0953  1.3012 -2.1455
  815MOL0     H 7579  11.284   7.675   6.990 -0.7733  0.1681 -0.6385
  815MOL0     H 7580  11.198   7.677   7.192  2.9193 -0.5377  2.1289
  816MOL0     O 7581   5.062   5.280   2.064  0.4120 -0.0925 -0.0831
  816MOL0     C 7582   5.107   5.308   2.172 -0.4978  0.1469  0.5281
  816MOL0     O 7583   5.052   5.300   2.293  0.4609  0.1754  0.0305
  816MOL0     C 7584   4.927   5.251   2.325  0.1141 -0.2577  0.6204
  816MOL0     C 7585   4.838   5.185   2.243  0.3668 -0.2368  0.5208
  816MOL0     C 7586   4.710   5.160   2.285 -0.5079 -0.2787  0.4302
  816MOL0     C 7587   4.655   5.213   2.405  0.4615  0.1915 -0.0202
  816MOL0     O 7588   4.526   5.176   2.432 -0.7460  0.1856  0.2471
  816MOL0     C 7589   4.450   5.236   2.537 -0.1956  0.7185 -0.1185
  816MOL0     C 7590   4.303   5.191   2.535 -0.4145  0.1339  0.0532
  816MOL0     C 7591   4.224   5.186   2.398 -0.6757 -0.1317  0.6614
  816MOL0     C 7592   4.210   5.310   2.305 -0.7978 -0.7175  0.6682
  816MOL0     C 7593   4.120   5.426   2.363  0.4531 -0.0758 -0.7027
  816MOL0     C 7594   4.102   5.544   2.273 -1.0521  0.0023 -0.1180
  816MOL0     C 7595   4.035   5.507   2.137  1.2155  0.6135  0.3689
  816MOL0     C 7596   4.133   5.483   2.022 -0.1525  0.7483 -0.2070
  816MOL0     N 7597   4.182   5.612   1.959  1.2654  0.6185  0.4373
  816MOL0     C 7598   4.110   5.705   1.883  0.5714  0.2562  0.1561
  816MOL0     C 7599   4.188   5.808   1.857  0.7306  0.8416  0.6991
  816MOL0     C 7600   4.161   5.930   1.769 -0.7383 -0.0027  0.2605
  816MOL0     C 7601   4.201   6.069   1.820 -1.0101  0.4699 -0.2032
  816MOL0     C 7602   4.118   6.099   1.941 -0.0193  0.5136 -0.0990
  816MOL0     C 7603   4.176   6.229   2.005 -0.0492 -0.1086 -0.0276
  816MOL0     O 7604   4.179   6.334   1.916  0.1430  0.1483 -0.0442
  816MOL0     C 7605   4.263   6.441   1.935 -0.0381  0.4090 -0.1994
  816MOL0     C 7606   4.301   6.496   2.054 -0.5119  0.0159 -0.5099
  816MOL0     C 7607   4.366   6.624   2.061  0.8451  0.0811 -0.0933
  816MOL0     C 7608   4.370   6.703   1.946 -0.5876  0.0303  0.4211
  816MOL0     C 7609   4.420   6.842   1.964 -0.2707 -0.5028  0.7046
  816MOL0     O 7610   4.497   6.879   2.069  0.1724 -0.0862  0.3156
  816MOL0     C 7611   4.560   7.005   2.066 -0.5463 -0.9313  0.1249
  816MOL0     C 7612   4.658   7.043   1.975  0.5507  0.1436  0.0203
  816MOL0     C 7613   4.733   7.160   1.985  0.2990  0.1570  0.3635
  816MOL0     C 7614   4.708   7.244   2.095 -1.4182 -0.2197 -0.3481
  816MOL0     O 7615   4.786   7.360   2.105  0.2088  1.2535  0.4632
  816MOL0     C 7616   4.916   7.361   2.039 -0.3433 -1.1904  0.9305
  816MOL0     C 7617   4.986   7.494   2.074 -1.1685  0.9118 -1.7728
  816MOL0     C 7618   4.894   7.609   2.057  0.9456  0.1136 -0.2639
  816MOL0     C 7619   4.959   7.746   2.052  0.7808  0.1118  0.5234
  816MOL0     C 7620   5.026   7.773   2.180 -0.6927 -0.3237 -0.6746
  816MOL0     C 7621   5.113   7.902   2.179 -0.2462 -0.4894  0.3043
  816MOL0     C 7622   5.186   7.931   2.311  0.9547  0.0323 -0.2596
  816MOL0     C 7623   5.313   8.009   2.286 -0.3995 -0.0665  0.5711
  816MOL0    Cl 7624   5.354   8.095   2.438  0.1794 -0.1583 -0.3526
  816MOL0     C 7625   4.607   7.212   2.184 -0.3016 -0.3000  0.0028
  816MOL0     C 7626   4.533   7.098   2.171  0.3920 -0.1400  1.2642
  816MOL0     O 7627   4.387   6.917   1.868  0.1569  0.9337 -0.0566
  816MOL0     C 7628   4.348   6.645   1.827  0.2825  0.6878 -0.1302
  816MOL0     C 7629   4.294   6.512   1.817  0.0537  0.0480 -0.3396
  816MOL0     N 7630   4.315   5.778   1.905  0.2331  0.2033 -0.0881
  816MOL0     N 7631   4.305   5.666   1.974 -0.0913  0.8585  0.0184
  816MOL0     C 7632   4.740   5.280   2.491 -0.9505 -1.3028  0.2590
  816MOL0     C 7633   4.875   5.287   2.453  0.6147  0.9016  0.0494
  816MOL0     C 7634   5.251   5.317   2.173 -0.4843  0.0882 -0.2711
  816MOL0     C 7635   5.326   5.362   2.057  0.2058  0.5452  0.0604
  816MOL0     C 7636   5.464   5.369   2.064 -0.2812  0.0477  0.3385
  816MOL0     C 7637   5.534   5.338   2.180 -0.6731 -0.1915  1.0529
  816MOL0     O 7638   5.670   5.349   2.174 -0.2934 -0.2767 -0.4767
  816MOL0     C 7639   5.754   5.312   2.283  0.4496 -0.0217  0.3031
  816MOL0     C 7640   5.890   5.345   2.240 -0.1388  1.1389 -0.4760
  816MOL0     C 7641   5.956   5.250   2.134  1.1415  0.1599 -0.9841
  816MOL0     C 7642   6.107   5.287   2.111 -0.5820 -0.2989  0.0693
  816MOL0     C 7643   6.101   5.412   2.033  0.1954  0.8780 -0.1323
  816MOL0     C 7644   6.070   5.514   1.976 -0.1904 -0.4774  1.1350
  816MOL0     C 7645   5.469   5.293   2.291  0.4165 -0.3901 -0.6613
  816MOL0     C 7646   5.327   5.288   2.284  0.4940 -0.8518 -1.0150
  816MOL0     H 7647   4.876   5.152   2.147  2.3593  2.0645  0.4263
  816MOL0     H 7648   4.645   5.106   2.217  0.5427 -0.6398 -0.3125
  816MOL0     H 7649   4.430   5.342   2.520 -3.2002  0.1951 -0.5326
  816MOL0     H 7650   4.499   5.214   2.632  3.4688  1.1714 -1.7270
  816MOL0     H 7651   4.255   5.252   2.613  3.3863 -3.0569  5.6128
  816MOL0     H 7652   4.319   5.088   2.566  4.7102  0.3119 -1.0559
  816MOL0     H 7653   4.124   5.146   2.416  0.1091 -2.3654  0.2643
  816MOL0     H 7654   4.277   5.118   2.332  2.4294  1.4338  1.3441
  816MOL0     H 7655   4.311   5.352   2.295 -1.4265  0.3504 -1.8737
  816MOL0     H 7656   4.165   5.273   2.213 -2.5404  1.1648  0.6815
  816MOL0     H 7657   4.153   5.466   2.459 -0.3722  1.0084 -0.8528
  816MOL0     H 7658   4.017   5.395   2.385  0.6644 -0.3680 -0.0938
  816MOL0     H 7659   4.198   5.592   2.254 -0.9441 -0.9884 -2.4329
  816MOL0     H 7660   4.031   5.611   2.322 -0.3853 -1.5995  3.3328
  816MOL0     H 7661   3.986   5.410   2.143  1.3745  0.4864 -0.2983
  816MOL0     H 7662   3.957   5.582   2.122 -1.8983 -1.6348  3.7345
  816MOL0     H 7663   4.092   5.413   1.949  2.2730 -0.7766 -0.2229
  816MOL0     H 7664   4.217   5.426   2.063 -1.2645 -0.8103 -0.0001
  816MOL0     H 7665   4.008   5.692   1.849  0.0796  5.2459 -0.9264
  816MOL0     H 7666   4.062   5.924   1.723  0.0297  0.4288 -1.5352
  816MOL0     H 7667   4.226   5.924   1.682 -1.8657 -0.4667 -0.5731
  816MOL0     H 7668   4.189   6.144   1.741 -1.6803 -1.9286 -2.5182
  816MOL0     H 7669   4.308   6.064   1.846 -0.7431 -0.3988 -1.3971
  816MOL0     H 7670   4.013   6.108   1.912 -0.5527 -0.7734  1.2542
  816MOL0     H 7671   4.123   6.012   2.007 -0.9720 -0.8527 -1.7497
  816MOL0     H 7672   4.277   6.220   2.046 -1.3830  2.8502  4.6817
  816MOL0     H 7673   4.106   6.258   2.084 -0.9552  1.5154 -1.3736
  816MOL0     H 7674   4.276   6.453   2.151 -2.4539  1.5981 -0.2289
  816MOL0     H 7675   4.392   6.660   2.160 -0.7840  2.4805 -0.4503
  816MOL0     H 7676   4.673   6.973   1.893 -1.9915  0.4324 -0.7980
  816MOL0     H 7677   4.800   7.184   1.903  0.6075 -0.8370  0.3119
  816MOL0     H 7678   4.899   7.355   1.931  2.5075 -0.8903  0.3744
  816MOL0     H 7679   4.978   7.279   2.076  1.2744 -0.5353 -0.2074
  816MOL0     H 7680   5.077   7.509   2.015 -0.4300  1.2480 -0.5951
  816MOL0     H 7681   5.020   7.490   2.178 -2.1143 -2.1886 -1.4887
  816MOL0     H 7682   4.830   7.613   2.146  3.6662  1.4467  1.7928
  816MOL0     H 7683   4.835   7.594   1.966  2.0986  0.5688 -1.1026
  816MOL0     H 7684   5.028   7.748   1.967 -0.3256 -1.7753 -0.4665
  816MOL0     H 7685   4.890   7.829   2.029  1.7749  0.6010 -0.8003
  816MOL0     H 7686   5.099   7.695   2.202 -1.3083 -0.4790  0.9250
  816MOL0     H 7687   4.953   7.780   2.260  0.3516  1.0238  0.2097
  816MOL0     H 7688   5.042   7.980   2.148 -0.5712 -1.6344 -2.0691
  816MOL0     H 7689   5.188   7.905   2.100  1.3645 -0.3825  1.7869
  816MOL0     H 7690   5.112   7.991   2.365  0.0829 -0.2164 -1.1555
  816MOL0     H 7691   5.204   7.842   2.372  0.6605  0.5005  0.5354
  816MOL0     H 7692   5.295   8.087   2.212 -0.0425 -0.3196  0.2119
  816MOL0     H 7693   5.381   7.929   2.253  0.3668 -0.3181  2.6034
  816MOL0     H 7694   4.584   7.269   2.273 -1.6331 -0.8952  0.0665
  816MOL0     H 7695   4.464   7.072   2.251  1.1286 -2.9144  1.0939
  816MOL0     H 7696   4.362   6.683   1.726 -1.9345 -1.7591 -1.4901
  816MOL0     H 7697   4.272   6.466   1.721  0.3556 -4.9842  1.6636
  816MOL0     H 7698   4.696   5.319   2.581 -1.9386 -0.1512 -0.6873
  816MOL0     H 7699   4.940   5.331   2.528  0.1120  1.9101 -0.0951
  816MOL0     H 7700   5.291   5.393   1.959  2.7113  0.9738 -0.7515
  816MOL0     H 7701   5.517   5.412   1.979 -1.2376  1.6362  0.5098
  816MOL0     H 7702   5.750   5.203   2.286  0.7254 -0.1653 -2.2797
  816MOL0     H 7703   5.740   5.367   2.377  1.1867  3.4242 -1.4515
  816MOL0     H 7704   5.905   5.451   2.219 -0.3664  1.2406 -0.1310
  816MOL0     H 7705   5.955   5.337   2.327 -0.6994  2.9569  0.1425
  816MOL0     H 7706   5.900   5.257   2.040  0.8462  3.6698 -0.6873
  816MOL0     H 7707   5.975   5.149   2.173  0.0427 -0.4207 -1.8985
  816MOL0     H 7708   6.148   5.300   2.212  0.7096  1.3623 -0.6238
  816MOL0     H 7709   6.163   5.202   2.071  0.8521 -0.3241  2.0135
  816MOL0     H 7710   6.061   5.610   1.930  3.0500 -1.1165 -1.2006
  816MOL0     H 7711   5.525   5.256   2.376 -1.8878 -1.8322  0.3082
  816MOL0     H 7712   5.282   5.261   2.379  3.4947  0.8890  1.0837
  817MOL0     O 7713   6.032   7.015   9.543  0.3902  0.2429 -0.1282
  817MOL0     C 7714   6.096   7.097   9.605 -0.2592  0.6508  0.1711
  817MOL0     O 7715   6.125   7.095   9.737 -0.2192  0.3336 -0.3084
  817MOL0     C 7716   6.042   7.020   9.818 -0.1232 -0.1726  0.3067
  817MOL0     C 7717   5.982   7.079   9.928 -0.3896  0.3677  0.5371
  817MOL0     C 7718   5.910   7.010  10.026  0.2231 -0.3239  0.3452
  817MOL0     C 7719   5.888   6.875  10.006  0.1857  0.2586 -0.1424
  817MOL0     O 7720   5.824   6.799  10.094  0.5485  0.1944 -0.2222
  817MOL0     C 7721   5.713   6.861  10.174  0.0565 -0.0222 -0.0205
  817MOL0     C 7722   5.651   6.758  10.268 -0.5874 -0.0120 -0.3761
  817MOL0     C 7723   5.755   6.688  10.360  0.2704  0.5135  0.8143
  817MOL0     C 7724   5.844   6.775  10.437 -0.3519 -0.0715  0.2601
  817MOL0     C 7725   5.940   6.696  10.533 -0.7233  0.6008  1.3917
  817MOL0     C 7726   5.884   6.583  10.607  0.2683  0.0154  0.0224
  817MOL0     C 7727   5.974   6.509  10.695  0.1962 -0.1409 -0.7419
  817MOL0     C 7728   5.900   6.413  10.798 -0.7675 -0.9308 -0.5658
  817MOL0     N 7729   5.995   6.354  10.897  0.7189  0.4669  0.6367
  817MOL0     C 7730   6.112   6.284  10.872  0.8031 -0.1898  0.0236
  817MOL0     C 7731   6.162   6.245  10.991  0.6400 -0.7995 -0.2994
  817MOL0     C 7732   6.298   6.173  11.014  0.2608  1.4068 -0.8929
  817MOL0     C 7733   6.319   6.056  10.913  0.4625 -0.7051  0.0754
  817MOL0     C 7734   6.452   5.977  10.930 -0.9079  0.3706  0.7559
  817MOL0     C 7735   6.479   5.920  10.791 -0.9943  0.2678 -1.0996
  817MOL0     O 7736   6.370   5.847  10.742  0.6600 -0.0627 -0.6014
  817MOL0     C 7737   6.381   5.817  10.610 -0.8097  0.3489  0.8347
  817MOL0     C 7738   6.480   5.849  10.516 -0.4014 -0.0683 -0.0725
  817MOL0     C 7739   6.487   5.806  10.384 -0.2969  0.0866 -0.6013
  817MOL0     C 7740   6.380   5.719  10.334  0.1094 -0.6988 -0.1720
  817MOL0     C 7741   6.381   5.656  10.203 -0.0038 -0.1674 -0.5970
  817MOL0     O 7742   6.496   5.681  10.132  0.6064  0.4461 -0.0787
  817MOL0     C 7743   6.502   5.634  10.002 -0.5895 -0.0969 -0.4368
  817MOL0     C 7744   6.460   5.713   9.895 -0.3416  0.9596  0.3721
  817MOL0     C 7745   6.487   5.666   9.768  0.0540  0.2450  0.5552
  817MOL0     C 7746   6.554   5.550   9.738  0.0778  0.3542  0.5695
  817MOL0     O 7747   6.559   5.531   9.600  0.3289 -0.2856 -0.7941
  817MOL0     C 7748   6.660   5.452   9.552  0.2427  0.0036  0.1193
  817MOL0     C 7749   6.706   5.520   9.418  0.3664 -0.7353  0.1843
  817MOL0     C 7750   6.785   5.420   9.332 -0.0528  0.3687 -0.5564
  817MOL0     C 7751   6.872   5.499   9.230  0.8819 -0.2734 -0.0712
  817MOL0     C 7752   6.916   5.398   9.124  0.4619  0.2714 -0.5128
  817MOL0     C 7753   7.017   5.463   9.038  0.7060 -0.6632 -0.5249
  817MOL0     C 7754   7.073   5.360   8.934  0.5239  0.6884 -0.5551
  817MOL0     C 7755   7.219   5.393   8.897  0.2438 -0.7860  0.2956
  817MOL0    Cl 7756   7.273   5.283   8.760  0.0055 -0.2907  0.1628
  817MOL0     C 7757   6.592   5.473   9.851  0.2098 -0.3019 -0.2162
  817MOL0     C 7758   6.571   5.515   9.983  0.2466  0.3411 -0.2658
  817MOL0     O 7759   6.285   5.587  10.166 -0.6926 -0.1066 -0.0910
  817MOL0     C 7760   6.273   5.693  10.424  0.2273  0.4967  0.2380
  817MOL0     C 7761   6.282   5.730  10.557 -0.4110  0.2965  0.1136
  817MOL0     N 7762   6.068   6.280  11.087 -0.8726  0.5606  0.3784
  817MOL0     N 7763   5.977   6.358  11.027  0.3130 -0.3245 -0.3060
  817MOL0     C 7764   5.931   6.812   9.890  0.1733  0.4219 -0.9466
  817MOL0     C 7765   6.012   6.880   9.801  0.0679  0.3947 -0.3244
  817MOL0     C 7766   6.144   7.217   9.539  0.1159  0.0063  0.3794
  817MOL0     C 7767   6.172   7.214   9.399 -0.6941 -0.1577  0.2199
  817MOL0     C 7768   6.222   7.324   9.333  0.3348 -0.3974 -0.5579
  817MOL0     C 7769   6.217   7.451   9.402  0.8870 -0.1141 -0.0536
  817MOL0     O 7770   6.242   7.564   9.320  0.8376  0.3970  0.1937
  817MOL0     C 7771   6.126   7.631   9.263  0.0195  0.2395 -0.2974
  817MOL0     C 7772   6.056   7.707   9.378 -0.6184 -0.1586  0.4179
  817MOL0     C 7773   6.135   7.835   9.409  0.5671 -0.5424 -0.0950
  817MOL0     C 7774   6.079   7.923   9.533  0.7084  0.3340 -0.8919
  817MOL0     C 7775   6.101   7.836   9.648 -0.4425  0.0676 -0.4515
  817MOL0     C 7776   6.115   7.778   9.755 -0.3276 -0.3119  0.7146
  817MOL0     C 7777   6.191   7.460   9.537 -0.8061  0.5995  0.4103
  817MOL0     C 7778   6.166   7.342   9.609 -0.8677  0.2904 -0.9420
  817MOL0     H 7779   5.988   7.187   9.935  0.1440  0.6568 -2.7525
  817MOL0     H 7780   5.873   7.068  10.110 -1.3486 -0.9602  0.1259
  817MOL0     H 7781   5.619   6.885  10.122 -1.4340 -3.5024  0.7611
  817MOL0     H 7782   5.751   6.950  10.225  0.1558  0.5684 -1.1008
  817MOL0     H 7783   5.602   6.678  10.212 -3.2174 -0.1035  1.8293
  817MOL0     H 7784   5.577   6.810  10.330 -3.0429 -2.8127 -0.7277
  817MOL0     H 7785   5.818   6.618  10.304  0.3799  2.4328 -1.6330
  817MOL0     H 7786   5.695   6.642  10.439  0.6329  0.2168  0.9197
  817MOL0     H 7787   5.922   6.818  10.373 -1.6947  1.4043 -0.4676
  817MOL0     H 7788   5.794   6.857  10.490  0.4246  1.0188 -0.6356
  817MOL0     H 7789   5.985   6.778  10.589 -2.7900  3.1544 -0.4555
  817MOL0     H 7790   6.019   6.656  10.468 -0.1941 -0.2229  2.5074
  817MOL0     H 7791   5.840   6.505  10.544 -3.7615 -0.8985  3.4579
  817MOL0     H 7792   5.797   6.622  10.661  0.5161 -0.4059  0.7385
  817MOL0     H 7793   6.057   6.462  10.643  0.3025 -0.1994 -0.5251
  817MOL0     H 7794   6.045   6.575  10.747  1.1856 -1.3275 -0.5415
  817MOL0     H 7795   5.869   6.335  10.729  1.5605 -1.7525 -0.7735
  817MOL0     H 7796   5.823   6.471  10.849  1.6737  2.0801 -0.0091
  817MOL0     H 7797   6.167   6.266  10.780  1.8983 -0.0224  0.6282
  817MOL0     H 7798   6.304   6.133  11.116 -0.2406  0.2246 -1.3128
  817MOL0     H 7799   6.387   6.236  11.011  0.8034  0.6242 -1.8557
  817MOL0     H 7800   6.321   6.119  10.823 -4.4823  0.5485  0.5514
  817MOL0     H 7801   6.237   5.984  10.909  0.5995 -0.8810  0.4410
  817MOL0     H 7802   6.539   6.037  10.956  0.4593 -1.6260  0.9899
  817MOL0     H 7803   6.447   5.904  11.011  3.4219 -1.6598 -0.5254
  817MOL0     H 7804   6.568   5.858  10.793 -1.2672 -0.3554 -3.8163
  817MOL0     H 7805   6.510   6.006  10.730  1.4308 -0.3627 -0.8288
  817MOL0     H 7806   6.567   5.896  10.560 -0.8684  0.5712  0.1928
  817MOL0     H 7807   6.572   5.845  10.330  0.9624  4.0846  3.5567
  817MOL0     H 7808   6.416   5.808   9.923 -0.3702  0.5854  1.6978
  817MOL0     H 7809   6.446   5.714   9.680 -1.3108 -2.2577 -0.2468
  817MOL0     H 7810   6.620   5.352   9.534  1.2096 -0.6343  1.3486
  817MOL0     H 7811   6.745   5.447   9.620  1.8517 -1.4876 -1.8923
  817MOL0     H 7812   6.770   5.604   9.445 -2.4123  0.9970  1.9770
  817MOL0     H 7813   6.626   5.561   9.356  1.4927  0.0488 -0.7792
  817MOL0     H 7814   6.719   5.348   9.283  2.6897 -1.7874 -1.4005
  817MOL0     H 7815   6.852   5.361   9.396 -1.5150 -1.8934 -1.0017
  817MOL0     H 7816   6.825   5.593   9.197 -0.2097 -0.0494  1.9820
  817MOL0     H 7817   6.954   5.545   9.285 -1.3007  0.8902  2.4432
  817MOL0     H 7818   6.832   5.382   9.055 -0.2827  1.1368  0.1614
  817MOL0     H 7819   6.961   5.309   9.167  0.3874 -0.0897 -1.1725
  817MOL0     H 7820   7.101   5.506   9.094 -0.9689  2.9283 -0.4908
  817MOL0     H 7821   6.968   5.549   8.993  0.8541 -0.5452 -0.4600
  817MOL0     H 7822   7.064   5.254   8.962  0.2316  1.6928  3.8852
  817MOL0     H 7823   7.008   5.361   8.846  2.5035  0.6335 -2.0789
  817MOL0     H 7824   7.280   5.390   8.988  1.0258 -4.0936 -0.2342
  817MOL0     H 7825   7.220   5.492   8.851  1.0247 -1.8519 -2.1102
  817MOL0     H 7826   6.622   5.373   9.821 -0.2046 -0.7235  0.7447
  817MOL0     H 7827   6.597   5.458  10.071 -0.1986  0.1854 -0.2292
  817MOL0     H 7828   6.194   5.636  10.376  1.4175  0.5398 -1.9296
  817MOL0     H 7829   6.209   5.696  10.630 -2.0831 -0.5838 -1.8657
  817MOL0     H 7830   5.919   6.705   9.884 -0.4958  0.4068  0.3833
  817MOL0     H 7831   6.063   6.823   9.724 -0.1202 -1.5988  0.9619
  817MOL0     H 7832   6.166   7.121   9.344 -2.1099 -0.5810  1.0251
  817MOL0     H 7833   6.227   7.309   9.226  1.0112  0.7291 -0.7010
  817MOL0     H 7834   6.057   7.556   9.223 -1.6062  1.9206 -0.7663
  817MOL0     H 7835   6.164   7.709   9.196  2.6721 -0.5767  0.1528
  817MOL0     H 7836   5.956   7.746   9.354 -0.3231 -1.5149 -3.9009
  817MOL0     H 7837   6.058   7.651   9.472  2.1029 -0.4415  0.2621
  817MOL0     H 7838   6.131   7.896   9.319 -0.7834  1.3251  1.1645
  817MOL0     H 7839   6.239   7.807   9.430  1.0727  0.1746 -1.4872
  817MOL0     H 7840   6.129   8.017   9.556  2.1633 -0.9621  1.6971
  817MOL0     H 7841   5.978   7.964   9.522  1.7486  2.7859 -2.0204
  817MOL0     H 7842   6.117   7.721   9.846 -1.1134 -2.0099 -0.2832
  817MOL0     H 7843   6.198   7.550   9.596  3.1809  1.0466 -0.4419
  817MOL0     H 7844   6.167   7.348   9.718  1.6125 -2.0357 -0.7376
  818MOL0     O 7845   1.862  10.933   8.847 -0.6492  0.0019 -0.5408
  818MOL0     C 7846   1.770  10.952   8.773  0.3357  0.0008 -0.0560
  818MOL0     O 7847   1.762  10.898   8.647 -0.1130 -0.1561 -0.3820
  818MOL0     C 7848   1.857  10.812   8.595 -0.4212  0.8994  0.0034
  818MOL0     C 7849   1.805  10.712   8.506 -0.5191 -0.4546  0.3713
  818MOL0     C 7850   1.887  10.619   8.443 -0.0428  0.0595 -0.7321
  818MOL0     C 7851   2.022  10.624   8.467 -0.2363  1.2948  0.2671
  818MOL0     O 7852   2.090  10.524   8.402 -0.2473  0.0409 -0.0270
  818MOL0     C 7853   2.215  10.493   8.464 -0.8946  0.8325 -0.7137
  818MOL0     C 7854   2.289  10.383   8.379 -0.9030 -0.5616  1.1032
  818MOL0     C 7855   2.435  10.383   8.414  0.1508 -0.2625  0.1197
  818MOL0     C 7856   2.504  10.256   8.369  0.3918  0.2160  0.5838
  818MOL0     C 7857   2.645  10.278   8.394 -0.7445  1.0410 -0.1362
  818MOL0     C 7858   2.717  10.139   8.411 -1.2296 -1.0114 -0.3946
  818MOL0     C 7859   2.713  10.064   8.549 -0.5782 -0.2325  0.1240
  818MOL0     C 7860   2.772   9.920   8.530 -0.2650  0.9332  1.1924
  818MOL0     N 7861   2.915   9.919   8.517 -0.2735  0.3134  0.3009
  818MOL0     C 7862   3.004   9.924   8.610  0.4310  0.0886 -0.8945
  818MOL0     C 7863   3.120   9.866   8.562  0.3859  0.4049 -1.3481
  818MOL0     C 7864   3.255   9.852   8.635  0.6803 -0.3814 -0.2650
  818MOL0     C 7865   3.376   9.889   8.548  0.2769 -0.2597 -0.2611
  818MOL0     C 7866   3.506   9.865   8.639  0.7679 -0.6834 -0.1159
  818MOL0     C 7867   3.633   9.859   8.567 -0.0016  0.0674  0.4656
  818MOL0     O 7868   3.751   9.855   8.653  0.8310  0.4457 -0.5466
  818MOL0     C 7869   3.828   9.747   8.647  0.7977 -0.0098  0.6722
  818MOL0     C 7870   3.935   9.736   8.565  0.0740 -0.1623 -1.0196
  818MOL0     C 7871   4.027   9.635   8.585 -0.4709 -0.3796 -0.2451
  818MOL0     C 7872   4.016   9.539   8.687 -0.3778 -0.4012  0.0251
  818MOL0     C 7873   4.110   9.429   8.702 -0.6471 -0.3078 -0.1537
  818MOL0     O 7874   4.082   9.322   8.786  0.1885  0.2870  0.2255
  818MOL0     C 7875   4.187   9.241   8.823 -0.6510 -0.1573 -0.6903
  818MOL0     C 7876   4.275   9.184   8.738 -0.4547 -0.1966  0.5800
  818MOL0     C 7877   4.375   9.103   8.784 -0.3092  0.1545  0.0930
  818MOL0     C 7878   4.410   9.087   8.919  0.9331 -0.3992 -1.1567
  818MOL0     O 7879   4.509   9.010   8.965 -0.4276 -0.0185 -0.5745
  818MOL0     C 7880   4.592   8.928   8.875  0.1582  0.0511  1.3890
  818MOL0     C 7881   4.674   8.837   8.950 -0.7365 -0.3896 -0.7945
  818MOL0     C 7882   4.726   8.714   8.867  0.3422 -0.0310 -0.4846
  818MOL0     C 7883   4.814   8.631   8.966  0.4439 -0.0816  0.3258
  818MOL0     C 7884   4.903   8.546   8.881 -0.3622 -0.4524 -0.5711
  818MOL0     C 7885   4.994   8.463   8.966  0.2515 -0.1416 -0.8984
  818MOL0     C 7886   5.097   8.401   8.875 -0.9309  0.6949  0.4805
  818MOL0     C 7887   5.201   8.304   8.942 -0.8572  0.7351  0.1084
  818MOL0    Cl 7888   5.188   8.129   8.889  0.1506  0.1707 -0.3017
  818MOL0     C 7889   4.310   9.154   9.006 -0.2289  0.9475 -1.0518
  818MOL0     C 7890   4.207   9.227   8.960  0.8521 -0.4364 -0.1266
  818MOL0     O 7891   4.220   9.443   8.647  0.6927 -0.2445  0.1333
  818MOL0     C 7892   3.901   9.544   8.764 -0.3387  0.9641  1.2461
  818MOL0     C 7893   3.806   9.644   8.741 -0.3651  0.4262 -0.2769
  818MOL0     N 7894   3.099   9.829   8.434 -0.1517  0.1608  0.2852
  818MOL0     N 7895   2.970   9.853   8.414  0.5021 -0.3486  0.2385
  818MOL0     C 7896   2.069  10.713   8.571  0.4369 -0.3554 -0.0250
  818MOL0     C 7897   1.986  10.806   8.636 -0.3215 -0.2140  0.4395
  818MOL0     C 7898   1.675  11.046   8.821  0.3557 -0.0308 -0.1398
  818MOL0     C 7899   1.571  11.084   8.730 -0.4909 -0.4057  0.3925
  818MOL0     C 7900   1.479  11.189   8.770 -0.0617 -0.4118  0.6788
  818MOL0     C 7901   1.489  11.250   8.898 -0.1624  0.4678  0.2593
  818MOL0     O 7902   1.408  11.351   8.939 -0.3932  0.1069 -0.0238
  818MOL0     C 7903   1.415  11.407   9.071  0.2438  0.5543 -0.7789
  818MOL0     C 7904   1.311  11.517   9.095  0.8117 -0.3991 -0.7648
  818MOL0     C 7905   1.165  11.462   9.057 -0.5892  0.4463 -0.7019
  818MOL0     C 7906   1.097  11.573   8.975  0.7885  0.8664 -0.1671
  818MOL0     C 7907   1.077  11.703   9.048 -0.0279 -0.1816  0.4430
  818MOL0     C 7908   1.056  11.805   9.109 -0.3373  0.1307  0.1772
  818MOL0     C 7909   1.577  11.185   8.987  0.1202 -0.4684 -0.4585
  818MOL0     C 7910   1.669  11.087   8.948  0.4409 -1.2019  0.5386
  818MOL0     H 7911   1.697  10.719   8.498 -0.6978  1.9935  3.1825
  818MOL0     H 7912   1.841  10.534   8.396  0.3207 -0.2677 -0.5042
  818MOL0     H 7913   2.196  10.459   8.566 -2.2367 -1.6686 -1.6933
  818MOL0     H 7914   2.277  10.581   8.481 -0.5080 -0.0906  3.9958
  818MOL0     H 7915   2.280  10.407   8.272  1.1694 -2.2536  0.4835
  818MOL0     H 7916   2.251  10.281   8.380 -1.6196 -0.3475 -0.4945
  818MOL0     H 7917   2.460  10.385   8.520  3.1283  0.1530 -0.5179
  818MOL0     H 7918   2.472  10.474   8.368 -1.2149  0.6120  0.6792
  818MOL0     H 7919   2.461  10.167   8.415 -0.6212  0.8091  0.8036
  818MOL0     H 7920   2.493  10.242   8.261  3.5827  1.4378 -0.0234
  818MOL0     H 7921   2.656  10.333   8.489  2.9975 -3.4069  2.4290
  818MOL0     H 7922   2.689  10.331   8.309  0.4655  0.2254 -0.0446
  818MOL0     H 7923   2.818  10.179   8.395 -1.0719 -0.3192  2.0145
  818MOL0     H 7924   2.679  10.077   8.329 -2.5193 -0.1962 -0.4482
  818MOL0     H 7925   2.777  10.104   8.628  0.3220 -2.8948  0.8657
  818MOL0     H 7926   2.613  10.056   8.594  0.2743 -0.6268  2.0523
  818MOL0     H 7927   2.727   9.865   8.446 -0.8039  1.0941  1.3753
  818MOL0     H 7928   2.748   9.868   8.623 -2.3800  2.3263  1.4900
  818MOL0     H 7929   2.992   9.983   8.700  1.7977 -1.4396  0.3514
  818MOL0     H 7930   3.250   9.750   8.674 -3.6550 -1.4654 -2.9539
  818MOL0     H 7931   3.264   9.929   8.713  1.7343  0.7092 -1.4090
  818MOL0     H 7932   3.360   9.989   8.506 -1.2262 -1.4222 -2.6936
  818MOL0     H 7933   3.377   9.821   8.461  1.3873  1.1132 -1.3732
  818MOL0     H 7934   3.500   9.955   8.702  2.4038  0.3221 -1.3201
  818MOL0     H 7935   3.497   9.786   8.715 -0.5624 -0.3854  0.0645
  818MOL0     H 7936   3.647   9.954   8.513  3.3332 -0.8025 -0.4320
  818MOL0     H 7937   3.632   9.779   8.493 -0.2534 -0.2029  0.7620
  818MOL0     H 7938   3.948   9.804   8.481 -0.3211  1.7825  0.4107
  818MOL0     H 7939   4.104   9.625   8.509 -0.1392  3.1464 -0.5647
  818MOL0     H 7940   4.265   9.196   8.630 -1.5922 -1.0498  0.5611
  818MOL0     H 7941   4.438   9.061   8.707  2.4051  1.6398  1.3746
  818MOL0     H 7942   4.649   8.992   8.807 -3.0749  0.6843 -1.0019
  818MOL0     H 7943   4.519   8.894   8.801 -0.7643  1.3431  1.6761
  818MOL0     H 7944   4.622   8.784   9.030  0.6026 -0.8718 -0.2073
  818MOL0     H 7945   4.761   8.889   8.991 -0.9219 -0.4879 -0.2641
  818MOL0     H 7946   4.778   8.756   8.780 -0.8650  0.2425 -1.0886
  818MOL0     H 7947   4.644   8.648   8.838  0.6857 -2.6911  3.6617
  818MOL0     H 7948   4.886   8.703   9.006 -0.8940  1.6847 -0.2953
  818MOL0     H 7949   4.744   8.584   9.036 -3.1629  3.7917 -0.2996
  818MOL0     H 7950   4.958   8.612   8.814  2.8992  0.3341  2.5726
  818MOL0     H 7951   4.847   8.475   8.819 -0.5709  0.6458 -1.6810
  818MOL0     H 7952   4.939   8.385   9.021  0.3223  0.5497  0.1712
  818MOL0     H 7953   5.050   8.521   9.040 -2.3000  1.4264 -0.0642
  818MOL0     H 7954   5.047   8.332   8.806  1.9792  0.5618 -1.7381
  818MOL0     H 7955   5.154   8.477   8.820  2.0904  0.6086  3.2360
  818MOL0     H 7956   5.181   8.306   9.050  0.2347 -1.0934  0.3909
  818MOL0     H 7957   5.298   8.343   8.913  0.8257 -1.9668  1.6129
  818MOL0     H 7958   4.316   9.144   9.114 -0.6607 -0.3542 -1.1330
  818MOL0     H 7959   4.140   9.272   9.033 -2.5255 -2.9259 -1.4354
  818MOL0     H 7960   3.871   9.458   8.824  0.1005 -1.6774 -2.0576
  818MOL0     H 7961   3.712   9.638   8.797 -0.9575 -0.8385 -1.3587
  818MOL0     H 7962   2.170  10.717   8.612 -0.5166  0.0018  2.4893
  818MOL0     H 7963   2.030  10.874   8.708 -0.9406  0.7939 -0.1145
  818MOL0     H 7964   1.573  11.043   8.630  0.6721 -0.1600  0.2924
  818MOL0     H 7965   1.404  11.235   8.705 -0.5889  1.9970  2.8260
  818MOL0     H 7966   1.517  11.440   9.091  1.0956 -0.6120 -2.8165
  818MOL0     H 7967   1.385  11.327   9.140 -0.2354 -2.3074 -4.0313
  818MOL0     H 7968   1.303  11.559   9.196  0.7226 -1.9547 -0.1036
  818MOL0     H 7969   1.335  11.609   9.041  0.8217 -0.2492 -0.5063
  818MOL0     H 7970   1.103  11.437   9.143 -3.0258  1.8862 -1.9422
  818MOL0     H 7971   1.172  11.372   8.996 -3.6986  1.0293 -2.0864
  818MOL0     H 7972   1.152  11.588   8.882  1.2197 -1.2032 -0.2838
  818MOL0     H 7973   0.997  11.536   8.954  0.8133  0.7867 -0.1453
  818MOL0     H 7974   1.033  11.895   9.161  0.5126  1.7546 -2.0847
  818MOL0     H 7975   1.571  11.203   9.094 -2.7386 -3.4935  0.0717
  818MOL0     H 7976   1.739  11.046   9.021  3.0512 -0.8448 -1.6011
  819MOL0     O 7977   8.863   5.985   4.694 -0.1375  0.6462 -0.5307
  819MOL0     C 7978   8.828   6.065   4.778 -0.7180  0.5332 -0.0825
  819MOL0     O 7979   8.714   6.040   4.861 -0.1941  0.3426  0.1354
  819MOL0     C 7980   8.632   5.931   4.820  0.2954  0.2191 -0.7380
  819MOL0     C 7981   8.629   5.810   4.893  0.8130  0.0317 -1.1397
  819MOL0     C 7982   8.549   5.695   4.852 -0.0135 -1.1514  0.0823
  819MOL0     C 7983   8.508   5.696   4.717  0.3320 -0.2109  1.2823
  819MOL0     O 7984   8.440   5.604   4.640  0.2649 -0.2113 -0.0944
  819MOL0     C 7985   8.472   5.457   4.668  0.3957 -0.7952  0.1153
  819MOL0     C 7986   8.371   5.391   4.562  0.4180  0.2463 -0.5921
  819MOL0     C 7987   8.410   5.441   4.424  0.1707 -0.3206  0.4356
  819MOL0     C 7988   8.297   5.400   4.328 -0.0821 -0.1605  0.8205
  819MOL0     C 7989   8.354   5.395   4.181  0.1495  0.6778  0.6968
  819MOL0     C 7990   8.258   5.403   4.070 -0.2878 -0.1474 -0.1577
  819MOL0     C 7991   8.322   5.362   3.947  0.5947  0.1821  0.0656
  819MOL0     C 7992   8.433   5.464   3.893 -0.3170  0.3307  0.0884
  819MOL0     N 7993   8.395   5.607   3.897  0.3950  0.4353 -0.3644
  819MOL0     C 7994   8.311   5.660   3.806  0.2289  0.4059  0.7238
  819MOL0     C 7995   8.273   5.781   3.853  0.6571 -1.1361  0.3335
  819MOL0     C 7996   8.154   5.864   3.811 -0.2870  0.3164 -0.3054
  819MOL0     C 7997   8.168   5.945   3.691  0.0193 -0.1493  0.2102
  819MOL0     C 7998   8.158   5.852   3.569  0.0179  0.8140  0.3259
  819MOL0     C 7999   8.146   5.933   3.438  0.5270 -0.3349  0.1704
  819MOL0     O 8000   8.269   6.019   3.421  0.3196  0.3715  0.5799
  819MOL0     C 8001   8.223   6.143   3.375 -0.8215 -0.5141  0.5098
  819MOL0     C 8002   8.229   6.260   3.455 -0.4421  0.1874 -0.4829
  819MOL0     C 8003   8.195   6.386   3.405  0.6830  0.1793 -0.7524
  819MOL0     C 8004   8.141   6.398   3.271 -1.0830 -0.0490 -1.2250
  819MOL0     C 8005   8.103   6.525   3.222  0.1954  0.3867  0.1394
  819MOL0     O 8006   8.060   6.532   3.097 -0.1885  0.4897 -0.2250
  819MOL0     C 8007   8.019   6.653   3.041  0.5451  0.1299 -0.7862
  819MOL0     C 8008   8.097   6.767   3.029 -0.3561  0.4097  0.0735
  819MOL0     C 8009   8.050   6.885   2.965 -0.6138  0.0718  0.0688
  819MOL0     C 8010   7.921   6.897   2.913 -0.1405 -0.3460  0.1360
  819MOL0     O 8011   7.878   7.012   2.858  0.6583  0.7200 -0.5551
  819MOL0     C 8012   7.935   7.129   2.868 -0.8265 -0.5744  0.4651
  819MOL0     C 8013   7.840   7.237   2.802  0.6539  0.2942 -0.8858
  819MOL0     C 8014   7.923   7.309   2.702  0.0537 -0.2446  1.4216
  819MOL0     C 8015   7.837   7.405   2.617 -1.0618  0.0273 -0.0437
  819MOL0     C 8016   7.761   7.333   2.506  0.4645 -0.4403  0.1378
  819MOL0     C 8017   7.684   7.436   2.426  0.6271  0.3967  0.0367
  819MOL0     C 8018   7.615   7.366   2.306 -0.2702  0.6506 -0.7410
  819MOL0     C 8019   7.515   7.256   2.339 -0.1857 -0.0315 -1.0114
  819MOL0    Cl 8020   7.482   7.150   2.203 -0.0346  0.0544  0.1829
  819MOL0     C 8021   7.846   6.781   2.924 -1.8827  0.1770 -0.5213
  819MOL0     C 8022   7.877   6.675   3.009 -0.2935  0.8384  0.2557
  819MOL0     O 8023   8.115   6.621   3.295 -0.0736  0.2422 -0.2602
  819MOL0     C 8024   8.130   6.279   3.198 -0.7702 -0.4022  0.4250
  819MOL0     C 8025   8.173   6.148   3.246  0.1344 -0.3990  0.0278
  819MOL0     N 8026   8.327   5.799   3.973 -0.0406 -0.0177 -0.0391
  819MOL0     N 8027   8.417   5.698   3.995 -0.9026  0.6193 -0.4643
  819MOL0     C 8028   8.503   5.820   4.649 -0.8368 -1.0331 -0.3595
  819MOL0     C 8029   8.558   5.934   4.706  0.2058 -0.0616 -0.7904
  819MOL0     C 8030   8.908   6.185   4.785  0.1966  0.0109  0.9240
  819MOL0     C 8031   9.017   6.210   4.689  0.7913 -0.4413 -0.0210
  819MOL0     C 8032   9.098   6.327   4.707  0.5290 -1.3475  1.3397
  819MOL0     C 8033   9.062   6.438   4.781  0.5195  0.3381  0.2095
  819MOL0     O 8034   9.137   6.543   4.781 -0.0525  0.4023  0.7152
  819MOL0     C 8035   9.129   6.641   4.881  1.3656 -0.5844  0.4889
  819MOL0     C 8036   9.222   6.769   4.851  0.4531  0.1866 -0.4216
  819MOL0     C 8037   9.220   6.882   4.950  0.6513 -0.5178  0.4063
  819MOL0     C 8038   9.216   6.847   5.100 -1.7807 -0.7590 -1.3934
  819MOL0     C 8039   9.088   6.807   5.155 -0.3468  0.0432  1.0565
  819MOL0     C 8040   8.974   6.774   5.193  0.9920 -0.7371 -0.3488
  819MOL0     C 8041   8.958   6.409   4.867  0.9956  0.3449 -0.1461
  819MOL0     C 8042   8.883   6.288   4.877 -0.3178 -0.0941  1.0885
  819MOL0     H 8043   8.686   5.787   4.982 -0.8877 -0.9963 -0.2589
  819MOL0     H 8044   8.553   5.609   4.918  0.3694 -0.6820  0.6911
  819MOL0     H 8045   8.452   5.427   4.771 -0.9579 -1.2806 -0.2736
  819MOL0     H 8046   8.576   5.441   4.638  0.8090  2.9560 -1.0768
  819MOL0     H 8047   8.267   5.417   4.585 -1.1324 -1.3005 -4.7910
  819MOL0     H 8048   8.371   5.281   4.556 -1.0235  0.2529 -1.2004
  819MOL0     H 8049   8.508   5.403   4.393  0.1032 -1.4071  1.4944
  819MOL0     H 8050   8.414   5.550   4.414 -3.4021 -0.2191 -1.5166
  819MOL0     H 8051   8.256   5.301   4.352 -1.0878  0.4385  1.6355
  819MOL0     H 8052   8.212   5.469   4.327 -1.1754 -1.4048 -1.6131
  819MOL0     H 8053   8.424   5.312   4.170  2.6989  3.0148 -2.6337
  819MOL0     H 8054   8.426   5.477   4.169  0.2767  0.1734 -2.9160
  819MOL0     H 8055   8.208   5.498   4.050 -2.1767 -0.7397  1.4791
  819MOL0     H 8056   8.171   5.343   4.098 -0.7053 -0.6092 -2.2817
  819MOL0     H 8057   8.370   5.265   3.961 -0.5328  0.0112  3.7445
  819MOL0     H 8058   8.244   5.341   3.872  2.1463 -2.1336 -1.0120
  819MOL0     H 8059   8.469   5.434   3.795  1.7919  1.0692  0.5959
  819MOL0     H 8060   8.528   5.452   3.945 -0.2460  2.0501  0.3984
  819MOL0     H 8061   8.264   5.603   3.727  3.0706 -3.3486  1.4346
  819MOL0     H 8062   8.134   5.929   3.896 -0.4665  0.5300 -0.5078
  819MOL0     H 8063   8.076   5.788   3.808 -0.4135  0.4316  0.0974
  819MOL0     H 8064   8.265   5.994   3.680 -0.5505  0.5275 -2.6050
  819MOL0     H 8065   8.091   6.023   3.693  2.3900  2.3216  1.4219
  819MOL0     H 8066   8.247   5.788   3.572  1.0173  2.1199 -0.4177
  819MOL0     H 8067   8.070   5.788   3.571 -0.4707  1.2183 -2.7231
  819MOL0     H 8068   8.056   5.995   3.446  1.2912  0.6952  1.1254
  819MOL0     H 8069   8.161   5.879   3.344 -0.7602 -0.6376  0.1219
  819MOL0     H 8070   8.268   6.239   3.554  0.8815  0.4318 -0.9423
  819MOL0     H 8071   8.209   6.472   3.470  1.4675 -1.4613  1.3579
  819MOL0     H 8072   8.192   6.781   3.081 -0.7893  2.5941  0.4042
  819MOL0     H 8073   8.121   6.966   2.972 -1.0336  0.5968 -1.4427
  819MOL0     H 8074   8.032   7.129   2.818  0.5379  1.2611  2.9086
  819MOL0     H 8075   7.952   7.145   2.975 -1.8278  2.3799  0.2584
  819MOL0     H 8076   7.797   7.304   2.877  0.4993 -1.8711  1.0656
  819MOL0     H 8077   7.746   7.192   2.769 -0.5473  2.9308 -1.3307
  819MOL0     H 8078   7.947   7.232   2.629 -1.9931 -1.4542  1.9409
  819MOL0     H 8079   8.013   7.358   2.740  0.4134  0.1751  0.0800
  819MOL0     H 8080   7.778   7.461   2.689  3.6190  2.7930  2.1405
  819MOL0     H 8081   7.895   7.485   2.570 -1.1350 -0.3674 -0.8363
  819MOL0     H 8082   7.684   7.270   2.551 -0.4827 -2.4956 -3.9054
  819MOL0     H 8083   7.837   7.284   2.445  2.2540  3.0927 -0.7857
  819MOL0     H 8084   7.757   7.501   2.377  3.2295 -1.9912  0.4101
  819MOL0     H 8085   7.611   7.495   2.482  0.3804 -2.0442  2.5142
  819MOL0     H 8086   7.558   7.443   2.253 -3.9626 -0.5280  1.1561
  819MOL0     H 8087   7.689   7.325   2.237  2.1449  1.7373  1.0150
  819MOL0     H 8088   7.427   7.301   2.388  0.0703 -0.4934 -0.1246
  819MOL0     H 8089   7.554   7.188   2.414 -0.2797  4.6747  3.9261
  819MOL0     H 8090   7.749   6.780   2.875 -0.9029 -0.5412 -2.5396
  819MOL0     H 8091   7.815   6.589   3.034  1.8089 -1.3885 -1.6518
  819MOL0     H 8092   8.074   6.291   3.106 -1.9536 -0.5506  1.1109
  819MOL0     H 8093   8.167   6.059   3.185 -1.4009  0.9713 -1.9218
  819MOL0     H 8094   8.445   5.837   4.559  1.7559  0.0949 -1.8949
  819MOL0     H 8095   8.560   6.024   4.644  0.8013  0.1760 -0.4451
  819MOL0     H 8096   9.038   6.139   4.610 -0.5297 -0.2809 -0.5401
  819MOL0     H 8097   9.184   6.331   4.640 -2.4981 -1.4145 -2.9564
  819MOL0     H 8098   9.141   6.597   4.980  0.0297  0.3007  1.0763
  819MOL0     H 8099   9.029   6.686   4.882  1.8327  0.4735  0.2947
  819MOL0     H 8100   9.324   6.732   4.838  0.1139 -0.9784  0.1368
  819MOL0     H 8101   9.180   6.806   4.757 -0.7004  1.7955  0.6704
  819MOL0     H 8102   9.128   6.935   4.925  2.5017  2.2610 -1.0272
  819MOL0     H 8103   9.302   6.950   4.923 -0.8487  1.2415  0.0724
  819MOL0     H 8104   9.290   6.767   5.116 -1.5850 -0.0315  2.0600
  819MOL0     H 8105   9.247   6.933   5.159 -1.8981 -0.5085 -1.6908
  819MOL0     H 8106   8.878   6.732   5.218  1.6663 -2.2115 -0.1210
  819MOL0     H 8107   8.935   6.484   4.942 -1.8712  0.9587 -1.4896
  819MOL0     H 8108   8.809   6.277   4.955  1.4006 -1.7410  2.5927
  820MOL0     O 8109   4.585   4.398   9.200 -0.2972  0.6958  0.8125
  820MOL0     C 8110   4.482   4.338   9.170  0.2326 -0.3917  1.1383
  820MOL0     O 8111   4.419   4.242   9.248 -0.1065 -0.5917 -0.3886
  820MOL0     C 8112   4.482   4.190   9.357 -0.3138  0.5574 -0.0444
  820MOL0     C 8113   4.441   4.224   9.483  0.6538  0.4855 -0.0643
  820MOL0     C 8114   4.511   4.179   9.592 -0.0358  0.2658 -0.5763
  820MOL0     C 8115   4.627   4.096   9.579 -0.2987 -0.4271 -0.3847
  820MOL0     O 8116   4.700   4.062   9.691  0.3751 -0.3084  0.1714
  820MOL0     C 8117   4.796   4.158   9.722 -1.0792 -0.4971 -0.1448
  820MOL0     C 8118   4.937   4.124   9.665  0.3789  0.3344 -0.6021
  820MOL0     C 8119   4.972   3.980   9.682  1.0516  0.8676  0.2753
  820MOL0     C 8120   5.105   3.947   9.627 -0.0146 -0.0475 -0.2392
  820MOL0     C 8121   5.212   3.957   9.723 -0.3020  0.9618 -0.8010
  820MOL0     C 8122   5.359   3.920   9.677 -0.1019 -0.2057  0.0584
  820MOL0     C 8123   5.384   3.795   9.604 -0.3719  0.0933  0.2859
  820MOL0     C 8124   5.507   3.794   9.511  1.2802  0.3610 -0.0994
  820MOL0     N 8125   5.560   3.655   9.496 -0.5946  0.0897  0.0289
  820MOL0     C 8126   5.676   3.631   9.419 -0.0479  0.2455 -0.7217
  820MOL0     C 8127   5.694   3.498   9.429  0.5181 -0.8598 -0.0368
  820MOL0     C 8128   5.807   3.416   9.372 -0.3679 -0.5218  1.1640
  820MOL0     C 8129   5.764   3.352   9.238  0.0109 -0.2393  0.6270
  820MOL0     C 8130   5.870   3.253   9.197 -0.1222  0.9084  0.3605
  820MOL0     C 8131   5.985   3.330   9.132 -0.4602  0.2597  0.5039
  820MOL0     O 8132   6.051   3.244   9.035  0.6813 -0.5012 -0.3939
  820MOL0     C 8133   6.169   3.287   8.973 -1.1100 -1.5754  0.3140
  820MOL0     C 8134   6.207   3.422   8.969  0.3726  0.4185  0.0784
  820MOL0     C 8135   6.330   3.456   8.903  0.3127 -0.2192 -0.1738
  820MOL0     C 8136   6.401   3.368   8.824  0.3647  1.1885 -0.2499
  820MOL0     C 8137   6.511   3.403   8.731 -0.6584  0.6704  0.0173
  820MOL0     O 8138   6.566   3.532   8.753  0.7421  0.8702 -0.3710
  820MOL0     C 8139   6.683   3.560   8.693 -0.9689 -0.6705 -0.0612
  820MOL0     C 8140   6.785   3.602   8.773  0.7538 -0.7231  0.3454
  820MOL0     C 8141   6.908   3.647   8.710  0.7919 -0.4915 -0.5665
  820MOL0     C 8142   6.907   3.689   8.582 -0.5681 -0.5380 -0.0462
  820MOL0     O 8143   7.014   3.759   8.542 -0.3052  0.9649 -0.0366
  820MOL0     C 8144   7.026   3.849   8.428  0.0798 -1.4538  0.3108
  820MOL0     C 8145   6.952   3.982   8.431 -0.1132  0.0859 -0.0744
  820MOL0     C 8146   7.026   4.087   8.511 -0.4386 -0.1790  0.4859
  820MOL0     C 8147   6.941   4.203   8.568 -0.1130 -0.1879  0.0100
  820MOL0     C 8148   6.931   4.189   8.719  0.2628  0.0191 -0.0135
  820MOL0     C 8149   6.851   4.301   8.790  0.4654  0.1838  0.9125
  820MOL0     C 8150   6.891   4.299   8.934  0.0886 -0.3366  0.5654
  820MOL0     C 8151   6.814   4.401   9.016  0.1489  0.0653  0.2986
  820MOL0    Cl 8152   6.893   4.550   8.991  0.2381 -0.3059  0.6945
  820MOL0     C 8153   6.801   3.647   8.497  0.0240 -1.0902  0.0688
  820MOL0     C 8154   6.691   3.589   8.557  0.4036  0.6955 -0.4201
  820MOL0     O 8155   6.542   3.329   8.639  0.2883 -0.5926  0.2771
  820MOL0     C 8156   6.352   3.231   8.821 -0.1749 -1.3250  0.2182
  820MOL0     C 8157   6.241   3.197   8.899 -1.2617  0.7520  0.3192
  820MOL0     N 8158   5.595   3.457   9.511 -0.2694 -0.6022 -0.7035
  820MOL0     N 8159   5.504   3.544   9.543  0.6317 -0.3298  0.2822
  820MOL0     C 8160   4.665   4.065   9.449  0.5430  1.1628  0.6617
  820MOL0     C 8161   4.602   4.114   9.333  0.1795 -0.7834 -0.0984
  820MOL0     C 8162   4.414   4.380   9.043 -0.5292 -0.1645 -0.8676
  820MOL0     C 8163   4.433   4.509   8.976 -0.3992  0.3097 -0.9519
  820MOL0     C 8164   4.380   4.538   8.846  1.1409 -0.2682  0.3954
  820MOL0     C 8165   4.290   4.450   8.789 -0.9002  0.0660  0.3549
  820MOL0     O 8166   4.210   4.470   8.683  0.3306  0.3271  0.0764
  820MOL0     C 8167   4.262   4.540   8.565  0.1640  0.6479  0.7964
  820MOL0     C 8168   4.176   4.536   8.440  0.7192  0.0551 -0.0360
  820MOL0     C 8169   4.089   4.404   8.427 -0.4613 -0.1905 -0.1903
  820MOL0     C 8170   4.188   4.294   8.388 -0.7619  0.5598  0.5296
  820MOL0     C 8171   4.142   4.161   8.399  0.4417  0.0549 -0.5733
  820MOL0     C 8172   4.106   4.048   8.393 -1.2917  0.4059  0.0901
  820MOL0     C 8173   4.260   4.331   8.863 -0.1421 -0.3011 -0.5634
  820MOL0     C 8174   4.327   4.292   8.983 -0.6401 -0.2024 -0.9511
  820MOL0     H 8175   4.356   4.289   9.501 -0.9942 -1.1083 -1.6970
  820MOL0     H 8176   4.490   4.208   9.694 -0.6995 -1.3154 -0.2421
  820MOL0     H 8177   4.796   4.159   9.831  1.0462 -1.9265 -0.0833
  820MOL0     H 8178   4.769   4.253   9.675 -1.9864 -0.7303 -0.1218
  820MOL0     H 8179   5.023   4.183   9.698  1.4898 -0.7919 -1.4063
  820MOL0     H 8180   4.919   4.147   9.560  0.4751  0.4942 -0.5823
  820MOL0     H 8181   4.904   3.925   9.617 -0.4758  1.5591  1.2217
  820MOL0     H 8182   4.955   3.935   9.781  1.6122  0.0736  0.0198
  820MOL0     H 8183   5.105   3.843   9.596 -2.3841  0.8937 -3.9498
  820MOL0     H 8184   5.131   4.009   9.541  0.3973  3.0262  1.9200
  820MOL0     H 8185   5.189   3.896   9.810  2.5698  2.4635  1.1643
  820MOL0     H 8186   5.208   4.055   9.771  0.2846  0.9523 -0.7238
  820MOL0     H 8187   5.421   3.923   9.766 -0.1234  2.4995  0.0607
  820MOL0     H 8188   5.399   4.000   9.614  1.7159 -1.3909 -0.3811
  820MOL0     H 8189   5.393   3.716   9.680  0.8374 -1.2859 -1.2256
  820MOL0     H 8190   5.295   3.765   9.548  2.2422 -5.4754 -1.6836
  820MOL0     H 8191   5.583   3.852   9.563  0.8842  0.9350 -0.1554
  820MOL0     H 8192   5.498   3.843   9.413  1.7444 -2.3478 -1.6014
  820MOL0     H 8193   5.740   3.701   9.367  1.3939 -1.4708 -1.3334
  820MOL0     H 8194   5.826   3.340   9.448 -1.9741  0.8355  3.0342
  820MOL0     H 8195   5.895   3.476   9.348 -0.3407 -1.6150 -1.8092
  820MOL0     H 8196   5.733   3.421   9.159 -0.9274 -1.1920  0.1413
  820MOL0     H 8197   5.671   3.295   9.251  0.3734 -1.5694 -2.0954
  820MOL0     H 8198   5.915   3.200   9.282 -1.4361  1.5308  1.4725
  820MOL0     H 8199   5.827   3.186   9.122  0.9603  0.0203  0.4967
  820MOL0     H 8200   6.058   3.364   9.206  0.1547  1.5814 -0.6641
  820MOL0     H 8201   5.949   3.411   9.067  0.8263 -1.3025 -2.3208
  820MOL0     H 8202   6.154   3.488   9.038 -0.1103  0.6147 -0.4750
  820MOL0     H 8203   6.367   3.558   8.909 -1.9960  0.8022 -1.7235
  820MOL0     H 8204   6.783   3.594   8.881  2.9932  0.8251  0.5756
  820MOL0     H 8205   6.997   3.666   8.768  0.6523  2.0526 -1.1000
  820MOL0     H 8206   6.994   3.796   8.338  0.0064 -0.7961 -0.0528
  820MOL0     H 8207   7.125   3.882   8.397  0.0893 -0.9963  0.8154
  820MOL0     H 8208   6.853   3.965   8.477 -0.8679 -1.1394 -2.0247
  820MOL0     H 8209   6.947   4.004   8.324 -0.2310 -3.4891 -0.9277
  820MOL0     H 8210   7.114   4.119   8.453  1.6238 -3.4609  1.5243
  820MOL0     H 8211   7.080   4.038   8.592  0.2803 -1.9997 -1.0170
  820MOL0     H 8212   6.982   4.303   8.547 -1.2676  0.5448  1.0624
  820MOL0     H 8213   6.840   4.205   8.526 -0.2315 -0.2518  0.2896
  820MOL0     H 8214   7.034   4.195   8.757 -0.4107  1.6711  1.7223
  820MOL0     H 8215   6.888   4.093   8.750  2.0678 -0.1801  2.1262
  820MOL0     H 8216   6.745   4.280   8.773 -0.1735  3.1270  0.7282
  820MOL0     H 8217   6.868   4.401   8.749  0.2147 -0.5803 -1.2033
  820MOL0     H 8218   6.875   4.199   8.976  1.2719 -0.5006  0.6470
  820MOL0     H 8219   6.996   4.327   8.941  0.4453 -1.8351  2.0774
  820MOL0     H 8220   6.817   4.377   9.122  2.4548 -1.6285 -0.1025
  820MOL0     H 8221   6.707   4.408   8.990 -0.6338  1.2121  3.3899
  820MOL0     H 8222   6.806   3.650   8.389 -0.6049  0.5174  0.0577
  820MOL0     H 8223   6.593   3.585   8.511  0.1881  0.4853  0.0467
  820MOL0     H 8224   6.392   3.164   8.746 -0.1617 -0.1459 -0.8581
  820MOL0     H 8225   6.201   3.096   8.904  0.3265 -0.1393 -2.4765
  820MOL0     H 8226   4.751   4.002   9.429  0.4921 -0.0687  3.8159
  820MOL0     H 8227   4.633   4.114   9.229  1.1990 -2.7055  0.1550
  820MOL0     H 8228   4.481   4.584   9.038 -1.7410  0.2825  0.1796
  820MOL0     H 8229   4.396   4.634   8.797 -0.2803  0.3345  1.0425
  820MOL0     H 8230   4.351   4.488   8.530 -1.1741  0.1055 -2.1423
  820MOL0     H 8231   4.305   4.638   8.585  6.3362 -1.6735  0.9867
  820MOL0     H 8232   4.105   4.619   8.453  2.3499  1.2913  1.7204
  820MOL0     H 8233   4.235   4.550   8.349  0.6509  1.9093  0.1618
  820MOL0     H 8234   4.012   4.425   8.353 -2.8169  3.5893  2.9692
  820MOL0     H 8235   4.039   4.364   8.516  2.5820 -4.1683  0.0541
  820MOL0     H 8236   4.215   4.307   8.283 -2.1030  0.8923  0.2043
  820MOL0     H 8237   4.277   4.299   8.452 -0.5634  1.5209  0.1871
  820MOL0     H 8238   4.079   3.944   8.394 -0.7622  0.2649  0.0289
  820MOL0     H 8239   4.189   4.259   8.823 -0.4762  1.2182 -2.8670
  820MOL0     H 8240   4.303   4.194   9.023 -1.3207 -0.3824 -1.7698
  821MOL0     O 8241  10.982   5.124   5.106  0.4742 -0.3541 -0.2794
  821MOL0     C 8242  10.943   5.223   5.175 -0.4160  0.0726 -0.1659
  821MOL0     O 8243  10.872   5.216   5.291 -0.3847 -0.2045  0.0497
  821MOL0     C 8244  10.846   5.095   5.347  0.7675 -0.2767  0.1656
  821MOL0     C 8245  10.943   4.999   5.387  0.8970 -0.4382 -0.0194
  821MOL0     C 8246  10.891   4.882   5.444 -1.3896  0.4872  0.7992
  821MOL0     C 8247  10.754   4.861   5.446  0.1272 -0.1245 -0.1174
  821MOL0     O 8248  10.722   4.737   5.489  0.0073  0.2460  0.6049
  821MOL0     C 8249  10.589   4.686   5.471  0.6064 -0.5376  0.0170
  821MOL0     C 8250  10.610   4.533   5.496 -0.4451  0.1641 -0.0621
  821MOL0     C 8251  10.659   4.492   5.642 -0.8660  0.4169  0.0542
  821MOL0     C 8252  10.707   4.344   5.656  0.3869 -0.5449 -0.6831
  821MOL0     C 8253  10.609   4.254   5.740 -0.6517 -0.5219 -0.0064
  821MOL0     C 8254  10.541   4.142   5.657  0.3189  0.2802 -0.5018
  821MOL0     C 8255  10.457   4.044   5.737 -0.0684  0.4667  0.7183
  821MOL0     C 8256  10.305   4.061   5.701 -0.3276  0.2290 -0.4587
  821MOL0     N 8257  10.214   3.996   5.794 -0.2310  0.3350  0.3601
  821MOL0     C 8258  10.151   4.054   5.903  0.2052  0.1353  0.5566
  821MOL0     C 8259  10.083   3.953   5.954  0.0998  0.4864 -0.2665
  821MOL0     C 8260  10.010   3.955   6.081 -0.4735 -0.0882 -0.6663
  821MOL0     C 8261   9.890   4.048   6.081 -0.9909 -0.1583 -0.0353
  821MOL0     C 8262   9.807   4.019   6.206 -0.4644 -0.1771 -0.6289
  821MOL0     C 8263   9.735   4.140   6.260 -0.0917  0.3771  0.7852
  821MOL0     O 8264   9.643   4.182   6.162  0.3340 -0.7371  0.4184
  821MOL0     C 8265   9.543   4.264   6.208  0.5211  0.1066 -0.2742
  821MOL0     C 8266   9.439   4.277   6.123 -0.0619  0.0333  0.1919
  821MOL0     C 8267   9.316   4.342   6.160 -1.0612  0.5883  0.2340
  821MOL0     C 8268   9.312   4.397   6.290 -0.2749 -0.5967  0.3363
  821MOL0     C 8269   9.181   4.454   6.342  1.0520  0.0272 -0.1841
  821MOL0     O 8270   9.189   4.519   6.465  1.1380  0.1532 -0.6882
  821MOL0     C 8271   9.086   4.598   6.503 -0.3573 -0.3061  0.7192
  821MOL0     C 8272   8.971   4.552   6.564  0.0386  0.1351  0.2425
  821MOL0     C 8273   8.886   4.648   6.627  1.2465  0.4927  0.6181
  821MOL0     C 8274   8.895   4.785   6.622 -0.0272  0.4510  0.3123
  821MOL0     O 8275   8.782   4.855   6.658 -0.0731 -0.1948 -0.8680
  821MOL0     C 8276   8.796   4.993   6.684 -0.4699 -0.1039 -0.3496
  821MOL0     C 8277   8.674   5.071   6.748 -0.5495  0.0118 -0.1015
  821MOL0     C 8278   8.544   5.058   6.665  0.1290 -0.4903 -0.4076
  821MOL0     C 8279   8.545   5.102   6.524  0.2824 -0.1702  0.0923
  821MOL0     C 8280   8.410   5.079   6.458 -0.1918  0.6685 -0.0325
  821MOL0     C 8281   8.399   5.113   6.303 -1.0096  0.2771  0.0516
  821MOL0     C 8282   8.487   5.004   6.233 -0.4702  0.4782  0.4988
  821MOL0     C 8283   8.494   5.041   6.087 -1.0752 -0.1404 -0.6758
  821MOL0    Cl 8284   8.596   4.926   5.992  0.3589 -0.0714  0.0574
  821MOL0     C 8285   9.022   4.829   6.570 -1.1127  0.6259  0.8410
  821MOL0     C 8286   9.108   4.740   6.507  0.7830  0.5225  0.9476
  821MOL0     O 8287   9.082   4.449   6.271 -0.9331  0.8933 -0.3180
  821MOL0     C 8288   9.419   4.387   6.377 -0.5200  0.1815  0.4635
  821MOL0     C 8289   9.532   4.321   6.338  0.1716  0.3864 -0.1698
  821MOL0     N 8290  10.101   3.837   5.884 -0.0216 -0.1587 -0.7578
  821MOL0     N 8291  10.184   3.859   5.792 -0.1967 -0.6788 -0.5457
  821MOL0     C 8292  10.669   4.963   5.415  0.2738 -0.3850 -1.2617
  821MOL0     C 8293  10.709   5.081   5.369 -0.0702 -0.4331 -0.4012
  821MOL0     C 8294  10.980   5.362   5.140 -0.2701  0.7198  0.8659
  821MOL0     C 8295  11.038   5.374   5.011  0.4678  0.2748  0.2973
  821MOL0     C 8296  11.058   5.511   4.975  0.1408  0.4983  0.6744
  821MOL0     C 8297  11.034   5.627   5.050  0.7103 -0.7671  0.5713
  821MOL0     O 8298  11.046   5.751   4.983  0.6154  0.3968  0.4553
  821MOL0     C 8299  11.056   5.870   5.063 -0.4023 -0.4754  0.3235
  821MOL0     C 8300  11.078   5.992   4.977 -0.4988 -1.0908  0.2690
  821MOL0     C 8301  11.200   5.980   4.886 -0.7573  0.6783 -0.1968
  821MOL0     C 8302  11.203   6.104   4.798 -0.4614 -0.4427 -0.1785
  821MOL0     C 8303  11.316   6.097   4.701  0.1056  0.3437 -1.1874
  821MOL0     C 8304  11.412   6.096   4.620  0.1141  1.3495  0.2351
  821MOL0     C 8305  10.980   5.605   5.173 -0.5167  0.3282 -0.4017
  821MOL0     C 8306  10.938   5.473   5.214  0.5920  0.2079  1.0698
  821MOL0     H 8307  11.050   5.009   5.371  1.3837 -4.3947 -0.1107
  821MOL0     H 8308  10.963   4.807   5.475  1.9733  2.1968 -2.0839
  821MOL0     H 8309  10.565   4.709   5.367  2.4594 -0.7753 -0.5078
  821MOL0     H 8310  10.520   4.734   5.542  1.9881  0.9086  0.4494
  821MOL0     H 8311  10.683   4.487   5.428 -1.0163 -2.1238  0.7925
  821MOL0     H 8312  10.513   4.484   5.484 -0.8210  0.9429 -0.3389
  821MOL0     H 8313  10.589   4.499   5.725 -0.4971 -2.0979  0.6432
  821MOL0     H 8314  10.755   4.543   5.659  1.6460 -2.7958 -2.9052
  821MOL0     H 8315  10.708   4.312   5.551  0.9773  0.4116 -0.9762
  821MOL0     H 8316  10.806   4.346   5.702  0.3263  0.9890 -0.5842
  821MOL0     H 8317  10.538   4.318   5.793  0.9945  1.0781  0.3851
  821MOL0     H 8318  10.673   4.197   5.809 -0.8414 -2.4536 -1.3369
  821MOL0     H 8319  10.620   4.078   5.616  0.5959  0.4595 -0.2466
  821MOL0     H 8320  10.485   4.176   5.569 -1.3635  1.2128  0.8727
  821MOL0     H 8321  10.498   3.943   5.735  1.0922  0.9190  0.4474
  821MOL0     H 8322  10.466   4.061   5.845  1.8960 -2.4271  1.1212
  821MOL0     H 8323  10.302   4.031   5.595  0.7165  1.1855 -0.7795
  821MOL0     H 8324  10.279   4.167   5.698 -1.7249 -0.0346  1.3063
  821MOL0     H 8325  10.153   4.160   5.922  1.2118  0.2990 -0.3122
  821MOL0     H 8326  10.089   3.993   6.147 -0.2252 -5.1684  2.4723
  821MOL0     H 8327   9.990   3.852   6.112 -0.6844 -0.0234 -0.5823
  821MOL0     H 8328   9.840   4.041   5.983  2.1520  1.5224 -1.9136
  821MOL0     H 8329   9.937   4.147   6.081  0.4812 -0.8268 -0.1355
  821MOL0     H 8330   9.731   3.943   6.187 -1.6157  0.3094  1.6797
  821MOL0     H 8331   9.870   3.994   6.291 -2.1871  2.3956  1.5699
  821MOL0     H 8332   9.798   4.221   6.299  1.1113 -1.4652  2.8861
  821MOL0     H 8333   9.688   4.102   6.351  4.1550 -1.2497  2.5489
  821MOL0     H 8334   9.458   4.229   6.027 -0.9066 -2.0337  1.0036
  821MOL0     H 8335   9.233   4.368   6.096 -2.1557 -1.6031  0.6597
  821MOL0     H 8336   8.944   4.447   6.563 -1.7302  0.5596 -0.3786
  821MOL0     H 8337   8.794   4.605   6.666  1.4896  1.5279  2.4312
  821MOL0     H 8338   8.834   5.038   6.592 -0.3387 -1.1794 -0.8354
  821MOL0     H 8339   8.880   4.995   6.755 -0.9739 -2.2668  0.3903
  821MOL0     H 8340   8.698   5.178   6.752  0.5321 -0.1987 -0.5284
  821MOL0     H 8341   8.659   5.030   6.848 -1.0174  0.5260  0.0443
  821MOL0     H 8342   8.470   5.113   6.723  0.9442  1.2469 -0.9441
  821MOL0     H 8343   8.518   4.951   6.664  2.6341 -1.2605  2.6532
  821MOL0     H 8344   8.584   5.204   6.527  0.7098 -0.3479  0.9385
  821MOL0     H 8345   8.628   5.057   6.470  1.0784  0.5246  0.6941
  821MOL0     H 8346   8.328   5.136   6.504 -0.2461 -0.4732  1.3709
  821MOL0     H 8347   8.378   4.976   6.473  0.7540  0.0764 -1.7987
  821MOL0     H 8348   8.426   5.217   6.285 -0.9240  0.5920  1.8642
  821MOL0     H 8349   8.299   5.098   6.260  0.0032  1.2088 -2.8501
  821MOL0     H 8350   8.589   4.985   6.270 -1.0321 -1.9560  1.0069
  821MOL0     H 8351   8.447   4.905   6.256 -0.3474 -0.3324 -2.4273
  821MOL0     H 8352   8.541   5.140   6.079 -0.3073 -0.3050  1.2682
  821MOL0     H 8353   8.390   5.029   6.055 -1.4345  0.2558  0.3253
  821MOL0     H 8354   9.058   4.931   6.578  2.1620 -0.4527  1.2950
  821MOL0     H 8355   9.197   4.771   6.452 -0.2101 -2.5616 -2.8222
  821MOL0     H 8356   9.411   4.420   6.480 -1.1207 -1.9505  1.1516
  821MOL0     H 8357   9.605   4.310   6.418 -0.0192 -0.1321 -0.0690
  821MOL0     H 8358  10.564   4.938   5.404 -0.3481  1.4774 -0.0207
  821MOL0     H 8359  10.636   5.160   5.355 -0.3654 -0.8709 -1.4693
  821MOL0     H 8360  11.069   5.294   4.945  0.5463  1.4051 -1.0871
  821MOL0     H 8361  11.102   5.536   4.879  0.8798 -1.7396  0.3652
  821MOL0     H 8362  11.136   5.855   5.135  1.0783 -0.0972 -1.1835
  821MOL0     H 8363  10.964   5.874   5.123 -2.4709 -1.0387 -2.5752
  821MOL0     H 8364  10.997   6.000   4.905  1.8653 -0.0423 -2.5044
  821MOL0     H 8365  11.085   6.083   5.038 -3.8145  0.7426 -1.7883
  821MOL0     H 8366  11.202   5.880   4.843 -2.2032 -0.6194  2.4915
  821MOL0     H 8367  11.290   5.981   4.948  1.2431 -2.8141 -2.6991
  821MOL0     H 8368  11.109   6.124   4.746  0.0123 -3.8018 -2.6632
  821MOL0     H 8369  11.233   6.194   4.852  3.8092 -0.1683 -2.5412
  821MOL0     H 8370  11.478   6.114   4.537  1.6472 -2.6391  0.3685
  821MOL0     H 8371  10.948   5.679   5.246 -3.4827 -2.2909  1.2091
  821MOL0     H 8372  10.884   5.457   5.308  0.7033  0.3538  1.1572
  822MOL0     O 8373   6.576   6.975   6.752  0.0450 -0.8530  0.3269
  822MOL0     C 8374   6.549   6.936   6.863  0.0838  0.2559  0.2835
  822MOL0     O 8375   6.640   6.942   6.962  0.2824 -0.0796  0.2231
  822MOL0     C 8376   6.771   6.961   6.927  0.2728  0.8924  0.2206
  822MOL0     C 8377   6.821   7.091   6.892 -0.3292 -1.1863 -0.4238
  822MOL0     C 8378   6.949   7.118   6.855  0.8030  0.1461  0.8871
  822MOL0     C 8379   7.038   7.008   6.850  0.0157  0.5427  0.1850
  822MOL0     O 8380   7.172   7.043   6.812  0.4414  0.3992 -0.7450
  822MOL0     C 8381   7.284   6.993   6.882 -0.3572  0.0310 -0.4045
  822MOL0     C 8382   7.269   7.012   7.039 -0.3500 -0.3286  0.2014
  822MOL0     C 8383   7.331   6.895   7.123 -0.8117 -0.7555 -0.2370
  822MOL0     C 8384   7.239   6.778   7.125  0.0353  0.1857  0.5859
  822MOL0     C 8385   7.299   6.643   7.174  0.3549  0.5647  0.1225
  822MOL0     C 8386   7.187   6.562   7.247 -0.2613 -0.0327  0.4345
  822MOL0     C 8387   7.252   6.470   7.353 -0.5217  0.1531  0.0852
  822MOL0     C 8388   7.371   6.381   7.298  0.2146 -0.1295 -0.0107
  822MOL0     N 8389   7.400   6.275   7.391  0.8466  0.4567  0.0243
  822MOL0     C 8390   7.480   6.274   7.504 -0.6520 -0.8902  0.6697
  822MOL0     C 8391   7.483   6.137   7.539  0.6779  0.2471  0.5096
  822MOL0     C 8392   7.552   6.089   7.667 -0.1214  0.6775  0.2245
  822MOL0     C 8393   7.609   5.949   7.651 -0.1176  0.0656  1.0645
  822MOL0     C 8394   7.669   5.904   7.780 -0.1167 -0.9657  0.4551
  822MOL0     C 8395   7.626   5.769   7.819 -0.0312  0.5434 -0.0001
  822MOL0     O 8396   7.731   5.684   7.758  0.6597  0.4426 -0.1150
  822MOL0     C 8397   7.869   5.690   7.774 -0.0355  0.0341  0.1531
  822MOL0     C 8398   7.932   5.613   7.677  0.6794 -0.7514  0.9842
  822MOL0     C 8399   8.071   5.606   7.671 -0.6876 -0.7241 -0.6614
  822MOL0     C 8400   8.146   5.688   7.767  0.8977  0.9839  0.3549
  822MOL0     C 8401   8.291   5.686   7.762 -0.5814 -0.2294 -0.0395
  822MOL0     O 8402   8.349   5.765   7.857 -0.4827 -0.2723  0.1165
  822MOL0     C 8403   8.483   5.792   7.853  0.3266  0.4075  0.8013
  822MOL0     C 8404   8.539   5.853   7.740  0.2739  1.8121  0.2275
  822MOL0     C 8405   8.677   5.833   7.712 -0.1318 -0.9665 -0.3575
  822MOL0     C 8406   8.765   5.770   7.804  0.1490 -0.0672 -0.7395
  822MOL0     O 8407   8.894   5.754   7.773 -0.5546  0.3616 -0.9813
  822MOL0     C 8408   8.919   5.611   7.755 -0.6039  1.1341  0.2991
  822MOL0     C 8409   9.065   5.574   7.754  0.0117  0.4999  0.1889
  822MOL0     C 8410   9.095   5.433   7.684  0.5226 -0.2731 -0.3154
  822MOL0     C 8411   9.241   5.418   7.657 -0.8037 -0.6873  0.1189
  822MOL0     C 8412   9.286   5.324   7.545  0.1934  0.9646  0.5478
  822MOL0     C 8413   9.250   5.375   7.396 -0.1089 -0.3592  0.0559
  822MOL0     C 8414   9.289   5.524   7.381 -0.2754  0.2523  0.4942
  822MOL0     C 8415   9.285   5.567   7.234  0.3937 -1.1839  1.2840
  822MOL0    Cl 8416   9.354   5.734   7.214  0.5366 -0.6003 -0.4440
  822MOL0     C 8417   8.704   5.719   7.923 -0.3418 -0.0821  0.4632
  822MOL0     C 8418   8.566   5.741   7.948 -0.0369  0.3340  1.1345
  822MOL0     O 8419   8.340   5.624   7.666 -0.2394  0.5421  0.5823
  822MOL0     C 8420   8.075   5.762   7.867 -0.0055 -0.5579  0.3384
  822MOL0     C 8421   7.938   5.762   7.873  0.1751  0.0298 -0.1804
  822MOL0     N 8422   7.419   6.063   7.442  0.2928  0.1522 -0.1550
  822MOL0     N 8423   7.372   6.143   7.357 -0.5441 -0.1358 -0.4359
  822MOL0     C 8424   6.995   6.877   6.888  1.1379  0.1675  0.6243
  822MOL0     C 8425   6.857   6.855   6.919  0.2198  0.0234 -0.0592
  822MOL0     C 8426   6.420   6.905   6.916 -0.3266  0.5733  0.8832
  822MOL0     C 8427   6.380   6.909   7.051 -0.0107  0.4679  1.1521
  822MOL0     C 8428   6.249   6.908   7.094  0.5684  0.5149  0.3929
  822MOL0     C 8429   6.145   6.883   6.997  0.8245 -0.8518 -0.9592
  822MOL0     O 8430   6.012   6.872   7.027 -0.1979 -0.1928 -0.1674
  822MOL0     C 8431   5.966   6.966   7.133  0.5964 -0.4911  0.0192
  822MOL0     C 8432   5.911   7.105   7.083  0.3151 -0.1036  0.1500
  822MOL0     C 8433   6.021   7.212   7.062  1.5654 -0.1857 -0.3072
  822MOL0     C 8434   5.950   7.324   6.974  0.6096 -0.3682  0.5238
  822MOL0     C 8435   6.035   7.431   6.932  0.9481 -0.4974  1.2363
  822MOL0     C 8436   6.105   7.521   6.915  0.4479  0.5569  0.7826
  822MOL0     C 8437   6.181   6.876   6.864 -0.5172  0.3915  0.4361
  822MOL0     C 8438   6.315   6.886   6.823  0.1967 -0.0243 -0.1708
  822MOL0     H 8439   6.758   7.179   6.905  0.1952 -0.7075 -1.0264
  822MOL0     H 8440   6.980   7.216   6.822 -2.0242  0.6114 -0.6743
  822MOL0     H 8441   7.374   7.050   6.858 -1.7511  2.3808 -0.3637
  822MOL0     H 8442   7.304   6.889   6.855 -0.8001 -0.2495  0.3278
  822MOL0     H 8443   7.165   7.022   7.071 -0.4880  1.7776 -0.7511
  822MOL0     H 8444   7.306   7.110   7.068 -2.1946  0.2073  0.8839
  822MOL0     H 8445   7.350   6.934   7.224 -4.6682 -2.4932  1.3521
  822MOL0     H 8446   7.423   6.875   7.067  1.2427  2.6695  1.5384
  822MOL0     H 8447   7.152   6.808   7.185 -0.2016  0.8672 -0.0852
  822MOL0     H 8448   7.203   6.752   7.025  0.7907 -0.7813  0.5531
  822MOL0     H 8449   7.371   6.668   7.252  0.8294  1.6985 -0.6593
  822MOL0     H 8450   7.335   6.578   7.093 -1.1225  0.1477 -0.2409
  822MOL0     H 8451   7.126   6.514   7.169  0.1277  1.1885 -0.6523
  822MOL0     H 8452   7.114   6.621   7.302  0.0967 -1.2088  2.2558
  822MOL0     H 8453   7.285   6.541   7.430 -0.6866  0.0292  0.2733
  822MOL0     H 8454   7.174   6.400   7.386  1.0389 -3.8505 -3.8283
  822MOL0     H 8455   7.466   6.432   7.284  1.5235 -2.2255  0.7501
  822MOL0     H 8456   7.338   6.341   7.201  0.4360 -1.3107  0.3852
  822MOL0     H 8457   7.529   6.359   7.551  1.2022 -0.1265 -2.3502
  822MOL0     H 8458   7.479   6.086   7.749 -0.0394  2.9789  0.4603
  822MOL0     H 8459   7.635   6.152   7.702  1.2384 -1.0243  0.1845
  822MOL0     H 8460   7.678   5.935   7.567 -1.0173  1.4417  0.0560
  822MOL0     H 8461   7.534   5.873   7.623  1.3541 -0.8546 -0.6511
  822MOL0     H 8462   7.777   5.920   7.786 -0.4163  0.8804  2.0398
  822MOL0     H 8463   7.648   5.977   7.859  2.1971  0.1601  0.1278
  822MOL0     H 8464   7.528   5.738   7.782 -1.1890 -1.1036  3.8498
  822MOL0     H 8465   7.625   5.769   7.929  0.0395  2.1835  0.0236
  822MOL0     H 8466   7.875   5.542   7.619  1.4403 -1.4170  1.0212
  822MOL0     H 8467   8.125   5.533   7.611  1.3660  0.1271  0.0865
  822MOL0     H 8468   8.475   5.888   7.660  0.1291 -3.2435 -2.2210
  822MOL0     H 8469   8.733   5.879   7.631  2.5965  0.4215  2.1385
  822MOL0     H 8470   8.876   5.589   7.657 -0.8461  2.7628  0.0038
  822MOL0     H 8471   8.873   5.543   7.827  0.4429 -0.9392 -0.8967
  822MOL0     H 8472   9.096   5.574   7.859 -3.0613  3.2389  1.2737
  822MOL0     H 8473   9.112   5.656   7.698  1.0957  1.5631  2.5262
  822MOL0     H 8474   9.047   5.432   7.586 -1.1122  3.0912  0.3004
  822MOL0     H 8475   9.050   5.347   7.735 -2.4472  0.4532 -1.4816
  822MOL0     H 8476   9.292   5.515   7.646 -3.1894  0.5862 -0.3392
  822MOL0     H 8477   9.289   5.388   7.750  2.3601 -0.5410 -1.3059
  822MOL0     H 8478   9.245   5.224   7.560  1.3098  0.8723  3.7292
  822MOL0     H 8479   9.395   5.313   7.540  0.1675 -2.2840  3.5775
  822MOL0     H 8480   9.142   5.369   7.384 -0.0631 -3.0586  0.2618
  822MOL0     H 8481   9.297   5.322   7.312  2.1149  1.2586  0.1936
  822MOL0     H 8482   9.217   5.589   7.431 -0.0064  0.5320  0.5211
  822MOL0     H 8483   9.388   5.546   7.424 -0.1880  2.9060 -0.8230
  822MOL0     H 8484   9.180   5.572   7.204  0.5927  2.4194  0.8085
  822MOL0     H 8485   9.342   5.492   7.177  1.1933  1.3909 -1.5432
  822MOL0     H 8486   8.771   5.668   7.991 -1.2425 -0.4950  1.0666
  822MOL0     H 8487   8.522   5.685   8.030  1.7522 -1.1075  1.1860
  822MOL0     H 8488   8.132   5.821   7.938  1.9491  0.6727 -2.0992
  822MOL0     H 8489   7.881   5.805   7.954 -0.4357  2.8587 -1.9655
  822MOL0     H 8490   7.073   6.806   6.862 -0.8248 -1.6668 -0.5260
  822MOL0     H 8491   6.830   6.751   6.935  1.9908 -0.4318  0.1887
  822MOL0     H 8492   6.449   6.935   7.131  0.6116  1.5468  0.3071
  822MOL0     H 8493   6.233   6.916   7.201 -1.0022  1.2454  0.1463
  822MOL0     H 8494   6.035   6.977   7.217  0.6891  1.8057 -0.3061
  822MOL0     H 8495   5.873   6.932   7.180  2.3147 -0.1300  4.0546
  822MOL0     H 8496   5.858   7.084   6.990  0.8545  2.0785 -0.7121
  822MOL0     H 8497   5.844   7.145   7.160 -1.0580  0.5728 -1.3302
  822MOL0     H 8498   6.106   7.174   7.004  1.5251  1.1628 -1.3102
  822MOL0     H 8499   6.056   7.256   7.156 -0.3812 -0.9985  0.8598
  822MOL0     H 8500   5.919   7.274   6.882 -0.5113 -0.5797  0.9925
  822MOL0     H 8501   5.866   7.364   7.033  0.2755  0.2821 -0.3639
  822MOL0     H 8502   6.169   7.604   6.893  0.5761  1.2025  3.2964
  822MOL0     H 8503   6.102   6.880   6.790  0.4767  2.9391 -0.5982
  822MOL0     H 8504   6.341   6.896   6.718 -1.0624 -0.1252 -0.5014
  823MOL0     O 8505   4.648   6.875   2.819  0.3588 -0.3016  0.5274
  823MOL0     C 8506   4.738   6.849   2.739 -0.6367  1.2261  0.3662
  823MOL0     O 8507   4.804   6.933   2.665 -1.2000  0.1628  0.6669
  823MOL0     C 8508   4.785   7.066   2.685 -0.3181 -0.8911 -0.3590
  823MOL0     C 8509   4.834   7.138   2.796 -1.2601  0.3202  0.7522
  823MOL0     C 8510   4.818   7.278   2.808  0.2005 -0.3000  0.4954
  823MOL0     C 8511   4.731   7.342   2.717 -0.3863  0.3298  0.3598
  823MOL0     O 8512   4.717   7.480   2.713 -0.1189  0.0142 -1.1154
  823MOL0     C 8513   4.744   7.567   2.823  0.6700 -0.3863  0.4176
  823MOL0     C 8514   4.722   7.716   2.784 -0.0307  1.0732 -0.2596
  823MOL0     C 8515   4.819   7.753   2.675  0.0667  0.3347  0.3162
  823MOL0     C 8516   4.811   7.888   2.614 -1.0071  0.0967 -0.0238
  823MOL0     C 8517   4.680   7.927   2.552 -0.7227 -1.6646 -0.0358
  823MOL0     C 8518   4.604   7.819   2.474  0.2068  0.3956  0.2567
  823MOL0     C 8519   4.685   7.745   2.366  0.0211  0.1749  0.1584
  823MOL0     C 8520   4.662   7.594   2.369 -0.5923 -0.2684 -1.3753
  823MOL0     N 8521   4.526   7.558   2.319 -0.4469 -0.1581  0.4062
  823MOL0     C 8522   4.509   7.515   2.183 -0.2749 -0.9869 -0.0986
  823MOL0     C 8523   4.385   7.462   2.170  0.2832  0.3782  0.1637
  823MOL0     C 8524   4.329   7.378   2.058 -0.1316  0.7028 -0.4993
  823MOL0     C 8525   4.277   7.463   1.937  0.0338  0.5753  0.2393
  823MOL0     C 8526   4.262   7.378   1.809  0.6692  0.3119 -0.2991
  823MOL0     C 8527   4.181   7.245   1.829 -0.4614 -0.5454  0.5925
  823MOL0     O 8528   4.143   7.210   1.695 -0.6775  0.5014  0.3196
  823MOL0     C 8529   4.115   7.078   1.689  1.2956 -0.1746 -0.1779
  823MOL0     C 8530   3.987   7.043   1.745 -1.1266 -0.0037  0.0272
  823MOL0     C 8531   3.952   6.908   1.733  0.1032 -0.6387  0.1592
  823MOL0     C 8532   4.026   6.816   1.662 -0.6031  0.9884  0.5220
  823MOL0     C 8533   3.983   6.680   1.640 -0.1460 -0.4875  0.4009
  823MOL0     O 8534   4.023   6.620   1.518 -0.1817  0.0225 -0.6765
  823MOL0     C 8535   4.022   6.483   1.491 -0.0973 -0.8428  0.3953
  823MOL0     C 8536   4.032   6.449   1.354 -0.3163  0.5573 -0.0498
  823MOL0     C 8537   4.021   6.314   1.320  0.2183  0.0588 -0.1722
  823MOL0     C 8538   3.981   6.213   1.411 -0.5711  0.1444  0.1598
  823MOL0     O 8539   3.978   6.084   1.369  0.2065  0.1538  0.2807
  823MOL0     C 8540   3.850   6.025   1.391 -0.7340  0.5830 -0.1931
  823MOL0     C 8541   3.869   5.879   1.370  0.3552  1.3264 -0.6773
  823MOL0     C 8542   3.985   5.817   1.456 -0.1437 -0.9158  0.2421
  823MOL0     C 8543   4.013   5.662   1.421  0.6679  0.4501  0.1595
  823MOL0     C 8544   4.143   5.614   1.479 -0.5486 -1.0304  0.8672
  823MOL0     C 8545   4.161   5.456   1.468 -0.0057  0.7236  0.5328
  823MOL0     C 8546   4.311   5.412   1.453  0.0411 -1.0125  1.4073
  823MOL0     C 8547   4.336   5.272   1.418  0.2275  0.4911  0.2537
  823MOL0    Cl 8548   4.193   5.181   1.337  0.3560  0.3997  0.1792
  823MOL0     C 8549   3.968   6.247   1.544 -0.9712  0.0963 -0.1646
  823MOL0     C 8550   3.994   6.382   1.580 -0.0053 -0.2303 -0.0004
  823MOL0     O 8551   3.896   6.644   1.714  0.7557  0.3938  0.7461
  823MOL0     C 8552   4.149   6.854   1.604  0.4492  0.3106 -0.5548
  823MOL0     C 8553   4.186   6.985   1.622  0.1483 -0.1868 -0.3689
  823MOL0     N 8554   4.334   7.472   2.299  0.0062 -0.4779  0.2378
  823MOL0     N 8555   4.413   7.519   2.388  0.0023 -0.4615 -0.0143
  823MOL0     C 8556   4.665   7.270   2.618  0.0228 -0.3240 -0.5975
  823MOL0     C 8557   4.702   7.140   2.593  0.4710 -0.5235 -0.8653
  823MOL0     C 8558   4.773   6.710   2.726 -0.0314 -0.9458 -0.4282
  823MOL0     C 8559   4.704   6.606   2.792 -0.4358  1.4947  0.5267
  823MOL0     C 8560   4.734   6.471   2.763  0.7515  0.6226 -0.4878
  823MOL0     C 8561   4.835   6.431   2.672  0.3562 -1.2084 -0.1652
  823MOL0     O 8562   4.856   6.297   2.664 -0.4004  0.8748 -0.1509
  823MOL0     C 8563   4.975   6.254   2.594  0.6514  0.2457 -0.1576
  823MOL0     C 8564   4.966   6.268   2.444 -0.2269  0.0012  0.1800
  823MOL0     C 8565   4.902   6.147   2.387 -0.1098  0.5002  0.4370
  823MOL0     C 8566   4.751   6.143   2.413  0.4712 -0.9715 -0.2741
  823MOL0     C 8567   4.681   6.051   2.321 -0.6511 -0.8092  0.5154
  823MOL0     C 8568   4.625   5.960   2.260 -0.9345  0.4168  0.2820
  823MOL0     C 8569   4.903   6.538   2.609  0.6805 -0.7619 -0.3739
  823MOL0     C 8570   4.875   6.674   2.635  0.8378 -0.5371  0.1720
  823MOL0     H 8571   4.896   7.075   2.858 -3.4390 -0.8524  1.8611
  823MOL0     H 8572   4.875   7.325   2.887  0.8886 -1.6938  0.8707
  823MOL0     H 8573   4.844   7.536   2.854  0.9717  0.0290 -0.1301
  823MOL0     H 8574   4.665   7.560   2.898  0.1230  1.3891  0.0610
  823MOL0     H 8575   4.732   7.785   2.869 -0.5113 -1.0492  1.6311
  823MOL0     H 8576   4.622   7.744   2.751 -0.5004  2.1940  1.8836
  823MOL0     H 8577   4.816   7.678   2.595  1.1841  0.4982  0.0990
  823MOL0     H 8578   4.920   7.745   2.718  0.7114  3.8428 -0.2272
  823MOL0     H 8579   4.828   7.949   2.703 -1.6533 -1.0780  0.9441
  823MOL0     H 8580   4.897   7.904   2.549  0.2142  0.8716  1.7025
  823MOL0     H 8581   4.706   8.016   2.495  1.3087 -0.1724  3.0098
  823MOL0     H 8582   4.610   7.956   2.631 -1.5509 -1.9985 -0.6267
  823MOL0     H 8583   4.508   7.861   2.447 -0.8510  0.8014  4.0157
  823MOL0     H 8584   4.567   7.754   2.554 -0.4602 -0.6515 -0.8814
  823MOL0     H 8585   4.659   7.770   2.263  2.0587 -0.1804 -0.4842
  823MOL0     H 8586   4.792   7.763   2.380 -0.0375  0.5822  0.0952
  823MOL0     H 8587   4.681   7.556   2.470  0.4998  0.7738 -1.1633
  823MOL0     H 8588   4.737   7.545   2.306 -0.1776  0.4269 -1.4325
  823MOL0     H 8589   4.587   7.517   2.108 -0.4451 -0.5616 -0.2723
  823MOL0     H 8590   4.240   7.321   2.086  0.8384 -0.6068  0.0277
  823MOL0     H 8591   4.399   7.302   2.021  1.7924  1.2016  1.8599
  823MOL0     H 8592   4.348   7.541   1.910 -0.5507  0.0923 -3.0581
  823MOL0     H 8593   4.183   7.509   1.969 -0.5398  0.4776 -1.2399
  823MOL0     H 8594   4.205   7.439   1.738  0.3988 -1.6033 -1.7944
  823MOL0     H 8595   4.356   7.356   1.758 -1.3816 -2.3105 -3.2709
  823MOL0     H 8596   4.092   7.263   1.891 -1.1447 -2.5813  0.2767
  823MOL0     H 8597   4.235   7.167   1.883 -0.3818 -1.9423 -1.3819
  823MOL0     H 8598   3.938   7.122   1.801  1.2086 -0.3753  2.7837
  823MOL0     H 8599   3.851   6.891   1.769 -0.7234  5.2324  1.7512
  823MOL0     H 8600   4.064   6.511   1.271  1.9120  2.2714  1.9477
  823MOL0     H 8601   4.044   6.285   1.218 -1.0919 -1.7715  0.0014
  823MOL0     H 8602   3.789   6.061   1.308  1.5323 -0.5987 -2.4956
  823MOL0     H 8603   3.799   6.039   1.487 -2.9325 -0.3779 -1.1442
  823MOL0     H 8604   3.885   5.857   1.264  2.4750 -1.9099  0.1511
  823MOL0     H 8605   3.788   5.813   1.403  2.4285 -2.1640 -1.8975
  823MOL0     H 8606   3.977   5.836   1.563  3.0857 -0.3044  0.4826
  823MOL0     H 8607   4.077   5.876   1.445 -1.0291  0.7396  1.2731
  823MOL0     H 8608   3.925   5.612   1.465 -0.7233 -1.2931 -4.1199
  823MOL0     H 8609   4.009   5.641   1.314 -0.9518 -0.3435  0.3353
  823MOL0     H 8610   4.169   5.645   1.581 -0.3211 -0.7588  0.7286
  823MOL0     H 8611   4.230   5.646   1.421 -0.4302 -3.1645 -0.2293
  823MOL0     H 8612   4.104   5.426   1.379 -1.0026  1.7256  0.8039
  823MOL0     H 8613   4.125   5.400   1.555 -1.0403  2.7008  1.4580
  823MOL0     H 8614   4.364   5.473   1.379 -1.5246  1.2555  2.0575
  823MOL0     H 8615   4.349   5.440   1.551 -3.3112  1.9669  2.0225
  823MOL0     H 8616   4.343   5.215   1.511 -1.9983  1.5104  1.1158
  823MOL0     H 8617   4.430   5.264   1.363  0.2495  0.8156  0.2423
  823MOL0     H 8618   3.938   6.169   1.613  0.3238 -2.4711 -2.3282
  823MOL0     H 8619   3.992   6.409   1.685  0.6552 -1.3657  0.3199
  823MOL0     H 8620   4.202   6.776   1.552 -0.8960 -0.7791 -0.3382
  823MOL0     H 8621   4.279   7.026   1.582 -2.0355  0.4445 -5.5971
  823MOL0     H 8622   4.599   7.314   2.545 -3.0731  0.6343  2.5068
  823MOL0     H 8623   4.662   7.088   2.506  5.2625 -0.4604 -3.4612
  823MOL0     H 8624   4.628   6.625   2.867  0.2280  1.7293  1.1557
  823MOL0     H 8625   4.690   6.383   2.809  4.0620  0.0518  1.9613
  823MOL0     H 8626   5.010   6.152   2.613 -1.1276 -0.8340 -2.2514
  823MOL0     H 8627   5.061   6.315   2.623  1.4653 -0.4854 -0.9631
  823MOL0     H 8628   4.902   6.344   2.399 -0.8476 -0.8277 -0.3565
  823MOL0     H 8629   5.068   6.282   2.407  0.4242 -2.7978  0.7211
  823MOL0     H 8630   4.938   6.051   2.424 -4.1618 -1.4250 -0.0103
  823MOL0     H 8631   4.922   6.154   2.279  0.7784  0.6934  0.6085
  823MOL0     H 8632   4.726   6.111   2.515  1.2415 -1.8685 -0.3558
  823MOL0     H 8633   4.711   6.243   2.391  4.3923  0.9812  0.6443
  823MOL0     H 8634   4.586   5.887   2.193 -1.1925  0.7796  0.0312
  823MOL0     H 8635   4.986   6.518   2.542  1.7670  1.9990  0.0388
  823MOL0     H 8636   4.945   6.744   2.591  1.5450 -1.7625 -0.7518
  824MOL0     O 8637   3.247   2.588   7.559  0.9035 -0.2034  0.9622
  824MOL0     C 8638   3.149   2.664   7.532 -0.4203 -0.1822  0.3327
  824MOL0     O 8639   3.154   2.803   7.520  0.4112  0.0084  0.3009
  824MOL0     C 8640   3.267   2.877   7.522 -0.3847  0.1189  0.5972
  824MOL0     C 8641   3.274   2.985   7.609  0.4681 -0.2880 -0.1538
  824MOL0     C 8642   3.398   3.058   7.628  0.2524 -0.6613  0.1070
  824MOL0     C 8643   3.513   3.023   7.550 -0.3820 -0.5979  0.4435
  824MOL0     O 8644   3.625   3.101   7.553 -0.3240  0.2711 -0.3282
  824MOL0     C 8645   3.743   3.025   7.586 -0.6135 -0.1305  0.3109
  824MOL0     C 8646   3.859   3.130   7.586 -1.1062  0.2870  0.4917
  824MOL0     C 8647   3.999   3.075   7.630  0.2554 -0.5569 -0.2509
  824MOL0     C 8648   4.093   3.187   7.677 -0.2583  0.7684 -0.0341
  824MOL0     C 8649   4.236   3.144   7.728 -0.0378 -0.5751 -0.2427
  824MOL0     C 8650   4.328   3.253   7.783  0.4705 -0.1195  0.7158
  824MOL0     C 8651   4.448   3.194   7.848 -0.6332 -0.2924  0.4983
  824MOL0     C 8652   4.536   3.110   7.754  0.5896 -0.3798 -1.2318
  824MOL0     N 8653   4.648   3.075   7.839 -0.2435  0.0945  0.1215
  824MOL0     C 8654   4.642   2.960   7.910  0.1473  0.5622  0.0044
  824MOL0     C 8655   4.751   2.962   7.988 -0.0209  0.2541 -0.5062
  824MOL0     C 8656   4.781   2.849   8.082  0.2338  0.4436  0.4995
  824MOL0     C 8657   4.856   2.739   8.006  0.8039  0.1949 -1.2678
  824MOL0     C 8658   5.001   2.783   7.954 -0.4265 -0.4912  0.2439
  824MOL0     C 8659   5.006   2.803   7.802 -0.6059  0.0976  0.6470
  824MOL0     O 8660   5.037   2.700   7.707  0.7329 -0.5252  0.1684
  824MOL0     C 8661   4.994   2.580   7.753 -0.7235  0.9497  0.4242
  824MOL0     C 8662   5.073   2.499   7.832 -0.1776 -0.5050 -0.5528
  824MOL0     C 8663   5.032   2.365   7.856  0.6674  1.1199  0.2165
  824MOL0     C 8664   4.902   2.328   7.828  0.2408  0.3434 -0.0002
  824MOL0     C 8665   4.844   2.205   7.881 -0.9754  0.5306 -0.2662
  824MOL0     O 8666   4.734   2.159   7.828 -0.3930 -0.4550  0.1437
  824MOL0     C 8667   4.650   2.070   7.886 -0.4330  0.2273  0.1781
  824MOL0     C 8668   4.633   2.062   8.028 -0.2136  0.7371  0.6497
  824MOL0     C 8669   4.553   1.965   8.094  0.1668  0.9667 -0.0726
  824MOL0     C 8670   4.493   1.871   8.007  0.3265  0.2950  0.0710
  824MOL0     O 8671   4.411   1.765   8.048 -0.2648  0.3039  0.0388
  824MOL0     C 8672   4.442   1.637   7.995 -0.1869  0.3923  0.4233
  824MOL0     C 8673   4.359   1.517   8.049  0.7267 -0.6511  0.7839
  824MOL0     C 8674   4.404   1.377   8.011  0.9371  0.6883 -0.6865
  824MOL0     C 8675   4.306   1.265   8.053 -1.0054 -0.0848  0.8080
  824MOL0     C 8676   4.345   1.136   7.989  0.3222 -0.0230 -0.0747
  824MOL0     C 8677   4.244   1.023   8.006  0.3556  0.7587 -0.2654
  824MOL0     C 8678   4.206   0.982   8.139  0.1098 -0.6695  0.4420
  824MOL0     C 8679   4.156   0.842   8.140 -0.1722  0.1195 -1.1103
  824MOL0    Cl 8680   4.215   0.754   8.289  0.1843 -0.3171 -0.5464
  824MOL0     C 8681   4.502   1.888   7.864  0.4470  0.5872 -0.7428
  824MOL0     C 8682   4.575   1.986   7.804 -0.0812  0.0921 -0.4640
  824MOL0     O 8683   4.913   2.145   7.966 -0.2082  0.6636 -0.3513
  824MOL0     C 8684   4.820   2.413   7.757 -0.5758 -0.3800 -0.0335
  824MOL0     C 8685   4.863   2.544   7.718 -0.7226  0.2524 -0.8489
  824MOL0     N 8686   4.829   3.080   7.958  0.7297  0.4215  0.0107
  824MOL0     N 8687   4.762   3.137   7.857  0.2592 -0.9186  0.0720
  824MOL0     C 8688   3.498   2.916   7.456 -0.3709  0.2195  0.4183
  824MOL0     C 8689   3.379   2.843   7.445  0.4471 -0.2102 -0.1989
  824MOL0     C 8690   3.013   2.609   7.521  0.1514  0.7745 -0.5439
  824MOL0     C 8691   2.976   2.491   7.593 -0.1276 -0.2652  0.2351
  824MOL0     C 8692   2.841   2.447   7.572 -0.2926 -0.9790 -0.0560
  824MOL0     C 8693   2.750   2.490   7.482 -1.1568 -1.3857  0.0939
  824MOL0     O 8694   2.627   2.445   7.459  0.3609  0.0796 -0.2316
  824MOL0     C 8695   2.554   2.436   7.330 -0.2144 -0.1597 -0.1676
  824MOL0     C 8696   2.523   2.296   7.284 -0.0627 -0.9383 -0.8827
  824MOL0     C 8697   2.413   2.231   7.369  0.6208 -0.5603 -0.9446
  824MOL0     C 8698   2.343   2.121   7.291 -0.3945  0.2293  0.0575
  824MOL0     C 8699   2.240   2.055   7.370 -0.7321  0.3854 -0.8450
  824MOL0     C 8700   2.149   1.985   7.416 -0.3283 -0.0712  0.3536
  824MOL0     C 8701   2.785   2.613   7.416  0.4258 -0.2424  0.0747
  824MOL0     C 8702   2.906   2.672   7.447 -0.3950 -0.5303 -0.2616
  824MOL0     H 8703   3.189   3.007   7.672 -0.8038  0.2933 -1.9746
  824MOL0     H 8704   3.408   3.133   7.706  4.0166  0.3330 -1.1229
  824MOL0     H 8705   3.776   2.945   7.519 -2.2587 -2.0534  1.6629
  824MOL0     H 8706   3.727   2.980   7.684 -1.4783  2.2714  1.3407
  824MOL0     H 8707   3.838   3.197   7.670 -4.5942  1.0983 -0.9052
  824MOL0     H 8708   3.854   3.193   7.497  2.6502  2.4503  1.5523
  824MOL0     H 8709   4.040   3.018   7.546  1.1778  0.7574 -0.7073
  824MOL0     H 8710   3.989   3.026   7.728  0.7415  3.5126  2.0331
  824MOL0     H 8711   4.109   3.254   7.591  1.2718  2.1372  1.2495
  824MOL0     H 8712   4.045   3.244   7.757  0.0820 -0.4351  1.0498
  824MOL0     H 8713   4.288   3.086   7.651  1.4612  2.4077 -1.6679
  824MOL0     H 8714   4.217   3.067   7.803 -2.9967  0.2174 -0.0241
  824MOL0     H 8715   4.278   3.318   7.855 -0.8079 -0.1849 -0.0778
  824MOL0     H 8716   4.365   3.312   7.699  2.3035 -1.6838  0.3701
  824MOL0     H 8717   4.517   3.273   7.879  0.6028 -0.9261 -0.5384
  824MOL0     H 8718   4.425   3.160   7.949 -1.7876  1.3787  0.8437
  824MOL0     H 8719   4.569   3.170   7.669 -1.9632 -0.0623 -2.0751
  824MOL0     H 8720   4.481   3.026   7.711 -2.4667  1.2913 -0.8970
  824MOL0     H 8721   4.573   2.877   7.904 -0.7102  1.3178 -0.9657
  824MOL0     H 8722   4.689   2.820   8.133 -0.5245  3.7239  1.2484
  824MOL0     H 8723   4.853   2.892   8.152  0.7451  1.2894 -0.5188
  824MOL0     H 8724   4.798   2.709   7.918  1.3817  1.9193 -2.2874
  824MOL0     H 8725   4.874   2.652   8.070 -0.5755  1.3528  0.7975
  824MOL0     H 8726   5.022   2.880   8.000 -0.5665 -0.0101 -0.6945
  824MOL0     H 8727   5.076   2.711   7.992  0.5222 -0.0873 -0.8051
  824MOL0     H 8728   5.094   2.865   7.783  2.3253 -4.0440 -0.7934
  824MOL0     H 8729   4.920   2.861   7.769 -0.2932 -0.9333 -2.2589
  824MOL0     H 8730   5.165   2.540   7.872 -0.2912  1.0414 -1.7732
  824MOL0     H 8731   5.106   2.305   7.906 -2.6160 -3.0298  0.6562
  824MOL0     H 8732   4.690   2.134   8.084 -0.1889  0.5039  0.9235
  824MOL0     H 8733   4.543   1.961   8.203 -0.6270  0.2752 -0.1548
  824MOL0     H 8734   4.540   1.603   8.029 -0.7725 -2.0979 -0.1788
  824MOL0     H 8735   4.431   1.632   7.886  0.0189 -1.9191  0.4670
  824MOL0     H 8736   4.255   1.525   8.013  0.8233  0.3370  0.7073
  824MOL0     H 8737   4.347   1.532   8.157 -2.0192  1.9646  0.2750
  824MOL0     H 8738   4.504   1.361   8.053  0.1837 -3.1827 -0.0301
  824MOL0     H 8739   4.400   1.376   7.902 -1.4218 -0.1814 -0.6489
  824MOL0     H 8740   4.301   1.264   8.162 -1.7487 -1.2555  0.7745
  824MOL0     H 8741   4.201   1.288   8.033 -1.0016 -0.5914  0.1846
  824MOL0     H 8742   4.443   1.096   8.016  0.8119  0.2916 -1.3058
  824MOL0     H 8743   4.331   1.164   7.884 -1.7053 -2.4141 -0.5272
  824MOL0     H 8744   4.291   0.941   7.950  0.2604  1.6561 -1.7131
  824MOL0     H 8745   4.155   1.052   7.950 -0.3110 -1.3446 -0.3840
  824MOL0     H 8746   4.301   1.004   8.188  0.7917 -0.1023 -1.0773
  824MOL0     H 8747   4.126   1.040   8.186  2.5869  2.5492  1.0156
  824MOL0     H 8748   4.156   0.784   8.047 -3.2674  0.1286 -1.2260
  824MOL0     H 8749   4.048   0.858   8.149  0.2027  2.7786 -0.3423
  824MOL0     H 8750   4.442   1.827   7.797  0.4257  0.6244 -0.7574
  824MOL0     H 8751   4.588   1.990   7.697 -1.6732  2.8305 -0.6480
  824MOL0     H 8752   4.719   2.381   7.734 -0.7908  1.1022 -1.3305
  824MOL0     H 8753   4.801   2.620   7.671  3.2131  2.4330 -3.0912
  824MOL0     H 8754   3.585   2.907   7.391 -0.9241  0.2920 -0.3444
  824MOL0     H 8755   3.375   2.772   7.363 -0.7377 -0.5354  0.1254
  824MOL0     H 8756   3.041   2.416   7.636 -0.3731 -0.3779  0.4113
  824MOL0     H 8757   2.801   2.355   7.616  2.5910 -2.5830 -0.5541
  824MOL0     H 8758   2.619   2.482   7.255 -1.9882  5.3527  1.2538
  824MOL0     H 8759   2.464   2.497   7.346  1.3091  1.7788  1.5196
  824MOL0     H 8760   2.472   2.298   7.187 -1.9532  0.3773  0.0610
  824MOL0     H 8761   2.613   2.234   7.280 -0.1892 -1.0860 -1.7251
  824MOL0     H 8762   2.340   2.307   7.400 -2.4633 -3.0338 -1.6089
  824MOL0     H 8763   2.453   2.192   7.463  0.5488  3.4506  0.9502
  824MOL0     H 8764   2.285   2.164   7.208 -2.4567 -1.0822  0.7493
  824MOL0     H 8765   2.415   2.051   7.248  1.8329  3.3570 -1.7723
  824MOL0     H 8766   2.073   1.930   7.468 -1.4983  0.7899 -0.3920
  824MOL0     H 8767   2.729   2.654   7.333 -0.5841 -2.0276 -0.1731
  824MOL0     H 8768   2.941   2.765   7.405 -0.6425  1.0550  2.7310
  825MOL0     O 8769   6.989   4.378   1.153  0.1766  0.4450 -0.3684
  825MOL0     C 8770   6.918   4.362   1.251 -0.6742 -0.4699  0.4627
  825MOL0     O 8771   6.946   4.423   1.368 -0.5069 -0.3914 -0.6853
  825MOL0     C 8772   7.054   4.504   1.397 -0.7809  0.4090 -0.2257
  825MOL0     C 8773   7.098   4.506   1.528  0.6126 -0.1297 -0.2197
  825MOL0     C 8774   7.196   4.593   1.563 -0.5004  0.1109  1.1701
  825MOL0     C 8775   7.262   4.676   1.467  0.7481 -0.0443  0.1241
  825MOL0     O 8776   7.377   4.746   1.507  0.3884 -0.4659  0.2932
  825MOL0     C 8777   7.394   4.880   1.469  0.1312 -0.1216 -0.3830
  825MOL0     C 8778   7.462   4.897   1.332 -0.5985 -0.0085  0.6267
  825MOL0     C 8779   7.539   5.028   1.339 -0.2942 -0.3332 -0.3871
  825MOL0     C 8780   7.646   5.014   1.224  0.2830  0.7687 -0.0910
  825MOL0     C 8781   7.707   5.155   1.197  0.1358  0.0631 -0.0125
  825MOL0     C 8782   7.590   5.254   1.169 -0.8694  0.1078 -0.0308
  825MOL0     C 8783   7.648   5.400   1.138 -0.6623 -0.0319  0.8877
  825MOL0     C 8784   7.561   5.482   1.037 -0.0606  1.0035 -0.5540
  825MOL0     N 8785   7.627   5.601   1.009 -0.1981  1.3259 -0.3710
  825MOL0     C 8786   7.601   5.716   1.081 -0.3474 -1.3403  0.1131
  825MOL0     C 8787   7.657   5.807   1.001 -0.1965 -0.0063  1.0837
  825MOL0     C 8788   7.686   5.953   1.034 -1.0380 -1.4345  0.1990
  825MOL0     C 8789   7.716   6.042   0.924  0.4980  0.1978  0.4838
  825MOL0     C 8790   7.864   6.030   0.881  0.9812 -0.1706  0.5659
  825MOL0     C 8791   7.909   6.138   0.785  0.5736  0.6759 -0.3791
  825MOL0     O 8792   7.896   6.273   0.829  1.0167 -0.3672 -0.7130
  825MOL0     C 8793   7.898   6.372   0.730 -1.1027 -0.6172  0.2913
  825MOL0     C 8794   7.908   6.505   0.781  0.2097 -0.3841 -0.0427
  825MOL0     C 8795   7.906   6.619   0.701  0.4419  0.5268 -0.2260
  825MOL0     C 8796   7.881   6.604   0.564 -0.2350  0.1450 -0.6970
  825MOL0     C 8797   7.849   6.731   0.492  0.7548  0.4855  0.6205
  825MOL0     O 8798   7.819   6.839   0.570  0.7795 -0.4225  0.3687
  825MOL0     C 8799   7.747   6.945   0.510 -0.4026  0.0161 -0.4596
  825MOL0     C 8800   7.787   7.075   0.521  0.1498  0.8127 -0.5574
  825MOL0     C 8801   7.719   7.176   0.464  0.4211 -0.0299 -0.4469
  825MOL0     C 8802   7.609   7.151   0.379  0.2877 -0.4167  0.1615
  825MOL0     O 8803   7.543   7.246   0.316 -0.4613 -0.2156  0.3439
  825MOL0     C 8804   7.526   7.372   0.375  0.2186 -0.5736 -0.5516
  825MOL0     C 8805   7.433   7.362   0.507  0.6618  0.8866 -0.2460
  825MOL0     C 8806   7.289   7.324   0.471  0.4483  0.5051 -0.4314
  825MOL0     C 8807   7.208   7.449   0.424  0.2486  0.1810 -0.3364
  825MOL0     C 8808   7.153   7.534   0.547 -0.0844 -0.2346  0.0591
  825MOL0     C 8809   7.079   7.655   0.513 -0.0663  0.2521  0.1893
  825MOL0     C 8810   7.158   7.763   0.433 -0.7457 -0.0068 -0.9179
  825MOL0     C 8811   7.061   7.878   0.424 -0.0756 -0.2095  0.1745
  825MOL0    Cl 8812   6.909   7.837   0.339 -0.8733  0.2956 -0.0646
  825MOL0     C 8813   7.557   7.019   0.363 -0.5812  0.1686 -0.1028
  825MOL0     C 8814   7.632   6.916   0.432  0.4653  0.4551 -0.1864
  825MOL0     O 8815   7.844   6.729   0.376 -0.1055 -0.3671  0.9214
  825MOL0     C 8816   7.861   6.481   0.505 -0.0401  0.2856 -0.1822
  825MOL0     C 8817   7.880   6.363   0.588 -0.1230 -0.6025  0.3925
  825MOL0     N 8818   7.707   5.754   0.882 -0.3825 -0.0961 -0.1927
  825MOL0     N 8819   7.699   5.625   0.889  0.5051  0.1162 -1.2794
  825MOL0     C 8820   7.220   4.663   1.331 -0.0057 -0.0583  0.1866
  825MOL0     C 8821   7.119   4.580   1.299 -0.3891 -0.5455 -0.1161
  825MOL0     C 8822   6.802   4.277   1.245 -1.0521 -0.1051  1.0930
  825MOL0     C 8823   6.766   4.198   1.141 -0.7017 -0.2983  1.3069
  825MOL0     C 8824   6.644   4.137   1.131 -0.1119 -0.6877  0.0214
  825MOL0     C 8825   6.571   4.117   1.253 -0.2641  0.2021 -0.0324
  825MOL0     O 8826   6.460   4.043   1.238  0.0158 -0.0531  0.0779
  825MOL0     C 8827   6.372   4.020   1.349 -0.2065 -0.2420  0.3583
  825MOL0     C 8828   6.269   3.918   1.299 -0.3283  0.0797 -0.2064
  825MOL0     C 8829   6.152   3.971   1.215 -0.0516 -0.6913  0.0377
  825MOL0     C 8830   6.069   3.854   1.147  0.0637 -0.3448  0.1094
  825MOL0     C 8831   6.018   3.754   1.250  0.5193 -0.0422  0.1287
  825MOL0     C 8832   5.981   3.661   1.327 -1.0453 -0.0295 -0.5078
  825MOL0     C 8833   6.617   4.189   1.366  0.0052 -0.0722 -0.9500
  825MOL0     C 8834   6.728   4.272   1.353 -1.1409 -1.1180 -0.0828
  825MOL0     H 8835   7.047   4.440   1.599 -0.4928 -2.6949 -3.1603
  825MOL0     H 8836   7.225   4.603   1.667  0.6181  1.5955  0.7503
  825MOL0     H 8837   7.454   4.919   1.552 -1.1227  0.3114  0.3541
  825MOL0     H 8838   7.297   4.924   1.496  0.5203 -0.4356  1.6686
  825MOL0     H 8839   7.387   4.906   1.253 -0.1751  1.3897  0.3467
  825MOL0     H 8840   7.534   4.815   1.327 -1.0738 -0.4043  0.2854
  825MOL0     H 8841   7.582   5.048   1.437  2.4620 -0.4093 -1.4882
  825MOL0     H 8842   7.461   5.103   1.323 -0.0733 -0.3389 -1.5542
  825MOL0     H 8843   7.720   4.936   1.246 -1.0444  0.6239  5.0150
  825MOL0     H 8844   7.591   4.979   1.136  2.7385 -2.8456 -0.4441
  825MOL0     H 8845   7.771   5.143   1.108 -0.7306  1.9284 -0.9561
  825MOL0     H 8846   7.759   5.181   1.289 -2.7237 -0.8328  1.9903
  825MOL0     H 8847   7.520   5.265   1.253 -1.1126 -3.7036  0.4561
  825MOL0     H 8848   7.521   5.215   1.094 -2.7201  2.6175  0.2464
  825MOL0     H 8849   7.660   5.458   1.230 -0.1432 -2.1287  2.2268
  825MOL0     H 8850   7.746   5.390   1.090 -2.1160  0.2358 -2.4206
  825MOL0     H 8851   7.460   5.508   1.071 -0.8471  0.3895 -2.3181
  825MOL0     H 8852   7.549   5.418   0.950 -1.5487 -0.6582  0.7986
  825MOL0     H 8853   7.572   5.731   1.184  1.9832 -1.8150  0.9026
  825MOL0     H 8854   7.769   5.964   1.105 -0.8610 -2.5079  0.1704
  825MOL0     H 8855   7.597   5.994   1.082 -0.8157 -1.6589  0.8108
  825MOL0     H 8856   7.697   6.147   0.948 -1.7698 -0.1991  0.6893
  825MOL0     H 8857   7.653   6.022   0.837 -0.7155 -2.1207  1.7744
  825MOL0     H 8858   7.923   6.025   0.973  0.3201 -3.4481  0.9340
  825MOL0     H 8859   7.876   5.934   0.830 -0.1775  0.4965 -1.0353
  825MOL0     H 8860   7.836   6.124   0.705  0.4810 -0.4606 -0.1199
  825MOL0     H 8861   8.007   6.125   0.739  1.3407  0.6176  1.2120
  825MOL0     H 8862   7.922   6.527   0.886  1.1279  0.4594 -0.3243
  825MOL0     H 8863   7.924   6.715   0.749  1.6216  0.0483  0.3306
  825MOL0     H 8864   7.870   7.099   0.586  0.0974 -0.3786 -0.0173
  825MOL0     H 8865   7.766   7.274   0.472 -2.7049  1.8648 -2.7645
  825MOL0     H 8866   7.488   7.452   0.310 -2.3865 -1.1680  0.1473
  825MOL0     H 8867   7.624   7.413   0.403 -0.6250  0.5743  0.7799
  825MOL0     H 8868   7.421   7.455   0.563  1.7983  0.6894  0.3419
  825MOL0     H 8869   7.477   7.282   0.567 -2.6664  1.0959  2.7979
  825MOL0     H 8870   7.246   7.292   0.567  2.7338  0.0520  0.5089
  825MOL0     H 8871   7.292   7.238   0.404 -1.2139 -0.8465  1.1123
  825MOL0     H 8872   7.262   7.508   0.350 -3.3628  0.8785 -2.6126
  825MOL0     H 8873   7.126   7.415   0.361  1.4026 -0.9104 -1.3127
  825MOL0     H 8874   7.242   7.567   0.601 -1.0667 -0.5779  1.9611
  825MOL0     H 8875   7.096   7.475   0.619 -0.6047 -2.5504 -2.1368
  825MOL0     H 8876   7.045   7.711   0.601  0.2516  1.9831 -0.7473
  825MOL0     H 8877   6.995   7.618   0.454 -1.0282  1.0728  1.0048
  825MOL0     H 8878   7.244   7.802   0.488  0.5868 -0.3153 -2.6942
  825MOL0     H 8879   7.199   7.735   0.336 -1.4394 -0.0951 -1.1954
  825MOL0     H 8880   7.113   7.969   0.394 -1.2691  0.7288  0.8555
  825MOL0     H 8881   7.031   7.909   0.525 -0.0821 -2.4445  0.9187
  825MOL0     H 8882   7.468   7.001   0.302 -0.7530 -0.0036  0.1987
  825MOL0     H 8883   7.596   6.814   0.434 -1.3117  1.0509 -0.1458
  825MOL0     H 8884   7.822   6.481   0.404 -2.6644 -1.3721  0.7495
  825MOL0     H 8885   7.876   6.269   0.534  0.6539  1.1849 -3.0446
  825MOL0     H 8886   7.266   4.726   1.255  1.7019 -0.8002  0.5591
  825MOL0     H 8887   7.089   4.595   1.196 -1.5473 -3.2117 -0.2490
  825MOL0     H 8888   6.829   4.191   1.053 -3.2722  0.7454 -0.7573
  825MOL0     H 8889   6.611   4.077   1.046  0.6454 -0.2976 -0.5604
  825MOL0     H 8890   6.330   4.113   1.387  0.8046  0.0157  0.8984
  825MOL0     H 8891   6.429   3.985   1.435 -2.9910 -1.6165  1.7627
  825MOL0     H 8892   6.318   3.833   1.252 -1.1427 -0.5072 -0.0228
  825MOL0     H 8893   6.223   3.880   1.391 -2.1648  2.5920  0.0279
  825MOL0     H 8894   6.189   4.040   1.138  3.1419  0.8601  2.6836
  825MOL0     H 8895   6.084   4.035   1.271 -1.0381  2.2349 -4.0238
  825MOL0     H 8896   5.983   3.909   1.109 -1.7089 -2.9939 -0.0418
  825MOL0     H 8897   6.127   3.809   1.066  0.9276  2.3581 -0.8626
  825MOL0     H 8898   5.947   3.568   1.369 -0.0868  0.1227  0.6437
  825MOL0     H 8899   6.563   4.194   1.460 -0.2565  0.5250 -1.1265
  825MOL0     H 8900   6.741   4.341   1.436 -2.9154  0.0670 -0.7241
  826MOL0     O 8901   7.484   4.667   7.572  0.1344 -0.6730  0.0186
  826MOL0     C 8902   7.574   4.594   7.534  0.0918  0.7232 -0.5028
  826MOL0     O 8903   7.715   4.619   7.527  0.6534 -0.2711 -0.4190
  826MOL0     C 8904   7.764   4.733   7.572 -0.5637 -0.9311 -0.5995
  826MOL0     C 8905   7.804   4.846   7.489  0.4072 -0.3150  0.3038
  826MOL0     C 8906   7.861   4.957   7.551 -0.7813  0.2132 -0.0707
  826MOL0     C 8907   7.895   4.970   7.687  0.1661  0.0362  1.3644
  826MOL0     O 8908   7.955   5.092   7.724  1.0749  0.3592  0.5310
  826MOL0     C 8909   8.065   5.096   7.804 -0.8907  0.1394 -0.5973
  826MOL0     C 8910   8.107   5.245   7.826  0.6384  0.8988 -0.2159
  826MOL0     C 8911   8.205   5.240   7.960  1.4671 -0.1983 -0.1923
  826MOL0     C 8912   8.245   5.376   8.016  0.3177  0.5984 -0.9881
  826MOL0     C 8913   8.333   5.368   8.144 -0.3786  0.0207  0.1244
  826MOL0     C 8914   8.244   5.328   8.271 -0.1719  0.3851 -0.1256
  826MOL0     C 8915   8.328   5.348   8.395 -2.3009 -0.4905 -0.0867
  826MOL0     C 8916   8.253   5.305   8.525 -0.7124  0.3172  0.4209
  826MOL0     N 8917   8.211   5.166   8.535  0.0551  0.4927  0.3110
  826MOL0     C 8918   8.133   5.108   8.634  1.0469 -0.3581  0.2446
  826MOL0     C 8919   8.122   4.978   8.600 -0.3680 -0.0047 -0.4153
  826MOL0     C 8920   8.036   4.870   8.660  0.6848  0.9746  0.1076
  826MOL0     C 8921   8.111   4.799   8.770  0.2306  0.7051 -0.0349
  826MOL0     C 8922   8.141   4.650   8.749  0.2843 -0.4907 -0.6399
  826MOL0     C 8923   8.015   4.545   8.745  0.0835  0.0245 -0.1511
  826MOL0     O 8924   7.936   4.578   8.634  0.4916 -0.3138 -0.5669
  826MOL0     C 8925   7.819   4.516   8.610  0.0012  0.6040  0.7731
  826MOL0     C 8926   7.768   4.410   8.685 -0.3435  0.5332  0.3842
  826MOL0     C 8927   7.660   4.337   8.643  0.7946 -0.4566 -1.1835
  826MOL0     C 8928   7.597   4.368   8.522  0.3157  0.1164  0.6858
  826MOL0     C 8929   7.489   4.291   8.471  0.6013  1.0633  0.8755
  826MOL0     O 8930   7.460   4.294   8.328 -0.4263 -0.5334  0.3912
  826MOL0     C 8931   7.379   4.195   8.262 -0.1739 -0.3634 -0.1596
  826MOL0     C 8932   7.252   4.239   8.199  0.0647  0.2097  0.1866
  826MOL0     C 8933   7.182   4.144   8.131  0.6131 -0.0774 -0.1550
  826MOL0     C 8934   7.226   4.013   8.118  0.3742  0.1558  0.6751
  826MOL0     O 8935   7.144   3.929   8.053 -0.2229  0.0998  0.4972
  826MOL0     C 8936   7.169   3.791   8.054 -0.3001 -0.3194  0.0808
  826MOL0     C 8937   7.045   3.713   8.005  0.0482 -0.1293  0.3049
  826MOL0     C 8938   7.076   3.559   7.981 -0.0346 -0.7851  0.2766
  826MOL0     C 8939   6.982   3.457   7.921  0.6461 -0.6096  1.4802
  826MOL0     C 8940   7.051   3.324   7.920  0.4774 -0.3084 -0.3048
  826MOL0     C 8941   6.940   3.205   7.923 -0.2242  0.3773 -0.5180
  826MOL0     C 8942   7.000   3.065   7.907 -0.8461  0.8942 -0.8710
  826MOL0     C 8943   7.073   3.022   7.778  0.6290  0.3031  0.6878
  826MOL0    Cl 8944   6.966   3.044   7.633 -0.5256  0.1094  0.4814
  826MOL0     C 8945   7.352   3.981   8.158 -0.4859  0.2225  0.0566
  826MOL0     C 8946   7.427   4.070   8.236 -0.2577  0.8926 -0.6100
  826MOL0     O 8947   7.441   4.207   8.537 -0.3454 -0.7491  0.2620
  826MOL0     C 8948   7.631   4.489   8.450 -0.1161 -0.5844 -0.3310
  826MOL0     C 8949   7.751   4.553   8.496 -0.3849  0.0839  0.5079
  826MOL0     N 8950   8.208   4.956   8.486 -0.6968  0.0235 -0.1980
  826MOL0     N 8951   8.263   5.064   8.460 -0.0739  0.1923 -0.0022
  826MOL0     C 8952   7.867   4.858   7.768  0.3160 -0.6502  0.1682
  826MOL0     C 8953   7.798   4.741   7.705  0.0749  0.5956 -1.4376
  826MOL0     C 8954   7.528   4.452   7.505 -0.6169 -0.0020 -0.2834
  826MOL0     C 8955   7.399   4.408   7.550 -0.0135  0.1299 -0.4476
  826MOL0     C 8956   7.361   4.276   7.538 -0.5847 -0.1972 -0.2240
  826MOL0     C 8957   7.451   4.179   7.487 -0.6375 -0.0841 -0.0925
  826MOL0     O 8958   7.413   4.045   7.501 -0.6619  1.0166 -0.2678
  826MOL0     C 8959   7.443   3.949   7.401  0.6041  0.3571 -0.0350
  826MOL0     C 8960   7.362   3.974   7.278 -0.5190  0.3344 -0.3259
  826MOL0     C 8961   7.371   3.863   7.179  0.1140  0.2998 -0.2838
  826MOL0     C 8962   7.278   3.890   7.053  0.1745  0.9417  0.1201
  826MOL0     C 8963   7.350   3.983   6.976 -0.1067 -0.0269 -0.3729
  826MOL0     C 8964   7.433   4.045   6.907  0.2056 -0.1525 -0.8964
  826MOL0     C 8965   7.571   4.223   7.435 -0.1215 -0.4054  0.2560
  826MOL0     C 8966   7.606   4.361   7.444  0.2938  1.0926 -0.6532
  826MOL0     H 8967   7.782   4.829   7.384  1.3890  0.4436 -0.0440
  826MOL0     H 8968   7.883   5.039   7.484  0.0170 -1.1348 -1.5197
  826MOL0     H 8969   8.144   5.037   7.757 -0.5579 -0.4663  0.6963
  826MOL0     H 8970   8.046   5.053   7.903 -0.8441 -0.3131 -0.7825
  826MOL0     H 8971   8.016   5.299   7.857  0.6293  1.4184 -1.1238
  826MOL0     H 8972   8.149   5.297   7.740  1.2689  0.2525 -0.3075
  826MOL0     H 8973   8.294   5.186   7.926  1.6814 -0.4600  0.7428
  826MOL0     H 8974   8.163   5.190   8.048  0.8579 -1.4154 -1.1469
  826MOL0     H 8975   8.307   5.423   7.939 -1.5776  0.6898 -2.5389
  826MOL0     H 8976   8.164   5.449   8.020  0.8058  1.0985  0.2467
  826MOL0     H 8977   8.389   5.461   8.144  2.8350 -1.5462 -4.3589
  826MOL0     H 8978   8.412   5.294   8.125 -0.1408  0.8949 -2.8429
  826MOL0     H 8979   8.222   5.222   8.257 -5.0742  1.4218 -2.6246
  826MOL0     H 8980   8.145   5.373   8.266 -1.1787 -1.6928 -0.1472
  826MOL0     H 8981   8.419   5.288   8.383  0.0257  3.0139 -1.5028
  826MOL0     H 8982   8.358   5.453   8.399 -2.5630 -0.4459  2.3860
  826MOL0     H 8983   8.171   5.377   8.529  0.3345  1.6238 -0.7240
  826MOL0     H 8984   8.322   5.327   8.606 -0.0277 -3.2457  0.9780
  826MOL0     H 8985   8.075   5.159   8.710  0.1956 -2.0026  0.7631
  826MOL0     H 8986   7.985   4.817   8.579  3.5598  0.0876 -1.2772
  826MOL0     H 8987   7.952   4.914   8.714  1.2198  2.0524  0.0830
  826MOL0     H 8988   8.040   4.798   8.853  1.7889 -0.8307  1.3669
  826MOL0     H 8989   8.211   4.831   8.800  0.5473  2.4621 -2.6649
  826MOL0     H 8990   8.189   4.648   8.650 -3.4343  2.0599 -2.7473
  826MOL0     H 8991   8.216   4.619   8.822 -1.4361 -5.0390 -0.4456
  826MOL0     H 8992   7.968   4.574   8.839  1.7941  0.8884  0.4827
  826MOL0     H 8993   8.045   4.440   8.737  0.6780  0.3009 -1.8128
  826MOL0     H 8994   7.816   4.389   8.780  0.1280  3.1840  0.8038
  826MOL0     H 8995   7.612   4.271   8.715  0.9412  0.9529  0.2666
  826MOL0     H 8996   7.226   4.342   8.219  1.8023  0.8884 -0.9007
  826MOL0     H 8997   7.085   4.176   8.093 -0.9994 -0.4910  3.2899
  826MOL0     H 8998   7.192   3.765   8.158 -1.6932 -1.4665  0.1282
  826MOL0     H 8999   7.250   3.762   7.986 -0.2335 -1.6651  0.7061
  826MOL0     H 9000   7.009   3.760   7.914 -1.8173  1.3443  1.7362
  826MOL0     H 9001   6.962   3.725   8.076 -1.8661  0.8917 -1.9787
  826MOL0     H 9002   7.121   3.515   8.071  0.3382 -2.2163 -0.5698
  826MOL0     H 9003   7.149   3.574   7.901 -1.2964  0.1416 -0.7463
  826MOL0     H 9004   6.890   3.449   7.980  0.7942 -0.9050  1.6780
  826MOL0     H 9005   6.950   3.480   7.819  0.1397  2.0173  2.1590
  826MOL0     H 9006   7.116   3.322   8.008 -3.1684 -1.7990  2.6063
  826MOL0     H 9007   7.108   3.327   7.826 -0.7995 -0.9320 -1.1239
  826MOL0     H 9008   6.872   3.214   7.838  1.4477 -3.4911 -2.4838
  826MOL0     H 9009   6.891   3.208   8.021 -0.8047 -0.0097 -0.7975
  826MOL0     H 9010   7.079   3.048   7.981  0.0112 -2.4437 -2.3538
  826MOL0     H 9011   6.945   2.979   7.945  1.6239 -0.2492  0.4049
  826MOL0     H 9012   7.104   2.917   7.774 -0.2628  0.0246  0.7844
  826MOL0     H 9013   7.168   3.075   7.771 -0.3873  2.0562 -0.6093
  826MOL0     H 9014   7.389   3.881   8.138  1.7313  0.3368  3.0212
  826MOL0     H 9015   7.522   4.048   8.285  0.4719  3.0499 -0.9464
  826MOL0     H 9016   7.589   4.511   8.352  0.7030 -0.7369 -0.7265
  826MOL0     H 9017   7.782   4.636   8.432 -2.5191  0.6913  0.1823
  826MOL0     H 9018   7.888   4.858   7.874 -0.2700  0.1713  0.2961
  826MOL0     H 9019   7.774   4.664   7.778  4.0064  1.0959  0.6173
  826MOL0     H 9020   7.336   4.479   7.602 -0.5864  1.0321 -2.2686
  826MOL0     H 9021   7.261   4.236   7.552 -0.1303 -0.7725  1.7839
  826MOL0     H 9022   7.435   3.842   7.421 -1.0343  0.3777 -0.4186
  826MOL0     H 9023   7.549   3.956   7.375  0.1359  3.3135 -1.5190
  826MOL0     H 9024   7.255   3.975   7.301 -0.3485 -2.7288  1.0388
  826MOL0     H 9025   7.381   4.074   7.237 -2.9967  0.9289 -0.1380
  826MOL0     H 9026   7.341   3.771   7.231  0.2045  1.2195  1.4880
  826MOL0     H 9027   7.475   3.850   7.149 -0.3774  1.0397 -2.4265
  826MOL0     H 9028   7.258   3.806   6.987 -2.4730 -0.3245  2.3188
  826MOL0     H 9029   7.181   3.930   7.086 -0.5387 -1.1931  0.7339
  826MOL0     H 9030   7.519   4.100   6.875 -0.4479  2.2009  1.0563
  826MOL0     H 9031   7.642   4.150   7.396 -0.6839 -0.8900  0.1183
  826MOL0     H 9032   7.704   4.396   7.414  0.8115  2.3605  2.1702
  827MOL0     O 9033   6.578   1.213   9.901  0.0639 -1.0392  0.2892
  827MOL0     C 9034   6.602   1.241   9.784  0.2487 -0.7145 -0.0372
  827MOL0     O 9035   6.513   1.287   9.691 -0.2714  0.1303  0.3635
  827MOL0     C 9036   6.383   1.254   9.702  0.8091 -0.2469 -0.5550
  827MOL0     C 9037   6.333   1.141   9.773  0.6985 -0.8979 -1.5224
  827MOL0     C 9038   6.197   1.125   9.797  0.1759 -0.5668  0.2975
  827MOL0     C 9039   6.123   1.237   9.764  0.8584 -0.6528  0.1891
  827MOL0     O 9040   5.995   1.236   9.811  0.6868  0.0352  0.1173
  827MOL0     C 9041   5.907   1.157   9.725  0.8425 -0.3095 -0.2267
  827MOL0     C 9042   5.857   1.220   9.593  0.3016 -0.9777 -0.5246
  827MOL0     C 9043   5.707   1.190   9.585  0.9743  1.2922  1.0442
  827MOL0     C 9044   5.674   1.039   9.546 -0.1217  0.0954  0.1263
  827MOL0     C 9045   5.552   0.970   9.614  0.4756 -0.1079 -0.3132
  827MOL0     C 9046   5.601   0.914   9.742  0.5813  0.2037  0.6027
  827MOL0     C 9047   5.493   0.846   9.819 -0.5172  1.1615 -0.3508
  827MOL0     C 9048   5.522   0.832   9.963 -0.0889 -0.1035 -0.4294
  827MOL0     N 9049   5.532   0.965  10.025 -0.2849  1.0940 -0.4024
  827MOL0     C 9050   5.444   1.069  10.037 -0.3748 -0.2000  0.9578
  827MOL0     C 9051   5.527   1.174  10.075  0.0941 -0.0762  0.5413
  827MOL0     C 9052   5.480   1.313  10.102 -0.1133  0.3289  1.3502
  827MOL0     C 9053   5.465   1.339  10.254 -1.1541  0.2888  0.9475
  827MOL0     C 9054   5.386   1.227  10.324  0.2243  0.0457  0.2662
  827MOL0     C 9055   5.322   1.286  10.450  0.1513  0.2685 -0.3011
  827MOL0     O 9056   5.409   1.335  10.555 -0.0940  0.5088 -1.0670
  827MOL0     C 9057   5.351   1.428  10.640 -0.7633  0.0431  0.3037
  827MOL0     C 9058   5.230   1.424  10.711  0.3023 -0.7366 -0.0140
  827MOL0     C 9059   5.178   1.533  10.783 -0.1509  0.2057 -0.4541
  827MOL0     C 9060   5.252   1.653  10.783  0.1159  0.6208  0.2436
  827MOL0     C 9061   5.207   1.768  10.870  1.0964 -0.0100 -0.4569
  827MOL0     O 9062   5.077   1.766  10.915  0.2232 -0.1214 -0.3415
  827MOL0     C 9063   5.030   1.876  10.988 -0.2328 -0.6083 -0.2077
  827MOL0     C 9064   5.075   1.898  11.121 -0.1047  0.1709 -0.3187
  827MOL0     C 9065   5.023   1.998  11.200  0.0533 -0.6456  0.0852
  827MOL0     C 9066   4.941   2.098  11.154  0.1620  0.2610  0.2781
  827MOL0     O 9067   4.902   2.199  11.244 -0.1508 -0.5063  0.6027
  827MOL0     C 9068   4.829   2.305  11.189  1.0464  0.7263  0.6706
  827MOL0     C 9069   4.798   2.399  11.311  0.5251  0.1168 -0.8298
  827MOL0     C 9070   4.692   2.505  11.267  0.9970 -1.1755 -0.7006
  827MOL0     C 9071   4.542   2.453  11.261 -0.3262 -0.5955  0.4141
  827MOL0     C 9072   4.444   2.568  11.253  0.2965 -0.7792 -0.5305
  827MOL0     C 9073   4.462   2.653  11.127 -0.8701  0.9175 -0.4449
  827MOL0     C 9074   4.340   2.744  11.088  0.8632  0.0708  0.3485
  827MOL0     C 9075   4.203   2.682  11.100 -0.4880 -0.3445 -0.9933
  827MOL0    Cl 9076   4.074   2.759  11.003  0.0866  0.7149  0.3798
  827MOL0     C 9077   4.878   2.071  11.027 -0.0076  0.5241  0.2465
  827MOL0     C 9078   4.932   1.966  10.944 -0.7382 -0.4256 -0.3639
  827MOL0     O 9079   5.288   1.858  10.893 -0.4409  0.1182 -0.3734
  827MOL0     C 9080   5.374   1.656  10.717 -1.1786 -0.2791  0.2549
  827MOL0     C 9081   5.418   1.547  10.640 -0.1990 -0.5791  0.1529
  827MOL0     N 9082   5.659   1.131  10.071  0.3414  0.2969  0.4246
  827MOL0     N 9083   5.658   1.002  10.061 -0.0256  0.0056  0.0277
  827MOL0     C 9084   6.161   1.328   9.671  0.3854 -0.2094 -0.0298
  827MOL0     C 9085   6.293   1.335   9.630 -0.4105 -0.8794 -0.1333
  827MOL0     C 9086   6.736   1.205   9.731 -0.7905  0.0154 -0.5936
  827MOL0     C 9087   6.748   1.126   9.617  0.1557 -0.4875  0.1536
  827MOL0     C 9088   6.872   1.088   9.558  0.3495 -0.0251  1.5319
  827MOL0     C 9089   6.990   1.131   9.624  0.0847 -0.7982  0.4285
  827MOL0     O 9090   7.114   1.100   9.576  0.0715 -0.2418  0.8700
  827MOL0     C 9091   7.144   1.139   9.439  0.2149 -0.0667 -1.0969
  827MOL0     C 9092   7.134   1.286   9.422  0.4073 -0.6076  0.1890
  827MOL0     C 9093   7.182   1.341   9.290 -0.1899  1.0411 -1.5075
  827MOL0     C 9094   7.183   1.487   9.305 -0.5430  1.0309  0.3176
  827MOL0     C 9095   7.063   1.555   9.271 -0.5815  0.1627  0.5746
  827MOL0     C 9096   6.957   1.600   9.216 -0.9610  0.3436 -0.3763
  827MOL0     C 9097   6.978   1.191   9.753 -0.2123 -0.4262  0.0419
  827MOL0     C 9098   6.853   1.229   9.803  0.0399 -0.2724 -0.7096
  827MOL0     H 9099   6.391   1.060   9.816 -1.0759 -1.3468  0.1627
  827MOL0     H 9100   6.162   1.036   9.848 -0.1833  1.0446  3.0731
  827MOL0     H 9101   5.821   1.137   9.790  1.1311  1.3890  0.7658
  827MOL0     H 9102   5.959   1.063   9.708 -0.2016 -0.8996 -0.2515
  827MOL0     H 9103   5.913   1.178   9.509  0.6728 -3.4074  0.8305
  827MOL0     H 9104   5.863   1.328   9.605  1.6129 -1.2529  1.9809
  827MOL0     H 9105   5.671   1.246   9.498  0.8319  0.2727  0.4305
  827MOL0     H 9106   5.650   1.218   9.674 -0.1696 -0.1780  0.8290
  827MOL0     H 9107   5.639   1.039   9.442 -0.3245 -0.6578  0.1860
  827MOL0     H 9108   5.768   0.982   9.547  0.4962  1.0833  1.5710
  827MOL0     H 9109   5.512   0.898   9.543 -1.3412  1.2192 -0.7290
  827MOL0     H 9110   5.473   1.040   9.644  0.8817 -1.0886  3.4718
  827MOL0     H 9111   5.636   0.994   9.807 -0.3618 -0.9124  2.5581
  827MOL0     H 9112   5.696   0.862   9.724  0.5554  0.4983 -0.4780
  827MOL0     H 9113   5.404   0.909   9.816 -1.3402  0.2037  2.0148
  827MOL0     H 9114   5.482   0.747   9.774 -2.4497  1.3935 -0.4514
  827MOL0     H 9115   5.613   0.773   9.978  1.0783  1.9401  0.9624
  827MOL0     H 9116   5.439   0.774  10.003 -0.4694  0.4391 -0.4343
  827MOL0     H 9117   5.337   1.066  10.015 -0.1358  1.5344 -0.7296
  827MOL0     H 9118   5.385   1.335  10.054 -1.5236 -0.0491  3.7876
  827MOL0     H 9119   5.550   1.386  10.061  0.1777 -0.9847 -0.6047
  827MOL0     H 9120   5.400   1.427  10.257 -1.4439  0.1324 -0.2308
  827MOL0     H 9121   5.566   1.356  10.292  0.4305  0.9010 -3.0488
  827MOL0     H 9122   5.305   1.182  10.266  1.4960 -3.5938  1.0691
  827MOL0     H 9123   5.454   1.143  10.341 -0.2308 -0.5364 -0.7543
  827MOL0     H 9124   5.262   1.205  10.492  1.0392  0.2071  0.9016
  827MOL0     H 9125   5.255   1.368  10.421  1.4769  0.9663 -1.5017
  827MOL0     H 9126   5.177   1.330  10.696 -0.4600 -1.0913  3.8822
  827MOL0     H 9127   5.083   1.535  10.834 -2.0032  1.8125 -3.6262
  827MOL0     H 9128   5.142   1.823  11.162 -2.5089 -2.5302 -1.0415
  827MOL0     H 9129   5.042   2.006  11.306 -0.5166 -1.3460  0.2519
  827MOL0     H 9130   4.737   2.268  11.141  2.1141 -1.3013  0.0439
  827MOL0     H 9131   4.902   2.345  11.119  1.8497 -1.8053 -0.0635
  827MOL0     H 9132   4.889   2.453  11.339 -0.0121 -0.2851  1.9385
  827MOL0     H 9133   4.752   2.349  11.396 -2.4054  2.3477 -0.9382
  827MOL0     H 9134   4.720   2.541  11.167 -2.0612  0.9165 -0.9566
  827MOL0     H 9135   4.686   2.583  11.344 -3.9348 -3.1008  1.2475
  827MOL0     H 9136   4.535   2.376  11.184  2.2778 -2.1184  1.5916
  827MOL0     H 9137   4.536   2.403  11.358  1.4753 -0.4477  0.6315
  827MOL0     H 9138   4.453   2.630  11.343  4.4885 -0.6860 -0.8588
  827MOL0     H 9139   4.342   2.528  11.261 -0.9000  2.2874  2.3110
  827MOL0     H 9140   4.491   2.587  11.045 -1.2045 -0.7081  0.7031
  827MOL0     H 9141   4.554   2.708  11.146  0.2859 -1.3906  1.0635
  827MOL0     H 9142   4.349   2.846  11.125  1.9615 -0.2815  1.0961
  827MOL0     H 9143   4.354   2.748  10.980  3.1934  0.3656  0.6244
  827MOL0     H 9144   4.179   2.682  11.206  1.1067  1.4875 -0.5799
  827MOL0     H 9145   4.209   2.579  11.062  2.1458  0.6253 -3.6541
  827MOL0     H 9146   4.812   2.141  10.977  0.8389  0.3180 -1.2033
  827MOL0     H 9147   4.901   1.949  10.842 -0.0306  0.3510 -0.7226
  827MOL0     H 9148   5.433   1.747  10.720  0.8210 -1.5457  1.9692
  827MOL0     H 9149   5.512   1.565  10.589 -0.1494 -0.4009  0.3040
  827MOL0     H 9150   6.095   1.406   9.633  3.2967  2.0151 -0.9238
  827MOL0     H 9151   6.325   1.412   9.561 -1.4273 -1.3206 -1.1161
  827MOL0     H 9152   6.653   1.094   9.575 -1.3632 -0.5809  3.3708
  827MOL0     H 9153   6.892   1.044   9.461  3.0275  0.1097  1.9589
  827MOL0     H 9154   7.074   1.097   9.367 -0.5469  2.4277 -1.9229
  827MOL0     H 9155   7.247   1.109   9.419  0.2652  1.0744 -2.7247
  827MOL0     H 9156   7.030   1.318   9.432  1.1542  1.1552  3.7640
  827MOL0     H 9157   7.201   1.329   9.497 -0.5797 -0.6740  1.1282
  827MOL0     H 9158   7.129   1.299   9.205  2.3120 -2.1023 -1.7288
  827MOL0     H 9159   7.284   1.302   9.284 -0.0683 -0.0676  3.3296
  827MOL0     H 9160   7.234   1.515   9.398  2.3531 -1.5985 -0.3036
  827MOL0     H 9161   7.254   1.514   9.226 -0.2251 -1.6781 -0.4225
  827MOL0     H 9162   6.873   1.643   9.166 -1.6252  0.9420  1.1943
  827MOL0     H 9163   7.066   1.221   9.809 -0.0382 -0.3389 -0.2725
  827MOL0     H 9164   6.839   1.296   9.887  1.4918  0.4320 -1.0018
  828MOL0     O 9165   6.172   2.144   6.315  0.2521  0.3536  0.2450
  828MOL0     C 9166   6.239   2.146   6.213  0.1594  0.4432  0.5345
  828MOL0     O 9167   6.215   2.226   6.110 -0.0817  0.1678 -0.1154
  828MOL0     C 9168   6.158   2.358   6.117 -0.5249 -0.7258 -0.0539
  828MOL0     C 9169   6.130   2.420   5.994 -0.1289  1.4389  0.0687
  828MOL0     C 9170   6.092   2.556   5.989  0.5801  0.1070  0.0141
  828MOL0     C 9171   6.079   2.632   6.106  0.1081 -0.0139  0.1923
  828MOL0     O 9172   6.046   2.766   6.112 -0.3149 -0.1065 -0.1058
  828MOL0     C 9173   5.969   2.813   6.006  0.2095  0.0502 -0.1707
  828MOL0     C 9174   5.896   2.947   6.032 -0.3012 -0.1429 -0.5215
  828MOL0     C 9175   5.821   3.002   5.911 -0.3761  0.2996 -0.2708
  828MOL0     C 9176   5.703   2.924   5.862 -0.3779 -0.6248  0.8729
  828MOL0     C 9177   5.712   2.869   5.715 -0.7351 -0.4187  0.7476
  828MOL0     C 9178   5.809   2.743   5.714 -1.2749 -0.0237 -0.2567
  828MOL0     C 9179   5.828   2.703   5.566  0.2484  0.4191 -0.2929
  828MOL0     C 9180   5.935   2.584   5.537  0.7106 -0.0651 -0.2973
  828MOL0     N 9181   5.909   2.449   5.592 -0.1787  0.1895  0.4050
  828MOL0     C 9182   5.814   2.368   5.545  0.1629 -0.8690 -0.2253
  828MOL0     C 9183   5.802   2.272   5.630  0.9108 -0.0672 -0.1747
  828MOL0     C 9184   5.716   2.151   5.601  0.7365  0.6237 -0.2826
  828MOL0     C 9185   5.735   2.036   5.702  0.0751  0.5428  0.2753
  828MOL0     C 9186   5.645   1.915   5.665  0.3290  0.0619 -0.1709
  828MOL0     C 9187   5.493   1.915   5.712 -0.0969  0.4491  0.5717
  828MOL0     O 9188   5.420   1.800   5.659  0.1051 -0.4154  0.2833
  828MOL0     C 9189   5.280   1.788   5.680  0.3819  0.4259  0.4344
  828MOL0     C 9190   5.193   1.737   5.577 -0.6040 -0.0179 -0.1443
  828MOL0     C 9191   5.051   1.740   5.593  0.4099 -0.8664 -0.0448
  828MOL0     C 9192   4.991   1.783   5.719  0.2825  0.5327 -0.7760
  828MOL0     C 9193   4.852   1.768   5.747  0.4013 -0.6921 -0.2333
  828MOL0     O 9194   4.783   1.728   5.640 -0.8719 -0.1282  0.8573
  828MOL0     C 9195   4.649   1.733   5.645  0.5183  1.1258  0.5524
  828MOL0     C 9196   4.574   1.844   5.596  0.6702 -0.5959  1.0878
  828MOL0     C 9197   4.439   1.848   5.631  0.5465  0.4181 -0.0514
  828MOL0     C 9198   4.365   1.740   5.679  0.8124  0.8773  0.8939
  828MOL0     O 9199   4.232   1.739   5.688  0.7143  0.8534 -0.2849
  828MOL0     C 9200   4.182   1.696   5.560  0.2390 -0.2561 -0.0108
  828MOL0     C 9201   4.034   1.668   5.578 -0.4620  0.3091  0.2097
  828MOL0     C 9202   3.962   1.798   5.619  0.6453  0.0588 -0.6039
  828MOL0     C 9203   3.808   1.791   5.616 -1.3901 -0.6058 -0.7592
  828MOL0     C 9204   3.767   1.917   5.686  0.0471  0.0523  0.2432
  828MOL0     C 9205   3.615   1.911   5.733  0.1425 -0.1988  0.3469
  828MOL0     C 9206   3.570   2.027   5.825  0.1018  0.2887 -0.3644
  828MOL0     C 9207   3.446   1.995   5.909  0.0828 -1.2489  0.8121
  828MOL0    Cl 9208   3.475   1.851   6.013  0.2473  0.1488  0.7556
  828MOL0     C 9209   4.442   1.628   5.729 -0.2464  0.1704 -0.3275
  828MOL0     C 9210   4.583   1.626   5.701  0.5248 -0.1142  0.0159
  828MOL0     O 9211   4.801   1.799   5.855 -1.1007 -0.0317  0.4587
  828MOL0     C 9212   5.082   1.834   5.815  0.6292  0.6945  0.3742
  828MOL0     C 9213   5.213   1.841   5.791 -0.0930  0.2557 -0.3323
  828MOL0     N 9214   5.889   2.289   5.737  0.9263  0.2932  0.3346
  828MOL0     N 9215   5.962   2.389   5.701 -0.5618  0.5922 -0.4576
  828MOL0     C 9216   6.107   2.564   6.226  0.2060  0.5804  0.2776
  828MOL0     C 9217   6.158   2.429   6.233 -0.1325 -0.6112  0.0705
  828MOL0     C 9218   6.349   2.045   6.202 -0.0768  0.4342  0.2680
  828MOL0     C 9219   6.470   2.077   6.134  1.0005  0.6200 -0.0776
  828MOL0     C 9220   6.562   1.985   6.118 -0.1823  0.7121  1.0965
  828MOL0     C 9221   6.554   1.858   6.169  0.5372  0.1603  0.6266
  828MOL0     O 9222   6.651   1.761   6.144  0.3957  0.3767 -0.0666
  828MOL0     C 9223   6.776   1.793   6.204  0.6455  0.8912 -1.1031
  828MOL0     C 9224   6.790   1.714   6.337  0.9280 -0.4575  0.1915
  828MOL0     C 9225   6.915   1.751   6.412  0.0046  0.1066  0.4291
  828MOL0     C 9226   7.055   1.716   6.363  0.2515  0.4214  0.3650
  828MOL0     C 9227   7.068   1.575   6.398 -0.1160 -0.3720  0.6349
  828MOL0     C 9228   7.068   1.454   6.393 -0.5102 -0.1994 -0.7568
  828MOL0     C 9229   6.454   1.828   6.262  0.1496  0.6047  0.0232
  828MOL0     C 9230   6.351   1.921   6.275 -0.0561 -0.2446 -0.4918
  828MOL0     H 9231   6.126   2.369   5.898 -0.8685  1.7460 -0.0692
  828MOL0     H 9232   6.065   2.597   5.892  1.6188 -1.1662 -0.8527
  828MOL0     H 9233   5.894   2.736   5.990 -1.6451  2.3732 -3.9996
  828MOL0     H 9234   6.041   2.828   5.925  1.4768 -1.3405  0.6254
  828MOL0     H 9235   5.970   3.014   6.077 -0.6246 -1.0682  1.5328
  828MOL0     H 9236   5.817   2.920   6.103 -1.8746 -0.7201 -2.3955
  828MOL0     H 9237   5.896   2.987   5.832  0.5998  0.8073  0.5321
  828MOL0     H 9238   5.802   3.110   5.919  0.6738  0.5429 -0.8369
  828MOL0     H 9239   5.676   2.842   5.929 -0.8816 -0.3367  1.0303
  828MOL0     H 9240   5.613   2.984   5.878 -1.3947 -2.2124  1.3109
  828MOL0     H 9241   5.752   2.952   5.656  0.7967 -0.0289  2.2615
  828MOL0     H 9242   5.611   2.837   5.689  0.0606 -0.5468 -2.6753
  828MOL0     H 9243   5.773   2.665   5.781 -0.4098  0.3663  0.6766
  828MOL0     H 9244   5.912   2.770   5.740 -0.9869 -0.4197 -0.9643
  828MOL0     H 9245   5.740   2.657   5.520  0.7009 -0.7834 -0.0111
  828MOL0     H 9246   5.868   2.789   5.512  2.6755  0.6380  1.6922
  828MOL0     H 9247   6.036   2.607   5.573 -0.0312  1.5339  0.8678
  828MOL0     H 9248   5.945   2.571   5.429  2.2028  1.5756 -0.3990
  828MOL0     H 9249   5.762   2.386   5.451  1.9647 -1.4655 -1.3686
  828MOL0     H 9250   5.745   2.118   5.500 -0.6295 -3.6521  0.5262
  828MOL0     H 9251   5.614   2.191   5.597  0.4949  0.0091 -3.6866
  828MOL0     H 9252   5.716   2.061   5.806 -0.6092 -3.2647  1.1959
  828MOL0     H 9253   5.841   2.008   5.706 -0.5081 -2.2511 -1.4209
  828MOL0     H 9254   5.638   1.917   5.556 -0.3011 -0.1078 -0.1404
  828MOL0     H 9255   5.692   1.820   5.692 -2.0491 -1.0590  0.3265
  828MOL0     H 9256   5.445   2.004   5.670  1.5074  0.5321 -1.1871
  828MOL0     H 9257   5.486   1.918   5.821  0.9542  0.3205  0.6488
  828MOL0     H 9258   5.224   1.692   5.484 -1.2131 -0.6120 -0.0683
  828MOL0     H 9259   4.996   1.681   5.520  2.0657 -2.1652 -0.3008
  828MOL0     H 9260   4.626   1.922   5.540 -0.1928 -2.8531 -3.3264
  828MOL0     H 9261   4.381   1.937   5.606  3.3580  2.0651 -1.1215
  828MOL0     H 9262   4.227   1.598   5.541  1.7798  0.5417 -0.7128
  828MOL0     H 9263   4.216   1.757   5.476  2.2851 -0.6750  0.4428
  828MOL0     H 9264   4.032   1.595   5.660  0.3607 -0.8698 -0.7694
  828MOL0     H 9265   3.993   1.625   5.486 -0.7771 -0.0944  0.5306
  828MOL0     H 9266   3.988   1.869   5.540  2.2181 -2.6204 -2.6533
  828MOL0     H 9267   3.993   1.819   5.721  1.4406 -0.2381 -0.7818
  828MOL0     H 9268   3.774   1.806   5.513 -1.4627  1.2793 -0.4883
  828MOL0     H 9269   3.761   1.703   5.662 -2.6647 -1.6219 -3.7636
  828MOL0     H 9270   3.782   1.998   5.614  1.8221 -1.2157 -0.9018
  828MOL0     H 9271   3.827   1.926   5.778 -1.5876 -0.8114  1.4453
  828MOL0     H 9272   3.604   1.819   5.791 -1.8587  0.8989  1.8160
  828MOL0     H 9273   3.553   1.908   5.643  2.4207  0.4699 -1.3561
  828MOL0     H 9274   3.651   2.047   5.896  0.8715 -1.1424 -0.8135
  828MOL0     H 9275   3.568   2.114   5.758  1.0765 -0.4913 -1.4445
  828MOL0     H 9276   3.361   1.987   5.840  0.4551 -1.2043  0.3397
  828MOL0     H 9277   3.442   2.086   5.969  0.0969 -0.3080 -0.5604
  828MOL0     H 9278   4.382   1.551   5.776 -3.1724  2.4795  0.0278
  828MOL0     H 9279   4.629   1.533   5.731 -0.4612 -0.8877 -0.7743
  828MOL0     H 9280   5.032   1.873   5.903 -1.7018 -0.4777 -0.3457
  828MOL0     H 9281   5.267   1.901   5.863 -0.8716 -0.5818  0.9887
  828MOL0     H 9282   6.104   2.617   6.321 -1.0406  0.2567  0.4360
  828MOL0     H 9283   6.175   2.388   6.332 -2.7623 -0.3271  0.7229
  828MOL0     H 9284   6.470   2.172   6.081 -2.2707 -1.3405 -4.1911
  828MOL0     H 9285   6.634   2.013   6.043 -1.1494 -1.2967 -0.6668
  828MOL0     H 9286   6.791   1.900   6.222 -1.8106  0.8477  1.9390
  828MOL0     H 9287   6.853   1.756   6.136 -0.6002 -0.4792 -1.8296
  828MOL0     H 9288   6.705   1.732   6.403  0.1575 -2.9775  0.0080
  828MOL0     H 9289   6.794   1.605   6.324 -1.5902 -0.4736 -1.1940
  828MOL0     H 9290   6.901   1.731   6.519  0.7721  2.8058  1.1211
  828MOL0     H 9291   6.917   1.861   6.410 -1.1156  0.1745 -3.0749
  828MOL0     H 9292   7.074   1.722   6.256 -2.2658 -1.2961 -0.2790
  828MOL0     H 9293   7.126   1.779   6.418  0.5154 -0.5035  1.1209
  828MOL0     H 9294   7.065   1.348   6.385  0.5249 -0.2387 -0.7324
  828MOL0     H 9295   6.442   1.729   6.305 -4.0361  1.9976  2.6563
  828MOL0     H 9296   6.264   1.905   6.338  1.4845  1.7960  2.4072
  829MOL0     O 9297   8.810   0.479   2.644  1.1135 -0.3785 -0.1808
  829MOL0     C 9298   8.706   0.473   2.717 -0.7342  0.2436  0.4270
  829MOL0     O 9299   8.708   0.447   2.845 -0.4152  0.4435 -0.8589
  829MOL0     C 9300   8.812   0.399   2.920 -0.1990  0.5576  0.5851
  829MOL0     C 9301   8.903   0.307   2.865 -0.0602 -0.0349 -0.2829
  829MOL0     C 9302   9.022   0.266   2.935  0.3339  0.6631 -0.0941
  829MOL0     C 9303   9.052   0.320   3.062  0.2246 -0.7519 -0.1367
  829MOL0     O 9304   9.165   0.275   3.118 -0.3907 -0.0074  0.3700
  829MOL0     C 9305   9.233   0.361   3.213  1.2422  0.3007  0.1980
  829MOL0     C 9306   9.373   0.300   3.240 -0.8177 -0.3758  0.2610
  829MOL0     C 9307   9.408   0.213   3.367  0.4632  0.2656  0.1619
  829MOL0     C 9308   9.426   0.300   3.484 -0.6578  0.1355  0.6043
  829MOL0     C 9309   9.450   0.208   3.607 -0.2205  0.5958 -0.1171
  829MOL0     C 9310   9.591   0.131   3.615  0.2139  0.5286  0.2619
  829MOL0     C 9311   9.642   0.148   3.760  0.0639 -1.0692  0.8560
  829MOL0     C 9312   9.769   0.073   3.783  0.6966  0.7009  0.0724
  829MOL0     N 9313   9.735  -0.070   3.772 -0.1300  0.6713  0.1532
  829MOL0     C 9314   9.659  -0.148   3.850 -1.4131 -0.7677 -1.0522
  829MOL0     C 9315   9.709  -0.274   3.849 -0.9206 -0.1871  0.3908
  829MOL0     C 9316   9.651  -0.398   3.914 -1.0909  0.1113  0.1086
  829MOL0     C 9317   9.575  -0.356   4.036  0.5784 -0.2529  0.2777
  829MOL0     C 9318   9.532  -0.492   4.098  1.0891 -0.5006 -0.1463
  829MOL0     C 9319   9.456  -0.478   4.224 -1.6933  0.7456  0.9101
  829MOL0     O 9320   9.558  -0.437   4.323  0.6055  0.6338 -0.1930
  829MOL0     C 9321   9.609  -0.540   4.395 -0.1361 -0.7613 -0.2682
  829MOL0     C 9322   9.689  -0.501   4.499  0.5429 -0.5929  0.0767
  829MOL0     C 9323   9.770  -0.590   4.574  0.5663 -0.6319  0.9316
  829MOL0     C 9324   9.769  -0.726   4.553  0.3336 -0.7934  0.4352
  829MOL0     C 9325   9.826  -0.812   4.663 -0.0200  0.1736  1.1833
  829MOL0     O 9326   9.863  -0.935   4.614  1.3390  0.9216  0.1199
  829MOL0     C 9327   9.919  -1.038   4.686  0.3403  0.7720 -0.5866
  829MOL0     C 9328   9.888  -1.064   4.819 -0.3538 -0.6018  0.6920
  829MOL0     C 9329   9.976  -1.153   4.886  0.3904  1.3891  0.2304
  829MOL0     C 9330  10.079  -1.228   4.820  0.5519 -0.0844  0.3029
  829MOL0     O 9331  10.164  -1.312   4.889 -0.3468 -0.0916  0.3042
  829MOL0     C 9332  10.110  -1.375   5.006 -0.3665  0.2310  0.3022
  829MOL0     C 9333  10.206  -1.497   5.047 -0.0761 -1.3580  0.8076
  829MOL0     C 9334  10.347  -1.452   5.081  0.2470  0.0747  0.4429
  829MOL0     C 9335  10.435  -1.566   5.138 -0.2869 -0.1488  0.3123
  829MOL0     C 9336  10.586  -1.534   5.113 -0.9412 -0.0340  0.6878
  829MOL0     C 9337  10.640  -1.553   4.967 -0.1764  0.2243 -0.5192
  829MOL0     C 9338  10.798  -1.530   4.972  0.4683  0.3280  0.9393
  829MOL0     C 9339  10.854  -1.597   4.849 -0.3421  0.1591  1.0040
  829MOL0    Cl 9340  11.028  -1.585   4.875 -0.0372  0.2003 -0.2298
  829MOL0     C 9341  10.108  -1.204   4.683  0.0256 -0.1548  0.3326
  829MOL0     C 9342  10.027  -1.102   4.617 -0.5748 -0.9882  0.2087
  829MOL0     O 9343   9.834  -0.775   4.780  0.1737  0.0475  0.5098
  829MOL0     C 9344   9.680  -0.769   4.454  0.6953 -1.0224  0.1198
  829MOL0     C 9345   9.612  -0.680   4.368  0.5573 -0.8676  0.1852
  829MOL0     N 9346   9.822  -0.280   3.763  0.5073  0.1018  1.8692
  829MOL0     N 9347   9.832  -0.158   3.713 -0.0997 -0.2267 -1.6955
  829MOL0     C 9348   8.962   0.409   3.122 -0.5453 -0.2678  0.8994
  829MOL0     C 9349   8.839   0.445   3.051 -0.7558 -0.3111  0.3501
  829MOL0     C 9350   8.571   0.495   2.654  1.1295  0.0566 -0.0906
  829MOL0     C 9351   8.454   0.466   2.721  0.2444 -0.7947 -0.4138
  829MOL0     C 9352   8.331   0.498   2.681 -0.2133 -0.0464  0.2761
  829MOL0     C 9353   8.319   0.558   2.554  0.1025 -0.1518  0.0490
  829MOL0     O 9354   8.197   0.574   2.501  0.8525 -0.5283  0.3426
  829MOL0     C 9355   8.142   0.698   2.472  0.0168  0.0503 -0.3945
  829MOL0     C 9356   7.986   0.686   2.446 -0.3318 -0.3712  0.5797
  829MOL0     C 9357   7.915   0.800   2.395  0.0729  0.3998 -0.3026
  829MOL0     C 9358   7.937   0.832   2.241 -0.3590  0.1416 -0.5543
  829MOL0     C 9359   7.858   0.745   2.160  0.0315  0.9014 -0.2358
  829MOL0     C 9360   7.797   0.670   2.096 -0.0070 -0.1853  0.1437
  829MOL0     C 9361   8.426   0.585   2.474  0.4178  1.2947  0.1490
  829MOL0     C 9362   8.554   0.562   2.524 -0.7835 -0.0543 -0.0615
  829MOL0     H 9363   8.867   0.266   2.771 -1.4308 -2.0346  1.0208
  829MOL0     H 9364   9.092   0.196   2.891 -2.7382 -1.3035 -2.2831
  829MOL0     H 9365   9.187   0.380   3.311  0.8153 -1.3995  0.3606
  829MOL0     H 9366   9.243   0.454   3.157 -0.4447 -0.0176 -0.6968
  829MOL0     H 9367   9.444   0.383   3.234  1.1452 -1.7421  2.4542
  829MOL0     H 9368   9.394   0.239   3.152 -2.3960  0.4113 -0.7008
  829MOL0     H 9369   9.493   0.146   3.351  0.3048 -0.3289  1.5932
  829MOL0     H 9370   9.326   0.143   3.381  0.5402  0.1843  0.2049
  829MOL0     H 9371   9.509   0.371   3.483 -1.7690  1.4921  1.1676
  829MOL0     H 9372   9.336   0.360   3.500 -2.1295 -1.4432 -1.2381
  829MOL0     H 9373   9.371   0.133   3.614  0.0923  0.3439  0.8669
  829MOL0     H 9374   9.443   0.276   3.692 -0.0722  1.2817 -0.6423
  829MOL0     H 9375   9.661   0.175   3.544 -3.0169  1.8994 -2.3461
  829MOL0     H 9376   9.590   0.023   3.600 -0.1931  0.4452  0.8696
  829MOL0     H 9377   9.673   0.253   3.764 -0.6070 -0.3251 -4.9059
  829MOL0     H 9378   9.568   0.123   3.837 -2.4383 -2.6763 -1.8689
  829MOL0     H 9379   9.808   0.095   3.883 -1.1271  4.5456  0.1312
  829MOL0     H 9380   9.844   0.105   3.711 -0.8678  0.5852 -1.6847
  829MOL0     H 9381   9.579  -0.111   3.914  1.6291  0.8320  2.1213
  829MOL0     H 9382   9.733  -0.461   3.950  0.2890  1.4068 -0.5989
  829MOL0     H 9383   9.587  -0.454   3.846 -2.6298  1.7841  0.1192
  829MOL0     H 9384   9.487  -0.300   4.006  2.1553  2.9081  1.1486
  829MOL0     H 9385   9.624  -0.290   4.108  2.5040 -0.5033 -0.7250
  829MOL0     H 9386   9.469  -0.532   4.018 -0.9825  0.0938  1.0891
  829MOL0     H 9387   9.618  -0.557   4.115  0.0000 -1.8042  0.6118
  829MOL0     H 9388   9.401  -0.572   4.238 -1.7940  0.5591 -0.6310
  829MOL0     H 9389   9.376  -0.403   4.233 -4.6711 -2.0818  0.1570
  829MOL0     H 9390   9.682  -0.400   4.540  0.1087 -1.6956  2.9702
  829MOL0     H 9391   9.824  -0.541   4.655  1.0817 -0.5006  0.5132
  829MOL0     H 9392   9.814  -1.002   4.868  0.6621  0.6460  0.7212
  829MOL0     H 9393   9.946  -1.165   4.989  2.0033 -0.3093  0.5396
  829MOL0     H 9394  10.007  -1.400   4.980 -1.9193  5.1714  0.6647
  829MOL0     H 9395  10.110  -1.313   5.096  0.7824 -0.9741  1.1837
  829MOL0     H 9396  10.211  -1.570   4.966 -1.5289 -0.2187 -0.3686
  829MOL0     H 9397  10.152  -1.545   5.129 -3.7903  2.6457  1.0864
  829MOL0     H 9398  10.338  -1.372   5.155 -2.1840  0.4560 -0.1853
  829MOL0     H 9399  10.390  -1.412   4.989  0.7838 -1.4385  0.0160
  829MOL0     H 9400  10.403  -1.563   5.242  3.2037  1.0042  1.5112
  829MOL0     H 9401  10.419  -1.665   5.094 -2.1041 -1.4564  3.5607
  829MOL0     H 9402  10.640  -1.601   5.180  0.3104 -2.5336 -2.5298
  829MOL0     H 9403  10.596  -1.427   5.136 -0.0428  0.3548 -1.2726
  829MOL0     H 9404  10.593  -1.481   4.900  0.8027  0.6102 -0.8202
  829MOL0     H 9405  10.621  -1.655   4.933 -3.7234  0.3651  0.6176
  829MOL0     H 9406  10.834  -1.427   4.979  1.2887  0.0200  1.5902
  829MOL0     H 9407  10.843  -1.583   5.057 -2.0593 -2.4019  0.7026
  829MOL0     H 9408  10.817  -1.553   4.756  3.2177 -0.4743 -0.8619
  829MOL0     H 9409  10.824  -1.703   4.846 -2.2268  0.6692 -0.8033
  829MOL0     H 9410  10.197  -1.249   4.641  0.4399 -0.1333  1.1729
  829MOL0     H 9411  10.053  -1.061   4.520 -2.1763 -0.5599 -0.0701
  829MOL0     H 9412   9.655  -0.873   4.431 -0.2321 -1.0473  1.1103
  829MOL0     H 9413   9.563  -0.718   4.279 -2.2863 -1.2783  1.8027
  829MOL0     H 9414   8.982   0.444   3.223 -0.5198  1.8748  0.2032
  829MOL0     H 9415   8.783   0.520   3.106  1.1313  2.8735 -1.7359
  829MOL0     H 9416   8.460   0.417   2.817 -1.9316  0.4564  0.4426
  829MOL0     H 9417   8.240   0.481   2.738 -0.6602  4.1591  1.1161
  829MOL0     H 9418   8.185   0.726   2.375 -0.5400 -0.8871 -0.9186
  829MOL0     H 9419   8.169   0.774   2.546  1.3288 -0.8642  0.1054
  829MOL0     H 9420   7.964   0.604   2.376  1.5818 -0.3418 -0.1284
  829MOL0     H 9421   7.951   0.663   2.547  0.0130 -3.6251  0.0712
  829MOL0     H 9422   7.931   0.891   2.454  0.3818  0.1594 -0.0083
  829MOL0     H 9423   7.809   0.777   2.407 -0.3090 -1.5983 -5.2307
  829MOL0     H 9424   7.914   0.935   2.216  0.6310  0.7805  1.0123
  829MOL0     H 9425   8.042   0.816   2.213 -0.2135  0.0734  0.0001
  829MOL0     H 9426   7.740   0.592   2.050 -0.5274 -1.3104  2.5446
  829MOL0     H 9427   8.407   0.629   2.377 -2.5794 -0.8340 -0.3964
  829MOL0     H 9428   8.635   0.567   2.451 -1.4834 -0.7226 -0.9147
  830MOL0     O 9429   2.078   3.037   8.895  0.8095 -0.0443 -0.0965
  830MOL0     C 9430   2.112   2.934   8.837 -0.4533  0.4634 -0.3660
  830MOL0     O 9431   2.126   2.907   8.710 -0.1224 -0.0816  0.1971
  830MOL0     C 9432   2.113   3.008   8.611  1.1415 -0.0531  0.8268
  830MOL0     C 9433   2.206   3.001   8.509 -0.2775 -0.3128  0.3558
  830MOL0     C 9434   2.202   3.082   8.394  0.1635 -0.0528 -0.1069
  830MOL0     C 9435   2.097   3.168   8.389  0.4855 -0.3427 -1.1783
  830MOL0     O 9436   2.096   3.251   8.282 -0.0300 -0.4184 -0.4173
  830MOL0     C 9437   2.071   3.389   8.306 -0.2357 -0.3959 -0.1242
  830MOL0     C 9438   2.127   3.466   8.179 -0.0972 -1.5552 -0.6182
  830MOL0     C 9439   2.103   3.620   8.186  0.3729  0.3904 -0.9297
  830MOL0     C 9440   2.165   3.689   8.296  0.2622  0.4256 -0.0680
  830MOL0     C 9441   2.188   3.838   8.273  0.6121  0.0696 -1.1141
  830MOL0     C 9442   2.052   3.917   8.260 -0.1061  0.9786 -0.1259
  830MOL0     C 9443   2.075   4.064   8.286 -0.2644 -0.5949  0.0443
  830MOL0     C 9444   1.954   4.143   8.265 -0.4240 -0.8690  0.7884
  830MOL0     N 9445   1.882   4.158   8.394 -0.3150 -0.0584  0.1710
  830MOL0     C 9446   1.838   4.051   8.478  0.5118 -0.5547 -0.5728
  830MOL0     C 9447   1.847   4.116   8.604 -1.2779  0.6047  0.7443
  830MOL0     C 9448   1.820   4.051   8.734 -0.5853  0.6855 -0.2127
  830MOL0     C 9449   1.839   4.150   8.850  0.4153 -0.6526  0.0153
  830MOL0     C 9450   1.876   4.085   8.979 -0.5823  0.9814 -0.7133
  830MOL0     C 9451   1.773   3.969   9.001  0.5506 -0.6240 -0.6960
  830MOL0     O 9452   1.786   3.915   9.139 -0.5763  0.1879  0.8424
  830MOL0     C 9453   1.704   3.814   9.173  0.6391 -0.2136  0.5998
  830MOL0     C 9454   1.766   3.689   9.186 -0.1059  0.6729 -0.4795
  830MOL0     C 9455   1.706   3.572   9.238 -0.5672 -1.4661  0.4547
  830MOL0     C 9456   1.564   3.575   9.245  0.3118  0.0684  0.1705
  830MOL0     C 9457   1.503   3.458   9.311  0.2524 -0.6894  0.0415
  830MOL0     O 9458   1.580   3.342   9.319 -0.1599  0.3372 -0.2929
  830MOL0     C 9459   1.510   3.224   9.325  0.3416  0.2026 -0.1057
  830MOL0     C 9460   1.455   3.168   9.446 -0.4963 -0.2161  0.5617
  830MOL0     C 9461   1.393   3.047   9.442 -0.0449  0.8395  0.1041
  830MOL0     C 9462   1.366   2.985   9.318 -0.4881  1.1340  0.7351
  830MOL0     O 9463   1.309   2.857   9.320  0.5897 -0.4102  0.3474
  830MOL0     C 9464   1.391   2.746   9.316  1.1084 -1.0290 -0.0736
  830MOL0     C 9465   1.315   2.623   9.265  0.7686  0.9619  0.3056
  830MOL0     C 9466   1.279   2.636   9.116 -0.0701  0.7301  0.0180
  830MOL0     C 9467   1.229   2.504   9.053 -1.3869  0.9906 -0.0092
  830MOL0     C 9468   1.181   2.511   8.910  0.2355  1.2653 -0.6031
  830MOL0     C 9469   1.275   2.574   8.813 -0.3302 -0.4097  0.7699
  830MOL0     C 9470   1.240   2.545   8.669 -0.5862 -0.5563  0.3695
  830MOL0     C 9471   1.351   2.591   8.566 -0.1915 -0.0219  0.4625
  830MOL0    Cl 9472   1.310   2.550   8.395 -0.3542 -0.5753 -0.8487
  830MOL0     C 9473   1.416   3.039   9.199  0.1126  0.6491 -0.0782
  830MOL0     C 9474   1.494   3.156   9.206  0.7579  0.2973  0.2905
  830MOL0     O 9475   1.384   3.468   9.339 -0.2262  0.5958  0.2032
  830MOL0     C 9476   1.493   3.699   9.216 -0.3854 -0.0289 -0.2367
  830MOL0     C 9477   1.564   3.807   9.173  0.0244  0.5168  0.5384
  830MOL0     N 9478   1.897   4.236   8.587 -0.7003 -0.0115  0.0568
  830MOL0     N 9479   1.906   4.275   8.467  0.2424 -0.5112 -0.0048
  830MOL0     C 9480   2.007   3.184   8.502 -0.3210  0.2444  0.2224
  830MOL0     C 9481   2.018   3.103   8.606  0.0695  0.2467  0.3070
  830MOL0     C 9482   2.133   2.822   8.924 -0.4082 -0.5152 -0.0442
  830MOL0     C 9483   2.157   2.690   8.877  0.9835 -1.0153 -0.1362
  830MOL0     C 9484   2.165   2.582   8.960 -0.5579 -0.0700 -0.4037
  830MOL0     C 9485   2.156   2.599   9.095  0.4465  0.1515 -0.6292
  830MOL0     O 9486   2.171   2.495   9.182 -0.1759 -0.4982 -0.0294
  830MOL0     C 9487   2.313   2.471   9.189  0.1253 -0.1372 -0.2810
  830MOL0     C 9488   2.301   2.363   9.296  0.0453 -0.3280  0.3616
  830MOL0     C 9489   2.235   2.406   9.425  0.4465 -0.8788 -0.2149
  830MOL0     C 9490   2.323   2.492   9.522 -0.3964 -0.6368  0.2730
  830MOL0     C 9491   2.421   2.400   9.590 -0.1318  0.8640 -0.1806
  830MOL0     C 9492   2.499   2.316   9.632 -0.3048  0.3899  0.7437
  830MOL0     C 9493   2.144   2.730   9.152 -0.0690 -0.6630  0.2542
  830MOL0     C 9494   2.122   2.835   9.064  0.4241  0.6527  0.7479
  830MOL0     H 9495   2.275   2.917   8.506 -0.9078 -0.8153 -1.3248
  830MOL0     H 9496   2.267   3.099   8.309 -0.1510  1.4962 -0.0637
  830MOL0     H 9497   2.125   3.422   8.395 -0.8533  3.8163 -1.1251
  830MOL0     H 9498   1.962   3.398   8.309 -0.2883  3.6325 -3.8465
  830MOL0     H 9499   2.073   3.439   8.088  2.0984  0.1653 -2.5401
  830MOL0     H 9500   2.231   3.457   8.148 -0.0805  3.9027 -3.2164
  830MOL0     H 9501   1.998   3.646   8.176  0.1408 -0.7880 -1.8771
  830MOL0     H 9502   2.146   3.660   8.093  0.1393 -1.0447 -1.6870
  830MOL0     H 9503   2.096   3.674   8.380 -0.3344 -0.0661 -0.6341
  830MOL0     H 9504   2.260   3.638   8.315  0.8981  1.8900  0.8494
  830MOL0     H 9505   2.246   3.863   8.183  1.5773  0.4980 -0.3949
  830MOL0     H 9506   2.240   3.887   8.356 -1.1107  3.0307 -1.6151
  830MOL0     H 9507   1.990   3.892   8.347 -1.5137  5.1836  0.3304
  830MOL0     H 9508   1.988   3.892   8.175 -2.6017  2.5103  1.1720
  830MOL0     H 9509   2.125   4.073   8.383  2.9266 -1.9401 -1.3446
  830MOL0     H 9510   2.142   4.109   8.213 -1.1653 -0.0051 -0.4402
  830MOL0     H 9511   1.886   4.110   8.186 -0.1420 -0.5567  0.4072
  830MOL0     H 9512   1.985   4.245   8.238  0.3541 -1.2676  0.1477
  830MOL0     H 9513   1.825   3.945   8.458  2.6564 -1.0327  0.3089
  830MOL0     H 9514   1.891   3.969   8.746 -0.9530  0.4144  0.1607
  830MOL0     H 9515   1.722   4.001   8.731 -0.5210  0.4513  0.9943
  830MOL0     H 9516   1.741   4.199   8.852 -0.5224 -2.4757  1.4227
  830MOL0     H 9517   1.913   4.229   8.831 -1.7142  1.5608  0.3605
  830MOL0     H 9518   1.979   4.052   8.991 -0.7083  1.1271  1.0241
  830MOL0     H 9519   1.860   4.168   9.049 -1.2572  1.3039 -1.2273
  830MOL0     H 9520   1.789   3.886   8.931 -0.3930  0.4383 -2.2142
  830MOL0     H 9521   1.681   4.028   8.998  2.0412  2.0036  1.1776
  830MOL0     H 9522   1.874   3.682   9.183  0.0440  2.2081  0.4533
  830MOL0     H 9523   1.782   3.505   9.276  0.8612  1.0197  2.2215
  830MOL0     H 9524   1.467   3.221   9.539 -0.5702 -0.9680  1.0061
  830MOL0     H 9525   1.348   2.988   9.521  0.1760  0.9392  0.3038
  830MOL0     H 9526   1.422   2.740   9.420 -1.2425  1.1085  0.8404
  830MOL0     H 9527   1.467   2.761   9.239  0.6061 -0.0662 -0.3983
  830MOL0     H 9528   1.217   2.624   9.314 -0.4467 -2.3326 -1.7338
  830MOL0     H 9529   1.364   2.527   9.281 -0.2315  0.6036  1.2906
  830MOL0     H 9530   1.374   2.659   9.067 -0.7602 -0.8461 -2.2047
  830MOL0     H 9531   1.202   2.714   9.119 -0.5309  0.2579  1.3725
  830MOL0     H 9532   1.312   2.433   9.059 -0.9419  1.4965 -0.0897
  830MOL0     H 9533   1.143   2.468   9.111 -1.7790 -1.3138 -1.8858
  830MOL0     H 9534   1.089   2.569   8.899  0.8898  3.0093  2.1036
  830MOL0     H 9535   1.149   2.409   8.889 -1.8754  1.4489  1.4021
  830MOL0     H 9536   1.378   2.539   8.830 -0.0742  1.1534  3.0621
  830MOL0     H 9537   1.279   2.682   8.831 -0.5761 -0.5866  1.9552
  830MOL0     H 9538   1.219   2.440   8.650 -4.3354  0.0666  0.3173
  830MOL0     H 9539   1.145   2.594   8.646  0.6319  1.0652 -1.6820
  830MOL0     H 9540   1.440   2.532   8.587  0.3430 -0.6407 -2.9023
  830MOL0     H 9541   1.358   2.700   8.558 -0.1123 -0.0508  0.1220
  830MOL0     H 9542   1.414   2.983   9.106 -1.7419 -0.5096  0.5914
  830MOL0     H 9543   1.545   3.201   9.121  1.1602 -0.0402  0.3523
  830MOL0     H 9544   1.389   3.710   9.244 -0.2035 -1.2842  1.0863
  830MOL0     H 9545   1.511   3.899   9.148 -0.9801 -0.5562 -1.4501
  830MOL0     H 9546   1.939   3.267   8.509 -0.7340 -0.0810  0.0710
  830MOL0     H 9547   1.948   3.095   8.689 -0.9973  0.2059 -0.5750
  830MOL0     H 9548   2.159   2.672   8.770  1.1771  0.8864 -0.4860
  830MOL0     H 9549   2.185   2.482   8.924  0.8410 -0.6656  1.8271
  830MOL0     H 9550   2.368   2.560   9.223 -1.0809 -0.0587  1.6702
  830MOL0     H 9551   2.357   2.428   9.099  0.9005  3.1792 -1.6693
  830MOL0     H 9552   2.235   2.288   9.251  1.0353 -1.1316  0.2042
  830MOL0     H 9553   2.397   2.322   9.328  1.1713  1.2196 -0.9297
  830MOL0     H 9554   2.199   2.320   9.482  1.9420 -0.5572  1.3270
  830MOL0     H 9555   2.150   2.470   9.402  2.6689  1.9912 -1.0201
  830MOL0     H 9556   2.359   2.584   9.477  0.2178 -1.5330 -1.1345
  830MOL0     H 9557   2.249   2.531   9.593 -1.1119  1.4927 -1.5305
  830MOL0     H 9558   2.569   2.244   9.671 -1.3997  0.7750  3.7252
  830MOL0     H 9559   2.143   2.752   9.259  2.7716 -0.5974  0.3313
  830MOL0     H 9560   2.103   2.934   9.106  0.9475  1.0193  0.1336
  831MOL0     O 9561   1.301  10.752   1.336  0.0871  0.9013 -0.3076
  831MOL0     C 9562   1.222  10.842   1.361  0.2506 -0.3136 -0.7145
  831MOL0     O 9563   1.195  10.951   1.285  0.1166  0.1977  0.6652
  831MOL0     C 9564   1.240  10.968   1.159  0.0444 -0.8614 -0.0469
  831MOL0     C 9565   1.191  10.877   1.063 -0.1038  0.2254  0.8208
  831MOL0     C 9566   1.208  10.921   0.928  0.6151 -0.0583 -0.6945
  831MOL0     C 9567   1.281  11.041   0.886  0.3855  0.6267  0.2570
  831MOL0     O 9568   1.299  11.072   0.755  0.0826  0.3027  0.6416
  831MOL0     C 9569   1.178  11.068   0.678 -0.6079 -0.6728 -0.4572
  831MOL0     C 9570   1.203  11.173   0.571 -0.2830 -0.6989 -0.8863
  831MOL0     C 9571   1.070  11.215   0.498 -0.1927  0.5123 -0.8303
  831MOL0     C 9572   1.099  11.320   0.390 -1.0983  0.0215 -0.5116
  831MOL0     C 9573   0.967  11.351   0.319 -0.2010 -0.1508 -0.0288
  831MOL0     C 9574   0.964  11.459   0.211 -0.1695 -0.0737 -0.2587
  831MOL0     C 9575   1.072  11.449   0.114  0.0054 -0.0475  0.6296
  831MOL0     C 9576   1.042  11.543  -0.020 -0.2514  0.5700  1.0809
  831MOL0     N 9577   1.096  11.482  -0.145 -0.4290  0.0755  0.5420
  831MOL0     C 9578   1.093  11.349  -0.192  0.4764  0.2767 -1.3152
  831MOL0     C 9579   1.138  11.351  -0.312  0.0623  0.0440  0.6100
  831MOL0     C 9580   1.131  11.215  -0.390 -0.1257  0.7815  0.2684
  831MOL0     C 9581   1.120  11.236  -0.541 -0.2479  0.2951 -0.4822
  831MOL0     C 9582   1.117  11.100  -0.623 -0.1721  0.8690 -0.1590
  831MOL0     C 9583   1.072  10.967  -0.558 -0.4229  1.0767  0.8372
  831MOL0     O 9584   1.026  10.867  -0.657 -0.2124  0.0794 -0.2502
  831MOL0     C 9585   0.988  10.740  -0.621  0.8333  0.4251  0.1486
  831MOL0     C 9586   0.921  10.665  -0.713 -0.2684  0.7994  0.2667
  831MOL0     C 9587   0.863  10.533  -0.688  0.4674 -1.0092  1.1205
  831MOL0     C 9588   0.895  10.474  -0.564 -0.2783 -0.4466  0.1914
  831MOL0     C 9589   0.863  10.326  -0.556  1.0198 -0.2706  0.0317
  831MOL0     O 9590   0.922  10.261  -0.451 -0.4108 -0.2340  0.1631
  831MOL0     C 9591   0.929  10.133  -0.477 -0.1419  0.4971 -0.5091
  831MOL0     C 9592   0.836  10.035  -0.432 -0.1795 -0.3069 -0.2847
  831MOL0     C 9593   0.861   9.901  -0.466 -0.0575 -0.0731 -0.0876
  831MOL0     C 9594   0.972   9.860  -0.548  0.2026  1.1064  1.2651
  831MOL0     O 9595   0.983   9.725  -0.576 -0.7810  0.2076  0.7467
  831MOL0     C 9596   1.111   9.657  -0.575  0.0977 -0.3010  0.8133
  831MOL0     C 9597   1.147   9.603  -0.718  0.3310 -0.9685 -0.0882
  831MOL0     C 9598   1.305   9.579  -0.729  1.2084 -0.1710 -0.3016
  831MOL0     C 9599   1.349   9.486  -0.840 -0.0145 -0.4817 -0.0856
  831MOL0     C 9600   1.498   9.487  -0.868 -0.3441  0.4320  1.1943
  831MOL0     C 9601   1.583   9.437  -0.752 -0.5760 -0.7600  0.0835
  831MOL0     C 9602   1.728   9.456  -0.789  0.7567 -0.0527  0.1047
  831MOL0     C 9603   1.830   9.378  -0.709 -0.6118  0.5154 -0.3334
  831MOL0    Cl 9604   1.786   9.398  -0.543 -0.2990 -0.1160  0.0250
  831MOL0     C 9605   1.064   9.958  -0.588  0.1552  0.9335  0.4969
  831MOL0     C 9606   1.041  10.089  -0.553 -0.3763  0.1125  1.3586
  831MOL0     O 9607   0.785  10.270  -0.635  0.3357 -0.3240 -0.0444
  831MOL0     C 9608   0.960  10.551  -0.464  0.5082 -0.6403  0.2557
  831MOL0     C 9609   0.995  10.679  -0.495  0.2121 -0.4930  0.1985
  831MOL0     N 9610   1.174  11.476  -0.352  0.0139  0.1341  0.3845
  831MOL0     N 9611   1.148  11.556  -0.247 -0.4929 -0.3848 -0.4936
  831MOL0     C 9612   1.321  11.117   0.988  0.2269 -1.2055  0.0819
  831MOL0     C 9613   1.298  11.092   1.121 -0.2801 -0.1344  0.4952
  831MOL0     C 9614   1.160  10.836   1.494  0.1853  0.1171 -0.8686
  831MOL0     C 9615   1.172  10.724   1.570 -0.6023  0.1954  0.0401
  831MOL0     C 9616   1.145  10.730   1.701  0.2137 -0.3166 -0.2992
  831MOL0     C 9617   1.090  10.844   1.766  0.7022 -0.7409  0.0264
  831MOL0     O 9618   1.067  10.848   1.902 -0.5532 -0.1268 -0.0444
  831MOL0     C 9619   0.934  10.878   1.939  0.3263 -0.0003  0.7813
  831MOL0     C 9620   0.832  10.767   1.934  0.2579 -0.0960 -0.0098
  831MOL0     C 9621   0.879  10.652   2.030 -0.2269 -0.1501  0.4754
  831MOL0     C 9622   0.768  10.544   2.042  0.4226  1.0872 -0.0005
  831MOL0     C 9623   0.777  10.450   1.932 -0.1646 -0.5548  0.7248
  831MOL0     C 9624   0.806  10.376   1.840  0.5219  0.4565 -0.1683
  831MOL0     C 9625   1.054  10.952   1.679 -0.4166 -0.2493  0.3080
  831MOL0     C 9626   1.088  10.940   1.551  0.2480  0.4792  1.3883
  831MOL0     H 9627   1.143  10.785   1.095 -0.2830  0.4127  1.0962
  831MOL0     H 9628   1.165  10.855   0.854 -1.0260  2.3500 -2.0324
  831MOL0     H 9629   1.091  11.098   0.737 -1.2906  0.3724 -1.9384
  831MOL0     H 9630   1.160  10.974   0.624  0.9079 -2.7956  2.4331
  831MOL0     H 9631   1.277  11.136   0.500 -1.0331 -1.9030 -1.0731
  831MOL0     H 9632   1.230  11.267   0.620 -1.7499 -0.4107 -0.5528
  831MOL0     H 9633   1.005  11.257   0.574  0.2721  1.3559 -0.8965
  831MOL0     H 9634   1.029  11.120   0.461  0.5305  1.1069 -3.4120
  831MOL0     H 9635   1.139  11.412   0.433  0.4996  0.7778 -3.3998
  831MOL0     H 9636   1.166  11.273   0.319  0.5038  1.2246  0.1470
  831MOL0     H 9637   0.896  11.380   0.397 -0.5602  1.7989 -1.0189
  831MOL0     H 9638   0.928  11.263   0.267  0.2743  0.2526 -1.0838
  831MOL0     H 9639   0.972  11.559   0.253 -2.9798  1.7287 -3.4894
  831MOL0     H 9640   0.871  11.461   0.153 -0.2653 -0.4245 -0.1222
  831MOL0     H 9641   1.175  11.474   0.142  1.5761 -5.2436  0.5222
  831MOL0     H 9642   1.072  11.344   0.084 -3.4697 -1.0957  3.6180
  831MOL0     H 9643   1.085  11.644  -0.013 -1.8984  1.5976 -1.8875
  831MOL0     H 9644   0.939  11.555  -0.053  0.3980  0.8570 -0.9614
  831MOL0     H 9645   1.047  11.269  -0.135 -2.2001  1.7522 -1.2680
  831MOL0     H 9646   1.053  11.153  -0.346 -1.3656  0.2868 -2.4129
  831MOL0     H 9647   1.227  11.163  -0.380 -1.4618 -1.9713 -0.0819
  831MOL0     H 9648   1.208  11.294  -0.571 -0.2953  0.3162 -0.5765
  831MOL0     H 9649   1.030  11.295  -0.556  0.3929  1.4254 -0.0181
  831MOL0     H 9650   1.064  11.130  -0.714  0.7528  0.2084 -0.9388
  831MOL0     H 9651   1.223  11.084  -0.647 -0.4583  0.8703 -1.5068
  831MOL0     H 9652   0.987  10.990  -0.493  0.4283  1.3599  1.8882
  831MOL0     H 9653   1.160  10.922  -0.511 -0.7575 -1.1629 -0.5640
  831MOL0     H 9654   0.916  10.699  -0.816  1.2052 -0.7305 -0.3628
  831MOL0     H 9655   0.827  10.475  -0.772 -0.8302  0.9629  0.2262
  831MOL0     H 9656   0.746  10.062  -0.378  0.8175  2.1447  0.2592
  831MOL0     H 9657   0.792   9.824  -0.431  0.0299 -0.6517 -1.1693
  831MOL0     H 9658   1.090   9.568  -0.515 -0.8944 -2.6310 -2.6233
  831MOL0     H 9659   1.190   9.710  -0.522  2.2468 -1.9680 -0.5702
  831MOL0     H 9660   1.118   9.675  -0.795  0.2132 -2.2792 -1.3132
  831MOL0     H 9661   1.097   9.511  -0.747 -0.2775 -1.3235  1.9717
  831MOL0     H 9662   1.353   9.551  -0.635 -0.1678  0.2319  0.5603
  831MOL0     H 9663   1.358   9.672  -0.752 -0.6075  0.4049 -2.6489
  831MOL0     H 9664   1.330   9.381  -0.816  3.8858 -1.2488  0.3594
  831MOL0     H 9665   1.295   9.520  -0.929  2.9610  0.2773 -1.7474
  831MOL0     H 9666   1.545   9.578  -0.907  1.5232  0.1484  2.6112
  831MOL0     H 9667   1.518   9.403  -0.935 -1.1166 -0.8112  2.4617
  831MOL0     H 9668   1.558   9.332  -0.730 -1.2996 -0.0468  2.9597
  831MOL0     H 9669   1.565   9.486  -0.657  0.5523 -1.4802  0.6929
  831MOL0     H 9670   1.743   9.430  -0.894 -1.8632 -2.0015  0.1322
  831MOL0     H 9671   1.741   9.565  -0.790 -0.3124  0.1185 -2.9160
  831MOL0     H 9672   1.932   9.413  -0.725 -0.9375  0.5309 -2.8599
  831MOL0     H 9673   1.819   9.270  -0.724 -0.8904  0.6588 -1.2596
  831MOL0     H 9674   1.140   9.932  -0.661 -0.0453  1.7841 -0.0350
  831MOL0     H 9675   1.102  10.169  -0.593  0.8374 -0.9550  1.0336
  831MOL0     H 9676   0.990  10.509  -0.369 -2.2415  0.0858  1.5554
  831MOL0     H 9677   1.050  10.730  -0.416  0.2007 -2.5817  1.6328
  831MOL0     H 9678   1.370  11.205   0.949 -0.7050 -2.1282 -3.5100
  831MOL0     H 9679   1.329  11.165   1.195 -2.1601  0.5737  0.6281
  831MOL0     H 9680   1.213  10.627   1.542 -0.3244 -0.3234  2.0527
  831MOL0     H 9681   1.163  10.647   1.769 -1.1501  0.7976  1.5177
  831MOL0     H 9682   0.903  10.959   1.872  0.0911 -0.1598  0.6936
  831MOL0     H 9683   0.934  10.916   2.041  1.0816  2.2675 -0.0116
  831MOL0     H 9684   0.732  10.801   1.963  0.8359 -0.0282  2.0668
  831MOL0     H 9685   0.835  10.736   1.830 -1.4991  1.5660 -0.6246
  831MOL0     H 9686   0.901  10.674   2.135  1.6970 -0.8330  0.2541
  831MOL0     H 9687   0.975  10.610   1.997  2.4015  1.5769  4.9624
  831MOL0     H 9688   0.792  10.480   2.127 -0.4683 -1.4460 -1.5440
  831MOL0     H 9689   0.667  10.583   2.058 -0.4648 -1.1287  0.1137
  831MOL0     H 9690   0.824  10.294   1.774 -3.4968 -1.9828  1.3974
  831MOL0     H 9691   1.012  11.047   1.709  1.9603  0.2490  2.3443
  831MOL0     H 9692   1.055  11.021   1.486  0.0837 -0.2068  0.6041
  832MOL0     O 9693  10.153   6.626   8.905 -0.1032  0.3323  0.5902
  832MOL0     C 9694  10.216   6.625   9.014  0.2858 -0.6314  0.2661
  832MOL0     O 9695  10.255   6.746   9.076 -0.2590  0.0410 -0.1048
  832MOL0     C 9696  10.268   6.863   9.007 -0.9156 -0.3760  0.3873
  832MOL0     C 9697  10.297   6.879   8.867  0.1102  0.7814  0.4206
  832MOL0     C 9698  10.331   7.001   8.811  0.3940  0.7257 -0.1007
  832MOL0     C 9699  10.338   7.111   8.891 -0.5240 -0.6622  0.6218
  832MOL0     O 9700  10.381   7.231   8.845  0.2229 -0.2797 -0.1778
  832MOL0     C 9701  10.499   7.239   8.769  1.0179 -0.0316 -0.0870
  832MOL0     C 9702  10.504   7.370   8.686 -0.1626  0.5300  0.3695
  832MOL0     C 9703  10.549   7.365   8.542 -0.8342  0.0232  0.1512
  832MOL0     C 9704  10.690   7.309   8.530  0.3416 -0.3240  0.5355
  832MOL0     C 9705  10.765   7.339   8.394  0.0926 -0.1964 -0.2363
  832MOL0     C 9706  10.886   7.258   8.387 -0.5277 -0.6470  0.4832
  832MOL0     C 9707  10.964   7.295   8.264  0.6658 -0.3500  1.1442
  832MOL0     C 9708  11.095   7.231   8.251 -0.0231 -0.2650  1.7223
  832MOL0     N 9709  11.153   7.244   8.114 -0.2322  0.1887 -0.1901
  832MOL0     C 9710  11.094   7.216   7.991  0.7741  0.2478  1.4008
  832MOL0     C 9711  11.189   7.244   7.893  0.9175 -0.1796  0.5990
  832MOL0     C 9712  11.180   7.242   7.743  0.0807  0.0509 -0.9581
  832MOL0     C 9713  11.059   7.302   7.692  0.8029 -0.7439 -0.5129
  832MOL0     C 9714  11.048   7.451   7.746 -0.2404  0.0189  0.3285
  832MOL0     C 9715  10.972   7.519   7.626 -0.2133 -0.3035  0.0689
  832MOL0     O 9716  10.825   7.485   7.633  0.9495 -0.7249  0.2225
  832MOL0     C 9717  10.733   7.529   7.546 -0.7040 -0.4446 -0.1508
  832MOL0     C 9718  10.601   7.503   7.560  0.3508 -0.1900  0.2170
  832MOL0     C 9719  10.499   7.532   7.466  0.1535 -0.3641 -0.5105
  832MOL0     C 9720  10.541   7.599   7.354  0.6992  0.3702 -0.3112
  832MOL0     C 9721  10.438   7.625   7.251  0.4131  0.1961  0.3079
  832MOL0     O 9722  10.305   7.589   7.287  0.2799  1.0241  0.2479
  832MOL0     C 9723  10.202   7.607   7.193 -0.2075 -1.0378  1.1524
  832MOL0     C 9724  10.156   7.738   7.156 -0.9141 -0.5127  0.6365
  832MOL0     C 9725  10.059   7.764   7.060 -0.0506  0.0792  0.6469
  832MOL0     C 9726  10.004   7.645   7.002 -0.1349  0.8426 -0.2173
  832MOL0     O 9727   9.899   7.660   6.920  0.4924 -0.5230  0.3294
  832MOL0     C 9728   9.767   7.618   6.957  0.7932 -0.1251 -0.3758
  832MOL0     C 9729   9.670   7.581   6.832 -0.2166  0.0982 -1.0351
  832MOL0     C 9730   9.547   7.519   6.901  0.2966  0.4128  0.0180
  832MOL0     C 9731   9.472   7.442   6.790 -0.6049 -0.3809  0.7115
  832MOL0     C 9732   9.353   7.362   6.861  0.6098 -0.1261 -0.7540
  832MOL0     C 9733   9.283   7.269   6.759  0.2736  0.2190 -0.1783
  832MOL0     C 9734   9.203   7.352   6.661 -0.0812  0.0442  0.4716
  832MOL0     C 9735   9.093   7.277   6.600  0.8689  1.7819 -0.2643
  832MOL0    Cl 9736   8.977   7.370   6.485 -0.6847 -0.1454  0.4524
  832MOL0     C 9737  10.052   7.521   7.038  0.3118 -0.4509  0.8072
  832MOL0     C 9738  10.145   7.501   7.136 -0.3651  0.1485 -0.2700
  832MOL0     O 9739  10.471   7.672   7.143  0.0741 -0.1152  0.0988
  832MOL0     C 9740  10.675   7.653   7.342  0.7843  0.6972  0.6273
  832MOL0     C 9741  10.768   7.614   7.431  0.1777  1.2553  0.1809
  832MOL0     N 9742  11.292   7.292   7.957  0.4648  0.4359  0.0719
  832MOL0     N 9743  11.280   7.286   8.089  0.9592  0.5451 -0.1256
  832MOL0     C 9744  10.329   7.101   9.025 -0.0522  0.4739  1.0573
  832MOL0     C 9745  10.292   6.978   9.088 -0.2139 -0.5329  0.3603
  832MOL0     C 9746  10.250   6.493   9.075 -0.4840 -0.5373  0.4517
  832MOL0     C 9747  10.163   6.386   9.067  0.7478 -0.3801 -0.1598
  832MOL0     C 9748  10.191   6.262   9.135 -0.2659  0.4920 -0.0742
  832MOL0     C 9749  10.315   6.254   9.199 -0.2301 -0.5655 -0.1791
  832MOL0     O 9750  10.347   6.141   9.272 -0.2745  0.2372 -0.0739
  832MOL0     C 9751  10.293   6.142   9.407 -0.6725  0.3209 -0.0384
  832MOL0     C 9752  10.138   6.101   9.428 -0.2246  0.0556  0.4445
  832MOL0     C 9753  10.112   5.973   9.340  1.4177 -0.3939  0.7421
  832MOL0     C 9754   9.965   5.937   9.338  0.8054  0.6166 -0.0575
  832MOL0     C 9755   9.897   6.029   9.252 -0.9131 -0.2698  0.7726
  832MOL0     C 9756   9.842   6.117   9.185  0.0250  0.0272 -0.0955
  832MOL0     C 9757  10.401   6.366   9.205  0.1082 -0.0657 -0.1827
  832MOL0     C 9758  10.371   6.485   9.140 -0.0401  0.6727 -0.5785
  832MOL0     H 9759  10.295   6.792   8.803  2.0998 -1.1639  2.7981
  832MOL0     H 9760  10.334   7.018   8.704 -5.4792  0.1391 -0.6904
  832MOL0     H 9761  10.508   7.148   8.710 -0.5177 -0.5231  0.3742
  832MOL0     H 9762  10.580   7.237   8.842 -0.2091  4.3908  1.7506
  832MOL0     H 9763  10.578   7.424   8.746 -0.1938 -1.2960  2.1478
  832MOL0     H 9764  10.411   7.427   8.682  0.6862  1.9384 -0.1412
  832MOL0     H 9765  10.557   7.468   8.508 -1.2163 -0.2651 -0.8586
  832MOL0     H 9766  10.476   7.305   8.486  0.6614 -2.1420  0.3903
  832MOL0     H 9767  10.753   7.343   8.612 -1.7442 -0.5420  2.3127
  832MOL0     H 9768  10.674   7.201   8.540 -1.3954 -0.5821 -3.3160
  832MOL0     H 9769  10.780   7.446   8.375  1.1299 -0.1318  0.8614
  832MOL0     H 9770  10.701   7.318   8.308  1.4263 -1.0560 -1.0508
  832MOL0     H 9771  10.860   7.152   8.391 -1.2061 -0.4849  3.8393
  832MOL0     H 9772  10.953   7.284   8.470  2.2507 -1.6271 -1.2835
  832MOL0     H 9773  10.909   7.281   8.170  4.3327 -0.2347 -1.2124
  832MOL0     H 9774  10.977   7.403   8.278 -0.1355 -0.0776 -0.0066
  832MOL0     H 9775  11.084   7.125   8.274  0.7765 -0.7289  0.0867
  832MOL0     H 9776  11.160   7.279   8.326  0.0730  1.3868  0.6489
  832MOL0     H 9777  10.995   7.183   7.962  1.5088  0.6313 -1.9790
  832MOL0     H 9778  11.173   7.139   7.707 -1.3322 -0.1534 -0.1811
  832MOL0     H 9779  11.268   7.290   7.699  2.1797 -0.9111  1.8642
  832MOL0     H 9780  10.977   7.242   7.735  2.2988 -1.6819  1.1709
  832MOL0     H 9781  11.055   7.302   7.583  2.8399  1.8583 -0.6809
  832MOL0     H 9782  11.004   7.471   7.845  2.1955  1.5366  1.1949
  832MOL0     H 9783  11.150   7.490   7.759 -0.6988  1.7989 -0.9719
  832MOL0     H 9784  11.001   7.486   7.526 -4.5361 -1.8356 -0.9021
  832MOL0     H 9785  10.996   7.625   7.631  1.9145 -0.6654 -1.0628
  832MOL0     H 9786  10.558   7.450   7.644 -0.7038  0.5258  0.1573
  832MOL0     H 9787  10.398   7.493   7.471 -0.3379  0.8982 -0.2338
  832MOL0     H 9788  10.195   7.828   7.203 -2.4432 -0.5338  2.0729
  832MOL0     H 9789  10.022   7.864   7.044  3.2435  1.2123 -0.8698
  832MOL0     H 9790   9.710   7.701   7.000  4.0133  1.3079  1.5039
  832MOL0     H 9791   9.779   7.539   7.032 -1.0267  1.5127  1.8004
  832MOL0     H 9792   9.716   7.513   6.759  0.0302  1.9661 -2.6919
  832MOL0     H 9793   9.646   7.673   6.779  0.0810  1.3383  0.8967
  832MOL0     H 9794   9.492   7.605   6.939 -0.7139 -0.5066  0.7140
  832MOL0     H 9795   9.573   7.449   6.981 -0.2259  0.0484 -0.1268
  832MOL0     H 9796   9.435   7.517   6.719  0.4749  1.0351  1.5911
  832MOL0     H 9797   9.537   7.376   6.731 -2.5524 -0.3149 -1.6594
  832MOL0     H 9798   9.282   7.423   6.917  2.0543 -0.0776  1.0934
  832MOL0     H 9799   9.409   7.299   6.930  1.5516  2.5422  1.1002
  832MOL0     H 9800   9.216   7.203   6.815  1.5770 -1.6269 -0.6656
  832MOL0     H 9801   9.356   7.199   6.716  3.7607  1.6973  2.7611
  832MOL0     H 9802   9.160   7.434   6.719 -2.3790 -2.1116  2.0189
  832MOL0     H 9803   9.271   7.382   6.580 -0.7528  0.2219 -0.0404
  832MOL0     H 9804   9.040   7.220   6.677  0.4380 -0.9741 -2.4409
  832MOL0     H 9805   9.136   7.192   6.546 -0.6838  1.6977 -1.4564
  832MOL0     H 9806  10.009   7.428   7.000 -0.5500 -0.4973  1.8425
  832MOL0     H 9807  10.185   7.404   7.163  1.1572 -0.0094 -2.7215
  832MOL0     H 9808  10.688   7.715   7.253  1.5882 -2.1152 -1.3814
  832MOL0     H 9809  10.864   7.664   7.428 -0.3670  2.3089 -1.5473
  832MOL0     H 9810  10.361   7.184   9.087  1.9912 -0.6430  1.5991
  832MOL0     H 9811  10.309   6.976   9.195  0.7166  1.1951  0.2765
  832MOL0     H 9812  10.068   6.391   9.015  0.4248  1.1932  0.5304
  832MOL0     H 9813  10.119   6.182   9.143  2.3500 -1.9517  0.7860
  832MOL0     H 9814  10.315   6.227   9.473 -5.4362  0.4149  1.8707
  832MOL0     H 9815  10.343   6.063   9.464  1.7112  2.7339  1.4486
  832MOL0     H 9816  10.121   6.083   9.535 -0.2330 -1.1439  0.2598
  832MOL0     H 9817  10.077   6.189   9.405  2.0611  1.1455 -2.0252
  832MOL0     H 9818  10.165   5.886   9.380 -1.5868 -2.7794 -0.0561
  832MOL0     H 9819  10.147   5.978   9.236  0.1966 -1.4076  0.2511
  832MOL0     H 9820   9.952   5.836   9.298 -0.9289  1.1812 -1.0332
  832MOL0     H 9821   9.912   5.946   9.433 -0.5234 -1.6935 -0.4839
  832MOL0     H 9822   9.796   6.176   9.108 -1.0355 -2.2626 -1.3235
  832MOL0     H 9823  10.499   6.346   9.247  0.9997 -2.7785 -3.1645
  832MOL0     H 9824  10.437   6.569   9.155 -1.0163  2.0233 -3.1522
  833MOL0     O 9825   1.314  10.373   2.795  1.0426 -0.4385 -0.0204
  833MOL0     C 9826   1.209  10.345   2.847  1.4369 -0.5038 -0.5403
  833MOL0     O 9827   1.140  10.219   2.840  0.7505 -0.5153  0.5019
  833MOL0     C 9828   1.192  10.140   2.745  0.6217 -0.6632  0.8496
  833MOL0     C 9829   1.251  10.023   2.794 -1.3292 -0.0503  0.5722
  833MOL0     C 9830   1.302   9.923   2.700  0.3178 -0.2637 -0.0643
  833MOL0     C 9831   1.282   9.943   2.560 -0.3206 -0.3942  0.2529
  833MOL0     O 9832   1.342   9.859   2.463  0.1118  0.3109 -0.1349
  833MOL0     C 9833   1.329   9.717   2.476  0.4020 -0.0539 -0.7087
  833MOL0     C 9834   1.466   9.657   2.505 -0.1921 -0.6072  0.3082
  833MOL0     C 9835   1.452   9.497   2.505 -0.2240  0.0867 -0.0232
  833MOL0     C 9836   1.430   9.429   2.369 -0.4753 -1.0457  0.0365
  833MOL0     C 9837   1.370   9.290   2.384  0.6163 -0.1759 -0.9898
  833MOL0     C 9838   1.222   9.313   2.430  0.3015 -0.5213 -0.5203
  833MOL0     C 9839   1.142   9.174   2.450  0.8640 -0.1378 -0.3432
  833MOL0     C 9840   1.200   9.099   2.567  0.0846 -0.8665 -0.5481
  833MOL0     N 9841   1.142   8.973   2.603  0.6978  0.4387  0.0074
  833MOL0     C 9842   1.008   8.955   2.626  0.1853  1.1911  0.0262
  833MOL0     C 9843   1.004   8.817   2.624  1.4853 -0.2918 -0.3104
  833MOL0     C 9844   0.877   8.743   2.638  0.3807 -0.6047  0.4993
  833MOL0     C 9845   0.880   8.608   2.563 -0.6278 -0.5052  0.1983
  833MOL0     C 9846   0.874   8.611   2.414  0.4907 -0.0679  0.3255
  833MOL0     C 9847   0.902   8.473   2.351  0.9631 -0.2254 -0.1708
  833MOL0     O 9848   0.888   8.489   2.210 -0.7728 -0.7579  0.8113
  833MOL0     C 9849   0.832   8.390   2.144  1.0015 -0.0576 -0.1791
  833MOL0     C 9850   0.713   8.316   2.179  0.1031  0.1589  0.1786
  833MOL0     C 9851   0.654   8.223   2.091  0.7996 -0.9028  0.1355
  833MOL0     C 9852   0.699   8.215   1.962 -0.6238  0.1638 -0.2709
  833MOL0     C 9853   0.653   8.120   1.858  0.3976 -0.7331  0.0918
  833MOL0     O 9854   0.535   8.052   1.878  0.6191 -0.1085 -0.2655
  833MOL0     C 9855   0.521   7.943   1.788 -0.0576  0.6563 -0.5540
  833MOL0     C 9856   0.579   7.821   1.826 -0.3911 -0.0880  0.9380
  833MOL0     C 9857   0.591   7.719   1.730  0.9310 -0.1984  0.6460
  833MOL0     C 9858   0.523   7.726   1.606  0.3018  0.1278 -0.2139
  833MOL0     O 9859   0.513   7.630   1.507  0.1118 -0.3543 -0.0085
  833MOL0     C 9860   0.639   7.606   1.438  0.0477  0.2110  1.3834
  833MOL0     C 9861   0.602   7.521   1.312 -0.1510  0.7615 -0.1620
  833MOL0     C 9862   0.632   7.370   1.341  0.3635 -0.0316  0.3797
  833MOL0     C 9863   0.673   7.303   1.218  0.4351 -0.4702 -0.8067
  833MOL0     C 9864   0.709   7.154   1.237 -0.3770  0.0228 -0.3538
  833MOL0     C 9865   0.780   7.094   1.110 -0.1877  0.3350 -1.2497
  833MOL0     C 9866   0.920   7.159   1.084 -0.7616  0.5409  0.9790
  833MOL0     C 9867   0.992   7.081   0.974 -0.6374  0.1967 -1.1981
  833MOL0    Cl 9868   0.908   7.109   0.819  0.3599  0.1445  0.1823
  833MOL0     C 9869   0.439   7.837   1.576 -0.7212 -0.3248  0.5272
  833MOL0     C 9870   0.442   7.955   1.662 -0.5400 -0.9288 -0.1111
  833MOL0     O 9871   0.730   8.091   1.768 -0.2477  1.1916 -0.1040
  833MOL0     C 9872   0.804   8.295   1.926 -0.4822 -0.5986  0.4886
  833MOL0     C 9873   0.877   8.378   2.014  0.3646 -0.2778 -0.4465
  833MOL0     N 9874   1.129   8.762   2.618  0.0538 -0.7007 -0.2778
  833MOL0     N 9875   1.207   8.858   2.607 -0.0855  0.0907  0.2227
  833MOL0     C 9876   1.227  10.066   2.513  0.1195 -0.1493  0.2144
  833MOL0     C 9877   1.186  10.167   2.604 -0.0161 -0.8049 -0.0832
  833MOL0     C 9878   1.144  10.447   2.944  0.4372  0.3843  1.1645
  833MOL0     C 9879   1.063  10.393   3.044  0.0686 -0.0150 -0.4966
  833MOL0     C 9880   0.995  10.480   3.129  0.5299  0.1747  0.2819
  833MOL0     C 9881   1.011  10.614   3.120 -0.1296 -0.6740  0.9219
  833MOL0     O 9882   0.931  10.703   3.187  0.1860 -0.7954 -0.7334
  833MOL0     C 9883   0.825  10.665   3.273 -0.4952  1.0942  0.1853
  833MOL0     C 9884   0.713  10.773   3.290 -0.1375 -0.2357 -0.1348
  833MOL0     C 9885   0.773  10.907   3.322  0.1109  0.5430 -0.1000
  833MOL0     C 9886   0.868  10.913   3.438 -0.2218  0.3182 -1.0623
  833MOL0     C 9887   0.876  11.047   3.502 -0.3747  0.6003 -0.2620
  833MOL0     C 9888   0.869  11.150   3.566  0.1965 -0.7651  0.1571
  833MOL0     C 9889   1.101  10.664   3.031  1.1571 -0.5473 -0.1458
  833MOL0     C 9890   1.157  10.579   2.932  0.3604 -0.5602  0.0275
  833MOL0     H 9891   1.251   9.995   2.898  1.6236 -1.3191  0.3431
  833MOL0     H 9892   1.343   9.826   2.728  1.0988  0.3067  0.8246
  833MOL0     H 9893   1.295   9.692   2.375 -1.5368 -0.6613  0.0526
  833MOL0     H 9894   1.258   9.678   2.549 -1.7336  0.5867 -2.3365
  833MOL0     H 9895   1.477   9.695   2.607  0.9645  0.0245 -0.0333
  833MOL0     H 9896   1.541   9.699   2.437  1.0054  0.2490  2.0553
  833MOL0     H 9897   1.368   9.492   2.575  2.4604  2.2490  3.7242
  833MOL0     H 9898   1.534   9.453   2.563 -1.0047  0.4289  1.3772
  833MOL0     H 9899   1.370   9.492   2.303  1.2493  1.7299  0.9752
  833MOL0     H 9900   1.521   9.415   2.309 -1.9825 -4.3651 -1.7265
  833MOL0     H 9901   1.430   9.236   2.458  0.8817 -0.0657 -1.1211
  833MOL0     H 9902   1.384   9.235   2.291  6.0148 -0.4204 -0.3572
  833MOL0     H 9903   1.173   9.355   2.341  0.6451 -0.5691 -0.7344
  833MOL0     H 9904   1.200   9.371   2.520 -2.6906 -0.5442 -1.1270
  833MOL0     H 9905   1.038   9.197   2.472  0.0830 -0.1520 -3.6077
  833MOL0     H 9906   1.155   9.118   2.357  1.3516  1.3861 -1.2395
  833MOL0     H 9907   1.210   9.158   2.659 -3.6289 -0.6120 -0.1697
  833MOL0     H 9908   1.305   9.096   2.534  0.5991  4.7827 -0.4766
  833MOL0     H 9909   0.926   9.024   2.646 -2.2443 -1.9046  1.7065
  833MOL0     H 9910   0.795   8.807   2.605  1.5795 -0.2827 -2.0602
  833MOL0     H 9911   0.852   8.720   2.742 -1.4350 -0.1818  0.1964
  833MOL0     H 9912   0.797   8.546   2.597 -0.8766  0.4124  1.3064
  833MOL0     H 9913   0.969   8.552   2.595  1.0938  0.6035 -2.2845
  833MOL0     H 9914   0.778   8.638   2.370  1.3558 -3.2548 -4.3346
  833MOL0     H 9915   0.939   8.688   2.372 -0.4405  0.9608  0.7092
  833MOL0     H 9916   0.832   8.404   2.400  0.3775  0.2813 -0.2729
  833MOL0     H 9917   1.004   8.443   2.377  0.2097 -1.4665  1.5826
  833MOL0     H 9918   0.669   8.324   2.278  0.0980 -2.5556  0.4818
  833MOL0     H 9919   0.562   8.173   2.121 -1.4492  2.7229 -0.0921
  833MOL0     H 9920   0.634   7.818   1.919  0.8132 -0.1657  0.2434
  833MOL0     H 9921   0.643   7.629   1.763  2.9369 -0.7964 -3.5559
  833MOL0     H 9922   0.709   7.553   1.503 -2.0171 -2.2051  1.8015
  833MOL0     H 9923   0.686   7.696   1.397  1.6791 -2.1021 -2.4052
  833MOL0     H 9924   0.653   7.550   1.220  0.2962 -0.3486 -0.2860
  833MOL0     H 9925   0.495   7.528   1.292 -0.0077 -2.5484 -3.2945
  833MOL0     H 9926   0.547   7.325   1.395  1.8471 -1.2675  1.7846
  833MOL0     H 9927   0.717   7.356   1.408 -0.7027 -2.4491  1.3643
  833MOL0     H 9928   0.592   7.321   1.147  0.3803 -1.3545 -0.9901
  833MOL0     H 9929   0.767   7.344   1.183  0.7782 -0.0549  0.5197
  833MOL0     H 9930   0.625   7.098   1.278 -0.2886  0.7628  0.9108
  833MOL0     H 9931   0.772   7.143   1.326 -0.1107 -0.4926 -0.6017
  833MOL0     H 9932   0.711   7.099   1.026 -0.0850  3.0537 -1.2791
  833MOL0     H 9933   0.801   6.990   1.133 -3.5404 -0.4860 -1.4697
  833MOL0     H 9934   0.917   7.263   1.050  3.4870  0.8578  1.0726
  833MOL0     H 9935   0.975   7.150   1.179  0.2000  2.3980  0.6566
  833MOL0     H 9936   0.988   6.972   0.981  2.0413  0.0744 -0.5606
  833MOL0     H 9937   1.099   7.102   0.966 -0.3454 -1.5781 -2.5104
  833MOL0     H 9938   0.390   7.843   1.479  0.8240  0.5128 -0.2387
  833MOL0     H 9939   0.395   8.052   1.646 -0.0423 -0.0301  3.2144
  833MOL0     H 9940   0.845   8.293   1.825  2.7311 -2.7068  1.6893
  833MOL0     H 9941   0.953   8.445   1.974  0.7784 -2.2749 -3.3172
  833MOL0     H 9942   1.230  10.076   2.405 -4.3803 -0.5387 -0.1206
  833MOL0     H 9943   1.145  10.260   2.565  0.0329 -0.4297  0.7331
  833MOL0     H 9944   1.049  10.286   3.041  0.3443 -0.0447 -0.7830
  833MOL0     H 9945   0.927  10.432   3.198 -0.3588 -2.1319 -2.0372
  833MOL0     H 9946   0.872  10.646   3.370 -1.6682  2.4315  1.0620
  833MOL0     H 9947   0.775  10.572   3.243  1.7482  0.4706 -1.9574
  833MOL0     H 9948   0.669  10.781   3.190  4.1949  0.4991 -2.2438
  833MOL0     H 9949   0.643  10.751   3.370 -0.0109 -0.3544 -0.0554
  833MOL0     H 9950   0.681  10.966   3.333 -1.6757 -1.6305 -2.0998
  833MOL0     H 9951   0.823  10.956   3.237  2.2379  0.7210  1.2071
  833MOL0     H 9952   0.839  10.855   3.527  2.1770 -1.9162 -1.6063
  833MOL0     H 9953   0.970  10.887   3.406  0.2737  0.9322 -0.0490
  833MOL0     H 9954   0.867  11.244   3.617 -1.1582  0.7270 -2.3899
  833MOL0     H 9955   1.128  10.768   3.041  0.2977 -0.4051  0.8445
  833MOL0     H 9956   1.214  10.624   2.851 -0.9255  1.2384  0.0791
  834MOL0     O 9957   9.859   7.830   5.491 -0.4603 -0.9805 -0.3233
  834MOL0     C 9958   9.935   7.755   5.435  0.2225 -0.9574 -0.2182
  834MOL0     O 9959   9.887   7.660   5.355 -0.6053  0.0600 -0.3602
  834MOL0     C 9960   9.755   7.636   5.342  0.4904  0.5395 -0.8223
  834MOL0     C 9961   9.696   7.564   5.453  0.8331  0.0538  0.0548
  834MOL0     C 9962   9.566   7.531   5.452 -0.8917  0.0313 -0.3402
  834MOL0     C 9963   9.487   7.559   5.337  0.3699 -0.9339 -0.2574
  834MOL0     O 9964   9.375   7.482   5.320 -0.3201 -0.5136 -0.7492
  834MOL0     C 9965   9.260   7.527   5.242 -0.4080 -0.3610  0.2241
  834MOL0     C 9966   9.145   7.437   5.275 -0.1488 -0.4607 -0.5820
  834MOL0     C 9967   9.022   7.493   5.201 -0.3541  0.9854  0.9898
  834MOL0     C 9968   8.935   7.592   5.276 -1.4716  0.5598  0.1020
  834MOL0     C 9969   8.857   7.527   5.386 -0.0099 -0.0695 -1.0601
  834MOL0     C 9970   8.808   7.633   5.493  0.5138 -0.0835 -0.0915
  834MOL0     C 9971   8.662   7.597   5.543 -1.1128  0.2162  0.1650
  834MOL0     C 9972   8.632   7.677   5.668  0.4381 -0.2994  0.2385
  834MOL0     N 9973   8.509   7.623   5.729 -1.1887 -0.1671 -0.1663
  834MOL0     C 9974   8.384   7.678   5.705 -0.1063 -0.3989  0.2504
  834MOL0     C 9975   8.304   7.573   5.752 -1.3853 -0.2485 -0.0063
  834MOL0     C 9976   8.151   7.570   5.747  0.1959  0.4503  0.3939
  834MOL0     C 9977   8.071   7.527   5.867  0.3981 -0.3813 -0.4016
  834MOL0     C 9978   8.087   7.638   5.974  0.3743 -0.4017  0.2026
  834MOL0     C 9979   7.971   7.641   6.078  0.1411  0.4916  0.1043
  834MOL0     O 9980   7.845   7.687   6.015 -0.3992  0.2788 -0.1994
  834MOL0     C 9981   7.728   7.721   6.080 -0.1146 -0.2579 -0.4491
  834MOL0     C 9982   7.712   7.666   6.207  1.0925 -0.2243 -0.3462
  834MOL0     C 9983   7.584   7.692   6.262 -0.8808  0.5899 -0.3796
  834MOL0     C 9984   7.496   7.795   6.203  0.2572 -0.3419 -0.2365
  834MOL0     C 9985   7.366   7.833   6.268 -0.2148 -0.7307  0.5416
  834MOL0     O 9986   7.294   7.952   6.235  0.7524  1.3352 -0.4101
  834MOL0     C 9987   7.183   7.999   6.297 -0.3402 -0.6942 -0.3576
  834MOL0     C 9988   7.139   8.123   6.263  0.9152  0.5530 -0.3538
  834MOL0     C 9989   7.031   8.191   6.330  0.4581  0.2361 -0.7852
  834MOL0     C 9990   6.974   8.130   6.436  1.0946  0.0945 -0.9202
  834MOL0     O 9991   6.856   8.185   6.491 -0.2844  0.1242  0.2905
  834MOL0     C 9992   6.866   8.230   6.629 -1.8657  0.4359  0.4036
  834MOL0     C 9993   6.738   8.276   6.669 -0.1415  0.7250 -0.0248
  834MOL0     C 9994   6.705   8.280   6.818  0.4228 -0.0797  0.7154
  834MOL0     C 9995   6.798   8.379   6.891  0.3945  0.0184 -0.7164
  834MOL0     C 9996   6.795   8.367   7.047 -0.8355 -0.5027  0.0606
  834MOL0     C 9997   6.655   8.347   7.109  0.7279  0.5073 -0.5431
  834MOL0     C 9998   6.668   8.373   7.255 -0.2235 -0.1515  0.4275
  834MOL0     C 9999   6.740   8.254   7.328 -0.4032  0.7090  0.7260
  834MOL0    Cl10000   6.695   8.282   7.506 -0.4103 -0.0458 -0.1980
  834MOL0     C10001   7.011   7.999   6.472  0.2014  0.3120 -0.0174
  834MOL0     C10002   7.113   7.935   6.401 -0.5317  0.2170 -0.6092
  834MOL0     O10003   7.315   7.743   6.331  0.2155  0.5352 -0.2141
  834MOL0     C10004   7.525   7.851   6.073 -1.5200  0.4059 -0.6010
  834MOL0     C10005   7.635   7.798   6.007  0.4688  0.2635  0.4215
  834MOL0     N10006   8.379   7.477   5.809 -0.4400  0.5650  0.5546
  834MOL0     N10007   8.501   7.504   5.804  0.3060 -0.3964 -0.0303
  834MOL0     C10008   9.532   7.653   5.239 -0.2918  0.0875 -0.3827
  834MOL0     C10009   9.669   7.683   5.242 -0.1777 -0.8750 -0.2227
  834MOL0     C10010  10.075   7.794   5.438  0.5806  0.9639  0.4918
  834MOL0     C10011  10.158   7.736   5.344  0.3997  0.0593  1.1522
  834MOL0     C10012  10.294   7.775   5.334  0.2941  0.4004 -0.4193
  834MOL0     C10013  10.356   7.857   5.420 -0.8869 -0.1766 -1.5309
  834MOL0     O10014  10.493   7.889   5.411  0.5493  0.3119 -0.5043
  834MOL0     C10015  10.584   7.789   5.410  0.5919  0.3247 -0.7938
  834MOL0     C10016  10.732   7.843   5.436  0.3435 -0.1853 -0.3897
  834MOL0     C10017  10.775   7.932   5.311 -0.2224 -0.3075  0.3585
  834MOL0     C10018  10.921   7.961   5.301 -0.6516 -0.4520 -0.0418
  834MOL0     C10019  10.990   7.831   5.285  0.2509  0.2869  0.6183
  834MOL0     C10020  11.064   7.735   5.296 -0.0211  0.0285  0.4493
  834MOL0     C10021  10.274   7.906   5.527 -0.3064  0.3766 -0.9981
  834MOL0     C10022  10.137   7.875   5.526  0.6526 -0.3255  0.7895
  834MOL0     H10023   9.758   7.532   5.535 -2.0906 -1.6826  1.7621
  834MOL0     H10024   9.533   7.467   5.534 -1.3525  0.6152 -0.0558
  834MOL0     H10025   9.271   7.522   5.133 -0.7347  0.7492  0.1264
  834MOL0     H10026   9.242   7.633   5.260 -1.9503  0.0333 -2.9223
  834MOL0     H10027   9.122   7.445   5.382  1.9798  2.6555 -0.1923
  834MOL0     H10028   9.160   7.332   5.249  0.0948 -0.6829  0.3959
  834MOL0     H10029   8.956   7.413   5.168  0.7430  0.4666 -0.0230
  834MOL0     H10030   9.056   7.535   5.106  3.5111 -1.8991  0.8266
  834MOL0     H10031   9.002   7.666   5.322 -0.2138 -0.8737  0.6712
  834MOL0     H10032   8.865   7.645   5.211 -0.0973  0.6540 -1.3574
  834MOL0     H10033   8.916   7.451   5.439 -2.3612 -2.5204 -1.6924
  834MOL0     H10034   8.777   7.469   5.338  1.6385 -1.8667 -1.7560
  834MOL0     H10035   8.824   7.733   5.451 -1.0928 -0.6238 -2.1905
  834MOL0     H10036   8.878   7.617   5.575 -1.4684 -2.5399  1.2650
  834MOL0     H10037   8.587   7.604   5.465  0.7309  1.0536 -1.6358
  834MOL0     H10038   8.674   7.489   5.558 -0.1651  0.2044 -0.5995
  834MOL0     H10039   8.614   7.781   5.639  0.8091 -1.2956 -4.3247
  834MOL0     H10040   8.721   7.672   5.732  0.9685 -1.5731 -0.5562
  834MOL0     H10041   8.366   7.770   5.650  0.2975  1.1964  2.6136
  834MOL0     H10042   8.123   7.504   5.664 -0.8466 -1.5658  2.2374
  834MOL0     H10043   8.112   7.670   5.727 -1.0484 -0.4498 -2.1360
  834MOL0     H10044   8.100   7.430   5.909 -1.5057 -0.1991  1.4950
  834MOL0     H10045   7.966   7.519   5.838 -0.5785  0.3311  2.5883
  834MOL0     H10046   8.181   7.613   6.024  1.5769  0.3884 -1.5726
  834MOL0     H10047   8.098   7.735   5.925 -1.6020  0.8031  1.9680
  834MOL0     H10048   7.998   7.714   6.155  0.1026  2.3611 -1.5534
  834MOL0     H10049   7.969   7.544   6.128  1.9594  0.7089  0.6867
  834MOL0     H10050   7.782   7.602   6.259  1.0612  0.3240  0.3836
  834MOL0     H10051   7.558   7.651   6.358 -0.1916 -1.4436 -1.0134
  834MOL0     H10052   7.193   8.176   6.185 -0.8361  1.1811 -1.1939
  834MOL0     H10053   6.996   8.287   6.294 -0.1728  0.8766  1.3726
  834MOL0     H10054   6.946   8.301   6.654 -2.1805  0.8425  0.2646
  834MOL0     H10055   6.885   8.133   6.676 -1.9635 -1.2773 -2.7895
  834MOL0     H10056   6.677   8.194   6.631  4.5526 -1.7487 -3.1965
  834MOL0     H10057   6.709   8.370   6.621  0.4317 -0.3985 -2.7953
  834MOL0     H10058   6.707   8.184   6.869  0.7489  0.3531  1.5245
  834MOL0     H10059   6.604   8.323   6.826  0.0847 -0.0107 -2.5670
  834MOL0     H10060   6.904   8.357   6.875  1.2755  2.0155  1.8038
  834MOL0     H10061   6.785   8.483   6.859 -0.2805  0.4754  0.9524
  834MOL0     H10062   6.836   8.465   7.075  1.4383 -0.7365 -2.1223
  834MOL0     H10063   6.869   8.293   7.079 -0.0982 -1.2804 -3.1083
  834MOL0     H10064   6.608   8.248   7.100  2.3586 -0.4333  0.6915
  834MOL0     H10065   6.585   8.409   7.052 -1.2708 -0.0139  1.1955
  834MOL0     H10066   6.695   8.477   7.278  0.7303 -0.4624  0.7690
  834MOL0     H10067   6.564   8.373   7.290  0.6832  1.1548  3.5555
  834MOL0     H10068   6.847   8.257   7.309 -0.7897  0.6335 -1.8180
  834MOL0     H10069   6.700   8.159   7.292  1.0510  1.0323 -1.9806
  834MOL0     H10070   6.944   7.958   6.546 -0.2088 -0.3530 -0.7509
  834MOL0     H10071   7.154   7.844   6.444 -0.9382 -0.1692 -1.0258
  834MOL0     H10072   7.464   7.929   6.029  0.6615  2.2375 -0.5260
  834MOL0     H10073   7.658   7.839   5.909 -1.4834  1.4690  0.4151
  834MOL0     H10074   9.462   7.706   5.174 -0.1928  0.2170 -0.3851
  834MOL0     H10075   9.722   7.745   5.170  1.4062 -3.4034 -1.3437
  834MOL0     H10076  10.119   7.659   5.278  0.4686  0.0398  1.1341
  834MOL0     H10077  10.360   7.739   5.256  0.8920  2.5356 -0.9585
  834MOL0     H10078  10.581   7.731   5.317  1.1523 -1.0391  0.0112
  834MOL0     H10079  10.561   7.716   5.487 -2.3136  0.2177 -1.6516
  834MOL0     H10080  10.744   7.895   5.532 -2.0173  2.9983 -1.6474
  834MOL0     H10081  10.806   7.762   5.443 -0.9130 -1.2028  2.5901
  834MOL0     H10082  10.717   8.025   5.313 -0.1901 -0.2945  1.6655
  834MOL0     H10083  10.749   7.875   5.222  3.0496 -1.3819 -0.0272
  834MOL0     H10084  10.940   8.029   5.217  0.3184 -1.2012 -0.4441
  834MOL0     H10085  10.947   8.018   5.391 -0.7649  1.1116 -0.9566
  834MOL0     H10086  11.128   7.650   5.302  0.8944  0.6742 -0.0523
  834MOL0     H10087  10.319   7.968   5.604  2.4919  0.2763 -2.4197
  834MOL0     H10088  10.061   7.918   5.590  1.7295  0.3791  1.6286
  835MOL0     O10089   0.523   5.617   6.997 -0.0586  0.3315  0.0474
  835MOL0     C10090   0.648   5.620   7.013  0.0381 -0.4523 -0.1007
  835MOL0     O10091   0.735   5.708   6.950  0.5209 -0.1142 -0.9377
  835MOL0     C10092   0.704   5.818   6.864  0.1567  0.9487  0.5745
  835MOL0     C10093   0.569   5.869   6.874 -0.6691 -0.4550 -0.5978
  835MOL0     C10094   0.539   5.972   6.777  0.2926 -0.7123 -0.9101
  835MOL0     C10095   0.631   6.014   6.687 -0.4055  0.4769  0.2702
  835MOL0     O10096   0.596   6.087   6.577  0.1804 -0.1904  0.4693
  835MOL0     C10097   0.463   6.109   6.539  0.0940  0.2992  0.1411
  835MOL0     C10098   0.402   5.986   6.483 -0.1906 -0.1782 -0.2455
  835MOL0     C10099   0.267   6.008   6.413  1.3187  1.0017  0.4628
  835MOL0     C10100   0.277   5.967   6.265 -0.1321  0.0360  1.3065
  835MOL0     C10101   0.204   5.839   6.225  0.1853  0.6220 -0.3074
  835MOL0     C10102   0.193   5.834   6.075  0.8093 -0.3218 -0.5180
  835MOL0     C10103   0.330   5.839   6.002  1.1207 -0.7545 -0.4734
  835MOL0     C10104   0.326   5.839   5.854 -0.4649  0.7170  0.0641
  835MOL0     N10105   0.256   5.726   5.795 -0.2896  0.2128 -0.7507
  835MOL0     C10106   0.295   5.601   5.790 -0.1792  1.2178  0.1287
  835MOL0     C10107   0.204   5.539   5.707 -0.9761 -0.1359  0.7284
  835MOL0     C10108   0.173   5.391   5.700 -0.1402  0.4562  0.7098
  835MOL0     C10109   0.113   5.356   5.837 -0.9232 -0.4068 -0.0987
  835MOL0     C10110   0.095   5.206   5.853 -0.1951 -0.6992  0.1617
  835MOL0     C10111  -0.007   5.186   5.957 -0.0155  0.1791  0.3167
  835MOL0     O10112  -0.041   5.048   5.938  0.4274 -0.2664  0.5713
  835MOL0     C10113  -0.078   4.963   6.041 -0.6207  0.5434 -0.1455
  835MOL0     C10114  -0.083   4.826   6.010 -0.8702 -0.3049 -0.2305
  835MOL0     C10115  -0.125   4.730   6.096  0.3936 -0.4409  0.1718
  835MOL0     C10116  -0.171   4.765   6.223  0.6374 -0.4198  0.4465
  835MOL0     C10117  -0.223   4.672   6.323  0.0222  0.4505  0.3870
  835MOL0     O10118  -0.185   4.536   6.324 -0.5012 -0.3857  0.4269
  835MOL0     C10119  -0.282   4.454   6.376  0.4924 -0.4690  0.2632
  835MOL0     C10120  -0.337   4.363   6.280  0.2088  0.3648 -0.4413
  835MOL0     C10121  -0.432   4.274   6.324  0.4033  0.1023  0.0086
  835MOL0     C10122  -0.476   4.269   6.450  1.0849  0.5451  0.3054
  835MOL0     O10123  -0.573   4.171   6.488  0.5526  0.4174 -0.6933
  835MOL0     C10124  -0.578   4.131   6.627 -0.3868  0.0366 -0.5017
  835MOL0     C10125  -0.639   3.988   6.645 -0.3194 -0.1078  0.3253
  835MOL0     C10126  -0.792   3.971   6.645 -0.5211 -0.4041 -0.1259
  835MOL0     C10127  -0.833   3.817   6.646 -0.3874 -0.6268 -0.6380
  835MOL0     C10128  -0.969   3.804   6.705  0.3902  1.1828 -0.5924
  835MOL0     C10129  -1.068   3.888   6.628  0.0063 -0.6058  0.3804
  835MOL0     C10130  -1.211   3.855   6.679  0.0541 -0.4525  0.3470
  835MOL0     C10131  -1.314   3.967   6.652 -1.0968  0.0875 -0.9250
  835MOL0    Cl10132  -1.311   4.100   6.769 -0.1558 -0.6091 -0.1869
  835MOL0     C10133  -0.416   4.361   6.540 -0.1024 -1.4812 -0.0154
  835MOL0     C10134  -0.317   4.453   6.502  0.0308  0.2931  0.1894
  835MOL0     O10135  -0.308   4.722   6.398  0.4581 -0.2934 -0.2575
  835MOL0     C10136  -0.173   4.904   6.254 -0.5587 -0.0346 -0.2941
  835MOL0     C10137  -0.130   4.998   6.165 -0.0011 -0.5148  0.2740
  835MOL0     N10138   0.125   5.639   5.644  0.6644 -0.1754  0.2138
  835MOL0     N10139   0.153   5.744   5.710  0.3127 -0.0898 -0.0810
  835MOL0     C10140   0.761   5.983   6.694  0.5578 -0.3181 -0.3903
  835MOL0     C10141   0.800   5.883   6.788 -0.2307  0.4495 -0.2172
  835MOL0     C10142   0.716   5.518   7.094 -0.1354 -0.6856  0.9483
  835MOL0     C10143   0.645   5.438   7.174 -0.3140 -0.1963  0.0870
  835MOL0     C10144   0.702   5.349   7.264  0.8811 -0.8474 -0.3604
  835MOL0     C10145   0.846   5.332   7.277 -0.2801  0.6106  0.1634
  835MOL0     O10146   0.921   5.237   7.352  0.0066 -0.5472  0.2327
  835MOL0     C10147   0.849   5.132   7.429 -0.5980 -0.5384  0.0097
  835MOL0     C10148   0.949   5.039   7.500 -0.1908  0.5019  0.3237
  835MOL0     C10149   1.046   4.972   7.399  1.0680 -0.2080 -0.7291
  835MOL0     C10150   0.996   4.840   7.326  0.7672  0.1119  1.4167
  835MOL0     C10151   1.097   4.782   7.233  1.2417  1.0114  0.3427
  835MOL0     C10152   1.168   4.735   7.152  0.2621 -0.0455  0.7070
  835MOL0     C10153   0.911   5.412   7.188 -0.0295  0.7830  0.2738
  835MOL0     C10154   0.860   5.507   7.101 -0.1220  0.5414  0.9393
  835MOL0     H10155   0.490   5.831   6.939 -0.5537  2.0380  1.1275
  835MOL0     H10156   0.436   6.003   6.763  1.0466  0.5725 -5.2267
  835MOL0     H10157   0.468   6.193   6.470 -0.9638  0.9485  0.8297
  835MOL0     H10158   0.410   6.149   6.626  1.2154  1.1670  0.4574
  835MOL0     H10159   0.390   5.921   6.570  2.1573  0.6731  0.7866
  835MOL0     H10160   0.476   5.937   6.419 -0.4628 -2.4557  1.0744
  835MOL0     H10161   0.228   6.109   6.431 -1.1936  0.8620 -3.1119
  835MOL0     H10162   0.191   5.951   6.466  0.8279  1.2283  0.0090
  835MOL0     H10163   0.250   6.056   6.206 -1.2894 -1.1052  0.0338
  835MOL0     H10164   0.382   5.960   6.235 -0.9743 -1.7029 -1.6092
  835MOL0     H10165   0.103   5.840   6.266  0.6067  3.7827  0.9640
  835MOL0     H10166   0.259   5.751   6.259 -1.5149  0.5284  2.5351
  835MOL0     H10167   0.136   5.923   6.050  0.3180 -0.6561 -0.5990
  835MOL0     H10168   0.140   5.747   6.034 -1.7446 -0.1404  2.1201
  835MOL0     H10169   0.369   5.938   6.026 -0.4480  0.7264 -3.4663
  835MOL0     H10170   0.401   5.764   6.038 -0.1218 -1.6586  0.1974
  835MOL0     H10171   0.430   5.857   5.822 -0.4759  0.7834  0.0644
  835MOL0     H10172   0.285   5.933   5.816  2.9280  1.5519 -2.0897
  835MOL0     H10173   0.366   5.550   5.853 -3.2550 -2.5397  0.9162
  835MOL0     H10174   0.263   5.331   5.687 -1.5277 -1.0155 -4.8270
  835MOL0     H10175   0.123   5.360   5.608  2.1603 -1.5429  0.0385
  835MOL0     H10176   0.016   5.401   5.861 -1.2335 -0.6442 -0.8859
  835MOL0     H10177   0.186   5.388   5.912 -0.1298 -1.8428 -0.2312
  835MOL0     H10178   0.057   5.168   5.758 -2.0257  0.1197  0.5266
  835MOL0     H10179   0.190   5.156   5.877  3.0931  4.5972  0.0728
  835MOL0     H10180  -0.100   5.240   5.936 -0.1041  0.0483  0.3716
  835MOL0     H10181   0.028   5.213   6.057 -0.9254 -1.8730  1.2590
  835MOL0     H10182  -0.036   4.791   5.918  1.7398  0.8366  0.5605
  835MOL0     H10183  -0.132   4.625   6.069 -1.4388 -0.3528  0.2202
  835MOL0     H10184  -0.305   4.365   6.176  0.0349  2.3028 -0.5089
  835MOL0     H10185  -0.485   4.215   6.251 -3.0201  2.2558  0.5118
  835MOL0     H10186  -0.622   4.201   6.699  3.4759  0.5343  1.6771
  835MOL0     H10187  -0.474   4.128   6.661 -0.7647  0.1460  0.7199
  835MOL0     H10188  -0.610   3.959   6.746  2.9896  0.5713 -0.2894
  835MOL0     H10189  -0.596   3.927   6.565 -1.2376  0.4855 -0.6519
  835MOL0     H10190  -0.839   4.016   6.557 -1.7423  0.1772  0.7967
  835MOL0     H10191  -0.836   4.030   6.726 -0.1493 -2.4753  1.6723
  835MOL0     H10192  -0.830   3.782   6.543 -0.7432 -1.2953 -0.4228
  835MOL0     H10193  -0.757   3.763   6.704 -1.1500 -1.3651 -0.3191
  835MOL0     H10194  -0.983   3.853   6.802 -1.4574  0.9893 -0.7186
  835MOL0     H10195  -1.006   3.703   6.724 -0.0875  0.8398 -3.0067
  835MOL0     H10196  -1.058   3.880   6.519  0.9169  0.4574  0.3674
  835MOL0     H10197  -1.050   3.992   6.657  0.4494 -0.5537 -0.0716
  835MOL0     H10198  -1.258   3.763   6.643  2.0790 -2.3235  2.1652
  835MOL0     H10199  -1.210   3.852   6.789 -0.1063 -2.4521  0.3321
  835MOL0     H10200  -1.413   3.921   6.643 -0.9490 -0.1999 -1.0825
  835MOL0     H10201  -1.287   4.015   6.558 -2.6483  0.9048 -0.9876
  835MOL0     H10202  -0.443   4.369   6.645 -0.0615  1.5128 -0.1512
  835MOL0     H10203  -0.294   4.533   6.572 -1.6129  0.1244  0.9706
  835MOL0     H10204  -0.226   4.927   6.346  0.7938 -0.3809  0.5913
  835MOL0     H10205  -0.128   5.104   6.188  0.4446 -0.8633  2.0088
  835MOL0     H10206   0.844   6.010   6.630  0.9043 -2.8224 -1.0982
  835MOL0     H10207   0.906   5.859   6.783 -0.6617 -1.6076 -0.3313
  835MOL0     H10208   0.537   5.442   7.163 -0.3996  2.1003  1.1970
  835MOL0     H10209   0.643   5.284   7.327  5.2384 -3.1887  1.7517
  835MOL0     H10210   0.789   5.079   7.355 -3.0542  0.5409  1.1068
  835MOL0     H10211   0.776   5.166   7.503 -0.3431  2.3986 -0.9792
  835MOL0     H10212   1.012   5.102   7.564  2.7483  2.7358 -4.2170
  835MOL0     H10213   0.883   4.975   7.559  0.1919 -1.5190 -1.3196
  835MOL0     H10214   1.138   4.950   7.455  0.1752  2.6589  2.1772
  835MOL0     H10215   1.074   5.049   7.326 -1.8042  0.2179 -1.4992
  835MOL0     H10216   0.951   4.766   7.393 -0.8931  0.2433  0.5057
  835MOL0     H10217   0.913   4.876   7.264 -0.7486 -1.5217  2.4112
  835MOL0     H10218   1.223   4.702   7.066 -0.8347 -1.3127  0.4648
  835MOL0     H10219   1.013   5.382   7.167 -0.3962  1.2501 -2.5350
  835MOL0     H10220   0.927   5.562   7.035 -0.3422 -0.5844 -0.2786
  836MOL0     O10221   1.158   7.236   3.555  0.4730  0.1629 -0.0967
  836MOL0     C10222   1.141   7.336   3.630 -1.0270  0.4014 -0.0474
  836MOL0     O10223   1.238   7.432   3.660 -0.3658 -0.0727 -0.5794
  836MOL0     C10224   1.373   7.395   3.646  0.3759 -1.1616 -0.5060
  836MOL0     C10225   1.462   7.500   3.617  0.4354  1.7222  0.4803
  836MOL0     C10226   1.603   7.485   3.622 -0.4766  0.1068 -0.4283
  836MOL0     C10227   1.656   7.359   3.666 -0.3841 -0.0489 -0.0606
  836MOL0     O10228   1.795   7.336   3.688 -0.4198 -0.1448 -0.3205
  836MOL0     C10229   1.847   7.310   3.817  0.3375 -1.2197  0.0437
  836MOL0     C10230   1.928   7.432   3.853  0.7143 -0.4301  1.0055
  836MOL0     C10231   1.857   7.565   3.875 -0.0075  0.0811  0.7524
  836MOL0     C10232   1.792   7.574   4.014 -0.2189 -0.0515 -0.1281
  836MOL0     C10233   1.662   7.651   4.008  0.0062 -0.7477 -0.3103
  836MOL0     C10234   1.535   7.566   3.998 -0.3967 -0.2465  0.4602
  836MOL0     C10235   1.420   7.650   3.943  0.7202 -0.7605  0.3928
  836MOL0     C10236   1.381   7.775   4.034  0.2972  0.0418  0.2987
  836MOL0     N10237   1.243   7.812   3.980  0.1790 -0.0643  0.3373
  836MOL0     C10238   1.210   7.927   3.906 -0.6429 -0.2106 -0.4275
  836MOL0     C10239   1.075   7.939   3.908  0.6498  1.4442 -0.0597
  836MOL0     C10240   0.993   8.052   3.847  0.3775 -0.2540  0.3915
  836MOL0     C10241   1.025   8.052   3.700 -0.5907 -0.8076  0.1479
  836MOL0     C10242   0.943   8.141   3.606 -0.5846  0.7619  0.2228
  836MOL0     C10243   0.802   8.111   3.623 -0.0217 -0.5405  0.0756
  836MOL0     O10244   0.760   8.011   3.536 -0.4181 -0.3098 -0.2465
  836MOL0     C10245   0.634   7.958   3.562  0.2735 -1.1363 -0.6503
  836MOL0     C10246   0.547   7.993   3.671  0.2304 -0.2022  0.2912
  836MOL0     C10247   0.423   7.926   3.683 -0.4282  0.5320  0.9798
  836MOL0     C10248   0.385   7.816   3.598 -0.4610 -0.1819 -0.1007
  836MOL0     C10249   0.251   7.750   3.594 -0.3537  0.1306 -0.4510
  836MOL0     O10250   0.164   7.807   3.689 -0.1254  0.3026 -0.0144
  836MOL0     C10251   0.038   7.743   3.710 -0.1185  0.6190  0.2156
  836MOL0     C10252   0.046   7.641   3.802  0.3488 -0.4705 -0.4451
  836MOL0     C10253  -0.077   7.576   3.838 -0.1471  0.8680  0.2118
  836MOL0     C10254  -0.199   7.610   3.774  0.0571  0.9891  0.5224
  836MOL0     O10255  -0.316   7.546   3.798  0.7332 -0.4535  0.1547
  836MOL0     C10256  -0.332   7.425   3.876  0.2696 -1.6870  0.1157
  836MOL0     C10257  -0.478   7.399   3.893  0.7109  0.0164 -1.3831
  836MOL0     C10258  -0.561   7.521   3.950 -0.0040 -0.0113 -0.1917
  836MOL0     C10259  -0.719   7.506   3.931 -0.6955 -0.0284 -0.2791
  836MOL0     C10260  -0.797   7.404   4.018 -0.0216  0.5263  0.7527
  836MOL0     C10261  -0.772   7.420   4.175  0.8193 -0.3348  0.1868
  836MOL0     C10262  -0.783   7.563   4.227 -0.6045 -0.8497 -0.4019
  836MOL0     C10263  -0.790   7.585   4.384  0.2691 -0.1372  0.0470
  836MOL0    Cl10264  -0.774   7.755   4.448 -0.3542  0.1449  0.4231
  836MOL0     C10265  -0.199   7.706   3.671 -0.2523  0.6105  1.1589
  836MOL0     C10266  -0.082   7.786   3.651 -0.4959  0.7323 -0.8185
  836MOL0     O10267   0.224   7.649   3.527 -0.0150  0.3643 -0.0224
  836MOL0     C10268   0.475   7.784   3.491 -0.6221  0.5310 -0.3445
  836MOL0     C10269   0.597   7.847   3.482 -0.1928 -0.1519 -0.4882
  836MOL0     N10270   1.031   7.842   3.997  0.2953  0.0288  1.1285
  836MOL0     N10271   1.127   7.767   4.033  0.2825  0.4843 -0.2083
  836MOL0     C10272   1.572   7.262   3.691 -0.2346 -0.1877  0.0406
  836MOL0     C10273   1.435   7.273   3.675  1.4706  0.0201  0.7924
  836MOL0     C10274   1.010   7.360   3.681  0.2271 -0.1099 -0.3863
  836MOL0     C10275   0.974   7.498   3.698  0.4538 -0.5456 -0.0222
  836MOL0     C10276   0.847   7.530   3.756 -0.2436 -0.9346  0.7281
  836MOL0     C10277   0.759   7.430   3.787  0.8689  0.1512  0.6788
  836MOL0     O10278   0.638   7.453   3.840 -0.0359  0.8637 -0.7608
  836MOL0     C10279   0.607   7.589   3.880  0.3287 -0.6052  0.1850
  836MOL0     C10280   0.459   7.585   3.920 -0.0029 -0.1694 -0.3293
  836MOL0     C10281   0.417   7.681   4.049  0.1733 -0.4255 -0.5351
  836MOL0     C10282   0.308   7.600   4.133  0.2880 -0.6404  0.3699
  836MOL0     C10283   0.247   7.683   4.235  0.5333  0.2056  0.3683
  836MOL0     C10284   0.224   7.774   4.311  0.2786  0.3815  1.5478
  836MOL0     C10285   0.789   7.296   3.770 -0.0996  0.0595  0.7320
  836MOL0     C10286   0.913   7.265   3.717  0.0791  0.7759  1.0860
  836MOL0     H10287   1.408   7.593   3.602 -1.1723  0.5831 -1.2626
  836MOL0     H10288   1.675   7.565   3.613 -1.4133  0.7775 -2.5732
  836MOL0     H10289   1.920   7.228   3.814  0.7628 -0.8514  0.2951
  836MOL0     H10290   1.770   7.281   3.889  1.2649 -2.9649  0.3886
  836MOL0     H10291   2.003   7.448   3.775 -1.1174  1.0572 -0.5445
  836MOL0     H10292   1.984   7.411   3.945  1.7383 -1.4817  0.1805
  836MOL0     H10293   1.791   7.586   3.790  1.3427 -1.9660 -0.9049
  836MOL0     H10294   1.930   7.647   3.879 -0.1702  0.2150  0.9703
  836MOL0     H10295   1.781   7.473   4.057 -0.1508  0.3359  0.8234
  836MOL0     H10296   1.856   7.626   4.086  0.4356  0.2437 -0.9116
  836MOL0     H10297   1.669   7.726   3.929  0.2865  0.3475  0.7280
  836MOL0     H10298   1.645   7.697   4.106  0.5401  1.5944 -1.2385
  836MOL0     H10299   1.511   7.524   4.096  1.5863  0.2684  1.2172
  836MOL0     H10300   1.549   7.491   3.919 -1.1385 -0.7744  0.8155
  836MOL0     H10301   1.456   7.691   3.847 -0.1395 -0.2373  0.2803
  836MOL0     H10302   1.326   7.598   3.923  0.0807  1.0675 -1.8587
  836MOL0     H10303   1.449   7.859   4.019 -2.8399  2.7840  0.2756
  836MOL0     H10304   1.375   7.751   4.140 -4.5660 -2.7255 -0.3149
  836MOL0     H10305   1.283   7.991   3.858 -1.4998 -1.2695 -3.3129
  836MOL0     H10306   1.032   8.142   3.894 -0.0096  0.1606 -0.0720
  836MOL0     H10307   0.887   8.039   3.869 -0.1055  0.6606 -1.2172
  836MOL0     H10308   1.001   7.953   3.660  2.2216 -0.9025 -1.6274
  836MOL0     H10309   1.132   8.075   3.693 -0.3038 -1.6255  1.5360
  836MOL0     H10310   0.964   8.248   3.621 -0.7046  0.6129  1.5385
  836MOL0     H10311   0.973   8.115   3.504  1.4459 -1.3931  1.2724
  836MOL0     H10312   0.738   8.197   3.600  2.7094  1.4082 -0.7533
  836MOL0     H10313   0.775   8.082   3.725 -4.0216  1.1561 -0.3169
  836MOL0     H10314   0.561   8.078   3.738 -1.0647  0.6699 -0.4933
  836MOL0     H10315   0.352   7.947   3.762 -0.3983 -0.8874  1.4153
  836MOL0     H10316   0.148   7.610   3.823  0.3190 -0.3076 -0.0528
  836MOL0     H10317  -0.064   7.485   3.896 -3.0187 -0.0445 -0.3782
  836MOL0     H10318  -0.290   7.450   3.974  3.1169  1.0125 -1.6029
  836MOL0     H10319  -0.282   7.336   3.835 -0.2669 -2.3980  0.9534
  836MOL0     H10320  -0.493   7.310   3.955  3.3322  0.4280  0.0131
  836MOL0     H10321  -0.520   7.360   3.801 -2.0335 -0.9432  0.1646
  836MOL0     H10322  -0.530   7.609   3.892  0.4494 -0.3393 -0.4481
  836MOL0     H10323  -0.536   7.547   4.054  0.9094  1.8253 -0.8152
  836MOL0     H10324  -0.770   7.601   3.949 -2.3430 -0.3244 -2.9005
  836MOL0     H10325  -0.749   7.483   3.829 -1.3376  0.4452 -0.2089
  836MOL0     H10326  -0.767   7.306   3.979 -3.6298 -0.4179 -0.0482
  836MOL0     H10327  -0.902   7.398   3.989  0.6902 -3.6442 -1.8611
  836MOL0     H10328  -0.678   7.373   4.207  0.0055 -0.0329  3.3577
  836MOL0     H10329  -0.853   7.362   4.219  2.2933 -1.4870  1.4785
  836MOL0     H10330  -0.683   7.597   4.196 -0.7919 -0.1825 -0.2856
  836MOL0     H10331  -0.859   7.625   4.179 -1.8021 -0.8339  1.3991
  836MOL0     H10332  -0.728   7.513   4.438  2.4975  1.2482 -0.5743
  836MOL0     H10333  -0.895   7.557   4.403 -0.3738  0.0065 -2.8792
  836MOL0     H10334  -0.292   7.720   3.618  1.2873 -0.3900 -2.0299
  836MOL0     H10335  -0.071   7.869   3.583  2.4597  1.5302  0.4812
  836MOL0     H10336   0.455   7.691   3.439  2.6075  0.4131 -1.5965
  836MOL0     H10337   0.679   7.819   3.417  1.3184  0.7786  0.9269
  836MOL0     H10338   1.614   7.170   3.729  0.9910  1.5305  3.2328
  836MOL0     H10339   1.379   7.181   3.687  2.9178 -0.7958  1.5958
  836MOL0     H10340   1.045   7.579   3.680 -1.4495  1.7898  2.2713
  836MOL0     H10341   0.832   7.635   3.775  2.0200 -0.0494 -1.7232
  836MOL0     H10342   0.631   7.658   3.798  1.3934 -0.6693  0.4377
  836MOL0     H10343   0.672   7.608   3.966 -0.4546  1.0016  0.4697
  836MOL0     H10344   0.381   7.594   3.844  1.0945  0.6357 -1.4072
  836MOL0     H10345   0.452   7.480   3.952  1.2595 -0.4847 -1.0130
  836MOL0     H10346   0.382   7.780   4.017  4.6764  1.8995  0.7650
  836MOL0     H10347   0.510   7.689   4.107  1.0184 -0.8090 -1.7913
  836MOL0     H10348   0.226   7.575   4.066  0.8119  1.4354 -1.1547
  836MOL0     H10349   0.356   7.516   4.185 -1.1147 -1.1987  0.8192
  836MOL0     H10350   0.222   7.861   4.374  1.4095  3.1057 -1.8870
  836MOL0     H10351   0.716   7.218   3.791 -1.9535  1.3283 -0.6769
  836MOL0     H10352   0.929   7.160   3.695  3.6222  1.8361 -2.4707
  837MOL0     O10353   3.209   1.184   8.275  0.6170 -0.3059  0.0525
  837MOL0     C10354   3.317   1.207   8.231  0.1997 -0.3916 -0.2004
  837MOL0     O10355   3.381   1.331   8.226  0.5524 -0.1872  0.0845
  837MOL0     C10356   3.331   1.442   8.289 -0.1360 -0.6644 -0.2379
  837MOL0     C10357   3.196   1.474   8.278 -0.2103  0.6351 -1.0858
  837MOL0     C10358   3.142   1.569   8.360 -0.5081 -0.9086 -1.4638
  837MOL0     C10359   3.221   1.655   8.445 -0.2568 -0.8187  0.2645
  837MOL0     O10360   3.159   1.750   8.530 -0.8994  0.8891 -0.1159
  837MOL0     C10361   3.197   1.887   8.495  0.1684  1.0462 -0.9400
  837MOL0     C10362   3.083   1.968   8.552  0.1562 -0.6145  0.3434
  837MOL0     C10363   3.142   2.110   8.530  0.6984  0.9414  0.7961
  837MOL0     C10364   3.027   2.211   8.555 -0.4507 -0.4628  0.6084
  837MOL0     C10365   3.086   2.348   8.545  0.0150 -0.0483 -0.1123
  837MOL0     C10366   2.967   2.452   8.542 -0.1750 -0.3958 -0.3179
  837MOL0     C10367   3.005   2.607   8.552 -0.1136 -0.6312  1.0258
  837MOL0     C10368   3.091   2.659   8.422  0.3764  0.2835 -0.7328
  837MOL0     N10369   3.139   2.796   8.425 -0.1294 -0.5268 -0.5291
  837MOL0     C10370   3.071   2.903   8.494 -0.1707 -0.7969 -0.2801
  837MOL0     C10371   3.157   3.008   8.497  0.2752 -0.7048 -0.0593
  837MOL0     C10372   3.121   3.144   8.555  0.0646 -0.2423  0.1661
  837MOL0     C10373   3.157   3.140   8.703 -0.4656 -0.1000 -0.5380
  837MOL0     C10374   3.055   3.230   8.783 -1.0114 -0.2666  0.6924
  837MOL0     C10375   3.106   3.232   8.927 -0.0805  0.2289  0.4462
  837MOL0     O10376   3.002   3.299   8.988 -0.1751 -1.0162  0.1572
  837MOL0     C10377   2.991   3.285   9.125  1.2081 -0.0919  0.2314
  837MOL0     C10378   2.872   3.211   9.176 -0.3648  0.7439  0.3246
  837MOL0     C10379   2.860   3.194   9.309 -0.2884  0.1355  0.6162
  837MOL0     C10380   2.963   3.241   9.397 -0.1582 -0.5645  0.7142
  837MOL0     C10381   2.949   3.222   9.544 -0.4259  0.0504 -0.0749
  837MOL0     O10382   3.059   3.255   9.621  0.1037 -0.0744  0.1814
  837MOL0     C10383   3.063   3.253   9.751 -0.8456 -0.6161 -0.6842
  837MOL0     C10384   3.191   3.262   9.812  0.8887  0.0126 -0.1437
  837MOL0     C10385   3.200   3.263   9.952  0.1998  0.0429 -0.4325
  837MOL0     C10386   3.085   3.245  10.035  1.8096 -1.0372 -0.4025
  837MOL0     O10387   3.092   3.241  10.178  0.0366 -0.1388 -0.1342
  837MOL0     C10388   3.214   3.195  10.241 -0.0062  0.3526  0.2191
  837MOL0     C10389   3.198   3.181  10.399 -0.4565 -0.8408 -0.0726
  837MOL0     C10390   3.120   3.051  10.429 -0.2704  0.8007 -0.6170
  837MOL0     C10391   3.173   2.989  10.563 -0.0226 -0.0829  0.6096
  837MOL0     C10392   3.068   2.873  10.604 -0.3383  0.8718 -1.0818
  837MOL0     C10393   3.065   2.868  10.763  0.6824 -0.7734  0.9162
  837MOL0     C10394   2.996   2.752  10.826 -0.7355 -0.1684 -0.6918
  837MOL0     C10395   2.841   2.743  10.813 -0.6786 -0.8393  0.9418
  837MOL0    Cl10396   2.748   2.761  10.969 -0.1273 -0.4019 -0.0025
  837MOL0     C10397   2.957   3.237   9.972  0.3436 -0.7414  0.1052
  837MOL0     C10398   2.952   3.244   9.832  0.3064  0.5663  0.2299
  837MOL0     O10399   2.846   3.175   9.574 -0.0301 -0.3218 -0.0804
  837MOL0     C10400   3.085   3.296   9.352 -0.3795  0.2005 -0.2978
  837MOL0     C10401   3.093   3.321   9.212  0.0683 -0.3787 -0.2831
  837MOL0     N10402   3.276   2.967   8.434  0.6569  0.4257 -0.1410
  837MOL0     N10403   3.259   2.846   8.386  0.0928  0.0833 -0.4477
  837MOL0     C10404   3.361   1.633   8.438  0.1648 -0.0468  0.5275
  837MOL0     C10405   3.414   1.529   8.356 -0.3519 -0.0292  0.0412
  837MOL0     C10406   3.381   1.094   8.163 -0.1550 -0.7829  0.5260
  837MOL0     C10407   3.321   0.968   8.148  0.2339 -0.1293  0.0554
  837MOL0     C10408   3.399   0.861   8.092  1.2955  0.6581  0.5132
  837MOL0     C10409   3.526   0.886   8.049 -0.0297 -0.4848 -0.2413
  837MOL0     O10410   3.590   0.772   8.011 -0.1058  0.0859 -0.0223
  837MOL0     C10411   3.734   0.746   8.026  0.2052 -0.7036  0.5549
  837MOL0     C10412   3.788   0.756   7.888  0.3675  0.2292  0.2104
  837MOL0     C10413   3.937   0.752   7.883  0.0608 -0.0089  0.2286
  837MOL0     C10414   4.000   0.619   7.933 -0.5438  1.2687  0.2403
  837MOL0     C10415   3.969   0.497   7.858  0.2609  0.0138  1.4134
  837MOL0     C10416   3.916   0.396   7.819 -0.8864 -0.1301 -0.1589
  837MOL0     C10417   3.585   1.010   8.058  0.0848  0.9601 -0.1787
  837MOL0     C10418   3.510   1.114   8.126  0.7717 -0.1303 -0.3886
  837MOL0     H10419   3.128   1.429   8.206 -1.3624  4.0505 -2.3491
  837MOL0     H10420   3.036   1.591   8.360 -0.0086  2.6054  2.5001
  837MOL0     H10421   3.208   1.894   8.387  0.9026  1.3331 -0.8558
  837MOL0     H10422   3.294   1.905   8.543  1.9765 -5.8205 -0.9753
  837MOL0     H10423   3.079   1.947   8.660  1.1135 -0.1181  0.4844
  837MOL0     H10424   2.992   1.934   8.502 -0.0136  0.8716 -0.3877
  837MOL0     H10425   3.177   2.125   8.428  0.3534 -0.1001  0.5048
  837MOL0     H10426   3.226   2.133   8.596  2.3588  3.1959 -1.9063
  837MOL0     H10427   2.948   2.183   8.485 -2.8980  0.6156  2.7987
  837MOL0     H10428   2.985   2.195   8.654 -3.3667 -0.6508 -0.5706
  837MOL0     H10429   3.145   2.351   8.452  0.4161 -0.5661  0.1159
  837MOL0     H10430   3.157   2.363   8.627 -0.5491 -1.2608  0.6298
  837MOL0     H10431   2.905   2.440   8.631  1.4495  0.8482  1.0653
  837MOL0     H10432   2.906   2.440   8.452  1.0931 -1.0792 -1.1122
  837MOL0     H10433   2.910   2.660   8.560 -1.2546 -2.3171 -0.7030
  837MOL0     H10434   3.066   2.630   8.640  0.6024 -0.1493  0.4148
  837MOL0     H10435   3.037   2.625   8.333  0.1389  0.0335 -0.4946
  837MOL0     H10436   3.180   2.594   8.422 -0.1942 -0.5265 -1.6180
  837MOL0     H10437   2.970   2.916   8.531 -0.9754 -0.9753 -2.2978
  837MOL0     H10438   3.014   3.161   8.538  0.6527  2.7297 -1.1854
  837MOL0     H10439   3.184   3.222   8.510 -1.0471 -0.5164 -1.9852
  837MOL0     H10440   3.265   3.155   8.719 -0.6541 -0.0421  0.8288
  837MOL0     H10441   3.138   3.039   8.740  1.0894 -0.3627 -0.3586
  837MOL0     H10442   3.049   3.330   8.739 -0.6602 -0.2389  0.7077
  837MOL0     H10443   2.956   3.188   8.764 -0.7895  0.2885 -2.1196
  837MOL0     H10444   3.198   3.291   8.919  1.0399 -1.5472 -0.4614
  837MOL0     H10445   3.123   3.134   8.971 -2.3207  1.1737  3.7500
  837MOL0     H10446   2.790   3.177   9.112 -0.1346 -1.4802  1.1099
  837MOL0     H10447   2.768   3.158   9.352 -1.7333  1.0982 -1.5146
  837MOL0     H10448   3.283   3.262   9.754  3.1094 -2.9271  3.0123
  837MOL0     H10449   3.296   3.267  10.003  1.2604  1.5018 -2.3941
  837MOL0     H10450   3.295   3.269  10.241  1.6972 -1.4374  0.5692
  837MOL0     H10451   3.250   3.098  10.208 -1.0572 -0.4329  1.2675
  837MOL0     H10452   3.160   3.273  10.444  1.1372 -0.0594 -0.2654
  837MOL0     H10453   3.302   3.162  10.426 -0.5180  0.0240  0.7963
  837MOL0     H10454   3.128   2.978  10.347  0.5469 -1.9412  1.7204
  837MOL0     H10455   3.014   3.070  10.444 -1.1476 -1.7611 -2.7022
  837MOL0     H10456   3.266   2.937  10.541  0.3300  0.7885 -0.0164
  837MOL0     H10457   3.191   3.064  10.640  0.4378 -2.3353  2.7978
  837MOL0     H10458   3.107   2.782  10.557  0.5083  1.6385 -1.9022
  837MOL0     H10459   2.961   2.878  10.580 -1.1163  0.1910  1.8743
  837MOL0     H10460   3.008   2.953  10.800 -1.2503 -1.6719  0.1269
  837MOL0     H10461   3.166   2.873  10.803  1.1101  1.2553 -0.2581
  837MOL0     H10462   3.046   2.664  10.783  1.4619 -0.0222  1.3557
  837MOL0     H10463   3.025   2.768  10.930  1.8497  0.0787 -1.3744
  837MOL0     H10464   2.826   2.644  10.769  0.6096  0.2474 -2.2478
  837MOL0     H10465   2.804   2.828  10.754 -1.0089 -0.8752  1.0973
  837MOL0     H10466   2.861   3.232  10.021 -0.2787  1.5429 -0.7576
  837MOL0     H10467   2.854   3.249   9.785 -0.0555 -1.3794  0.6753
  837MOL0     H10468   3.171   3.330   9.409  0.2015 -1.4032 -0.1746
  837MOL0     H10469   3.188   3.352   9.170  0.4547 -2.2980 -0.9082
  837MOL0     H10470   3.426   1.692   8.501 -0.6644  0.9162  0.4977
  837MOL0     H10471   3.522   1.518   8.354 -0.0309  2.4675 -0.3192
  837MOL0     H10472   3.218   0.951   8.177 -0.0025  0.9815 -0.0573
  837MOL0     H10473   3.350   0.766   8.075  1.1911  0.5078  1.5648
  837MOL0     H10474   3.760   0.645   8.057  3.9658  0.4654  1.8395
  837MOL0     H10475   3.784   0.821   8.089 -0.5655  1.5106 -1.3208
  837MOL0     H10476   3.748   0.681   7.819  1.1220  0.7764 -0.8566
  837MOL0     H10477   3.767   0.855   7.847  2.6208  1.1248  1.0797
  837MOL0     H10478   3.981   0.844   7.924  0.7020  0.0395 -0.5346
  837MOL0     H10479   3.955   0.757   7.776  1.3623  0.3384  0.4474
  837MOL0     H10480   4.109   0.623   7.925 -0.6635  1.4036 -1.8293
  837MOL0     H10481   3.979   0.599   8.038 -1.3904 -6.0404 -0.8529
  837MOL0     H10482   3.872   0.314   7.766  2.2292 -0.6764 -2.2136
  837MOL0     H10483   3.692   1.021   8.043 -0.0558  0.5928 -1.5765
  837MOL0     H10484   3.563   1.208   8.134  2.0760 -0.5802 -2.7079
  838MOL0     O10485   6.352   0.809  10.131  0.2313 -0.0232  0.3872
  838MOL0     C10486   6.384   0.753  10.233 -1.0434  0.0114 -0.1635
  838MOL0     O10487   6.513   0.736  10.263 -0.0124  0.0548  0.1631
  838MOL0     C10488   6.603   0.717  10.157  0.0615  0.9392  0.7885
  838MOL0     C10489   6.671   0.832  10.111  0.0677  0.1068 -0.6246
  838MOL0     C10490   6.771   0.806  10.016 -0.9785 -0.3476 -0.4768
  838MOL0     C10491   6.820   0.673   9.999 -0.5315 -0.7245  0.7153
  838MOL0     O10492   6.933   0.641   9.926  0.3592 -0.1983  0.5407
  838MOL0     C10493   7.032   0.741   9.924  0.1753  0.6426 -0.1462
  838MOL0     C10494   7.168   0.677   9.883  0.9334 -0.0744 -0.4686
  838MOL0     C10495   7.191   0.647   9.740 -0.6684  1.2601 -0.1754
  838MOL0     C10496   7.336   0.596   9.728 -0.3074  0.2625 -0.3842
  838MOL0     C10497   7.351   0.495   9.614 -0.2508 -0.1819  0.3395
  838MOL0     C10498   7.486   0.517   9.542 -0.3091 -0.1213 -0.1103
  838MOL0     C10499   7.615   0.460   9.623  0.9516 -0.5891 -0.3861
  838MOL0     C10500   7.747   0.469   9.553 -0.2649 -0.0728  0.2098
  838MOL0     N10501   7.780   0.609   9.518  0.2903  1.4069 -0.3957
  838MOL0     C10502   7.800   0.708   9.610  0.1537 -0.4236  0.3260
  838MOL0     C10503   7.865   0.804   9.541 -1.2842  0.8115  0.7432
  838MOL0     C10504   7.899   0.938   9.600  0.0972  0.5505  0.7616
  838MOL0     C10505   8.010   0.911   9.700 -0.2829 -0.2085 -0.0840
  838MOL0     C10506   8.150   0.881   9.629 -0.1363  0.4551 -0.3642
  838MOL0     C10507   8.200   1.010   9.563 -0.3404 -0.2611 -0.5962
  838MOL0     O10508   8.169   1.123   9.653  0.0892  0.1706 -0.0920
  838MOL0     C10509   8.291   1.168   9.694  0.7678  1.1050 -0.0050
  838MOL0     C10510   8.362   1.258   9.613 -0.2241 -0.1304 -0.4971
  838MOL0     C10511   8.484   1.310   9.644 -0.7492  0.2540 -0.7497
  838MOL0     C10512   8.548   1.265   9.765 -0.2099  0.2138  0.4534
  838MOL0     C10513   8.691   1.294   9.789 -0.4390 -0.4406 -0.8947
  838MOL0     O10514   8.744   1.233   9.903  0.2342 -1.1018 -0.3031
  838MOL0     C10515   8.871   1.235   9.931 -0.4210  0.0421  0.2899
  838MOL0     C10516   8.909   1.326  10.028 -0.6768 -0.0690 -1.0476
  838MOL0     C10517   9.043   1.340  10.064 -0.0049 -0.0490  0.1433
  838MOL0     C10518   9.129   1.250  10.009  0.9565 -1.2691 -0.4118
  838MOL0     O10519   9.262   1.233  10.061 -0.2365 -0.2782  0.2978
  838MOL0     C10520   9.285   1.283  10.191 -1.1310 -0.0649  0.9304
  838MOL0     C10521   9.431   1.274  10.233 -0.1436 -0.4246 -1.1369
  838MOL0     C10522   9.465   1.323  10.372 -0.1520  0.0464 -0.2687
  838MOL0     C10523   9.400   1.219  10.476 -0.2591 -0.0163  0.1757
  838MOL0     C10524   9.422   1.263  10.619  0.1897  0.0801  0.0907
  838MOL0     C10525   9.550   1.215  10.683  0.2259 -0.1488  0.2811
  838MOL0     C10526   9.567   1.257  10.835  0.1050 -0.7518  0.9744
  838MOL0     C10527   9.437   1.220  10.912  0.2219  0.1708 -0.5408
  838MOL0    Cl10528   9.433   1.278  11.080  0.1864  0.3327  0.0575
  838MOL0     C10529   9.099   1.164   9.909  0.1968  0.6201  0.5675
  838MOL0     C10530   8.970   1.155   9.873  0.0663 -0.1983  0.0421
  838MOL0     O10531   8.752   1.382   9.724 -0.1926  0.2850  0.4387
  838MOL0     C10532   8.478   1.170   9.852 -0.0603 -0.4035  0.0011
  838MOL0     C10533   8.352   1.124   9.815 -0.0155 -0.6721  0.0948
  838MOL0     N10534   7.862   0.769   9.408  0.2218  0.9614  0.0114
  838MOL0     N10535   7.814   0.651   9.395  0.2852  0.2675 -0.8320
  838MOL0     C10536   6.747   0.560  10.040 -1.0046 -1.0624 -0.8191
  838MOL0     C10537   6.627   0.586  10.115 -0.5051  0.0770 -0.5841
  838MOL0     C10538   6.287   0.713  10.336  0.9702  0.3600  0.7150
  838MOL0     C10539   6.320   0.650  10.458  0.2058 -0.6820 -0.0258
  838MOL0     C10540   6.230   0.640  10.562  0.0252  0.3067 -0.3443
  838MOL0     C10541   6.091   0.671  10.549  0.5077 -0.0041 -0.3846
  838MOL0     O10542   5.993   0.673  10.643 -0.7665  0.3252 -0.0906
  838MOL0     C10543   6.040   0.652  10.776  0.2449 -0.8383  0.1540
  838MOL0     C10544   5.927   0.672  10.871 -0.1928 -0.0016  0.5126
  838MOL0     C10545   5.910   0.808  10.915  0.9625 -0.3652 -0.0104
  838MOL0     C10546   5.783   0.835  11.003 -0.7294 -0.0627  0.4943
  838MOL0     C10547   5.810   0.807  11.140  0.6296  0.4246 -0.4252
  838MOL0     C10548   5.839   0.750  11.242 -0.4262  1.2012  0.2360
  838MOL0     C10549   6.057   0.724  10.428  0.1965  0.0481  0.1356
  838MOL0     C10550   6.150   0.746  10.325  1.1173 -0.1793 -1.3436
  838MOL0     H10551   6.631   0.928  10.140 -2.3226 -1.5505  2.0686
  838MOL0     H10552   6.802   0.893   9.959 -2.5383  0.3760 -0.2891
  838MOL0     H10553   7.034   0.777  10.027 -1.8536  2.1702 -0.5795
  838MOL0     H10554   7.015   0.830   9.863  2.7279  0.7056 -0.9219
  838MOL0     H10555   7.177   0.585   9.942  1.8138  0.1406 -0.2644
  838MOL0     H10556   7.245   0.750   9.909  0.8699  0.6293 -2.1398
  838MOL0     H10557   7.176   0.741   9.686  0.0666  1.6871  0.3434
  838MOL0     H10558   7.112   0.579   9.706  1.5605 -1.4675 -0.2071
  838MOL0     H10559   7.406   0.680   9.730  0.9525 -0.7505  1.4593
  838MOL0     H10560   7.368   0.537   9.815  0.6065  0.3142 -0.6739
  838MOL0     H10561   7.267   0.506   9.545 -1.5016  2.1889  2.0626
  838MOL0     H10562   7.353   0.393   9.652  1.6654  0.3749  1.8900
  838MOL0     H10563   7.514   0.623   9.543  1.3607 -0.5016  1.8409
  838MOL0     H10564   7.496   0.475   9.442  2.5198  2.2042 -0.9343
  838MOL0     H10565   7.613   0.502   9.724 -0.6801 -1.2956 -0.0961
  838MOL0     H10566   7.606   0.352   9.638  1.0670 -0.5857 -0.2970
  838MOL0     H10567   7.727   0.406   9.466 -2.1767 -1.8634  1.8486
  838MOL0     H10568   7.815   0.421   9.624 -1.7489 -0.5971  1.3216
  838MOL0     H10569   7.785   0.705   9.717 -1.3463  0.0464  0.1489
  838MOL0     H10570   7.802   0.972   9.637 -2.5892 -3.3264 -1.8357
  838MOL0     H10571   7.928   1.005   9.519  1.4395 -1.9424 -0.9484
  838MOL0     H10572   7.978   0.817   9.747 -4.5483 -0.0270 -2.1976
  838MOL0     H10573   8.012   0.982   9.783 -1.9947 -0.1244 -0.0653
  838MOL0     H10574   8.217   0.847   9.708 -0.9145 -1.4254 -0.4802
  838MOL0     H10575   8.148   0.792   9.565  1.5054  2.8505 -4.1581
  838MOL0     H10576   8.148   1.025   9.467 -3.1368  1.0267  0.9734
  838MOL0     H10577   8.307   0.996   9.544  0.4012 -0.5162  3.0493
  838MOL0     H10578   8.314   1.309   9.530  1.8124  1.3753 -0.8445
  838MOL0     H10579   8.531   1.387   9.585 -3.0104  2.1000 -0.2732
  838MOL0     H10580   8.845   1.398  10.079  0.9035  3.0185 -3.1270
  838MOL0     H10581   9.066   1.419  10.135 -0.4026 -0.5899  0.8851
  838MOL0     H10582   9.214   1.247  10.266 -3.2839  3.5090  0.8343
  838MOL0     H10583   9.282   1.392  10.177  4.4739  0.0144 -2.9261
  838MOL0     H10584   9.480   1.342  10.162 -1.0082  1.6097  0.1385
  838MOL0     H10585   9.474   1.175  10.213 -1.3973 -1.7348  1.9969
  838MOL0     H10586   9.436   1.425  10.399  0.4578 -0.1735  1.3341
  838MOL0     H10587   9.573   1.312  10.383 -0.2528 -2.3331 -1.0886
  838MOL0     H10588   9.295   1.219  10.446 -0.4956  0.8396  0.9713
  838MOL0     H10589   9.447   1.123  10.452  0.1314 -0.1320  1.3303
  838MOL0     H10590   9.342   1.210  10.671 -0.1700 -0.8371 -1.3210
  838MOL0     H10591   9.403   1.370  10.630 -0.2773  0.1909 -1.5263
  838MOL0     H10592   9.631   1.252  10.621 -1.4095  1.6706 -0.8644
  838MOL0     H10593   9.557   1.107  10.663 -2.4297  0.2795 -4.4777
  838MOL0     H10594   9.643   1.190  10.876 -0.4606 -0.5675  2.3689
  838MOL0     H10595   9.596   1.362  10.844 -2.5436  0.1956 -0.4378
  838MOL0     H10596   9.409   1.115  10.898 -0.5147  0.6723 -3.5089
  838MOL0     H10597   9.360   1.281  10.864  1.5670  2.2418 -0.1949
  838MOL0     H10598   9.176   1.097   9.871  1.8183  1.9529  1.3437
  838MOL0     H10599   8.924   1.081   9.808 -0.7261  0.7234 -0.4766
  838MOL0     H10600   8.517   1.122   9.941 -1.8725 -2.4200 -0.2212
  838MOL0     H10601   8.295   1.065   9.886 -0.6848  1.3644  1.3330
  838MOL0     H10602   6.782   0.461  10.015 -1.1989 -0.9638 -1.5001
  838MOL0     H10603   6.553   0.514  10.148 -2.9341  2.3987 -0.6097
  838MOL0     H10604   6.417   0.615  10.489  0.1668  0.0637  0.9753
  838MOL0     H10605   6.268   0.588  10.649  1.4814 -0.3031 -1.3187
  838MOL0     H10606   6.124   0.716  10.807 -2.7550  1.9643  3.2663
  838MOL0     H10607   6.066   0.546  10.784 -0.9804 -1.4088 -2.4860
  838MOL0     H10608   5.851   0.627  10.806  1.3279  0.8554 -2.0094
  838MOL0     H10609   5.926   0.614  10.964 -2.5248  1.4896  1.5231
  838MOL0     H10610   5.908   0.876  10.829 -0.6844 -0.2480  0.0958
  838MOL0     H10611   5.994   0.834  10.981  1.8273 -0.6919 -0.9579
  838MOL0     H10612   5.760   0.942  11.002 -1.0305 -0.0700 -2.8643
  838MOL0     H10613   5.699   0.781  10.959  2.0337 -3.0898 -1.5900
  838MOL0     H10614   5.873   0.699  11.330 -2.7211 -0.6108  0.1612
  838MOL0     H10615   5.953   0.736  10.401  0.7556  0.0514 -2.1876
  838MOL0     H10616   6.114   0.796  10.235  0.6406 -0.0364 -1.0791
  839MOL0     O10617   4.536   5.831   6.253 -0.6665 -0.6267 -0.1046
  839MOL0     C10618   4.589   5.790   6.149  0.3987 -0.6577 -0.8883
  839MOL0     O10619   4.521   5.771   6.024 -0.0543  0.2236 -0.5946
  839MOL0     C10620   4.391   5.820   6.006 -1.0572 -0.0272  0.6648
  839MOL0     C10621   4.300   5.750   5.925 -0.2300  0.1187 -1.0102
  839MOL0     C10622   4.170   5.795   5.912  0.9748  0.1875 -0.1340
  839MOL0     C10623   4.122   5.915   5.975 -0.2053 -0.0909  0.5665
  839MOL0     O10624   3.993   5.969   5.976 -0.5954 -0.6219 -0.5846
  839MOL0     C10625   3.895   5.909   5.893  0.4572  0.0468  0.9454
  839MOL0     C10626   3.748   5.954   5.913 -0.0586 -0.3371  0.5316
  839MOL0     C10627   3.656   5.864   5.827 -0.0942 -1.0079 -0.1246
  839MOL0     C10628   3.502   5.869   5.843  0.0616 -0.3582  0.7844
  839MOL0     C10629   3.431   5.796   5.724  0.9181 -0.2600 -0.1934
  839MOL0     C10630   3.280   5.778   5.749  0.2296 -0.5281 -0.5269
  839MOL0     C10631   3.192   5.899   5.785  0.3173 -0.5454 -0.4385
  839MOL0     C10632   3.173   5.985   5.656 -0.4035 -1.0425 -0.1169
  839MOL0     N10633   3.145   6.120   5.698  0.8632 -0.8235 -0.0975
  839MOL0     C10634   3.217   6.215   5.765 -0.4548  0.1288 -0.1945
  839MOL0     C10635   3.136   6.318   5.769  0.1112 -0.0190 -0.1735
  839MOL0     C10636   3.180   6.432   5.860  0.4744 -0.6049  0.3756
  839MOL0     C10637   3.176   6.563   5.783  0.4471  0.0131  0.3287
  839MOL0     C10638   3.206   6.685   5.866  0.1407 -0.2167 -0.2666
  839MOL0     C10639   3.187   6.822   5.795 -0.6208  0.1787  0.3966
  839MOL0     O10640   3.046   6.853   5.770 -0.2220  0.3402 -0.1224
  839MOL0     C10641   3.015   6.977   5.807  0.5296 -0.0466 -0.2794
  839MOL0     C10642   3.025   7.088   5.728  0.3783 -0.1626  0.9414
  839MOL0     C10643   2.988   7.216   5.774  0.6738  0.2298  1.1620
  839MOL0     C10644   2.965   7.227   5.913 -0.3178  0.2850 -0.6057
  839MOL0     C10645   2.948   7.368   5.976 -0.5231 -0.1547  0.1930
  839MOL0     O10646   2.887   7.378   6.104 -0.1247 -0.0940  0.6519
  839MOL0     C10647   2.874   7.502   6.158 -0.9286  0.6869 -0.2956
  839MOL0     C10648   2.762   7.515   6.248 -0.3496  0.0699  0.3661
  839MOL0     C10649   2.744   7.615   6.340 -0.4169 -1.0913  0.6759
  839MOL0     C10650   2.853   7.713   6.343 -0.0888  1.1230 -0.6619
  839MOL0     O10651   2.833   7.818   6.434 -0.3323 -0.4042  0.1350
  839MOL0     C10652   2.937   7.847   6.519 -0.1183  0.1434 -0.2534
  839MOL0     C10653   2.941   7.746   6.630 -0.0991  0.3793  0.6131
  839MOL0     C10654   2.808   7.728   6.707  0.2090 -0.1110  0.3381
  839MOL0     C10655   2.777   7.857   6.779 -0.0740  0.9458  0.0588
  839MOL0     C10656   2.661   7.832   6.878  0.3355 -0.3570 -0.1887
  839MOL0     C10657   2.523   7.833   6.802  0.2142  0.5038 -0.2359
  839MOL0     C10658   2.395   7.819   6.891 -0.4876 -0.6636  0.0125
  839MOL0     C10659   2.369   7.957   6.965 -0.0236  0.1007 -0.8732
  839MOL0    Cl10660   2.262   8.046   6.856  0.3370 -0.0880 -0.1184
  839MOL0     C10661   2.967   7.698   6.264  0.2780 -0.1153 -0.1884
  839MOL0     C10662   2.981   7.591   6.173  0.2718  0.3103 -0.0531
  839MOL0     O10663   2.987   7.462   5.907 -0.9834  0.2780 -0.2720
  839MOL0     C10664   2.952   7.111   5.998  0.2005  0.6730 -0.5607
  839MOL0     C10665   2.971   6.983   5.935 -0.4622 -0.4360  0.2230
  839MOL0     N10666   3.017   6.302   5.714  0.5309 -0.7356  0.4343
  839MOL0     N10667   3.027   6.187   5.664  0.1492 -0.4650 -0.2741
  839MOL0     C10668   4.212   5.981   6.062 -0.5830  0.0701  0.3136
  839MOL0     C10669   4.348   5.936   6.070  0.2182 -0.1437 -0.0046
  839MOL0     C10670   4.738   5.763   6.162 -0.7336 -0.5058  1.2819
  839MOL0     C10671   4.817   5.767   6.052  0.8140 -0.6561  0.1398
  839MOL0     C10672   4.955   5.776   6.060  0.1865  1.5036  0.5892
  839MOL0     C10673   5.027   5.757   6.174 -0.4402 -0.4271  1.0077
  839MOL0     O10674   5.167   5.730   6.170  0.6080 -0.3184 -0.4907
  839MOL0     C10675   5.223   5.696   6.038  0.6517 -0.0854 -0.4002
  839MOL0     C10676   5.366   5.637   6.063 -1.1298 -0.2774  0.2259
  839MOL0     C10677   5.350   5.503   6.146  0.0011 -0.7089  0.0622
  839MOL0     C10678   5.464   5.399   6.108 -0.0772 -0.9109  0.2058
  839MOL0     C10679   5.598   5.456   6.129  0.3753  0.0898 -0.3810
  839MOL0     C10680   5.713   5.497   6.133 -0.5187  0.7664  0.6593
  839MOL0     C10681   4.950   5.740   6.293  0.0458  1.2138  0.3511
  839MOL0     C10682   4.811   5.735   6.280 -0.0530 -0.7111 -0.1189
  839MOL0     H10683   4.337   5.657   5.882  0.9460 -0.0815  0.3559
  839MOL0     H10684   4.105   5.743   5.842 -1.1648 -0.2234  2.0162
  839MOL0     H10685   3.905   5.801   5.899  0.9724 -0.2656 -3.1567
  839MOL0     H10686   3.921   5.937   5.791 -0.6691  1.2765  0.9627
  839MOL0     H10687   3.740   6.062   5.903  2.4282 -0.1191  0.1907
  839MOL0     H10688   3.719   5.939   6.018 -1.0881 -0.8442  0.1867
  839MOL0     H10689   3.690   5.762   5.848  2.6613 -0.1269  0.0049
  839MOL0     H10690   3.678   5.883   5.722 -0.0696  0.7590  0.1720
  839MOL0     H10691   3.461   5.839   5.940 -0.5749 -1.7501  0.1141
  839MOL0     H10692   3.476   5.975   5.843 -0.3354 -0.4375 -0.7211
  839MOL0     H10693   3.475   5.696   5.726 -0.4636 -1.2634 -5.2579
  839MOL0     H10694   3.451   5.846   5.628 -0.2873  3.0267  1.1400
  839MOL0     H10695   3.266   5.708   5.831 -1.0508 -1.0908 -1.1909
  839MOL0     H10696   3.245   5.727   5.659  2.5298 -0.7475 -1.3442
  839MOL0     H10697   3.094   5.875   5.826  1.1988 -1.2181  1.3922
  839MOL0     H10698   3.236   5.959   5.865 -2.1835 -0.9809  1.3833
  839MOL0     H10699   3.093   5.944   5.594  0.0953 -2.5609  0.2139
  839MOL0     H10700   3.269   5.981   5.603  0.6494  0.9470  1.4724
  839MOL0     H10701   3.320   6.203   5.796  0.4445  1.4687 -2.3817
  839MOL0     H10702   3.280   6.410   5.897  0.9848  2.0526  0.8073
  839MOL0     H10703   3.105   6.442   5.940  0.6034 -0.3117  0.4616
  839MOL0     H10704   3.071   6.574   5.757  0.5358  2.0132  0.5992
  839MOL0     H10705   3.234   6.554   5.691 -2.0853  0.0367 -1.3620
  839MOL0     H10706   3.139   6.698   5.951 -3.5778  4.4614 -3.3949
  839MOL0     H10707   3.309   6.670   5.902 -0.5720  1.0195  2.4918
  839MOL0     H10708   3.249   6.825   5.705 -0.6856  0.3215  0.3562
  839MOL0     H10709   3.245   6.890   5.859  0.7399 -0.8019  0.2515
  839MOL0     H10710   3.056   7.073   5.625 -1.1234  1.9699  0.1192
  839MOL0     H10711   2.977   7.303   5.710 -2.3310 -0.5006  0.5331
  839MOL0     H10712   2.689   7.435   6.238 -0.5859 -0.0227  2.3855
  839MOL0     H10713   2.653   7.634   6.397 -1.5687  3.0979 -2.0340
  839MOL0     H10714   2.903   7.941   6.563 -4.7936 -0.5600 -1.7804
  839MOL0     H10715   3.036   7.860   6.473 -0.8716  1.7544 -1.5340
  839MOL0     H10716   3.015   7.775   6.706  1.9070  0.4226 -1.2660
  839MOL0     H10717   2.976   7.650   6.590  0.1900  0.5281  0.5084
  839MOL0     H10718   2.827   7.645   6.775 -0.0277 -0.2759  0.2048
  839MOL0     H10719   2.725   7.698   6.643 -0.2261  0.4909  0.6158
  839MOL0     H10720   2.867   7.896   6.827 -0.3842  0.0991  1.3816
  839MOL0     H10721   2.739   7.936   6.713 -2.9832 -1.7744 -1.8380
  839MOL0     H10722   2.672   7.904   6.960 -0.3874 -0.3298 -0.1133
  839MOL0     H10723   2.680   7.737   6.929  0.6854 -0.1572  0.0628
  839MOL0     H10724   2.521   7.742   6.741 -0.1652 -0.7420  1.5404
  839MOL0     H10725   2.525   7.910   6.724 -1.6064  2.4468  1.5181
  839MOL0     H10726   2.310   7.792   6.828 -0.1520 -1.4904 -0.0875
  839MOL0     H10727   2.395   7.733   6.958  1.9560  0.5160  1.6887
  839MOL0     H10728   2.460   8.013   6.988 -0.1289  0.9601 -2.4426
  839MOL0     H10729   2.309   7.932   7.053 -0.7924  0.0681 -1.3951
  839MOL0     H10730   3.038   7.779   6.264 -0.0824  0.2672 -2.2883
  839MOL0     H10731   3.072   7.579   6.114 -0.4353 -0.0772 -1.0790
  839MOL0     H10732   2.925   7.128   6.102 -0.8671  0.9816 -0.8684
  839MOL0     H10733   2.966   6.886   5.983 -2.7365  0.1892  1.3817
  839MOL0     H10734   4.186   6.064   6.127  0.6937 -0.0486  1.0076
  839MOL0     H10735   4.412   5.996   6.134 -0.4346  0.8167 -0.2206
  839MOL0     H10736   4.755   5.765   5.963 -2.3209 -3.4178  2.1223
  839MOL0     H10737   5.009   5.792   5.967 -2.8732 -2.2475 -2.1888
  839MOL0     H10738   5.214   5.783   5.973  1.5343 -0.4046 -0.9716
  839MOL0     H10739   5.172   5.608   5.998 -1.7612  0.9087  0.3643
  839MOL0     H10740   5.422   5.630   5.970  0.9673  0.9894  1.3291
  839MOL0     H10741   5.437   5.704   6.112 -0.1885 -1.8149  1.0465
  839MOL0     H10742   5.252   5.459   6.129  0.2734 -0.6926 -1.7238
  839MOL0     H10743   5.365   5.524   6.252  1.3330 -0.4083 -0.1671
  839MOL0     H10744   5.457   5.305   6.162  0.9276 -2.1583 -1.7016
  839MOL0     H10745   5.464   5.378   6.000 -1.5798  0.7095 -0.1694
  839MOL0     H10746   5.799   5.552   6.166 -0.9921  2.7021 -1.0965
  839MOL0     H10747   4.997   5.701   6.382  0.7087  1.6486  0.2017
  839MOL0     H10748   4.744   5.720   6.364 -0.8479 -1.8884 -0.9083
  840MOL0     O10749   7.864  10.384   2.079 -0.3111  0.5216  0.7847
  840MOL0     C10750   7.887  10.376   1.961  0.2316  0.3181 -0.8705
  840MOL0     O10751   7.888  10.259   1.880  0.2366  0.3066 -1.0816
  840MOL0     C10752   7.833  10.144   1.929  0.8026  0.6532 -0.2666
  840MOL0     C10753   7.706  10.138   2.012 -0.2633 -0.2418 -0.8598
  840MOL0     C10754   7.663  10.017   2.072  0.1412  0.2364  0.0962
  840MOL0     C10755   7.750   9.902   2.057 -0.0489 -0.5057 -0.2890
  840MOL0     O10756   7.713   9.783   2.118  0.1679 -0.1696  0.4204
  840MOL0     C10757   7.673   9.776   2.261 -0.0129 -0.6968  0.2779
  840MOL0     C10758   7.529   9.734   2.266  0.3858 -0.5158 -0.4160
  840MOL0     C10759   7.489   9.688   2.404 -0.2270  0.3477 -0.2142
  840MOL0     C10760   7.339   9.663   2.414 -0.5431 -0.6400 -0.2767
  840MOL0     C10761   7.287   9.675   2.554  0.2052 -0.5932  0.2259
  840MOL0     C10762   7.337   9.566   2.647  0.1947 -0.0322 -1.2559
  840MOL0     C10763   7.285   9.576   2.793 -0.8181  0.1838 -0.2055
  840MOL0     C10764   7.327   9.449   2.887 -0.5320 -0.3519 -0.6789
  840MOL0     N10765   7.474   9.439   2.902  0.0620  0.3205  0.8796
  840MOL0     C10766   7.560   9.546   2.921 -0.3647  0.5871 -0.2596
  840MOL0     C10767   7.684   9.485   2.909 -0.1497 -0.3887  0.6186
  840MOL0     C10768   7.814   9.556   2.915  1.3868  1.1045  0.3042
  840MOL0     C10769   7.930   9.487   2.995  0.6668 -0.2247  0.6030
  840MOL0     C10770   7.896   9.438   3.134 -0.5346  1.0368 -0.6391
  840MOL0     C10771   7.982   9.320   3.176 -0.7138  0.5404 -0.1672
  840MOL0     O10772   8.127   9.347   3.166 -0.0992  0.6047  0.0848
  840MOL0     C10773   8.228   9.244   3.182  0.3228 -0.6310 -0.3243
  840MOL0     C10774   8.367   9.274   3.161 -0.8213 -0.7185  0.0129
  840MOL0     C10775   8.462   9.172   3.180  0.3093  0.0158  0.3148
  840MOL0     C10776   8.421   9.045   3.201  0.2852  0.2592  0.2114
  840MOL0     C10777   8.520   8.940   3.220 -0.3977  0.3300 -1.0080
  840MOL0     O10778   8.479   8.808   3.254 -0.7450  0.3236 -0.0154
  840MOL0     C10779   8.551   8.695   3.259  0.7285 -0.3498 -0.3253
  840MOL0     C10780   8.511   8.599   3.354  0.1695  0.4245  0.2897
  840MOL0     C10781   8.588   8.480   3.370 -0.0876 -0.4075 -0.1431
  840MOL0     C10782   8.702   8.463   3.290  0.1384  0.3945 -0.7942
  840MOL0     O10783   8.775   8.345   3.300 -1.0130  0.5785 -0.7974
  840MOL0     C10784   8.797   8.269   3.173 -0.0727  0.7083  0.0034
  840MOL0     C10785   8.721   8.133   3.202 -0.1646  0.0920  0.0413
  840MOL0     C10786   8.571   8.139   3.197 -0.1570 -1.0824  0.5105
  840MOL0     C10787   8.525   8.226   3.075  0.4677 -0.2770  0.1498
  840MOL0     C10788   8.372   8.218   3.055  0.5274 -0.1282 -0.3077
  840MOL0     C10789   8.280   8.293   3.151 -0.5541 -0.4628  0.1620
  840MOL0     C10790   8.147   8.219   3.165  0.2813  0.3878  0.8969
  840MOL0     C10791   8.037   8.245   3.053  0.9007  0.4370 -1.0053
  840MOL0    Cl10792   8.061   8.131   2.911 -0.5798 -0.1535 -0.0316
  840MOL0     C10793   8.742   8.560   3.193  0.1455 -0.0952 -0.7632
  840MOL0     C10794   8.671   8.675   3.183  0.3037 -0.4321  0.5982
  840MOL0     O10795   8.639   8.975   3.222 -0.2667  0.3791 -0.6113
  840MOL0     C10796   8.287   9.018   3.220  0.3364  1.1902  0.6636
  840MOL0     C10797   8.191   9.114   3.208 -0.9969 -0.4843 -0.4242
  840MOL0     N10798   7.661   9.357   2.868 -0.4082  0.2165  0.0332
  840MOL0     N10799   7.539   9.330   2.861 -0.3653  0.2602  0.1441
  840MOL0     C10800   7.859   9.899   1.968 -0.2644 -0.2204 -0.4508
  840MOL0     C10801   7.903  10.021   1.911 -0.4575 -0.1678  0.1132
  840MOL0     C10802   7.903  10.497   1.885  0.4746  0.2538  0.2431
  840MOL0     C10803   7.852  10.622   1.922 -1.1085  0.4235  0.2426
  840MOL0     C10804   7.868  10.738   1.840  0.0244  0.1735 -0.2410
  840MOL0     C10805   7.951  10.742   1.737 -1.0662  0.2676  0.1743
  840MOL0     O10806   7.975  10.869   1.696  0.1373  0.3583  0.3972
  840MOL0     C10807   8.065  10.879   1.581  0.2597  0.3939 -0.3142
  840MOL0     C10808   8.039  11.020   1.526  0.1371 -0.6774  0.3045
  840MOL0     C10809   7.939  11.026   1.409 -0.4144  0.2146  0.5580
  840MOL0     C10810   7.790  11.056   1.442 -0.7613 -0.3882  0.1090
  840MOL0     C10811   7.731  11.130   1.323  0.4461  0.8083 -0.0858
  840MOL0     C10812   7.664  11.204   1.243 -0.1011  0.2149 -0.4616
  840MOL0     C10813   8.015  10.617   1.700 -0.8001 -0.6713 -0.1522
  840MOL0     C10814   7.982  10.498   1.774 -0.0623 -0.0625  0.0164
  840MOL0     H10815   7.655  10.224   2.053  0.2956  0.6929 -2.0451
  840MOL0     H10816   7.570  10.012   2.128 -0.1400 -4.1492 -0.4485
  840MOL0     H10817   7.671   9.876   2.307  0.2377 -1.3974  1.8702
  840MOL0     H10818   7.749   9.717   2.313  2.3129  0.9854 -1.0216
  840MOL0     H10819   7.505   9.653   2.196 -1.4401 -0.6179  0.2887
  840MOL0     H10820   7.471   9.822   2.237  0.4102 -0.8210 -1.4332
  840MOL0     H10821   7.519   9.762   2.479  0.5770  2.1028 -2.1884
  840MOL0     H10822   7.543   9.593   2.416 -0.2632  0.3609  0.0667
  840MOL0     H10823   7.280   9.724   2.345 -2.8031 -1.0420  1.1738
  840MOL0     H10824   7.319   9.562   2.377  2.9478 -2.2849  1.8180
  840MOL0     H10825   7.180   9.663   2.535  0.2709  1.3352 -1.7515
  840MOL0     H10826   7.315   9.775   2.589 -2.4208  0.5428 -0.6690
  840MOL0     H10827   7.443   9.588   2.661  0.1190  1.5038 -2.8441
  840MOL0     H10828   7.315   9.467   2.605 -0.7098 -0.0798 -0.6946
  840MOL0     H10829   7.316   9.662   2.853 -0.3414 -1.0204  1.3673
  840MOL0     H10830   7.177   9.562   2.781 -0.6236 -3.9560  1.0869
  840MOL0     H10831   7.286   9.354   2.851 -0.5348 -0.4604 -0.3978
  840MOL0     H10832   7.287   9.466   2.988 -0.0293 -0.2801 -0.4885
  840MOL0     H10833   7.547   9.652   2.939  0.5143  0.5588  0.5914
  840MOL0     H10834   7.793   9.658   2.950  0.3572  0.9720  0.0918
  840MOL0     H10835   7.838   9.560   2.808  0.3928 -1.2443 -0.0568
  840MOL0     H10836   8.002   9.570   3.001  0.1445  0.5403 -2.1626
  840MOL0     H10837   7.981   9.406   2.942  0.1224  0.8694 -1.7388
  840MOL0     H10838   7.901   9.516   3.210 -0.5294 -0.9820  1.5904
  840MOL0     H10839   7.791   9.406   3.138 -0.8807  2.2316  0.3148
  840MOL0     H10840   7.958   9.230   3.118 -0.7883 -0.1989  0.9797
  840MOL0     H10841   7.950   9.306   3.279 -3.1561  0.9393 -0.8117
  840MOL0     H10842   8.394   9.376   3.135  0.6047 -0.9109  0.6905
  840MOL0     H10843   8.567   9.196   3.186 -0.0149  1.6833 -0.0694
  840MOL0     H10844   8.420   8.600   3.413 -0.0822 -0.2116 -0.0777
  840MOL0     H10845   8.569   8.404   3.445  2.3864 -1.1423 -0.1632
  840MOL0     H10846   8.905   8.257   3.161 -0.1896  0.9874 -1.5529
  840MOL0     H10847   8.760   8.329   3.090 -1.1254 -1.3462 -1.0892
  840MOL0     H10848   8.764   8.084   3.290  2.5965  1.2280 -0.5384
  840MOL0     H10849   8.754   8.067   3.122  1.4877 -1.7773  2.1336
  840MOL0     H10850   8.531   8.184   3.288  1.0023 -2.5079  1.7567
  840MOL0     H10851   8.519   8.046   3.176 -3.7043  1.1198 -1.5512
  840MOL0     H10852   8.555   8.331   3.083 -0.1092 -0.0682 -0.4070
  840MOL0     H10853   8.581   8.202   2.984  0.5603 -1.3305  0.4703
  840MOL0     H10854   8.349   8.111   3.057  1.9564 -0.5303 -2.1941
  840MOL0     H10855   8.344   8.247   2.953 -0.4591 -4.1802 -1.3623
  840MOL0     H10856   8.262   8.388   3.099  0.8416 -0.9782 -1.3333
  840MOL0     H10857   8.320   8.304   3.252  0.5841 -1.0431 -0.2098
  840MOL0     H10858   8.179   8.114   3.171  2.0571  0.7619 -1.1456
  840MOL0     H10859   8.087   8.243   3.253  0.1890 -0.4347  1.0679
  840MOL0     H10860   8.021   8.348   3.019 -0.4709  0.3213 -0.8012
  840MOL0     H10861   7.946   8.196   3.089  0.0375  0.0139 -3.5268
  840MOL0     H10862   8.831   8.555   3.131  0.2201  1.8917 -0.8589
  840MOL0     H10863   8.701   8.745   3.106  0.5561 -1.3036 -0.1191
  840MOL0     H10864   8.268   8.911   3.221 -0.6792  1.3104 -1.2249
  840MOL0     H10865   8.084   9.094   3.213 -1.6533  2.1459 -2.0420
  840MOL0     H10866   7.915   9.806   1.965 -1.9469 -1.3263 -4.2284
  840MOL0     H10867   8.000  10.017   1.861  0.4476 -1.8727  1.8744
  840MOL0     H10868   7.792  10.621   2.013  1.6653 -1.2550  2.1877
  840MOL0     H10869   7.821  10.830   1.874  1.8924  0.1725  2.7321
  840MOL0     H10870   8.039  10.805   1.504  3.0837 -2.9164  1.6400
  840MOL0     H10871   8.167  10.849   1.606 -0.1016 -1.8767 -1.3272
  840MOL0     H10872   8.023  11.103   1.595  0.9165  0.9128 -1.3310
  840MOL0     H10873   8.130  11.044   1.470 -0.5057 -0.3299 -0.6080
  840MOL0     H10874   7.937  10.936   1.348  2.4667  2.7951 -3.9383
  840MOL0     H10875   7.971  11.113   1.351  1.5017  0.3432  1.6970
  840MOL0     H10876   7.722  10.975   1.468 -0.8818 -0.3588 -0.1119
  840MOL0     H10877   7.777  11.117   1.531 -1.3474  0.8080 -0.7665
  840MOL0     H10878   7.586  11.237   1.178  0.5404  2.1646 -0.3012
  840MOL0     H10879   8.085  10.609   1.618  0.6345 -3.1542  1.1997
  840MOL0     H10880   8.028  10.406   1.738  1.3392  0.9373 -0.8207
  841MOL0     O10881   3.125   3.503   1.296  0.8016 -0.1205 -0.6073
  841MOL0     C10882   3.118   3.518   1.177 -0.6709 -0.6783 -0.0956
  841MOL0     O10883   3.021   3.472   1.100  0.8818  0.4841  0.9573
  841MOL0     C10884   2.936   3.381   1.159  1.0096 -0.1661  0.3493
  841MOL0     C10885   2.975   3.254   1.184  0.0429 -0.1611 -0.0128
  841MOL0     C10886   2.885   3.147   1.225  0.1430  0.3993 -0.2478
  841MOL0     C10887   2.750   3.172   1.231 -0.1434 -0.6773  1.0777
  841MOL0     O10888   2.658   3.066   1.267 -0.8335  0.2507  1.0365
  841MOL0     C10889   2.536   3.068   1.204  0.3809  0.4962  0.4171
  841MOL0     C10890   2.453   2.933   1.234  0.5484 -0.5756  0.6719
  841MOL0     C10891   2.511   2.812   1.163  0.3133 -0.4340 -0.7625
  841MOL0     C10892   2.430   2.677   1.184  0.4987  0.4051  0.2506
  841MOL0     C10893   2.447   2.614   1.332 -0.3974  0.7628 -0.8120
  841MOL0     C10894   2.576   2.539   1.345  0.5586 -1.2845  0.3468
  841MOL0     C10895   2.595   2.466   1.466 -0.4749  0.1006 -0.4211
  841MOL0     C10896   2.526   2.326   1.461 -0.6567 -0.9031 -0.2195
  841MOL0     N10897   2.615   2.218   1.425  0.0781  0.4820  0.3878
  841MOL0     C10898   2.755   2.236   1.404 -0.8036  0.2238 -0.8662
  841MOL0     C10899   2.806   2.110   1.421  0.5380  0.5378 -0.2905
  841MOL0     C10900   2.950   2.060   1.414 -0.3180 -0.9727  0.0318
  841MOL0     C10901   3.001   1.999   1.288  1.0788 -0.6187  0.9433
  841MOL0     C10902   2.978   1.853   1.292 -1.0934 -0.1602 -0.1532
  841MOL0     C10903   3.030   1.788   1.160  0.0834 -0.6241 -0.3174
  841MOL0     O10904   2.976   1.667   1.134 -0.4336  0.8512 -0.8378
  841MOL0     C10905   2.850   1.660   1.082 -0.3743 -0.2326  0.3790
  841MOL0     C10906   2.756   1.764   1.066  0.4707 -0.7704  0.2881
  841MOL0     C10907   2.633   1.758   0.999  0.7564 -0.0320 -0.3436
  841MOL0     C10908   2.600   1.635   0.937  0.2105 -0.2549 -0.4130
  841MOL0     C10909   2.473   1.606   0.873 -0.2499  0.2439  0.5205
  841MOL0     O10910   2.365   1.673   0.927 -0.1608  0.3099 -0.4958
  841MOL0     C10911   2.233   1.665   0.891  0.4189 -0.7756 -0.2156
  841MOL0     C10912   2.164   1.565   0.812 -0.3629  0.2318 -0.4647
  841MOL0     C10913   2.026   1.554   0.803  0.6602  0.5728  0.5817
  841MOL0     C10914   1.944   1.659   0.854  0.3442  0.1103  0.4556
  841MOL0     O10915   1.806   1.659   0.847  0.0740  0.0398 -0.1186
  841MOL0     C10916   1.729   1.614   0.730  0.2857  0.0030 -0.5309
  841MOL0     C10917   1.592   1.690   0.691 -0.1924  0.1395 -0.1119
  841MOL0     C10918   1.478   1.613   0.612  0.0534  0.1548  1.2042
  841MOL0     C10919   1.379   1.719   0.573 -0.1151  0.0135 -0.0898
  841MOL0     C10920   1.275   1.658   0.473 -0.0570 -0.1127  0.3716
  841MOL0     C10921   1.196   1.766   0.387  1.2151  0.6023  0.1877
  841MOL0     C10922   1.075   1.694   0.316 -0.2202 -0.3904 -0.2473
  841MOL0     C10923   0.975   1.781   0.250 -0.0448  0.3637  0.2832
  841MOL0    Cl10924   1.047   1.913   0.156 -0.2799 -0.0208  0.2279
  841MOL0     C10925   2.018   1.766   0.913 -0.1642  1.4027  0.6662
  841MOL0     C10926   2.150   1.761   0.941 -1.1218  0.5351 -1.3507
  841MOL0     O10927   2.464   1.522   0.785  0.0620  0.1908 -0.0752
  841MOL0     C10928   2.694   1.532   0.946  0.4120  0.3578 -0.1391
  841MOL0     C10929   2.814   1.544   1.014  0.1497 -0.1011  0.2404
  841MOL0     N10930   2.700   2.031   1.451  0.4273  0.3301  0.2719
  841MOL0     N10931   2.588   2.085   1.437  1.0279  1.0616  0.0333
  841MOL0     C10932   2.711   3.303   1.193  0.2014  0.0513  0.2301
  841MOL0     C10933   2.798   3.406   1.155  0.6175 -0.8812 -0.1429
  841MOL0     C10934   3.205   3.628   1.111  0.4693  0.3340 -0.2188
  841MOL0     C10935   3.231   3.616   0.974 -0.0670  0.6215 -0.4462
  841MOL0     C10936   3.273   3.724   0.898 -0.7665 -0.4685 -0.2100
  841MOL0     C10937   3.316   3.840   0.970 -0.1667  0.1346  0.0795
  841MOL0     O10938   3.365   3.955   0.906 -0.2298  0.6383  0.2129
  841MOL0     C10939   3.497   3.946   0.849 -0.8470 -1.4187 -0.2698
  841MOL0     C10940   3.575   4.069   0.906 -1.3930 -0.2089  0.4562
  841MOL0     C10941   3.717   4.051   0.847  0.5637  0.7575  0.0621
  841MOL0     C10942   3.811   4.166   0.893  0.5049  0.5298 -0.6551
  841MOL0     C10943   3.816   4.186   1.041  0.1613  0.1843  0.4904
  841MOL0     C10944   3.852   4.207   1.153  0.4160  0.2281 -0.7977
  841MOL0     C10945   3.321   3.850   1.108 -0.1133 -0.5137  0.0195
  841MOL0     C10946   3.265   3.742   1.176  0.0702  0.5417  0.1265
  841MOL0     H10947   3.082   3.238   1.181  0.6785  3.4657 -1.7875
  841MOL0     H10948   2.919   3.045   1.236 -3.8440 -1.0354  0.3238
  841MOL0     H10949   2.542   3.092   1.098 -1.8790  3.4180  0.8163
  841MOL0     H10950   2.481   3.151   1.250 -0.0637  0.6143 -0.3194
  841MOL0     H10951   2.346   2.948   1.222  0.0973 -0.3462  3.9376
  841MOL0     H10952   2.472   2.917   1.341 -1.1907 -2.8632  0.6954
  841MOL0     H10953   2.604   2.784   1.213 -1.3346 -1.5254  1.9753
  841MOL0     H10954   2.518   2.841   1.058 -1.7570  2.2094 -0.2881
  841MOL0     H10955   2.323   2.698   1.174  0.6588  0.6785 -1.0257
  841MOL0     H10956   2.439   2.596   1.111 -1.5348  1.1123 -0.8726
  841MOL0     H10957   2.371   2.536   1.342  1.5066 -1.2082 -0.7947
  841MOL0     H10958   2.448   2.692   1.408  2.5056  0.2564 -0.2212
  841MOL0     H10959   2.657   2.613   1.341 -0.8268  0.3148  0.6125
  841MOL0     H10960   2.590   2.483   1.252 -2.4104  1.0990 -1.7098
  841MOL0     H10961   2.704   2.453   1.473 -0.5611 -0.6958 -0.5029
  841MOL0     H10962   2.570   2.521   1.557 -2.2956 -1.1308 -0.1353
  841MOL0     H10963   2.445   2.324   1.388  0.2838  3.8076 -1.7409
  841MOL0     H10964   2.475   2.304   1.555 -1.6775 -1.6194 -0.9233
  841MOL0     H10965   2.800   2.327   1.365  2.5338 -1.8194 -2.1714
  841MOL0     H10966   2.975   2.004   1.505  1.0390 -0.9665 -0.3165
  841MOL0     H10967   3.002   2.155   1.427 -1.9870 -0.1454  1.0294
  841MOL0     H10968   3.108   2.016   1.270  0.2955  0.6571 -3.7304
  841MOL0     H10969   2.948   2.035   1.200 -0.7561 -0.6114  2.0056
  841MOL0     H10970   3.032   1.814   1.379 -1.9481  0.4848  0.6921
  841MOL0     H10971   2.873   1.828   1.305 -1.2417 -0.7756 -2.2524
  841MOL0     H10972   3.139   1.795   1.167  0.3554 -1.5454 -2.6510
  841MOL0     H10973   3.007   1.856   1.077 -2.3709 -0.2647  0.5725
  841MOL0     H10974   2.789   1.858   1.109 -0.0229 -1.7312  2.9779
  841MOL0     H10975   2.567   1.844   0.998  1.3074  0.4955  2.3067
  841MOL0     H10976   2.226   1.489   0.764 -1.5645 -0.9114 -0.2507
  841MOL0     H10977   1.989   1.481   0.731  1.9289 -0.2351  0.7154
  841MOL0     H10978   1.696   1.513   0.759 -0.2101 -0.5633 -2.8735
  841MOL0     H10979   1.787   1.596   0.639 -0.8718 -0.6586 -1.1671
  841MOL0     H10980   1.606   1.788   0.645  2.8524 -0.9089 -1.6763
  841MOL0     H10981   1.537   1.717   0.781  0.6882 -1.8486  1.0836
  841MOL0     H10982   1.424   1.542   0.675 -0.2024 -0.7718 -0.0184
  841MOL0     H10983   1.533   1.562   0.532  4.2067  3.3920  1.6405
  841MOL0     H10984   1.338   1.756   0.668 -3.0220  0.2968 -1.3612
  841MOL0     H10985   1.420   1.807   0.523 -0.7786  0.2487 -0.2254
  841MOL0     H10986   1.205   1.599   0.533  1.4754 -4.3061 -1.4957
  841MOL0     H10987   1.328   1.593   0.402 -0.6978 -0.3260  0.0706
  841MOL0     H10988   1.256   1.817   0.312  1.6636 -0.8790 -0.4915
  841MOL0     H10989   1.155   1.837   0.460 -2.3971 -0.8617 -0.2101
  841MOL0     H10990   1.121   1.632   0.238 -1.5493 -1.5000 -0.1892
  841MOL0     H10991   1.024   1.620   0.378  2.2625 -2.4962 -0.5650
  841MOL0     H10992   0.913   1.833   0.323  2.1334  4.8249 -0.6952
  841MOL0     H10993   0.899   1.720   0.199 -0.8628 -2.2879  4.2259
  841MOL0     H10994   1.974   1.848   0.969 -0.6392 -0.2617  2.8762
  841MOL0     H10995   2.197   1.843   0.995  1.6071 -2.1760  0.7015
  841MOL0     H10996   2.661   1.440   0.900 -1.9797  0.7563  0.6425
  841MOL0     H10997   2.885   1.462   1.009 -1.6568 -1.7049 -0.3934
  841MOL0     H10998   2.605   3.324   1.202  0.6876  2.1159  1.9366
  841MOL0     H10999   2.752   3.498   1.121 -0.2392 -1.7705 -1.4572
  841MOL0     H11000   3.186   3.531   0.924 -1.6393  0.4296  1.2306
  841MOL0     H11001   3.274   3.704   0.791  0.4225 -1.2250 -0.0802
  841MOL0     H11002   3.495   3.940   0.740  0.3242  1.8304 -0.5554
  841MOL0     H11003   3.528   3.850   0.892 -1.0911 -0.9301  1.0341
  841MOL0     H11004   3.539   4.165   0.868 -2.5833  0.2174  2.5321
  841MOL0     H11005   3.576   4.066   1.015 -2.0009 -0.0948  0.4642
  841MOL0     H11006   3.720   4.039   0.738 -0.8869 -0.4466  0.1256
  841MOL0     H11007   3.743   3.951   0.885  0.3235  0.4429 -0.5804
  841MOL0     H11008   3.910   4.124   0.871 -0.2447 -2.3969  1.0709
  841MOL0     H11009   3.791   4.263   0.845 -2.6119 -0.3569 -1.3578
  841MOL0     H11010   3.865   4.220   1.259  0.2581 -1.1814 -0.5800
  841MOL0     H11011   3.360   3.935   1.163 -0.7027 -2.0268  2.9427
  841MOL0     H11012   3.263   3.756   1.284  0.5689  4.3443 -0.2143
  842MOL0     O11013   4.349   7.450   1.433  0.1322  0.0249 -0.5706
  842MOL0     C11014   4.446   7.369   1.412  0.0286  0.1453 -1.2977
  842MOL0     O11015   4.569   7.381   1.466 -0.3277 -0.7001 -0.6038
  842MOL0     C11016   4.583   7.478   1.557  0.4628  0.1725  0.0154
  842MOL0     C11017   4.582   7.614   1.533 -0.8400 -0.4573 -1.1421
  842MOL0     C11018   4.609   7.705   1.638  0.4647  0.1016 -0.1974
  842MOL0     C11019   4.623   7.655   1.766 -0.2712 -0.6721 -0.5178
  842MOL0     O11020   4.627   7.734   1.881 -0.0815  0.1658 -0.3674
  842MOL0     C11021   4.542   7.847   1.874  0.9187  0.2287  0.1267
  842MOL0     C11022   4.549   7.907   2.011  0.3905 -0.4953 -0.1333
  842MOL0     C11023   4.474   8.035   2.021  0.7933  0.8420 -0.5771
  842MOL0     C11024   4.500   8.090   2.161 -0.4014  0.2980  1.6990
  842MOL0     C11025   4.460   8.236   2.170 -0.4930 -0.3317  0.0804
  842MOL0     C11026   4.450   8.279   2.319 -0.3081 -0.3100  0.4512
  842MOL0     C11027   4.587   8.320   2.377  0.2940 -0.1717  0.0928
  842MOL0     C11028   4.587   8.335   2.533  0.2130  0.1756 -0.1257
  842MOL0     N11029   4.722   8.362   2.581  0.4390 -0.0123  0.2493
  842MOL0     C11030   4.759   8.451   2.679  0.1891 -0.3273  0.1485
  842MOL0     C11031   4.884   8.427   2.708 -0.6537 -0.1461 -0.1591
  842MOL0     C11032   4.974   8.499   2.806 -0.1250  0.4858  0.3544
  842MOL0     C11033   4.896   8.573   2.919 -0.5744  0.2675  0.2181
  842MOL0     C11034   4.982   8.608   3.044 -0.5692  0.0188  0.3223
  842MOL0     C11035   4.918   8.719   3.139  1.5607  0.3564  1.1131
  842MOL0     O11036   4.780   8.697   3.155 -0.6907  0.4419 -1.0326
  842MOL0     C11037   4.739   8.631   3.275  0.8913 -0.3376 -0.5633
  842MOL0     C11038   4.600   8.636   3.285 -0.5053  0.4305 -0.3816
  842MOL0     C11039   4.542   8.596   3.403  0.5463  0.2316 -1.0421
  842MOL0     C11040   4.623   8.543   3.508  1.3540 -0.1718  0.2729
  842MOL0     C11041   4.556   8.494   3.635  0.4573  0.2762  0.4218
  842MOL0     O11042   4.642   8.429   3.726 -0.2215  0.4463  0.1419
  842MOL0     C11043   4.598   8.370   3.838 -0.5341  0.5161 -0.3135
  842MOL0     C11044   4.640   8.236   3.874  0.4902 -0.0775 -0.1351
  842MOL0     C11045   4.614   8.184   4.001 -1.0608  0.2370 -0.3728
  842MOL0     C11046   4.528   8.249   4.088  0.0682 -0.4920  0.6598
  842MOL0     O11047   4.491   8.190   4.207  0.1657 -0.6023  0.5188
  842MOL0     C11048   4.402   8.253   4.298  1.1589  0.5787 -1.3136
  842MOL0     C11049   4.387   8.168   4.425  0.1127 -0.5980 -0.3749
  842MOL0     C11050   4.527   8.171   4.492  0.4161  0.4541 -0.0932
  842MOL0     C11051   4.520   8.166   4.654  0.5204 -0.0179  0.2293
  842MOL0     C11052   4.657   8.112   4.703 -0.8260  0.3044  0.8152
  842MOL0     C11053   4.678   8.121   4.853  0.9585 -0.6085  0.2081
  842MOL0     C11054   4.817   8.049   4.881 -0.2789 -0.0203 -0.4649
  842MOL0     C11055   4.840   8.010   5.033 -0.6689 -0.2225 -0.2039
  842MOL0    Cl11056   4.867   8.152   5.133  0.1491  0.3449 -0.1546
  842MOL0     C11057   4.474   8.372   4.044 -0.0937 -0.8436 -0.1237
  842MOL0     C11058   4.513   8.445   3.925  0.5032 -0.3036 -0.7525
  842MOL0     O11059   4.434   8.493   3.640  0.1575  0.5580  0.4166
  842MOL0     C11060   4.762   8.529   3.489  0.3738 -0.3998  0.4647
  842MOL0     C11061   4.822   8.578   3.374 -0.4379 -0.2343 -0.2137
  842MOL0     N11062   4.920   8.315   2.642  0.3489  0.4297  0.0111
  842MOL0     N11063   4.825   8.284   2.565  0.1593  0.0368  0.0031
  842MOL0     C11064   4.637   7.516   1.785  0.5345  0.4187  0.0327
  842MOL0     C11065   4.611   7.430   1.683  0.0326 -0.3593  0.0780
  842MOL0     C11066   4.434   7.237   1.335  0.6490 -0.1157 -0.1544
  842MOL0     C11067   4.515   7.129   1.357 -0.5018 -0.9128 -0.3442
  842MOL0     C11068   4.497   7.006   1.289 -0.2147 -0.6589  0.6847
  842MOL0     C11069   4.390   6.988   1.199 -0.1549 -0.3782  1.2532
  842MOL0     O11070   4.388   6.868   1.145  0.6879 -1.3106  1.1056
  842MOL0     C11071   4.261   6.822   1.084  0.6303 -0.6616  0.2550
  842MOL0     C11072   4.288   6.697   1.012  0.2566  0.3571 -0.3018
  842MOL0     C11073   4.334   6.594   1.119 -0.9772  0.6074  0.3269
  842MOL0     C11074   4.377   6.460   1.045  0.7506 -0.1860  0.8905
  842MOL0     C11075   4.260   6.383   1.002 -0.1295 -0.3969  0.0227
  842MOL0     C11076   4.171   6.303   0.973  0.6331 -0.2388 -0.0260
  842MOL0     C11077   4.307   7.101   1.170  0.0517 -0.4608 -0.9887
  842MOL0     C11078   4.325   7.217   1.245  0.3924 -0.2206 -0.8236
  842MOL0     H11079   4.589   7.636   1.427 -0.3565 -0.0809 -1.0321
  842MOL0     H11080   4.603   7.811   1.614  4.6321  0.5392  0.0069
  842MOL0     H11081   4.440   7.822   1.843  0.2577 -1.6010  3.3561
  842MOL0     H11082   4.586   7.916   1.801  1.5808 -0.6357 -0.3153
  842MOL0     H11083   4.656   7.906   2.034  0.8702 -1.0072 -2.2010
  842MOL0     H11084   4.503   7.845   2.088 -0.4390 -0.5538 -0.6643
  842MOL0     H11085   4.366   8.024   2.006  0.6674  2.2944 -0.8952
  842MOL0     H11086   4.505   8.109   1.947 -1.2004  0.9640 -1.3361
  842MOL0     H11087   4.433   8.030   2.223 -1.8509  0.2986  0.2092
  842MOL0     H11088   4.594   8.070   2.213  0.1670 -0.1078  0.5621
  842MOL0     H11089   4.361   8.253   2.128 -0.7767 -1.8463  0.0649
  842MOL0     H11090   4.523   8.305   2.113  0.4989  0.1393  1.6923
  842MOL0     H11091   4.410   8.194   2.375 -0.0439 -3.9685 -4.3263
  842MOL0     H11092   4.390   8.370   2.331  1.4866  0.6405  3.6259
  842MOL0     H11093   4.657   8.241   2.350  0.2439 -0.6125  1.1925
  842MOL0     H11094   4.621   8.415   2.335 -0.3088 -0.6391 -1.4980
  842MOL0     H11095   4.548   8.244   2.579  0.6324  0.3287  0.5513
  842MOL0     H11096   4.520   8.417   2.560 -2.0223 -1.6360  0.1261
  842MOL0     H11097   4.702   8.528   2.731  4.5688  0.9130  3.7375
  842MOL0     H11098   5.026   8.573   2.744  1.7235 -0.7719  0.3065
  842MOL0     H11099   5.045   8.422   2.839 -1.1410 -2.3169 -3.3490
  842MOL0     H11100   4.822   8.505   2.963 -1.6644 -0.4641 -2.5421
  842MOL0     H11101   4.855   8.657   2.862 -0.7194  0.4816  0.6283
  842MOL0     H11102   4.978   8.519   3.108  0.7499  0.5198  1.1538
  842MOL0     H11103   5.085   8.628   3.012  0.6486 -1.3737  2.9839
  842MOL0     H11104   4.926   8.816   3.089 -2.1055  0.3567  0.2396
  842MOL0     H11105   4.984   8.738   3.224  2.4435 -1.5178  0.8921
  842MOL0     H11106   4.543   8.681   3.204 -2.2378 -1.7110 -0.4406
  842MOL0     H11107   4.433   8.601   3.407  0.2737 -0.2058 -4.4032
  842MOL0     H11108   4.706   8.171   3.818  1.1967  0.7520 -0.2969
  842MOL0     H11109   4.638   8.080   4.023 -2.7240  0.5327  3.6062
  842MOL0     H11110   4.300   8.252   4.258  0.7929 -3.4110 -0.7508
  842MOL0     H11111   4.419   8.355   4.333 -1.4073  0.1264  1.6851
  842MOL0     H11112   4.339   8.072   4.402 -0.6580 -0.6540  1.3582
  842MOL0     H11113   4.316   8.220   4.489  0.7683  0.8266 -0.7660
  842MOL0     H11114   4.591   8.254   4.461 -0.4270  0.3461 -2.3275
  842MOL0     H11115   4.586   8.081   4.471  0.8151  0.1547  2.0709
  842MOL0     H11116   4.490   8.263   4.694 -2.5633 -0.5179 -0.6162
  842MOL0     H11117   4.440   8.097   4.682 -1.8553  1.2935 -2.8027
  842MOL0     H11118   4.738   8.166   4.653 -1.0216  0.7959  1.0210
  842MOL0     H11119   4.661   8.007   4.671  0.4064  0.6341 -0.1411
  842MOL0     H11120   4.600   8.072   4.912  1.1972 -0.4287  0.6822
  842MOL0     H11121   4.681   8.228   4.875  0.7467 -0.1844 -1.6435
  842MOL0     H11122   4.810   7.956   4.824 -1.8736  0.2473 -0.7471
  842MOL0     H11123   4.901   8.112   4.850  0.7897 -0.7811  0.7290
  842MOL0     H11124   4.929   7.947   5.026 -0.6156 -0.5373  2.3339
  842MOL0     H11125   4.757   7.949   5.070 -0.3904 -1.1158 -1.0085
  842MOL0     H11126   4.402   8.434   4.097 -1.9715 -2.7960 -0.2184
  842MOL0     H11127   4.473   8.542   3.898 -1.5596 -0.1244  2.4371
  842MOL0     H11128   4.820   8.480   3.566  1.2621 -0.3338 -0.1526
  842MOL0     H11129   4.930   8.567   3.370 -0.5826 -2.3915  0.4830
  842MOL0     H11130   4.647   7.478   1.885  0.7499 -0.7360 -0.4136
  842MOL0     H11131   4.620   7.322   1.693  1.0732 -0.2976 -0.1227
  842MOL0     H11132   4.585   7.146   1.439 -1.2786  0.1244  0.1308
  842MOL0     H11133   4.564   6.922   1.306  2.8825  1.3287 -0.6810
  842MOL0     H11134   4.218   6.886   1.007 -1.7683 -0.5355  1.5996
  842MOL0     H11135   4.184   6.814   1.161 -0.4203 -1.2432 -0.8167
  842MOL0     H11136   4.193   6.662   0.969  0.2239 -0.4973  0.4341
  842MOL0     H11137   4.355   6.704   0.926 -0.9607  0.4615 -1.2836
  842MOL0     H11138   4.265   6.588   1.203 -3.3687 -1.1714 -1.6101
  842MOL0     H11139   4.429   6.627   1.161  0.6139 -1.2450 -1.6008
  842MOL0     H11140   4.431   6.489   0.955  0.5505 -1.5642  0.3025
  842MOL0     H11141   4.437   6.407   1.120 -0.2350 -1.5309  0.7543
  842MOL0     H11142   4.089   6.242   0.939 -0.0629 -0.3485  1.7483
  842MOL0     H11143   4.218   7.093   1.108 -0.6787  1.8386 -0.3338
  842MOL0     H11144   4.252   7.296   1.243  1.0110  0.4752  1.3881
  843MOL0     O11145   0.203   1.979   3.043  0.8848 -0.8616 -0.7337
  843MOL0     C11146   0.151   2.077   2.997 -0.4724 -0.0094  0.3898
  843MOL0     O11147   0.055   2.147   3.061  0.5005 -0.9300  0.1930
  843MOL0     C11148  -0.025   2.094   3.170 -0.4934 -0.3628  0.7351
  843MOL0     C11149  -0.070   2.188   3.267 -0.3701  0.7208 -0.1970
  843MOL0     C11150  -0.134   2.129   3.373 -0.5724 -0.3428 -0.1599
  843MOL0     C11151  -0.179   2.000   3.382 -0.3727  0.9160 -0.1093
  843MOL0     O11152  -0.245   1.960   3.495 -0.5994  0.2482 -0.1740
  843MOL0     C11153  -0.381   1.913   3.480  0.3060 -0.4161  1.1280
  843MOL0     C11154  -0.485   2.017   3.442  0.0461  0.9719  0.6806
  843MOL0     C11155  -0.468   2.133   3.541  0.3014  0.1971  0.0213
  843MOL0     C11156  -0.573   2.249   3.509  0.9503 -1.0380 -0.4789
  843MOL0     C11157  -0.522   2.391   3.540 -0.4169 -0.5393  0.2949
  843MOL0     C11158  -0.637   2.490   3.546 -0.3713 -0.2901 -0.2023
  843MOL0     C11159  -0.715   2.522   3.414  0.3130 -0.8523 -0.6987
  843MOL0     C11160  -0.819   2.626   3.444 -0.2442  0.5766 -0.2246
  843MOL0     N11161  -0.952   2.585   3.508 -0.4701 -0.1308  0.7964
  843MOL0     C11162  -0.992   2.614   3.638 -0.9770 -0.9152 -0.6886
  843MOL0     C11163  -1.115   2.562   3.645 -0.0908 -0.2834 -0.4878
  843MOL0     C11164  -1.198   2.554   3.768  0.4839 -0.1275  0.8618
  843MOL0     C11165  -1.275   2.685   3.790 -0.0667  0.1855  0.2044
  843MOL0     C11166  -1.352   2.726   3.664 -1.4606 -0.4727  0.7712
  843MOL0     C11167  -1.445   2.608   3.617 -0.0257 -0.2271  0.6728
  843MOL0     O11168  -1.512   2.533   3.714  0.2019 -0.9119  0.2679
  843MOL0     C11169  -1.569   2.411   3.678 -0.4851 -0.1882 -0.7856
  843MOL0     C11170  -1.587   2.370   3.540  0.8912  0.5211  0.3043
  843MOL0     C11171  -1.639   2.246   3.506  0.9666 -0.2947 -0.2402
  843MOL0     C11172  -1.673   2.153   3.602 -0.4249 -0.6272  1.0384
  843MOL0     C11173  -1.709   2.012   3.563  0.7507 -0.3621  0.2892
  843MOL0     O11174  -1.725   1.967   3.437 -0.3066  0.5928 -0.1051
  843MOL0     C11175  -1.774   1.841   3.409  0.1941  0.6215  0.4595
  843MOL0     C11176  -1.911   1.825   3.399  1.0895  1.0277  0.9021
  843MOL0     C11177  -1.965   1.698   3.364 -0.4197  0.2691 -0.7361
  843MOL0     C11178  -1.873   1.580   3.360  0.2977  0.0543  0.6008
  843MOL0     O11179  -1.911   1.446   3.351 -0.0378 -0.5809 -0.7519
  843MOL0     C11180  -2.051   1.425   3.364 -0.2123 -0.8446 -1.1751
  843MOL0     C11181  -2.091   1.282   3.414 -1.3866 -0.2061 -0.8754
  843MOL0     C11182  -2.096   1.258   3.575  1.1273 -0.6501 -0.1387
  843MOL0     C11183  -1.958   1.268   3.626  0.4041  0.6615 -0.7709
  843MOL0     C11184  -1.963   1.229   3.779 -1.3448  0.4628  0.6038
  843MOL0     C11185  -1.818   1.240   3.825 -0.3478  1.1738  0.4679
  843MOL0     C11186  -1.753   1.385   3.815  0.5962  0.7463  0.5075
  843MOL0     C11187  -1.839   1.503   3.869 -0.0337 -0.1287 -0.2951
  843MOL0    Cl11188  -1.899   1.466   4.027  0.0319 -0.2549 -0.1907
  843MOL0     C11189  -1.737   1.610   3.355  0.5501  0.2394 -0.0270
  843MOL0     C11190  -1.687   1.732   3.378 -0.1413  0.5747 -0.5916
  843MOL0     O11191  -1.737   1.941   3.661 -0.0337 -0.4206 -0.6262
  843MOL0     C11192  -1.660   2.191   3.737 -0.6116  0.4927  0.0005
  843MOL0     C11193  -1.599   2.312   3.775 -0.2367 -0.0341 -0.4183
  843MOL0     N11194  -1.148   2.503   3.523 -0.4210 -0.9108  0.1158
  843MOL0     N11195  -1.054   2.524   3.439 -0.8486 -0.4866  0.1090
  843MOL0     C11196  -0.149   1.908   3.275 -0.2639  0.5290 -0.3677
  843MOL0     C11197  -0.060   1.958   3.170 -0.1998  0.4298 -0.4075
  843MOL0     C11198   0.168   2.106   2.860  0.2066 -0.2253  0.8830
  843MOL0     C11199   0.064   2.156   2.779 -0.6059  0.4319  0.4504
  843MOL0     C11200   0.077   2.165   2.642  0.4733  0.5041  0.1411
  843MOL0     C11201   0.183   2.105   2.583 -0.4277  0.4076 -0.4437
  843MOL0     O11202   0.194   2.106   2.443 -0.3996  0.2491  0.7105
  843MOL0     C11203   0.075   2.107   2.354 -0.1310 -0.5882  0.9061
  843MOL0     C11204   0.114   2.086   2.212 -0.2697 -0.4086  0.1942
  843MOL0     C11205   0.194   1.949   2.205 -0.5964  1.2564  0.5468
  843MOL0     C11206   0.132   1.849   2.100  0.8742  0.9742 -0.1065
  843MOL0     C11207  -0.005   1.822   2.157  0.1554 -0.5742  0.7219
  843MOL0     C11208  -0.109   1.799   2.209 -1.1786  0.1024  0.2808
  843MOL0     C11209   0.289   2.052   2.668  0.4277  0.8973  0.4356
  843MOL0     C11210   0.275   2.044   2.800 -0.4346 -0.3796 -0.0010
  843MOL0     H11211  -0.027   2.286   3.245  0.1504  0.3895 -0.7007
  843MOL0     H11212  -0.140   2.192   3.461  0.6389 -2.4545  1.5091
  843MOL0     H11213  -0.408   1.860   3.571  0.7712 -1.7345  0.5304
  843MOL0     H11214  -0.391   1.831   3.408 -2.9632  1.6908 -1.1390
  843MOL0     H11215  -0.583   1.969   3.433  2.1414 -3.6283 -0.0744
  843MOL0     H11216  -0.459   2.060   3.344  4.1613  0.6190  1.4374
  843MOL0     H11217  -0.365   2.171   3.541  0.2960  0.2890  1.6619
  843MOL0     H11218  -0.485   2.095   3.642  3.5608 -1.1234  0.2209
  843MOL0     H11219  -0.602   2.248   3.403  0.6831 -0.1548 -0.4216
  843MOL0     H11220  -0.663   2.224   3.566 -0.2283  1.4822 -1.0972
  843MOL0     H11221  -0.442   2.416   3.470 -0.4484  1.8122  0.9998
  843MOL0     H11222  -0.478   2.387   3.640 -2.1584 -3.5166  1.0757
  843MOL0     H11223  -0.587   2.584   3.572  1.1098 -1.3560  0.9898
  843MOL0     H11224  -0.695   2.460   3.634  3.1277  0.4919  2.6502
  843MOL0     H11225  -0.638   2.560   3.346 -1.0855  0.4093 -1.6395
  843MOL0     H11226  -0.760   2.436   3.363  1.1712 -2.7260  1.5663
  843MOL0     H11227  -0.845   2.677   3.351 -1.4140  0.1788 -0.1378
  843MOL0     H11228  -0.774   2.702   3.508 -0.0350 -2.3284  3.3779
  843MOL0     H11229  -0.936   2.665   3.715 -0.0274  1.4846 -2.8083
  843MOL0     H11230  -1.137   2.526   3.855 -1.9639 -3.4825  1.7187
  843MOL0     H11231  -1.273   2.474   3.762 -0.4524  0.4148  3.8047
  843MOL0     H11232  -1.193   2.755   3.809 -0.0982  0.7459 -1.5663
  843MOL0     H11233  -1.346   2.681   3.873  0.7333 -0.0343  0.9004
  843MOL0     H11234  -1.423   2.808   3.675 -2.0107 -1.1698  2.9906
  843MOL0     H11235  -1.284   2.759   3.586 -0.4903 -1.1816  1.2913
  843MOL0     H11236  -1.381   2.538   3.561 -2.9069 -3.0413  0.5798
  843MOL0     H11237  -1.525   2.645   3.552 -1.7256 -1.0005  2.2330
  843MOL0     H11238  -1.560   2.438   3.460  3.1665  0.9018  1.3131
  843MOL0     H11239  -1.638   2.217   3.401  1.9109  2.7918 -1.1925
  843MOL0     H11240  -1.984   1.904   3.405  0.4030  0.6352 -1.3500
  843MOL0     H11241  -2.073   1.698   3.354 -0.5046  0.1436  0.1180
  843MOL0     H11242  -2.091   1.444   3.264  2.0005  1.4444 -1.7180
  843MOL0     H11243  -2.103   1.491   3.435 -1.0785  0.6680 -3.1418
  843MOL0     H11244  -2.020   1.209   3.375 -0.0517  1.0758 -0.9162
  843MOL0     H11245  -2.186   1.243   3.375 -2.0364  0.8955 -0.4402
  843MOL0     H11246  -2.143   1.164   3.603  1.7983 -0.3962  2.0120
  843MOL0     H11247  -2.164   1.326   3.627 -0.8986 -2.9481  0.4088
  843MOL0     H11248  -1.890   1.193   3.586 -0.8266 -1.5863  1.1221
  843MOL0     H11249  -1.925   1.372   3.617  1.2721  0.2229 -3.6784
  843MOL0     H11250  -1.990   1.123   3.779  1.6567 -0.4872 -2.2427
  843MOL0     H11251  -2.035   1.293   3.831  0.2837  3.9879 -1.1435
  843MOL0     H11252  -1.755   1.163   3.780  1.2490  2.1043  1.0256
  843MOL0     H11253  -1.822   1.224   3.933 -1.7647 -2.5603  0.0135
  843MOL0     H11254  -1.662   1.381   3.876  0.0229  1.1015  1.4107
  843MOL0     H11255  -1.720   1.406   3.713 -1.6722 -0.5511 -0.5517
  843MOL0     H11256  -1.929   1.507   3.808  0.4912 -2.4009 -1.3513
  843MOL0     H11257  -1.777   1.593   3.867  0.5188 -0.5101 -0.7241
  843MOL0     H11258  -1.661   1.535   3.339  1.9362  1.9439 -2.0606
  843MOL0     H11259  -1.580   1.750   3.382 -0.1037  0.8054 -2.0018
  843MOL0     H11260  -1.687   2.128   3.821 -2.6357 -0.1731 -1.0867
  843MOL0     H11261  -1.570   2.332   3.877  2.7553  1.0091 -1.3749
  843MOL0     H11262  -0.180   1.805   3.289  0.4704  0.5305  1.6146
  843MOL0     H11263  -0.025   1.896   3.088  0.1790  1.1167 -0.7628
  843MOL0     H11264  -0.020   2.188   2.840  0.4104  2.5801  0.8349
  843MOL0     H11265  -0.001   2.211   2.583 -2.8648  0.6713  4.2741
  843MOL0     H11266   0.027   2.206   2.357  2.1683  0.6443 -0.4986
  843MOL0     H11267   0.011   2.020   2.373  1.0937 -1.9943 -1.0461
  843MOL0     H11268   0.029   2.092   2.144 -0.8119 -0.2588  0.8772
  843MOL0     H11269   0.184   2.164   2.179 -1.5707  0.1875 -1.2969
  843MOL0     H11270   0.195   1.899   2.303  0.3708  2.6374  1.2693
  843MOL0     H11271   0.296   1.969   2.173  0.2188 -3.7924 -0.9000
  843MOL0     H11272   0.124   1.879   1.995  0.7866 -0.3315 -0.4926
  843MOL0     H11273   0.180   1.750   2.100  0.4956  0.7853 -0.7143
  843MOL0     H11274  -0.198   1.774   2.264  0.9286 -0.6102  3.7248
  843MOL0     H11275   0.377   2.015   2.616 -2.5867 -5.4517 -1.1187
  843MOL0     H11276   0.352   2.002   2.865 -1.4153  1.1588  2.2779
  844MOL0     O11277   6.722   3.562   8.171 -0.4065  0.9873  0.9938
  844MOL0     C11278   6.607   3.587   8.212 -0.6317 -0.1347  0.3391
  844MOL0     O11279   6.572   3.712   8.232 -0.0771 -0.3550  0.5768
  844MOL0     C11280   6.640   3.811   8.167  0.4026  0.0240 -0.3944
  844MOL0     C11281   6.705   3.803   8.039 -0.4110 -0.2334  0.6912
  844MOL0     C11282   6.778   3.910   7.990  0.4238 -0.2360 -0.6786
  844MOL0     C11283   6.780   4.033   8.067 -1.0232 -0.4523 -0.1122
  844MOL0     O11284   6.843   4.153   8.019 -0.4667  0.2383 -0.1410
  844MOL0     C11285   6.852   4.172   7.877 -1.0179 -0.7122  0.2503
  844MOL0     C11286   6.919   4.303   7.847  0.9996  0.0021  0.2901
  844MOL0     C11287   6.821   4.406   7.791 -0.0296 -0.6646 -0.3230
  844MOL0     C11288   6.716   4.447   7.893  0.1566  0.0910  0.2881
  844MOL0     C11289   6.599   4.523   7.844  0.5293 -0.9550  0.1783
  844MOL0     C11290   6.486   4.552   7.952  0.6798 -0.2206  0.4630
  844MOL0     C11291   6.368   4.622   7.880  0.2005 -0.6715 -0.6061
  844MOL0     C11292   6.243   4.618   7.972  0.4589  0.4899  0.0903
  844MOL0     N11293   6.134   4.704   7.926 -0.3158 -0.1783 -0.6711
  844MOL0     C11294   6.172   4.827   7.870  0.4035 -0.3577 -0.0261
  844MOL0     C11295   6.063   4.840   7.782 -0.8322 -1.1404 -0.6718
  844MOL0     C11296   6.037   4.977   7.708 -0.0043  0.0097  0.8907
  844MOL0     C11297   6.128   4.986   7.578  0.8949 -0.8842  1.1465
  844MOL0     C11298   6.076   5.074   7.466  1.0747 -0.3588  0.9094
  844MOL0     C11299   6.017   5.200   7.512  0.3341 -0.8103  0.4946
  844MOL0     O11300   6.113   5.300   7.530 -0.2940 -0.1513 -0.7695
  844MOL0     C11301   6.086   5.432   7.494  0.8624 -0.1480  0.1786
  844MOL0     C11302   5.958   5.499   7.493  0.4410 -0.0528 -0.6959
  844MOL0     C11303   5.940   5.631   7.444  0.8351 -0.1867 -0.3822
  844MOL0     C11304   6.055   5.707   7.428 -1.0441 -0.4984 -0.6347
  844MOL0     C11305   6.031   5.855   7.402 -0.3092 -0.8417  1.3892
  844MOL0     O11306   5.906   5.894   7.394  0.1123  0.0193  0.2358
  844MOL0     C11307   5.882   6.030   7.371  0.3762  0.0057 -0.2529
  844MOL0     C11308   5.813   6.055   7.251  0.3511 -1.0302 -1.2466
  844MOL0     C11309   5.769   6.185   7.215  0.3729 -0.0189 -0.1926
  844MOL0     C11310   5.794   6.295   7.298  0.5554 -1.2489  0.7481
  844MOL0     O11311   5.754   6.424   7.266  0.4953 -0.0381 -0.7434
  844MOL0     C11312   5.730   6.453   7.129 -0.0890 -0.7690 -0.1223
  844MOL0     C11313   5.684   6.597   7.120 -0.2081 -0.1125 -0.9260
  844MOL0     C11314   5.708   6.634   6.979 -0.7045  0.8266  0.8007
  844MOL0     C11315   5.659   6.772   6.953  0.7275  0.0978  0.9984
  844MOL0     C11316   5.644   6.810   6.804  0.0067 -0.0551  0.0417
  844MOL0     C11317   5.782   6.839   6.743  0.1420 -0.7208  0.4341
  844MOL0     C11318   5.781   6.823   6.599 -0.2022 -0.0810  0.4343
  844MOL0     C11319   5.911   6.854   6.539  1.3600 -0.9717 -0.6471
  844MOL0    Cl11320   5.899   6.907   6.371  0.1167  0.0790 -0.1253
  844MOL0     C11321   5.861   6.277   7.420  0.1447  0.3691 -0.1373
  844MOL0     C11322   5.902   6.148   7.456 -0.2193 -0.2773  0.3684
  844MOL0     O11323   6.127   5.926   7.393  0.0236  0.1564 -0.1473
  844MOL0     C11324   6.185   5.651   7.449 -0.1738 -0.7940 -0.1494
  844MOL0     C11325   6.195   5.513   7.480  1.5405 -0.3823  0.0070
  844MOL0     N11326   5.982   4.732   7.785 -0.0913 -0.2352  0.7230
  844MOL0     N11327   6.014   4.654   7.889  0.3121  0.2734  0.3175
  844MOL0     C11328   6.705   4.043   8.188  0.3630 -0.0766 -0.1580
  844MOL0     C11329   6.630   3.939   8.231  0.0857  0.1059 -0.6937
  844MOL0     C11330   6.508   3.482   8.240 -0.0047  0.0218 -0.4625
  844MOL0     C11331   6.371   3.506   8.267 -0.1092 -0.2071 -0.6621
  844MOL0     C11332   6.288   3.396   8.293  0.2755 -0.1404  0.1161
  844MOL0     C11333   6.344   3.273   8.316 -0.1421 -0.4518 -0.4308
  844MOL0     O11334   6.255   3.176   8.355 -0.5207 -0.4395 -0.6973
  844MOL0     C11335   6.280   3.155   8.497  0.6920  0.3823 -0.3161
  844MOL0     C11336   6.184   3.056   8.561  0.5213  0.4910  0.0896
  844MOL0     C11337   6.043   3.115   8.574 -0.8802  0.2554  0.1322
  844MOL0     C11338   6.016   3.237   8.665  0.0488  0.2327  0.1833
  844MOL0     C11339   5.909   3.313   8.596 -0.0970  0.4749  1.0217
  844MOL0     C11340   5.809   3.374   8.549  0.3907 -0.0647 -0.1380
  844MOL0     C11341   6.479   3.253   8.280  0.0113  1.3057 -1.1779
  844MOL0     C11342   6.569   3.355   8.250  0.5415  0.7192  0.5939
  844MOL0     H11343   6.689   3.716   7.977 -1.9971 -1.1222  2.2393
  844MOL0     H11344   6.825   3.912   7.892  1.2317  2.2737 -0.3018
  844MOL0     H11345   6.750   4.176   7.836 -1.1435  1.8111  0.6331
  844MOL0     H11346   6.916   4.103   7.822 -1.6354 -0.9648 -0.1701
  844MOL0     H11347   7.004   4.281   7.782  2.4002 -1.3199  2.4425
  844MOL0     H11348   6.963   4.350   7.936  1.7125 -1.4607  0.7570
  844MOL0     H11349   6.776   4.353   7.706  1.7858 -1.5358 -0.7793
  844MOL0     H11350   6.870   4.495   7.752 -2.3857  0.7645 -0.2309
  844MOL0     H11351   6.674   4.360   7.944  0.6365  1.4487  3.2209
  844MOL0     H11352   6.757   4.500   7.979  0.6675  0.7325 -0.3275
  844MOL0     H11353   6.560   4.473   7.755 -1.5439 -1.1057  1.1279
  844MOL0     H11354   6.633   4.620   7.807 -1.9516 -0.5833 -1.3026
  844MOL0     H11355   6.518   4.610   8.039 -1.3370 -0.7360  1.6142
  844MOL0     H11356   6.448   4.451   7.973  0.3665 -1.6423 -5.3142
  844MOL0     H11357   6.404   4.723   7.856 -2.2532  0.8772  1.6298
  844MOL0     H11358   6.340   4.579   7.784 -2.2524  0.4490 -0.4666
  844MOL0     H11359   6.278   4.663   8.065 -0.7438  4.5340 -1.1773
  844MOL0     H11360   6.209   4.514   7.975 -0.1772  0.7031  2.8295
  844MOL0     H11361   6.269   4.873   7.879  1.5536 -2.2707 -1.7720
  844MOL0     H11362   6.063   5.068   7.763  2.4524 -0.7188  1.0896
  844MOL0     H11363   5.933   4.973   7.677  0.7063 -2.2571 -1.5714
  844MOL0     H11364   6.129   4.885   7.537  2.0644 -0.1932 -0.6439
  844MOL0     H11365   6.234   5.013   7.588  1.5934 -2.2982 -1.5130
  844MOL0     H11366   6.156   5.099   7.395 -2.6961  2.4051 -2.9023
  844MOL0     H11367   5.994   5.034   7.406  1.4333 -1.5277  1.1698
  844MOL0     H11368   5.954   5.194   7.601 -2.0513 -0.4726 -1.0817
  844MOL0     H11369   5.955   5.236   7.429 -0.6872 -1.6621  0.8683
  844MOL0     H11370   5.863   5.451   7.514 -1.6385  2.8807 -2.6778
  844MOL0     H11371   5.839   5.672   7.447  1.2216  0.8083 -0.7632
  844MOL0     H11372   5.797   5.966   7.191 -1.0317 -0.4447 -1.7741
  844MOL0     H11373   5.712   6.186   7.123  1.0685 -2.0273 -0.7015
  844MOL0     H11374   5.645   6.403   7.081 -0.3968  0.0736 -0.4823
  844MOL0     H11375   5.827   6.438   7.081  0.9832  2.8918  0.5497
  844MOL0     H11376   5.747   6.654   7.189 -0.4545 -0.8034 -0.1116
  844MOL0     H11377   5.581   6.608   7.154 -2.1916 -3.1775 -5.0619
  844MOL0     H11378   5.654   6.563   6.916 -0.2322 -0.3571  1.7033
  844MOL0     H11379   5.813   6.624   6.949 -0.7325  0.6245  0.7654
  844MOL0     H11380   5.559   6.796   6.991  0.1341 -2.1965  1.0083
  844MOL0     H11381   5.731   6.838   7.002 -0.2812  2.4474 -0.4895
  844MOL0     H11382   5.570   6.889   6.791 -1.0363 -1.4389 -3.3678
  844MOL0     H11383   5.606   6.718   6.761  1.0872 -2.4945  3.7942
  844MOL0     H11384   5.853   6.772   6.793 -1.4960 -2.3839  0.6320
  844MOL0     H11385   5.811   6.941   6.768  4.0798 -1.1597 -1.5473
  844MOL0     H11386   5.734   6.731   6.562 -2.9410  1.7657 -1.0093
  844MOL0     H11387   5.714   6.900   6.562  1.8429  0.0166 -3.6016
  844MOL0     H11388   5.965   6.759   6.548  1.1347 -0.9978  0.5614
  844MOL0     H11389   5.972   6.922   6.599  0.2931 -1.3587  0.9478
  844MOL0     H11390   5.873   6.349   7.500 -0.5267 -0.2237  0.5098
  844MOL0     H11391   5.968   6.135   7.542  1.1056 -0.4231 -0.6363
  844MOL0     H11392   6.275   5.705   7.422 -0.3688 -1.4638 -2.2852
  844MOL0     H11393   6.292   5.465   7.487  0.9872 -1.3481  4.8584
  844MOL0     H11394   6.715   4.137   8.241 -1.2093  1.4226 -2.3708
  844MOL0     H11395   6.589   3.939   8.331 -0.6711  1.7197 -0.9697
  844MOL0     H11396   6.337   3.606   8.242  1.3829 -0.5381 -4.7723
  844MOL0     H11397   6.183   3.412   8.315  1.1551  2.3665  3.3258
  844MOL0     H11398   6.302   3.250   8.547  1.5472  0.1413 -0.2098
  844MOL0     H11399   6.375   3.101   8.505 -0.5270 -2.2510 -2.2421
  844MOL0     H11400   6.179   2.960   8.509 -2.1660  0.3233  0.5248
  844MOL0     H11401   6.222   3.040   8.663  1.7218  1.4138 -0.1974
  844MOL0     H11402   5.978   3.036   8.612 -2.6584  1.4159 -0.3540
  844MOL0     H11403   6.016   3.134   8.469  1.0459 -2.8439 -1.0700
  844MOL0     H11404   5.989   3.202   8.766  2.0687 -1.7333  0.1031
  844MOL0     H11405   6.106   3.297   8.676  1.8741 -2.4914  1.0583
  844MOL0     H11406   5.725   3.433   8.517 -1.4160 -2.6022 -0.3764
  844MOL0     H11407   6.502   3.150   8.256 -4.0602 -0.1462  0.2471
  844MOL0     H11408   6.671   3.329   8.225 -0.1267 -1.9781  0.2840
  845MOL0     O11409   5.398  10.446  10.345 -0.3312  0.1044  0.1076
  845MOL0     C11410   5.288  10.495  10.326  0.6097 -0.5328 -0.0394
  845MOL0     O11411   5.166  10.442  10.370  0.5066  0.2606  0.2762
  845MOL0     C11412   5.162  10.317  10.416 -0.4438 -0.0061 -0.7746
  845MOL0     C11413   5.240  10.263  10.517 -0.5076 -0.7206 -0.0975
  845MOL0     C11414   5.232  10.129  10.549 -0.5185 -0.5193  0.5735
  845MOL0     C11415   5.138  10.041  10.493  1.1482  0.6537  0.9849
  845MOL0     O11416   5.109   9.920  10.537  0.0817  0.5088 -0.7151
  845MOL0     C11417   5.199   9.856  10.639 -0.9631 -0.8469  0.8017
  845MOL0     C11418   5.135   9.736  10.698 -0.1104 -0.7282  0.4224
  845MOL0     C11419   5.222   9.657  10.799  0.0292  0.2351 -0.3239
  845MOL0     C11420   5.153   9.551  10.882 -0.6602 -0.8987 -0.4227
  845MOL0     C11421   5.242   9.494  10.986  0.0225 -0.2889 -0.5402
  845MOL0     C11422   5.167   9.371  11.048  0.3778 -0.1794 -1.1018
  845MOL0     C11423   5.268   9.296  11.144  0.4728  0.1798  0.2007
  845MOL0     C11424   5.367   9.213  11.077 -0.4594 -0.1527 -0.2686
  845MOL0     N11425   5.444   9.128  11.177  1.3382 -0.1473  0.6228
  845MOL0     C11426   5.519   9.176  11.285  0.6354 -0.2066  0.4884
  845MOL0     C11427   5.572   9.062  11.346 -0.4855  0.6696 -0.1123
  845MOL0     C11428   5.670   9.047  11.460 -0.8636 -0.5780  0.0861
  845MOL0     C11429   5.674   9.172  11.554 -0.4149 -1.4087 -0.6862
  845MOL0     C11430   5.775   9.157  11.674  0.2406 -0.0786 -0.5107
  845MOL0     C11431   5.920   9.167  11.617 -0.1682  0.4990 -0.5047
  845MOL0     O11432   5.950   9.299  11.596  0.0836  0.0673 -0.4926
  845MOL0     C11433   6.077   9.345  11.575  0.3996 -0.2754  0.0149
  845MOL0     C11434   6.188   9.279  11.619 -0.1953 -0.6862 -0.4316
  845MOL0     C11435   6.320   9.336  11.623  0.3760  0.2812  0.3362
  845MOL0     C11436   6.332   9.469  11.588  0.3609 -0.0746  0.3537
  845MOL0     C11437   6.453   9.535  11.595 -0.4183 -0.1300  1.2495
  845MOL0     O11438   6.557   9.454  11.625  0.2875 -0.8370  0.2791
  845MOL0     C11439   6.672   9.500  11.689 -0.3304 -1.9258 -0.1218
  845MOL0     C11440   6.686   9.617  11.767  0.0693  0.0638  0.8690
  845MOL0     C11441   6.804   9.655  11.828  0.6203 -0.1614  1.0585
  845MOL0     C11442   6.917   9.572  11.825 -0.2790  0.3139  0.8805
  845MOL0     O11443   7.022   9.619  11.894 -0.8724  0.3713  0.4536
  845MOL0     C11444   7.137   9.626  11.802  0.5992  0.7089  0.4814
  845MOL0     C11445   7.261   9.612  11.890  0.9369 -0.2815  0.2788
  845MOL0     C11446   7.389   9.599  11.810  0.0766  0.2827 -0.7673
  845MOL0     C11447   7.447   9.730  11.774  0.3476  0.0808 -0.6358
  845MOL0     C11448   7.513   9.725  11.637  0.4967  0.5962  0.7250
  845MOL0     C11449   7.586   9.860  11.610 -0.3878 -0.4563 -0.9807
  845MOL0     C11450   7.708   9.892  11.699  0.4458 -0.2235  0.1223
  845MOL0     C11451   7.765  10.026  11.665  0.7117 -0.1346  0.7458
  845MOL0    Cl11452   7.820  10.059  11.499 -0.1399  0.1021 -0.0815
  845MOL0     C11453   6.913   9.457  11.740  0.3040 -0.4517 -0.7992
  845MOL0     C11454   6.786   9.422  11.686  0.1508  0.7476 -0.1113
  845MOL0     O11455   6.464   9.657  11.562 -0.2484  0.5840 -0.3193
  845MOL0     C11456   6.218   9.542  11.539 -0.0477 -0.4954 -0.5351
  845MOL0     C11457   6.096   9.469  11.520  0.6718  0.6093 -0.1617
  845MOL0     N11458   5.511   8.953  11.275 -0.1428 -0.2325  0.1005
  845MOL0     N11459   5.446   8.995  11.168 -0.3210 -0.4317 -0.9839
  845MOL0     C11460   5.057  10.098  10.392 -0.4424  0.3050 -0.1561
  845MOL0     C11461   5.070  10.230  10.360  0.1157 -0.6893 -0.4211
  845MOL0     C11462   5.279  10.622  10.255 -0.2239  0.1691 -0.0903
  845MOL0     C11463   5.394  10.686  10.200  1.0462  0.0530  0.0888
  845MOL0     C11464   5.380  10.817  10.142  0.1015  0.3899  1.1510
  845MOL0     C11465   5.262  10.882  10.121  0.5076 -0.3051  0.4373
  845MOL0     O11466   5.254  11.002  10.063 -0.5633 -0.0808  0.2980
  845MOL0     C11467   5.367  11.040   9.984 -0.8077  0.1760 -0.7059
  845MOL0     C11468   5.350  11.175   9.924 -0.0626 -0.2497  0.2601
  845MOL0     C11469   5.250  11.177   9.801  0.8204 -0.3527 -0.5066
  845MOL0     C11470   5.241  11.325   9.751 -0.5930 -0.0410 -0.1379
  845MOL0     C11471   5.167  11.414   9.833  0.0339 -0.2639 -0.4205
  845MOL0     C11472   5.095  11.476   9.910  0.6428  0.6217 -0.2449
  845MOL0     C11473   5.148  10.818  10.176  0.4911  0.0579  0.3399
  845MOL0     C11474   5.162  10.689  10.243  0.0070  0.2246 -0.3283
  845MOL0     H11475   5.316  10.331  10.554 -1.7635 -0.9723  3.3594
  845MOL0     H11476   5.287  10.099  10.637  2.2490  5.7740  1.4963
  845MOL0     H11477   5.223   9.922  10.723 -1.1061 -1.4242  1.3063
  845MOL0     H11478   5.296   9.828  10.598 -0.8548  1.9195 -1.1459
  845MOL0     H11479   5.104   9.669  10.617 -3.4504  1.8308 -0.6548
  845MOL0     H11480   5.034   9.763  10.731 -1.6081  1.2097 -4.7422
  845MOL0     H11481   5.271   9.719  10.874  1.4127 -1.3828  0.1722
  845MOL0     H11482   5.301   9.612  10.737  1.9403 -0.0607  2.1622
  845MOL0     H11483   5.076   9.600  10.943 -0.5751  1.0511 -1.8139
  845MOL0     H11484   5.107   9.477  10.815 -0.2851  1.0723 -2.9917
  845MOL0     H11485   5.288   9.558  11.062 -0.2484 -0.5680 -0.1368
  845MOL0     H11486   5.329   9.460  10.930 -0.3369 -2.4263  0.1113
  845MOL0     H11487   5.140   9.292  10.978  0.8769 -1.0608 -0.3252
  845MOL0     H11488   5.075   9.411  11.092  3.0346  1.7280  3.5003
  845MOL0     H11489   5.316   9.374  11.203 -2.8909  2.0263  0.7187
  845MOL0     H11490   5.210   9.233  11.212 -1.1561  0.1606 -1.1537
  845MOL0     H11491   5.440   9.263  11.014 -0.6427  0.8827  0.3197
  845MOL0     H11492   5.305   9.145  11.017 -3.5566  0.1676  2.2806
  845MOL0     H11493   5.543   9.280  11.303 -3.1587  0.8862 -0.0208
  845MOL0     H11494   5.769   9.034  11.416 -1.9016 -1.5889 -2.1353
  845MOL0     H11495   5.641   8.957  11.515 -1.4277 -0.7685 -0.5125
  845MOL0     H11496   5.573   9.196  11.587  0.4471  0.4734  0.7685
  845MOL0     H11497   5.703   9.263  11.501 -1.1783 -0.2884  0.7901
  845MOL0     H11498   5.755   9.234  11.748 -3.0540 -1.4630  0.2146
  845MOL0     H11499   5.754   9.065  11.729  1.1702 -0.0455 -0.0881
  845MOL0     H11500   5.924   9.121  11.518 -0.6882  1.7157 -1.1189
  845MOL0     H11501   5.997   9.113  11.673  0.4403  1.1893 -0.6636
  845MOL0     H11502   6.174   9.185  11.672  1.9205 -1.7170 -1.5557
  845MOL0     H11503   6.408   9.282  11.657  2.8944  3.5308 -0.5047
  845MOL0     H11504   6.611   9.690  11.797  1.9598  2.2492  0.5695
  845MOL0     H11505   6.806   9.749  11.882 -7.2024  0.1131  2.0695
  845MOL0     H11506   7.143   9.717  11.742  1.9892  0.1911 -0.1931
  845MOL0     H11507   7.149   9.543  11.732 -0.5194 -1.1447  2.3867
  845MOL0     H11508   7.252   9.526  11.958  2.4086  1.8791  3.4669
  845MOL0     H11509   7.266   9.692  11.964 -0.4830  0.7692 -0.7050
  845MOL0     H11510   7.378   9.531  11.726  1.2034 -3.1273  1.6359
  845MOL0     H11511   7.465   9.546  11.868  1.2977 -1.1004 -3.4696
  845MOL0     H11512   7.368   9.806  11.778  1.5364  1.3250  0.1993
  845MOL0     H11513   7.513   9.754  11.858 -1.0118  0.9434  0.2170
  845MOL0     H11514   7.435   9.708  11.562  1.1391  0.1336  0.1530
  845MOL0     H11515   7.582   9.642  11.626 -0.3314  0.1657 -1.7519
  845MOL0     H11516   7.514   9.939  11.634  0.8518  0.5162 -0.2864
  845MOL0     H11517   7.618   9.867  11.506 -1.4222 -1.1666 -1.3541
  845MOL0     H11518   7.675   9.911  11.802 -0.9859  3.7934 -0.8927
  845MOL0     H11519   7.790   9.820  11.696  2.8533  2.3565 -1.1525
  845MOL0     H11520   7.824  10.046  11.755 -1.5933 -1.7911  2.7689
  845MOL0     H11521   7.686  10.098  11.686  2.9800  3.2390 -1.3975
  845MOL0     H11522   6.998   9.391  11.727  0.3594 -0.5685  0.1332
  845MOL0     H11523   6.771   9.337  11.621 -0.9361  2.3133 -2.0143
  845MOL0     H11524   6.224   9.648  11.517 -1.6372 -0.5053 -1.0752
  845MOL0     H11525   6.005   9.520  11.489 -0.0911 -0.1395  0.7753
  845MOL0     H11526   4.980  10.045  10.336 -1.3019  0.6400  0.6712
  845MOL0     H11527   5.003  10.285  10.294  0.8730 -0.4872 -1.0397
  845MOL0     H11528   5.492  10.639  10.201  0.7842 -0.5800  2.2919
  845MOL0     H11529   5.481  10.848  10.117  0.1960  1.1444  2.3715
  845MOL0     H11530   5.396  10.966   9.908  1.1929 -1.2500  1.3022
  845MOL0     H11531   5.457  11.051  10.045  0.0873 -2.1986 -1.4588
  845MOL0     H11532   5.316  11.249   9.996 -1.0758  0.1975 -0.6471
  845MOL0     H11533   5.450  11.200   9.887  0.1082 -3.1504 -1.5918
  845MOL0     H11534   5.154  11.140   9.839  0.9331  1.6973  2.1115
  845MOL0     H11535   5.287  11.115   9.719 -0.7535  0.1479 -1.6533
  845MOL0     H11536   5.341  11.370   9.755 -0.3110 -0.6910  0.4089
  845MOL0     H11537   5.214  11.315   9.646  2.2143  2.4919 -1.2547
  845MOL0     H11538   5.026  11.529   9.971  0.6634  1.1337 -0.6613
  845MOL0     H11539   5.052  10.869  10.177 -1.3502 -3.1421  0.4343
  845MOL0     H11540   5.074  10.652  10.295 -0.0527  1.6892  0.6626
  846MOL0     O11541   5.753   4.504   3.146 -1.0832 -0.2493 -0.5317
  846MOL0     C11542   5.858   4.561   3.176  0.6488  0.3501 -1.4855
  846MOL0     O11543   5.969   4.504   3.228 -0.4266  0.0164  0.6836
  846MOL0     C11544   5.991   4.372   3.228  0.8589  0.1952 -0.2814
  846MOL0     C11545   5.929   4.280   3.141 -0.2659 -0.1894 -0.7812
  846MOL0     C11546   5.964   4.147   3.138  0.1766 -0.0803  0.6100
  846MOL0     C11547   6.063   4.100   3.227  0.7437  0.9203 -0.0423
  846MOL0     O11548   6.098   3.965   3.227  0.7477  0.4783  0.9533
  846MOL0     C11549   6.162   3.907   3.340  0.3341 -0.8104 -0.4079
  846MOL0     C11550   6.154   3.744   3.328  0.1356  0.0688 -0.1300
  846MOL0     C11551   6.147   3.695   3.182 -0.4187 -0.2615  0.6328
  846MOL0     C11552   6.203   3.548   3.158 -0.1020  0.8628  0.0259
  846MOL0     C11553   6.250   3.555   3.017  0.0563  0.1152 -0.1680
  846MOL0     C11554   6.258   3.418   2.952 -0.3750  0.7046 -0.4614
  846MOL0     C11555   6.409   3.363   2.949  0.1777  0.6704 -0.0025
  846MOL0     C11556   6.442   3.235   2.867  0.1119  0.0616  0.0748
  846MOL0     N11557   6.585   3.214   2.840  0.0471  0.7252 -0.5892
  846MOL0     C11558   6.655   3.241   2.724  0.5149 -0.9430  0.3640
  846MOL0     C11559   6.780   3.206   2.751  0.3205 -0.0190 -0.7515
  846MOL0     C11560   6.896   3.208   2.661  0.4458 -0.6649 -0.3214
  846MOL0     C11561   6.920   3.085   2.578  0.0650 -0.1101 -0.3775
  846MOL0     C11562   6.810   3.055   2.489  1.1980 -0.3004  0.9714
  846MOL0     C11563   6.818   2.926   2.417 -1.3605 -0.6171 -0.0289
  846MOL0     O11564   6.688   2.897   2.371 -0.4564 -0.8810 -1.3552
  846MOL0     C11565   6.680   2.783   2.289 -0.5528 -0.9599 -0.1534
  846MOL0     C11566   6.781   2.680   2.290  0.1923  0.0819  0.3562
  846MOL0     C11567   6.776   2.566   2.208  0.1324 -0.4056  0.1263
  846MOL0     C11568   6.663   2.539   2.129 -0.4442 -0.1167 -1.1048
  846MOL0     C11569   6.668   2.420   2.042  0.8133  0.7505  0.3334
  846MOL0     O11570   6.773   2.335   2.044  0.7489 -0.3856 -0.8001
  846MOL0     C11571   6.769   2.234   1.956  0.0228  0.4030  0.7385
  846MOL0     C11572   6.843   2.236   1.835 -1.7476  0.4802  0.1009
  846MOL0     C11573   6.828   2.141   1.730  0.1856 -0.6030 -0.4186
  846MOL0     C11574   6.761   2.027   1.749  0.8725  1.0350  0.2754
  846MOL0     O11575   6.740   1.932   1.654  0.3223 -0.2335 -0.3540
  846MOL0     C11576   6.816   1.930   1.540 -0.0372 -0.1663  1.4878
  846MOL0     C11577   6.778   1.795   1.474  0.3962  0.1894  0.2417
  846MOL0     C11578   6.639   1.784   1.400  0.4196 -0.2115  0.9954
  846MOL0     C11579   6.590   1.640   1.392  0.0977 -0.1135 -0.7662
  846MOL0     C11580   6.668   1.558   1.289  0.3483  0.1952  0.0737
  846MOL0     C11581   6.614   1.411   1.258  0.0678  0.6066 -0.0666
  846MOL0     C11582   6.637   1.312   1.371  0.5571 -0.9516  0.0802
  846MOL0     C11583   6.594   1.170   1.336  0.6979  0.4528  0.1667
  846MOL0    Cl11584   6.749   1.097   1.275  0.3612  0.2589  0.2357
  846MOL0     C11585   6.700   2.009   1.880  1.4176 -1.0081 -0.0496
  846MOL0     C11586   6.704   2.112   1.977  0.5129 -0.3582 -0.6185
  846MOL0     O11587   6.571   2.423   1.960 -1.1923 -0.0157  0.5607
  846MOL0     C11588   6.572   2.651   2.119  0.3597 -0.5218 -0.6951
  846MOL0     C11589   6.582   2.768   2.199 -0.2098  0.9895 -0.5060
  846MOL0     N11590   6.786   3.146   2.882  0.2674 -0.4898 -0.0891
  846MOL0     N11591   6.665   3.147   2.928  0.0260  0.0336 -0.2553
  846MOL0     C11592   6.121   4.185   3.317 -0.1178  1.0896  0.7041
  846MOL0     C11593   6.086   4.316   3.325  0.3287  0.2924  1.2124
  846MOL0     C11594   5.844   4.710   3.189  0.1129 -0.6884  0.4783
  846MOL0     C11595   5.943   4.786   3.258 -0.2949  0.3384  0.1745
  846MOL0     C11596   5.922   4.926   3.269  0.2084 -0.4271  1.2102
  846MOL0     C11597   5.823   4.996   3.202  0.6460 -0.2278 -0.0435
  846MOL0     O11598   5.816   5.133   3.221 -0.4420  0.0120 -0.0498
  846MOL0     C11599   5.793   5.221   3.112 -0.5846 -0.9505  0.5532
  846MOL0     C11600   5.662   5.282   3.089  0.8149  0.4629  0.2965
  846MOL0     C11601   5.640   5.392   3.199  0.4456  1.7495 -0.8988
  846MOL0     C11602   5.712   5.528   3.176  0.0057  0.1095  0.3657
  846MOL0     C11603   5.646   5.602   3.069 -0.1040  0.6468  0.6580
  846MOL0     C11604   5.576   5.664   2.988 -0.7990  0.2102  1.1447
  846MOL0     C11605   5.726   4.915   3.144 -0.2031  0.2717 -0.3448
  846MOL0     C11606   5.733   4.776   3.127 -0.0757  0.1916  0.2091
  846MOL0     H11607   5.867   4.323   3.063 -1.5479  1.3242  0.9906
  846MOL0     H11608   5.906   4.082   3.075 -2.0304  3.2495 -1.0518
  846MOL0     H11609   6.114   3.929   3.436 -1.9855  3.3797 -2.2788
  846MOL0     H11610   6.269   3.931   3.336  0.7172 -2.4882 -2.3385
  846MOL0     H11611   6.064   3.716   3.384  1.0370 -1.9172  0.3758
  846MOL0     H11612   6.241   3.696   3.372  0.5692 -0.9956 -2.0154
  846MOL0     H11613   6.200   3.773   3.126  0.2643  0.3269  2.0448
  846MOL0     H11614   6.045   3.704   3.142 -0.2664  3.3024  0.6916
  846MOL0     H11615   6.290   3.533   3.223  0.3603  0.4816 -0.6604
  846MOL0     H11616   6.122   3.474   3.167  0.0536  0.6085 -0.5913
  846MOL0     H11617   6.336   3.622   3.011 -2.8409  4.0582 -2.1477
  846MOL0     H11618   6.168   3.604   2.964 -1.2631  0.9995  2.5460
  846MOL0     H11619   6.229   3.423   2.847 -0.9179 -2.5572 -0.5784
  846MOL0     H11620   6.207   3.343   3.013 -0.8474  0.5942 -0.9846
  846MOL0     H11621   6.462   3.448   2.904 -1.3166  1.8936  0.4633
  846MOL0     H11622   6.436   3.351   3.055 -0.9581 -0.6435  0.1620
  846MOL0     H11623   6.383   3.230   2.774 -0.0504 -1.1262  0.2181
  846MOL0     H11624   6.399   3.154   2.926  3.0952 -1.0434  0.8989
  846MOL0     H11625   6.617   3.265   2.626  0.2206 -2.4844  0.0749
  846MOL0     H11626   6.985   3.227   2.721 -0.0226 -2.2519  0.9589
  846MOL0     H11627   6.877   3.298   2.601 -3.9051 -1.4162 -0.3731
  846MOL0     H11628   6.946   3.002   2.644 -1.2911  1.3658  2.1809
  846MOL0     H11629   7.007   3.097   2.512 -0.0238 -1.5681 -0.7969
  846MOL0     H11630   6.712   3.062   2.537  1.7027  0.9106  1.8706
  846MOL0     H11631   6.816   3.131   2.411 -2.1052 -2.5363 -1.7482
  846MOL0     H11632   6.847   2.854   2.494 -0.1650  0.9936  1.1005
  846MOL0     H11633   6.889   2.934   2.334  0.6079 -3.1125  1.2918
  846MOL0     H11634   6.863   2.683   2.362 -1.6047  0.3031  2.5293
  846MOL0     H11635   6.858   2.495   2.207 -0.5376 -1.2028 -1.5426
  846MOL0     H11636   6.906   2.324   1.825 -1.1123  0.1413  1.0132
  846MOL0     H11637   6.880   2.172   1.640  0.8484 -1.2290 -0.2556
  846MOL0     H11638   6.919   1.942   1.573 -0.6232  3.6480  2.3399
  846MOL0     H11639   6.789   2.011   1.472 -3.7854 -0.6531  2.1551
  846MOL0     H11640   6.782   1.726   1.558  1.0135  1.1787  1.0428
  846MOL0     H11641   6.852   1.769   1.398  1.9873 -1.8921  2.3444
  846MOL0     H11642   6.641   1.837   1.304 -1.1061 -0.5148  0.7612
  846MOL0     H11643   6.561   1.831   1.460 -0.2236  1.6774 -1.1587
  846MOL0     H11644   6.603   1.600   1.492 -0.9929  2.7090  0.6217
  846MOL0     H11645   6.484   1.621   1.371 -0.2378 -0.3537  0.9936
  846MOL0     H11646   6.773   1.553   1.316  0.7256 -1.6312 -1.5562
  846MOL0     H11647   6.660   1.611   1.193  3.2780  0.9442  0.1438
  846MOL0     H11648   6.677   1.369   1.179  2.1981  0.8801  1.4003
  846MOL0     H11649   6.510   1.417   1.225 -1.3395  0.2531  3.8890
  846MOL0     H11650   6.743   1.328   1.392  0.7031  1.0399 -1.7960
  846MOL0     H11651   6.573   1.333   1.457 -2.1866 -3.4868 -1.1382
  846MOL0     H11652   6.518   1.172   1.258 -2.1635 -1.1222  2.7249
  846MOL0     H11653   6.553   1.116   1.421 -0.1114 -1.3664 -1.3061
  846MOL0     H11654   6.641   1.918   1.889  1.4679 -1.0677 -0.3246
  846MOL0     H11655   6.658   2.103   2.075 -1.3806  2.6515 -1.1019
  846MOL0     H11656   6.503   2.643   2.036  0.8587 -1.2830 -1.0502
  846MOL0     H11657   6.510   2.848   2.185 -0.0870  1.1767 -0.0735
  846MOL0     H11658   6.189   4.149   3.394 -2.1102 -3.9737  0.4678
  846MOL0     H11659   6.127   4.376   3.406 -0.8017 -1.6627  3.3509
  846MOL0     H11660   6.025   4.741   3.313 -0.3152 -0.3258 -0.3280
  846MOL0     H11661   5.989   4.980   3.336  3.0303 -1.4706 -0.5994
  846MOL0     H11662   5.810   5.169   3.018 -0.3772 -0.7086  0.4552
  846MOL0     H11663   5.871   5.296   3.127 -1.4927 -0.0133  0.6884
  846MOL0     H11664   5.670   5.334   2.993  0.7736  2.8201  1.4756
  846MOL0     H11665   5.589   5.201   3.092 -0.8530  1.6300 -3.1534
  846MOL0     H11666   5.661   5.359   3.302 -1.0184  1.6954 -0.5911
  846MOL0     H11667   5.531   5.402   3.201 -0.0904 -0.8254  4.9369
  846MOL0     H11668   5.710   5.586   3.268 -0.9171 -1.0635  1.1195
  846MOL0     H11669   5.817   5.512   3.151  0.1521  0.2948  0.8578
  846MOL0     H11670   5.501   5.712   2.929 -0.0013  0.8044  0.5816
  846MOL0     H11671   5.651   4.973   3.091 -1.0139 -0.4085  0.0307
  846MOL0     H11672   5.664   4.713   3.071  0.8312 -2.8550  2.2708
  847MOL0     O11673   3.873   1.175   8.224  0.1979 -0.4118  0.2994
  847MOL0     C11674   3.920   1.190   8.333 -0.2369 -0.0994  0.0799
  847MOL0     O11675   3.924   1.093   8.434  0.7220  0.9399  0.4905
  847MOL0     C11676   3.850   0.979   8.427  0.4002 -1.5085  0.1504
  847MOL0     C11677   3.907   0.851   8.417  0.8557  0.0991 -0.2584
  847MOL0     C11678   3.818   0.736   8.395 -1.6993 -0.5283  0.6756
  847MOL0     C11679   3.679   0.761   8.399  0.4325  0.5835  0.5586
  847MOL0     O11680   3.589   0.647   8.387 -0.6042 -1.0840  1.4561
  847MOL0     C11681   3.444   0.672   8.386 -0.9404  0.3166  0.2571
  847MOL0     C11682   3.365   0.548   8.350  0.4651 -0.4265  0.5732
  847MOL0     C11683   3.214   0.587   8.318 -0.2282  0.9998  0.0967
  847MOL0     C11684   3.100   0.474   8.323  0.1718  0.4898 -0.6961
  847MOL0     C11685   3.107   0.366   8.229  0.4125 -0.4829 -0.5550
  847MOL0     C11686   3.178   0.243   8.274 -0.8870 -0.3352  0.5609
  847MOL0     C11687   3.163   0.128   8.178  0.3465  1.0724  0.5337
  847MOL0     C11688   3.226   0.002   8.239  0.3834  0.1022  0.5882
  847MOL0     N11689   3.129  -0.089   8.301 -0.1719 -0.7424  0.2300
  847MOL0     C11690   3.051  -0.156   8.213  0.8723  0.3580 -0.6114
  847MOL0     C11691   2.948  -0.221   8.279 -0.0887  0.2042 -0.4791
  847MOL0     C11692   2.835  -0.314   8.228 -0.1694 -0.4747 -0.4178
  847MOL0     C11693   2.700  -0.259   8.285  0.9008 -0.5395 -0.2538
  847MOL0     C11694   2.575  -0.342   8.250 -1.6734  0.4538 -0.4946
  847MOL0     C11695   2.565  -0.399   8.101 -0.0920  0.5307  0.1016
  847MOL0     O11696   2.574  -0.285   8.006 -0.1520  0.5818  0.0020
  847MOL0     C11697   2.601  -0.309   7.873 -0.0292  0.1840  0.3669
  847MOL0     C11698   2.628  -0.199   7.786  0.5351 -0.2263  1.2604
  847MOL0     C11699   2.658  -0.218   7.650  0.1026  0.1713  0.3453
  847MOL0     C11700   2.660  -0.353   7.598 -1.1615 -0.7774  0.2056
  847MOL0     C11701   2.700  -0.377   7.464 -0.0192 -0.2671 -0.2502
  847MOL0     O11702   2.729  -0.509   7.430  0.4477 -0.1478 -0.7331
  847MOL0     C11703   2.778  -0.526   7.302  0.2307  0.4468 -0.3383
  847MOL0     C11704   2.899  -0.459   7.274  0.6186  0.3878  0.0159
  847MOL0     C11705   2.952  -0.488   7.153 -0.6194 -0.3739  0.3101
  847MOL0     C11706   2.904  -0.586   7.067  0.4484 -0.4356  0.6025
  847MOL0     O11707   2.973  -0.612   6.954  0.0079  0.0921  0.2322
  847MOL0     C11708   2.902  -0.607   6.829 -0.6450 -1.1214  0.1406
  847MOL0     C11709   2.992  -0.623   6.705 -1.1844  1.3255  0.3429
  847MOL0     C11710   2.999  -0.770   6.666  0.6356  0.6260  0.6186
  847MOL0     C11711   3.073  -0.814   6.540  0.5825  0.0420 -0.1460
  847MOL0     C11712   3.224  -0.793   6.549 -0.5516  0.3067  0.6178
  847MOL0     C11713   3.297  -0.824   6.415 -0.4672  0.4719  0.7506
  847MOL0     C11714   3.446  -0.804   6.418  0.3435  0.7955  0.5052
  847MOL0     C11715   3.504  -0.890   6.301  1.0460 -0.3221  0.1175
  847MOL0    Cl11716   3.674  -0.884   6.281  0.2446  0.0377  0.0717
  847MOL0     C11717   2.790  -0.653   7.095 -0.0713  1.0654  0.0357
  847MOL0     C11718   2.723  -0.618   7.217 -0.1958 -0.0017 -0.2768
  847MOL0     O11719   2.716  -0.269   7.398 -0.0634  0.4362 -0.0434
  847MOL0     C11720   2.618  -0.464   7.680 -0.3592 -0.5938  0.5824
  847MOL0     C11721   2.582  -0.441   7.811 -0.8391  0.5320  0.8541
  847MOL0     N11722   2.968  -0.190   8.413 -0.0109 -0.5536 -0.1819
  847MOL0     N11723   3.075  -0.108   8.423  0.8197 -0.0108  0.2156
  847MOL0     C11724   3.629   0.889   8.380 -0.1803  0.4234 -0.8745
  847MOL0     C11725   3.708   1.003   8.407 -0.2154 -0.0943  0.3138
  847MOL0     C11726   3.990   1.317   8.357  0.4359 -0.1790 -0.1455
  847MOL0     C11727   4.032   1.346   8.484  0.5545  0.8864  0.6501
  847MOL0     C11728   4.089   1.474   8.501 -0.1891 -0.2001 -1.0028
  847MOL0     C11729   4.112   1.569   8.397 -0.9097  0.6994  0.8229
  847MOL0     O11730   4.163   1.687   8.426 -0.4455 -0.1131  0.1090
  847MOL0     C11731   4.218   1.774   8.331 -0.0120  0.7552 -0.6644
  847MOL0     C11732   4.115   1.879   8.291 -0.3993  0.1482  0.1335
  847MOL0     C11733   4.174   2.012   8.237  0.0601 -0.3666 -0.5119
  847MOL0     C11734   4.279   2.065   8.326  0.4143  0.2114 -0.6269
  847MOL0     C11735   4.259   2.207   8.339 -0.6587  0.1553 -0.1949
  847MOL0     C11736   4.235   2.330   8.349  0.4093  0.7953 -0.5298
  847MOL0     C11737   4.069   1.536   8.270  0.4179  0.5169  0.2315
  847MOL0     C11738   4.005   1.413   8.250  0.2278 -0.1744 -0.1567
  847MOL0     H11739   4.012   0.823   8.420  0.8978  0.2808 -0.0555
  847MOL0     H11740   3.859   0.639   8.374  1.4900  0.7816  0.3551
  847MOL0     H11741   3.429   0.739   8.301  1.1905  0.9249  0.3108
  847MOL0     H11742   3.403   0.723   8.474 -1.2840  2.8205 -1.2588
  847MOL0     H11743   3.376   0.466   8.423  2.4279 -0.6268  0.1210
  847MOL0     H11744   3.412   0.510   8.259  1.1303 -1.0112  1.1494
  847MOL0     H11745   3.222   0.631   8.218  1.7338 -2.9429 -1.7163
  847MOL0     H11746   3.185   0.651   8.402  0.2975 -0.0312  1.0846
  847MOL0     H11747   3.092   0.433   8.425  0.8144 -1.4863 -1.3987
  847MOL0     H11748   3.004   0.523   8.303  0.5132  1.1285 -0.8005
  847MOL0     H11749   3.154   0.401   8.137  0.5190  0.8727 -0.0024
  847MOL0     H11750   3.000   0.347   8.218  0.1371  1.1380 -0.9328
  847MOL0     H11751   3.153   0.209   8.375 -1.4238 -1.1875  0.1577
  847MOL0     H11752   3.287   0.255   8.274 -0.6068 -2.4626 -0.2424
  847MOL0     H11753   3.058   0.112   8.154  0.9139  0.3065 -1.6644
  847MOL0     H11754   3.205   0.148   8.079 -0.1161 -1.8432 -0.3270
  847MOL0     H11755   3.320   0.032   8.288  0.1095 -0.4996  1.5029
  847MOL0     H11756   3.261  -0.063   8.158  1.2277  0.3100  0.7804
  847MOL0     H11757   3.066  -0.154   8.105 -4.8977  1.3612 -1.7162
  847MOL0     H11758   2.871  -0.401   8.285  0.7652  0.4115  0.3799
  847MOL0     H11759   2.833  -0.319   8.119 -1.0652 -1.9910 -0.3592
  847MOL0     H11760   2.683  -0.162   8.237  0.1944  0.3519  1.7038
  847MOL0     H11761   2.717  -0.239   8.391  1.6707  0.9821 -0.6357
  847MOL0     H11762   2.562  -0.421   8.324  0.1356 -0.2403 -0.8765
  847MOL0     H11763   2.483  -0.288   8.277 -1.9217  0.3225 -1.0727
  847MOL0     H11764   2.471  -0.455   8.094  0.2388 -0.1129  0.7574
  847MOL0     H11765   2.653  -0.463   8.087  1.3842  1.1318  4.7817
  847MOL0     H11766   2.623  -0.099   7.829 -0.5041  2.0423 -3.4799
  847MOL0     H11767   2.683  -0.130   7.591 -2.3248  0.2165 -0.7090
  847MOL0     H11768   2.931  -0.372   7.330  0.4248  1.1221 -0.9913
  847MOL0     H11769   3.045  -0.439   7.125 -0.0566 -0.7160  1.5011
  847MOL0     H11770   2.858  -0.508   6.815 -1.2614 -1.4372 -0.1580
  847MOL0     H11771   2.808  -0.663   6.826 -1.4741  0.2877 -1.2730
  847MOL0     H11772   3.091  -0.584   6.727  1.9741 -2.6048 -4.6925
  847MOL0     H11773   2.951  -0.566   6.621 -0.2260 -0.5777 -1.5103
  847MOL0     H11774   2.899  -0.812   6.678  0.0144  1.5607 -1.0527
  847MOL0     H11775   3.064  -0.807   6.746  1.3791  3.0205  1.2182
  847MOL0     H11776   3.053  -0.918   6.514 -2.0448  0.3612  0.2942
  847MOL0     H11777   3.030  -0.750   6.462  0.8861 -0.7498 -0.9822
  847MOL0     H11778   3.261  -0.873   6.613 -2.6678  0.5391  2.2125
  847MOL0     H11779   3.254  -0.695   6.588  0.3657  0.1393  0.3676
  847MOL0     H11780   3.257  -0.752   6.343  2.8452  0.0918 -1.7198
  847MOL0     H11781   3.272  -0.922   6.372 -1.3846  1.8375 -2.0734
  847MOL0     H11782   3.461  -0.696   6.405 -0.6646  1.1929  2.3123
  847MOL0     H11783   3.486  -0.837   6.514  0.3211  0.9897  0.5819
  847MOL0     H11784   3.452  -0.865   6.207 -2.7782 -0.8694  1.9111
  847MOL0     H11785   3.466  -0.989   6.327 -2.6888  0.6364 -1.0623
  847MOL0     H11786   2.748  -0.736   7.039  0.1044  1.9528 -1.4747
  847MOL0     H11787   2.625  -0.658   7.243 -1.9967  1.1407 -4.4785
  847MOL0     H11788   2.590  -0.559   7.637 -0.0118 -1.0667  1.3767
  847MOL0     H11789   2.556  -0.520   7.881  2.7643 -2.1521 -0.5440
  847MOL0     H11790   3.523   0.915   8.373 -0.2637  0.8636  1.3056
  847MOL0     H11791   3.665   1.103   8.408  1.2605  0.5847  1.8194
  847MOL0     H11792   4.007   1.284   8.570 -0.8704 -0.4715 -0.6828
  847MOL0     H11793   4.118   1.492   8.603  1.7886 -1.4357 -1.2920
  847MOL0     H11794   4.252   1.724   8.240 -3.2816 -1.2718 -0.9232
  847MOL0     H11795   4.304   1.810   8.388  0.1440 -0.1044 -0.3437
  847MOL0     H11796   4.057   1.841   8.206  4.9730 -2.4402 -2.9182
  847MOL0     H11797   4.051   1.902   8.377  0.0050 -1.3671  0.8692
  847MOL0     H11798   4.085   2.075   8.235 -0.9406 -1.7254 -2.5188
  847MOL0     H11799   4.221   2.003   8.139 -0.8209  0.7904 -1.0622
  847MOL0     H11800   4.279   2.010   8.421 -1.0629  1.0210 -0.1240
  847MOL0     H11801   4.379   2.044   8.287  0.4816 -0.4609 -0.1249
  847MOL0     H11802   4.214   2.435   8.353  0.0864  0.8186 -2.0748
  847MOL0     H11803   4.072   1.611   8.191 -0.8942  1.1566  0.7651
  847MOL0     H11804   3.959   1.405   8.152 -0.7051 -1.1973  0.3440
  848MOL0     O11805   7.522  11.304   4.924 -0.2578 -0.2626 -0.5761
  848MOL0     C11806   7.603  11.352   5.004 -0.1271 -0.2093  0.3241
  848MOL0     O11807   7.583  11.389   5.139 -0.4176 -0.1799 -0.3395
  848MOL0     C11808   7.458  11.348   5.190 -0.3571 -0.1774 -0.1778
  848MOL0     C11809   7.347  11.441   5.197 -0.4682  0.1226 -0.6422
  848MOL0     C11810   7.236  11.406   5.264 -0.4948 -0.0958 -0.0183
  848MOL0     C11811   7.214  11.274   5.307 -0.4169 -1.3201 -0.5881
  848MOL0     O11812   7.082  11.248   5.345 -0.6072  0.2843  0.3755
  848MOL0     C11813   7.036  11.111   5.304 -0.6186 -2.0299  0.4259
  848MOL0     C11814   6.886  11.111   5.287  0.3997 -0.4228  0.6257
  848MOL0     C11815   6.841  11.000   5.186  1.2082  0.4284  0.4663
  848MOL0     C11816   6.831  10.858   5.244  0.1418  0.5886 -0.4410
  848MOL0     C11817   6.807  10.749   5.136  0.5445 -0.9637  0.5809
  848MOL0     C11818   6.787  10.614   5.182  0.6177  0.4491 -0.0808
  848MOL0     C11819   6.713  10.533   5.082 -0.4910  0.1335  0.2082
  848MOL0     C11820   6.755  10.387   5.090  0.1103 -0.3044 -0.5909
  848MOL0     N11821   6.695  10.314   5.201  0.7492 -0.6385 -0.9895
  848MOL0     C11822   6.557  10.297   5.218 -1.2350  1.1140  0.3048
  848MOL0     C11823   6.547  10.251   5.345 -0.1530  0.8303 -0.6487
  848MOL0     C11824   6.415  10.234   5.421  0.6507 -1.1432  0.0817
  848MOL0     C11825   6.409  10.116   5.520 -0.9488 -0.6457  0.2240
  848MOL0     C11826   6.462   9.980   5.462  0.4222 -0.0999  0.4608
  848MOL0     C11827   6.395   9.935   5.326  0.9806  0.4078  0.6996
  848MOL0     O11828   6.257   9.951   5.342  0.2374  0.5882 -1.1441
  848MOL0     C11829   6.163   9.926   5.242  0.8586  0.4364  0.9719
  848MOL0     C11830   6.188   9.875   5.113 -0.2215 -0.0073  0.1521
  848MOL0     C11831   6.090   9.843   5.018 -0.5809 -0.6464  0.1008
  848MOL0     C11832   5.956   9.882   5.049 -0.4165  0.0671 -0.0746
  848MOL0     C11833   5.854   9.887   4.939  0.0978  0.0339  0.6019
  848MOL0     O11834   5.724   9.933   4.969  0.0941  0.0729 -0.3867
  848MOL0     C11835   5.643   9.915   4.864  0.0646  0.4627  0.3235
  848MOL0     C11836   5.658   9.962   4.730  0.2294 -0.1665  0.5345
  848MOL0     C11837   5.578   9.920   4.615 -0.8515  0.0217 -0.3047
  848MOL0     C11838   5.471   9.836   4.640  0.7613 -0.6317  0.0642
  848MOL0     O11839   5.400   9.806   4.523  0.1448  0.1990  0.2959
  848MOL0     C11840   5.261   9.781   4.549  0.3190 -0.4568  0.0997
  848MOL0     C11841   5.193   9.825   4.420  0.1739  0.1240 -0.2437
  848MOL0     C11842   5.149   9.969   4.436 -0.9121 -0.7697 -0.8073
  848MOL0     C11843   5.097  10.047   4.313 -0.3281 -0.1221 -0.5627
  848MOL0     C11844   5.002   9.957   4.233 -0.5414 -0.4909 -0.7884
  848MOL0     C11845   4.931  10.034   4.121 -0.1171  0.1960  0.2189
  848MOL0     C11846   4.846  10.153   4.167  0.0493  1.1413  0.0429
  848MOL0     C11847   4.756  10.184   4.047 -0.1223  0.0132 -0.6383
  848MOL0    Cl11848   4.854  10.248   3.906  0.0508  0.0520  0.0508
  848MOL0     C11849   5.454   9.782   4.770 -0.0440  0.0327 -0.8533
  848MOL0     C11850   5.545   9.816   4.866  0.4026 -0.2928 -0.6725
  848MOL0     O11851   5.885   9.833   4.834 -0.7059  0.0915 -0.3072
  848MOL0     C11852   5.926   9.929   5.180  0.2057  0.3102 -0.0037
  848MOL0     C11853   6.030   9.936   5.276 -0.5537 -0.2336 -0.1689
  848MOL0     N11854   6.670  10.238   5.396 -0.2233  0.6480 -0.3355
  848MOL0     N11855   6.759  10.278   5.318 -0.1826 -0.4468  0.5195
  848MOL0     C11856   7.315  11.179   5.290  0.3810 -0.8980 -0.0505
  848MOL0     C11857   7.436  11.220   5.227  0.3647 -0.4419 -0.1041
  848MOL0     C11858   7.734  11.375   4.943  0.5543  1.3454  0.3087
  848MOL0     C11859   7.790  11.287   4.850  0.7300 -0.4330 -0.1206
  848MOL0     C11860   7.927  11.305   4.811 -0.4669  0.1177  0.2884
  848MOL0     C11861   8.009  11.410   4.866  0.8313 -0.7881 -0.5716
  848MOL0     O11862   8.138  11.408   4.817 -0.4175 -1.4318  0.5583
  848MOL0     C11863   8.240  11.498   4.878  0.8211 -0.1299  0.8463
  848MOL0     C11864   8.245  11.637   4.818 -0.8287 -0.2965  0.3116
  848MOL0     C11865   8.282  11.622   4.666 -0.0324  0.0069 -0.0153
  848MOL0     C11866   8.423  11.662   4.645 -0.8576 -0.2416  1.1312
  848MOL0     C11867   8.476  11.594   4.520  0.7657 -0.7356 -0.1710
  848MOL0     C11868   8.518  11.516   4.442  0.5563 -0.0417  0.5729
  848MOL0     C11869   7.944  11.502   4.948  0.8029  0.7768  0.9083
  848MOL0     C11870   7.812  11.482   4.996 -0.1980 -0.3489 -0.0292
  848MOL0     H11871   7.363  11.544   5.168 -0.4306 -0.2780 -2.1745
  848MOL0     H11872   7.146  11.466   5.274  0.3892  1.1292  0.8931
  848MOL0     H11873   7.077  11.042   5.379  0.6321  0.4875  2.2268
  848MOL0     H11874   7.092  11.094   5.211 -0.0756 -3.2740  0.9570
  848MOL0     H11875   6.848  11.201   5.240 -1.5654 -0.8180  1.3519
  848MOL0     H11876   6.831  11.124   5.381  0.3718  1.0794  0.4265
  848MOL0     H11877   6.906  10.991   5.099  2.0863 -1.6113  1.2507
  848MOL0     H11878   6.743  11.040   5.158  1.0552  0.6277  1.2545
  848MOL0     H11879   6.926  10.844   5.296 -0.2044 -0.0179  0.0335
  848MOL0     H11880   6.760  10.844   5.326  2.0509 -1.3413  0.9935
  848MOL0     H11881   6.881  10.742   5.055  0.5360  0.0774  0.4712
  848MOL0     H11882   6.718  10.773   5.078  0.8291 -4.3518 -1.5404
  848MOL0     H11883   6.742  10.612   5.282 -3.3017  1.8342 -1.6438
  848MOL0     H11884   6.887  10.570   5.187 -0.5682 -2.4329  0.5599
  848MOL0     H11885   6.607  10.534   5.109 -1.0566 -0.6335 -1.7663
  848MOL0     H11886   6.745  10.554   4.979 -0.1622 -3.9890 -0.7043
  848MOL0     H11887   6.864  10.394   5.096 -0.0632  4.1610  2.3075
  848MOL0     H11888   6.720  10.334   5.001  1.1345 -1.0597 -0.5581
  848MOL0     H11889   6.477  10.334   5.154 -2.4743  2.0423  2.2888
  848MOL0     H11890   6.333  10.215   5.351  0.0735 -2.1839  0.9918
  848MOL0     H11891   6.395  10.328   5.474 -1.5888 -1.7938  0.5213
  848MOL0     H11892   6.311  10.112   5.567 -1.4174  0.4254 -0.6056
  848MOL0     H11893   6.477  10.140   5.603  0.5593  1.5943 -1.5108
  848MOL0     H11894   6.570   9.991   5.448  0.3553  0.0025  0.0107
  848MOL0     H11895   6.439   9.900   5.533 -2.1981  0.1899  0.0297
  848MOL0     H11896   6.406   9.827   5.310 -1.4319  0.5117 -2.9630
  848MOL0     H11897   6.425   9.981   5.231 -1.9508 -0.0447 -0.5910
  848MOL0     H11898   6.292   9.864   5.085 -0.1204  0.2169  0.4354
  848MOL0     H11899   6.111   9.816   4.916  0.8951 -1.9725  0.7239
  848MOL0     H11900   5.732  10.040   4.718 -0.5642  0.8982  2.1859
  848MOL0     H11901   5.617   9.960   4.522  2.2559  2.8716  1.9498
  848MOL0     H11902   5.227   9.842   4.633 -0.0295  0.7885 -0.9251
  848MOL0     H11903   5.253   9.677   4.583  3.8351 -1.3739 -1.4066
  848MOL0     H11904   5.118   9.751   4.392  3.4192 -2.4994 -2.8696
  848MOL0     H11905   5.266   9.824   4.338 -0.4951  1.1276 -0.8779
  848MOL0     H11906   5.235  10.028   4.466 -1.4094  1.6622 -3.6508
  848MOL0     H11907   5.070   9.978   4.511 -0.5325 -0.0049 -0.4888
  848MOL0     H11908   5.048  10.139   4.345 -2.6612 -0.8738 -1.7292
  848MOL0     H11909   5.182  10.061   4.246 -0.0303  0.6387 -0.0336
  848MOL0     H11910   4.930   9.920   4.307 -1.2904 -1.3831 -1.9247
  848MOL0     H11911   5.048   9.866   4.195 -0.7136  0.3842 -3.2739
  848MOL0     H11912   4.865   9.959   4.077  1.2906 -0.1299 -1.4008
  848MOL0     H11913   5.000  10.070   4.044  2.1664 -2.1304  1.0178
  848MOL0     H11914   4.784  10.114   4.248  2.3930 -0.4329  1.1865
  848MOL0     H11915   4.903  10.241   4.198  1.2704  1.1607 -2.0586
  848MOL0     H11916   4.670  10.247   4.074 -0.8849 -2.4670  3.7193
  848MOL0     H11917   4.715  10.091   4.007 -2.6976  0.2281  1.2021
  848MOL0     H11918   5.386   9.701   4.797  2.0698 -2.5229 -2.6606
  848MOL0     H11919   5.529   9.766   4.961  0.4456  3.4877  1.5673
  848MOL0     H11920   5.829   9.949   5.226  0.6949  2.8766  0.0429
  848MOL0     H11921   6.008   9.957   5.380 -3.4820 -3.2375 -0.0068
  848MOL0     H11922   7.298  11.075   5.315  3.9666 -2.1256 -1.9488
  848MOL0     H11923   7.522  11.154   5.213  1.7245  1.5038 -1.5744
  848MOL0     H11924   7.738  11.199   4.815  0.0545 -1.0274  2.2220
  848MOL0     H11925   7.981  11.250   4.734 -0.4890  1.6973 -0.9192
  848MOL0     H11926   8.338  11.451   4.870 -0.0453 -1.7292 -1.5938
  848MOL0     H11927   8.217  11.501   4.985 -2.2820 -1.9934  0.3464
  848MOL0     H11928   8.146  11.681   4.832 -0.8653  0.9309 -2.9089
  848MOL0     H11929   8.319  11.702   4.866 -1.2632 -0.7213  1.5729
  848MOL0     H11930   8.217  11.669   4.591 -1.2316  1.3565  1.7856
  848MOL0     H11931   8.270  11.517   4.639  0.7058  0.0987 -0.7603
  848MOL0     H11932   8.432  11.770   4.631  5.0703 -0.5334 -0.4127
  848MOL0     H11933   8.484  11.630   4.730 -0.2244 -2.8586 -0.1985
  848MOL0     H11934   8.551  11.444   4.369  1.1113  0.6862  0.0937
  848MOL0     H11935   7.992  11.593   4.982  2.2331  0.1560  0.5988
  848MOL0     H11936   7.771  11.549   5.071  0.5990  0.0104  0.1088
  849MOL0     O11937   5.662   0.425   5.966 -0.2790 -0.0305  0.0140
  849MOL0     C11938   5.593   0.428   5.863 -1.2550 -0.4711 -0.2164
  849MOL0     O11939   5.499   0.522   5.847 -0.9412 -1.5039 -0.8265
  849MOL0     C11940   5.493   0.637   5.920 -0.0313 -0.2279 -0.2992
  849MOL0     C11941   5.510   0.753   5.852  0.3145 -0.3962 -0.3148
  849MOL0     C11942   5.527   0.877   5.924  0.1132  0.5378  0.5033
  849MOL0     C11943   5.516   0.873   6.065  0.1786 -0.0663 -0.3957
  849MOL0     O11944   5.518   0.995   6.131 -0.3012 -0.1813 -0.1158
  849MOL0     C11945   5.626   1.079   6.108  0.3994 -0.1208  0.5818
  849MOL0     C11946   5.760   1.009   6.079 -0.3878 -0.3848 -0.4967
  849MOL0     C11947   5.884   1.105   6.080  0.2678  0.2469  0.8864
  849MOL0     C11948   6.006   1.047   6.016 -0.4496 -0.2912  0.0284
  849MOL0     C11949   6.133   1.132   6.005 -0.1022 -0.4551  0.3280
  849MOL0     C11950   6.241   1.035   5.975 -0.2780  0.2994 -0.0746
  849MOL0     C11951   6.386   1.104   5.971  0.6169 -0.1545  0.1044
  849MOL0     C11952   6.480   0.992   5.931  0.3302 -0.0807  0.0965
  849MOL0     N11953   6.610   1.056   5.886  0.8444 -0.3040 -0.0248
  849MOL0     C11954   6.721   1.053   5.962  0.9239  0.8515 -0.5296
  849MOL0     C11955   6.824   1.069   5.883 -0.0561 -0.2702  0.6549
  849MOL0     C11956   6.972   1.072   5.915 -0.3502  0.5612  0.9962
  849MOL0     C11957   7.041   0.936   5.873 -0.1743 -0.0701 -1.3920
  849MOL0     C11958   7.183   0.925   5.926 -0.3156  0.4322 -0.0287
  849MOL0     C11959   7.277   1.037   5.892  0.0701  0.5833 -0.3132
  849MOL0     O11960   7.402   1.019   5.950  0.7530  0.0541  0.0661
  849MOL0     C11961   7.491   1.128   5.932  0.6118  0.9966  0.1337
  849MOL0     C11962   7.476   1.254   5.860  0.5715  0.5707  0.2600
  849MOL0     C11963   7.574   1.353   5.867  0.0388 -0.0603 -0.0215
  849MOL0     C11964   7.697   1.324   5.936 -0.7752  0.5262  0.4236
  849MOL0     C11965   7.808   1.423   5.952 -0.4921 -0.3148 -0.2063
  849MOL0     O11966   7.922   1.381   6.013  0.5104 -1.1931 -0.2761
  849MOL0     C11967   8.020   1.470   6.050  0.0211 -1.0191  0.0978
  849MOL0     C11968   8.112   1.410   6.138 -0.3265  1.0199 -0.0884
  849MOL0     C11969   8.227   1.479   6.168 -0.2446  0.0504 -1.1405
  849MOL0     C11970   8.260   1.605   6.112  0.9954 -0.0595 -0.1909
  849MOL0     O11971   8.375   1.664   6.150  0.8888 -0.0458  0.5936
  849MOL0     C11972   8.457   1.718   6.045 -0.0758 -0.4947 -1.4555
  849MOL0     C11973   8.608   1.722   6.078 -0.0608 -0.4353  0.0522
  849MOL0     C11974   8.672   1.580   6.077 -0.0713 -0.6794 -0.0729
  849MOL0     C11975   8.654   1.487   6.200 -0.5708  0.0388  0.1329
  849MOL0     C11976   8.739   1.353   6.188 -0.4069  0.0782  0.4133
  849MOL0     C11977   8.749   1.265   6.320 -0.3408  0.0755  0.3232
  849MOL0     C11978   8.755   1.116   6.285 -0.7835  0.9349  1.6059
  849MOL0     C11979   8.772   1.030   6.398 -0.0385  1.1033  0.2768
  849MOL0    Cl11980   8.621   1.016   6.495  0.2678 -0.2884  0.0755
  849MOL0     C11981   8.172   1.660   6.023 -0.0454 -0.6716 -0.1283
  849MOL0     C11982   8.056   1.597   5.991 -0.0899 -0.1638 -0.3631
  849MOL0     O11983   7.772   1.542   5.924  0.3864  0.0968 -0.2693
  849MOL0     C11984   7.720   1.190   5.988 -1.1558  0.1401 -0.0088
  849MOL0     C11985   7.619   1.102   5.993  0.5766  0.5331 -0.2285
  849MOL0     N11986   6.774   1.045   5.756 -0.1829  0.1939 -0.2640
  849MOL0     N11987   6.652   1.036   5.759  0.7879  0.2890 -0.2962
  849MOL0     C11988   5.497   0.755   6.134 -0.0802  0.2705 -0.6449
  849MOL0     C11989   5.485   0.637   6.056  0.4101  0.2056 -0.9367
  849MOL0     C11990   5.616   0.330   5.751  0.5714 -1.0313 -0.3902
  849MOL0     C11991   5.547   0.333   5.629  0.3779  0.2917  0.2616
  849MOL0     C11992   5.575   0.228   5.534 -0.0815  0.2893  0.1089
  849MOL0     C11993   5.661   0.117   5.557 -0.6727  0.4247 -0.0902
  849MOL0     O11994   5.695   0.010   5.469  0.5237 -0.0963 -0.4305
  849MOL0     C11995   5.592  -0.030   5.381 -0.0238 -0.7500 -0.2867
  849MOL0     C11996   5.627   0.034   5.247 -1.1835 -0.2767 -0.0607
  849MOL0     C11997   5.775  -0.002   5.203 -0.4239 -0.2811 -0.0298
  849MOL0     C11998   5.805   0.072   5.070  0.0097 -0.2902 -0.8996
  849MOL0     C11999   5.847   0.214   5.080  0.4919  0.1317  0.2694
  849MOL0     C12000   5.883   0.323   5.121  0.2707 -0.0500 -0.0215
  849MOL0     C12001   5.730   0.122   5.681  0.9070 -0.3150 -0.1474
  849MOL0     C12002   5.715   0.228   5.769  0.2031  0.2597 -0.5388
  849MOL0     H12003   5.514   0.740   5.745 -0.8800 -0.6107 -0.3452
  849MOL0     H12004   5.542   0.974   5.878  0.9110  1.5191  2.6495
  849MOL0     H12005   5.642   1.144   6.194 -4.4594  4.2285 -1.2346
  849MOL0     H12006   5.600   1.150   6.029 -2.0382  0.2748  1.6482
  849MOL0     H12007   5.764   0.968   5.977  0.1635 -0.0395 -0.6153
  849MOL0     H12008   5.770   0.926   6.150 -0.5214  0.2995  0.3329
  849MOL0     H12009   5.904   1.133   6.183  0.4320 -2.0009  1.5012
  849MOL0     H12010   5.851   1.188   6.016  0.6664 -0.5457 -0.3942
  849MOL0     H12011   6.029   0.960   6.078 -3.0416 -0.8922  0.2366
  849MOL0     H12012   5.978   1.000   5.921 -3.2627 -0.4829  0.8691
  849MOL0     H12013   6.153   1.183   6.100 -2.3700  0.3115  0.4412
  849MOL0     H12014   6.131   1.198   5.918 -0.2114 -0.5683  0.2462
  849MOL0     H12015   6.216   0.970   5.891  0.6445  0.9341 -0.8547
  849MOL0     H12016   6.243   0.969   6.063  0.0452 -0.7918 -0.8915
  849MOL0     H12017   6.391   1.180   5.893 -1.7462  1.9512  1.8536
  849MOL0     H12018   6.398   1.159   6.065  1.0474  2.4128 -1.3769
  849MOL0     H12019   6.449   0.932   5.846 -0.4174  0.8371 -0.3037
  849MOL0     H12020   6.486   0.918   6.012 -0.6988 -2.2883 -1.7426
  849MOL0     H12021   6.714   1.046   6.070 -3.1369 -0.3448 -0.7384
  849MOL0     H12022   6.989   1.093   6.021  3.0857 -0.8155  0.8385
  849MOL0     H12023   7.011   1.158   5.859 -3.4828  3.3021  2.6493
  849MOL0     H12024   7.047   0.926   5.764  1.4535 -2.0200 -1.1772
  849MOL0     H12025   6.979   0.859   5.920 -0.5676  0.9207 -0.2339
  849MOL0     H12026   7.189   0.925   6.035  0.9285  3.1741  0.0054
  849MOL0     H12027   7.220   0.837   5.872  0.6244  1.6872 -1.5326
  849MOL0     H12028   7.233   1.130   5.931 -0.1549  1.6199 -2.8556
  849MOL0     H12029   7.280   1.046   5.783  0.8150  0.4287 -0.3099
  849MOL0     H12030   7.385   1.280   5.806  1.0609  0.6760 -0.5345
  849MOL0     H12031   7.566   1.455   5.831 -2.6719 -0.9421 -2.3129
  849MOL0     H12032   8.082   1.315   6.183 -0.8562  1.3448  0.2480
  849MOL0     H12033   8.311   1.434   6.221 -2.1477 -3.1156 -0.5474
  849MOL0     H12034   8.426   1.823   6.031  0.8548  0.1545  0.8621
  849MOL0     H12035   8.435   1.661   5.954 -0.1560 -0.2366 -1.5994
  849MOL0     H12036   8.611   1.787   6.166 -0.6888  0.0305 -0.2529
  849MOL0     H12037   8.655   1.771   5.992  1.5119  0.1526  1.2137
  849MOL0     H12038   8.780   1.590   6.060 -0.2110 -3.5172 -3.7916
  849MOL0     H12039   8.633   1.533   5.987  0.2200  1.7498 -1.5735
  849MOL0     H12040   8.698   1.536   6.287 -0.1823 -1.7747  1.0027
  849MOL0     H12041   8.549   1.456   6.210 -0.1892 -0.8553  1.7162
  849MOL0     H12042   8.844   1.378   6.169  0.6306 -3.7693  0.1536
  849MOL0     H12043   8.708   1.283   6.110 -1.7277  1.0628  0.0305
  849MOL0     H12044   8.662   1.272   6.386  0.0407 -1.4598  1.0398
  849MOL0     H12045   8.838   1.295   6.375 -0.2700 -1.5229  1.1349
  849MOL0     H12046   8.670   1.081   6.227 -0.7339  0.2856  1.9236
  849MOL0     H12047   8.845   1.109   6.222 -0.7382  2.5808  1.4269
  849MOL0     H12048   8.854   1.052   6.467  0.8601 -3.8785  1.1840
  849MOL0     H12049   8.784   0.932   6.352 -1.7980  0.7710  0.4574
  849MOL0     H12050   8.197   1.754   5.974 -3.0589 -0.3917 -1.2980
  849MOL0     H12051   7.979   1.642   5.929 -1.1694  0.7892  1.5870
  849MOL0     H12052   7.804   1.155   6.046 -0.8336  2.0231  0.7195
  849MOL0     H12053   7.629   1.003   6.037  2.5450  0.3952 -0.9012
  849MOL0     H12054   5.502   0.768   6.242  0.1060  0.6174 -0.6926
  849MOL0     H12055   5.467   0.539   6.100  1.5588 -0.1388 -1.2070
  849MOL0     H12056   5.464   0.398   5.602 -0.8691 -0.2074  2.6665
  849MOL0     H12057   5.514   0.243   5.446  0.5109 -1.2655 -0.6062
  849MOL0     H12058   5.488  -0.009   5.410  0.2263  0.8366 -0.4665
  849MOL0     H12059   5.585  -0.139   5.378 -2.4066 -0.6791  0.2069
  849MOL0     H12060   5.561   0.004   5.166 -0.6099 -0.3843 -0.4987
  849MOL0     H12061   5.615   0.143   5.253  0.5540 -0.0608  0.1166
  849MOL0     H12062   5.771  -0.111   5.188  0.9490 -0.3107 -0.2573
  849MOL0     H12063   5.856   0.015   5.274  0.5573  0.1417 -1.2096
  849MOL0     H12064   5.889   0.014   5.030  0.7063 -0.3612  0.6097
  849MOL0     H12065   5.715   0.050   5.011 -0.3571  2.6608 -1.6037
  849MOL0     H12066   5.919   0.418   5.156  0.5055  0.0521 -0.5262
  849MOL0     H12067   5.804   0.047   5.708 -0.1953 -0.4930  2.7666
  849MOL0     H12068   5.775   0.215   5.859 -0.7695 -0.4687  0.0280
  850MOL0     O12069   7.546  10.166   6.147 -0.2039 -0.2348 -0.5203
  850MOL0     C12070   7.620  10.079   6.194 -0.0985  0.3086 -0.4506
  850MOL0     O12071   7.637  10.054   6.327  0.5084  0.4106 -0.6483
  850MOL0     C12072   7.563  10.117   6.428  0.7208 -0.1440  0.0494
  850MOL0     C12073   7.424  10.095   6.437  0.0681  0.6905 -0.1176
  850MOL0     C12074   7.356  10.138   6.548  1.2103  0.5129  0.5147
  850MOL0     C12075   7.425  10.219   6.646  0.2581 -0.5209 -0.4752
  850MOL0     O12076   7.333  10.276   6.734  0.0056  0.0270 -0.3780
  850MOL0     C12077   7.371  10.272   6.869 -0.2102  0.3176 -0.1797
  850MOL0     C12078   7.243  10.253   6.953  0.3994  0.5348  0.4624
  850MOL0     C12079   7.150  10.371   6.930 -0.6458  0.7944 -0.2899
  850MOL0     C12080   7.027  10.351   7.031 -0.0482 -0.3840 -0.4473
  850MOL0     C12081   7.059  10.409   7.180  0.0930 -0.0122  0.3807
  850MOL0     C12082   6.934  10.433   7.260 -0.3438  0.3255  0.2469
  850MOL0     C12083   6.970  10.470   7.404  0.3500 -0.6445  0.0376
  850MOL0     C12084   6.971  10.625   7.444 -0.5161 -0.1427 -0.1949
  850MOL0     N12085   7.022  10.718   7.343 -0.3512  0.8446 -1.0527
  850MOL0     C12086   7.148  10.740   7.317  0.9805  0.9875  0.8218
  850MOL0     C12087   7.156  10.828   7.221  0.4242  0.1802  0.1911
  850MOL0     C12088   7.294  10.870   7.165  0.4127 -0.1775 -0.7569
  850MOL0     C12089   7.364  10.759   7.094 -0.4237  0.6507  0.1243
  850MOL0     C12090   7.509  10.816   7.055 -0.5920  1.0843 -0.6270
  850MOL0     C12091   7.584  10.737   6.955  0.2458  0.4615 -0.2201
  850MOL0     O12092   7.586  10.594   6.993  0.4142  1.5399 -0.0484
  850MOL0     C12093   7.686  10.520   6.940 -0.3888 -0.1153 -1.5309
  850MOL0     C12094   7.764  10.555   6.829 -0.3102 -0.3320  0.9730
  850MOL0     C12095   7.872  10.474   6.792  0.0888  0.6161  0.4675
  850MOL0     C12096   7.895  10.352   6.853  0.0282  0.5472  0.3164
  850MOL0     C12097   8.012  10.263   6.809 -0.3825 -0.2504 -0.0300
  850MOL0     O12098   8.101  10.323   6.716  0.0558 -0.4393 -0.1160
  850MOL0     C12099   8.182  10.236   6.643 -0.2771  0.1764  0.1806
  850MOL0     C12100   8.161  10.100   6.598  0.4251 -0.7062  0.8626
  850MOL0     C12101   8.265  10.022   6.550 -0.7329 -0.6353 -0.0330
  850MOL0     C12102   8.392  10.075   6.532  0.4344 -0.6759 -0.3380
  850MOL0     O12103   8.500  10.004   6.491  0.2574 -0.2361  0.1251
  850MOL0     C12104   8.497   9.858   6.498 -0.2168 -0.1785 -0.0159
  850MOL0     C12105   8.631   9.793   6.457  1.1878  0.6581  0.1654
  850MOL0     C12106   8.632   9.755   6.307 -1.0321 -0.2058  0.2583
  850MOL0     C12107   8.665   9.877   6.216  0.1311 -0.2603 -0.3735
  850MOL0     C12108   8.758   9.831   6.102 -0.8177 -0.7773  0.8168
  850MOL0     C12109   8.815   9.953   6.016 -0.4715  0.3089 -0.7649
  850MOL0     C12110   8.906   9.889   5.907  0.1909 -0.4249 -0.1184
  850MOL0     C12111   8.927   9.992   5.800 -0.6177  0.0878 -0.7010
  850MOL0    Cl12112   9.047   9.939   5.680 -0.6270 -0.7548 -0.6331
  850MOL0     C12113   8.414  10.208   6.555 -0.1033 -0.7543  0.2586
  850MOL0     C12114   8.311  10.291   6.610 -0.3307  1.1105  0.2532
  850MOL0     O12115   8.032  10.155   6.865 -0.8160 -0.2129  0.3982
  850MOL0     C12116   7.811  10.306   6.957  0.4871 -1.3125  0.1628
  850MOL0     C12117   7.716  10.398   7.006  0.6766 -0.3727  0.1785
  850MOL0     N12118   7.030  10.855   7.177  0.7196 -0.3881 -0.2301
  850MOL0     N12119   6.952  10.782   7.250  0.3404 -0.7257 -0.2431
  850MOL0     C12120   7.558  10.247   6.645 -0.2037 -1.2196  0.3364
  850MOL0     C12121   7.628  10.195   6.535  0.7116 -0.2314  0.1413
  850MOL0     C12122   7.683   9.989   6.100 -0.4924 -0.2483 -0.0765
  850MOL0     C12123   7.750   9.881   6.157  0.4531 -0.2883  0.1636
  850MOL0     C12124   7.813   9.788   6.074 -0.0280  0.3791  0.1101
  850MOL0     C12125   7.808   9.807   5.938 -0.7901 -0.4730 -0.1743
  850MOL0     O12126   7.893   9.721   5.873  0.3244  1.0139  0.2051
  850MOL0     C12127   7.889   9.718   5.729 -0.0164  0.1023  0.3877
  850MOL0     C12128   7.975   9.614   5.655  0.0393  0.7524 -0.6112
  850MOL0     C12129   7.957   9.479   5.724 -0.6785 -0.0809  0.2804
  850MOL0     C12130   8.016   9.362   5.649 -0.0293  0.7408 -0.3191
  850MOL0     C12131   7.968   9.351   5.506 -0.2688 -0.6055  0.6056
  850MOL0     C12132   7.934   9.329   5.390  0.5103  0.0881  0.2667
  850MOL0     C12133   7.742   9.915   5.878 -0.3168  0.2164 -0.6913
  850MOL0     C12134   7.675  10.002   5.957  0.8864  0.7742 -1.2259
  850MOL0     H12135   7.381  10.039   6.355  1.1768  2.8453 -2.3077
  850MOL0     H12136   7.251  10.139   6.574  1.0347  1.2645 -0.1673
  850MOL0     H12137   7.440  10.353   6.896 -1.6279  1.1830  1.0033
  850MOL0     H12138   7.424  10.180   6.895  1.9158  2.0161  1.9191
  850MOL0     H12139   7.264  10.251   7.060  0.2244 -1.1711  0.4791
  850MOL0     H12140   7.200  10.168   6.900 -0.6876 -0.4378  2.7712
  850MOL0     H12141   7.118  10.372   6.825 -0.5239 -2.6988 -0.4633
  850MOL0     H12142   7.220  10.454   6.943  1.6689 -0.6238 -2.6427
  850MOL0     H12143   6.936  10.391   6.986 -0.2955 -1.9162 -1.3434
  850MOL0     H12144   6.988  10.250   7.038 -1.7980  0.3812  2.8932
  850MOL0     H12145   7.100  10.510   7.167  2.3047 -1.1601 -2.9994
  850MOL0     H12146   7.119  10.341   7.241 -2.2121  0.5203  3.4919
  850MOL0     H12147   6.878  10.339   7.254  0.1783  0.0992 -4.1356
  850MOL0     H12148   6.874  10.510   7.213  2.0410  2.0608 -0.1409
  850MOL0     H12149   6.902  10.426   7.477  0.8204 -1.5412 -0.0560
  850MOL0     H12150   7.071  10.434   7.427  0.3679  0.0721  1.1921
  850MOL0     H12151   7.023  10.643   7.539  0.3917  0.0484 -0.7217
  850MOL0     H12152   6.864  10.646   7.454 -0.6915 -0.7152 -0.8040
  850MOL0     H12153   7.231  10.697   7.373 -1.1525 -1.8243  2.0928
  850MOL0     H12154   7.355  10.916   7.243 -2.1018  3.3776 -0.6442
  850MOL0     H12155   7.266  10.957   7.105  1.3348  1.7242  1.4102
  850MOL0     H12156   7.307  10.721   7.009 -2.3621 -1.3623  2.1671
  850MOL0     H12157   7.374  10.678   7.167 -1.1025  2.7071  2.6383
  850MOL0     H12158   7.489  10.918   7.020  2.5884  2.0666  0.0091
  850MOL0     H12159   7.575  10.820   7.143 -0.0528  0.2243 -0.9743
  850MOL0     H12160   7.683  10.782   6.960  0.9170 -0.5135 -3.0125
  850MOL0     H12161   7.542  10.749   6.855  0.3681 -0.0486 -0.3343
  850MOL0     H12162   7.752  10.656   6.789  3.0657 -1.2235 -2.8518
  850MOL0     H12163   7.945  10.492   6.714 -2.1492 -1.4044 -2.3052
  850MOL0     H12164   8.069  10.043   6.599  1.2358 -2.0567  2.4549
  850MOL0     H12165   8.252   9.918   6.521  2.7243 -0.6835 -1.8876
  850MOL0     H12166   8.413   9.823   6.438  0.4729  1.6711 -2.2279
  850MOL0     H12167   8.497   9.831   6.604 -1.5710  0.1299  0.0787
  850MOL0     H12168   8.632   9.696   6.507  0.5630 -0.6046 -2.0870
  850MOL0     H12169   8.716   9.854   6.487  2.1624  0.6538 -2.3537
  850MOL0     H12170   8.535   9.727   6.267 -0.2100 -2.8308 -0.0515
  850MOL0     H12171   8.708   9.678   6.289 -0.3781 -0.3809  3.1803
  850MOL0     H12172   8.578   9.931   6.176  2.0113  1.5076 -2.3290
  850MOL0     H12173   8.719   9.946   6.281 -0.2102 -3.1566  3.3590
  850MOL0     H12174   8.698   9.775   6.030  0.0224 -0.0193 -0.5139
  850MOL0     H12175   8.839   9.769   6.141 -0.5476  0.4352  2.2831
  850MOL0     H12176   8.876  10.019   6.079  1.6666  0.6493 -3.0435
  850MOL0     H12177   8.731  10.008   5.973 -0.2458  2.8809  1.7801
  850MOL0     H12178   8.998   9.863   5.961  0.0090 -0.3701  0.2226
  850MOL0     H12179   8.858   9.803   5.860  1.0220 -2.1537  1.9774
  850MOL0     H12180   8.967  10.086   5.841 -0.1028 -0.2980 -0.3029
  850MOL0     H12181   8.829  10.004   5.753 -2.4923 -1.0941  2.5897
  850MOL0     H12182   8.511  10.250   6.530 -0.6058  0.5610  0.4533
  850MOL0     H12183   8.331  10.392   6.647  3.0379 -0.3066  2.8306
  850MOL0     H12184   7.837  10.221   7.019 -0.2966  0.1945  2.6689
  850MOL0     H12185   7.665  10.372   7.098 -0.6958 -0.8874 -0.6888
  850MOL0     H12186   7.609  10.308   6.719  2.2033 -2.8488  0.1562
  850MOL0     H12187   7.735  10.210   6.529  0.4060  1.7781 -1.1372
  850MOL0     H12188   7.769   9.881   6.264  0.8487  0.7140  0.1059
  850MOL0     H12189   7.868   9.718   6.135 -0.0661 -0.0140 -0.3065
  850MOL0     H12190   7.912   9.817   5.690 -0.0489 -1.0033 -2.7230
  850MOL0     H12191   7.788   9.693   5.696  1.2844 -3.2275 -1.5873
  850MOL0     H12192   7.954   9.612   5.547  2.0392 -1.2545 -1.0206
  850MOL0     H12193   8.082   9.633   5.653  0.5364 -1.7131 -1.8550
  850MOL0     H12194   7.848   9.469   5.731 -0.7300 -0.4326 -0.8677
  850MOL0     H12195   8.002   9.488   5.823 -2.1983  4.6444  0.8064
  850MOL0     H12196   8.125   9.371   5.651 -0.0640  1.6104  2.4409
  850MOL0     H12197   7.973   9.274   5.699  2.2703  2.2894  5.1212
  850MOL0     H12198   7.897   9.312   5.291 -1.4583 -0.8222  1.0857
  850MOL0     H12199   7.736   9.928   5.770  1.2880 -3.1446 -1.3231
  850MOL0     H12200   7.619  10.082   5.910  1.2341  1.2758 -0.7810
  851MOL0     O12201   9.997   6.376   3.085 -0.3951 -1.3509 -0.2386
  851MOL0     C12202   9.928   6.309   3.009  0.6359  0.2324  0.3503
  851MOL0     O12203   9.955   6.188   2.963  0.8213 -0.0058  0.0318
  851MOL0     C12204  10.062   6.113   3.014 -0.0370  0.1671 -0.0474
  851MOL0     C12205  10.195   6.121   2.980  0.5670  0.5517 -0.9270
  851MOL0     C12206  10.296   6.037   3.032 -1.4858 -0.7506 -0.1160
  851MOL0     C12207  10.262   5.937   3.137 -0.5750 -0.8343 -0.0638
  851MOL0     O12208  10.354   5.858   3.200 -0.1278 -0.7263  0.2565
  851MOL0     C12209  10.495   5.883   3.182  0.2076  0.2308  0.6398
  851MOL0     C12210  10.590   5.795   3.269  0.8004 -0.2535  0.1929
  851MOL0     C12211  10.545   5.803   3.414 -0.3890 -0.0063  0.0364
  851MOL0     C12212  10.528   5.946   3.483  0.3908 -0.4540  0.9211
  851MOL0     C12213  10.656   6.028   3.477  0.2897 -0.4894  0.2336
  851MOL0     C12214  10.640   6.181   3.514  0.3543 -0.5574 -0.1032
  851MOL0     C12215  10.778   6.239   3.520 -0.6011 -0.3563 -0.8376
  851MOL0     C12216  10.774   6.371   3.601  0.8381 -0.2110 -0.7929
  851MOL0     N12217  10.762   6.357   3.750 -0.2957 -0.7992 -0.7319
  851MOL0     C12218  10.646   6.338   3.818  0.1849 -0.1591 -0.3336
  851MOL0     C12219  10.671   6.356   3.948 -0.4444  0.0373 -0.3823
  851MOL0     C12220  10.572   6.360   4.064 -0.4215  0.1326  0.1067
  851MOL0     C12221  10.562   6.502   4.116 -0.4925  1.0546 -0.2302
  851MOL0     C12222  10.438   6.541   4.180 -0.5821  0.4248 -0.5236
  851MOL0     C12223  10.427   6.688   4.215  0.3182 -0.2015  0.1170
  851MOL0     O12224  10.444   6.776   4.106  0.3834  0.3088 -0.3290
  851MOL0     C12225  10.354   6.765   4.003  0.1087  0.8502 -0.2692
  851MOL0     C12226  10.377   6.851   3.902  0.0979  0.2338  0.2942
  851MOL0     C12227  10.306   6.850   3.781  0.2515  0.0911 -0.2469
  851MOL0     C12228  10.191   6.764   3.760 -0.4721  0.0356 -0.1856
  851MOL0     C12229  10.099   6.767   3.634 -0.9685 -0.3937  0.6886
  851MOL0     O12230  10.145   6.860   3.543  0.5647 -0.1990  0.6354
  851MOL0     C12231  10.088   6.882   3.421  0.2165 -1.3680 -0.2395
  851MOL0     C12232  10.080   7.020   3.388  0.2144 -0.7472  0.0694
  851MOL0     C12233  10.022   7.062   3.265 -0.5974  0.3369  0.4539
  851MOL0     C12234   9.953   6.964   3.194 -0.8172  0.2161  0.2674
  851MOL0     O12235   9.889   7.010   3.081 -0.0954  0.3382 -0.4657
  851MOL0     C12236   9.850   6.908   2.976 -0.6915 -0.6914 -0.3412
  851MOL0     C12237   9.707   6.923   2.945 -0.0463  0.3296 -0.0099
  851MOL0     C12238   9.683   7.062   2.893 -0.2607 -0.0758 -0.5163
  851MOL0     C12239   9.541   7.070   2.812 -0.6008 -0.1511 -0.1860
  851MOL0     C12240   9.418   7.108   2.902 -0.1573 -0.0404 -0.8795
  851MOL0     C12241   9.279   7.037   2.866 -1.0457 -0.3091 -0.1725
  851MOL0     C12242   9.285   6.888   2.896 -0.2375 -1.0105  0.7965
  851MOL0     C12243   9.160   6.825   2.842  0.5946 -0.4921 -0.3362
  851MOL0    Cl12244   9.017   6.874   2.956 -0.7620  0.1022 -0.3400
  851MOL0     C12245   9.952   6.828   3.238 -0.5955  0.1555  0.4866
  851MOL0     C12246  10.024   6.792   3.346 -0.9511  0.0326 -0.0251
  851MOL0     O12247   9.997   6.694   3.615  0.1260 -0.5782  0.6064
  851MOL0     C12248  10.162   6.688   3.881  0.6453  0.4364  0.8245
  851MOL0     C12249  10.234   6.693   3.998  0.2244  0.0146 -0.1463
  851MOL0     N12250  10.806   6.375   3.962 -1.1909 -0.7885 -0.4803
  851MOL0     N12251  10.859   6.366   3.849  0.4952  0.1292  1.1936
  851MOL0     C12252  10.135   5.933   3.180  1.1853 -0.5223  0.1342
  851MOL0     C12253  10.034   6.009   3.117 -0.8678 -0.1502  0.0306
  851MOL0     C12254   9.800   6.374   2.949 -0.9193  0.5589 -0.2416
  851MOL0     C12255   9.745   6.485   3.005  0.0285  0.8919  0.4087
  851MOL0     C12256   9.640   6.549   2.941  0.0411 -0.1428  0.0952
  851MOL0     C12257   9.586   6.506   2.815 -0.4132  0.4137 -0.1806
  851MOL0     O12258   9.487   6.575   2.751  0.9652  0.1755 -1.0475
  851MOL0     C12259   9.442   6.530   2.628 -0.1452 -0.2659  0.0884
  851MOL0     C12260   9.360   6.627   2.544  1.3995 -0.1035 -0.3632
  851MOL0     C12261   9.453   6.740   2.494  0.5358  0.8617 -0.7691
  851MOL0     C12262   9.381   6.848   2.424 -0.3134  0.6441 -1.1200
  851MOL0     C12263   9.332   6.822   2.299 -0.0083 -0.2600  0.3388
  851MOL0     C12264   9.297   6.818   2.185 -0.0241 -0.8147  0.1868
  851MOL0     C12265   9.641   6.379   2.766 -0.1475  0.5400  0.2085
  851MOL0     C12266   9.745   6.319   2.832 -0.1715 -0.5339  0.8839
  851MOL0     H12267  10.238   6.202   2.923  2.4387  1.7535  1.9591
  851MOL0     H12268  10.399   6.041   2.996 -0.2142  1.3680  3.3134
  851MOL0     H12269  10.509   5.989   3.203 -1.5018  0.9867 -1.6064
  851MOL0     H12270  10.520   5.864   3.077 -0.4250  0.8507  0.3749
  851MOL0     H12271  10.693   5.831   3.260  0.4752  0.1105 -3.4298
  851MOL0     H12272  10.587   5.691   3.234  0.2623  0.7554 -3.0117
  851MOL0     H12273  10.621   5.760   3.480  0.9005  3.9432  1.4733
  851MOL0     H12274  10.451   5.748   3.418  0.2555 -1.1776 -0.4560
  851MOL0     H12275  10.438   5.991   3.441  1.2107  1.5083  1.1347
  851MOL0     H12276  10.501   5.930   3.588  1.2285 -0.3628  1.1616
  851MOL0     H12277  10.700   6.048   3.379  0.5140  2.0822  0.7898
  851MOL0     H12278  10.727   5.983   3.547 -1.1562 -1.7525  0.9424
  851MOL0     H12279  10.584   6.184   3.608  3.4166  2.8416  1.8539
  851MOL0     H12280  10.583   6.231   3.435 -2.7243 -1.7137  1.1941
  851MOL0     H12281  10.846   6.175   3.577 -0.7898  1.2976  1.3788
  851MOL0     H12282  10.824   6.262   3.423  0.1439 -0.1864 -0.4567
  851MOL0     H12283  10.700   6.442   3.565 -0.8259 -1.6631 -0.3844
  851MOL0     H12284  10.870   6.418   3.579  2.5578 -2.7848  0.5418
  851MOL0     H12285  10.548   6.329   3.773  0.5149  1.3059 -1.4285
  851MOL0     H12286  10.608   6.286   4.137  3.6099 -1.3539 -3.0183
  851MOL0     H12287  10.475   6.324   4.028 -0.7232 -0.2979  1.2839
  851MOL0     H12288  10.582   6.566   4.030  1.6572  2.5106  1.2567
  851MOL0     H12289  10.646   6.527   4.181 -2.3416  1.2957  2.2258
  851MOL0     H12290  10.348   6.510   4.125 -1.7940  2.7956 -0.0166
  851MOL0     H12291  10.430   6.483   4.273 -3.6014  0.1230 -0.8745
  851MOL0     H12292  10.507   6.711   4.285 -1.3592 -1.3511  2.5590
  851MOL0     H12293  10.332   6.701   4.269  0.3739 -0.3930  0.2603
  851MOL0     H12294  10.471   6.903   3.915  2.6941 -3.9592  0.2650
  851MOL0     H12295  10.349   6.913   3.704  0.0597 -1.2645 -1.5208
  851MOL0     H12296  10.137   7.090   3.448  2.5647 -0.2393 -2.5358
  851MOL0     H12297  10.020   7.168   3.242 -1.1465 -0.2391 -2.5167
  851MOL0     H12298   9.865   6.808   3.016  1.0951  0.0203  0.9095
  851MOL0     H12299   9.918   6.909   2.890  0.1985  3.3444  0.1867
  851MOL0     H12300   9.640   6.891   3.026 -0.8240  0.1000 -0.7306
  851MOL0     H12301   9.682   6.853   2.865 -1.1364 -0.1042  0.6818
  851MOL0     H12302   9.763   7.084   2.822  0.2831 -0.5223 -0.0463
  851MOL0     H12303   9.680   7.135   2.975 -1.1222  0.7022 -1.2105
  851MOL0     H12304   9.550   7.154   2.741  2.2723  0.9791  1.3662
  851MOL0     H12305   9.541   6.978   2.753  4.0214 -0.3635 -0.1534
  851MOL0     H12306   9.393   7.213   2.889  1.7940  0.8836  1.9029
  851MOL0     H12307   9.449   7.093   3.006 -2.2709 -1.2651 -0.3638
  851MOL0     H12308   9.258   7.061   2.762 -1.0252 -1.5550 -0.4745
  851MOL0     H12309   9.205   7.086   2.930  0.3837  1.9724 -0.1209
  851MOL0     H12310   9.377   6.843   2.857  1.2881  2.8471 -0.4810
  851MOL0     H12311   9.294   6.880   3.005 -0.5948  1.1634  1.0294
  851MOL0     H12312   9.160   6.716   2.841  0.7198 -0.5253  1.0461
  851MOL0     H12313   9.157   6.849   2.736 -0.4285  0.7175 -0.0494
  851MOL0     H12314   9.887   6.749   3.205  0.5899 -1.1122  1.0940
  851MOL0     H12315  10.030   6.686   3.367  4.1472  0.4935  2.3778
  851MOL0     H12316  10.065   6.641   3.889  0.4675  0.1295 -2.0450
  851MOL0     H12317  10.188   6.641   4.082 -0.5941 -2.0743 -1.8136
  851MOL0     H12318  10.101   5.865   3.258 -0.2414 -1.7069 -1.4630
  851MOL0     H12319   9.930   6.003   3.147 -1.4147  0.7703 -1.5288
  851MOL0     H12320   9.791   6.504   3.101  0.0933 -0.2393  0.6111
  851MOL0     H12321   9.590   6.639   2.975  1.0061  0.6404 -0.5335
  851MOL0     H12322   9.377   6.442   2.641 -0.0064 -0.6301 -1.4499
  851MOL0     H12323   9.526   6.500   2.565 -1.0852 -1.5815 -0.5853
  851MOL0     H12324   9.322   6.561   2.465 -0.6009 -2.2181  2.1698
  851MOL0     H12325   9.277   6.656   2.610  2.2435 -0.0685  0.7124
  851MOL0     H12326   9.529   6.708   2.422 -0.0887 -3.5327  0.2657
  851MOL0     H12327   9.508   6.768   2.584  1.5170 -1.8691 -0.4236
  851MOL0     H12328   9.309   6.911   2.477  0.2696  0.8984 -0.6166
  851MOL0     H12329   9.459   6.923   2.413  0.6653  0.4212  2.8346
  851MOL0     H12330   9.276   6.826   2.081  0.3953  0.2366  0.1756
  851MOL0     H12331   9.596   6.340   2.676 -2.0701  3.9708 -0.5089
  851MOL0     H12332   9.778   6.227   2.786 -0.3785  0.5022 -1.4695
  852MOL0     O12333   5.230   9.744   1.363 -0.0229 -0.6564 -0.1462
  852MOL0     C12334   5.131   9.779   1.298  0.7676 -0.8449 -0.1531
  852MOL0     O12335   5.107   9.905   1.245 -0.7409 -0.7906  0.3073
  852MOL0     C12336   5.195  10.017   1.269 -0.1161  0.0160 -0.2621
  852MOL0     C12337   5.338  10.007   1.289 -0.2906 -0.2444 -0.5606
  852MOL0     C12338   5.413  10.124   1.319 -0.2599 -0.6729  1.3561
  852MOL0     C12339   5.349  10.244   1.304  0.7306 -0.3220  0.1092
  852MOL0     O12340   5.419  10.357   1.306 -0.6067 -0.3357  0.0025
  852MOL0     C12341   5.376  10.432   1.423  0.8598  0.0558  0.0562
  852MOL0     C12342   5.480  10.540   1.429  0.1373  0.7264 -0.5582
  852MOL0     C12343   5.485  10.616   1.569 -0.6520 -1.0075 -0.3382
  852MOL0     C12344   5.604  10.720   1.579  0.2145 -0.6045 -1.3715
  852MOL0     C12345   5.740  10.680   1.512 -1.0155 -0.5877 -0.4092
  852MOL0     C12346   5.805  10.556   1.578 -0.0850  0.4056 -0.0308
  852MOL0     C12347   5.823  10.577   1.729  0.4716 -0.0898  0.2557
  852MOL0     C12348   5.903  10.699   1.765 -0.0356  0.5888 -0.5250
  852MOL0     N12349   5.960  10.707   1.901 -1.6927 -0.1115  0.5651
  852MOL0     C12350   6.075  10.774   1.923 -0.8240 -0.0473  0.5245
  852MOL0     C12351   6.067  10.805   2.057  0.1794 -0.1648 -0.0997
  852MOL0     C12352   6.161  10.884   2.142  0.6383  0.5308 -0.9815
  852MOL0     C12353   6.274  10.798   2.193 -0.8648 -0.8273  0.9233
  852MOL0     C12354   6.249  10.679   2.272  0.4591  0.1711  0.1648
  852MOL0     C12355   6.165  10.704   2.401 -0.6215 -0.3410  0.0348
  852MOL0     O12356   6.234  10.809   2.475 -0.1245 -0.2755  0.3288
  852MOL0     C12357   6.353  10.774   2.536 -0.3866  0.4894  0.0827
  852MOL0     C12358   6.390  10.648   2.598  0.5540 -0.2174  0.1697
  852MOL0     C12359   6.521  10.638   2.655  0.7531  0.6751  1.2513
  852MOL0     C12360   6.607  10.748   2.659  0.3069 -0.1048  0.3581
  852MOL0     C12361   6.736  10.745   2.735  0.5230  0.2969  0.2632
  852MOL0     O12362   6.775  10.623   2.770  0.6890 -0.8471 -0.7831
  852MOL0     C12363   6.898  10.602   2.818  0.0782 -0.0216  0.1922
  852MOL0     C12364   7.009  10.673   2.794 -0.4602 -0.5860  0.1280
  852MOL0     C12365   7.128  10.634   2.863 -0.7522  0.0259  0.4438
  852MOL0     C12366   7.133  10.523   2.945 -0.2379  0.0760 -0.0150
  852MOL0     O12367   7.243  10.480   3.017  0.3878 -0.6747  0.0252
  852MOL0     C12368   7.366  10.478   2.944  0.5977  0.1097  0.3754
  852MOL0     C12369   7.457  10.359   3.002 -0.2521  0.2516 -0.4394
  852MOL0     C12370   7.603  10.391   2.959  0.1312 -0.3357  1.5125
  852MOL0     C12371   7.712  10.293   3.011 -0.0067  0.7984 -0.8025
  852MOL0     C12372   7.747  10.178   2.906  0.5362 -0.8252 -1.0035
  852MOL0     C12373   7.863  10.092   2.950 -0.1642 -0.0102 -1.0206
  852MOL0     C12374   8.006  10.143   2.951  0.5456  0.7571  0.7650
  852MOL0     C12375   8.110  10.038   2.992  0.3212  0.6666 -0.1943
  852MOL0    Cl12376   8.096   9.886   2.889  0.0120  0.0033  0.0232
  852MOL0     C12377   7.017  10.446   2.964  0.6256  0.1764  0.3769
  852MOL0     C12378   6.900  10.490   2.908 -0.7743 -0.2845 -0.0298
  852MOL0     O12379   6.799  10.849   2.767  0.1257  0.3729  0.0916
  852MOL0     C12380   6.572  10.866   2.596  0.2597  0.2745  0.3706
  852MOL0     C12381   6.448  10.879   2.529  0.0586  0.5389  0.1504
  852MOL0     N12382   5.945  10.752   2.110 -0.2536 -0.2012  0.5620
  852MOL0     N12383   5.880  10.694   2.010 -0.0447  0.1333  0.3600
  852MOL0     C12384   5.211  10.247   1.289  0.3240 -0.9006 -0.2307
  852MOL0     C12385   5.130  10.138   1.272  0.5180  0.2896  0.0210
  852MOL0     C12386   5.022   9.683   1.274  0.7492 -0.6572 -1.1006
  852MOL0     C12387   4.924   9.717   1.178 -0.3675  0.9525 -0.5081
  852MOL0     C12388   4.825   9.618   1.151  0.8111 -0.6700 -0.5040
  852MOL0     C12389   4.813   9.508   1.246 -0.1089 -0.6126  1.5184
  852MOL0     O12390   4.710   9.419   1.245 -0.3678 -0.6152 -0.2761
  852MOL0     C12391   4.599   9.428   1.157  0.2100 -0.6627  0.1138
  852MOL0     C12392   4.493   9.321   1.181  0.0130  0.0134  0.1013
  852MOL0     C12393   4.358   9.377   1.125 -0.6227 -0.0003  0.8469
  852MOL0     C12394   4.355   9.385   0.972  0.0381  0.5042  0.6188
  852MOL0     C12395   4.229   9.436   0.918 -0.0803  0.9050 -0.3596
  852MOL0     C12396   4.119   9.452   0.876 -0.1930  0.1084  1.0088
  852MOL0     C12397   4.922   9.483   1.337  0.5895  0.2273  0.2290
  852MOL0     C12398   5.023   9.575   1.353 -0.2876  1.4034  0.7664
  852MOL0     H12399   5.389   9.913   1.307  1.0978  0.5185 -0.2865
  852MOL0     H12400   5.520  10.122   1.338 -0.1724  0.2798  1.0153
  852MOL0     H12401   5.393  10.376   1.516  0.3127 -1.4904 -0.7484
  852MOL0     H12402   5.274  10.469   1.419  0.8120  0.1375  1.5456
  852MOL0     H12403   5.463  10.614   1.351  1.0915  1.3024 -0.2361
  852MOL0     H12404   5.573  10.483   1.417 -0.7251 -0.4610 -1.8561
  852MOL0     H12405   5.500  10.538   1.645  1.7809  0.7279  1.1153
  852MOL0     H12406   5.391  10.664   1.595 -0.6738 -0.7675 -0.8545
  852MOL0     H12407   5.578  10.818   1.538  1.4681  1.2128  1.7721
  852MOL0     H12408   5.622  10.734   1.686 -0.1602  0.0893 -1.3928
  852MOL0     H12409   5.816  10.759   1.517  0.2892 -1.8555  0.7228
  852MOL0     H12410   5.722  10.656   1.407  0.5936  1.9467 -1.3699
  852MOL0     H12411   5.905  10.543   1.535 -0.8819  1.2233 -2.2546
  852MOL0     H12412   5.751  10.468   1.541 -0.3527  0.5730 -0.0408
  852MOL0     H12413   5.729  10.572   1.786  0.4282 -0.3574  0.1605
  852MOL0     H12414   5.879  10.492   1.769 -2.1092 -1.4464  1.2614
  852MOL0     H12415   5.833  10.781   1.745 -0.4664 -0.1212 -2.0729
  852MOL0     H12416   5.978  10.712   1.687  2.0200 -0.3302  1.1867
  852MOL0     H12417   6.148  10.802   1.848 -0.8687 -3.3419 -0.9339
  852MOL0     H12418   6.101  10.918   2.227  1.0910  2.3067 -1.3331
  852MOL0     H12419   6.191  10.968   2.078  2.3361 -0.1721 -1.1346
  852MOL0     H12420   6.332  10.869   2.252  0.7539 -0.9232 -0.4882
  852MOL0     H12421   6.339  10.769   2.110 -0.6219 -1.8545  1.4572
  852MOL0     H12422   6.193  10.614   2.204  0.0320  0.6831  0.0212
  852MOL0     H12423   6.339  10.619   2.289 -0.7094 -1.9412 -0.7363
  852MOL0     H12424   6.169  10.613   2.462 -1.6226  0.6575  1.6550
  852MOL0     H12425   6.058  10.727   2.392 -0.2123  1.4735 -0.6675
  852MOL0     H12426   6.327  10.559   2.598 -0.2137  0.1839  3.8708
  852MOL0     H12427   6.550  10.543   2.699 -4.1976 -1.5412  0.4112
  852MOL0     H12428   7.012  10.748   2.716  0.2888 -0.2682  0.4504
  852MOL0     H12429   7.220  10.689   2.847  1.0414 -2.7301  0.6036
  852MOL0     H12430   7.422  10.571   2.959  1.9941 -0.5224 -0.6742
  852MOL0     H12431   7.343  10.453   2.840  1.6987 -0.6039  0.2800
  852MOL0     H12432   7.437  10.259   2.965  2.8745  0.0293 -1.8258
  852MOL0     H12433   7.456  10.362   3.112 -0.2577  2.2949 -0.4608
  852MOL0     H12434   7.622  10.493   2.995 -2.1111  0.3057  1.0418
  852MOL0     H12435   7.600  10.390   2.850 -1.3643 -0.9889  1.5456
  852MOL0     H12436   7.800  10.355   3.029  0.4188  0.4039 -1.4643
  852MOL0     H12437   7.677  10.243   3.101  1.4157  0.9177 -0.1665
  852MOL0     H12438   7.773  10.219   2.808 -1.8872 -3.7145 -3.0586
  852MOL0     H12439   7.656  10.118   2.897  0.1551 -1.1181  3.0605
  852MOL0     H12440   7.853  10.019   2.870 -1.0190 -0.9482 -0.0854
  852MOL0     H12441   7.841  10.039   3.043  1.8987 -0.4968 -0.7582
  852MOL0     H12442   8.018  10.172   2.846 -3.6063 -2.9955 -1.0592
  852MOL0     H12443   8.020  10.231   3.014  4.5537  0.2897  0.7786
  852MOL0     H12444   8.105  10.008   3.097 -1.5191  0.2383 -0.3686
  852MOL0     H12445   8.200  10.084   2.952  0.0641 -0.1384 -1.7739
  852MOL0     H12446   7.016  10.361   3.032 -3.0888 -0.1364  0.1465
  852MOL0     H12447   6.808  10.440   2.936 -0.5553 -0.5098  0.2973
  852MOL0     H12448   6.627  10.960   2.592 -0.4076  0.6647  0.3367
  852MOL0     H12449   6.411  10.967   2.479 -0.2426  1.0226  1.1814
  852MOL0     H12450   5.167  10.346   1.282  1.4705 -0.2761  0.9426
  852MOL0     H12451   5.023  10.148   1.286  0.4779  2.7037 -1.4756
  852MOL0     H12452   4.930   9.808   1.119  1.0773  0.6459 -0.8788
  852MOL0     H12453   4.748   9.635   1.076 -0.5084  2.5699  1.3648
  852MOL0     H12454   4.632   9.412   1.054 -2.2228  2.6810 -1.3728
  852MOL0     H12455   4.560   9.530   1.167  2.0961 -0.0396  2.0124
  852MOL0     H12456   4.519   9.221   1.145 -2.5770 -0.6562 -0.0675
  852MOL0     H12457   4.477   9.279   1.281 -0.0091 -4.4225 -1.5160
  852MOL0     H12458   4.347   9.480   1.159 -3.1136 -0.5327  1.8716
  852MOL0     H12459   4.266   9.324   1.152 -0.7993 -0.7095 -0.9844
  852MOL0     H12460   4.437   9.449   0.940 -1.3972  1.2868 -1.7058
  852MOL0     H12461   4.364   9.280   0.942 -1.1578  0.8362 -1.0484
  852MOL0     H12462   4.027   9.483   0.833  0.3433 -4.0990 -4.2720
  852MOL0     H12463   4.897   9.402   1.405 -0.9831  0.8303  0.3972
  852MOL0     H12464   5.114   9.555   1.409 -0.7175 -1.1939  0.6513
  853MOL0     O12465   5.100   1.073   3.903 -0.0822  0.3637 -0.8010
  853MOL0     C12466   5.113   1.090   4.025  0.3760  0.4059 -0.3192
  853MOL0     O12467   5.123   1.209   4.093 -0.8548  0.3021 -0.0546
  853MOL0     C12468   5.129   1.321   4.021 -0.7966  0.3691  0.6372
  853MOL0     C12469   5.021   1.376   3.957  0.4816 -0.4252 -0.4365
  853MOL0     C12470   5.041   1.499   3.894 -0.1151  0.4847 -0.3800
  853MOL0     C12471   5.154   1.580   3.908 -0.3018 -0.0989 -0.3860
  853MOL0     O12472   5.165   1.704   3.856 -0.4004  0.0494  0.5190
  853MOL0     C12473   5.091   1.752   3.745  0.2482  0.2710  0.3335
  853MOL0     C12474   5.098   1.666   3.624  0.0271 -0.1156  0.5992
  853MOL0     C12475   4.958   1.668   3.550 -0.6295  0.2096 -0.2680
  853MOL0     C12476   4.973   1.623   3.402  0.1783  0.1348  0.2367
  853MOL0     C12477   5.003   1.473   3.386  0.0415  0.5933  0.1600
  853MOL0     C12478   4.883   1.398   3.339 -0.9624 -0.1090  0.1086
  853MOL0     C12479   4.905   1.241   3.354  0.3976 -0.2434  0.3332
  853MOL0     C12480   4.787   1.163   3.298 -0.0177 -0.7712  0.9518
  853MOL0     N12481   4.798   1.179   3.147 -0.1913 -0.5265 -0.2799
  853MOL0     C12482   4.685   1.214   3.068 -0.4767  0.0580 -0.5266
  853MOL0     C12483   4.724   1.219   2.946 -0.0679 -0.4128  0.2511
  853MOL0     C12484   4.637   1.229   2.816 -1.0497  0.0707  0.4362
  853MOL0     C12485   4.672   1.116   2.719  0.3454 -0.1168  0.6231
  853MOL0     C12486   4.558   1.089   2.616 -1.2063  0.4912  0.1013
  853MOL0     C12487   4.589   0.962   2.542  0.9783  0.0630  0.2511
  853MOL0     O12488   4.475   0.928   2.458 -0.3907 -0.4164 -0.0542
  853MOL0     C12489   4.417   0.796   2.467  0.1011 -0.0667  0.1419
  853MOL0     C12490   4.288   0.785   2.519 -0.1093 -0.4295  0.3062
  853MOL0     C12491   4.224   0.662   2.517  0.2163  1.1553 -0.4763
  853MOL0     C12492   4.281   0.552   2.442  0.4175  0.6981  0.5373
  853MOL0     C12493   4.192   0.426   2.407 -0.1609 -0.4013  0.2507
  853MOL0     O12494   4.266   0.317   2.372 -0.3170  0.1256 -0.4142
  853MOL0     C12495   4.187   0.209   2.362 -0.5811  0.0293  0.3054
  853MOL0     C12496   4.151   0.173   2.236 -0.1011  0.4371  0.8506
  853MOL0     C12497   4.082   0.052   2.215  0.4010 -0.1409 -0.6797
  853MOL0     C12498   4.037  -0.023   2.326  0.1395  0.4949  0.3020
  853MOL0     O12499   3.962  -0.140   2.307  0.9156  0.7954  0.4629
  853MOL0     C12500   3.934  -0.235   2.409 -0.1624 -0.2029  1.1071
  853MOL0     C12501   4.033  -0.357   2.424  0.5125 -0.6473  0.3473
  853MOL0     C12502   4.006  -0.471   2.332  0.2829  0.2149  0.2709
  853MOL0     C12503   4.112  -0.584   2.356 -0.0911 -0.4713 -0.3188
  853MOL0     C12504   4.059  -0.705   2.275  0.4655  0.3780  0.2146
  853MOL0     C12505   4.174  -0.790   2.225  0.5766 -0.5159 -0.1472
  853MOL0     C12506   4.113  -0.934   2.188  0.6268 -0.4513 -0.1103
  853MOL0     C12507   4.222  -1.023   2.133  0.0642 -0.5441  0.2754
  853MOL0    Cl12508   4.163  -1.181   2.078 -0.2061 -0.2785 -0.2857
  853MOL0     C12509   4.079   0.016   2.452 -0.3280 -0.2918 -0.0720
  853MOL0     C12510   4.154   0.129   2.468 -1.0827  0.7084  0.1924
  853MOL0     O12511   4.069   0.444   2.409  0.0347  0.8665 -0.7024
  853MOL0     C12512   4.411   0.572   2.398 -0.3509  0.1260 -0.6304
  853MOL0     C12513   4.475   0.690   2.411  0.4863 -0.3394  0.4195
  853MOL0     N12514   4.861   1.190   2.945 -0.3759  0.4101 -0.5733
  853MOL0     N12515   4.904   1.168   3.067 -1.0382  0.0980 -0.1014
  853MOL0     C12516   5.254   1.523   3.994  0.2089  0.2171  0.2170
  853MOL0     C12517   5.240   1.395   4.047  0.9848  0.3833  0.5270
  853MOL0     C12518   5.111   0.969   4.110 -0.0970 -1.0092 -0.8978
  853MOL0     C12519   5.103   0.975   4.249  0.3662  0.6670 -0.5946
  853MOL0     C12520   5.084   0.861   4.328  0.4710  0.0919  0.5987
  853MOL0     C12521   5.080   0.733   4.271 -0.1959 -0.7172  0.7515
  853MOL0     O12522   5.075   0.618   4.345 -0.5986 -0.0392 -0.7288
  853MOL0     C12523   5.201   0.586   4.414  1.3350  0.0753 -0.7216
  853MOL0     C12524   5.181   0.451   4.490 -0.3041  0.0513 -0.1603
  853MOL0     C12525   5.060   0.457   4.590  0.0722 -0.1983 -0.1875
  853MOL0     C12526   5.052   0.335   4.682 -0.5006 -0.1238 -0.0961
  853MOL0     C12527   4.940   0.347   4.772 -0.3673  0.1014 -0.2862
  853MOL0     C12528   4.829   0.346   4.826 -1.0751  0.7368 -0.4107
  853MOL0     C12529   5.085   0.727   4.134  0.7265  0.4993 -0.4232
  853MOL0     C12530   5.099   0.836   4.051  0.3037 -0.0731  0.0596
  853MOL0     H12531   4.927   1.321   3.959  1.8083 -2.8344  2.1802
  853MOL0     H12532   4.956   1.546   3.846 -1.1796 -2.4996 -1.6777
  853MOL0     H12533   5.142   1.845   3.719  0.5907  0.6286  2.0996
  853MOL0     H12534   4.991   1.774   3.783  0.1999  1.1303 -0.2807
  853MOL0     H12535   5.106   1.564   3.660 -3.9644 -1.7285 -2.3405
  853MOL0     H12536   5.177   1.703   3.556 -1.5171  2.3222  0.0072
  853MOL0     H12537   4.923   1.772   3.549  2.7913  1.5139  0.6328
  853MOL0     H12538   4.889   1.600   3.601  0.9854 -0.7294  0.7160
  853MOL0     H12539   4.878   1.655   3.359 -0.1967  3.6298  3.1898
  853MOL0     H12540   5.052   1.683   3.356 -0.0014 -0.3183 -0.6812
  853MOL0     H12541   5.026   1.430   3.484 -2.3766 -0.0637  0.4941
  853MOL0     H12542   5.086   1.464   3.314 -1.5919 -3.3662 -1.5462
  853MOL0     H12543   4.855   1.429   3.238  1.2991  1.3515 -0.1158
  853MOL0     H12544   4.801   1.434   3.403  2.1458  1.3043  3.6812
  853MOL0     H12545   5.001   1.219   3.305  0.2631 -0.5290  0.1943
  853MOL0     H12546   4.928   1.208   3.455  0.8575 -2.4255 -0.4219
  853MOL0     H12547   4.693   1.206   3.333  0.7404  0.4363  1.5720
  853MOL0     H12548   4.792   1.057   3.327 -2.0027 -0.6963  1.6544
  853MOL0     H12549   4.586   1.230   3.109  0.0864 -1.5335  1.6657
  853MOL0     H12550   4.643   1.327   2.767  2.3611 -0.1218  0.2237
  853MOL0     H12551   4.539   1.215   2.862  0.3721  2.3459  4.7703
  853MOL0     H12552   4.698   1.030   2.782 -0.4703 -0.4765  0.4712
  853MOL0     H12553   4.757   1.147   2.657 -1.8202  2.5915 -1.2362
  853MOL0     H12554   4.463   1.088   2.670 -1.6691  4.1016 -0.4045
  853MOL0     H12555   4.555   1.177   2.550  1.0271  2.3155  2.2668
  853MOL0     H12556   4.596   0.884   2.618  0.8230 -1.3003 -1.0938
  853MOL0     H12557   4.682   0.961   2.485  1.5200  0.1630  1.1085
  853MOL0     H12558   4.243   0.871   2.567  4.7274  0.9636  2.9662
  853MOL0     H12559   4.118   0.657   2.539  0.7910  1.6655  2.7851
  853MOL0     H12560   4.188   0.232   2.153 -1.9388  0.3661 -0.0598
  853MOL0     H12561   4.055   0.024   2.113 -2.0315  0.5788 -0.2979
  853MOL0     H12562   3.837  -0.272   2.376 -0.0465 -0.3706  0.9533
  853MOL0     H12563   3.910  -0.171   2.495 -0.8969  0.2689  0.5606
  853MOL0     H12564   4.019  -0.390   2.527  0.5160  3.2819  1.8076
  853MOL0     H12565   4.136  -0.321   2.413  0.2805 -0.8564 -4.7201
  853MOL0     H12566   4.011  -0.436   2.229 -1.6640  2.9933  0.9916
  853MOL0     H12567   3.908  -0.512   2.358  0.7581 -0.1325  1.6101
  853MOL0     H12568   4.213  -0.557   2.325  1.2975 -3.4645  1.1133
  853MOL0     H12569   4.126  -0.606   2.463  2.1224  3.9003  0.4930
  853MOL0     H12570   4.003  -0.671   2.188  0.3697 -1.5727 -0.5338
  853MOL0     H12571   4.007  -0.760   2.354  4.8783 -0.6835  2.7600
  853MOL0     H12572   4.244  -0.797   2.309  0.9110  0.5677 -0.3141
  853MOL0     H12573   4.216  -0.732   2.143  0.2747  0.3084  0.2621
  853MOL0     H12574   4.065  -0.981   2.275  3.5263  0.3029  2.0842
  853MOL0     H12575   4.026  -0.908   2.128  0.5101  2.6831  1.2050
  853MOL0     H12576   4.295  -1.052   2.210 -0.4072  0.2820  1.0411
  853MOL0     H12577   4.271  -0.967   2.054  0.4162  1.3838  1.7981
  853MOL0     H12578   4.045  -0.030   2.545 -2.3228  4.0753  1.6710
  853MOL0     H12579   4.189   0.156   2.567 -2.0482  1.1654  0.4118
  853MOL0     H12580   4.445   0.481   2.351 -1.3769 -0.6026 -0.0115
  853MOL0     H12581   4.574   0.696   2.367  0.3494 -1.0343  0.0009
  853MOL0     H12582   5.350   1.565   4.024  1.9019 -1.2304 -2.7318
  853MOL0     H12583   5.318   1.346   4.105 -0.2784 -2.6265 -0.1187
  853MOL0     H12584   5.091   1.074   4.292  0.6233  2.0473 -3.4573
  853MOL0     H12585   5.076   0.856   4.436 -1.8756  2.0558  0.6096
  853MOL0     H12586   5.225   0.672   4.476 -0.7435  4.1465 -4.8943
  853MOL0     H12587   5.279   0.581   4.337  1.7430 -1.0950 -0.2607
  853MOL0     H12588   5.165   0.374   4.413 -2.5678 -0.4506  0.7339
  853MOL0     H12589   5.265   0.417   4.551 -0.4988 -1.6591 -0.7795
  853MOL0     H12590   4.966   0.470   4.536 -1.2187 -3.0286  1.1572
  853MOL0     H12591   5.075   0.547   4.650 -3.6169 -0.2596  1.0636
  853MOL0     H12592   5.050   0.249   4.615  0.1112  1.3253 -2.0994
  853MOL0     H12593   5.149   0.321   4.731  0.4828 -0.8035 -2.0958
  853MOL0     H12594   4.733   0.330   4.869 -1.0560 -0.5842 -0.8276
  853MOL0     H12595   5.068   0.629   4.092  4.4110 -0.7482  0.6506
  853MOL0     H12596   5.107   0.826   3.943  0.9169 -0.5513  0.1428
  854MOL0     O12597   3.981   0.476  10.007  0.5067  0.1149  0.7041
  854MOL0     C12598   3.936   0.359  10.008  0.5464 -1.1071 -0.4436
  854MOL0     O12599   3.840   0.315   9.915  0.1859 -0.5980 -0.4747
  854MOL0     C12600   3.785   0.403   9.828 -0.6988  0.2657 -0.0766
  854MOL0     C12601   3.649   0.435   9.843  0.2812  0.3417  0.3926
  854MOL0     C12602   3.595   0.532   9.761  0.4379 -1.0452  0.3375
  854MOL0     C12603   3.669   0.595   9.649  0.4364 -0.1846 -0.0012
  854MOL0     O12604   3.621   0.710   9.581 -0.7496  0.0401  0.7137
  854MOL0     C12605   3.485   0.751   9.569  0.1692 -0.7456  0.0268
  854MOL0     C12606   3.406   0.665   9.473 -0.0321 -0.8465  0.2707
  854MOL0     C12607   3.258   0.699   9.470 -0.0713 -0.1431  0.0053
  854MOL0     C12608   3.181   0.613   9.369  0.2123 -0.3472 -0.3140
  854MOL0     C12609   3.029   0.629   9.385 -0.3686 -0.8439 -0.5003
  854MOL0     C12610   2.971   0.540   9.484  0.9866 -1.2764 -0.6251
  854MOL0     C12611   2.946   0.400   9.422 -0.4283 -0.2357 -1.4557
  854MOL0     C12612   2.872   0.296   9.503 -0.1743  1.0495  0.2829
  854MOL0     N12613   2.734   0.341   9.535 -0.1050  0.1865 -0.3359
  854MOL0     C12614   2.618   0.294   9.483  0.1560 -0.4826  0.1271
  854MOL0     C12615   2.522   0.326   9.568  0.5156 -0.6932  0.4391
  854MOL0     C12616   2.388   0.303   9.519  0.5232 -0.1446  0.1241
  854MOL0     C12617   2.269   0.352   9.592  0.1004 -0.4307  0.5561
  854MOL0     C12618   2.246   0.269   9.712  0.3179 -0.1839 -0.2959
  854MOL0     C12619   2.122   0.301   9.775 -0.0886  0.7462 -0.5851
  854MOL0     O12620   2.014   0.264   9.688  0.3798  0.0721  0.7384
  854MOL0     C12621   1.906   0.347   9.683  0.2749  0.1099  0.3992
  854MOL0     C12622   1.893   0.454   9.593  0.6638 -0.3474  0.4249
  854MOL0     C12623   1.771   0.529   9.589 -0.2474  0.3476  0.1463
  854MOL0     C12624   1.661   0.494   9.671 -0.2836  1.3795  0.3260
  854MOL0     C12625   1.538   0.575   9.653 -0.6842  0.2813 -0.3248
  854MOL0     O12626   1.533   0.670   9.559 -0.0368 -1.0718  0.7477
  854MOL0     C12627   1.455   0.783   9.588  0.0601  0.2845  1.1129
  854MOL0     C12628   1.381   0.817   9.704 -0.0926  0.2533  0.1616
  854MOL0     C12629   1.313   0.937   9.718  0.1805 -0.0253 -0.2846
  854MOL0     C12630   1.322   1.033   9.619  0.2692 -0.4130  0.6608
  854MOL0     O12631   1.242   1.143   9.625 -0.7678  0.2799 -0.2047
  854MOL0     C12632   1.109   1.126   9.588  0.4027 -1.6055 -0.3811
  854MOL0     C12633   1.039   1.257   9.579  0.4991  0.6643  0.1989
  854MOL0     C12634   1.081   1.351   9.460 -0.9350 -0.3194  0.4006
  854MOL0     C12635   1.108   1.292   9.324  1.4454 -0.2940  0.8517
  854MOL0     C12636   1.176   1.399   9.233 -0.1289 -0.4711 -0.0538
  854MOL0     C12637   1.285   1.343   9.141 -0.7848 -0.2596  0.1954
  854MOL0     C12638   1.313   1.435   9.015 -0.4474 -0.1538 -0.0132
  854MOL0     C12639   1.382   1.370   8.903 -0.1289  0.0973 -0.2967
  854MOL0    Cl12640   1.544   1.294   8.945  0.1659  0.2691  0.6993
  854MOL0     C12641   1.403   1.006   9.504  0.6484  0.1739 -0.7093
  854MOL0     C12642   1.470   0.881   9.490 -0.6537 -0.5436 -0.0601
  854MOL0     O12643   1.443   0.526   9.717 -0.1096 -0.7028 -0.5161
  854MOL0     C12644   1.675   0.386   9.766 -0.6508  0.7303 -0.1148
  854MOL0     C12645   1.801   0.313   9.763  0.3755 -0.9719 -0.1667
  854MOL0     N12646   2.584   0.392   9.677 -0.2464  0.4805  0.8294
  854MOL0     N12647   2.708   0.401   9.651 -0.6154 -0.1235 -0.6379
  854MOL0     C12648   3.801   0.557   9.632 -0.2279  0.0027  0.3020
  854MOL0     C12649   3.855   0.464   9.722 -0.4210  0.1873 -0.5413
  854MOL0     C12650   3.982   0.270  10.108  0.8368 -0.4668 -0.3441
  854MOL0     C12651   4.080   0.294  10.210  0.4154 -0.1003  0.5889
  854MOL0     C12652   4.132   0.202  10.301 -0.1955  0.0574  0.7295
  854MOL0     C12653   4.092   0.072  10.294  0.3769 -0.7333 -0.2447
  854MOL0     O12654   4.127  -0.030  10.386 -0.1318 -1.1294 -0.3394
  854MOL0     C12655   4.168  -0.000  10.508 -0.8416 -0.3610 -0.3293
  854MOL0     C12656   4.177  -0.126  10.602  0.6684 -1.1359 -0.0713
  854MOL0     C12657   4.270  -0.088  10.713 -0.1772  0.4596 -0.3895
  854MOL0     C12658   4.272  -0.174  10.823  0.4878  0.2974 -0.2981
  854MOL0     C12659   4.301  -0.321  10.797  0.1526  0.9450 -0.2645
  854MOL0     C12660   4.321  -0.440  10.778 -0.1504  0.2022  0.3491
  854MOL0     C12661   4.004   0.033  10.187 -0.5613 -0.8599  0.7977
  854MOL0     C12662   3.951   0.141  10.104  0.0478  0.4657 -0.2755
  854MOL0     H12663   3.595   0.411   9.934  0.3549  0.9932  0.6121
  854MOL0     H12664   3.496   0.574   9.778 -0.3003 -1.4414 -2.3885
  854MOL0     H12665   3.493   0.851   9.527  0.0591 -0.8003 -0.1249
  854MOL0     H12666   3.444   0.749   9.671  1.2905 -0.3772  0.4974
  854MOL0     H12667   3.417   0.565   9.516  2.5343  0.0932  2.0076
  854MOL0     H12668   3.444   0.672   9.371  1.8109  4.2644  1.0251
  854MOL0     H12669   3.245   0.802   9.435  0.4498 -0.1199 -0.1357
  854MOL0     H12670   3.213   0.681   9.568  2.7393 -1.5736  1.1385
  854MOL0     H12671   3.225   0.638   9.273 -0.8159  3.9012  0.1529
  854MOL0     H12672   3.205   0.508   9.389 -3.0169 -1.0581  0.3558
  854MOL0     H12673   2.985   0.638   9.286 -0.7735  0.6834 -0.2190
  854MOL0     H12674   3.028   0.734   9.416  3.5380 -0.7610 -0.0647
  854MOL0     H12675   2.871   0.572   9.517  2.4038 -0.3063  3.3728
  854MOL0     H12676   3.027   0.529   9.578  1.7370  1.1893 -0.7248
  854MOL0     H12677   2.889   0.422   9.331  2.7567  2.8594 -2.9251
  854MOL0     H12678   3.041   0.359   9.387 -1.4135 -1.7802 -2.4708
  854MOL0     H12679   2.930   0.285   9.594  0.1846 -0.0806 -0.0590
  854MOL0     H12680   2.862   0.206   9.441  0.1592  0.9405  0.3884
  854MOL0     H12681   2.603   0.237   9.392 -1.0853 -1.4324  0.8960
  854MOL0     H12682   2.375   0.195   9.513  0.2168 -0.2752  2.4675
  854MOL0     H12683   2.389   0.350   9.420  1.3893 -0.5863 -0.0808
  854MOL0     H12684   2.186   0.339   9.522  0.2558 -0.0898  0.3062
  854MOL0     H12685   2.275   0.455   9.629 -0.2305 -0.4817  0.7536
  854MOL0     H12686   2.244   0.166   9.674 -1.5284 -0.5250  0.6037
  854MOL0     H12687   2.335   0.270   9.775  2.6869 -0.5518 -3.3764
  854MOL0     H12688   2.120   0.407   9.799 -2.1353  0.6441 -0.0845
  854MOL0     H12689   2.103   0.243   9.866 -0.3145 -1.0987 -1.7575
  854MOL0     H12690   1.983   0.469   9.533  1.2009  1.0081  1.5425
  854MOL0     H12691   1.759   0.595   9.503  1.5491 -0.3633 -0.7036
  854MOL0     H12692   1.379   0.751   9.790 -0.5079  2.7363  2.1995
  854MOL0     H12693   1.256   0.950   9.809 -1.0655 -2.7425 -0.5956
  854MOL0     H12694   1.062   1.068   9.668 -0.2805  0.8446  1.0954
  854MOL0     H12695   1.106   1.076   9.490  0.3872  1.4333 -2.0414
  854MOL0     H12696   1.043   1.322   9.666  1.6852  1.9089 -0.7591
  854MOL0     H12697   0.935   1.238   9.548 -0.1056  0.9043  1.9891
  854MOL0     H12698   1.169   1.406   9.494  0.3068 -1.0385 -1.4975
  854MOL0     H12699   1.011   1.431   9.436 -1.1855 -0.7469 -0.3098
  854MOL0     H12700   1.176   1.207   9.331 -0.2513 -2.0984 -2.1975
  854MOL0     H12701   1.012   1.261   9.281  1.3924  0.1807  0.6164
  854MOL0     H12702   1.215   1.479   9.298  1.1276  0.3612 -1.7465
  854MOL0     H12703   1.103   1.444   9.165 -0.5459 -2.5965 -1.0924
  854MOL0     H12704   1.238   1.251   9.104 -1.5828 -0.2129  1.0519
  854MOL0     H12705   1.378   1.326   9.195 -1.3505 -1.9883  0.7037
  854MOL0     H12706   1.222   1.469   8.965  0.6265 -0.3888 -2.2403
  854MOL0     H12707   1.376   1.519   9.043  1.7516 -1.8575  0.4973
  854MOL0     H12708   1.408   1.448   8.831  2.8494  0.4683  1.0152
  854MOL0     H12709   1.321   1.287   8.865 -2.7742  2.1728 -0.9048
  854MOL0     H12710   1.403   1.086   9.430  2.0933  0.3636 -0.5282
  854MOL0     H12711   1.524   0.854   9.399  0.6603  1.4503  0.0807
  854MOL0     H12712   1.600   0.367   9.843 -0.2344 -3.6699 -0.5507
  854MOL0     H12713   1.830   0.233   9.830  1.7466  0.9706  1.7165
  854MOL0     H12714   3.859   0.616   9.562  1.7116 -1.1774  0.8147
  854MOL0     H12715   3.959   0.433   9.726  0.3806  2.5368 -1.1536
  854MOL0     H12716   4.140   0.384  10.220  1.4382 -0.2163 -3.1714
  854MOL0     H12717   4.209   0.234  10.372 -0.4043  0.7596  0.6503
  854MOL0     H12718   4.102   0.074  10.553  1.2634  0.4463  1.5865
  854MOL0     H12719   4.267   0.045  10.513 -0.1797 -1.7840  0.0024
  854MOL0     H12720   4.085  -0.162  10.649 -0.1950  0.4488 -0.4996
  854MOL0     H12721   4.219  -0.208  10.543 -0.4106 -0.2937 -2.1138
  854MOL0     H12722   4.250   0.015  10.744 -2.0252  0.6142 -1.9462
  854MOL0     H12723   4.368  -0.085  10.664 -1.0563 -0.3100 -2.2875
  854MOL0     H12724   4.354  -0.143  10.888  1.0598  2.4288 -1.9248
  854MOL0     H12725   4.181  -0.166  10.883 -0.3843  3.7660 -1.7817
  854MOL0     H12726   4.344  -0.540  10.746 -0.0573  0.5331 -0.6346
  854MOL0     H12727   3.974  -0.062  10.143 -2.6356  1.2846 -2.9528
  854MOL0     H12728   3.888   0.098  10.027  2.6269 -3.0457 -0.6378
  855MOL0     O12729  11.219   6.546   7.861 -0.4640  0.1525  0.4410
  855MOL0     C12730  11.187   6.663   7.864 -0.6027  0.0272 -0.6257
  855MOL0     O12731  11.266   6.768   7.834 -0.4053 -0.2410 -0.3601
  855MOL0     C12732  11.363   6.753   7.741  0.4187  0.3554 -0.5258
  855MOL0     C12733  11.467   6.662   7.749 -0.6108  0.6975 -0.3120
  855MOL0     C12734  11.563   6.636   7.646  0.0779 -1.5221 -0.0045
  855MOL0     C12735  11.551   6.718   7.534 -1.0289 -0.7843 -0.0690
  855MOL0     O12736  11.638   6.678   7.435  0.3157  0.4528  0.2261
  855MOL0     C12737  11.674   6.764   7.323 -0.9368  0.0652  0.1415
  855MOL0     C12738  11.829   6.801   7.334 -0.0979 -0.2048 -0.2890
  855MOL0     C12739  11.870   6.890   7.454  1.1034  0.9742 -0.4306
  855MOL0     C12740  11.777   7.015   7.461 -0.4031  0.1554  1.1356
  855MOL0     C12741  11.832   7.111   7.565 -0.4440 -1.3508 -0.5457
  855MOL0     C12742  11.792   7.068   7.706  0.6155 -0.5865 -0.3595
  855MOL0     C12743  11.648   7.108   7.739 -0.7409 -0.1266 -1.0551
  855MOL0     C12744  11.571   7.024   7.840  0.0051 -0.1966 -0.3901
  855MOL0     N12745  11.615   7.064   7.982  0.2833 -0.5675  0.5198
  855MOL0     C12746  11.579   7.167   8.071  0.0193 -0.2152 -0.1539
  855MOL0     C12747  11.660   7.150   8.184  0.0790  0.7987  0.7150
  855MOL0     C12748  11.653   7.238   8.299  0.7320 -0.1112  0.2134
  855MOL0     C12749  11.698   7.179   8.431  0.4527  0.0310 -0.3139
  855MOL0     C12750  11.850   7.193   8.431  0.5639  0.7179  0.1708
  855MOL0     C12751  11.909   7.155   8.573 -0.0554  0.5588  0.1856
  855MOL0     O12752  11.850   7.235   8.681  0.2851  0.7481 -0.1202
  855MOL0     C12753  11.891   7.369   8.678 -0.0734  0.4531 -0.0269
  855MOL0     C12754  11.998   7.431   8.611 -0.2558 -0.0034  0.6684
  855MOL0     C12755  12.047   7.555   8.657  0.5966  1.2010 -0.3235
  855MOL0     C12756  11.981   7.625   8.759  0.0374 -0.5670  0.0903
  855MOL0     C12757  12.053   7.747   8.822  0.6481 -0.2159  0.2189
  855MOL0     O12758  11.991   7.816   8.922 -0.0307 -1.0424  0.3640
  855MOL0     C12759  12.039   7.923   8.978 -0.8702  0.2352 -0.0231
  855MOL0     C12760  12.182   7.944   9.002 -0.0339 -0.9807  0.7908
  855MOL0     C12761  12.227   8.058   9.060  0.9307  0.5419  0.0332
  855MOL0     C12762  12.136   8.153   9.092 -0.8122 -0.5527  0.1110
  855MOL0     O12763  12.176   8.270   9.159  0.5514 -0.6595 -0.4421
  855MOL0     C12764  12.276   8.273   9.266 -0.0160 -0.2846 -0.1566
  855MOL0     C12765  12.306   8.423   9.290  0.9440  0.1318  0.0841
  855MOL0     C12766  12.448   8.468   9.329 -0.2099 -0.1153  0.9414
  855MOL0     C12767  12.458   8.618   9.339  0.4215 -0.9243 -0.1253
  855MOL0     C12768  12.541   8.668   9.453 -0.0580 -0.3285  0.5420
  855MOL0     C12769  12.688   8.627   9.450 -0.3423 -0.7194 -0.4881
  855MOL0     C12770  12.763   8.693   9.569 -0.7138 -0.6345 -0.2072
  855MOL0     C12771  12.880   8.611   9.630  0.7744 -0.7550 -0.3862
  855MOL0    Cl12772  12.903   8.686   9.788  0.3072  0.2585  0.5944
  855MOL0     C12773  12.004   8.140   9.055 -0.2720 -0.5784  0.7039
  855MOL0     C12774  11.953   8.024   9.001 -1.2709  0.0725  0.2390
  855MOL0     O12775  12.159   7.778   8.772 -0.0461 -0.4636 -0.0606
  855MOL0     C12776  11.865   7.572   8.817 -0.4956 -0.2760  0.7364
  855MOL0     C12777  11.827   7.446   8.776  0.5124 -0.0482  0.4265
  855MOL0     N12778  11.738   7.044   8.159 -0.2568 -0.2868 -0.2701
  855MOL0     N12779  11.716   6.991   8.048 -0.2755 -0.0413  0.4073
  855MOL0     C12780  11.467   6.820   7.524  0.1206 -0.0984  0.0184
  855MOL0     C12781  11.367   6.837   7.631 -0.1884 -0.2600  1.1807
  855MOL0     C12782  11.060   6.715   7.924 -0.0482  0.0343  0.5568
  855MOL0     C12783  11.046   6.847   7.973  0.2091  0.0473 -0.1258
  855MOL0     C12784  10.934   6.891   8.037 -0.3290 -0.1537 -0.2229
  855MOL0     C12785  10.823   6.805   8.051 -0.0668 -0.1130 -0.3701
  855MOL0     O12786  10.698   6.843   8.100  0.2216 -0.0412  0.5521
  855MOL0     C12787  10.692   6.913   8.223 -0.2341 -0.6498  0.2392
  855MOL0     C12788  10.739   6.812   8.330 -0.3955 -0.5146 -0.4108
  855MOL0     C12789  10.728   6.864   8.472  0.2436 -0.1458  0.7857
  855MOL0     C12790  10.777   6.775   8.570 -0.9938  0.3592 -0.9719
  855MOL0     C12791  10.921   6.755   8.559 -0.2724 -0.5943  0.1491
  855MOL0     C12792  11.047   6.747   8.550  0.0916  0.8290 -0.5131
  855MOL0     C12793  10.833   6.675   7.993 -0.2490 -1.0922  0.7816
  855MOL0     C12794  10.956   6.630   7.942  0.4157  0.5645 -0.2464
  855MOL0     H12795  11.480   6.612   7.844  2.1260  2.5934  0.4572
  855MOL0     H12796  11.652   6.575   7.653  2.9151  1.4103 -4.7879
  855MOL0     H12797  11.610   6.853   7.316 -0.8782  0.0838 -0.1733
  855MOL0     H12798  11.664   6.715   7.226  0.5145 -1.2553  0.6206
  855MOL0     H12799  11.865   6.844   7.240  0.9629  2.1092  1.0907
  855MOL0     H12800  11.879   6.705   7.347 -1.2490 -0.6495  1.0215
  855MOL0     H12801  11.971   6.934   7.457  0.7339  1.8553 -0.6152
  855MOL0     H12802  11.853   6.828   7.543 -0.8615  2.7699  0.5331
  855MOL0     H12803  11.775   7.063   7.363 -2.3114 -1.1647  0.4477
  855MOL0     H12804  11.674   6.984   7.484 -2.5349  1.9701 -4.1810
  855MOL0     H12805  11.787   7.211   7.556  2.7268  0.2131 -0.4246
  855MOL0     H12806  11.941   7.117   7.559 -0.4455 -2.0019 -1.3631
  855MOL0     H12807  11.848   7.115   7.788 -1.7649 -0.8833  1.5622
  855MOL0     H12808  11.809   6.961   7.720  1.4678 -0.5779 -1.2634
  855MOL0     H12809  11.640   7.213   7.770  0.4459 -0.0599 -0.9260
  855MOL0     H12810  11.601   7.107   7.640 -0.9734  0.5392 -0.9601
  855MOL0     H12811  11.561   6.917   7.815 -1.6348 -0.2329  0.2824
  855MOL0     H12812  11.470   7.065   7.846 -0.6807 -1.5404 -2.0140
  855MOL0     H12813  11.509   7.249   8.058 -1.0806 -0.8544  1.3693
  855MOL0     H12814  11.548   7.257   8.326  0.7076 -0.7245  0.5703
  855MOL0     H12815  11.719   7.322   8.277  2.8688 -1.6879  0.2667
  855MOL0     H12816  11.666   7.074   8.431  0.3993  0.0456 -0.8491
  855MOL0     H12817  11.649   7.232   8.514  0.4579 -0.9590  0.3445
  855MOL0     H12818  11.889   7.123   8.357 -0.3157 -0.0747  0.4316
  855MOL0     H12819  11.885   7.292   8.399 -0.3075  1.1943  0.6554
  855MOL0     H12820  12.017   7.173   8.573  0.6477 -2.8069 -1.0309
  855MOL0     H12821  11.902   7.046   8.585  0.6305  0.3153 -1.3643
  855MOL0     H12822  12.052   7.371   8.539  1.1265  0.3570  1.3584
  855MOL0     H12823  12.129   7.599   8.600 -0.2685  4.3699  0.7005
  855MOL0     H12824  12.256   7.871   8.968  2.1212  1.1251  0.7384
  855MOL0     H12825  12.333   8.079   9.071  1.3191 -1.1239 -0.1642
  855MOL0     H12826  12.359   8.213   9.228 -0.2805 -0.8813  0.1879
  855MOL0     H12827  12.239   8.231   9.360  2.8278  1.4263  1.8597
  855MOL0     H12828  12.230   8.464   9.356  0.1938  0.3914 -0.9093
  855MOL0     H12829  12.273   8.484   9.205 -0.0432  1.7968  1.5878
  855MOL0     H12830  12.518   8.429   9.255 -2.4291  0.1502 -1.4264
  855MOL0     H12831  12.476   8.421   9.424 -0.5547 -0.3153  0.9490
  855MOL0     H12832  12.506   8.652   9.247  0.0103  1.2778  0.4022
  855MOL0     H12833  12.355   8.653   9.354  0.5695  0.1162 -1.3176
  855MOL0     H12834  12.504   8.618   9.543 -1.8094  0.6872  0.4375
  855MOL0     H12835  12.525   8.776   9.467  0.3968 -0.0250 -1.0890
  855MOL0     H12836  12.731   8.656   9.354  0.0203  0.4887  0.0243
  855MOL0     H12837  12.682   8.518   9.453 -1.7586 -0.6745 -1.0231
  855MOL0     H12838  12.795   8.793   9.536  1.3843 -2.1389 -3.2857
  855MOL0     H12839  12.697   8.711   9.654 -0.2627  1.0396 -0.1609
  855MOL0     H12840  12.975   8.633   9.580  1.2100  1.5385  1.2869
  855MOL0     H12841  12.849   8.506   9.636 -2.3214  0.1123  0.0327
  855MOL0     H12842  11.932   8.221   9.063 -0.8155 -0.7579 -1.6010
  855MOL0     H12843  11.846   8.007   8.997 -1.4268 -0.7787  3.8215
  855MOL0     H12844  11.813   7.624   8.898  0.3964 -1.3959  2.0647
  855MOL0     H12845  11.756   7.395   8.841 -0.8131  1.1944  0.0148
  855MOL0     H12846  11.446   6.882   7.437 -1.2405 -2.1867 -1.2164
  855MOL0     H12847  11.290   6.912   7.619 -0.9293 -0.7786  2.5798
  855MOL0     H12848  11.129   6.917   7.971  0.6672 -0.5026 -0.5733
  855MOL0     H12849  10.927   6.992   8.077 -1.7178 -0.7626  1.1864
  855MOL0     H12850  10.592   6.953   8.241  0.1430  0.7424 -0.5666
  855MOL0     H12851  10.759   6.999   8.213 -1.4156  0.0767 -2.5470
  855MOL0     H12852  10.671   6.726   8.323 -1.7523  0.6470 -2.2782
  855MOL0     H12853  10.845   6.790   8.314  0.2741  4.2741 -5.6724
  855MOL0     H12854  10.624   6.891   8.492  0.0640  0.4646 -0.8507
  855MOL0     H12855  10.775   6.963   8.476 -2.2315  1.0859  1.5292
  855MOL0     H12856  10.762   6.825   8.666  1.0832  0.7073 -0.7722
  855MOL0     H12857  10.728   6.677   8.571  0.1731 -0.2649  1.0781
  855MOL0     H12858  11.153   6.739   8.551 -0.0364 -1.2816 -0.1952
  855MOL0     H12859  10.745   6.612   7.983 -0.6293 -0.1759 -3.2871
  855MOL0     H12860  10.970   6.526   7.915  0.2962  0.5689 -0.3309
  856MOL0     O12861   3.777   8.576   8.532 -0.4208 -0.9389  0.2943
  856MOL0     C12862   3.827   8.530   8.631  0.1556  0.5659  0.1174
  856MOL0     O12863   3.969   8.539   8.651 -0.6338 -0.4777 -0.1178
  856MOL0     C12864   4.038   8.625   8.568  0.6170 -0.0867  0.4412
  856MOL0     C12865   4.084   8.749   8.602  0.7941  0.1137 -0.4494
  856MOL0     C12866   4.164   8.817   8.521  0.4183  0.8272  0.5907
  856MOL0     C12867   4.212   8.758   8.402  0.0281 -0.0675  0.1471
  856MOL0     O12868   4.279   8.853   8.321  0.3361  0.2430 -0.1582
  856MOL0     C12869   4.302   8.829   8.183 -0.0001  1.0063 -0.4328
  856MOL0     C12870   4.396   8.937   8.139 -0.3257 -0.1622  0.0899
  856MOL0     C12871   4.472   8.913   8.016  0.2892 -1.1869 -0.1316
  856MOL0     C12872   4.548   9.030   7.959 -0.4005 -0.3792  0.0444
  856MOL0     C12873   4.619   8.980   7.825  0.7422  0.0884 -0.3726
  856MOL0     C12874   4.734   9.067   7.775 -0.7706 -0.5160 -0.2014
  856MOL0     C12875   4.790   9.035   7.633  0.2206 -0.0611  0.6792
  856MOL0     C12876   4.691   9.064   7.516  0.4043  0.5349 -0.2560
  856MOL0     N12877   4.641   8.941   7.456  0.6964  0.1615  0.4592
  856MOL0     C12878   4.718   8.853   7.385  0.2940  0.8338 -0.7560
  856MOL0     C12879   4.631   8.752   7.360 -0.0565 -0.0148 -0.9324
  856MOL0     C12880   4.654   8.635   7.284 -0.1143 -0.6961 -0.4627
  856MOL0     C12881   4.612   8.500   7.335  0.0686  0.4065 -0.4035
  856MOL0     C12882   4.572   8.407   7.228 -0.2951  0.1823 -0.2061
  856MOL0     C12883   4.544   8.262   7.277  0.1240 -0.5786 -0.4755
  856MOL0     O12884   4.478   8.179   7.182  0.0534 -0.5022  0.3853
  856MOL0     C12885   4.344   8.198   7.171 -0.7653  0.6938  1.2030
  856MOL0     C12886   4.269   8.301   7.231  0.3886 -0.3979  0.4322
  856MOL0     C12887   4.128   8.303   7.217  0.4593  0.6400  0.3690
  856MOL0     C12888   4.058   8.211   7.144  0.5357  0.8624  0.5961
  856MOL0     C12889   3.912   8.228   7.128 -0.0690  1.2799 -0.6138
  856MOL0     O12890   3.842   8.165   7.034 -0.4446  0.4836 -0.0308
  856MOL0     C12891   3.719   8.202   7.014  0.7907 -0.0186 -0.0611
  856MOL0     C12892   3.663   8.330   7.009 -0.2017  0.1652  0.1767
  856MOL0     C12893   3.529   8.350   6.986 -0.1888  0.3905  0.6922
  856MOL0     C12894   3.443   8.240   6.985 -0.3845 -0.3465 -0.0945
  856MOL0     O12895   3.295   8.239   6.972  0.7071 -1.1095  0.3504
  856MOL0     C12896   3.238   8.375   6.966 -1.0413 -0.6027 -0.4520
  856MOL0     C12897   3.091   8.373   6.940 -0.6224  0.3551 -0.3672
  856MOL0     C12898   3.033   8.495   7.000 -0.4731 -0.2561  0.4247
  856MOL0     C12899   2.885   8.491   6.969  1.1493  0.6342 -0.1060
  856MOL0     C12900   2.836   8.641   6.978 -0.3557  0.8198 -0.4713
  856MOL0     C12901   2.682   8.675   6.993 -0.1354  0.1662 -0.1976
  856MOL0     C12902   2.617   8.602   7.111  0.5579 -0.7767  1.0243
  856MOL0     C12903   2.480   8.652   7.157  0.8320 -0.0736 -0.2417
  856MOL0    Cl12904   2.365   8.662   7.024  0.5002  0.4216  0.5942
  856MOL0     C12905   3.490   8.115   6.981  0.2288 -0.1462 -0.4375
  856MOL0     C12906   3.633   8.094   6.998  0.3309 -0.5018  0.2410
  856MOL0     O12907   3.859   8.301   7.212 -0.1760 -0.0571  0.8062
  856MOL0     C12908   4.131   8.123   7.069 -1.0059  0.4167  0.1193
  856MOL0     C12909   4.266   8.104   7.089 -0.4287  0.0253 -0.1264
  856MOL0     N12910   4.512   8.770   7.424  1.2239  0.3506  0.0747
  856MOL0     N12911   4.516   8.894   7.474 -0.9610  0.2790 -0.5310
  856MOL0     C12912   4.180   8.623   8.375 -1.0864 -0.6006  0.4910
  856MOL0     C12913   4.084   8.565   8.456  0.3741 -0.1666 -0.6738
  856MOL0     C12914   3.745   8.433   8.702  0.1971 -0.1669 -0.0901
  856MOL0     C12915   3.614   8.402   8.677 -0.4816 -1.4825  0.1301
  856MOL0     C12916   3.549   8.316   8.753 -1.1950  0.6026  0.4768
  856MOL0     C12917   3.600   8.264   8.869 -0.1144  1.5470 -0.0030
  856MOL0     O12918   3.524   8.175   8.939  0.0067  0.2135  0.9029
  856MOL0     C12919   3.433   8.248   9.027  0.3300  0.2928  1.2801
  856MOL0     C12920   3.505   8.324   9.138 -0.4583  0.3985 -0.4077
  856MOL0     C12921   3.589   8.227   9.226  0.3714  0.2207  0.1375
  856MOL0     C12922   3.682   8.291   9.327  0.0963  0.5477  0.6504
  856MOL0     C12923   3.733   8.164   9.392 -1.0074 -0.9864  0.4711
  856MOL0     C12924   3.778   8.065   9.449  0.1680  1.0193  0.8074
  856MOL0     C12925   3.735   8.274   8.893 -0.5398 -1.2762 -0.3997
  856MOL0     C12926   3.810   8.361   8.803  0.9038  0.3082 -0.8565
  856MOL0     H12927   4.062   8.779   8.704  0.5154 -0.5305 -0.3182
  856MOL0     H12928   4.202   8.911   8.559 -1.8997  1.6046  1.0979
  856MOL0     H12929   4.210   8.827   8.124 -0.2109  2.8314 -0.2543
  856MOL0     H12930   4.355   8.734   8.178  1.7829  1.5743  3.6365
  856MOL0     H12931   4.471   8.953   8.217  0.9619  1.4471 -1.4073
  856MOL0     H12932   4.337   9.027   8.121 -0.1051  0.5534  2.5406
  856MOL0     H12933   4.403   8.890   7.935 -0.1984 -2.1959  0.5461
  856MOL0     H12934   4.534   8.824   8.023  1.3031 -0.4051  1.6215
  856MOL0     H12935   4.482   9.111   7.926 -0.5139 -0.7207 -0.5871
  856MOL0     H12936   4.624   9.074   8.024 -2.4949  1.4471  1.3960
  856MOL0     H12937   4.531   8.990   7.761 -1.2490 -3.8112  1.4026
  856MOL0     H12938   4.651   8.876   7.821 -0.0322 -0.1270 -2.4959
  856MOL0     H12939   4.821   9.043   7.837 -0.1725 -4.1078 -2.1705
  856MOL0     H12940   4.714   9.174   7.787  1.1984  0.0212 -1.3300
  856MOL0     H12941   4.887   9.085   7.628 -0.1491  0.6414  0.4109
  856MOL0     H12942   4.820   8.930   7.625  3.4875  0.8538 -0.9737
  856MOL0     H12943   4.738   9.120   7.434 -1.2413  0.0331 -1.5962
  856MOL0     H12944   4.614   9.132   7.555 -0.6657 -0.7621 -0.0673
  856MOL0     H12945   4.821   8.868   7.352  0.7690  1.8864  1.0468
  856MOL0     H12946   4.761   8.621   7.265 -0.8341 -5.1092 -2.6248
  856MOL0     H12947   4.602   8.655   7.190  1.4753 -0.6551 -1.3718
  856MOL0     H12948   4.521   8.510   7.394 -1.4566 -2.1822 -2.1231
  856MOL0     H12949   4.684   8.449   7.400 -1.2151 -0.4346  0.3832
  856MOL0     H12950   4.494   8.463   7.176  0.8320  0.8362 -1.2574
  856MOL0     H12951   4.651   8.392   7.154  0.4163 -0.5188  0.6625
  856MOL0     H12952   4.486   8.266   7.370  2.7062 -2.6920  1.3732
  856MOL0     H12953   4.641   8.219   7.301  0.3343  0.5791  0.9534
  856MOL0     H12954   4.302   8.381   7.297 -2.9856  3.4410 -2.0486
  856MOL0     H12955   4.093   8.389   7.273 -0.7541  0.3091  0.1673
  856MOL0     H12956   3.744   8.398   7.030  0.7230 -0.6119 -0.7854
  856MOL0     H12957   3.482   8.448   6.982 -3.5528 -1.1024  0.5059
  856MOL0     H12958   3.292   8.428   6.887  0.0152 -0.8491  0.0865
  856MOL0     H12959   3.261   8.409   7.068 -0.5887 -2.1096 -0.0334
  856MOL0     H12960   3.039   8.288   6.986 -0.4868  0.7377  0.4972
  856MOL0     H12961   3.068   8.371   6.833 -0.9535 -0.8154 -0.2876
  856MOL0     H12962   3.080   8.590   6.973  0.5363 -0.1959  2.2812
  856MOL0     H12963   3.038   8.481   7.108 -4.8241 -2.0340  0.6223
  856MOL0     H12964   2.859   8.450   6.871 -0.1081  0.9800  0.0551
  856MOL0     H12965   2.834   8.428   7.043  2.8499  0.4846  0.9958
  856MOL0     H12966   2.886   8.707   6.906  1.9369  1.2052  1.3685
  856MOL0     H12967   2.882   8.671   7.072  0.8978 -3.6301  0.5976
  856MOL0     H12968   2.623   8.659   6.903 -1.3805 -1.3394  0.8269
  856MOL0     H12969   2.673   8.784   6.995 -0.5748  0.1675 -1.4181
  856MOL0     H12970   2.616   8.503   7.064 -0.0555 -0.8150  1.1077
  856MOL0     H12971   2.676   8.599   7.203  0.5529  2.0325  1.2120
  856MOL0     H12972   2.487   8.741   7.220 -1.6896  0.3389 -0.4575
  856MOL0     H12973   2.447   8.565   7.214  1.1025 -0.6684 -0.9659
  856MOL0     H12974   3.429   8.027   6.961 -1.2793  0.4648  1.1362
  856MOL0     H12975   3.666   7.991   7.002  4.5884  0.7061  0.6628
  856MOL0     H12976   4.082   8.073   6.986 -1.2931  2.2602 -0.8883
  856MOL0     H12977   4.307   8.020   7.035 -1.3136 -0.8531  0.5465
  856MOL0     H12978   4.237   8.572   8.298  1.3114 -0.1373  1.8852
  856MOL0     H12979   4.046   8.464   8.440 -1.0098  0.4948 -1.8079
  856MOL0     H12980   3.569   8.435   8.584  2.7324 -0.0846 -1.0690
  856MOL0     H12981   3.446   8.286   8.733 -0.0683 -2.5086 -1.3263
  856MOL0     H12982   3.355   8.184   9.070 -1.7916  2.0617  0.2752
  856MOL0     H12983   3.372   8.318   8.969 -0.4727 -1.5863 -0.2656
  856MOL0     H12984   3.562   8.396   9.080 -0.9869  1.3463  0.2267
  856MOL0     H12985   3.424   8.370   9.195 -0.9133 -1.1640  0.2784
  856MOL0     H12986   3.646   8.159   9.162  1.4716  2.8163 -1.8171
  856MOL0     H12987   3.513   8.176   9.285 -0.7694 -1.7186 -2.7755
  856MOL0     H12988   3.754   8.344   9.264 -0.2813 -1.5199 -1.6743
  856MOL0     H12989   3.648   8.357   9.407  1.2779  0.3015  1.3694
  856MOL0     H12990   3.836   7.992   9.501  0.2373  0.0780 -0.5229
  856MOL0     H12991   3.789   8.215   8.967 -1.9963  1.1113  2.7938
  856MOL0     H12992   3.917   8.370   8.821  0.3353  2.7452  2.0094
  857MOL0     O12993  10.628   6.292   2.171  0.3945 -0.5409  0.5222
  857MOL0     C12994  10.740   6.283   2.219  0.1473  0.2998 -0.0698
  857MOL0     O12995  10.780   6.192   2.317 -0.6286  0.0791 -0.0120
  857MOL0     C12996  10.688   6.102   2.360  0.1797  0.4986 -0.0510
  857MOL0     C12997  10.579   6.057   2.282  0.0492  0.1972  0.2391
  857MOL0     C12998  10.500   5.946   2.334  0.7430  0.1548  0.2137
  857MOL0     C12999  10.523   5.899   2.468  0.9832 -0.1265 -0.3241
  857MOL0     O13000  10.462   5.792   2.523 -0.3648 -0.0367 -0.2567
  857MOL0     C13001  10.376   5.715   2.434  0.0368 -0.7007 -0.0575
  857MOL0     C13002  10.336   5.595   2.505 -0.8839 -0.1652  0.3385
  857MOL0     C13003  10.427   5.469   2.489 -0.3460 -0.1636  1.0570
  857MOL0     C13004  10.374   5.358   2.572  0.0275  0.6494  0.9066
  857MOL0     C13005  10.421   5.231   2.533 -0.1206  0.0838  0.6475
  857MOL0     C13006  10.361   5.125   2.630 -0.5202 -0.4173 -0.1740
  857MOL0     C13007  10.430   4.983   2.608  0.4490 -1.2173 -0.5768
  857MOL0     C13008  10.341   4.867   2.655 -0.2701 -1.0264  0.6076
  857MOL0     N13009  10.293   4.856   2.793 -0.2385  0.3695 -0.4411
  857MOL0     C13010  10.351   4.787   2.892 -0.3645  1.0631  0.9550
  857MOL0     C13011  10.295   4.836   3.009  1.1582  0.0755  0.6488
  857MOL0     C13012  10.324   4.793   3.147 -0.6489 -0.7524  0.9707
  857MOL0     C13013  10.458   4.849   3.194  0.6500 -0.6702 -1.5405
  857MOL0     C13014  10.490   4.835   3.348 -0.4346  0.2330 -0.2616
  857MOL0     C13015  10.627   4.784   3.379 -0.0173  0.4037 -0.3375
  857MOL0     O13016  10.673   4.668   3.306  0.4817  0.1369  0.0118
  857MOL0     C13017  10.615   4.538   3.338  0.3826  0.4805  0.8976
  857MOL0     C13018  10.533   4.482   3.243 -0.0965 -0.2875 -0.9368
  857MOL0     C13019  10.463   4.359   3.289  0.1593  0.6243  0.0108
  857MOL0     C13020  10.480   4.306   3.418  0.7362  0.7440  1.0602
  857MOL0     C13021  10.393   4.198   3.467  0.0129 -1.3387 -0.3654
  857MOL0     O13022  10.317   4.148   3.378  0.3184 -0.5556  0.3231
  857MOL0     C13023  10.250   4.036   3.412 -0.9007  0.1636  0.2100
  857MOL0     C13024  10.228   3.942   3.309 -0.4635  0.5488  0.2000
  857MOL0     C13025  10.131   3.839   3.322 -0.1122  1.1972 -0.0233
  857MOL0     C13026  10.061   3.820   3.448  1.2917 -0.4177 -0.0045
  857MOL0     O13027   9.998   3.698   3.459 -1.1941  0.4131  0.1081
  857MOL0     C13028   9.886   3.681   3.547 -0.1113 -0.8363 -0.5341
  857MOL0     C13029   9.803   3.562   3.492 -0.3849 -0.2912 -0.6093
  857MOL0     C13030   9.779   3.568   3.335 -0.4049  0.0369 -0.6332
  857MOL0     C13031   9.693   3.688   3.289 -0.6535 -1.0398 -0.1575
  857MOL0     C13032   9.720   3.717   3.135 -0.3561 -0.0096 -0.1166
  857MOL0     C13033   9.630   3.820   3.071  0.2678  0.1436  0.1238
  857MOL0     C13034   9.482   3.781   3.096 -0.8901 -0.5618 -0.2117
  857MOL0     C13035   9.384   3.835   2.999  0.4338 -0.7432  0.0429
  857MOL0    Cl13036   9.401   4.018   3.010  0.2881 -0.2586 -0.1852
  857MOL0     C13037  10.079   3.918   3.547  0.8046 -1.2482 -0.5195
  857MOL0     C13038  10.172   4.026   3.531 -0.3121  0.7361 -0.7217
  857MOL0     O13039  10.409   4.170   3.587  0.1305 -0.9717  0.4083
  857MOL0     C13040  10.573   4.366   3.504  0.1044 -0.3068  0.2633
  857MOL0     C13041  10.640   4.483   3.459 -0.0122  0.1412 -0.1835
  857MOL0     N13042  10.203   4.933   2.966 -0.4100 -0.2154 -0.1657
  857MOL0     N13043  10.195   4.943   2.841  0.4263  0.6981  1.0926
  857MOL0     C13044  10.628   5.967   2.545 -0.2249  0.7298  0.1529
  857MOL0     C13045  10.702   6.073   2.496  1.4087 -0.2986 -0.9034
  857MOL0     C13046  10.819   6.394   2.168 -0.0403  0.4541  0.5503
  857MOL0     C13047  10.767   6.494   2.086 -1.0235 -0.0934 -0.0052
  857MOL0     C13048  10.852   6.602   2.057  0.1851  0.2540  0.3203
  857MOL0     C13049  10.983   6.603   2.107 -0.0114  0.0110 -0.5321
  857MOL0     O13050  11.077   6.688   2.051  0.6371 -0.3218 -0.6666
  857MOL0     C13051  11.031   6.791   1.969 -0.4523  0.6430  0.5014
  857MOL0     C13052  11.136   6.883   1.911  0.4413  0.8139 -0.0267
  857MOL0     C13053  11.194   6.821   1.793  0.2439  0.2498  0.5240
  857MOL0     C13054  11.322   6.891   1.748 -0.8411  0.3366 -0.6590
  857MOL0     C13055  11.385   6.815   1.634  0.2347 -0.0782  0.0125
  857MOL0     C13056  11.425   6.766   1.529  1.3669 -0.6754  0.2371
  857MOL0     C13057  11.040   6.501   2.186  0.4191  0.1909 -0.2085
  857MOL0     C13058  10.952   6.398   2.222 -0.2327 -0.4642 -0.2870
  857MOL0     H13059  10.564   6.079   2.177 -2.3387 -3.1868 -0.2907
  857MOL0     H13060  10.426   5.902   2.268  2.2145 -1.9572 -0.1342
  857MOL0     H13061  10.435   5.688   2.346  0.9059  0.8534  0.0015
  857MOL0     H13062  10.293   5.780   2.405  1.4810  0.7490 -1.1165
  857MOL0     H13063  10.236   5.571   2.468 -0.3054  0.5478 -1.8423
  857MOL0     H13064  10.330   5.613   2.613  1.7978  0.3710  0.4745
  857MOL0     H13065  10.528   5.494   2.523  0.3114 -0.0981 -0.8268
  857MOL0     H13066  10.446   5.441   2.385  0.9266 -0.3065  1.3086
  857MOL0     H13067  10.385   5.378   2.679  0.7382  1.6258  0.6618
  857MOL0     H13068  10.265   5.362   2.556  0.1527  4.3437 -0.0415
  857MOL0     H13069  10.530   5.221   2.531 -0.2867 -2.4833  0.9793
  857MOL0     H13070  10.387   5.193   2.436  0.0654 -0.1110  0.6582
  857MOL0     H13071  10.255   5.122   2.603 -0.6479  2.7551 -0.3844
  857MOL0     H13072  10.365   5.152   2.736  2.7819  0.7578 -0.4802
  857MOL0     H13073  10.456   4.970   2.503 -0.3573  3.3312 -1.5233
  857MOL0     H13074  10.526   4.965   2.658 -0.2994 -3.1588  0.2596
  857MOL0     H13075  10.401   4.779   2.630  1.0726  0.3960 -1.5016
  857MOL0     H13076  10.249   4.868   2.595  0.1458  0.5990 -0.0651
  857MOL0     H13077  10.423   4.706   2.889 -0.5665  0.6368  4.0938
  857MOL0     H13078  10.308   4.685   3.148 -1.3647 -0.6701  3.1832
  857MOL0     H13079  10.243   4.835   3.207 -0.9366 -1.0174  0.7668
  857MOL0     H13080  10.454   4.956   3.170  0.0199  0.3729  2.4031
  857MOL0     H13081  10.535   4.800   3.135  0.2055 -3.3683 -0.0410
  857MOL0     H13082  10.462   4.929   3.397 -2.0676 -1.7910  2.9691
  857MOL0     H13083  10.420   4.758   3.379 -0.4926  1.7537  4.1304
  857MOL0     H13084  10.644   4.763   3.485 -1.3336  0.9177 -0.0091
  857MOL0     H13085  10.697   4.863   3.352  1.7044 -1.5985 -2.0489
  857MOL0     H13086  10.521   4.522   3.143 -0.6752  2.3562  0.1120
  857MOL0     H13087  10.399   4.319   3.211  3.7889 -3.2205 -1.4004
  857MOL0     H13088  10.297   3.928   3.226 -0.5052 -1.1047  0.4251
  857MOL0     H13089  10.123   3.776   3.235 -2.3628 -1.0698  1.6994
  857MOL0     H13090   9.832   3.776   3.559  1.4920  0.3097 -1.9835
  857MOL0     H13091   9.912   3.653   3.650 -1.6055  2.4672  0.9015
  857MOL0     H13092   9.710   3.575   3.549  0.3289  1.8484  0.1744
  857MOL0     H13093   9.840   3.463   3.522  0.7017  1.4010  4.8088
  857MOL0     H13094   9.721   3.479   3.313  0.9663 -0.9217 -0.5018
  857MOL0     H13095   9.873   3.554   3.280 -0.0929 -1.8478  0.3100
  857MOL0     H13096   9.590   3.659   3.310 -1.8616  2.1906 -1.0033
  857MOL0     H13097   9.717   3.779   3.344 -0.4057 -0.6791 -0.8487
  857MOL0     H13098   9.701   3.629   3.073  1.8866 -0.2112 -0.6065
  857MOL0     H13099   9.823   3.753   3.125  0.1738 -1.2478  0.6653
  857MOL0     H13100   9.641   3.834   2.963 -2.6707 -2.6502 -0.6987
  857MOL0     H13101   9.656   3.912   3.124  1.8140 -0.6899  0.8663
  857MOL0     H13102   9.479   3.672   3.108 -0.6203 -0.3186  2.7683
  857MOL0     H13103   9.441   3.824   3.188  0.1506 -3.5570  1.7931
  857MOL0     H13104   9.284   3.795   3.012  0.1100  0.7342  3.0066
  857MOL0     H13105   9.416   3.809   2.898 -2.0725 -1.5833 -0.5875
  857MOL0     H13106  10.026   3.896   3.639  0.5495 -1.0288 -0.6115
  857MOL0     H13107  10.174   4.098   3.612  1.2163 -0.0434 -0.0297
  857MOL0     H13108  10.582   4.354   3.612 -0.9642  0.0514  0.4034
  857MOL0     H13109  10.706   4.524   3.535 -0.9652  1.0141  0.1941
  857MOL0     H13110  10.652   5.939   2.647 -1.6213  0.3398  0.3888
  857MOL0     H13111  10.787   6.117   2.546 -0.2471  2.3369 -0.1585
  857MOL0     H13112  10.664   6.490   2.052 -1.3405  1.3123  0.6977
  857MOL0     H13113  10.823   6.689   1.999 -0.0427 -0.6970 -1.0156
  857MOL0     H13114  10.959   6.845   2.032 -2.0056 -2.6300  1.7688
  857MOL0     H13115  10.976   6.761   1.879 -0.5739  1.0865  0.4232
  857MOL0     H13116  11.094   6.980   1.882 -0.4066  0.6309  0.5304
  857MOL0     H13117  11.208   6.905   1.990 -0.2294  3.1072  0.0294
  857MOL0     H13118  11.121   6.817   1.711  0.6808  2.3109 -0.0156
  857MOL0     H13119  11.228   6.721   1.823 -3.5842 -2.0005 -1.7643
  857MOL0     H13120  11.319   6.998   1.725  3.4752  0.5546 -1.0120
  857MOL0     H13121  11.384   6.876   1.837 -1.6787  0.3303 -0.0659
  857MOL0     H13122  11.429   6.720   1.433 -0.5142 -0.0234 -0.2054
  857MOL0     H13123  11.140   6.516   2.226  0.0092 -0.1447  0.9889
  857MOL0     H13124  10.992   6.319   2.284  1.1116 -0.8021 -1.5117
  858MOL0     O13125   6.399   1.297   0.817 -1.1278  0.2931  0.2847
  858MOL0     C13126   6.333   1.206   0.771 -0.3329 -0.3428 -0.7160
  858MOL0     O13127   6.208   1.222   0.700  0.0974 -0.0734  0.1409
  858MOL0     C13128   6.160   1.341   0.648 -0.1280  0.2287  0.3038
  858MOL0     C13129   6.131   1.350   0.508 -0.1602  0.2797  0.0822
  858MOL0     C13130   6.085   1.468   0.455  0.6873 -0.9577 -0.2373
  858MOL0     C13131   6.081   1.583   0.537  0.1040  0.4218 -1.3544
  858MOL0     O13132   6.040   1.695   0.482 -0.2920  0.4494  0.0729
  858MOL0     C13133   5.948   1.692   0.366  0.1367 -0.6453 -1.2234
  858MOL0     C13134   5.815   1.625   0.400 -0.0400 -0.2374  1.0442
  858MOL0     C13135   5.746   1.698   0.511 -0.2994  0.6358  0.9081
  858MOL0     C13136   5.732   1.856   0.504  0.2173  0.2815  1.3573
  858MOL0     C13137   5.641   1.918   0.612 -0.0242  0.1718  0.5818
  858MOL0     C13138   5.708   1.951   0.745  0.4367  0.2565 -0.2205
  858MOL0     C13139   5.606   1.999   0.856  0.1330 -0.7556  0.4277
  858MOL0     C13140   5.514   1.904   0.927  0.7794 -0.2335  0.2671
  858MOL0     N13141   5.453   1.965   1.051 -0.4115  0.7767 -0.5847
  858MOL0     C13142   5.519   2.025   1.158  0.1619  0.4929 -0.5940
  858MOL0     C13143   5.417   2.085   1.228 -0.3534 -0.7810  0.3652
  858MOL0     C13144   5.427   2.176   1.350  0.2746  0.3370 -1.1855
  858MOL0     C13145   5.488   2.314   1.338  0.6327  0.6187 -0.2066
  858MOL0     C13146   5.419   2.417   1.246 -0.6516  0.6051 -0.5753
  858MOL0     C13147   5.468   2.423   1.098 -0.3607 -0.0537 -0.5253
  858MOL0     O13148   5.613   2.418   1.104 -0.5878 -0.4475 -0.6167
  858MOL0     C13149   5.683   2.392   0.993  0.0367  0.1734 -0.3443
  858MOL0     C13150   5.820   2.404   0.995  0.6003  0.6640  0.0679
  858MOL0     C13151   5.901   2.383   0.885 -0.1413 -0.3906 -0.3534
  858MOL0     C13152   5.842   2.372   0.755 -0.1537  0.4273  0.2827
  858MOL0     C13153   5.930   2.334   0.640 -0.3263 -0.1878  0.4796
  858MOL0     O13154   6.053   2.288   0.662 -0.2374 -0.4270 -0.2483
  858MOL0     C13155   6.132   2.269   0.554 -1.2028 -0.4215 -0.5004
  858MOL0     C13156   6.249   2.337   0.539 -0.2137 -0.8132  0.5128
  858MOL0     C13157   6.326   2.317   0.421  0.2051 -1.1459 -0.0833
  858MOL0     C13158   6.290   2.215   0.336 -0.7475  0.4002  0.2719
  858MOL0     O13159   6.360   2.191   0.220  0.2422 -0.0625  0.5389
  858MOL0     C13160   6.286   2.149   0.092 -0.7454  0.6911 -0.6705
  858MOL0     C13161   6.169   2.244   0.055  0.7696 -0.4250  0.3062
  858MOL0     C13162   6.116   2.259  -0.094 -0.3774  0.7028 -0.5447
  858MOL0     C13163   6.090   2.404  -0.137 -0.7249  1.3928 -0.2209
  858MOL0     C13164   5.974   2.434  -0.229 -0.1833  0.1067  0.4269
  858MOL0     C13165   5.988   2.359  -0.364 -0.5064  0.3049 -0.6964
  858MOL0     C13166   5.876   2.393  -0.463 -0.9615  0.8936 -0.9349
  858MOL0     C13167   5.880   2.541  -0.504  0.0616 -0.5236 -0.4242
  858MOL0    Cl13168   5.812   2.553  -0.663  0.3578 -0.4006 -0.2180
  858MOL0     C13169   6.190   2.126   0.377 -0.9069 -0.4816 -0.0392
  858MOL0     C13170   6.104   2.153   0.480 -0.3454  0.0850  0.1327
  858MOL0     O13171   5.878   2.332   0.531  0.1329 -0.4038  1.1236
  858MOL0     C13172   5.703   2.384   0.750 -0.6104  0.9436  0.1729
  858MOL0     C13173   5.619   2.381   0.865 -0.0069 -0.9164 -0.3050
  858MOL0     N13174   5.299   2.048   1.168  0.1781 -0.0129 -0.6470
  858MOL0     N13175   5.318   1.971   1.065  0.4950  0.4140 -0.2137
  858MOL0     C13176   6.119   1.581   0.670 -0.0928 -0.3865 -0.2066
  858MOL0     C13177   6.150   1.459   0.728 -0.4998 -0.9600  0.5210
  858MOL0     C13178   6.359   1.073   0.811 -1.0627 -0.9056 -0.2292
  858MOL0     C13179   6.425   1.056   0.938  0.5207 -0.0697 -0.7853
  858MOL0     C13180   6.436   0.923   0.990  0.7540 -0.2068 -0.1947
  858MOL0     C13181   6.373   0.813   0.921  0.3868  0.0166 -0.0295
  858MOL0     O13182   6.385   0.681   0.964 -0.0274 -0.8584 -1.0464
  858MOL0     C13183   6.461   0.647   1.079 -0.0202 -0.3503  0.6388
  858MOL0     C13184   6.434   0.503   1.095  0.9596  0.1692 -0.0353
  858MOL0     C13185   6.498   0.412   0.988 -0.3351 -0.9738 -0.4258
  858MOL0     C13186   6.475   0.262   1.023  0.0572 -0.2176 -0.6481
  858MOL0     C13187   6.555   0.171   0.937  0.4421 -0.7866 -0.2119
  858MOL0     C13188   6.633   0.109   0.871  0.0329  0.3046 -0.4151
  858MOL0     C13189   6.323   0.834   0.784 -0.0276 -0.3403  0.0354
  858MOL0     C13190   6.320   0.969   0.731  0.5061 -0.2188  0.8514
  858MOL0     H13191   6.141   1.271   0.434 -0.5465 -0.5073  0.8531
  858MOL0     H13192   6.042   1.470   0.355  1.0369  0.4569 -0.3911
  858MOL0     H13193   6.004   1.637   0.289  0.4760  0.7881 -2.0417
  858MOL0     H13194   5.948   1.796   0.330 -2.5827  0.7239  2.1720
  858MOL0     H13195   5.826   1.519   0.422 -0.2556 -0.1284  1.6882
  858MOL0     H13196   5.751   1.643   0.313  0.1965 -0.9027  0.7304
  858MOL0     H13197   5.793   1.663   0.604  2.8044 -2.5249 -1.5807
  858MOL0     H13198   5.644   1.658   0.516  0.9962 -2.9587  1.9699
  858MOL0     H13199   5.836   1.890   0.496  0.9131 -2.0697 -1.0213
  858MOL0     H13200   5.684   1.886   0.411  2.1219  0.8417  0.4949
  858MOL0     H13201   5.565   1.841   0.629  0.2600 -0.9735 -2.6504
  858MOL0     H13202   5.600   2.014   0.579  1.3931  0.7058  0.3294
  858MOL0     H13203   5.784   2.030   0.739 -2.1180  2.7511 -2.1782
  858MOL0     H13204   5.752   1.860   0.786 -0.8414  0.1649  1.0121
  858MOL0     H13205   5.672   2.048   0.928 -1.1597  0.6845  0.6970
  858MOL0     H13206   5.553   2.086   0.815 -0.9870 -2.4317 -1.9202
  858MOL0     H13207   5.565   1.814   0.962  0.1122  0.0172  2.0314
  858MOL0     H13208   5.436   1.876   0.856  0.2457  0.0545  0.7288
  858MOL0     H13209   5.625   2.025   1.183  0.4265 -3.8937 -1.0427
  858MOL0     H13210   5.483   2.129   1.432  0.1889  1.8410 -0.2127
  858MOL0     H13211   5.331   2.185   1.401  1.5068 -0.1588  1.3633
  858MOL0     H13212   5.593   2.313   1.307  0.5043  4.6329 -1.4636
  858MOL0     H13213   5.487   2.359   1.437 -1.0689  0.3858 -0.0949
  858MOL0     H13214   5.311   2.404   1.255 -0.5076 -2.4048 -2.0661
  858MOL0     H13215   5.446   2.515   1.286 -1.4377  0.0932  1.2895
  858MOL0     H13216   5.453   2.524   1.058  1.1163  1.1165  1.6609
  858MOL0     H13217   5.413   2.349   1.040 -2.4644  0.5348  0.6106
  858MOL0     H13218   5.864   2.438   1.088  1.5011 -2.6862  1.0186
  858MOL0     H13219   6.008   2.392   0.902 -0.1520  0.8204 -0.8370
  858MOL0     H13220   6.285   2.402   0.619  3.4967 -0.7645 -1.0262
  858MOL0     H13221   6.404   2.383   0.385 -0.9368 -0.0961 -0.7151
  858MOL0     H13222   6.254   2.044   0.102  2.2527 -0.5865 -2.8692
  858MOL0     H13223   6.355   2.159   0.008  1.8582 -1.3100  1.0766
  858MOL0     H13224   6.213   2.338   0.089  0.7542 -0.1754 -0.3469
  858MOL0     H13225   6.081   2.245   0.120 -0.0330 -3.4498 -0.5580
  858MOL0     H13226   6.028   2.196  -0.099  1.0887 -1.6481  1.1426
  858MOL0     H13227   6.191   2.213  -0.159 -1.1569  0.2121 -1.1168
  858MOL0     H13228   6.077   2.474  -0.054 -1.4976  0.7197  0.2403
  858MOL0     H13229   6.184   2.427  -0.188 -0.2552 -2.4853 -1.4387
  858MOL0     H13230   5.978   2.543  -0.239 -0.6502  0.4998  3.4405
  858MOL0     H13231   5.874   2.421  -0.185 -0.7702 -1.6919 -1.2973
  858MOL0     H13232   5.991   2.251  -0.349  1.6155  0.4564  0.3029
  858MOL0     H13233   6.089   2.380  -0.399 -0.0592 -0.1124  0.3070
  858MOL0     H13234   5.880   2.311  -0.535 -0.0686  0.0411  0.0428
  858MOL0     H13235   5.780   2.373  -0.416 -0.2811 -2.4639 -0.7475
  858MOL0     H13236   5.986   2.565  -0.517  0.0218 -0.7938 -1.2801
  858MOL0     H13237   5.837   2.613  -0.433  1.9383  0.6470 -0.4009
  858MOL0     H13238   6.169   2.036   0.320  1.5592 -0.9480 -0.3061
  858MOL0     H13239   6.028   2.076   0.493  0.6347 -0.9601 -0.1804
  858MOL0     H13240   5.655   2.379   0.653 -2.0076  1.3318  0.8267
  858MOL0     H13241   5.512   2.378   0.853 -0.4769 -1.3197  3.1269
  858MOL0     H13242   6.118   1.666   0.737  3.6557 -1.6250  1.7262
  858MOL0     H13243   6.179   1.470   0.832 -2.5774  2.8424  0.8828
  858MOL0     H13244   6.465   1.145   0.986 -1.0019  0.5973 -0.7048
  858MOL0     H13245   6.487   0.887   1.079  0.8894 -0.6125 -0.4333
  858MOL0     H13246   6.437   0.715   1.161  2.1593  1.8842 -0.4582
  858MOL0     H13247   6.567   0.657   1.056 -0.3794 -4.1789 -4.3791
  858MOL0     H13248   6.481   0.473   1.189 -0.2494  0.4894  0.6856
  858MOL0     H13249   6.325   0.497   1.100  0.8732  1.2072 -0.3491
  858MOL0     H13250   6.607   0.426   0.988 -0.6245  1.7271  0.1846
  858MOL0     H13251   6.457   0.420   0.887 -1.3606 -3.6310 -0.3112
  858MOL0     H13252   6.493   0.245   1.130 -0.1302  2.3523 -0.1409
  858MOL0     H13253   6.371   0.241   0.997  0.5958 -4.4976 -0.0262
  858MOL0     H13254   6.690   0.050   0.802 -1.3560 -0.8322 -0.6161
  858MOL0     H13255   6.293   0.750   0.723  0.5321 -2.0156  1.9873
  858MOL0     H13256   6.261   0.995   0.644  0.2018 -2.6162  0.2569
  859MOL0     O13257  10.760  11.292   3.219 -0.4932 -0.2759  0.3899
  859MOL0     C13258  10.669  11.268   3.292 -0.7588 -0.4877  0.2961
  859MOL0     O13259  10.568  11.364   3.328  0.4053 -0.3262  0.3044
  859MOL0     C13260  10.526  11.460   3.242 -0.0178 -0.7485 -0.0162
  859MOL0     C13261  10.510  11.430   3.104  0.6218  0.8215  0.4683
  859MOL0     C13262  10.431  11.510   3.028 -0.3976 -0.1386  0.6174
  859MOL0     C13263  10.376  11.625   3.077  0.0930 -0.4081  0.2843
  859MOL0     O13264  10.287  11.707   3.010  1.4373  0.3408 -0.1200
  859MOL0     C13265  10.216  11.657   2.896 -0.0759 -0.4778 -0.9661
  859MOL0     C13266  10.118  11.755   2.836 -0.6437 -0.5721  0.3126
  859MOL0     C13267   9.986  11.766   2.914  0.0236 -0.2713 -0.6525
  859MOL0     C13268   9.912  11.636   2.943  0.2528  0.9843  0.3741
  859MOL0     C13269   9.762  11.669   2.973 -0.4015 -0.0752  0.2566
  859MOL0     C13270   9.675  11.703   2.849  0.2218  0.4388 -0.7103
  859MOL0     C13271   9.565  11.807   2.886 -0.6092 -0.2083 -0.5538
  859MOL0     C13272   9.485  11.850   2.766 -0.3601  0.7482  0.0521
  859MOL0     N13273   9.405  11.975   2.794 -0.5355 -1.1256  0.1350
  859MOL0     C13274   9.279  11.987   2.851 -0.2182  0.1432  0.3449
  859MOL0     C13275   9.267  12.111   2.892  0.7896 -1.0937  1.0747
  859MOL0     C13276   9.139  12.171   2.943 -0.1186 -0.3979 -0.1284
  859MOL0     C13277   9.040  12.172   2.820 -0.2115 -0.5349  1.0675
  859MOL0     C13278   8.900  12.210   2.852  0.1353 -0.4618 -0.4299
  859MOL0     C13279   8.882  12.364   2.856 -0.4288 -1.0849 -0.4932
  859MOL0     O13280   8.792  12.408   2.964 -0.6129 -0.5110 -0.1745
  859MOL0     C13281   8.833  12.428   3.097  0.1307 -0.1341  0.0036
  859MOL0     C13282   8.960  12.417   3.150 -0.1649  0.8017  1.0813
  859MOL0     C13283   8.987  12.424   3.288  0.2601 -0.3324 -1.4170
  859MOL0     C13284   8.881  12.454   3.374 -0.3501 -0.7694 -0.2466
  859MOL0     C13285   8.911  12.480   3.516 -0.8482  0.3403 -0.3688
  859MOL0     O13286   8.813  12.512   3.603  0.2580  0.2548  1.0636
  859MOL0     C13287   8.845  12.530   3.732  0.1026  0.1850 -0.1897
  859MOL0     C13288   8.893  12.655   3.780 -1.0013  0.0863  0.0286
  859MOL0     C13289   8.937  12.664   3.914 -0.2593 -0.0825 -0.3826
  859MOL0     C13290   8.909  12.560   4.006  0.5568  0.0492 -0.6253
  859MOL0     O13291   8.909  12.570   4.148  0.1337 -0.4130 -0.4251
  859MOL0     C13292   8.967  12.690   4.207  0.8056  0.4959  0.0614
  859MOL0     C13293   9.113  12.672   4.210  0.4166 -0.2324 -0.3051
  859MOL0     C13294   9.194  12.784   4.270  0.2073  0.0472 -0.2029
  859MOL0     C13295   9.191  12.922   4.208 -0.8011 -0.2335  0.4343
  859MOL0     C13296   9.283  13.015   4.284  1.3868  0.9285 -0.1497
  859MOL0     C13297   9.279  13.157   4.208 -0.3613  0.1188 -0.6769
  859MOL0     C13298   9.413  13.216   4.177 -0.1186 -0.2663 -0.1738
  859MOL0     C13299   9.383  13.355   4.098  0.0391 -0.7574 -1.8452
  859MOL0    Cl13300   9.302  13.465   4.215 -0.3301 -0.5882 -0.2671
  859MOL0     C13301   8.832  12.446   3.963 -0.9337 -0.3186  0.2848
  859MOL0     C13302   8.813  12.427   3.823  1.5089 -0.4016  0.5107
  859MOL0     O13303   9.025  12.453   3.563  0.6265  0.2348 -0.1724
  859MOL0     C13304   8.756  12.461   3.317 -0.7514  0.1072 -0.5644
  859MOL0     C13305   8.731  12.446   3.188 -0.7245  0.0831  0.4517
  859MOL0     N13306   9.381  12.179   2.875  0.1425  0.0116  0.4456
  859MOL0     N13307   9.462  12.097   2.816 -0.2832 -0.4175 -0.5078
  859MOL0     C13308  10.393  11.654   3.215  0.0752  0.0338 -0.0230
  859MOL0     C13309  10.454  11.566   3.298 -0.1401 -0.6071  0.1156
  859MOL0     C13310  10.660  11.140   3.354  0.2328  0.4143 -0.8909
  859MOL0     C13311  10.777  11.068   3.370 -0.0706  1.5542 -0.0309
  859MOL0     C13312  10.779  10.940   3.433  0.0043  0.1886  0.0259
  859MOL0     C13313  10.659  10.868   3.469 -0.5698 -0.1629  0.0556
  859MOL0     O13314  10.642  10.751   3.539  0.0391  0.7469  1.1387
  859MOL0     C13315  10.757  10.685   3.590 -0.2522  0.8281  0.0531
  859MOL0     C13316  10.804  10.556   3.512  0.2318 -0.5220  0.6868
  859MOL0     C13317  10.929  10.486   3.571  0.0695 -0.6859 -0.6037
  859MOL0     C13318  10.956  10.339   3.524  0.3866 -0.6427  0.2733
  859MOL0     C13319  11.024  10.359   3.391 -0.7680  0.3204  0.0902
  859MOL0     C13320  11.072  10.394   3.289 -0.1481  0.3455  0.5960
  859MOL0     C13321  10.550  10.940   3.444  0.2896  0.0174 -0.7874
  859MOL0     C13322  10.547  11.080   3.400 -0.3850  0.7337 -0.0262
  859MOL0     H13323  10.550  11.341   3.058  1.3657  0.7322  1.2565
  859MOL0     H13324  10.423  11.472   2.926  1.6183  1.2027 -0.1249
  859MOL0     H13325  10.153  11.573   2.927 -1.0758  1.0363  1.3994
  859MOL0     H13326  10.299  11.640   2.827 -0.6167 -0.1201 -1.7085
  859MOL0     H13327  10.094  11.731   2.732 -2.8306  4.1167 -0.5836
  859MOL0     H13328  10.166  11.853   2.838 -2.5959  0.4493  2.3655
  859MOL0     H13329   9.923  11.822   2.845 -1.0040  0.3829  0.7568
  859MOL0     H13330   9.994  11.819   3.010 -3.9048 -0.0206 -0.2911
  859MOL0     H13331   9.927  11.569   2.858 -2.8884 -2.0305  1.9550
  859MOL0     H13332   9.947  11.591   3.036 -1.2484  1.5069  1.2317
  859MOL0     H13333   9.761  11.748   3.048  1.9534 -2.3204  2.8761
  859MOL0     H13334   9.721  11.586   3.030 -1.6246  0.9348  0.8864
  859MOL0     H13335   9.614  11.615   2.825 -1.1488  0.9643  0.6634
  859MOL0     H13336   9.745  11.738   2.773  0.2198  1.5861 -0.2101
  859MOL0     H13337   9.496  11.757   2.955  1.5811 -0.0820  1.9006
  859MOL0     H13338   9.608  11.903   2.917  1.2206 -1.2570  0.3434
  859MOL0     H13339   9.415  11.775   2.729 -0.8882  0.4358  1.6198
  859MOL0     H13340   9.561  11.884   2.695  0.7812 -0.0315  0.8681
  859MOL0     H13341   9.212  11.902   2.855 -1.9332  1.4285  0.0972
  859MOL0     H13342   9.156  12.269   2.989  0.0686 -1.2480  1.7294
  859MOL0     H13343   9.098  12.110   3.024  2.3283  1.2955  2.5901
  859MOL0     H13344   9.045  12.070   2.781  0.2635 -0.7534  1.6763
  859MOL0     H13345   9.086  12.246   2.754 -1.5143  0.1401  0.8795
  859MOL0     H13346   8.832  12.157   2.785 -0.5075 -1.2116  0.7833
  859MOL0     H13347   8.877  12.176   2.954 -1.8281 -3.6603 -1.7863
  859MOL0     H13348   8.845  12.401   2.760  0.4337  3.1645  0.5866
  859MOL0     H13349   8.968  12.431   2.863 -1.3931  0.4905 -2.6538
  859MOL0     H13350   9.048  12.411   3.086  0.4635  0.8441  1.9306
  859MOL0     H13351   9.088  12.406   3.323 -0.8653  0.2006  2.5517
  859MOL0     H13352   8.929  12.722   3.702  0.8517  1.4561  1.9288
  859MOL0     H13353   8.999  12.749   3.943 -1.4506  1.3221 -1.8113
  859MOL0     H13354   8.923  12.703   4.307  0.4361  2.5298 -0.3307
  859MOL0     H13355   8.932  12.777   4.152  0.1727 -0.8832 -1.7981
  859MOL0     H13356   9.158  12.660   4.111  0.7202  2.0527 -0.5082
  859MOL0     H13357   9.131  12.579   4.264  1.1856 -0.6429 -1.2475
  859MOL0     H13358   9.296  12.752   4.246  1.8328  2.6112  2.5992
  859MOL0     H13359   9.185  12.780   4.379  1.9915 -1.1689 -0.0445
  859MOL0     H13360   9.234  12.906   4.109  1.1157 -1.9055  1.4523
  859MOL0     H13361   9.088  12.957   4.207 -0.6266  0.2835 -0.1531
  859MOL0     H13362   9.387  12.981   4.284  2.0422  2.5233 -3.3878
  859MOL0     H13363   9.237  13.025   4.383  0.0687  2.4839 -0.8679
  859MOL0     H13364   9.227  13.223   4.278  1.8526  0.3953  0.7792
  859MOL0     H13365   9.217  13.165   4.117 -0.8491  2.8736 -0.2003
  859MOL0     H13366   9.478  13.232   4.263  1.2132  2.6424 -1.5829
  859MOL0     H13367   9.461  13.153   4.102 -2.1657 -3.0481  0.6721
  859MOL0     H13368   9.321  13.337   4.010  0.7859  0.6677 -2.6897
  859MOL0     H13369   9.479  13.394   4.063 -0.6006 -0.7648 -3.7134
  859MOL0     H13370   8.818  12.363   4.032  1.0516 -3.2449 -2.5704
  859MOL0     H13371   8.774  12.328   3.802  1.4158  0.0283 -1.6010
  859MOL0     H13372   8.675  12.489   3.383  1.4543  3.3928  1.0032
  859MOL0     H13373   8.629  12.461   3.154  0.0286  1.7437 -1.2901
  859MOL0     H13374  10.346  11.746   3.250 -1.3937  0.4062 -2.7469
  859MOL0     H13375  10.443  11.573   3.406 -1.2256  0.4714 -0.0436
  859MOL0     H13376  10.874  11.116   3.359 -0.0200  2.0181  2.1705
  859MOL0     H13377  10.876  10.902   3.462 -0.4508  0.2748  1.7652
  859MOL0     H13378  10.722  10.659   3.690 -1.2826  1.6671 -0.0810
  859MOL0     H13379  10.835  10.759   3.611 -0.7959  1.4688 -0.1536
  859MOL0     H13380  10.719  10.489   3.494 -0.3952  0.4153  0.0762
  859MOL0     H13381  10.853  10.593   3.422  1.1369 -3.1198  0.0373
  859MOL0     H13382  10.919  10.491   3.679 -0.1926 -0.4802 -0.6357
  859MOL0     H13383  11.014  10.553   3.555 -1.9155  2.5344  1.2148
  859MOL0     H13384  11.033  10.285   3.579  3.0834  0.0885 -2.4753
  859MOL0     H13385  10.866  10.278   3.517 -1.7813  2.1387  1.8459
  859MOL0     H13386  11.124  10.419   3.199  2.0000  1.8648  2.1635
  859MOL0     H13387  10.467  10.888   3.490  0.9633 -0.6968 -0.3554
  859MOL0     H13388  10.458  11.138   3.383 -0.0372  0.4090 -3.6772
  860MOL0     O13389  10.556   8.257   7.750 -0.5737 -0.1369 -1.1637
  860MOL0     C13390  10.442   8.218   7.751 -0.5169  0.0695 -0.2092
  860MOL0     O13391  10.330   8.294   7.773 -0.3373 -0.6829 -0.2074
  860MOL0     C13392  10.340   8.433   7.802 -0.8982  0.0491  0.0925
  860MOL0     C13393  10.407   8.495   7.908 -0.9438  0.1864 -0.0759
  860MOL0     C13394  10.411   8.634   7.930  0.2899 -0.2856 -0.7619
  860MOL0     C13395  10.348   8.719   7.842 -0.5580 -0.1740 -0.0815
  860MOL0     O13396  10.349   8.851   7.864 -0.1178 -1.0751  0.0574
  860MOL0     C13397  10.256   8.934   7.782  0.4576 -0.7436 -0.6386
  860MOL0     C13398  10.267   9.091   7.822 -0.1074 -0.6471  0.0000
  860MOL0     C13399  10.198   9.129   7.961 -0.1216 -0.9192  0.3524
  860MOL0     C13400  10.046   9.093   7.965 -0.2409 -0.3257 -0.1720
  860MOL0     C13401   9.973   9.196   8.048 -0.3351  0.9582 -0.0212
  860MOL0     C13402   9.829   9.170   8.074  1.6044  0.0174 -0.4100
  860MOL0     C13403   9.729   9.237   7.978 -0.4314 -0.1113  0.0512
  860MOL0     C13404   9.681   9.378   8.027 -0.9112 -0.4375  0.6206
  860MOL0     N13405   9.585   9.425   7.930 -1.1113 -0.5271 -0.5699
  860MOL0     C13406   9.612   9.547   7.871 -0.4735  0.0875 -0.3672
  860MOL0     C13407   9.507   9.571   7.788 -0.2437  0.0467 -1.0031
  860MOL0     C13408   9.464   9.707   7.722 -1.2558 -0.2028 -0.0124
  860MOL0     C13409   9.577   9.759   7.640 -1.0447 -0.5795  0.4203
  860MOL0     C13410   9.544   9.873   7.551  0.6894 -0.5127 -0.1670
  860MOL0     C13411   9.438   9.973   7.613 -0.0062  0.1846 -0.4311
  860MOL0     O13412   9.448  10.096   7.531  0.4578  0.1325  0.1954
  860MOL0     C13413   9.368  10.085   7.424  0.7869  0.4509  0.1642
  860MOL0     C13414   9.233  10.122   7.428  0.5252  0.3751  0.1138
  860MOL0     C13415   9.142  10.112   7.318 -0.6629  0.8402 -1.2314
  860MOL0     C13416   9.196  10.092   7.192 -0.6183  0.7206 -0.2629
  860MOL0     C13417   9.119  10.095   7.065  0.2423  0.0590  0.6194
  860MOL0     O13418   9.163  10.036   6.950  0.8068  0.4201  0.5767
  860MOL0     C13419   9.109  10.070   6.826 -0.4283 -0.0672 -0.7545
  860MOL0     C13420   8.982  10.026   6.773 -1.0838 -0.7463 -0.0565
  860MOL0     C13421   8.952  10.049   6.633 -0.2363 -0.1925  0.2877
  860MOL0     C13422   9.032  10.148   6.568  0.0948 -0.3808  0.9808
  860MOL0     O13423   9.004  10.181   6.436 -0.4109  0.3857 -1.0208
  860MOL0     C13424   8.888  10.265   6.413 -0.5642  0.1400  0.3741
  860MOL0     C13425   8.785  10.217   6.319  0.9615 -0.0223 -0.1034
  860MOL0     C13426   8.700  10.344   6.291 -0.4445 -0.5928  0.1750
  860MOL0     C13427   8.571  10.305   6.239 -0.2184 -0.4775 -0.1697
  860MOL0     C13428   8.486  10.417   6.183  0.1447  0.1288  0.0655
  860MOL0     C13429   8.449  10.521   6.293 -0.4584  0.2468  0.2566
  860MOL0     C13430   8.365  10.632   6.228  0.7267 -0.8324 -0.4220
  860MOL0     C13431   8.358  10.742   6.334  0.3781  0.1404  0.2186
  860MOL0    Cl13432   8.235  10.868   6.308  0.1776  0.4833 -0.2841
  860MOL0     C13433   9.152  10.192   6.620 -0.8304  0.4328 -0.0371
  860MOL0     C13434   9.189  10.158   6.753 -0.0489 -0.2946  0.7367
  860MOL0     O13435   9.014  10.164   7.069 -0.3545 -0.0473  0.6236
  860MOL0     C13436   9.332  10.061   7.185  0.7069 -0.1740  0.2110
  860MOL0     C13437   9.416  10.045   7.300  0.4303 -0.3397  0.6096
  860MOL0     N13438   9.427   9.452   7.802 -0.3269 -0.2356 -0.0514
  860MOL0     N13439   9.472   9.372   7.889  0.1777  0.1645  0.0502
  860MOL0     C13440  10.285   8.658   7.725 -0.0328  0.1321 -0.8199
  860MOL0     C13441  10.282   8.520   7.697 -0.8337 -0.6113  0.5091
  860MOL0     C13442  10.407   8.076   7.744  0.2652  0.5218  0.7008
  860MOL0     C13443  10.497   7.992   7.676 -0.5957  0.7294  0.5106
  860MOL0     C13444  10.477   7.853   7.667 -0.1200 -0.1795  0.1949
  860MOL0     C13445  10.360   7.795   7.728 -0.8925 -1.3651  0.6823
  860MOL0     O13446  10.347   7.655   7.721  0.2487 -0.3584 -0.3062
  860MOL0     C13447  10.229   7.593   7.770  0.9345  0.1736 -0.4313
  860MOL0     C13448  10.111   7.624   7.686 -0.1004  0.0685  0.4902
  860MOL0     C13449  10.063   7.517   7.596  0.1600  0.3570 -1.4686
  860MOL0     C13450   9.929   7.535   7.526  0.3813  0.0634 -0.1295
  860MOL0     C13451   9.823   7.506   7.625 -0.4450 -0.8475 -0.5571
  860MOL0     C13452   9.738   7.490   7.711  0.0437 -0.7242  0.0989
  860MOL0     C13453  10.270   7.883   7.798  0.0734 -0.1952  0.5802
  860MOL0     C13454  10.286   8.025   7.798  0.0111 -0.2954  0.5526
  860MOL0     H13455  10.445   8.434   7.989 -1.4978 -0.8405 -0.5607
  860MOL0     H13456  10.450   8.678   8.021  1.3588 -2.7679  0.0661
  860MOL0     H13457  10.153   8.896   7.782  1.0254 -2.5843  1.7230
  860MOL0     H13458  10.274   8.924   7.674 -0.0282 -3.7617 -0.5278
  860MOL0     H13459  10.221   9.157   7.748  2.6205 -0.1302 -1.4022
  860MOL0     H13460  10.375   9.108   7.823  0.0685 -1.1588  3.7571
  860MOL0     H13461  10.209   9.237   7.972  2.1246 -0.9033 -1.3159
  860MOL0     H13462  10.260   9.092   8.043  2.0808  2.5019  0.4609
  860MOL0     H13463  10.011   9.094   7.862  0.6712  0.9646 -0.4904
  860MOL0     H13464  10.035   8.989   7.998  0.4222 -0.9560 -1.8377
  860MOL0     H13465  10.001   9.300   8.026  0.3031  2.0635  4.7048
  860MOL0     H13466  10.014   9.184   8.149  0.3964  0.5447 -0.3644
  860MOL0     H13467   9.814   9.208   8.175 -3.7798 -2.1080 -0.0880
  860MOL0     H13468   9.820   9.061   8.066 -1.2361  0.2112 -1.0896
  860MOL0     H13469   9.781   9.241   7.882  4.0918  0.5965  2.2872
  860MOL0     H13470   9.642   9.172   7.962 -0.5764 -0.6493  2.6268
  860MOL0     H13471   9.775   9.434   8.030 -1.2711  0.4582 -2.2149
  860MOL0     H13472   9.635   9.381   8.127 -1.6551 -0.3682  0.2827
  860MOL0     H13473   9.709   9.596   7.875 -0.1138 -0.6506  2.4943
  860MOL0     H13474   9.435   9.779   7.799 -2.0532  1.1414 -1.4920
  860MOL0     H13475   9.372   9.689   7.665 -3.0618 -2.2882  3.2543
  860MOL0     H13476   9.596   9.678   7.570  1.0933  1.4809 -1.5419
  860MOL0     H13477   9.669   9.786   7.693 -1.0591  0.8955 -0.2602
  860MOL0     H13478   9.631   9.926   7.511  1.6842 -1.7083  0.3811
  860MOL0     H13479   9.505   9.844   7.453 -0.2527  1.6902 -0.5087
  860MOL0     H13480   9.461  10.000   7.717  2.6538 -0.6251 -0.7260
  860MOL0     H13481   9.337   9.932   7.621  0.0382  0.1823  0.1331
  860MOL0     H13482   9.194  10.143   7.527  0.7503  0.5463  0.1659
  860MOL0     H13483   9.035  10.126   7.325 -0.6391  0.1697  2.1121
  860MOL0     H13484   8.917   9.961   6.831 -3.2005 -1.8737 -3.4340
  860MOL0     H13485   8.873   9.994   6.582  0.0278 -2.3442  2.0639
  860MOL0     H13486   8.920  10.367   6.389 -2.6749  0.4909 -1.3357
  860MOL0     H13487   8.844  10.270   6.513 -1.0416  2.0111  0.1139
  860MOL0     H13488   8.729  10.140   6.374  0.1795  0.9501  0.5047
  860MOL0     H13489   8.825  10.166   6.231  0.9744 -1.0016  0.4515
  860MOL0     H13490   8.741  10.409   6.213  0.3890  0.8304  1.7325
  860MOL0     H13491   8.695  10.413   6.376 -3.6987 -0.3718 -0.0810
  860MOL0     H13492   8.592  10.232   6.160 -3.6689  1.1077 -2.8290
  860MOL0     H13493   8.509  10.253   6.313 -3.9893  0.9745 -2.0246
  860MOL0     H13494   8.386  10.385   6.151 -0.6914  2.2967  0.3553
  860MOL0     H13495   8.540  10.457   6.097  0.9311 -2.2584 -0.6406
  860MOL0     H13496   8.541  10.553   6.343  2.1259 -0.4963 -3.5893
  860MOL0     H13497   8.378  10.481   6.366 -0.7265 -1.6498 -0.9764
  860MOL0     H13498   8.418  10.672   6.141 -2.2093  1.4287 -1.3357
  860MOL0     H13499   8.267  10.597   6.196 -0.3808  1.6249  0.0402
  860MOL0     H13500   8.457  10.789   6.331  1.3149 -1.7964 -1.3342
  860MOL0     H13501   8.342  10.692   6.430 -3.0836  1.9917  0.7569
  860MOL0     H13502   9.210  10.256   6.555 -0.2877 -0.0696 -0.0542
  860MOL0     H13503   9.277  10.201   6.799  0.2282 -0.0492 -0.0105
  860MOL0     H13504   9.381  10.057   7.088 -0.5713  1.3831 -0.5417
  860MOL0     H13505   9.516  10.006   7.283  0.1380 -0.4668 -1.0308
  860MOL0     H13506  10.232   8.711   7.646  1.7100  2.4311 -0.5692
  860MOL0     H13507  10.224   8.483   7.613 -0.0876  0.3670 -0.4614
  860MOL0     H13508  10.584   8.036   7.629 -0.2549 -0.7227 -0.2859
  860MOL0     H13509  10.539   7.784   7.611  1.4447  2.7298 -1.9469
  860MOL0     H13510  10.217   7.620   7.875 -1.4397 -2.7332  0.1731
  860MOL0     H13511  10.255   7.486   7.770 -0.4599 -0.1818 -0.3256
  860MOL0     H13512  10.036   7.655   7.760  0.0481 -0.6370  0.9442
  860MOL0     H13513  10.141   7.708   7.622 -2.0526  0.0349 -0.5436
  860MOL0     H13514  10.071   7.425   7.655  2.4508  2.3277  1.6316
  860MOL0     H13515  10.138   7.519   7.516 -0.2288 -0.2463 -1.8555
  860MOL0     H13516   9.908   7.636   7.488  0.0441 -0.4878 -1.4259
  860MOL0     H13517   9.918   7.470   7.440  1.3672 -0.1331 -0.1217
  860MOL0     H13518   9.685   7.483   7.804 -0.0092 -0.7032  0.0697
  860MOL0     H13519  10.184   7.839   7.848  0.0382  0.2998  0.9763
  860MOL0     H13520  10.211   8.088   7.845  1.7095  0.9763  1.6786
  861MOL0     O13521   4.628   9.356  10.392  0.4783 -0.7008  0.3021
  861MOL0     C13522   4.592   9.421  10.496  0.1952  1.0014  0.1630
  861MOL0     O13523   4.513   9.369  10.602 -0.3589 -1.2030  0.4811
  861MOL0     C13524   4.483   9.237  10.597 -0.1008 -0.4994 -0.3249
  861MOL0     C13525   4.578   9.141  10.618 -0.5586  0.3366  0.8459
  861MOL0     C13526   4.533   9.011  10.646  0.0305  0.9964 -0.5394
  861MOL0     C13527   4.409   8.971  10.667  0.2646 -0.1259  1.0652
  861MOL0     O13528   4.395   8.833  10.699  0.6623  0.1199  0.0799
  861MOL0     C13529   4.289   8.793  10.796  0.4561  0.7668 -0.8786
  861MOL0     C13530   4.306   8.638  10.809  0.2389  0.2326  0.0431
  861MOL0     C13531   4.232   8.580  10.934  0.6901  0.2659 -1.3540
  861MOL0     C13532   4.081   8.599  10.935 -0.3193 -0.7295 -0.3298
  861MOL0     C13533   4.005   8.551  11.052 -0.4628 -0.0958  0.3582
  861MOL0     C13534   3.862   8.612  11.043  0.8664  0.3721 -0.5032
  861MOL0     C13535   3.759   8.565  11.151  0.3446 -0.8095  0.5865
  861MOL0     C13536   3.813   8.555  11.292  0.2924 -0.2454  0.5701
  861MOL0     N13537   3.843   8.426  11.348  0.6507 -0.5274 -0.0006
  861MOL0     C13538   3.814   8.398  11.481  0.4176 -0.1051  1.0693
  861MOL0     C13539   3.875   8.275  11.499 -0.5681 -0.1139  1.0230
  861MOL0     C13540   3.898   8.202  11.626  0.2293 -0.2225 -0.0387
  861MOL0     C13541   3.877   8.053  11.619 -0.2374  0.3677 -0.5811
  861MOL0     C13542   3.913   7.972  11.752  0.2104 -0.1726  0.3226
  861MOL0     C13543   4.052   8.013  11.811 -0.2220  0.3940 -0.4458
  861MOL0     O13544   4.076   7.929  11.927 -0.4788  0.0080  0.4166
  861MOL0     C13545   4.213   7.916  11.950  0.3259  0.0482 -0.5518
  861MOL0     C13546   4.319   7.901  11.862  0.2937  0.6332 -0.0716
  861MOL0     C13547   4.456   7.890  11.909  1.4923 -0.0301  0.0099
  861MOL0     C13548   4.490   7.887  12.044  0.4576 -0.8134  0.4349
  861MOL0     C13549   4.628   7.884  12.080 -0.5333 -0.0656 -0.8130
  861MOL0     O13550   4.727   7.902  11.991 -0.3910  0.7331  0.0443
  861MOL0     C13551   4.861   7.901  12.027  1.2004  0.3168 -0.0206
  861MOL0     C13552   4.917   7.796  12.090 -0.4612 -0.8311  0.2416
  861MOL0     C13553   5.055   7.784  12.107 -0.1116  0.0666  0.6156
  861MOL0     C13554   5.149   7.880  12.051  0.4360 -0.1112 -0.1943
  861MOL0     O13555   5.278   7.875  12.102  0.4873 -0.1835 -0.3725
  861MOL0     C13556   5.356   8.002  12.107  0.4440 -0.0806  0.1462
  861MOL0     C13557   5.465   8.006  12.000  0.6075 -0.6868  0.1042
  861MOL0     C13558   5.500   8.156  11.958 -0.6144  0.0413  0.7641
  861MOL0     C13559   5.615   8.171  11.862  0.2081 -0.3553 -0.3092
  861MOL0     C13560   5.744   8.108  11.923 -0.3091 -0.4284  1.0691
  861MOL0     C13561   5.868   8.116  11.830  0.0245  0.4956 -0.4412
  861MOL0     C13562   5.989   8.071  11.894 -0.4053  0.3147 -0.5121
  861MOL0     C13563   6.020   7.938  11.828  0.0795  0.9993 -1.1144
  861MOL0    Cl13564   6.088   7.833  11.947 -0.3410  0.1535  0.4770
  861MOL0     C13565   5.087   7.988  11.981  0.0460 -0.2342 -0.0981
  861MOL0     C13566   4.949   7.991  11.977  0.1808  0.6741  0.0945
  861MOL0     O13567   4.646   7.875  12.201 -0.0413 -0.0070 -0.0436
  861MOL0     C13568   4.385   7.899  12.127  0.4025  0.2937 -0.1736
  861MOL0     C13569   4.248   7.918  12.084 -0.1524 -1.2693 -0.4034
  861MOL0     N13570   3.930   8.232  11.379 -0.8418  0.5700 -0.0284
  861MOL0     N13571   3.908   8.322  11.289  0.9110 -0.7902  0.6086
  861MOL0     C13572   4.311   9.070  10.647 -1.0829 -0.5757  0.2894
  861MOL0     C13573   4.347   9.197  10.610  0.1314 -0.3491 -0.8717
  861MOL0     C13574   4.628   9.561  10.495  0.4756 -0.1694 -1.0068
  861MOL0     C13575   4.693   9.629  10.388 -0.2230  0.3736 -0.2147
  861MOL0     C13576   4.720   9.768  10.393  0.2101 -0.2885  1.0688
  861MOL0     C13577   4.673   9.842  10.504  0.3557 -0.4206  0.4325
  861MOL0     O13578   4.701   9.973  10.480 -0.0178 -1.0716  0.0514
  861MOL0     C13579   4.595  10.071  10.517  1.6513  0.3549  0.1424
  861MOL0     C13580   4.587  10.204  10.447 -0.3599  0.0483 -0.2131
  861MOL0     C13581   4.537  10.172  10.301  0.2911  0.0879 -0.8763
  861MOL0     C13582   4.529  10.303  10.219 -0.0749  0.1471 -0.1986
  861MOL0     C13583   4.654  10.379  10.230 -0.1229 -0.4023 -0.7987
  861MOL0     C13584   4.758  10.431  10.230 -0.0886 -0.5553  0.3295
  861MOL0     C13585   4.614   9.773  10.614 -0.3261  0.1045  0.2295
  861MOL0     C13586   4.594   9.639  10.601  0.7006  0.7217 -0.4680
  861MOL0     H13587   4.683   9.160  10.600 -0.4900  0.5944  1.4849
  861MOL0     H13588   4.603   8.937  10.684 -3.9312 -1.7530  2.1954
  861MOL0     H13589   4.186   8.819  10.771  0.4924  1.0245 -0.7678
  861MOL0     H13590   4.291   8.844  10.893 -0.0074 -3.5000  1.6523
  861MOL0     H13591   4.411   8.608  10.813  0.1034 -0.1547  0.9864
  861MOL0     H13592   4.268   8.587  10.720  0.4181 -2.1904  1.2738
  861MOL0     H13593   4.289   8.619  11.020 -0.2099  0.4768 -0.8412
  861MOL0     H13594   4.242   8.473  10.953  1.8864  0.8908  2.4566
  861MOL0     H13595   4.057   8.705  10.924  0.6198 -0.2670  1.6518
  861MOL0     H13596   4.041   8.563  10.840 -3.2896  1.4640 -0.0636
  861MOL0     H13597   4.047   8.583  11.148 -2.2583 -1.5910  1.7100
  861MOL0     H13598   3.998   8.442  11.056  1.6835 -0.3025 -0.1521
  861MOL0     H13599   3.827   8.590  10.942  4.1307  3.3416 -2.5150
  861MOL0     H13600   3.864   8.721  11.051  0.9381  0.5090 -2.1111
  861MOL0     H13601   3.672   8.631  11.150 -1.2489 -2.8171  0.1463
  861MOL0     H13602   3.736   8.463  11.121  2.6491 -0.9989 -0.7723
  861MOL0     H13603   3.741   8.609  11.355  1.0541  1.4787  0.0249
  861MOL0     H13604   3.908   8.608  11.303 -0.1199  0.6942 -0.2162
  861MOL0     H13605   3.773   8.463  11.557 -1.5108 -1.7281  1.5100
  861MOL0     H13606   3.839   8.255  11.702 -0.2990 -0.6986 -0.1045
  861MOL0     H13607   4.004   8.225  11.640  0.3742 -0.4065 -0.8013
  861MOL0     H13608   3.942   8.013  11.541 -0.3058  0.9904 -0.9649
  861MOL0     H13609   3.770   8.052  11.596 -0.1209 -0.8556 -1.1536
  861MOL0     H13610   3.840   7.990  11.832  1.1767  1.9028  0.7932
  861MOL0     H13611   3.907   7.868  11.718 -0.2672 -0.5114  1.3968
  861MOL0     H13612   4.046   8.118  11.842 -0.1382  0.2463  0.0725
  861MOL0     H13613   4.122   7.997  11.728  0.9087 -4.5542  1.1327
  861MOL0     H13614   4.292   7.897  11.757 -0.6261  4.0323 -0.0665
  861MOL0     H13615   4.525   7.891  11.825  1.1199  1.4388 -0.3176
  861MOL0     H13616   4.865   7.705  12.120 -0.6320 -1.2736 -1.2989
  861MOL0     H13617   5.086   7.692  12.156  0.2194 -0.6654 -0.9061
  861MOL0     H13618   5.397   8.011  12.208  0.4631 -0.8627  0.2195
  861MOL0     H13619   5.297   8.093  12.095 -2.5030 -1.8399  0.3705
  861MOL0     H13620   5.437   7.955  11.907 -1.4525  1.2495 -0.4105
  861MOL0     H13621   5.550   7.956  12.047 -1.2887 -3.2378  1.0881
  861MOL0     H13622   5.524   8.210  12.050 -0.5050  0.3053  0.5806
  861MOL0     H13623   5.407   8.200  11.920 -0.2716  3.0095  3.0310
  861MOL0     H13624   5.582   8.125  11.768  0.5854 -0.2612 -0.4910
  861MOL0     H13625   5.634   8.279  11.854  0.2811  0.0755  3.7642
  861MOL0     H13626   5.723   8.002  11.940  0.5890 -0.4916  1.8770
  861MOL0     H13627   5.756   8.150  12.024 -3.1306 -2.4349  2.3863
  861MOL0     H13628   5.889   8.222  11.819  0.0223  0.8141  2.0125
  861MOL0     H13629   5.845   8.074  11.732 -1.3682  1.0491 -0.3666
  861MOL0     H13630   6.063   8.145  11.864 -1.3146  2.8627  2.9000
  861MOL0     H13631   6.003   8.054  12.001 -1.0013 -3.8120 -0.9279
  861MOL0     H13632   6.088   7.955  11.744  3.0230 -2.1158  0.3820
  861MOL0     H13633   5.932   7.883  11.793 -2.1271  2.5317  1.6270
  861MOL0     H13634   5.154   8.063  11.938 -0.2555 -1.0133 -2.0217
  861MOL0     H13635   4.893   8.077  11.941 -0.9500 -0.4376 -0.9354
  861MOL0     H13636   4.395   7.906  12.235 -1.7140 -2.6290  0.3396
  861MOL0     H13637   4.168   7.921  12.158 -0.3860 -0.0418 -0.6840
  861MOL0     H13638   4.205   9.050  10.658 -1.4701  1.2474  0.1251
  861MOL0     H13639   4.275   9.276  10.593 -0.2517  0.1688  2.4220
  861MOL0     H13640   4.723   9.570  10.302  2.2145  1.0831  0.0697
  861MOL0     H13641   4.777   9.822  10.318 -1.5333  0.6297  0.3349
  861MOL0     H13642   4.618  10.085  10.623  4.5940  0.6250 -0.4555
  861MOL0     H13643   4.501  10.016  10.504  2.2150 -0.4850 -0.4844
  861MOL0     H13644   4.513  10.268  10.495 -0.8942 -0.8135  0.1503
  861MOL0     H13645   4.688  10.244  10.448 -0.5994  0.9815  3.9446
  861MOL0     H13646   4.433  10.138  10.310 -0.6494  2.9128  0.1649
  861MOL0     H13647   4.598  10.097  10.250 -0.7319 -0.1438 -1.8096
  861MOL0     H13648   4.499  10.276  10.117 -2.5841 -1.8153  0.9429
  861MOL0     H13649   4.449  10.369  10.253  0.1668 -0.9809  2.7752
  861MOL0     H13650   4.846  10.490  10.247 -0.6787 -0.3134  3.1225
  861MOL0     H13651   4.573   9.811  10.708 -1.4328  3.3473 -1.4221
  861MOL0     H13652   4.527   9.606  10.679  2.0016  0.8763  0.7492
  862MOL0     O13653  11.292   5.544  10.650 -0.3141 -0.0698  0.2198
  862MOL0     C13654  11.300   5.614  10.752 -0.5543 -0.0163 -1.1985
  862MOL0     O13655  11.200   5.687  10.802  0.5363 -0.0924  0.1417
  862MOL0     C13656  11.077   5.649  10.753  0.4835 -0.4147  0.1886
  862MOL0     C13657  10.997   5.554  10.811 -0.5058  0.3458 -0.2010
  862MOL0     C13658  10.864   5.536  10.765  0.1175 -0.2405  0.3281
  862MOL0     C13659  10.806   5.607  10.662 -0.8787 -0.3301  0.1401
  862MOL0     O13660  10.674   5.581  10.639  0.7914 -0.1224 -0.6887
  862MOL0     C13661  10.643   5.551  10.496  1.1570  0.6796  0.2190
  862MOL0     C13662  10.493   5.559  10.480 -0.2433  0.9511 -0.1352
  862MOL0     C13663  10.458   5.705  10.488  0.8317  0.0195  0.1066
  862MOL0     C13664  10.323   5.734  10.407  0.1236 -0.4668  0.9214
  862MOL0     C13665  10.197   5.675  10.484  0.3775  0.3231 -0.9172
  862MOL0     C13666  10.076   5.651  10.381 -1.0746 -0.3016 -0.4091
  862MOL0     C13667  10.007   5.516  10.403  0.3516  0.3489  0.1357
  862MOL0     C13668   9.938   5.525  10.545 -0.3607 -0.2599  0.1736
  862MOL0     N13669   9.803   5.586  10.547 -0.5934 -0.1687 -0.4200
  862MOL0     C13670   9.721   5.608  10.433  0.2050  0.1006  0.4815
  862MOL0     C13671   9.630   5.695  10.480  0.7042  0.6416 -0.1873
  862MOL0     C13672   9.539   5.771  10.386  0.0134 -0.4017 -0.1484
  862MOL0     C13673   9.600   5.908  10.346 -0.4206 -0.9006  0.5141
  862MOL0     C13674   9.742   5.894  10.274  0.7652  0.0334 -0.7638
  862MOL0     C13675   9.804   6.032  10.250 -1.0327  0.9726 -0.4109
  862MOL0     O13676   9.918   6.012  10.171 -0.4604  0.2240  0.3137
  862MOL0     C13677  10.026   6.091  10.189 -0.0138 -0.0923 -0.8546
  862MOL0     C13678  10.148   6.035  10.209  0.8076  0.8452 -0.2099
  862MOL0     C13679  10.264   6.101  10.224 -0.4731 -1.1030 -0.0872
  862MOL0     C13680  10.268   6.239  10.225  0.3978 -0.9106 -0.4125
  862MOL0     C13681  10.400   6.311  10.247  0.2498 -0.9284 -0.7114
  862MOL0     O13682  10.404   6.440  10.200 -0.0578 -0.3860 -0.3575
  862MOL0     C13683  10.525   6.490  10.200  0.8752  0.0491 -0.3066
  862MOL0     C13684  10.614   6.466  10.086  1.0439  0.7645  0.4709
  862MOL0     C13685  10.745   6.510  10.079 -0.2310  0.3058  1.1114
  862MOL0     C13686  10.805   6.562  10.197 -0.1534  1.0108  0.9983
  862MOL0     O13687  10.936   6.591  10.197 -0.2634 -0.3846  0.1239
  862MOL0     C13688  10.972   6.699  10.098 -0.1111 -0.4587 -0.0906
  862MOL0     C13689  11.094   6.772  10.127  0.4350  0.1764  0.4085
  862MOL0     C13690  11.121   6.837  10.267  0.2613 -0.0098  0.4699
  862MOL0     C13691  11.247   6.923  10.282  0.2566  0.5150 -0.0776
  862MOL0     C13692  11.255   6.963  10.434 -0.4996  0.0529 -0.0217
  862MOL0     C13693  11.388   7.055  10.440 -0.0595  0.1508 -0.5871
  862MOL0     C13694  11.424   7.120  10.579  0.2753 -0.3314 -0.9686
  862MOL0     C13695  11.481   7.013  10.681 -0.6587 -0.3378  1.1190
  862MOL0    Cl13696  11.614   6.925  10.596 -0.0725  0.5081  0.1914
  862MOL0     C13697  10.725   6.576  10.306 -0.7433 -0.4483  0.7644
  862MOL0     C13698  10.591   6.538  10.313  0.2047  0.3631 -0.2196
  862MOL0     O13699  10.495   6.237  10.278  0.4819  0.0037 -0.3642
  862MOL0     C13700  10.145   6.303  10.195 -0.2093 -0.3605 -0.4988
  862MOL0     C13701  10.027   6.228  10.179  0.1788  0.9164 -1.0031
  862MOL0     N13702   9.663   5.727  10.612  0.1553  0.1570 -0.4195
  862MOL0     N13703   9.762   5.657  10.649  0.3380  0.3778 -0.0600
  862MOL0     C13704  10.888   5.699  10.602 -0.1912 -0.0586  0.2126
  862MOL0     C13705  11.022   5.726  10.642 -0.9006  0.1334 -0.4232
  862MOL0     C13706  11.431   5.625  10.825  0.0468 -0.8153 -0.1405
  862MOL0     C13707  11.548   5.596  10.744  0.5361  1.3028 -0.1128
  862MOL0     C13708  11.671   5.632  10.799  0.5234  0.1357  1.1773
  862MOL0     C13709  11.690   5.683  10.930  0.5255  0.0435 -0.3513
  862MOL0     O13710  11.819   5.738  10.967 -0.0476  1.3191  0.5792
  862MOL0     C13711  11.849   5.816  11.090  0.0163  0.6441 -0.0167
  862MOL0     C13712  11.813   5.958  11.055 -0.8036  0.5203 -0.1272
  862MOL0     C13713  11.897   6.014  10.946  0.6304 -0.3591 -0.1018
  862MOL0     C13714  11.850   6.155  10.918  0.2779 -0.2620  0.1436
  862MOL0     C13715  11.955   6.236  10.848  1.4551  0.9920 -0.2461
  862MOL0     C13716  12.042   6.309  10.801  0.1887 -0.7050 -0.2253
  862MOL0     C13717  11.575   5.712  11.009 -0.3948  0.6638 -0.2924
  862MOL0     C13718  11.445   5.695  10.953  0.1569  0.0950 -0.3336
  862MOL0     H13719  11.032   5.488  10.890 -1.9645 -1.9749 -1.3590
  862MOL0     H13720  10.799   5.457  10.801  0.3178 -2.4411 -3.5269
  862MOL0     H13721  10.661   5.444  10.481  0.5952  0.4984  0.7872
  862MOL0     H13722  10.703   5.599  10.418 -0.7474 -0.9472 -2.3536
  862MOL0     H13723  10.436   5.495  10.549 -3.2953  1.0643 -2.3425
  862MOL0     H13724  10.476   5.513  10.383  0.0376  1.2639 -0.3349
  862MOL0     H13725  10.531   5.779  10.454 -2.1109  2.2651 -1.9644
  862MOL0     H13726  10.438   5.712  10.595 -1.9239 -3.1172 -0.0443
  862MOL0     H13727  10.303   5.841  10.401 -1.8584 -0.7629  1.2583
  862MOL0     H13728  10.330   5.687  10.308 -1.5831 -0.2591  0.6711
  862MOL0     H13729  10.163   5.736  10.568 -0.4038 -2.2147  0.7203
  862MOL0     H13730  10.219   5.574  10.519 -4.9347 -0.9025 -0.2760
  862MOL0     H13731  10.104   5.657  10.275 -3.6882  2.6218 -1.0878
  862MOL0     H13732   9.999   5.728  10.393  1.2253  2.1625 -0.7059
  862MOL0     H13733   9.935   5.490  10.325 -0.1420  0.8659  0.4175
  862MOL0     H13734  10.087   5.440  10.411  0.8541  0.8692  0.1059
  862MOL0     H13735  10.002   5.590  10.606 -0.4949  3.4866 -3.2494
  862MOL0     H13736   9.914   5.428  10.591  2.5754 -0.5431  1.3182
  862MOL0     H13737   9.729   5.574  10.331  1.1441  0.4258  0.4350
  862MOL0     H13738   9.449   5.796  10.443  0.3570 -1.7011  1.0210
  862MOL0     H13739   9.524   5.711  10.296  0.0769 -0.0267 -0.4093
  862MOL0     H13740   9.610   5.968  10.437 -1.9619  1.2553 -0.6301
  862MOL0     H13741   9.530   5.960  10.280  1.3951 -3.3856 -3.8484
  862MOL0     H13742   9.824   5.842  10.324  1.7916  0.2424 -2.1749
  862MOL0     H13743   9.724   5.836  10.183 -2.2317 -0.6113  0.1098
  862MOL0     H13744   9.844   6.057  10.348 -1.9503 -0.8656  0.4673
  862MOL0     H13745   9.744   6.105  10.195 -0.2028  1.1694 -1.0839
  862MOL0     H13746  10.157   5.928  10.223  1.0672  1.1278  2.1849
  862MOL0     H13747  10.353   6.042  10.240 -0.5166 -0.8805  1.0682
  862MOL0     H13748  10.571   6.415  10.000 -0.8107  3.4118 -0.3100
  862MOL0     H13749  10.801   6.484   9.990  1.5428 -1.4931  2.6556
  862MOL0     H13750  10.892   6.772  10.096  1.4820  1.3539 -1.5095
  862MOL0     H13751  10.978   6.662   9.995  0.5966  1.2709 -0.7045
  862MOL0     H13752  11.111   6.850  10.053  4.1381 -0.8918 -0.0529
  862MOL0     H13753  11.171   6.699  10.104  0.3089  0.3563 -0.6104
  862MOL0     H13754  11.126   6.749  10.331 -0.2527 -2.3796 -2.4859
  862MOL0     H13755  11.029   6.886  10.300  0.3674 -1.1170  2.6041
  862MOL0     H13756  11.333   6.876  10.234  0.0242  1.6985 -1.7266
  862MOL0     H13757  11.226   7.011  10.221  3.4951  0.3120 -1.6860
  862MOL0     H13758  11.272   6.867  10.484 -0.1069  0.2341  0.2044
  862MOL0     H13759  11.177   7.024  10.479 -0.5051 -0.0326  0.0844
  862MOL0     H13760  11.374   7.135  10.367  0.3920  0.0485 -0.7895
  862MOL0     H13761  11.480   7.007  10.405  1.9273  1.5761  2.2720
  862MOL0     H13762  11.496   7.201  10.568 -0.4257  0.4370 -0.0283
  862MOL0     H13763  11.333   7.151  10.631 -0.1610 -1.8131 -0.7853
  862MOL0     H13764  11.407   6.937  10.707 -0.2478  0.2150  4.1976
  862MOL0     H13765  11.510   7.051  10.779 -1.6499  0.3288  1.1722
  862MOL0     H13766  10.764   6.618  10.398 -2.9357 -0.5394  1.7993
  862MOL0     H13767  10.542   6.562  10.407 -1.3783 -0.1722 -0.8724
  862MOL0     H13768  10.129   6.409  10.213 -1.7453 -0.6343 -0.1220
  862MOL0     H13769   9.935   6.280  10.157  1.8961  3.0472 -3.8803
  862MOL0     H13770  10.844   5.761  10.524 -1.8042 -3.5507 -1.8768
  862MOL0     H13771  11.086   5.804  10.601 -1.4693 -0.0508 -1.6732
  862MOL0     H13772  11.546   5.563  10.641  2.5146  4.5240 -1.3677
  862MOL0     H13773  11.755   5.635  10.730  1.5005 -1.8847  2.1627
  862MOL0     H13774  11.956   5.816  11.114  0.4517  1.1996 -1.8300
  862MOL0     H13775  11.791   5.781  11.177  0.0381 -0.7561 -0.5346
  862MOL0     H13776  11.705   5.960  11.038 -0.9289 -2.7675 -0.4016
  862MOL0     H13777  11.822   6.019  11.145  1.6556  2.0199 -1.3017
  862MOL0     H13778  11.870   5.950  10.861 -0.3008 -0.8440  0.5484
  862MOL0     H13779  12.001   5.996  10.977  0.4749 -1.9127 -0.4256
  862MOL0     H13780  11.753   6.160  10.868 -0.2565 -0.4044  1.1403
  862MOL0     H13781  11.829   6.206  11.013  2.1492 -0.4644  0.7131
  862MOL0     H13782  12.130   6.354  10.758  1.3410 -2.6940 -0.0698
  862MOL0     H13783  11.575   5.759  11.107 -0.8078  3.1940 -1.4357
  862MOL0     H13784  11.351   5.729  10.996 -1.8624  1.0554 -4.9382
  863MOL0     O13785   5.580   0.881   4.239 -0.9013  0.3688 -0.0768
  863MOL0     C13786   5.574   0.773   4.184  0.0692 -0.4556  0.0556
  863MOL0     O13787   5.571   0.756   4.048  0.1278 -0.3855  1.1096
  863MOL0     C13788   5.559   0.864   3.971  0.5545  0.0682 -0.1162
  863MOL0     C13789   5.658   0.881   3.873  0.2619 -0.3397 -0.3424
  863MOL0     C13790   5.646   0.992   3.783 -0.3936  0.0371  0.1693
  863MOL0     C13791   5.549   1.098   3.806 -0.6704 -1.0110  0.0068
  863MOL0     O13792   5.532   1.199   3.716 -0.6496 -0.0883 -0.3882
  863MOL0     C13793   5.557   1.340   3.764 -0.1824 -0.8569  0.0038
  863MOL0     C13794   5.503   1.410   3.649 -0.4613 -0.0914 -0.0713
  863MOL0     C13795   5.575   1.389   3.514  1.0195 -0.3699  0.1420
  863MOL0     C13796   5.734   1.409   3.518 -0.2293 -0.2805  0.5559
  863MOL0     C13797   5.782   1.387   3.372  0.4783  0.1348  0.6211
  863MOL0     C13798   5.935   1.356   3.369 -0.3167 -0.8632 -0.6864
  863MOL0     C13799   5.990   1.413   3.242  0.0760 -0.6299 -0.1372
  863MOL0     C13800   5.986   1.313   3.126  0.5800 -0.0547 -0.1755
  863MOL0     N13801   6.014   1.376   2.997  0.2287 -0.2619  0.8671
  863MOL0     C13802   6.140   1.365   2.932 -0.2516 -0.1902 -1.1021
  863MOL0     C13803   6.128   1.415   2.805 -0.6323 -1.4423 -0.6722
  863MOL0     C13804   6.237   1.457   2.710 -0.1237  0.0876  0.7900
  863MOL0     C13805   6.379   1.381   2.730  0.3407  0.5517  0.3550
  863MOL0     C13806   6.478   1.451   2.827  0.5041 -0.2144 -0.0285
  863MOL0     C13807   6.595   1.361   2.871 -0.1550  0.2246  0.3210
  863MOL0     O13808   6.554   1.247   2.948  0.4490 -0.0598 -0.3515
  863MOL0     C13809   6.505   1.261   3.079 -0.2686  0.2204  1.0038
  863MOL0     C13810   6.508   1.378   3.153  0.0154 -0.1811 -0.0187
  863MOL0     C13811   6.453   1.377   3.284 -0.5666  0.3358 -0.1722
  863MOL0     C13812   6.406   1.254   3.337  0.2919  0.1107  0.4427
  863MOL0     C13813   6.345   1.244   3.468 -0.8685  0.1914  0.3267
  863MOL0     O13814   6.287   1.126   3.503  0.3534  0.6197  0.3845
  863MOL0     C13815   6.225   1.089   3.624  1.2021 -0.8169  0.2236
  863MOL0     C13816   6.270   1.145   3.743 -0.1618 -0.1813 -0.2007
  863MOL0     C13817   6.218   1.112   3.866 -0.7726 -0.3558  0.3266
  863MOL0     C13818   6.124   1.005   3.870 -0.6194  0.7032 -0.1467
  863MOL0     O13819   6.072   0.957   3.984 -0.2378  0.3085  0.1323
  863MOL0     C13820   6.131   0.983   4.116 -0.3197 -0.2808  0.9140
  863MOL0     C13821   6.097   0.858   4.204  0.7570 -0.8873  0.3500
  863MOL0     C13822   6.079   0.920   4.349  1.5529  1.1580  0.8316
  863MOL0     C13823   6.009   0.814   4.444  0.2615 -0.5718  0.1088
  863MOL0     C13824   5.971   0.883   4.573  0.4400  0.4745 -0.7220
  863MOL0     C13825   5.965   0.784   4.689 -0.7682  0.6749 -0.4007
  863MOL0     C13826   5.866   0.664   4.679  0.3687 -0.6366 -0.3762
  863MOL0     C13827   5.850   0.612   4.822  0.2898 -0.2929  0.6797
  863MOL0    Cl13828   6.014   0.576   4.896  0.1217 -0.0776 -0.0352
  863MOL0     C13829   6.075   0.957   3.751 -0.5040  0.7196  1.0225
  863MOL0     C13830   6.122   1.003   3.624  0.2561 -0.5525 -0.2173
  863MOL0     O13831   6.361   1.342   3.537  0.7029  0.0192 -0.3005
  863MOL0     C13832   6.410   1.146   3.257 -0.2711 -0.0888 -0.9313
  863MOL0     C13833   6.459   1.146   3.133  0.3555 -0.9961 -0.1325
  863MOL0     N13834   5.991   1.447   2.785 -0.4190 -0.0671 -0.0305
  863MOL0     N13835   5.926   1.425   2.899  0.5679  0.2400 -0.0555
  863MOL0     C13836   5.457   1.076   3.907 -0.3789  0.5179  1.0510
  863MOL0     C13837   5.451   0.958   3.986 -0.3745  0.3534 -1.0872
  863MOL0     C13838   5.568   0.653   4.268  0.1224  1.1157 -0.0060
  863MOL0     C13839   5.584   0.521   4.208  0.5473  0.8514  0.2578
  863MOL0     C13840   5.591   0.415   4.292  0.1691  0.9924  0.2058
  863MOL0     C13841   5.566   0.424   4.424 -1.0892  0.6425 -0.3137
  863MOL0     O13842   5.560   0.300   4.491 -0.5617  0.4706  1.0544
  863MOL0     C13843   5.542   0.292   4.635  0.3508  0.3358  0.2328
  863MOL0     C13844   5.545   0.149   4.681 -0.3347 -0.3359  0.1897
  863MOL0     C13845   5.405   0.097   4.662  0.2499  0.2160  0.1119
  863MOL0     C13846   5.393  -0.039   4.744  0.2519 -0.1123  0.7150
  863MOL0     C13847   5.264  -0.092   4.718  1.0990  0.1291 -0.6853
  863MOL0     C13848   5.150  -0.115   4.705 -1.1892  0.5262 -0.3776
  863MOL0     C13849   5.541   0.550   4.485 -0.2443  0.5287  0.2226
  863MOL0     C13850   5.556   0.667   4.414  0.6459 -1.2869  0.4284
  863MOL0     H13851   5.744   0.817   3.864  1.4995  1.0874  0.7540
  863MOL0     H13852   5.724   1.003   3.709 -1.1481  1.2401 -0.4991
  863MOL0     H13853   5.661   1.359   3.791  0.0083 -1.8431  0.0278
  863MOL0     H13854   5.492   1.359   3.850  0.2391 -1.4762  0.4691
  863MOL0     H13855   5.505   1.518   3.666 -1.8796 -0.2048  0.9604
  863MOL0     H13856   5.400   1.374   3.642 -0.5314 -0.0666  0.8089
  863MOL0     H13857   5.538   1.454   3.435  0.3993 -0.1717  0.5847
  863MOL0     H13858   5.555   1.283   3.495  1.0559  0.0057 -2.3606
  863MOL0     H13859   5.766   1.505   3.557  0.6683 -0.8173  1.1696
  863MOL0     H13860   5.766   1.330   3.586 -4.1924 -5.0837 -2.3886
  863MOL0     H13861   5.775   1.484   3.321  6.8948  0.1499 -1.0389
  863MOL0     H13862   5.727   1.313   3.313  0.0929  1.1548 -0.3552
  863MOL0     H13863   5.950   1.248   3.377 -0.8944 -1.2033 -3.4004
  863MOL0     H13864   5.981   1.406   3.455  1.2949  0.6837 -2.3737
  863MOL0     H13865   5.931   1.502   3.219 -2.6238 -2.5994 -1.3811
  863MOL0     H13866   6.093   1.442   3.261 -0.3937 -0.9921  3.7583
  863MOL0     H13867   5.880   1.292   3.108  0.3055  1.6375 -0.6342
  863MOL0     H13868   6.035   1.218   3.147 -3.0907 -2.1937 -0.2980
  863MOL0     H13869   6.230   1.331   2.981  1.4655  2.0147 -2.5356
  863MOL0     H13870   6.251   1.566   2.715 -1.1269  0.3281 -0.9438
  863MOL0     H13871   6.201   1.429   2.611 -2.4405  1.7071  1.0981
  863MOL0     H13872   6.421   1.379   2.629  1.6615 -1.1105  0.8780
  863MOL0     H13873   6.357   1.275   2.747 -5.6286  1.4216  0.4133
  863MOL0     H13874   6.523   1.543   2.788 -0.2243  0.2442  0.2099
  863MOL0     H13875   6.421   1.479   2.916  1.3058  0.0197  0.4282
  863MOL0     H13876   6.677   1.408   2.926 -0.6195  1.5337 -0.0674
  863MOL0     H13877   6.638   1.323   2.778 -1.1219 -3.1611  1.1414
  863MOL0     H13878   6.557   1.466   3.112 -1.1330 -0.7333 -2.8444
  863MOL0     H13879   6.456   1.467   3.344  0.0555 -1.5808  2.9012
  863MOL0     H13880   6.344   1.224   3.745 -1.9528  1.6890  3.3584
  863MOL0     H13881   6.267   1.172   3.943  1.3772 -1.6646  0.0771
  863MOL0     H13882   6.099   1.078   4.159 -0.6276  0.5830 -1.1299
  863MOL0     H13883   6.240   0.993   4.115 -0.4508  1.9721 -1.5131
  863MOL0     H13884   6.185   0.793   4.206  0.4360 -1.3525 -0.1963
  863MOL0     H13885   6.011   0.801   4.167  1.6711  0.1689 -4.0058
  863MOL0     H13886   6.013   1.006   4.335 -1.1688 -0.8255  0.6832
  863MOL0     H13887   6.178   0.941   4.389  3.8094 -2.5922 -2.1077
  863MOL0     H13888   5.916   0.780   4.397 -0.1825 -1.7700  1.7571
  863MOL0     H13889   6.082   0.736   4.465 -0.0082 -0.4063  1.8596
  863MOL0     H13890   5.871   0.926   4.575 -0.3785 -1.3202 -0.9200
  863MOL0     H13891   6.047   0.954   4.609 -1.3871  1.9093  0.4831
  863MOL0     H13892   5.942   0.850   4.774  0.4108 -0.2245  0.6514
  863MOL0     H13893   6.064   0.749   4.719 -0.8685  0.7390  0.0095
  863MOL0     H13894   5.776   0.677   4.619  0.3228 -3.5247 -1.0564
  863MOL0     H13895   5.915   0.586   4.620  1.0617 -0.5516  0.0723
  863MOL0     H13896   5.796   0.517   4.813  2.3373 -1.7381  2.5650
  863MOL0     H13897   5.793   0.679   4.887 -1.3073  0.6558 -1.5400
  863MOL0     H13898   6.000   0.878   3.748  0.3660 -0.1620 -2.7219
  863MOL0     H13899   6.077   0.969   3.531  1.7711 -1.9163 -0.4904
  863MOL0     H13900   6.366   1.052   3.291 -0.2248 -1.0549 -3.3466
  863MOL0     H13901   6.443   1.053   3.080  4.7533 -2.0334 -0.0188
  863MOL0     H13902   5.378   1.149   3.921  0.2383  0.6531  4.9353
  863MOL0     H13903   5.371   0.938   4.057 -2.4461  0.4059 -3.2781
  863MOL0     H13904   5.590   0.498   4.102 -0.1474  1.8881 -0.0260
  863MOL0     H13905   5.607   0.318   4.246  1.1546  0.5498  1.4183
  863MOL0     H13906   5.448   0.344   4.656 -0.5822 -1.3992  0.5795
  863MOL0     H13907   5.612   0.348   4.697  0.6880  0.8603 -0.6081
  863MOL0     H13908   5.629   0.099   4.632  1.8860  1.2747  2.0964
  863MOL0     H13909   5.560   0.154   4.789 -1.4144  1.4298  0.2934
  863MOL0     H13910   5.398   0.079   4.554  0.6092  1.4039 -0.1229
  863MOL0     H13911   5.334   0.176   4.686  0.7995  0.5282  0.7581
  863MOL0     H13912   5.468  -0.107   4.703  0.9202  0.7282  0.5063
  863MOL0     H13913   5.417  -0.013   4.848 -1.1807 -2.1627  1.6222
  863MOL0     H13914   5.052  -0.158   4.698 -1.2458  0.7552 -1.0610
  863MOL0     H13915   5.517   0.550   4.591 -0.4631  0.3353  0.1759
  863MOL0     H13916   5.548   0.763   4.466  2.3845 -0.7459 -0.2488
  864MOL0     O13917   9.855   4.581   0.580 -1.0163  0.6088  0.2691
  864MOL0     C13918   9.797   4.512   0.662  0.2240 -0.3452 -0.6367
  864MOL0     O13919   9.853   4.418   0.741 -0.1174 -0.5544 -0.5380
  864MOL0     C13920   9.991   4.422   0.747  0.3992 -0.0303 -0.3790
  864MOL0     C13921  10.075   4.533   0.776  0.6232  1.0953 -0.0361
  864MOL0     C13922  10.212   4.521   0.795  0.1630 -0.2382 -0.3934
  864MOL0     C13923  10.279   4.403   0.755 -0.5498 -0.7667 -0.5215
  864MOL0     O13924  10.418   4.382   0.757  0.1870  0.4622  0.8424
  864MOL0     C13925  10.508   4.490   0.799 -0.1305 -0.2373 -0.5649
  864MOL0     C13926  10.659   4.444   0.771  0.3924  0.3600 -0.9054
  864MOL0     C13927  10.750   4.563   0.762 -0.5087 -0.2718 -0.8132
  864MOL0     C13928  10.745   4.641   0.897  0.2391  0.4675  0.0371
  864MOL0     C13929  10.810   4.562   1.008  0.0630  0.3559  1.1143
  864MOL0     C13930  10.905   4.650   1.090  0.3395  0.5764 -0.5979
  864MOL0     C13931  10.998   4.564   1.176  0.0827  0.1853 -0.2405
  864MOL0     C13932  10.929   4.476   1.289  0.3754  0.1914 -0.5264
  864MOL0     N13933  10.875   4.345   1.245 -0.3221  0.7031  0.4725
  864MOL0     C13934  10.945   4.264   1.157  0.1972 -0.2048 -0.6905
  864MOL0     C13935  10.863   4.160   1.113 -0.5420 -0.0602  0.4739
  864MOL0     C13936  10.874   4.062   1.007  0.4923 -0.0099  0.2722
  864MOL0     C13937  10.844   3.923   1.062  0.3457 -0.5031  0.1903
  864MOL0     C13938  10.802   3.830   0.945  0.8645 -0.3306  0.1986
  864MOL0     C13939  10.758   3.692   0.989  0.4129 -0.3065  1.0688
  864MOL0     O13940  10.739   3.614   0.874  0.0581 -0.1445  0.4818
  864MOL0     C13941  10.644   3.634   0.787  0.3665  0.3672  0.0228
  864MOL0     C13942  10.659   3.602   0.657 -0.5401  0.1998  0.2766
  864MOL0     C13943  10.546   3.592   0.572 -0.4002  0.1607  0.1250
  864MOL0     C13944  10.429   3.643   0.619  0.7092 -0.3065 -0.1373
  864MOL0     C13945  10.312   3.648   0.538  0.0438 -1.0690 -0.2407
  864MOL0     O13946  10.322   3.613   0.406  0.1782 -0.6649  0.8109
  864MOL0     C13947  10.214   3.630   0.311  0.0998 -0.0276  0.1682
  864MOL0     C13948  10.212   3.545   0.198 -0.1293 -0.3375 -0.4367
  864MOL0     C13949  10.111   3.547   0.106  0.1255 -0.1862 -0.4539
  864MOL0     C13950  10.005   3.639   0.121 -0.2547  0.2383  0.0338
  864MOL0     O13951   9.899   3.667   0.034 -0.4451  0.0417  0.0986
  864MOL0     C13952   9.907   3.615  -0.104 -0.4119  0.0334 -1.0844
  864MOL0     C13953   9.809   3.682  -0.196  1.3836  0.2566  0.0985
  864MOL0     C13954   9.847   3.828  -0.188 -0.4685  0.1881 -0.2671
  864MOL0     C13955   9.731   3.915  -0.248 -0.6495  0.2187  0.1855
  864MOL0     C13956   9.767   4.060  -0.260  0.5846 -0.3447  0.1642
  864MOL0     C13957   9.796   4.141  -0.129  0.5512  0.7099  0.8017
  864MOL0     C13958   9.671   4.135  -0.046  0.5820 -0.6036 -0.5938
  864MOL0     C13959   9.683   4.231   0.071  0.0947 -0.0125  0.5399
  864MOL0    Cl13960   9.659   4.401   0.012 -0.1672  0.1745 -0.5295
  864MOL0     C13961  10.006   3.720   0.237 -0.1214  0.3408 -0.0808
  864MOL0     C13962  10.106   3.717   0.332 -0.3934  0.1080 -0.1067
  864MOL0     O13963  10.206   3.670   0.598  0.3444  0.1142  0.0043
  864MOL0     C13964  10.411   3.689   0.750 -0.2433  0.0444  0.2077
  864MOL0     C13965  10.521   3.681   0.831 -0.9470  0.2443  0.3589
  864MOL0     N13966  10.751   4.176   1.194 -0.3660 -0.5954 -0.8439
  864MOL0     N13967  10.755   4.284   1.267  0.0929 -0.5088  0.1833
  864MOL0     C13968  10.203   4.293   0.718 -0.1642 -1.4444  0.9179
  864MOL0     C13969  10.063   4.306   0.724 -0.3453 -0.1314  0.4846
  864MOL0     C13970   9.650   4.541   0.691  0.1250 -0.1829 -0.0079
  864MOL0     C13971   9.582   4.603   0.590  0.0249 -0.6584  0.2253
  864MOL0     C13972   9.453   4.637   0.614 -0.2314  0.1150 -0.4920
  864MOL0     C13973   9.386   4.608   0.728 -0.0633 -0.4400 -0.5462
  864MOL0     O13974   9.250   4.650   0.738 -0.4335  0.0150  0.4977
  864MOL0     C13975   9.184   4.560   0.831 -0.4571  0.6316 -0.5558
  864MOL0     C13976   9.035   4.574   0.826  0.0142  0.1945  0.3710
  864MOL0     C13977   8.971   4.475   0.926 -0.3050 -0.0442 -0.0594
  864MOL0     C13978   8.822   4.492   0.922 -0.1417  0.0635  0.1704
  864MOL0     C13979   8.745   4.392   0.993  0.5270  0.0410 -0.2060
  864MOL0     C13980   8.666   4.302   1.033  0.0478 -0.8475 -0.6942
  864MOL0     C13981   9.462   4.554   0.835 -0.1715 -0.1191  0.2486
  864MOL0     C13982   9.589   4.518   0.819  0.1367  0.6009 -0.2427
  864MOL0     H13983  10.026   4.627   0.800 -1.3800 -0.3681  2.1124
  864MOL0     H13984  10.268   4.613   0.808 -1.0308  0.8208 -2.2380
  864MOL0     H13985  10.482   4.503   0.905 -2.0859  2.0691 -1.2293
  864MOL0     H13986  10.481   4.581   0.744 -1.6838 -0.3639 -0.0827
  864MOL0     H13987  10.677   4.401   0.672  2.5794  0.8277 -0.7508
  864MOL0     H13988  10.690   4.372   0.847 -2.4794  0.7308  0.7853
  864MOL0     H13989  10.712   4.630   0.685 -1.2050  0.1526 -0.1115
  864MOL0     H13990  10.846   4.520   0.731 -0.2801  0.3206 -0.9480
  864MOL0     H13991  10.804   4.731   0.878 -1.3206  1.5475  0.1437
  864MOL0     H13992  10.643   4.670   0.922  0.1910  2.3644 -2.0096
  864MOL0     H13993  10.867   4.482   0.961 -0.1219  2.1078 -2.4011
  864MOL0     H13994  10.729   4.531   1.076 -1.3272  1.1369 -0.1294
  864MOL0     H13995  10.855   4.724   1.152  3.3282  1.9482  0.3952
  864MOL0     H13996  10.973   4.699   1.019  0.4392  2.5609  0.7694
  864MOL0     H13997  11.038   4.491   1.105 -0.9806 -1.5569  0.8968
  864MOL0     H13998  11.073   4.627   1.224 -2.5557  0.8311  3.4967
  864MOL0     H13999  10.850   4.525   1.346 -2.4737 -2.8908 -1.4560
  864MOL0     H14000  11.008   4.453   1.361  0.0141  1.0394  0.1418
  864MOL0     H14001  11.044   4.281   1.116 -2.0979  2.7566 -6.0037
  864MOL0     H14002  10.967   4.074   0.950 -0.3804 -0.5540 -1.3363
  864MOL0     H14003  10.803   4.086   0.928 -0.5213  0.1782  1.2256
  864MOL0     H14004  10.762   3.927   1.134 -2.1107  4.8939 -2.4103
  864MOL0     H14005  10.938   3.892   1.110  1.0905  0.7397 -0.4248
  864MOL0     H14006  10.714   3.882   0.908  3.0329  0.5248 -4.3880
  864MOL0     H14007  10.879   3.813   0.870 -1.3570 -4.6023 -1.4550
  864MOL0     H14008  10.673   3.712   1.054 -0.0573  4.1141 -0.5413
  864MOL0     H14009  10.825   3.642   1.059  0.0779 -0.4417  1.2905
  864MOL0     H14010  10.749   3.556   0.618 -0.3867  1.4074 -0.8427
  864MOL0     H14011  10.551   3.563   0.468  1.4947 -0.0971  0.2499
  864MOL0     H14012  10.290   3.470   0.191 -1.8583 -2.3467  0.4891
  864MOL0     H14013  10.106   3.480   0.021  0.4354 -0.9200  0.0927
  864MOL0     H14014   9.899   3.508  -0.125  2.1028 -0.5133  0.3574
  864MOL0     H14015  10.003   3.650  -0.143 -1.5771  3.0067 -1.5701
  864MOL0     H14016   9.713   3.658  -0.150  1.1378  0.7703 -0.1461
  864MOL0     H14017   9.817   3.647  -0.300 -0.1581  0.4124 -0.0923
  864MOL0     H14018   9.937   3.843  -0.250 -1.0212 -2.7076 -1.9373
  864MOL0     H14019   9.881   3.861  -0.090  1.7562 -1.6027 -0.3656
  864MOL0     H14020   9.726   3.885  -0.353  1.7302  3.5376 -1.0485
  864MOL0     H14021   9.639   3.889  -0.195 -0.8797 -0.7380 -0.6467
  864MOL0     H14022   9.684   4.113  -0.309 -0.7902  2.1198  4.5623
  864MOL0     H14023   9.856   4.070  -0.323 -0.0609 -2.1133 -1.0877
  864MOL0     H14024   9.828   4.244  -0.146 -0.8303  1.4504  2.4104
  864MOL0     H14025   9.881   4.092  -0.080  0.9335  0.9928  0.4346
  864MOL0     H14026   9.583   4.149  -0.109 -1.3458  1.9129  2.3268
  864MOL0     H14027   9.675   4.040   0.009  0.9754  0.6499  1.6860
  864MOL0     H14028   9.775   4.212   0.127  0.9214  1.8269 -0.1270
  864MOL0     H14029   9.601   4.210   0.140  2.3454 -0.3948  3.2610
  864MOL0     H14030   9.925   3.789   0.262 -1.6501 -1.9824  1.8217
  864MOL0     H14031  10.095   3.790   0.412 -0.4787  2.9637 -2.5398
  864MOL0     H14032  10.324   3.743   0.785 -0.9356  1.2934 -3.0715
  864MOL0     H14033  10.519   3.725   0.930  0.9404  0.7283  0.2261
  864MOL0     H14034  10.255   4.199   0.702 -0.0867 -1.5248  1.5970
  864MOL0     H14035  10.010   4.218   0.688 -0.7563  0.7553 -1.2214
  864MOL0     H14036   9.626   4.633   0.496 -1.5204 -3.9112 -1.6796
  864MOL0     H14037   9.381   4.684   0.547  0.7858  2.4679 -0.0349
  864MOL0     H14038   9.212   4.593   0.932 -2.1244  1.4643 -0.3305
  864MOL0     H14039   9.198   4.454   0.806  0.0049  0.2278  1.2308
  864MOL0     H14040   9.010   4.678   0.852  0.3904 -0.2693  2.7714
  864MOL0     H14041   9.003   4.553   0.724 -2.5188 -2.4255  1.5711
  864MOL0     H14042   9.021   4.487   1.022  0.2171  1.7563 -0.5197
  864MOL0     H14043   8.981   4.371   0.893 -0.3429 -0.6038  1.5889
  864MOL0     H14044   8.812   4.595   0.958  3.0367  1.5764 -2.6567
  864MOL0     H14045   8.801   4.507   0.816  1.4750  2.1474  0.0608
  864MOL0     H14046   8.597   4.228   1.069 -3.2815  1.5340 -1.6613
  864MOL0     H14047   9.410   4.536   0.929  1.2316  1.1287  1.3229
  864MOL0     H14048   9.647   4.476   0.901  0.7609 -4.0250 -2.6608
  865MOL0     O14049   4.346   5.854   2.821 -0.1533  0.5246  0.0088
  865MOL0     C14050   4.443   5.938   2.825  1.1853 -1.0873 -0.2233
  865MOL0     O14051   4.453   6.054   2.754 -0.1621  0.6626 -0.0649
  865MOL0     C14052   4.348   6.073   2.669  0.4989 -0.1040  0.3710
  865MOL0     C14053   4.341   6.014   2.541 -0.8330 -0.0657  0.3747
  865MOL0     C14054   4.235   6.044   2.451 -0.3428  0.1274  0.6656
  865MOL0     C14055   4.136   6.140   2.476 -1.5456 -0.6893  0.3005
  865MOL0     O14056   4.034   6.186   2.395  0.1792  0.3202 -0.5443
  865MOL0     C14057   4.001   6.097   2.280 -0.1488 -0.7479 -0.2716
  865MOL0     C14058   3.906   5.992   2.335  0.2470  0.3704  0.0170
  865MOL0     C14059   3.795   6.055   2.423  0.3848 -0.4707  0.8618
  865MOL0     C14060   3.698   5.952   2.481 -0.2180  0.0147  0.1687
  865MOL0     C14061   3.744   5.824   2.570  0.1513  0.2718  0.2283
  865MOL0     C14062   3.813   5.837   2.707  0.6271 -0.1078 -0.0887
  865MOL0     C14063   3.948   5.885   2.696  0.1701 -1.0518  1.0849
  865MOL0     C14064   4.023   5.881   2.832  0.2320  0.1812  1.0174
  865MOL0     N14065   4.012   5.751   2.895  0.5883  0.1570  0.1004
  865MOL0     C14066   4.084   5.644   2.850  0.6278  0.3409 -0.6632
  865MOL0     C14067   4.079   5.552   2.945 -0.0352  0.6240 -0.4965
  865MOL0     C14068   4.153   5.421   2.947  0.1428  0.7742  0.0317
  865MOL0     C14069   4.295   5.442   2.993  0.8269 -0.0657  0.0574
  865MOL0     C14070   4.376   5.314   2.961 -0.1850 -0.1544  0.0662
  865MOL0     C14071   4.523   5.336   2.947 -0.2444 -0.7067 -0.6224
  865MOL0     O14072   4.601   5.215   2.921 -0.2240  0.9670  0.1624
  865MOL0     C14073   4.728   5.239   2.877 -0.6908 -0.0339 -0.5644
  865MOL0     C14074   4.790   5.143   2.805 -0.2492 -0.3985 -0.0195
  865MOL0     C14075   4.919   5.157   2.760  0.2573 -0.3306 -0.2853
  865MOL0     C14076   5.006   5.261   2.796  1.4259  0.1103 -0.1249
  865MOL0     C14077   5.139   5.291   2.740 -0.3544  0.5715  0.0823
  865MOL0     O14078   5.212   5.392   2.795 -0.2350  0.1593 -1.3480
  865MOL0     C14079   5.345   5.418   2.752  0.7380 -0.6793  0.8252
  865MOL0     C14080   5.434   5.312   2.743 -0.6402  0.6422 -0.2430
  865MOL0     C14081   5.567   5.338   2.710 -0.2825  1.2099  0.6451
  865MOL0     C14082   5.600   5.467   2.651  0.8862  0.2114  0.6109
  865MOL0     O14083   5.730   5.485   2.620  0.7091  0.5324  0.7486
  865MOL0     C14084   5.801   5.605   2.639 -0.7113 -0.8803 -0.0693
  865MOL0     C14085   5.946   5.609   2.599 -0.6200  0.2164 -1.1914
  865MOL0     C14086   6.003   5.750   2.620  0.2493  0.0871  0.0735
  865MOL0     C14087   6.037   5.782   2.767  0.3949 -0.1423  0.6785
  865MOL0     C14088   6.142   5.898   2.760  0.3753  0.3393  0.5605
  865MOL0     C14089   6.156   5.970   2.895  0.6883 -0.8440 -0.6206
  865MOL0     C14090   6.278   6.053   2.916  0.0287 -0.0413  0.6942
  865MOL0     C14091   6.404   5.974   2.873 -0.4161 -0.1336  0.3450
  865MOL0    Cl14092   6.556   6.059   2.912 -0.1026 -0.0721  0.4548
  865MOL0     C14093   5.502   5.568   2.640  0.6542 -0.2900 -0.4605
  865MOL0     C14094   5.376   5.541   2.691 -0.2864  0.6498  0.4437
  865MOL0     O14095   5.174   5.210   2.649  0.1390 -0.0736 -0.5061
  865MOL0     C14096   4.947   5.362   2.876 -0.5114 -0.4599 -0.3429
  865MOL0     C14097   4.813   5.348   2.918 -0.9489  0.4023 -1.0679
  865MOL0     N14098   4.011   5.607   3.051 -0.0657 -0.1602 -0.2523
  865MOL0     N14099   3.963   5.721   3.026 -0.0436  0.1058 -0.7477
  865MOL0     C14100   4.159   6.202   2.608 -0.5218  0.7835  0.5549
  865MOL0     C14101   4.252   6.165   2.703  0.2109  0.0167  0.3010
  865MOL0     C14102   4.568   5.896   2.894  0.8983 -0.2798  0.7007
  865MOL0     C14103   4.572   5.772   2.959  0.1183 -0.1712  1.0153
  865MOL0     C14104   4.684   5.732   3.022 -0.2948 -0.6045 -0.1060
  865MOL0     C14105   4.799   5.809   3.028  0.3046  0.7583  0.0780
  865MOL0     O14106   4.915   5.769   3.091  0.7054  0.1136 -0.0839
  865MOL0     C14107   4.900   5.721   3.225 -0.1803 -0.1540 -0.1606
  865MOL0     C14108   4.933   5.579   3.245  0.3286  0.2179 -0.7547
  865MOL0     C14109   4.896   5.532   3.388  0.4745 -0.4028 -0.3717
  865MOL0     C14110   4.953   5.399   3.436 -1.4956 -0.5874 -0.5660
  865MOL0     C14111   4.926   5.295   3.341 -0.7701  0.7256  0.7143
  865MOL0     C14112   4.905   5.196   3.272  0.8335 -0.1824  0.4127
  865MOL0     C14113   4.805   5.922   2.943 -0.5730  0.2050 -0.3696
  865MOL0     C14114   4.689   5.968   2.873  0.5217 -0.0279 -0.2882
  865MOL0     H14115   4.424   5.955   2.502 -0.9112  0.5577 -0.7999
  865MOL0     H14116   4.240   5.995   2.354  0.3900 -0.4842  1.0045
  865MOL0     H14117   4.083   6.042   2.232 -1.2975 -4.1302  1.3358
  865MOL0     H14118   3.955   6.157   2.201 -1.1529 -1.8966 -0.5825
  865MOL0     H14119   3.961   5.917   2.392 -0.4640  0.4327  0.8139
  865MOL0     H14120   3.861   5.930   2.258  3.1643  1.2674 -2.5964
  865MOL0     H14121   3.747   6.135   2.366  1.6799  2.1493  3.1802
  865MOL0     H14122   3.837   6.113   2.506  1.7948  0.6640 -0.5868
  865MOL0     H14123   3.636   6.016   2.544 -2.2580 -0.1917 -1.5622
  865MOL0     H14124   3.640   5.933   2.391  2.5334 -0.2776 -1.6718
  865MOL0     H14125   3.795   5.750   2.507 -3.3613 -2.0677 -0.1465
  865MOL0     H14126   3.647   5.776   2.587 -0.2332 -0.2749 -2.9238
  865MOL0     H14127   3.804   5.755   2.779 -1.7091 -0.9915 -1.2974
  865MOL0     H14128   3.755   5.915   2.757  0.7296 -0.8466  1.2299
  865MOL0     H14129   4.013   5.848   2.616  0.0389 -1.2035  1.0492
  865MOL0     H14130   3.960   5.990   2.668  1.7522 -1.1849  1.1278
  865MOL0     H14131   3.987   5.961   2.898 -0.9990  1.4291 -1.0554
  865MOL0     H14132   4.126   5.906   2.806  0.8053 -2.8877 -0.0254
  865MOL0     H14133   4.136   5.639   2.755  1.0866  1.1982 -0.4739
  865MOL0     H14134   4.149   5.385   2.844  1.5765 -0.8743  0.5136
  865MOL0     H14135   4.109   5.345   3.011  0.5866  0.6105  0.1430
  865MOL0     H14136   4.294   5.467   3.099 -0.5659  4.7406 -0.8399
  865MOL0     H14137   4.337   5.535   2.954  2.0137  0.5995  2.7289
  865MOL0     H14138   4.365   5.249   3.049 -2.3371  1.6087  1.1951
  865MOL0     H14139   4.346   5.255   2.874 -0.8370  0.2026  0.0448
  865MOL0     H14140   4.577   5.377   3.033  3.6219  0.4999 -3.3977
  865MOL0     H14141   4.537   5.410   2.868 -0.4071  1.7186  1.4584
  865MOL0     H14142   4.736   5.056   2.770 -1.1461 -1.2867  3.2325
  865MOL0     H14143   4.965   5.092   2.686  1.5545  1.5928 -1.2622
  865MOL0     H14144   5.405   5.213   2.777 -1.0661  1.2083  1.0742
  865MOL0     H14145   5.646   5.264   2.716  0.2381  1.7918  1.2221
  865MOL0     H14146   5.786   5.633   2.744 -0.5704 -0.5007 -0.1471
  865MOL0     H14147   5.758   5.682   2.574  0.2511  0.7220  1.0980
  865MOL0     H14148   5.945   5.579   2.494 -1.3067  0.7375 -1.3399
  865MOL0     H14149   6.023   5.554   2.655  0.3916  2.4620 -0.2226
  865MOL0     H14150   5.939   5.829   2.581  1.1220 -0.6090 -3.0620
  865MOL0     H14151   6.101   5.756   2.572  1.0195  4.4121  1.7897
  865MOL0     H14152   5.950   5.813   2.825 -0.3138 -2.0809  0.7365
  865MOL0     H14153   6.076   5.694   2.819  1.1193  0.0411  0.4590
  865MOL0     H14154   6.128   5.964   2.674  0.3166  1.2379  1.2409
  865MOL0     H14155   6.240   5.862   2.726 -0.1581  0.7919 -1.5994
  865MOL0     H14156   6.160   5.886   2.965 -3.2546 -0.9493 -0.2833
  865MOL0     H14157   6.068   6.031   2.919  0.9393 -1.7930  3.4077
  865MOL0     H14158   6.270   6.139   2.849 -1.4290 -0.2026  0.6396
  865MOL0     H14159   6.286   6.097   3.016  1.4587 -1.3370  1.1891
  865MOL0     H14160   6.407   5.952   2.766 -0.6409  3.4916 -0.5654
  865MOL0     H14161   6.401   5.872   2.912  2.3418  0.3370  2.0524
  865MOL0     H14162   5.513   5.668   2.598 -0.9076  0.3222  0.5191
  865MOL0     H14163   5.301   5.619   2.695  1.6925  2.6864  0.1552
  865MOL0     H14164   4.999   5.446   2.922 -1.1366 -0.1466 -0.1999
  865MOL0     H14165   4.773   5.421   2.987 -3.5914 -1.1478 -0.8297
  865MOL0     H14166   4.079   6.270   2.635 -2.6510 -0.7135 -1.4991
  865MOL0     H14167   4.259   6.219   2.797 -0.5639  2.7531 -1.1166
  865MOL0     H14168   4.484   5.709   2.952 -0.2317  0.4579 -0.5723
  865MOL0     H14169   4.676   5.644   3.085 -0.5472 -2.0647 -2.0912
  865MOL0     H14170   4.794   5.719   3.251 -1.0288  1.5160 -2.9264
  865MOL0     H14171   4.954   5.781   3.299  1.3635  0.1294 -1.4553
  865MOL0     H14172   4.883   5.510   3.176  2.3881 -1.4157 -0.7408
  865MOL0     H14173   5.042   5.570   3.237  0.2706  0.2453 -1.7184
  865MOL0     H14174   4.787   5.524   3.393  0.5205 -0.4575  1.1423
  865MOL0     H14175   4.924   5.617   3.452  3.0397 -0.9619 -0.6833
  865MOL0     H14176   5.062   5.399   3.452 -1.5495 -3.4774  0.3268
  865MOL0     H14177   4.894   5.371   3.524 -3.0865  3.8711  0.0455
  865MOL0     H14178   4.864   5.116   3.214 -3.3834 -0.6612  3.5653
  865MOL0     H14179   4.889   5.992   2.943 -2.8609  3.1774 -1.8437
  865MOL0     H14180   4.692   6.057   2.809 -0.1504 -0.9774 -1.6959
  866MOL0     O14181   4.482  10.841   7.968  0.8306  0.1199 -0.5080
  866MOL0     C14182   4.478  10.734   8.034  0.1236 -0.1630 -0.3366
  866MOL0     O14183   4.453  10.613   7.988 -0.3409  0.2213  0.9373
  866MOL0     C14184   4.438  10.587   7.852 -0.0978  0.4881  0.2001
  866MOL0     C14185   4.346  10.633   7.762  0.1504  0.4662  1.3475
  866MOL0     C14186   4.346  10.594   7.621 -0.7321  0.7793 -0.2223
  866MOL0     C14187   4.422  10.481   7.592  0.2319 -0.2952  1.2302
  866MOL0     O14188   4.421  10.429   7.472 -0.4874 -0.3500  0.4180
  866MOL0     C14189   4.356  10.296   7.475  0.2085 -0.7524 -0.4543
  866MOL0     C14190   4.208  10.298   7.409 -0.0622 -0.8204  0.0169
  866MOL0     C14191   4.210  10.320   7.257 -1.3229  0.2907  0.4629
  866MOL0     C14192   4.278  10.210   7.173 -0.9511  0.0182 -0.1335
  866MOL0     C14193   4.228  10.225   7.028 -0.9670 -0.4816  0.0253
  866MOL0     C14194   4.290  10.127   6.942 -0.2770  0.2012  0.9504
  866MOL0     C14195   4.296   9.971   6.976  0.5346  0.6556 -0.4074
  866MOL0     C14196   4.146   9.921   6.989 -0.1666 -0.1315  0.4384
  866MOL0     N14197   4.148   9.785   7.052 -0.1074  0.9399 -0.4722
  866MOL0     C14198   4.187   9.668   6.988 -0.3973  0.6206 -0.0213
  866MOL0     C14199   4.153   9.556   7.065  0.7507  0.2021  0.6222
  866MOL0     C14200   4.184   9.420   7.027 -0.4480  0.3286 -0.2256
  866MOL0     C14201   4.079   9.355   6.926 -0.1760 -0.6851  0.1378
  866MOL0     C14202   3.942   9.349   7.001 -0.1612  0.4363 -0.2424
  866MOL0     C14203   3.856   9.250   6.920  0.9934  0.3316  0.3042
  866MOL0     O14204   3.822   9.294   6.793 -0.0442 -0.2448  0.2374
  866MOL0     C14205   3.743   9.221   6.718 -0.3130  0.2706  1.1501
  866MOL0     C14206   3.646   9.135   6.764 -0.3228  0.4325  0.0001
  866MOL0     C14207   3.579   9.055   6.669  1.0390 -0.5264  0.3706
  866MOL0     C14208   3.609   9.071   6.535 -0.7894  0.7422  0.2579
  866MOL0     C14209   3.548   8.992   6.433  0.2917 -0.0852  0.7695
  866MOL0     O14210   3.443   8.918   6.477  0.3894 -1.0693  0.1347
  866MOL0     C14211   3.361   8.843   6.389  0.3072 -0.2476  1.0453
  866MOL0     C14212   3.403   8.767   6.272 -1.0094  0.2769  0.4769
  866MOL0     C14213   3.317   8.685   6.201 -0.0914  0.0579 -0.7276
  866MOL0     C14214   3.184   8.678   6.240 -0.5011 -0.0831  0.3696
  866MOL0     O14215   3.093   8.601   6.168  0.8100 -0.5890 -0.1194
  866MOL0     C14216   3.039   8.506   6.264  1.3069  0.2058  0.7729
  866MOL0     C14217   2.991   8.377   6.195  0.5567  0.1705  0.9683
  866MOL0     C14218   3.019   8.253   6.271 -0.2311 -0.2012 -0.8858
  866MOL0     C14219   2.957   8.243   6.408 -0.0670  0.9665 -0.2559
  866MOL0     C14220   2.804   8.239   6.417 -0.6041 -0.7197  0.1207
  866MOL0     C14221   2.770   8.278   6.564  0.7495  0.0074  0.1084
  866MOL0     C14222   2.616   8.265   6.590 -0.8822  0.0236 -0.0158
  866MOL0     C14223   2.580   8.298   6.736  0.6807 -0.6945 -0.5351
  866MOL0    Cl14224   2.695   8.213   6.851  0.5929  0.4752 -0.3847
  866MOL0     C14225   3.138   8.752   6.353 -0.7553 -0.2339 -0.1346
  866MOL0     C14226   3.229   8.824   6.436 -0.2262 -0.2513 -0.3752
  866MOL0     O14227   3.569   9.016   6.312 -0.4623  0.0149 -1.2485
  866MOL0     C14228   3.716   9.150   6.487 -0.7537 -0.9537 -0.7098
  866MOL0     C14229   3.785   9.232   6.584 -0.1720 -0.1977 -0.0308
  866MOL0     N14230   4.092   9.609   7.179  0.7250  0.3582  0.1917
  866MOL0     N14231   4.108   9.742   7.176 -0.1401 -0.4066  0.2050
  866MOL0     C14232   4.506  10.425   7.685  0.1889  0.4695 -0.2041
  866MOL0     C14233   4.524  10.480   7.806  0.9590 -0.5117 -0.1856
  866MOL0     C14234   4.520  10.735   8.181  1.1467 -0.1445  1.4112
  866MOL0     C14235   4.598  10.841   8.238 -0.2167  0.4657 -0.0953
  866MOL0     C14236   4.620  10.848   8.377 -0.9673 -0.2615  0.0824
  866MOL0     C14237   4.567  10.745   8.460 -0.5429  0.7842 -0.6784
  866MOL0     O14238   4.604  10.770   8.588 -0.2158  0.6739 -0.1098
  866MOL0     C14239   4.618  10.660   8.686  0.2182  0.0848  0.0855
  866MOL0     C14240   4.752  10.581   8.657 -0.2172  0.6545 -0.1130
  866MOL0     C14241   4.765  10.447   8.718 -0.2224  0.5299  0.5877
  866MOL0     C14242   4.645  10.352   8.683 -0.9200  0.8907  0.4542
  866MOL0     C14243   4.688  10.214   8.711 -0.4898  0.6876 -0.2060
  866MOL0     C14244   4.736  10.103   8.733  0.1265  0.0040 -0.3261
  866MOL0     C14245   4.496  10.631   8.404 -0.0309 -1.2755 -1.0343
  866MOL0     C14246   4.465  10.638   8.271 -0.3614  0.1705 -0.5072
  866MOL0     H14247   4.264  10.699   7.789 -1.2202  0.7241 -2.7282
  866MOL0     H14248   4.281  10.629   7.541 -0.8174 -4.2086 -2.7603
  866MOL0     H14249   4.347  10.247   7.573 -2.1258  1.8762  0.7736
  866MOL0     H14250   4.431  10.239   7.418  0.8370  0.4339 -0.8505
  866MOL0     H14251   4.142  10.371   7.457 -0.4352  0.6409 -2.4984
  866MOL0     H14252   4.166  10.199   7.429  2.1699 -1.7006  0.7211
  866MOL0     H14253   4.267  10.411   7.238 -0.3678 -0.4530 -0.3235
  866MOL0     H14254   4.110  10.345   7.220 -1.0766  0.8883  0.1874
  866MOL0     H14255   4.387  10.214   7.169 -0.9271  1.5954  1.1511
  866MOL0     H14256   4.246  10.114   7.215  1.3614  0.0724  1.9598
  866MOL0     H14257   4.252  10.324   6.988  0.6758 -0.6040  0.6076
  866MOL0     H14258   4.119  10.221   7.026 -1.1127  1.8096  0.5620
  866MOL0     H14259   4.391  10.160   6.915 -0.1001  0.3532  1.7540
  866MOL0     H14260   4.248  10.125   6.841  0.1202 -0.9876  0.7842
  866MOL0     H14261   4.342   9.901   6.906 -1.8573 -1.9291  0.4060
  866MOL0     H14262   4.340   9.957   7.076  0.2497 -1.7780 -0.5644
  866MOL0     H14263   4.092   9.921   6.894  0.0201 -1.1176  0.3223
  866MOL0     H14264   4.096   9.982   7.065  1.4199  3.8355 -1.4071
  866MOL0     H14265   4.234   9.671   6.890  0.2940  3.3897  0.3308
  866MOL0     H14266   4.171   9.352   7.112  1.6868  0.4985  0.3133
  866MOL0     H14267   4.287   9.421   6.990  0.3304 -0.1721  1.7801
  866MOL0     H14268   4.103   9.253   6.896  2.8728 -0.0838  0.1785
  866MOL0     H14269   4.062   9.416   6.836  1.9668 -2.8371 -1.8922
  866MOL0     H14270   3.963   9.315   7.103  0.9938  0.4705 -0.4496
  866MOL0     H14271   3.899   9.448   7.020  1.0056  0.7536  0.9611
  866MOL0     H14272   3.766   9.249   6.982 -0.4820  0.4862 -1.7595
  866MOL0     H14273   3.896   9.148   6.927  3.4471  1.2427  0.4826
  866MOL0     H14274   3.608   9.126   6.865 -0.5042 -2.9160 -0.2664
  866MOL0     H14275   3.492   8.995   6.694 -0.4539  0.5805 -1.8829
  866MOL0     H14276   3.510   8.767   6.252 -0.8301  2.1069  1.2228
  866MOL0     H14277   3.348   8.632   6.111 -0.6195  0.1184 -0.9525
  866MOL0     H14278   2.951   8.558   6.304  0.8714  0.9240 -1.0148
  866MOL0     H14279   3.110   8.485   6.344 -0.6417 -0.3169  2.4589
  866MOL0     H14280   3.042   8.368   6.099 -0.6755  0.2040  0.2824
  866MOL0     H14281   2.889   8.387   6.156  1.5267  0.3729 -1.6735
  866MOL0     H14282   3.128   8.244   6.274 -0.4274 -3.6061  0.4315
  866MOL0     H14283   2.977   8.168   6.216 -1.2294 -1.2166  1.3503
  866MOL0     H14284   2.979   8.146   6.453 -2.6074  0.6600  0.5314
  866MOL0     H14285   2.995   8.325   6.469 -0.9993  0.3580  1.1957
  866MOL0     H14286   2.779   8.133   6.404  0.1448 -1.1927  2.1492
  866MOL0     H14287   2.765   8.312   6.345  1.0496 -1.5534 -1.7090
  866MOL0     H14288   2.809   8.377   6.591  1.3716 -0.1230 -0.2784
  866MOL0     H14289   2.811   8.200   6.629  5.1353  1.6177 -0.3938
  866MOL0     H14290   2.564   8.337   6.526  0.2510  0.0645 -0.9146
  866MOL0     H14291   2.577   8.165   6.575 -0.3177 -0.0546 -1.0083
  866MOL0     H14292   2.473   8.280   6.747  0.0458  0.8451 -3.3317
  866MOL0     H14293   2.604   8.405   6.732  3.0478 -1.1157  0.7216
  866MOL0     H14294   3.034   8.759   6.381  0.3834  2.3076  4.4121
  866MOL0     H14295   3.190   8.886   6.517  0.8302  1.4450 -1.0938
  866MOL0     H14296   3.754   9.160   6.385 -0.9055  1.3169 -0.5787
  866MOL0     H14297   3.866   9.299   6.558  1.6085 -2.6808 -1.1759
  866MOL0     H14298   4.578  10.350   7.655  1.2604  2.3530 -2.6971
  866MOL0     H14299   4.598  10.442   7.876  2.7219  0.5080 -1.4510
  866MOL0     H14300   4.637  10.927   8.186 -2.5969  0.4360 -2.0960
  866MOL0     H14301   4.690  10.925   8.406 -0.7118 -0.9909  1.5114
  866MOL0     H14302   4.529  10.596   8.685  0.0427  0.1276  3.1577
  866MOL0     H14303   4.613  10.705   8.786  1.3422 -0.4132  0.3720
  866MOL0     H14304   4.755  10.552   8.552 -0.1367  2.3111 -0.6021
  866MOL0     H14305   4.844  10.634   8.683  0.2254 -0.1489  0.0056
  866MOL0     H14306   4.773  10.456   8.827  0.6611 -1.0225  0.6752
  866MOL0     H14307   4.854  10.395   8.680 -0.2424 -1.4794  2.9787
  866MOL0     H14308   4.562  10.384   8.748 -0.3589 -1.2750  2.3877
  866MOL0     H14309   4.620  10.355   8.577  1.0480  0.7677 -0.0347
  866MOL0     H14310   4.768  10.001   8.744  4.4228  1.3591  2.2533
  866MOL0     H14311   4.453  10.557   8.471  2.1085 -0.3738  1.5396
  866MOL0     H14312   4.404  10.564   8.222  0.3484 -0.6778 -0.1317
  867MOL0     O14313   7.180   6.236   7.039  1.0249  0.5598 -0.0973
  867MOL0     C14314   7.086   6.245   6.959  0.4873  0.2161 -0.2515
  867MOL0     O14315   6.975   6.161   6.959  0.0146  0.0169  0.2415
  867MOL0     C14316   6.967   6.062   7.055 -0.1769 -0.7248  0.1133
  867MOL0     C14317   6.937   5.934   7.011  0.1085 -0.2886  1.6696
  867MOL0     C14318   6.943   5.829   7.105  0.4307  0.0551 -0.1818
  867MOL0     C14319   6.977   5.848   7.243  0.4029  0.6065 -1.3802
  867MOL0     O14320   7.001   5.741   7.328 -0.7229  0.0983  0.3226
  867MOL0     C14321   7.082   5.767   7.453  0.7868  0.0677  0.6578
  867MOL0     C14322   7.120   5.628   7.520  0.6439 -0.0060  0.1917
  867MOL0     C14323   7.209   5.646   7.634  1.1788 -0.8533  0.2736
  867MOL0     C14324   7.256   5.509   7.688 -0.1950  0.1962  0.7569
  867MOL0     C14325   7.377   5.473   7.600  0.1552  1.1825 -0.4292
  867MOL0     C14326   7.448   5.347   7.649  0.3453 -0.3201 -0.3779
  867MOL0     C14327   7.539   5.372   7.765  0.3863  0.0959 -0.3851
  867MOL0     C14328   7.623   5.245   7.790  1.0014 -0.0688 -0.5203
  867MOL0     N14329   7.542   5.127   7.820 -0.7374 -0.6955  0.4308
  867MOL0     C14330   7.570   4.999   7.788 -0.4066 -0.4736  0.7503
  867MOL0     C14331   7.474   4.926   7.858 -1.1455  0.2500 -0.5896
  867MOL0     C14332   7.465   4.774   7.870  1.3479 -0.5758 -0.1581
  867MOL0     C14333   7.502   4.721   8.005 -1.4178 -0.0821  0.5937
  867MOL0     C14334   7.508   4.565   8.015  0.5833 -0.2034  0.2023
  867MOL0     C14335   7.622   4.504   7.941  0.3432 -0.3048  0.4618
  867MOL0     O14336   7.755   4.515   7.993 -0.1633 -0.2177  0.0636
  867MOL0     C14337   7.796   4.421   8.085  0.3404 -0.1991 -0.3732
  867MOL0     C14338   7.937   4.422   8.101  0.4766  0.1266 -0.3667
  867MOL0     C14339   7.991   4.330   8.197 -0.1720 -1.1068  0.6180
  867MOL0     C14340   7.914   4.252   8.271  0.2532  0.2228  0.0594
  867MOL0     C14341   7.973   4.159   8.370  1.1202 -0.3081  0.6270
  867MOL0     O14342   8.096   4.186   8.428  0.1092 -0.6585 -0.4718
  867MOL0     C14343   8.104   4.100   8.538  0.1051 -0.1101  0.5698
  867MOL0     C14344   8.029   4.134   8.653 -0.5284 -0.0361  0.3537
  867MOL0     C14345   8.036   4.052   8.768  0.1262 -0.3331 -0.3605
  867MOL0     C14346   8.113   3.936   8.775 -1.1395  0.4117  0.4988
  867MOL0     O14347   8.116   3.869   8.898  0.3498 -0.3795 -0.1076
  867MOL0     C14348   8.231   3.788   8.922 -0.6772 -0.5333 -0.1522
  867MOL0     C14349   8.256   3.731   9.063  0.0527 -0.7405  0.0356
  867MOL0     C14350   8.147   3.624   9.085 -1.1291 -0.7435  0.2098
  867MOL0     C14351   8.157   3.554   9.223 -1.0792  0.2353 -0.3555
  867MOL0     C14352   8.056   3.449   9.239  0.4040  0.0327 -0.7230
  867MOL0     C14353   8.081   3.326   9.149  0.7286  0.5516  0.0452
  867MOL0     C14354   7.984   3.211   9.194  0.4933 -0.0056  0.5461
  867MOL0     C14355   8.054   3.068   9.233  0.2363 -0.5302 -0.1627
  867MOL0    Cl14356   8.141   3.082   9.383 -0.6339  0.3156 -0.5705
  867MOL0     C14357   8.182   3.900   8.657  0.5475 -0.4707  0.3994
  867MOL0     C14358   8.184   3.982   8.539  0.0562 -0.2780 -0.7979
  867MOL0     O14359   7.907   4.052   8.377 -0.4323  0.6071  0.5346
  867MOL0     C14360   7.776   4.250   8.251  0.5209 -1.0276  0.0477
  867MOL0     C14361   7.720   4.330   8.157 -0.1932  0.4808 -0.4099
  867MOL0     N14362   7.401   5.013   7.940 -0.1302  0.0233  0.0197
  867MOL0     N14363   7.437   5.128   7.904  0.1772  0.7658  0.2231
  867MOL0     C14364   6.989   5.974   7.290 -1.2649 -0.4531  0.6703
  867MOL0     C14365   6.981   6.079   7.192 -0.2965 -0.6762 -0.3730
  867MOL0     C14366   7.084   6.368   6.878 -0.4811 -0.0716  0.4948
  867MOL0     C14367   7.201   6.436   6.837 -0.2467 -0.0813  0.0654
  867MOL0     C14368   7.189   6.540   6.748 -0.0941 -0.1657 -0.0302
  867MOL0     C14369   7.072   6.573   6.673 -0.1503  0.4132  0.3767
  867MOL0     O14370   7.070   6.677   6.585  0.3296 -0.1540  0.2609
  867MOL0     C14371   6.947   6.754   6.583 -0.1582  0.1421  0.0882
  867MOL0     C14372   6.949   6.879   6.499  0.1915  0.8276  0.2157
  867MOL0     C14373   6.999   6.852   6.353 -0.5654 -0.1238 -0.2370
  867MOL0     C14374   7.056   6.973   6.266 -0.0151 -0.2416 -0.8949
  867MOL0     C14375   7.117   6.934   6.132 -0.3738  0.0455 -0.3467
  867MOL0     C14376   7.154   6.901   6.023 -0.5967 -0.8965 -1.3236
  867MOL0     C14377   6.965   6.490   6.691  0.6238 -0.9039  0.1973
  867MOL0     C14378   6.967   6.391   6.790 -0.0660  0.2631  0.4457
  867MOL0     H14379   6.923   5.928   6.903 -2.4222  2.6139  1.6830
  867MOL0     H14380   6.925   5.730   7.064 -0.2127  0.1372 -0.1090
  867MOL0     H14381   7.017   5.801   7.534  1.8745 -2.1190  2.5914
  867MOL0     H14382   7.171   5.825   7.430  0.4822 -0.1361 -1.1526
  867MOL0     H14383   7.162   5.575   7.434 -2.0473 -3.1407  0.6186
  867MOL0     H14384   7.034   5.566   7.546  0.8827 -1.3102 -1.8475
  867MOL0     H14385   7.148   5.701   7.706 -0.6591 -2.0441 -0.2972
  867MOL0     H14386   7.292   5.712   7.609  1.8858 -2.2583 -1.2806
  867MOL0     H14387   7.289   5.518   7.792  4.8419 -0.3578 -0.5440
  867MOL0     H14388   7.176   5.436   7.681  0.3347 -0.2073 -1.8826
  867MOL0     H14389   7.454   5.550   7.600  0.6738  0.6998 -1.9717
  867MOL0     H14390   7.357   5.460   7.494  0.5019 -2.7961 -0.1715
  867MOL0     H14391   7.501   5.317   7.558 -1.1268 -1.7345 -0.8151
  867MOL0     H14392   7.379   5.266   7.675 -1.7490  1.5831  0.2680
  867MOL0     H14393   7.610   5.454   7.749  3.7097 -2.1913  1.3764
  867MOL0     H14394   7.484   5.382   7.859 -1.8539 -4.0790 -1.0039
  867MOL0     H14395   7.681   5.264   7.881 -2.4030 -1.2427  2.1209
  867MOL0     H14396   7.695   5.231   7.709  1.4073  1.6458 -0.5051
  867MOL0     H14397   7.644   4.962   7.718  0.3869  1.3304  0.5701
  867MOL0     H14398   7.533   4.736   7.793  0.8238  3.0390 -2.6408
  867MOL0     H14399   7.364   4.738   7.852  2.3565 -3.3037 -0.9841
  867MOL0     H14400   7.425   4.749   8.078  0.7163  0.3437  2.8224
  867MOL0     H14401   7.592   4.770   8.042 -1.2541  0.3931 -0.3999
  867MOL0     H14402   7.516   4.527   8.117  0.7716 -3.2534 -0.8572
  867MOL0     H14403   7.409   4.536   7.978  1.9070  0.3883 -4.5177
  867MOL0     H14404   7.624   4.531   7.835 -3.6748  0.7581  0.4846
  867MOL0     H14405   7.614   4.395   7.936  2.0163 -0.5639  2.2003
  867MOL0     H14406   8.005   4.494   8.056  0.2528  0.3379 -0.3683
  867MOL0     H14407   8.097   4.324   8.219 -0.4498  0.4686  2.7567
  867MOL0     H14408   7.967   4.222   8.663  2.2491  2.4207 -2.2054
  867MOL0     H14409   7.972   4.057   8.856  2.7544 -1.1545  1.7330
  867MOL0     H14410   8.315   3.849   8.886 -0.9880 -0.6937 -1.1888
  867MOL0     H14411   8.237   3.711   8.844  3.5597  0.3423 -0.9623
  867MOL0     H14412   8.248   3.799   9.148 -0.0955 -2.0829  1.1257
  867MOL0     H14413   8.354   3.683   9.073 -0.1390 -0.7823  2.4223
  867MOL0     H14414   8.155   3.551   9.004  0.1335  2.2890 -2.6240
  867MOL0     H14415   8.048   3.668   9.072 -1.3457  0.1348  3.7654
  867MOL0     H14416   8.260   3.517   9.229 -0.2829  2.1163  6.6368
  867MOL0     H14417   8.129   3.630   9.297 -1.1065 -0.2375  0.1343
  867MOL0     H14418   7.961   3.493   9.207  0.0249 -1.4909 -1.7847
  867MOL0     H14419   8.035   3.413   9.340 -2.4693 -0.6376 -1.4813
  867MOL0     H14420   8.186   3.298   9.161  0.4545  0.2988  2.1993
  867MOL0     H14421   8.052   3.339   9.044 -3.0993  0.0120  0.8782
  867MOL0     H14422   7.913   3.245   9.270 -1.0811  1.9543 -1.6540
  867MOL0     H14423   7.915   3.182   9.114 -0.5469 -0.2345  1.5083
  867MOL0     H14424   8.126   3.055   9.151  1.8924 -0.0065  1.1426
  867MOL0     H14425   7.986   2.983   9.232 -1.4307  0.5991  3.2345
  867MOL0     H14426   8.243   3.810   8.659  3.3107  1.2118 -1.7383
  867MOL0     H14427   8.238   3.973   8.445  0.4506  0.4303 -0.6436
  867MOL0     H14428   7.711   4.188   8.311  0.4712 -1.2545 -0.2394
  867MOL0     H14429   7.613   4.327   8.140 -0.2391  1.1274 -0.2728
  867MOL0     H14430   7.022   5.989   7.393  0.4382 -1.3692  0.2869
  867MOL0     H14431   6.999   6.183   7.215 -2.9071  0.1935 -1.8818
  867MOL0     H14432   7.297   6.433   6.888 -0.7779  1.6724  1.2462
  867MOL0     H14433   7.269   6.611   6.737  0.3335 -0.4581  1.0064
  867MOL0     H14434   6.909   6.775   6.683 -2.6289  2.1350 -1.1368
  867MOL0     H14435   6.865   6.700   6.535  0.3369 -1.3744  0.9059
  867MOL0     H14436   6.857   6.939   6.496 -1.6578 -1.8601 -0.6139
  867MOL0     H14437   7.032   6.943   6.529  0.5431  0.8792 -0.8196
  867MOL0     H14438   6.915   6.810   6.297 -2.0241 -0.0474  1.7974
  867MOL0     H14439   7.085   6.784   6.356  1.3894  2.2249  2.3102
  867MOL0     H14440   6.977   7.046   6.245  0.3216  0.7241  1.0124
  867MOL0     H14441   7.137   7.019   6.322 -0.7225  0.0245 -0.0638
  867MOL0     H14442   7.200   6.873   5.930 -0.4404  1.9726 -2.2202
  867MOL0     H14443   6.875   6.498   6.630  0.6770 -1.8818 -0.0217
  867MOL0     H14444   6.883   6.328   6.815  2.0987 -3.3750 -0.6314
  868MOL0     O14445   7.421   5.743   4.863  0.3353 -0.5283  0.5250
  868MOL0     C14446   7.374   5.775   4.976 -0.3223  0.2094  0.6275
  868MOL0     O14447   7.455   5.818   5.080 -0.1819  0.4770 -0.2036
  868MOL0     C14448   7.591   5.792   5.061 -0.1432  0.6310  0.0868
  868MOL0     C14449   7.675   5.900   5.028 -1.4095 -0.3812  0.8573
  868MOL0     C14450   7.808   5.873   4.994  0.2332 -0.4032 -0.9698
  868MOL0     C14451   7.861   5.735   5.002 -0.0022  0.0508 -0.7226
  868MOL0     O14452   7.995   5.708   4.963 -0.2313  0.3533 -0.2116
  868MOL0     C14453   8.093   5.814   4.967  0.7685  0.3193  0.0265
  868MOL0     C14454   8.232   5.761   5.011 -1.3098 -0.0316  0.5102
  868MOL0     C14455   8.295   5.847   5.112 -0.3803 -0.2284  0.9015
  868MOL0     C14456   8.336   5.984   5.042 -0.0226 -0.0136 -0.6270
  868MOL0     C14457   8.395   6.084   5.148  0.1879 -0.0203  0.3361
  868MOL0     C14458   8.536   6.030   5.200  1.2021 -0.1899  0.2122
  868MOL0     C14459   8.652   6.130   5.190  0.2858  0.2825  1.0210
  868MOL0     C14460   8.637   6.244   5.289 -0.1070 -0.8187 -0.3995
  868MOL0     N14461   8.749   6.330   5.272 -1.7191  0.1748  0.4496
  868MOL0     C14462   8.871   6.294   5.313  0.1919  0.2628  0.6533
  868MOL0     C14463   8.955   6.364   5.247  0.4782  0.0121  0.3826
  868MOL0     C14464   9.110   6.357   5.234  0.2901  0.6994  0.1387
  868MOL0     C14465   9.154   6.210   5.200  1.2699 -0.4481  0.3044
  868MOL0     C14466   9.106   6.173   5.058  0.0303  0.1838  0.1547
  868MOL0     C14467   9.184   6.048   5.007  0.3274 -0.1538 -0.5768
  868MOL0     O14468   9.323   6.075   4.987 -0.1214  0.2774 -0.3520
  868MOL0     C14469   9.407   5.987   4.923  0.6494 -0.0665 -0.0159
  868MOL0     C14470   9.543   6.023   4.933 -0.4373 -0.6909 -0.4153
  868MOL0     C14471   9.640   5.946   4.862 -0.5795 -1.2787 -0.6502
  868MOL0     C14472   9.607   5.830   4.794  0.5383 -0.3282 -0.0043
  868MOL0     C14473   9.701   5.724   4.754  0.3888 -1.0080 -0.1012
  868MOL0     O14474   9.651   5.602   4.725  0.4532 -0.1371 -0.8549
  868MOL0     C14475   9.737   5.511   4.658 -0.1356 -0.5518 -0.6940
  868MOL0     C14476   9.700   5.446   4.541  0.4101 -0.0301 -0.3320
  868MOL0     C14477   9.789   5.363   4.472  0.6158  0.5804 -0.5180
  868MOL0     C14478   9.912   5.326   4.521 -0.3579 -0.3077 -0.2234
  868MOL0     O14479  10.011   5.256   4.458 -0.0394  0.0862  0.0127
  868MOL0     C14480   9.998   5.211   4.325 -0.0930 -0.6646 -0.3441
  868MOL0     C14481  10.130   5.204   4.248 -0.2445 -0.4073 -0.6129
  868MOL0     C14482  10.112   5.135   4.117 -0.3308 -0.2758 -0.5871
  868MOL0     C14483  10.244   5.125   4.033 -0.1002  1.3287  0.0769
  868MOL0     C14484  10.308   5.251   3.990 -0.1614 -0.4517 -0.1188
  868MOL0     C14485  10.382   5.251   3.850  0.1462  0.9205 -0.4556
  868MOL0     C14486  10.512   5.159   3.852 -0.5913 -0.6920 -0.2581
  868MOL0     C14487  10.557   5.150   3.704  0.2616  1.2343 -0.4147
  868MOL0    Cl14488  10.667   5.009   3.689 -0.3253 -0.2594  0.0129
  868MOL0     C14489   9.939   5.376   4.652 -0.0574 -0.4525  0.1612
  868MOL0     C14490   9.859   5.473   4.720 -0.5460  0.1379  0.2149
  868MOL0     O14491   9.817   5.755   4.733  0.8195  1.1059 -0.3541
  868MOL0     C14492   9.465   5.793   4.785  0.4985 -1.2209  0.0458
  868MOL0     C14493   9.359   5.881   4.835  0.5457 -1.1746 -0.5144
  868MOL0     N14494   8.889   6.458   5.177  0.1911  0.4419 -0.4549
  868MOL0     N14495   8.763   6.438   5.191  0.3779 -0.1194  0.3262
  868MOL0     C14496   7.777   5.641   5.045 -0.1659  0.2759  0.7588
  868MOL0     C14497   7.649   5.665   5.079  0.2607  0.3784 -0.7837
  868MOL0     C14498   7.229   5.783   4.985  0.3492  0.7384  0.3258
  868MOL0     C14499   7.145   5.746   4.874  0.0841 -0.2527 -0.0934
  868MOL0     C14500   7.006   5.755   4.896  0.0639 -0.3312  0.0950
  868MOL0     C14501   6.951   5.813   5.012 -0.1722  0.0156  1.0235
  868MOL0     O14502   6.817   5.800   5.002  0.2862 -0.9261 -0.4215
  868MOL0     C14503   6.733   5.842   5.114 -0.4292 -0.3993  0.4328
  868MOL0     C14504   6.608   5.764   5.135  0.8548  0.4075 -0.4848
  868MOL0     C14505   6.550   5.764   4.990 -0.6183 -0.7890 -0.8405
  868MOL0     C14506   6.414   5.690   4.995  0.4782  0.1924 -0.3218
  868MOL0     C14507   6.339   5.699   4.872 -0.0883 -0.4288  0.3884
  868MOL0     C14508   6.307   5.720   4.752  0.6703  0.5949 -0.2017
  868MOL0     C14509   7.032   5.852   5.116 -0.2983 -0.0114 -0.7273
  868MOL0     C14510   7.170   5.830   5.107  0.8674  0.8098  0.2526
  868MOL0     H14511   7.635   6.001   5.031 -2.3302 -0.6682 -0.5557
  868MOL0     H14512   7.871   5.951   4.954  2.0221 -1.2621  0.0430
  868MOL0     H14513   8.061   5.898   5.030  1.2127  1.7929 -1.6580
  868MOL0     H14514   8.103   5.856   4.867 -1.4910 -3.9580 -2.2576
  868MOL0     H14515   8.299   5.750   4.925 -0.8242 -0.0790  0.8850
  868MOL0     H14516   8.231   5.658   5.047  0.6983 -0.4685 -0.5186
  868MOL0     H14517   8.385   5.806   5.161 -0.2915 -1.3003 -0.1153
  868MOL0     H14518   8.214   5.877   5.179  0.5465  2.1166  1.0761
  868MOL0     H14519   8.412   5.968   4.965 -0.8421  0.4577 -1.5631
  868MOL0     H14520   8.248   6.026   4.991 -0.0522  0.9383  0.1806
  868MOL0     H14521   8.327   6.101   5.232  2.4106  2.8141  1.7275
  868MOL0     H14522   8.395   6.188   5.113  0.7628 -0.2726 -0.4346
  868MOL0     H14523   8.564   5.937   5.150 -2.7003 -1.2448 -0.2841
  868MOL0     H14524   8.514   6.009   5.305 -3.1486  0.1017 -0.4637
  868MOL0     H14525   8.735   6.065   5.223 -0.7221 -1.6796 -0.1190
  868MOL0     H14526   8.682   6.172   5.094 -1.1792  0.8023  0.7753
  868MOL0     H14527   8.646   6.205   5.391  0.3697 -1.1904 -0.5751
  868MOL0     H14528   8.546   6.304   5.285  0.4319  0.0902  0.3083
  868MOL0     H14529   8.893   6.208   5.375  3.3451  0.4688 -0.0303
  868MOL0     H14530   9.157   6.386   5.328 -0.0601 -1.6386  1.1103
  868MOL0     H14531   9.144   6.431   5.162  3.6642  0.4162  1.2894
  868MOL0     H14532   9.155   6.142   5.286  0.0550  0.2664  0.9004
  868MOL0     H14533   9.261   6.230   5.183  0.8238  2.3319  0.3118
  868MOL0     H14534   9.001   6.143   5.055 -0.2015  1.0224 -0.8843
  868MOL0     H14535   9.116   6.250   4.981  1.3562 -1.4077 -1.3548
  868MOL0     H14536   9.144   6.015   4.910  2.6969 -0.9224 -1.3729
  868MOL0     H14537   9.160   5.974   5.083 -0.1478  0.1268 -0.4531
  868MOL0     H14538   9.579   6.112   4.984 -2.5360 -0.6706  1.1817
  868MOL0     H14539   9.744   5.978   4.872 -1.8635  3.2226  0.9543
  868MOL0     H14540   9.601   5.445   4.497  0.5636  0.4307 -0.6869
  868MOL0     H14541   9.761   5.344   4.369  2.5327  0.4235 -1.0509
  868MOL0     H14542   9.940   5.277   4.259 -0.5702  2.9612  3.2913
  868MOL0     H14543   9.960   5.108   4.328  0.3724 -0.8430 -0.4576
  868MOL0     H14544  10.213   5.162   4.306  2.0311  1.5193 -2.2880
  868MOL0     H14545  10.157   5.309   4.232 -0.1539 -0.1559  1.0060
  868MOL0     H14546  10.043   5.198   4.060 -0.3049 -1.8161 -2.4088
  868MOL0     H14547  10.072   5.033   4.121 -0.5221 -0.1634  1.1150
  868MOL0     H14548  10.311   5.054   4.083 -0.8718  0.6524  0.1726
  868MOL0     H14549  10.214   5.074   3.941 -1.8376  1.5168  0.4905
  868MOL0     H14550  10.379   5.270   4.072 -1.7855  0.4112  1.1646
  868MOL0     H14551  10.219   5.314   3.996 -2.4296 -3.5472  1.8694
  868MOL0     H14552  10.409   5.353   3.821  3.0555  0.5708  0.6872
  868MOL0     H14553  10.302   5.220   3.781 -1.3626 -0.4163  1.7572
  868MOL0     H14554  10.590   5.220   3.900  0.2287 -0.8688 -1.3374
  868MOL0     H14555  10.486   5.065   3.902 -0.9177  0.2986  1.5558
  868MOL0     H14556  10.594   5.245   3.665 -1.0016  3.0161  2.3522
  868MOL0     H14557  10.471   5.126   3.641 -0.2406 -2.8654  1.5162
  868MOL0     H14558  10.034   5.346   4.697  0.4348 -0.1487 -0.6529
  868MOL0     H14559   9.896   5.518   4.811 -1.4866  3.3235 -0.8384
  868MOL0     H14560   9.419   5.708   4.735 -1.2341 -0.6536  0.6307
  868MOL0     H14561   9.254   5.859   4.823  0.1960 -0.2403  0.6126
  868MOL0     H14562   7.812   5.539   5.058 -3.2693 -0.9810  0.1588
  868MOL0     H14563   7.602   5.572   5.108  3.9067 -0.4314  3.5469
  868MOL0     H14564   7.183   5.695   4.786  1.4429 -0.3887  0.5472
  868MOL0     H14565   6.937   5.733   4.815 -0.3017  0.3440  0.2099
  868MOL0     H14566   6.703   5.947   5.108 -0.0516 -0.2365  1.2359
  868MOL0     H14567   6.781   5.836   5.212 -0.2724  0.9866  0.4602
  868MOL0     H14568   6.634   5.663   5.170  0.5669  0.5867  0.2566
  868MOL0     H14569   6.533   5.812   5.199  1.1705 -0.3374  0.4803
  868MOL0     H14570   6.606   5.709   4.914 -0.8945 -2.9822  0.4327
  868MOL0     H14571   6.525   5.867   4.963 -1.5299 -0.3945  1.2987
  868MOL0     H14572   6.435   5.584   5.013  1.0480  0.5480  1.3419
  868MOL0     H14573   6.345   5.730   5.070 -0.7052  2.7861 -2.6013
  868MOL0     H14574   6.280   5.740   4.651  2.6246 -1.4085 -1.2097
  868MOL0     H14575   6.982   5.904   5.197  0.4533 -0.5688  0.1186
  868MOL0     H14576   7.227   5.869   5.190  0.2922  1.8147  0.1920
  869MOL0     O14577   9.524   5.315  10.465 -0.2073  0.2613 -0.3844
  869MOL0     C14578   9.459   5.386  10.541  0.3765  0.0154 -0.4343
  869MOL0     O14579   9.338   5.444  10.509 -0.8495 -0.6383 -0.6756
  869MOL0     C14580   9.282   5.433  10.386 -0.4730 -0.0168 -0.4569
  869MOL0     C14581   9.247   5.543  10.312  0.5552 -0.2658 -1.0809
  869MOL0     C14582   9.188   5.527  10.187 -0.0057 -0.5778 -0.0340
  869MOL0     C14583   9.148   5.394  10.148 -0.6483 -0.1361  0.0732
  869MOL0     O14584   9.096   5.357  10.023 -0.1921 -0.6892 -0.3683
  869MOL0     C14585   9.098   5.448   9.917 -0.2237  0.0402 -0.4901
  869MOL0     C14586   9.044   5.384   9.793  0.1030 -0.4101  0.4558
  869MOL0     C14587   9.118   5.439   9.669 -0.0304  0.2432  0.3436
  869MOL0     C14588   9.066   5.362   9.544 -0.6507  0.2747  0.1148
  869MOL0     C14589   9.178   5.361   9.432 -0.4424  0.8014 -0.8268
  869MOL0     C14590   9.150   5.290   9.297 -0.1121  0.3825 -0.6880
  869MOL0     C14591   9.034   5.366   9.225 -0.2488  0.4880  0.5293
  869MOL0     C14592   8.971   5.273   9.117 -0.4794  0.0814  0.8923
  869MOL0     N14593   8.896   5.157   9.170 -0.7664  0.1825  0.1799
  869MOL0     C14594   8.763   5.153   9.222  0.1089 -0.3616  0.5112
  869MOL0     C14595   8.750   5.033   9.278  0.6130  0.8668  1.1285
  869MOL0     C14596   8.617   4.990   9.325  0.1309 -0.2457  0.0525
  869MOL0     C14597   8.623   4.882   9.433  0.0009 -1.1338 -0.5037
  869MOL0     C14598   8.665   4.965   9.566  0.7626 -0.3996  0.6569
  869MOL0     C14599   8.709   4.875   9.685 -0.3751  0.8889 -0.4249
  869MOL0     O14600   8.722   4.952   9.810 -0.3895  0.0305  0.4506
  869MOL0     C14601   8.750   4.875   9.923 -0.4048 -0.0906  1.0693
  869MOL0     C14602   8.771   4.735   9.929 -0.4104 -0.7588  0.5933
  869MOL0     C14603   8.796   4.675  10.049  0.4091  0.1624  0.4553
  869MOL0     C14604   8.823   4.755  10.160 -0.9533 -0.9696  0.7239
  869MOL0     C14605   8.884   4.701  10.279 -0.1269  0.6331  0.3719
  869MOL0     O14606   8.947   4.580  10.263  0.2636  0.1979  0.0959
  869MOL0     C14607   8.989   4.521  10.385  0.8022 -0.6178 -0.0779
  869MOL0     C14608   9.126   4.526  10.416  0.1377 -0.1442  0.0439
  869MOL0     C14609   9.170   4.461  10.528  0.7492 -0.0011  0.5781
  869MOL0     C14610   9.090   4.382  10.613  0.3074 -0.1718 -0.5179
  869MOL0     O14611   9.156   4.318  10.710 -0.0003 -0.1988 -0.2539
  869MOL0     C14612   9.081   4.260  10.805  0.9241 -0.0118  0.7866
  869MOL0     C14613   9.141   4.224  10.950  0.5409 -0.9678 -0.5963
  869MOL0     C14614   9.272   4.151  10.932  0.2995 -0.0020 -0.4102
  869MOL0     C14615   9.318   4.104  11.067 -0.0363 -0.2652  0.7370
  869MOL0     C14616   9.436   3.991  11.061 -0.5483 -0.2326  0.1564
  869MOL0     C14617   9.402   3.856  10.989  0.2145  0.0742  0.7359
  869MOL0     C14618   9.264   3.792  11.030  0.9741 -0.0300  0.3401
  869MOL0     C14619   9.254   3.653  10.982  0.3387  0.3806 -0.8244
  869MOL0    Cl14620   9.333   3.540  11.095  0.1905  0.2505  1.0661
  869MOL0     C14621   8.949   4.381  10.585  0.3173  0.0752  0.2919
  869MOL0     C14622   8.897   4.450  10.466 -0.1197 -0.0690 -0.4550
  869MOL0     O14623   8.872   4.764  10.379 -0.0632 -0.2331  0.3991
  869MOL0     C14624   8.795   4.899  10.158  0.1941 -0.1014  1.1656
  869MOL0     C14625   8.758   4.952  10.033 -0.0692 -0.8302  0.1791
  869MOL0     N14626   8.864   4.964   9.257  1.3714 -0.7061  0.0464
  869MOL0     N14627   8.945   5.038   9.190 -0.8372  0.3402 -0.3982
  869MOL0     C14628   9.165   5.292  10.232  0.6508  0.9121  0.7185
  869MOL0     C14629   9.249   5.304  10.339  0.2059  0.4400 -1.0747
  869MOL0     C14630   9.514   5.390  10.677  0.1137 -0.3118 -1.2180
  869MOL0     C14631   9.645   5.349  10.700 -0.3844 -0.7962  0.5057
  869MOL0     C14632   9.690   5.348  10.833  0.1926  0.0281 -0.8403
  869MOL0     C14633   9.611   5.398  10.936  0.2203 -0.5637  0.3049
  869MOL0     O14634   9.658   5.413  11.064 -0.2190  0.3902  0.5469
  869MOL0     C14635   9.714   5.547  11.078  0.6159 -0.2392 -0.6744
  869MOL0     C14636   9.798   5.544  11.211 -0.0101 -0.3241 -0.5779
  869MOL0     C14637   9.854   5.678  11.237  0.3717  0.0694 -0.6490
  869MOL0     C14638   9.768   5.802  11.201 -0.1033 -0.1033 -0.6663
  869MOL0     C14639   9.760   5.838  11.067 -0.2054  0.5108  0.3448
  869MOL0     C14640   9.765   5.870  10.948 -0.1504 -0.6611 -0.4515
  869MOL0     C14641   9.476   5.433  10.905  0.2727 -0.0533 -0.7845
  869MOL0     C14642   9.431   5.435  10.773  0.3207  0.5973  0.0087
  869MOL0     H14643   9.260   5.640  10.361  1.8564 -0.8518 -0.2102
  869MOL0     H14644   9.171   5.621  10.136 -1.6440 -0.7119  0.2046
  869MOL0     H14645   9.195   5.493   9.896 -0.7922  0.1475 -3.2915
  869MOL0     H14646   9.032   5.533   9.938  0.0761 -0.1465  1.3873
  869MOL0     H14647   8.939   5.413   9.777 -0.1569 -1.6163 -0.1573
  869MOL0     H14648   9.053   5.276   9.806  0.7438 -0.5194 -0.7113
  869MOL0     H14649   9.224   5.415   9.682 -0.1326  0.1205  0.9304
  869MOL0     H14650   9.116   5.549   9.665 -2.1250  0.2410  0.3413
  869MOL0     H14651   9.041   5.260   9.576 -2.3824  0.9645  1.1104
  869MOL0     H14652   8.973   5.407   9.507 -0.8889 -1.1792 -1.1727
  869MOL0     H14653   9.273   5.315   9.461 -0.6906  2.1108  2.3599
  869MOL0     H14654   9.225   5.459   9.424  2.2010 -0.1137  1.9325
  869MOL0     H14655   9.091   5.205   9.330  0.5647 -0.4773 -1.6257
  869MOL0     H14656   9.240   5.259   9.243  1.2984  0.7803  1.3221
  869MOL0     H14657   8.957   5.394   9.297 -0.5956  2.4884 -0.5524
  869MOL0     H14658   9.070   5.455   9.173  1.5730  0.4562  1.6235
  869MOL0     H14659   9.046   5.244   9.042 -4.7653 -3.3305 -2.6454
  869MOL0     H14660   8.904   5.336   9.057  0.5712  0.3000 -0.0930
  869MOL0     H14661   8.697   5.239   9.220 -0.4055 -0.7566  0.6087
  869MOL0     H14662   8.563   4.939   9.245 -1.7548  1.2097  0.2953
  869MOL0     H14663   8.558   5.079   9.350 -1.6887 -1.0430 -1.1662
  869MOL0     H14664   8.701   4.806   9.420  2.4466  0.7171  2.0057
  869MOL0     H14665   8.527   4.833   9.449 -1.0231  1.2408  1.1431
  869MOL0     H14666   8.760   5.016   9.549  0.9048 -0.2971  1.7037
  869MOL0     H14667   8.582   5.032   9.592  0.5906 -0.2635 -0.1901
  869MOL0     H14668   8.801   4.821   9.662 -1.0832 -0.4646 -0.1404
  869MOL0     H14669   8.636   4.798   9.710 -0.6318  2.0225  2.8014
  869MOL0     H14670   8.770   4.670   9.842  0.4127 -1.1790  0.8815
  869MOL0     H14671   8.799   4.568  10.066  1.3518  0.3738  1.8879
  869MOL0     H14672   9.194   4.584  10.354 -0.5802  0.4711 -0.1896
  869MOL0     H14673   9.277   4.462  10.548  0.8631 -0.3433  0.0239
  869MOL0     H14674   9.030   4.170  10.768  1.1571 -0.3587  1.2910
  869MOL0     H14675   8.998   4.329  10.823  0.3974 -0.7768  1.3731
  869MOL0     H14676   9.063   4.167  11.002  1.2251 -0.8115  0.6315
  869MOL0     H14677   9.155   4.315  11.009  0.1208 -1.6013  0.5007
  869MOL0     H14678   9.335   4.225  10.881  0.8893  1.9954  2.8295
  869MOL0     H14679   9.261   4.075  10.855  0.7700 -0.3899 -0.1030
  869MOL0     H14680   9.343   4.188  11.133 -0.6247  0.0759  0.5289
  869MOL0     H14681   9.228   4.056  11.108 -0.4601  1.6629  2.2166
  869MOL0     H14682   9.466   3.974  11.165  1.6645 -0.0393 -0.3860
  869MOL0     H14683   9.522   4.030  11.005 -0.3326 -0.1858  0.5210
  869MOL0     H14684   9.473   3.774  11.004  0.8183  0.9251  2.9580
  869MOL0     H14685   9.399   3.885  10.884 -2.9057  3.4772  1.5374
  869MOL0     H14686   9.259   3.786  11.139  2.3583 -2.0377  0.3338
  869MOL0     H14687   9.179   3.845  10.986  0.4893 -1.5204 -0.5867
  869MOL0     H14688   9.294   3.649  10.880  2.2398 -0.4379 -0.1080
  869MOL0     H14689   9.147   3.634  10.972 -0.6679  3.2383  2.6053
  869MOL0     H14690   8.867   4.329  10.634 -2.0611  1.6399 -1.7612
  869MOL0     H14691   8.793   4.453  10.436  0.9090  0.7544 -4.5608
  869MOL0     H14692   8.829   4.966  10.237  1.8322  1.5015 -0.7711
  869MOL0     H14693   8.741   5.059  10.023 -0.1845 -0.6214  2.1709
  869MOL0     H14694   9.137   5.196  10.191  1.0029  0.9294  0.4369
  869MOL0     H14695   9.279   5.217  10.397  0.7207 -0.5858 -2.7788
  869MOL0     H14696   9.711   5.323  10.618 -3.2344 -0.2178 -2.1539
  869MOL0     H14697   9.784   5.316  10.878 -0.8015 -0.6502  0.8559
  869MOL0     H14698   9.635   5.622  11.082  3.3210  2.8253 -0.5229
  869MOL0     H14699   9.773   5.575  10.991 -1.0568  0.6954 -1.5346
  869MOL0     H14700   9.735   5.515  11.295  0.5970 -0.5962 -0.2123
  869MOL0     H14701   9.870   5.464  11.195 -3.1222 -3.0734 -2.1157
  869MOL0     H14702   9.949   5.680  11.182  0.0037  1.9571 -1.2960
  869MOL0     H14703   9.882   5.682  11.343 -1.4082  0.2330 -0.1524
  869MOL0     H14704   9.672   5.804  11.252 -0.2289  3.0314 -0.8128
  869MOL0     H14705   9.826   5.882  11.249  0.3439 -0.7639 -0.0901
  869MOL0     H14706   9.760   5.897  10.844 -0.7580 -0.5556 -0.3969
  869MOL0     H14707   9.405   5.445  10.986 -0.2137  1.0286 -1.3412
  869MOL0     H14708   9.328   5.459  10.753 -0.8084 -2.4510  1.4695
  870MOL0     O14709   1.821   5.526   6.739 -0.6352  0.4789 -0.3881
  870MOL0     C14710   1.727   5.554   6.817  0.0659  0.4760  1.0355
  870MOL0     O14711   1.697   5.676   6.863 -0.0413  0.0687 -0.3471
  870MOL0     C14712   1.761   5.784   6.803  0.2731 -0.0651 -0.4630
  870MOL0     C14713   1.899   5.804   6.793  0.6467  1.0358 -0.5068
  870MOL0     C14714   1.948   5.916   6.742  0.4822 -1.0786  0.4865
  870MOL0     C14715   1.862   6.018   6.699 -0.6213  0.4408 -0.1642
  870MOL0     O14716   1.935   6.132   6.663  0.4977 -0.5244 -0.2742
  870MOL0     C14717   1.862   6.230   6.586  0.2738 -0.0079  0.3803
  870MOL0     C14718   1.954   6.328   6.510 -0.5787 -0.0441  0.2623
  870MOL0     C14719   1.901   6.359   6.367  0.5627 -0.3209 -0.0907
  870MOL0     C14720   1.965   6.479   6.318 -0.2448  2.0279  0.2311
  870MOL0     C14721   2.119   6.474   6.283  0.4840  1.0191 -0.6094
  870MOL0     C14722   2.155   6.600   6.211  0.4109 -0.3046  0.4641
  870MOL0     C14723   2.303   6.605   6.156 -0.5806 -0.5715 -0.4335
  870MOL0     C14724   2.319   6.741   6.087 -0.2650  0.3267  0.2041
  870MOL0     N14725   2.313   6.854   6.180  0.3344  0.3483 -0.1632
  870MOL0     C14726   2.235   6.962   6.161 -0.3507 -0.3327 -0.2613
  870MOL0     C14727   2.269   7.038   6.271 -0.3937 -0.5538 -0.6473
  870MOL0     C14728   2.192   7.160   6.319 -1.1650 -0.0291  0.2936
  870MOL0     C14729   2.095   7.130   6.440 -0.0092  0.0536  1.4042
  870MOL0     C14730   2.028   7.260   6.486 -0.3464  0.1247  0.1532
  870MOL0     C14731   1.910   7.280   6.398  0.3831  0.1128  0.0085
  870MOL0     O14732   1.837   7.380   6.461  0.5095  0.2304 -0.5794
  870MOL0     C14733   1.730   7.435   6.390 -0.0869  0.3190 -0.2868
  870MOL0     C14734   1.685   7.389   6.265  0.4375  0.4000 -0.3379
  870MOL0     C14735   1.578   7.446   6.195 -0.4878 -0.1307 -0.3052
  870MOL0     C14736   1.535   7.571   6.245 -0.3262 -0.2480 -0.1678
  870MOL0     C14737   1.447   7.649   6.157  0.1951  0.7324 -0.9145
  870MOL0     O14738   1.339   7.691   6.227 -0.3560  0.8483  0.3766
  870MOL0     C14739   1.259   7.796   6.166  0.6609  0.2155 -0.4118
  870MOL0     C14740   1.274   7.860   6.036 -0.2528 -0.4858 -0.5846
  870MOL0     C14741   1.169   7.936   5.984 -0.7311 -0.4976  0.8834
  870MOL0     C14742   1.059   7.956   6.053  0.7911  0.3093 -0.6319
  870MOL0     O14743   0.957   8.031   5.989 -0.5234  0.1229  0.0771
  870MOL0     C14744   0.831   8.050   6.062 -0.5967 -0.8308  0.0201
  870MOL0     C14745   0.736   8.118   5.966 -0.2899  0.3206  0.4125
  870MOL0     C14746   0.794   8.261   5.932  0.3206  0.8448 -0.7358
  870MOL0     C14747   0.713   8.339   5.833 -0.7593 -0.2788  0.8103
  870MOL0     C14748   0.789   8.447   5.745  0.5220  0.4743 -0.3959
  870MOL0     C14749   0.876   8.550   5.823 -0.0749  0.3585 -0.0579
  870MOL0     C14750   0.900   8.682   5.750 -0.7538  0.3941  0.3879
  870MOL0     C14751   0.966   8.795   5.831 -0.5587 -1.3413 -0.5252
  870MOL0    Cl14752   0.849   8.862   5.950 -0.1089  0.5481 -0.4049
  870MOL0     C14753   1.044   7.898   6.182  0.8018 -0.6625  0.2119
  870MOL0     C14754   1.146   7.823   6.238  0.8645  0.8580  1.0820
  870MOL0     O14755   1.456   7.642   6.037  0.1388  0.5823  0.1716
  870MOL0     C14756   1.573   7.621   6.376 -0.3602 -0.6402  0.3755
  870MOL0     C14757   1.674   7.549   6.445  0.3677  0.4980 -0.4101
  870MOL0     N14758   2.371   6.980   6.345 -0.5297  0.9528  0.0451
  870MOL0     N14759   2.393   6.866   6.295 -0.8211  0.0699  0.1469
  870MOL0     C14760   1.721   6.003   6.718 -0.4447  0.1552 -0.8559
  870MOL0     C14761   1.679   5.883   6.765 -0.5894 -0.2188  0.5552
  870MOL0     C14762   1.652   5.444   6.877 -0.2112  0.2889  0.7884
  870MOL0     C14763   1.532   5.482   6.948  0.0923 -0.3488  0.0998
  870MOL0     C14764   1.438   5.375   6.973 -0.7108 -0.4506  0.0472
  870MOL0     C14765   1.462   5.243   6.942  0.1968  0.6433  0.6097
  870MOL0     O14766   1.357   5.152   6.938 -0.2429  0.0923 -0.0543
  870MOL0     C14767   1.379   5.012   6.906  0.3756 -0.0642 -0.1522
  870MOL0     C14768   1.368   4.974   6.764  0.9138  0.3785  1.3733
  870MOL0     C14769   1.246   5.008   6.690  0.8920 -0.1426 -0.3222
  870MOL0     C14770   1.114   4.937   6.744 -0.2599  0.1365  0.2645
  870MOL0     C14771   1.121   4.790   6.745  0.6349  1.1892  0.0100
  870MOL0     C14772   1.115   4.670   6.738 -0.6352  0.6905 -0.2345
  870MOL0     C14773   1.598   5.212   6.907  0.0510  0.2603 -0.1103
  870MOL0     C14774   1.681   5.306   6.862 -1.0265  0.0239  0.2421
  870MOL0     H14775   1.960   5.733   6.847 -0.0226  1.7591  1.2781
  870MOL0     H14776   2.055   5.927   6.728  0.5445 -1.4100  0.6915
  870MOL0     H14777   1.794   6.289   6.648  0.2124 -2.2828  2.6260
  870MOL0     H14778   1.794   6.175   6.521  3.3051 -3.4008 -0.1929
  870MOL0     H14779   2.056   6.291   6.499  0.1142  1.3490  1.5098
  870MOL0     H14780   1.941   6.423   6.564 -1.7327  1.1280 -1.9523
  870MOL0     H14781   1.794   6.378   6.381  0.4149 -1.5497  0.5875
  870MOL0     H14782   1.908   6.275   6.297  2.1700 -0.0576 -0.2825
  870MOL0     H14783   1.906   6.499   6.229 -1.6593  0.9964  0.8946
  870MOL0     H14784   1.948   6.561   6.389 -2.0496  1.4761  0.4977
  870MOL0     H14785   2.143   6.383   6.227  3.2780 -1.0638  3.4524
  870MOL0     H14786   2.176   6.463   6.376  0.8610  1.8148 -0.7387
  870MOL0     H14787   2.149   6.676   6.290 -1.2449 -0.7380  0.8025
  870MOL0     H14788   2.080   6.625   6.136 -1.4716 -1.6522  1.7941
  870MOL0     H14789   2.379   6.591   6.234 -3.0843  1.2810  2.6198
  870MOL0     H14790   2.328   6.523   6.089  1.8502 -0.4753  0.2423
  870MOL0     H14791   2.249   6.754   6.004 -0.4395  1.1082  0.4691
  870MOL0     H14792   2.419   6.741   6.041 -0.6732 -0.1506 -0.7128
  870MOL0     H14793   2.152   6.976   6.093  2.8383  0.0408 -4.4586
  870MOL0     H14794   2.139   7.184   6.226 -4.5700  0.3709  2.2121
  870MOL0     H14795   2.265   7.230   6.360 -1.1834 -0.2464  0.7021
  870MOL0     H14796   2.155   7.092   6.523  0.4487  0.4030  1.2399
  870MOL0     H14797   2.033   7.042   6.424  0.8962 -0.3174 -0.2757
  870MOL0     H14798   1.995   7.242   6.589 -1.2375  2.1849  0.2759
  870MOL0     H14799   2.085   7.353   6.491  1.9439 -1.2873  3.4446
  870MOL0     H14800   1.851   7.188   6.391 -1.3962  1.0765  1.4749
  870MOL0     H14801   1.945   7.313   6.300 -0.1134 -0.0911 -0.2447
  870MOL0     H14802   1.740   7.310   6.215 -0.6591 -0.8938  0.4544
  870MOL0     H14803   1.551   7.406   6.097  0.3231  3.5310 -2.1884
  870MOL0     H14804   1.366   7.850   5.981  0.6060  0.0413  0.7001
  870MOL0     H14805   1.161   7.993   5.892  0.7254 -0.4589  0.7481
  870MOL0     H14806   0.849   8.119   6.145 -1.1768 -0.6374 -0.0098
  870MOL0     H14807   0.785   7.959   6.102  0.9190 -2.5458 -1.9107
  870MOL0     H14808   0.634   8.110   6.005  0.8012 -2.7154  3.1120
  870MOL0     H14809   0.740   8.070   5.867 -2.1210  3.1585 -1.1784
  870MOL0     H14810   0.900   8.239   5.918  0.3376 -1.0485  1.6017
  870MOL0     H14811   0.803   8.330   6.017 -1.2454  0.0595  0.1134
  870MOL0     H14812   0.660   8.266   5.771  0.2159 -1.1357  0.9694
  870MOL0     H14813   0.636   8.395   5.888 -2.3963 -2.1870  0.5788
  870MOL0     H14814   0.711   8.506   5.696  0.7994  2.7525  1.7046
  870MOL0     H14815   0.842   8.396   5.664  0.4737 -2.0829  1.0929
  870MOL0     H14816   0.973   8.504   5.846 -0.8652  0.1858  3.4296
  870MOL0     H14817   0.815   8.568   5.912  0.0048 -2.0046  0.5416
  870MOL0     H14818   0.974   8.659   5.673  1.2760  1.4149  1.9279
  870MOL0     H14819   0.803   8.722   5.719 -1.4039 -0.8110  0.7941
  870MOL0     H14820   0.996   8.864   5.752 -0.9063 -3.1193 -2.3063
  870MOL0     H14821   1.055   8.756   5.881 -0.4578  0.5388  0.8529
  870MOL0     H14822   0.946   7.906   6.227  0.9719  2.2364  0.2772
  870MOL0     H14823   1.157   7.783   6.338  4.5486 -1.1065  0.0769
  870MOL0     H14824   1.530   7.714   6.411 -1.5304 -1.3400  0.8724
  870MOL0     H14825   1.700   7.581   6.546 -2.9006  1.1632  0.3327
  870MOL0     H14826   1.648   6.083   6.713  1.7966  2.3322 -0.6652
  870MOL0     H14827   1.572   5.879   6.784 -0.7007  2.8212  0.9375
  870MOL0     H14828   1.501   5.584   6.971 -0.2511 -0.5240  0.4314
  870MOL0     H14829   1.337   5.414   6.976 -0.6965 -0.3527 -0.5813
  870MOL0     H14830   1.296   4.950   6.940  1.5388 -1.2299  0.6440
  870MOL0     H14831   1.475   4.976   6.943  0.2348 -2.4655 -1.8984
  870MOL0     H14832   1.458   5.006   6.711  0.5136  1.0620  1.0916
  870MOL0     H14833   1.371   4.865   6.761 -1.1328  0.2901 -1.4398
  870MOL0     H14834   1.259   4.976   6.586 -0.0690  1.2916 -0.9172
  870MOL0     H14835   1.227   5.116   6.687 -0.4866 -0.3165  1.0573
  870MOL0     H14836   1.085   4.963   6.846 -0.2878 -2.9146  1.1410
  870MOL0     H14837   1.032   4.969   6.679 -0.7199  2.0707  1.7175
  870MOL0     H14838   1.125   4.565   6.723  2.9461  0.7668  0.7226
  870MOL0     H14839   1.627   5.108   6.893 -1.8246  0.1001 -4.5172
  870MOL0     H14840   1.775   5.286   6.812 -0.5381  3.8249 -0.6931
  871MOL0     O14841   5.812   3.712   7.753 -0.7456 -0.5206 -0.0807
  871MOL0     C14842   5.694   3.707   7.720  0.9868  0.4991  0.0423
  871MOL0     O14843   5.620   3.815   7.684  0.4643 -1.2699  0.2149
  871MOL0     C14844   5.675   3.929   7.615  0.4108 -0.2292  0.3986
  871MOL0     C14845   5.611   4.050   7.623  0.1411 -0.3570  0.1482
  871MOL0     C14846   5.664   4.167   7.571  0.2954 -0.1036  0.2738
  871MOL0     C14847   5.780   4.159   7.498 -1.1924 -0.0249  0.0802
  871MOL0     O14848   5.828   4.277   7.441  0.4519  0.2549  0.4271
  871MOL0     C14849   5.830   4.274   7.300  0.3165 -0.4510  0.3580
  871MOL0     C14850   5.854   4.418   7.241  0.1140 -0.0461  0.2524
  871MOL0     C14851   5.865   4.415   7.082 -0.5402  0.6332  0.5002
  871MOL0     C14852   5.880   4.560   7.042 -0.7435  0.5163  0.3875
  871MOL0     C14853   5.779   4.660   7.075  1.2378 -0.8897 -0.8157
  871MOL0     C14854   5.765   4.772   6.977 -0.5426  0.9421  0.1434
  871MOL0     C14855   5.891   4.867   6.969 -0.7669  0.6895  0.2991
  871MOL0     C14856   5.938   4.942   7.093 -0.0835  0.8019  0.1776
  871MOL0     N14857   5.836   5.027   7.143  0.2685 -0.8342 -0.2955
  871MOL0     C14858   5.749   4.991   7.245 -0.3555 -0.0116  0.5883
  871MOL0     C14859   5.660   5.093   7.251  0.2617  1.4586  0.1802
  871MOL0     C14860   5.538   5.111   7.339 -1.2678 -0.0477 -0.5528
  871MOL0     C14861   5.572   5.162   7.480 -0.0824 -0.5819 -0.4306
  871MOL0     C14862   5.551   5.044   7.576  0.1293 -0.4569 -0.4048
  871MOL0     C14863   5.539   5.091   7.724  0.0902  0.8334  0.1585
  871MOL0     O14864   5.467   4.997   7.804  0.2719  0.0781  0.1067
  871MOL0     C14865   5.517   4.881   7.851  0.4256  0.1502  1.1576
  871MOL0     C14866   5.423   4.803   7.923 -0.5265 -0.9083 -0.8171
  871MOL0     C14867   5.465   4.679   7.971  0.3970 -0.0733 -0.2181
  871MOL0     C14868   5.587   4.628   7.945  0.1325  0.6449  0.0497
  871MOL0     C14869   5.613   4.496   7.997 -1.0219  0.9656  0.3555
  871MOL0     O14870   5.747   4.454   7.994  1.1763 -0.9410  0.2665
  871MOL0     C14871   5.773   4.328   8.034 -0.8248  0.0688  0.1136
  871MOL0     C14872   5.823   4.295   8.160  0.4088 -0.8141  0.1474
  871MOL0     C14873   5.869   4.166   8.194 -1.1337  0.4474 -1.3305
  871MOL0     C14874   5.870   4.059   8.106  0.0896 -0.0763 -0.4355
  871MOL0     O14875   5.921   3.934   8.136 -0.0447 -0.6691 -0.2672
  871MOL0     C14876   5.872   3.817   8.063  0.4578  0.7428 -0.7558
  871MOL0     C14877   5.909   3.691   8.146 -0.6131  0.0098 -0.6856
  871MOL0     C14878   5.831   3.568   8.095  0.3717  0.4244  0.5940
  871MOL0     C14879   5.859   3.449   8.173 -0.0083  0.0951 -0.1273
  871MOL0     C14880   5.748   3.349   8.159 -0.2874 -0.4071  0.5597
  871MOL0     C14881   5.801   3.219   8.216  0.7447  0.6558 -1.3840
  871MOL0     C14882   5.681   3.123   8.229  0.4552 -0.4367  0.8026
  871MOL0     C14883   5.719   2.993   8.303 -0.3616  0.2931  0.6019
  871MOL0    Cl14884   5.743   3.011   8.476  0.0459  0.7198 -0.0835
  871MOL0     C14885   5.822   4.094   7.979  0.8059  1.0931  0.4940
  871MOL0     C14886   5.773   4.215   7.946  0.4449  0.2593 -0.9094
  871MOL0     O14887   5.521   4.425   8.035 -0.1662  0.4865  0.2836
  871MOL0     C14888   5.678   4.709   7.880 -0.8504 -0.8740  0.1306
  871MOL0     C14889   5.645   4.831   7.826 -0.6337  0.2936  0.2246
  871MOL0     N14890   5.698   5.183   7.154  0.3037  0.0808 -0.4277
  871MOL0     N14891   5.803   5.148   7.093  0.1829  0.5931 -0.3411
  871MOL0     C14892   5.842   4.032   7.474  0.1310 -0.7295  0.4021
  871MOL0     C14893   5.785   3.913   7.530  0.9091  0.6434 -0.1162
  871MOL0     C14894   5.632   3.578   7.736  0.8468  0.2600 -0.5421
  871MOL0     C14895   5.494   3.582   7.766 -0.0824  0.6220  0.1648
  871MOL0     C14896   5.442   3.451   7.786  0.1549  0.3573 -0.3818
  871MOL0     C14897   5.523   3.331   7.778  0.1856  0.5882 -0.0467
  871MOL0     O14898   5.465   3.205   7.789 -0.5157  0.4443  0.1350
  871MOL0     C14899   5.535   3.090   7.752  0.5373  0.6471 -0.0822
  871MOL0     C14900   5.459   2.965   7.805 -0.9114 -0.2957  0.0039
  871MOL0     C14901   5.528   2.830   7.771  0.1678  0.1467  0.5636
  871MOL0     C14902   5.618   2.779   7.887  0.5874 -0.6034 -0.0056
  871MOL0     C14903   5.737   2.867   7.921 -0.7838  0.9506  1.0266
  871MOL0     C14904   5.847   2.918   7.933  0.5467 -0.0339 -0.1219
  871MOL0     C14905   5.660   3.339   7.759 -0.7063 -0.6512 -0.6564
  871MOL0     C14906   5.715   3.464   7.751  0.3260 -0.8505  0.4492
  871MOL0     H14907   5.515   4.056   7.675  0.1687  0.0733  0.1508
  871MOL0     H14908   5.610   4.259   7.590  0.7904  0.4514 -0.8724
  871MOL0     H14909   5.736   4.230   7.264 -0.2004 -0.3938  1.5680
  871MOL0     H14910   5.909   4.209   7.263 -0.7700 -1.7808  0.2718
  871MOL0     H14911   5.949   4.445   7.287  1.7129 -0.2965 -2.6446
  871MOL0     H14912   5.769   4.481   7.271  1.4680  1.8923  0.2560
  871MOL0     H14913   5.776   4.362   7.047 -0.4446  0.0506  1.1167
  871MOL0     H14914   5.955   4.359   7.056 -0.1350 -0.4714  3.8060
  871MOL0     H14915   5.980   4.596   7.070 -0.1680 -1.0007  0.3747
  871MOL0     H14916   5.888   4.559   6.933  3.2782  1.1801  0.5241
  871MOL0     H14917   5.832   4.705   7.160  1.4693 -0.2590 -1.2895
  871MOL0     H14918   5.677   4.624   7.096  2.4436 -2.2851  4.1352
  871MOL0     H14919   5.679   4.836   7.000 -2.3637 -0.8686 -1.2919
  871MOL0     H14920   5.733   4.727   6.882 -2.5196 -0.8434  1.5329
  871MOL0     H14921   5.980   4.812   6.939 -0.0117  1.8286  0.3745
  871MOL0     H14922   5.870   4.944   6.893  3.2896  0.8309 -0.8901
  871MOL0     H14923   6.026   4.996   7.056 -0.8397  1.0372 -1.3678
  871MOL0     H14924   5.973   4.866   7.163 -1.3811 -0.6416 -0.6762
  871MOL0     H14925   5.765   4.907   7.311  0.1242  0.3065  0.8861
  871MOL0     H14926   5.475   5.022   7.333 -0.9764 -0.1523 -3.3984
  871MOL0     H14927   5.479   5.191   7.294 -0.3307  0.8876 -0.1717
  871MOL0     H14928   5.509   5.245   7.515  3.3546  1.2368  2.0807
  871MOL0     H14929   5.674   5.194   7.502 -0.2758 -1.5714  2.3003
  871MOL0     H14930   5.459   4.989   7.556  0.0865  0.0801 -1.7769
  871MOL0     H14931   5.627   4.965   7.575 -0.1886 -0.7651 -1.4325
  871MOL0     H14932   5.486   5.186   7.725 -0.2094  0.7857 -2.7255
  871MOL0     H14933   5.639   5.115   7.763  1.6085 -0.6795 -2.4887
  871MOL0     H14934   5.325   4.842   7.950  0.8178  2.5730 -0.3990
  871MOL0     H14935   5.396   4.620   8.031  0.2872  0.3228  0.0518
  871MOL0     H14936   5.820   4.379   8.230 -2.5966  1.8171 -2.7447
  871MOL0     H14937   5.916   4.153   8.291 -0.5659  1.9607 -1.3797
  871MOL0     H14938   5.921   3.811   7.965  1.2017 -0.0130 -0.3510
  871MOL0     H14939   5.764   3.823   8.047 -0.1289  0.3587  2.4616
  871MOL0     H14940   5.891   3.713   8.251  3.0484  0.5706 -0.0232
  871MOL0     H14941   6.015   3.663   8.139 -0.4493  0.4283  0.0630
  871MOL0     H14942   5.848   3.559   7.987 -1.6819  1.7664  0.0825
  871MOL0     H14943   5.722   3.581   8.093 -0.1706 -3.1416 -1.4177
  871MOL0     H14944   5.961   3.413   8.152  1.4250  2.1397  2.6633
  871MOL0     H14945   5.863   3.478   8.278  0.3691 -0.1250 -0.0769
  871MOL0     H14946   5.720   3.349   8.054  0.5697  3.3426  0.1868
  871MOL0     H14947   5.664   3.390   8.216  0.4481  1.3440  0.4628
  871MOL0     H14948   5.837   3.238   8.318 -2.3491 -2.5835  0.5334
  871MOL0     H14949   5.882   3.190   8.149  2.6801 -0.4374  1.2384
  871MOL0     H14950   5.603   3.178   8.283 -0.4216 -0.0542 -0.7957
  871MOL0     H14951   5.633   3.103   8.132  1.3363  0.8465  0.0673
  871MOL0     H14952   5.802   2.949   8.248 -3.3785 -1.8780 -2.6556
  871MOL0     H14953   5.628   2.935   8.286  0.4067 -0.8708  0.3681
  871MOL0     H14954   5.825   4.028   7.893  0.6294  0.6081  0.8519
  871MOL0     H14955   5.774   4.239   7.840  2.0027 -1.7524 -1.4139
  871MOL0     H14956   5.774   4.659   7.875  0.4209  1.5642 -1.7083
  871MOL0     H14957   5.722   4.895   7.784  0.9908 -0.0854  2.3760
  871MOL0     H14958   5.925   4.035   7.403 -0.5683  0.4361 -0.4162
  871MOL0     H14959   5.828   3.820   7.496  3.8010  1.5021  0.8887
  871MOL0     H14960   5.427   3.666   7.761 -3.4161 -1.8813 -0.9153
  871MOL0     H14961   5.336   3.446   7.808 -0.6537  0.9635 -3.5416
  871MOL0     H14962   5.627   3.087   7.811  0.1126  2.2910  0.7040
  871MOL0     H14963   5.554   3.079   7.644  1.8925  1.1974  0.0841
  871MOL0     H14964   5.439   2.957   7.912 -1.2702 -1.2319 -0.1185
  871MOL0     H14965   5.359   2.983   7.763  0.4246  2.7681 -2.2841
  871MOL0     H14966   5.582   2.842   7.677  0.0836  2.6786  0.7805
  871MOL0     H14967   5.453   2.751   7.759  1.9282 -1.6671  1.0115
  871MOL0     H14968   5.565   2.774   7.983  0.4966 -2.3109 -0.1070
  871MOL0     H14969   5.640   2.679   7.848 -0.8384  0.1098 -2.9498
  871MOL0     H14970   5.942   2.967   7.927  0.2736  0.4610 -0.4363
  871MOL0     H14971   5.737   3.262   7.760  2.0882  1.9231 -0.3678
  871MOL0     H14972   5.822   3.478   7.759  0.0411  0.6055  4.1116
  872MOL0     O14973   8.479   9.694   0.767  0.6882 -0.7785 -0.0595
  872MOL0     C14974   8.572   9.620   0.743  0.0454  1.1497 -0.6601
  872MOL0     O14975   8.655   9.563   0.837  0.0555 -0.6680  0.3864
  872MOL0     C14976   8.629   9.541   0.971 -0.6993  0.1875 -0.2317
  872MOL0     C14977   8.739   9.501   1.050  0.4928 -0.3560 -0.8274
  872MOL0     C14978   8.713   9.483   1.182 -0.5239  0.0769 -0.5002
  872MOL0     C14979   8.589   9.500   1.239 -0.0746 -0.0763 -0.9167
  872MOL0     O14980   8.585   9.499   1.381  0.1181  0.8252  0.1669
  872MOL0     C14981   8.445   9.471   1.433  0.7917  1.1800  0.4437
  872MOL0     C14982   8.454   9.450   1.587 -0.0879  0.2792 -0.3681
  872MOL0     C14983   8.316   9.401   1.642 -1.5074 -0.3987 -1.3045
  872MOL0     C14984   8.209   9.507   1.670 -0.3050 -1.4624  0.6030
  872MOL0     C14985   8.083   9.440   1.728  0.1337 -0.7631  0.4356
  872MOL0     C14986   7.977   9.549   1.746 -0.3840 -0.2659 -0.2982
  872MOL0     C14987   7.864   9.509   1.842 -0.8653 -0.9285  1.0420
  872MOL0     C14988   7.754   9.417   1.769  0.2305 -0.4935 -1.4375
  872MOL0     N14989   7.799   9.281   1.754  0.4887 -0.5354  0.4478
  872MOL0     C14990   7.845   9.192   1.847  0.6225 -0.6388  0.1148
  872MOL0     C14991   7.907   9.092   1.778 -0.0871 -0.7135 -0.0656
  872MOL0     C14992   7.975   8.969   1.832  0.6826 -0.2645 -0.4908
  872MOL0     C14993   8.119   9.010   1.855  0.0434 -0.0246  0.4610
  872MOL0     C14994   8.185   8.894   1.929  0.1224 -0.6360 -0.0809
  872MOL0     C14995   8.331   8.929   1.975  1.4220 -0.0958  0.0451
  872MOL0     O14996   8.411   8.924   1.862 -0.2747 -0.3743  0.2083
  872MOL0     C14997   8.529   8.994   1.865  0.0776 -0.0686 -0.3893
  872MOL0     C14998   8.592   9.054   1.760 -0.1158  0.3730 -0.4256
  872MOL0     C14999   8.705   9.142   1.764  0.6435  0.5124  0.2872
  872MOL0     C15000   8.772   9.160   1.886 -0.0921 -0.3643 -1.4670
  872MOL0     C15001   8.894   9.239   1.917 -0.3245 -0.3227  0.5329
  872MOL0     O15002   8.976   9.253   1.811 -0.5202  0.8602 -0.0274
  872MOL0     C15003   9.101   9.306   1.836 -0.3758  0.0787 -0.5336
  872MOL0     C15004   9.112   9.438   1.878  0.0062  0.2259 -0.6256
  872MOL0     C15005   9.230   9.509   1.864  0.7473  0.9061 -0.2915
  872MOL0     C15006   9.344   9.442   1.813 -0.0412  0.5146 -0.0039
  872MOL0     O15007   9.459   9.506   1.819 -0.6762 -0.4470  1.0569
  872MOL0     C15008   9.531   9.490   1.941 -0.6261 -0.6823  1.2062
  872MOL0     C15009   9.663   9.565   1.936 -0.7820  0.1294 -0.5511
  872MOL0     C15010   9.762   9.500   1.837  0.2018  0.7193 -0.6931
  872MOL0     C15011   9.902   9.567   1.821  0.2862 -0.2206 -0.6391
  872MOL0     C15012   9.978   9.587   1.945  1.1314  0.5227 -0.1544
  872MOL0     C15013  10.105   9.656   1.923  0.1281  1.0203 -0.3562
  872MOL0     C15014  10.173   9.666   2.054 -0.1720  1.3017 -0.0812
  872MOL0     C15015  10.115   9.763   2.155  0.1314  0.7460  0.7798
  872MOL0    Cl15016  10.219   9.766   2.298 -0.1244 -0.1316  1.0082
  872MOL0     C15017   9.334   9.297   1.785  0.2275  0.1659  0.1112
  872MOL0     C15018   9.212   9.238   1.801 -0.6308 -0.2803 -0.3327
  872MOL0     O15019   8.918   9.273   2.027  0.1813 -0.7239  0.0322
  872MOL0     C15020   8.725   9.075   1.994 -0.1176  0.3938  0.3068
  872MOL0     C15021   8.606   9.003   1.985 -0.5523 -0.4334  0.0912
  872MOL0     N15022   7.865   9.106   1.645  0.1411  0.5006  0.7626
  872MOL0     N15023   7.813   9.216   1.635  0.0631 -0.4678  0.1085
  872MOL0     C15024   8.488   9.547   1.155 -0.5932  0.1081  0.0616
  872MOL0     C15025   8.503   9.564   1.022 -0.8582 -1.0944 -0.1437
  872MOL0     C15026   8.613   9.628   0.601  1.3087 -0.0398  0.1282
  872MOL0     C15027   8.559   9.726   0.519 -0.1613 -0.1570 -0.0511
  872MOL0     C15028   8.577   9.711   0.390 -0.6637  0.8671 -0.6125
  872MOL0     C15029   8.653   9.600   0.332 -0.2540  0.1497 -0.5119
  872MOL0     O15030   8.662   9.574   0.199  0.3136  0.4395  0.2330
  872MOL0     C15031   8.595   9.658   0.105  0.8964  0.7062 -0.0541
  872MOL0     C15032   8.645   9.626  -0.029 -1.1919  0.3696 -1.0356
  872MOL0     C15033   8.593   9.499  -0.096  0.8721  0.1240 -0.1934
  872MOL0     C15034   8.655   9.364  -0.047  0.3887 -0.2195  0.2327
  872MOL0     C15035   8.588   9.322   0.072 -0.5514  0.1464  0.0936
  872MOL0     C15036   8.533   9.280   0.171 -0.0834 -0.0808  0.2933
  872MOL0     C15037   8.706   9.505   0.418  0.9810 -0.4549  1.2366
  872MOL0     C15038   8.687   9.518   0.552  0.0040 -0.3088 -1.5819
  872MOL0     H15039   8.840   9.493   1.012  0.0063 -1.7603 -1.9431
  872MOL0     H15040   8.790   9.441   1.245 -2.1035  0.9652  2.1554
  872MOL0     H15041   8.409   9.375   1.397 -1.2957  1.7950  0.7379
  872MOL0     H15042   8.369   9.548   1.417 -1.9767 -1.2618  1.0063
  872MOL0     H15043   8.489   9.545   1.628  0.0131  0.0205  0.1555
  872MOL0     H15044   8.526   9.373   1.619 -1.4956 -2.0964 -2.5478
  872MOL0     H15045   8.336   9.337   1.728 -0.1750 -0.5289 -1.6923
  872MOL0     H15046   8.270   9.347   1.559 -2.6287  4.1251 -3.9912
  872MOL0     H15047   8.244   9.581   1.743 -0.0007 -1.8044  0.8046
  872MOL0     H15048   8.180   9.569   1.585 -3.8921 -2.1727  1.1551
  872MOL0     H15049   8.103   9.385   1.820 -3.2698 -2.1902  0.4486
  872MOL0     H15050   8.040   9.365   1.662  1.4486 -1.7999  0.7088
  872MOL0     H15051   7.938   9.584   1.649 -3.4420  1.2914  1.3108
  872MOL0     H15052   8.029   9.636   1.789  1.3410  0.2160 -3.1181
  872MOL0     H15053   7.887   9.473   1.942 -1.7531 -3.5237  0.3789
  872MOL0     H15054   7.805   9.598   1.864 -0.4589 -0.1618 -0.7370
  872MOL0     H15055   7.737   9.457   1.668 -1.3450 -1.9708 -1.7891
  872MOL0     H15056   7.661   9.429   1.824 -0.5918 -0.8731 -2.7023
  872MOL0     H15057   7.854   9.206   1.954 -0.7063  2.6496 -0.0877
  872MOL0     H15058   7.965   8.895   1.752  0.2845 -0.7680  0.0143
  872MOL0     H15059   7.934   8.940   1.929  4.6638  0.7762  1.7377
  872MOL0     H15060   8.119   9.100   1.918 -1.5759  0.1415  0.2739
  872MOL0     H15061   8.172   9.021   1.760 -0.5566 -3.3347 -0.3834
  872MOL0     H15062   8.121   8.885   2.017 -1.5299  3.2763 -0.6931
  872MOL0     H15063   8.187   8.800   1.872 -1.6951 -0.0207 -1.2424
  872MOL0     H15064   8.361   8.855   2.051 -0.5125 -0.7444  0.2325
  872MOL0     H15065   8.340   9.029   2.017  2.3361 -0.4573  0.7659
  872MOL0     H15066   8.535   9.047   1.667 -1.7394  3.6168  0.1612
  872MOL0     H15067   8.745   9.194   1.677 -0.5178 -0.6794 -1.0253
  872MOL0     H15068   9.022   9.488   1.912 -0.0963  2.1869 -3.4384
  872MOL0     H15069   9.238   9.617   1.872 -0.2352  1.1461 -2.0085
  872MOL0     H15070   9.556   9.383   1.946 -0.3853 -0.8631 -1.8975
  872MOL0     H15071   9.469   9.532   2.020 -4.0361 -0.0651 -1.5362
  872MOL0     H15072   9.698   9.579   2.039 -1.9478  2.0535 -0.3729
  872MOL0     H15073   9.644   9.668   1.904 -1.2224 -0.2681 -1.6169
  872MOL0     H15074   9.712   9.495   1.740 -3.7802  3.2563  0.9844
  872MOL0     H15075   9.770   9.396   1.869 -1.9828  0.5988 -0.3766
  872MOL0     H15076   9.961   9.511   1.749  2.1069  2.9998 -1.8940
  872MOL0     H15077   9.897   9.672   1.788  3.2559  0.9507  2.1058
  872MOL0     H15078   9.999   9.483   1.973  2.0479  0.3916 -1.2514
  872MOL0     H15079   9.912   9.625   2.024 -2.3607 -1.3931 -1.9031
  872MOL0     H15080  10.083   9.760   1.896 -2.0709  0.2985 -1.6943
  872MOL0     H15081  10.172   9.609   1.851 -0.0468 -2.3010  1.4763
  872MOL0     H15082  10.150   9.573   2.108 -3.8970  1.2138 -1.5367
  872MOL0     H15083  10.280   9.682   2.038 -0.1037 -0.4856 -1.8920
  872MOL0     H15084  10.016   9.739   2.193  0.3554  1.3711  1.7754
  872MOL0     H15085  10.135   9.863   2.116  0.7688  0.7469  1.0857
  872MOL0     H15086   9.425   9.246   1.757 -2.3891 -4.0465 -1.7288
  872MOL0     H15087   9.201   9.134   1.774  0.0135 -0.3533 -0.3243
  872MOL0     H15088   8.780   9.072   2.088 -0.5777 -0.6676  0.5547
  872MOL0     H15089   8.568   8.974   2.082  2.0235  0.9879  1.6504
  872MOL0     H15090   8.387   9.578   1.177  0.0990  1.8456  1.0815
  872MOL0     H15091   8.408   9.585   0.975  0.0312  0.3120 -1.3745
  872MOL0     H15092   8.511   9.813   0.562  1.6129  0.1328  1.5151
  872MOL0     H15093   8.546   9.795   0.328  2.0090  1.8671 -0.7141
  872MOL0     H15094   8.632   9.760   0.119 -0.6106  1.2587  0.1843
  872MOL0     H15095   8.486   9.652   0.118  1.1451 -1.7271  1.6643
  872MOL0     H15096   8.618   9.713  -0.089 -4.5192  1.2917  1.4908
  872MOL0     H15097   8.754   9.613  -0.033 -0.6508  3.4125  0.7263
  872MOL0     H15098   8.616   9.515  -0.202 -1.2095  0.8187 -0.6000
  872MOL0     H15099   8.484   9.495  -0.085  0.9558  0.8963  1.0611
  872MOL0     H15100   8.651   9.288  -0.125  2.3552 -0.0598 -0.0841
  872MOL0     H15101   8.763   9.373  -0.027 -0.1302  2.1073  2.5577
  872MOL0     H15102   8.475   9.250   0.256  0.5114  1.3214  1.2255
  872MOL0     H15103   8.757   9.416   0.381 -1.4384 -2.3858  2.2395
  872MOL0     H15104   8.728   9.442   0.619  1.1320  2.4164  1.0381
  873MOL0     O15105   1.834   4.201  10.008  0.1122 -0.4386  0.5682
  873MOL0     C15106   1.879   4.148   9.902 -0.7939 -0.5266 -1.1188
  873MOL0     O15107   1.809   4.075   9.822  0.1400  0.4190  0.4903
  873MOL0     C15108   1.684   4.038   9.867 -0.6421 -1.4754 -0.8534
  873MOL0     C15109   1.585   4.132   9.846 -0.7534 -1.0659  0.2570
  873MOL0     C15110   1.460   4.104   9.906  0.6801  0.2956 -0.2351
  873MOL0     C15111   1.436   3.981   9.970 -0.8097 -0.5526 -0.7471
  873MOL0     O15112   1.324   3.939  10.022  0.2138  0.4355  0.0325
  873MOL0     C15113   1.198   4.005   9.976  0.5841  0.2579 -0.2656
  873MOL0     C15114   1.078   3.939  10.034 -0.1656 -0.1152 -0.2515
  873MOL0     C15115   0.942   4.008  10.040 -0.1344 -0.4813 -0.6542
  873MOL0     C15116   0.844   3.951   9.946 -0.1650 -0.3988 -0.2627
  873MOL0     C15117   0.830   3.795   9.962 -0.4088  0.3205  0.6884
  873MOL0     C15118   0.690   3.726   9.959 -0.0187  0.1857  0.4927
  873MOL0     C15119   0.595   3.752  10.074  0.2332 -0.7966 -0.3747
  873MOL0     C15120   0.480   3.654  10.083  0.4714 -0.0946  1.0021
  873MOL0     N15121   0.532   3.527  10.120  0.4801  0.8466  0.6904
  873MOL0     C15122   0.561   3.429  10.028 -0.0910 -0.3100 -0.0114
  873MOL0     C15123   0.595   3.327  10.101  0.8098 -0.2209 -0.2060
  873MOL0     C15124   0.606   3.190  10.034 -0.9256 -0.2116 -0.2957
  873MOL0     C15125   0.650   3.086  10.132  0.6470  1.2488 -0.6067
  873MOL0     C15126   0.531   3.028  10.211 -1.0755  0.0613 -0.2264
  873MOL0     C15127   0.575   2.920  10.315 -0.0333 -0.1437 -0.3034
  873MOL0     O15128   0.619   2.795  10.257 -0.1377 -0.0179  0.4527
  873MOL0     C15129   0.753   2.764  10.257 -0.0811 -0.1194 -0.2099
  873MOL0     C15130   0.855   2.853  10.298  0.0814 -0.4931 -1.3355
  873MOL0     C15131   0.991   2.816  10.286  0.8874 -0.4513 -0.2096
  873MOL0     C15132   1.021   2.682  10.248  0.6691  0.6928  0.2225
  873MOL0     C15133   1.160   2.632  10.228  1.3592 -0.3779  0.4453
  873MOL0     O15134   1.261   2.731  10.240  0.7728 -0.2468 -0.5060
  873MOL0     C15135   1.397   2.704  10.240  0.4575  0.3565 -0.4143
  873MOL0     C15136   1.478   2.755  10.145 -0.2240  0.3569  0.3630
  873MOL0     C15137   1.621   2.737  10.153 -0.7303  0.2130 -0.4943
  873MOL0     C15138   1.683   2.668  10.248 -0.4380  0.0671 -0.2318
  873MOL0     O15139   1.818   2.645  10.244 -1.3771  0.0072 -0.2686
  873MOL0     C15140   1.876   2.552  10.338  0.3512 -0.0461 -0.2917
  873MOL0     C15141   2.025   2.524  10.319  0.2805 -0.2690 -0.5012
  873MOL0     C15142   2.109   2.646  10.355 -0.7592 -0.8839 -0.3016
  873MOL0     C15143   2.258   2.626  10.303  0.0274 -0.4230 -0.5428
  873MOL0     C15144   2.343   2.657  10.427 -0.0427 -0.5532 -0.1826
  873MOL0     C15145   2.474   2.691  10.375  0.3248 -1.4674 -1.1451
  873MOL0     C15146   2.586   2.654  10.481  0.0989 -1.1744 -1.1123
  873MOL0     C15147   2.722   2.637  10.421  0.1902 -0.2811 -1.0896
  873MOL0    Cl15148   2.845   2.561  10.516  0.3047  0.1939  0.0554
  873MOL0     C15149   1.603   2.626  10.356 -0.0497 -0.5669  0.6482
  873MOL0     C15150   1.462   2.643  10.348  0.2260 -0.9077 -0.9622
  873MOL0     O15151   1.187   2.514  10.199 -0.1315 -0.6076  0.1307
  873MOL0     C15152   0.920   2.600  10.204 -0.6372  0.3158 -0.4636
  873MOL0     C15153   0.784   2.631  10.213  0.5245 -0.3200  0.8524
  873MOL0     N15154   0.583   3.345  10.238  0.7009  1.1504  0.5651
  873MOL0     N15155   0.542   3.470  10.240 -0.3490  0.1089  0.6109
  873MOL0     C15156   1.527   3.880   9.960 -0.6620 -0.0359 -0.3444
  873MOL0     C15157   1.658   3.912   9.923  0.4089  0.5310  1.0130
  873MOL0     C15158   2.014   4.192   9.873 -0.0249  0.3485  0.4125
  873MOL0     C15159   2.100   4.224   9.967  0.1046  0.0616  0.1423
  873MOL0     C15160   2.225   4.276   9.937 -0.1234  0.9734  0.0777
  873MOL0     C15161   2.276   4.303   9.812  0.5733 -0.6679 -0.0584
  873MOL0     O15162   2.410   4.315   9.800 -0.2585 -0.4091  0.1539
  873MOL0     C15163   2.465   4.346   9.673 -0.3091 -0.1605  0.2403
  873MOL0     C15164   2.615   4.383   9.666  0.2072 -0.5312 -0.8009
  873MOL0     C15165   2.710   4.282   9.734  1.1099 -0.5681  0.7646
  873MOL0     C15166   2.793   4.342   9.844  1.0889 -0.3414 -0.2184
  873MOL0     C15167   2.718   4.398   9.961  0.0606  0.5412 -0.6821
  873MOL0     C15168   2.645   4.442  10.053 -0.2853  0.2932  0.6174
  873MOL0     C15169   2.186   4.269   9.708  0.2622  0.0993 -0.0745
  873MOL0     C15170   2.057   4.220   9.735  1.1734  1.2557 -0.2790
  873MOL0     H15171   1.603   4.226   9.796 -1.2762 -1.4328 -0.6584
  873MOL0     H15172   1.388   4.184   9.896  2.8314  2.0673 -2.9872
  873MOL0     H15173   1.179   4.008   9.868  4.9202 -1.1482 -1.2736
  873MOL0     H15174   1.202   4.108  10.013 -0.6372 -0.2589  1.3677
  873MOL0     H15175   1.086   3.934  10.143  0.9138  0.9596 -0.2689
  873MOL0     H15176   1.084   3.834  10.002  3.8339  0.0270 -0.3523
  873MOL0     H15177   0.968   4.110  10.010 -0.1663  0.5351  2.4145
  873MOL0     H15178   0.911   4.006  10.145  2.1936 -0.6986  0.0975
  873MOL0     H15179   0.746   3.996   9.961 -1.0052 -2.9505  3.5396
  873MOL0     H15180   0.863   3.982   9.843 -1.7793 -2.4630 -1.2597
  873MOL0     H15181   0.872   3.767  10.059  2.6011  0.0660 -0.5774
  873MOL0     H15182   0.901   3.747   9.893  0.5202 -0.4711  2.1401
  873MOL0     H15183   0.703   3.618   9.951 -1.2396  0.0839 -0.1604
  873MOL0     H15184   0.636   3.765   9.873  1.0189 -0.9416 -0.6983
  873MOL0     H15185   0.655   3.758  10.165 -2.5076  3.2733  1.4489
  873MOL0     H15186   0.564   3.856  10.064  1.6723 -0.3386 -0.3689
  873MOL0     H15187   0.429   3.651   9.986  0.1392  1.4858  1.1178
  873MOL0     H15188   0.410   3.683  10.161 -1.2588 -4.1614  1.2066
  873MOL0     H15189   0.551   3.435   9.920 -1.1081  0.5392  0.1139
  873MOL0     H15190   0.672   3.193   9.947 -0.1430 -1.7906  0.2158
  873MOL0     H15191   0.512   3.164   9.986 -2.1612  0.4804  1.5948
  873MOL0     H15192   0.730   3.122  10.198  2.5481  0.7747 -2.5258
  873MOL0     H15193   0.699   3.002  10.082 -0.2924 -0.3692  1.0604
  873MOL0     H15194   0.493   3.106  10.277 -0.0246 -1.0156  1.7177
  873MOL0     H15195   0.446   2.992  10.151 -0.1986 -1.9804 -0.3225
  873MOL0     H15196   0.494   2.886  10.379 -2.1618  0.1923 -2.6572
  873MOL0     H15197   0.647   2.967  10.382 -1.4650  3.4788 -1.0544
  873MOL0     H15198   0.836   2.953  10.333  1.8399 -1.5434  3.3703
  873MOL0     H15199   1.071   2.884  10.313 -0.6547  0.9232  1.1313
  873MOL0     H15200   1.436   2.809  10.061  4.5224  0.6096 -2.1648
  873MOL0     H15201   1.686   2.777  10.076 -0.3995  0.7624  0.0577
  873MOL0     H15202   1.835   2.453  10.313  0.7857 -0.5265  0.8465
  873MOL0     H15203   1.845   2.574  10.440 -3.2061 -3.1932 -0.4635
  873MOL0     H15204   2.042   2.495  10.215  0.4583 -0.5517 -0.3934
  873MOL0     H15205   2.032   2.438  10.386  0.3346  1.1337  1.4095
  873MOL0     H15206   2.080   2.676  10.456  0.9643 -3.6410  1.1450
  873MOL0     H15207   2.078   2.734  10.298  0.8147  0.8710  1.4392
  873MOL0     H15208   2.263   2.519  10.279 -1.6886 -0.4647 -0.8822
  873MOL0     H15209   2.286   2.685  10.216  1.4713 -2.7183 -1.7545
  873MOL0     H15210   2.342   2.566  10.488  2.0392 -2.0674 -2.2195
  873MOL0     H15211   2.299   2.747  10.470 -1.9917 -1.6591  0.2550
  873MOL0     H15212   2.467   2.800  10.366 -1.6252 -0.9574  3.6099
  873MOL0     H15213   2.491   2.637  10.281  2.3831 -3.8722  0.4621
  873MOL0     H15214   2.580   2.741  10.547 -2.9415 -3.1022  1.4288
  873MOL0     H15215   2.568   2.564  10.540  5.5950 -1.0673  1.3981
  873MOL0     H15216   2.763   2.736  10.401  0.5677 -0.3972 -0.9038
  873MOL0     H15217   2.709   2.586  10.325 -2.6711 -1.1568 -0.3341
  873MOL0     H15218   1.652   2.588  10.445  2.0446  0.4317  0.0067
  873MOL0     H15219   1.394   2.612  10.426 -0.3502  2.3186 -0.0395
  873MOL0     H15220   0.950   2.497  10.190  4.9442  1.2198  2.1180
  873MOL0     H15221   0.704   2.569  10.173  0.9723 -0.5710  0.3335
  873MOL0     H15222   1.503   3.782  10.000 -1.0099  0.9032  1.9103
  873MOL0     H15223   1.734   3.837   9.943 -0.2144  0.1165  1.9453
  873MOL0     H15224   2.085   4.199  10.072 -1.7538  2.3657  0.5224
  873MOL0     H15225   2.293   4.281  10.022 -1.1332 -1.1501  1.0770
  873MOL0     H15226   2.411   4.434   9.639  1.6742  0.7745 -0.6603
  873MOL0     H15227   2.459   4.268   9.597 -1.3173  0.9989 -0.9133
  873MOL0     H15228   2.642   4.392   9.561 -1.0841  2.4774 -0.9699
  873MOL0     H15229   2.622   4.487   9.699  0.2750 -0.1377 -2.0340
  873MOL0     H15230   2.781   4.237   9.663  0.2244  0.0613 -0.5750
  873MOL0     H15231   2.638   4.215   9.781 -1.3064  0.3644 -1.3825
  873MOL0     H15232   2.848   4.265   9.898 -0.5312 -0.2597  1.6846
  873MOL0     H15233   2.865   4.417   9.811 -0.0577  1.5591  1.3734
  873MOL0     H15234   2.576   4.471  10.129  1.3759  0.8172  2.0100
  873MOL0     H15235   2.211   4.272   9.602  0.1445 -0.5902 -0.1288
  873MOL0     H15236   1.982   4.196   9.660 -2.2318 -2.8838  3.7980
  874MOL0     O15237   8.894   0.956   7.809  0.0934  0.0102  0.3114
  874MOL0     C15238   8.890   0.871   7.898  0.2144 -0.1617  0.6181
  874MOL0     O15239   8.854   0.740   7.885  0.4730  0.0306  0.4183
  874MOL0     C15240   8.831   0.669   7.766  0.8057 -0.6368  0.2031
  874MOL0     C15241   8.847   0.716   7.640 -0.5771 -0.9537  0.4121
  874MOL0     C15242   8.823   0.640   7.529  0.8417  0.5711 -0.1346
  874MOL0     C15243   8.793   0.506   7.539 -0.2110 -0.1573 -0.4532
  874MOL0     O15244   8.785   0.416   7.440 -1.0716  0.8475 -0.3506
  874MOL0     C15245   8.816   0.456   7.304  0.7904 -0.1795 -0.3174
  874MOL0     C15246   8.785   0.345   7.218  0.1376  0.4385 -0.1314
  874MOL0     C15247   8.819   0.384   7.067  0.2624  0.4218 -0.1723
  874MOL0     C15248   8.834   0.264   6.992  0.8839 -0.0518  1.4750
  874MOL0     C15249   8.843   0.293   6.840 -0.5260  0.4464  0.3609
  874MOL0     C15250   8.841   0.155   6.762  0.4826 -0.2353 -0.6645
  874MOL0     C15251   8.838   0.179   6.603  0.4272 -0.4310  0.1053
  874MOL0     C15252   8.826   0.037   6.547 -0.1789  0.8133 -0.8574
  874MOL0     N15253   8.806   0.025   6.401  0.4803 -0.1424  0.0893
  874MOL0     C15254   8.891  -0.057   6.322  0.3574 -0.8373 -0.1084
  874MOL0     C15255   8.857  -0.041   6.198  0.1563 -0.2256  0.1544
  874MOL0     C15256   8.921  -0.096   6.071 -0.0922 -0.7968  0.7612
  874MOL0     C15257   8.825  -0.145   5.962  0.1297  0.1344 -0.0765
  874MOL0     C15258   8.896  -0.204   5.836  0.2161 -0.3129  0.6508
  874MOL0     C15259   8.816  -0.280   5.729 -0.3735 -0.0632  0.5597
  874MOL0     O15260   8.745  -0.390   5.797 -0.3076  0.2310 -0.0652
  874MOL0     C15261   8.758  -0.516   5.732 -0.0032  0.7577 -0.5467
  874MOL0     C15262   8.883  -0.579   5.730 -0.2834 -1.7861  0.2088
  874MOL0     C15263   8.912  -0.688   5.657 -0.2211  0.9039  0.2520
  874MOL0     C15264   8.811  -0.765   5.597 -0.4125  0.0294  1.1495
  874MOL0     C15265   8.841  -0.899   5.546  0.4991  1.6778  0.0115
  874MOL0     O15266   8.749  -0.948   5.446  0.8594 -0.0870 -0.0689
  874MOL0     C15267   8.744  -1.079   5.404 -0.7575 -0.0096  0.4970
  874MOL0     C15268   8.669  -1.105   5.292  0.2149  0.7071 -0.4654
  874MOL0     C15269   8.676  -1.228   5.227 -0.2225  0.2354  0.0682
  874MOL0     C15270   8.740  -1.338   5.282  0.3732  0.5609 -0.3599
  874MOL0     O15271   8.766  -1.460   5.220  0.4239 -0.0283  0.7765
  874MOL0     C15272   8.708  -1.482   5.086 -0.4690 -0.2529 -0.4759
  874MOL0     C15273   8.708  -1.626   5.041  0.6794  0.2207  0.5095
  874MOL0     C15274   8.590  -1.690   5.102  0.4812 -0.7685 -0.1052
  874MOL0     C15275   8.590  -1.832   5.065 -0.3449  0.2042 -0.1541
  874MOL0     C15276   8.461  -1.915   5.070  0.0283  0.2001 -0.3612
  874MOL0     C15277   8.407  -1.932   5.218  0.9160 -0.3630  0.2670
  874MOL0     C15278   8.308  -2.044   5.219 -0.3404 -0.1340 -0.1857
  874MOL0     C15279   8.264  -2.074   5.364 -0.0910  0.2247 -0.3225
  874MOL0    Cl15280   8.399  -2.119   5.473  0.3651 -0.0667  0.1637
  874MOL0     C15281   8.797  -1.315   5.408 -0.5961  0.0165  0.4573
  874MOL0     C15282   8.807  -1.193   5.469  0.5615  0.2416 -0.1283
  874MOL0     O15283   8.939  -0.963   5.580  0.6492  0.3795 -0.9333
  874MOL0     C15284   8.682  -0.705   5.591  0.8688 -0.4012 -0.9454
  874MOL0     C15285   8.655  -0.583   5.662 -0.1135  0.4650 -0.2589
  874MOL0     N15286   8.762   0.053   6.203  0.2637 -1.1357 -0.7177
  874MOL0     N15287   8.729   0.090   6.321 -0.9785 -0.3165  0.6734
  874MOL0     C15288   8.782   0.446   7.664  0.4671 -0.4150  0.5272
  874MOL0     C15289   8.798   0.527   7.773 -0.0843  0.5125  0.2589
  874MOL0     C15290   8.917   0.918   8.032  0.0946  0.4978  0.2985
  874MOL0     C15291   8.947   1.056   8.060 -0.2776 -0.5295  0.2843
  874MOL0     C15292   8.969   1.098   8.192  0.2291  0.6890 -0.1171
  874MOL0     C15293   8.978   1.000   8.295  0.6746 -0.3593  0.4678
  874MOL0     O15294   9.020   1.015   8.427  0.3623  0.3847 -0.7161
  874MOL0     C15295   9.106   1.121   8.466  0.7792 -0.4828  0.6379
  874MOL0     C15296   9.238   1.128   8.372  0.7352  0.2588  0.0701
  874MOL0     C15297   9.321   0.996   8.353 -0.8690 -0.0014  0.2525
  874MOL0     C15298   9.397   0.969   8.485 -0.0904  0.0371  0.4063
  874MOL0     C15299   9.503   0.873   8.462 -0.1352 -0.0735  0.2393
  874MOL0     C15300   9.592   0.792   8.441  1.1509  0.2760 -0.1174
  874MOL0     C15301   8.944   0.873   8.272  0.5566 -0.3055  0.6300
  874MOL0     C15302   8.898   0.831   8.140  0.1233  0.1497  0.1310
  874MOL0     H15303   8.869   0.819   7.616  2.3131 -0.8214  3.0737
  874MOL0     H15304   8.823   0.689   7.432  1.8043 -0.5246 -0.7084
  874MOL0     H15305   8.919   0.491   7.294  0.6559 -0.0430 -1.3956
  874MOL0     H15306   8.745   0.538   7.289 -0.4529 -1.2088 -0.3211
  874MOL0     H15307   8.683   0.308   7.238  0.8939 -1.9784 -0.4004
  874MOL0     H15308   8.854   0.271   7.258  1.4256  1.3805 -0.5617
  874MOL0     H15309   8.914   0.438   7.068  0.1753  0.5879  1.0065
  874MOL0     H15310   8.739   0.452   7.035 -3.9222 -1.4358  4.8411
  874MOL0     H15311   8.920   0.204   7.022  0.9169 -0.9104 -0.1965
  874MOL0     H15312   8.741   0.206   6.995  0.0341  1.0572 -0.8104
  874MOL0     H15313   8.940   0.342   6.828 -0.7612  0.3202 -3.1530
  874MOL0     H15314   8.761   0.357   6.806 -0.1413  1.4012  1.1751
  874MOL0     H15315   8.748   0.104   6.789  1.7103 -2.6936 -0.7320
  874MOL0     H15316   8.924   0.092   6.796  2.2261  1.1019 -2.2763
  874MOL0     H15317   8.751   0.234   6.567  1.0657 -0.0837 -0.9555
  874MOL0     H15318   8.918   0.240   6.559 -1.9032  3.8435  1.2245
  874MOL0     H15319   8.745  -0.019   6.594  1.1306  0.9508  1.8203
  874MOL0     H15320   8.922  -0.009   6.575  0.3581  2.2058 -0.3408
  874MOL0     H15321   8.968  -0.120   6.366  1.1067  1.1993  1.6589
  874MOL0     H15322   8.985  -0.184   6.081  1.6365  0.0424 -1.8335
  874MOL0     H15323   8.979  -0.011   6.032 -1.1654 -0.7941 -0.9499
  874MOL0     H15324   8.764  -0.059   5.933  1.3532  1.2978  0.7207
  874MOL0     H15325   8.758  -0.222   6.001  0.7119 -0.3542 -0.0254
  874MOL0     H15326   8.963  -0.133   5.786 -0.1346 -1.8285 -2.1716
  874MOL0     H15327   8.965  -0.273   5.886  1.5169  0.3926 -0.1214
  874MOL0     H15328   8.892  -0.325   5.664  1.1959  1.2986  1.3674
  874MOL0     H15329   8.746  -0.221   5.669 -0.2705  0.9215  1.4019
  874MOL0     H15330   8.950  -0.538   5.806 -2.1285  3.0818 -0.4475
  874MOL0     H15331   9.008  -0.738   5.661 -0.4334 -0.5606 -5.2643
  874MOL0     H15332   8.628  -1.021   5.237 -0.4355  0.6794 -0.0289
  874MOL0     H15333   8.634  -1.233   5.127 -1.4705  1.1221  0.5186
  874MOL0     H15334   8.770  -1.441   5.006 -0.4884 -0.0984 -0.4124
  874MOL0     H15335   8.610  -1.433   5.075  0.0081  0.8222 -0.0726
  874MOL0     H15336   8.800  -1.676   5.070  1.2957  0.9296 -0.1550
  874MOL0     H15337   8.702  -1.636   4.932 -0.5523  1.5352  0.4258
  874MOL0     H15338   8.491  -1.652   5.075 -0.2031 -0.4313  2.5847
  874MOL0     H15339   8.599  -1.696   5.211  3.1129 -1.7524 -0.3179
  874MOL0     H15340   8.620  -1.840   4.960  0.6836  1.2295  0.0492
  874MOL0     H15341   8.667  -1.876   5.129  0.4281  3.5712  1.4234
  874MOL0     H15342   8.490  -2.013   5.030  0.2948 -1.1031  2.7648
  874MOL0     H15343   8.384  -1.873   5.004 -3.0877 -1.9995  1.6437
  874MOL0     H15344   8.359  -1.841   5.255  1.2975 -0.4524  1.0146
  874MOL0     H15345   8.489  -1.959   5.286  2.2619  1.3874 -0.5704
  874MOL0     H15346   8.224  -1.991   5.173  0.5674  2.1679  0.6378
  874MOL0     H15347   8.339  -2.133   5.163  0.4407 -0.2924  0.4889
  874MOL0     H15348   8.197  -2.160   5.367 -0.7567  0.7469 -0.1364
  874MOL0     H15349   8.200  -1.993   5.399 -1.8498 -0.8346 -0.9378
  874MOL0     H15350   8.855  -1.402   5.437  2.0261  0.9742 -1.4853
  874MOL0     H15351   8.863  -1.182   5.561  1.4181 -3.4748 -0.0310
  874MOL0     H15352   8.602  -0.747   5.531 -1.6727  1.9173  0.6090
  874MOL0     H15353   8.558  -0.536   5.648  0.8754  2.1637 -1.8262
  874MOL0     H15354   8.786   0.339   7.687  2.8911  0.3080  4.5704
  874MOL0     H15355   8.806   0.482   7.872  1.0507 -1.4297 -0.6709
  874MOL0     H15356   8.950   1.126   7.977 -1.7349 -0.4663  0.2483
  874MOL0     H15357   8.982   1.205   8.209  3.4539 -0.1023  3.8924
  874MOL0     H15358   9.135   1.091   8.567 -0.4583 -1.9766  0.5820
  874MOL0     H15359   9.055   1.217   8.475 -0.1219 -1.1230  3.2126
  874MOL0     H15360   9.205   1.164   8.273  1.9747  0.1875 -0.3881
  874MOL0     H15361   9.296   1.215   8.403 -0.8178  1.5350 -0.4352
  874MOL0     H15362   9.392   1.027   8.277  2.3025 -1.4316  2.3935
  874MOL0     H15363   9.263   0.909   8.321  2.8144 -3.2613  1.6449
  874MOL0     H15364   9.449   1.056   8.526  0.5663  1.1676 -2.5316
  874MOL0     H15365   9.320   0.939   8.556 -2.4347 -1.5189 -2.5495
  874MOL0     H15366   9.681   0.733   8.429  0.8617 -0.6513  1.9615
  874MOL0     H15367   8.947   0.799   8.352 -0.9201 -1.6844 -0.5201
  874MOL0     H15368   8.860   0.731   8.124 -5.1602  2.0893 -1.9963
  875MOL0     O15369  10.801  10.227   4.817  0.2572 -0.2797 -0.1351
  875MOL0     C15370  10.866  10.261   4.915 -1.1876 -1.2356 -0.0186
  875MOL0     O15371  10.827  10.352   5.003  0.3092 -0.4445 -0.1710
  875MOL0     C15372  10.702  10.401   4.977  1.5149  0.1401 -0.8403
  875MOL0     C15373  10.590  10.325   5.025  0.6839 -0.0432  0.9981
  875MOL0     C15374  10.463  10.387   5.015 -0.0766 -0.9541  0.5812
  875MOL0     C15375  10.454  10.516   4.953  0.4464 -0.8477 -0.3392
  875MOL0     O15376  10.338  10.585   4.957 -1.1035  0.3260 -0.1781
  875MOL0     C15377  10.237  10.536   4.864 -0.4185  0.7615 -0.1619
  875MOL0     C15378  10.213  10.639   4.754  0.3629 -1.3884 -0.3000
  875MOL0     C15379  10.194  10.781   4.806 -0.5721  0.2887 -0.1294
  875MOL0     C15380  10.150  10.883   4.695 -0.8703  0.0969  0.6317
  875MOL0     C15381  10.150  11.019   4.739 -0.5651 -0.1480 -0.5361
  875MOL0     C15382  10.033  11.051   4.841  0.4062  0.0516 -0.6532
  875MOL0     C15383  10.022  11.198   4.872  0.0247 -0.8641  0.0360
  875MOL0     C15384   9.894  11.228   4.946 -1.2546  0.3212 -0.7956
  875MOL0     N15385   9.914  11.169   5.081  0.3843  0.1931 -0.2636
  875MOL0     C15386   9.958  11.245   5.188  0.5682  0.5174  0.4112
  875MOL0     C15387   9.943  11.165   5.296  0.9104  0.1149 -0.4738
  875MOL0     C15388   9.980  11.196   5.447  0.8702  0.5292 -0.1116
  875MOL0     C15389   9.874  11.234   5.549  0.2017  0.0685  0.5551
  875MOL0     C15390   9.773  11.109   5.570 -0.7815 -0.8152 -0.3413
  875MOL0     C15391   9.756  11.061   5.716  0.6660  0.9086 -1.2373
  875MOL0     O15392   9.711  11.167   5.799 -0.0252 -0.0063 -0.1287
  875MOL0     C15393   9.718  11.143   5.939  0.1018 -0.9523 -0.2086
  875MOL0     C15394   9.595  11.145   6.019 -1.3004  0.5308  0.5820
  875MOL0     C15395   9.599  11.122   6.156 -0.4835 -0.3370  0.3854
  875MOL0     C15396   9.724  11.106   6.225  0.5166  0.3571 -0.3045
  875MOL0     C15397   9.733  11.084   6.366 -0.6409  0.5427 -0.6790
  875MOL0     O15398   9.632  11.118   6.445  0.9800  0.5096  0.6731
  875MOL0     C15399   9.639  11.129   6.579 -0.2856  0.4128 -0.7175
  875MOL0     C15400   9.671  11.027   6.674 -0.5049  0.2519  0.5999
  875MOL0     C15401   9.651  11.032   6.816 -0.3244 -0.3313 -0.6868
  875MOL0     C15402   9.601  11.156   6.874 -0.0966  0.3197 -0.0590
  875MOL0     O15403   9.598  11.176   7.015  0.2094  0.4400  1.6675
  875MOL0     C15404   9.594  11.310   7.052  0.0777  0.4512  0.0962
  875MOL0     C15405   9.609  11.340   7.195  0.4857  0.4610 -0.7844
  875MOL0     C15406   9.463  11.335   7.260 -0.6377  0.0993  1.2942
  875MOL0     C15407   9.457  11.380   7.406 -0.7670  0.3242 -0.3877
  875MOL0     C15408   9.309  11.368   7.466 -0.0109 -0.1454 -0.3343
  875MOL0     C15409   9.303  11.461   7.578 -0.7038  0.4349 -0.1198
  875MOL0     C15410   9.152  11.444   7.638 -0.2198  0.3323  0.3457
  875MOL0     C15411   9.126  11.496   7.770 -0.5953 -0.8382  0.7039
  875MOL0    Cl15412   9.161  11.672   7.784  0.3634 -0.5638 -0.0876
  875MOL0     C15413   9.560  11.255   6.774 -0.5882  0.2310  0.4623
  875MOL0     C15414   9.575  11.240   6.636 -1.4100  0.7600 -0.7325
  875MOL0     O15415   9.838  11.044   6.416  0.7057 -0.1225 -1.0502
  875MOL0     C15416   9.839  11.119   6.143  0.2745  0.5562 -0.2951
  875MOL0     C15417   9.839  11.137   6.010  0.1811  0.4664 -0.4156
  875MOL0     N15418   9.878  11.052   5.257  0.6002  0.1089 -0.7050
  875MOL0     N15419   9.872  11.052   5.124  0.6530  0.0010 -0.1801
  875MOL0     C15420  10.564  10.581   4.902 -0.1497  0.1525  0.6717
  875MOL0     C15421  10.690  10.520   4.913  0.5303  0.0229 -0.3752
  875MOL0     C15422  11.014  10.202   4.912  0.2277 -0.2759 -0.2843
  875MOL0     C15423  11.050  10.134   4.795 -1.1206  0.0018  0.2014
  875MOL0     C15424  11.181  10.106   4.772  1.3168 -0.5761 -0.9431
  875MOL0     C15425  11.275  10.140   4.870 -0.5155 -0.1245 -0.3950
  875MOL0     O15426  11.407  10.128   4.840 -0.3605  0.0670  0.4643
  875MOL0     C15427  11.464  10.001   4.864 -0.5059 -0.1484 -0.1552
  875MOL0     C15428  11.480   9.913   4.737 -0.0776 -0.0350 -0.0780
  875MOL0     C15429  11.511   9.767   4.759 -0.5072  0.1452  0.3510
  875MOL0     C15430  11.615   9.726   4.661  0.0243  0.5272 -0.3720
  875MOL0     C15431  11.563   9.745   4.525 -1.5528 -0.4791 -1.0039
  875MOL0     C15432  11.536   9.761   4.411  0.8620  0.1672  0.6685
  875MOL0     C15433  11.240  10.186   4.988 -0.3363 -0.1011 -0.4191
  875MOL0     C15434  11.111  10.223   5.014 -0.1353 -0.4552  0.7286
  875MOL0     H15435  10.618  10.233   5.075  3.7388 -0.2892 -0.9135
  875MOL0     H15436  10.374  10.344   5.059 -0.3902 -0.8290  0.0854
  875MOL0     H15437  10.145  10.492   4.903 -0.7865  2.8942  1.5556
  875MOL0     H15438  10.278  10.452   4.808 -2.5215  0.1071 -0.8345
  875MOL0     H15439  10.120  10.610   4.704 -0.1507  0.4779 -0.4692
  875MOL0     H15440  10.294  10.639   4.680  0.5206  2.9205 -0.3592
  875MOL0     H15441  10.283  10.818   4.858 -2.9784  4.2345  1.6154
  875MOL0     H15442  10.124  10.772   4.890 -0.0184  0.7917  0.3888
  875MOL0     H15443  10.226  10.889   4.616  0.4908  0.8632  1.9453
  875MOL0     H15444  10.048  10.858   4.663 -0.8419 -2.0682  2.0242
  875MOL0     H15445  10.143  11.087   4.653 -0.2958  2.4222  1.3343
  875MOL0     H15446  10.246  11.038   4.787 -0.2239 -1.4785 -0.6533
  875MOL0     H15447  10.054  10.997   4.934 -0.3221 -0.5610 -0.8388
  875MOL0     H15448   9.936  11.012   4.811  1.1522 -2.3321 -0.1918
  875MOL0     H15449  10.109  11.241   4.923 -1.4810 -1.3563  3.2759
  875MOL0     H15450  10.002  11.252   4.779  0.7267 -1.1140 -0.2713
  875MOL0     H15451   9.807  11.189   4.892 -1.3957  0.3998 -0.6249
  875MOL0     H15452   9.889  11.337   4.957 -2.7021  0.1646  0.3678
  875MOL0     H15453  10.016  11.334   5.172  1.1423  0.1859  0.6284
  875MOL0     H15454  10.052  11.276   5.433 -0.4390  1.7033 -0.3462
  875MOL0     H15455  10.022  11.107   5.496 -1.2590  0.7880  2.4001
  875MOL0     H15456   9.824  11.318   5.499  1.1728 -1.5532 -3.5242
  875MOL0     H15457   9.936  11.271   5.631  0.3951  4.3386 -1.2295
  875MOL0     H15458   9.677  11.151   5.538 -0.3907  2.4286  2.2781
  875MOL0     H15459   9.797  11.024   5.506  4.9327 -0.2585  0.5603
  875MOL0     H15460   9.857  11.028   5.742  0.6223  0.0184 -2.1265
  875MOL0     H15461   9.682  10.980   5.724 -1.4883  2.9571  2.7967
  875MOL0     H15462   9.506  11.177   5.965  1.3432  2.6798 -3.0183
  875MOL0     H15463   9.505  11.113   6.210 -1.8424 -3.4363 -2.1495
  875MOL0     H15464   9.712  10.936   6.632 -0.6466  0.9020 -1.0385
  875MOL0     H15465   9.671  10.954   6.889  1.8081  2.8950  2.4849
  875MOL0     H15466   9.504  11.359   7.014  0.4637 -1.6173 -4.1839
  875MOL0     H15467   9.666  11.363   6.989 -1.2828  1.1036 -0.9609
  875MOL0     H15468   9.654  11.438   7.211 -0.0337  0.3205  2.0879
  875MOL0     H15469   9.676  11.272   7.249 -0.1120  0.6642  0.2336
  875MOL0     H15470   9.418  11.236   7.251  0.9214 -0.5652  0.4090
  875MOL0     H15471   9.418  11.416   7.202  2.2878 -0.1530 -1.5902
  875MOL0     H15472   9.528  11.323   7.466 -1.5277  0.4316  0.6463
  875MOL0     H15473   9.487  11.484   7.411 -0.1919  0.0863  1.8899
  875MOL0     H15474   9.285  11.265   7.492  0.2040 -0.9575 -3.0786
  875MOL0     H15475   9.239  11.407   7.391  0.2470  0.4801 -0.2574
  875MOL0     H15476   9.314  11.566   7.551 -0.1884  1.2575  2.8912
  875MOL0     H15477   9.370  11.430   7.659  1.0607  1.3924 -1.1637
  875MOL0     H15478   9.087  11.498   7.569  0.2492  1.7374  0.9631
  875MOL0     H15479   9.128  11.337   7.632  1.1944  0.0748 -2.5043
  875MOL0     H15480   9.200  11.461   7.843 -0.7443  1.8620  2.3193
  875MOL0     H15481   9.020  11.479   7.788 -1.5582  0.1779 -3.0459
  875MOL0     H15482   9.536  11.357   6.804 -1.1122 -0.1124  1.2695
  875MOL0     H15483   9.544  11.325   6.576 -1.1734  2.0305  0.8607
  875MOL0     H15484   9.935  11.111   6.194 -0.1352  0.1225  0.4225
  875MOL0     H15485   9.931  11.139   5.953 -0.2537 -0.2183 -1.1575
  875MOL0     H15486  10.538  10.680   4.867 -0.8969 -1.0263 -2.4338
  875MOL0     H15487  10.785  10.555   4.874  1.0445 -1.2768 -0.3443
  875MOL0     H15488  10.981  10.119   4.712 -0.7498  3.5621 -0.9320
  875MOL0     H15489  11.201  10.063   4.674  2.5287 -0.9950 -0.5211
  875MOL0     H15490  11.399   9.955   4.938 -0.5817 -1.1997 -0.8457
  875MOL0     H15491  11.563  10.009   4.909 -0.4301 -1.0532 -0.1523
  875MOL0     H15492  11.381   9.916   4.690  0.5375  0.2542 -1.4116
  875MOL0     H15493  11.558   9.958   4.674 -0.4270 -2.0196 -2.0333
  875MOL0     H15494  11.420   9.707   4.761 -1.6555  1.8560  0.6194
  875MOL0     H15495  11.561   9.766   4.857  1.9209  0.1047 -0.8220
  875MOL0     H15496  11.702   9.790   4.679  0.1835 -0.6557  4.4993
  875MOL0     H15497  11.644   9.622   4.679 -1.8244  0.1469  0.6527
  875MOL0     H15498  11.522   9.776   4.306 -0.4011 -3.8103  0.1007
  875MOL0     H15499  11.319  10.216   5.056 -0.2771 -1.6291  0.2198
  875MOL0     H15500  11.079  10.275   5.103  1.4555  2.2863 -0.1779
  876MOL0     O15501   5.138   0.989   1.582 -0.0474 -0.1442 -0.6619
  876MOL0     C15502   5.108   1.102   1.547 -0.7451 -0.4295  0.5927
  876MOL0     O15503   5.022   1.124   1.449  0.3707 -0.7992  0.1693
  876MOL0     C15504   4.985   1.026   1.358  0.5321 -0.5366  0.4202
  876MOL0     C15505   4.847   1.042   1.324 -0.2886 -0.0086  0.5160
  876MOL0     C15506   4.798   0.965   1.217 -0.4494  0.1928  0.5697
  876MOL0     C15507   4.880   0.859   1.172  0.0908 -0.0320  0.4051
  876MOL0     O15508   4.841   0.766   1.080 -0.5097 -0.0473  0.3010
  876MOL0     C15509   4.799   0.832   0.955 -0.2275 -0.1034  0.1655
  876MOL0     C15510   4.835   0.753   0.829  0.6495  0.0971 -0.2105
  876MOL0     C15511   4.774   0.800   0.704  0.2822 -0.2987  0.3657
  876MOL0     C15512   4.800   0.699   0.588 -0.9154  0.6417  0.2801
  876MOL0     C15513   4.731   0.730   0.462 -0.5148 -0.0963  0.4106
  876MOL0     C15514   4.792   0.854   0.390 -0.2774  0.6496  0.1355
  876MOL0     C15515   4.786   0.831   0.243  0.3447  0.0563  0.1386
  876MOL0     C15516   4.836   0.950   0.161 -1.1616  0.0737 -1.5906
  876MOL0     N15517   4.856   0.925   0.016  0.3036  0.6299  0.8756
  876MOL0     C15518   4.772   0.846  -0.053 -0.4537 -0.4147 -0.4617
  876MOL0     C15519   4.804   0.866  -0.179 -0.1054  0.1134 -0.3731
  876MOL0     C15520   4.734   0.810  -0.296 -0.3419 -1.3651 -0.0951
  876MOL0     C15521   4.786   0.679  -0.343  0.0054 -0.6939 -0.3697
  876MOL0     C15522   4.723   0.621  -0.465 -0.6321  0.1034 -0.3978
  876MOL0     C15523   4.780   0.688  -0.600  0.1796  0.5418 -1.1829
  876MOL0     O15524   4.923   0.661  -0.602  0.0363 -0.0615 -0.5087
  876MOL0     C15525   4.982   0.566  -0.690 -0.5159  0.1616 -0.7451
  876MOL0     C15526   4.911   0.445  -0.738 -0.3421 -0.2899 -0.0633
  876MOL0     C15527   4.971   0.363  -0.823 -0.2127  0.2030  0.7874
  876MOL0     C15528   5.107   0.368  -0.862  0.2700 -0.8340 -0.4403
  876MOL0     C15529   5.170   0.276  -0.965  0.5168  0.8803 -0.6843
  876MOL0     O15530   5.294   0.304  -1.021 -0.6083 -0.2348 -0.2334
  876MOL0     C15531   5.312   0.269  -1.147  0.6844  0.3626 -0.0422
  876MOL0     C15532   5.389   0.157  -1.183 -0.0363  0.0981  0.0377
  876MOL0     C15533   5.421   0.134  -1.319 -1.2795 -0.8313 -0.1107
  876MOL0     C15534   5.379   0.218  -1.421  0.0141  0.7000  0.8364
  876MOL0     O15535   5.405   0.191  -1.557 -0.0095  0.3949 -0.0372
  876MOL0     C15536   5.349   0.282  -1.653 -0.1284  0.8223  0.3007
  876MOL0     C15537   5.373   0.259  -1.799  0.4089 -0.1324  1.1530
  876MOL0     C15538   5.282   0.349  -1.881 -0.5159 -0.4183 -0.3626
  876MOL0     C15539   5.325   0.498  -1.874  0.2998  0.6110 -0.5561
  876MOL0     C15540   5.297   0.562  -2.007  0.4042  0.2572  0.3493
  876MOL0     C15541   5.134   0.569  -2.025 -0.2302  0.7776  0.5769
  876MOL0     C15542   5.104   0.658  -2.145 -0.5709  0.7039  0.1843
  876MOL0     C15543   4.956   0.675  -2.161 -0.0272  0.7147  0.4324
  876MOL0    Cl15544   4.882   0.753  -2.020 -0.2436 -0.4840 -0.0615
  876MOL0     C15545   5.291   0.324  -1.379  0.1490 -0.9264 -0.0663
  876MOL0     C15546   5.254   0.348  -1.248  0.2478 -0.1664  1.0224
  876MOL0     O15547   5.088   0.192  -1.010  0.0313 -0.9696  0.3734
  876MOL0     C15548   5.177   0.475  -0.805 -0.8598 -0.3229 -0.8862
  876MOL0     C15549   5.121   0.573  -0.723  0.3562  0.5662 -1.0769
  876MOL0     N15550   4.906   0.950  -0.186  0.8927 -1.3635  0.1891
  876MOL0     N15551   4.934   0.999  -0.068  0.3869 -0.1597  0.1663
  876MOL0     C15552   5.014   0.839   1.213 -0.2989  0.1259 -0.5831
  876MOL0     C15553   5.061   0.923   1.307  0.3487  0.6777 -0.2102
  876MOL0     C15554   5.164   1.229   1.612 -0.1910  0.2188 -0.9492
  876MOL0     C15555   5.233   1.226   1.726 -1.3839 -0.0000 -0.3728
  876MOL0     C15556   5.275   1.342   1.790 -0.5633  0.4805  1.2098
  876MOL0     C15557   5.237   1.470   1.739  0.6297 -0.1869 -0.0102
  876MOL0     O15558   5.298   1.568   1.805  0.2514  0.0342 -0.4569
  876MOL0     C15559   5.361   1.667   1.725  0.5084  0.0764 -0.3631
  876MOL0     C15560   5.402   1.790   1.815 -0.0400  0.2114  0.7850
  876MOL0     C15561   5.450   1.900   1.724 -1.0277  0.1649  1.0449
  876MOL0     C15562   5.533   2.000   1.803 -0.1569 -0.2470 -1.1145
  876MOL0     C15563   5.603   2.107   1.729 -0.1474 -0.5216  0.1606
  876MOL0     C15564   5.667   2.188   1.666 -0.0059 -0.1307  0.9991
  876MOL0     C15565   5.173   1.478   1.618 -0.2838 -0.3461 -0.8231
  876MOL0     C15566   5.127   1.361   1.559 -0.8192 -0.1963  0.4649
  876MOL0     H15567   4.793   1.126   1.368  3.2120  2.8035 -0.0228
  876MOL0     H15568   4.692   0.974   1.194 -0.4583  0.7756  0.8326
  876MOL0     H15569   4.857   0.922   0.936  2.7753 -1.5182  1.9244
  876MOL0     H15570   4.691   0.845   0.951 -1.2186 -5.8531 -1.2761
  876MOL0     H15571   4.805   0.649   0.846  1.1098 -0.0190 -0.0839
  876MOL0     H15572   4.944   0.760   0.829  0.5897  1.2219 -0.3091
  876MOL0     H15573   4.826   0.894   0.686 -1.5559  0.7082  0.0877
  876MOL0     H15574   4.667   0.824   0.707 -0.2813 -2.2875 -1.2614
  876MOL0     H15575   4.906   0.697   0.561 -1.5633  2.4789 -2.8031
  876MOL0     H15576   4.764   0.600   0.616  2.7130 -0.3279  2.2208
  876MOL0     H15577   4.626   0.745   0.490 -0.4055 -0.7738  1.2207
  876MOL0     H15578   4.736   0.641   0.399  1.8623  2.4322 -3.4388
  876MOL0     H15579   4.893   0.876   0.426 -0.3155 -2.9724  3.0620
  876MOL0     H15580   4.731   0.945   0.394 -1.5624 -0.1286 -0.9011
  876MOL0     H15581   4.843   0.741   0.218  3.2335  1.4653  1.1541
  876MOL0     H15582   4.684   0.812   0.208  0.9818  1.6148 -2.9445
  876MOL0     H15583   4.929   0.994   0.197 -0.0581 -1.1837 -2.7457
  876MOL0     H15584   4.765   1.029   0.185  1.3051  1.3056  2.7706
  876MOL0     H15585   4.686   0.790  -0.017 -0.1011  0.1619  1.3931
  876MOL0     H15586   4.755   0.869  -0.385  0.0870 -2.9013 -1.0542
  876MOL0     H15587   4.626   0.805  -0.280 -0.4621 -0.3229 -0.5031
  876MOL0     H15588   4.754   0.623  -0.255  0.8461 -1.8229 -0.7667
  876MOL0     H15589   4.895   0.668  -0.352 -0.2941 -2.5625 -2.7674
  876MOL0     H15590   4.720   0.512  -0.478  0.4642  0.3170 -2.9415
  876MOL0     H15591   4.616   0.643  -0.461 -1.3960 -3.0273 -0.8177
  876MOL0     H15592   4.773   0.797  -0.594  3.1742  0.9152 -2.5422
  876MOL0     H15593   4.713   0.654  -0.679 -2.3835 -0.4642  1.2557
  876MOL0     H15594   4.810   0.420  -0.708  0.7375 -1.7131  2.6874
  876MOL0     H15595   4.899   0.291  -0.862 -1.1377  1.6568 -0.2575
  876MOL0     H15596   5.442   0.119  -1.096 -1.5256 -1.5348  0.2948
  876MOL0     H15597   5.494   0.059  -1.347 -0.5228  0.3817 -1.5494
  876MOL0     H15598   5.408   0.371  -1.628  0.0079  0.5535  0.9580
  876MOL0     H15599   5.242   0.295  -1.631 -0.3092 -0.6721  0.3736
  876MOL0     H15600   5.346   0.157  -1.828  1.9155  0.2556 -2.0419
  876MOL0     H15601   5.473   0.277  -1.839 -0.9218  1.3152 -1.7689
  876MOL0     H15602   5.175   0.342  -1.860 -0.9522 -0.0328 -2.2406
  876MOL0     H15603   5.283   0.309  -1.983 -1.1200  1.4485 -1.1606
  876MOL0     H15604   5.268   0.560  -1.805 -0.3777  0.4912 -0.9940
  876MOL0     H15605   5.429   0.507  -1.842  0.7189 -2.5724 -0.6444
  876MOL0     H15606   5.336   0.502  -2.090 -0.8089  0.4408 -0.3884
  876MOL0     H15607   5.331   0.665  -1.991 -0.7154  0.8804 -1.0698
  876MOL0     H15608   5.098   0.615  -1.933 -2.5359 -2.9278  1.7311
  876MOL0     H15609   5.095   0.467  -2.038  0.3178  0.9809 -5.3100
  876MOL0     H15610   5.151   0.756  -2.133  0.1693  0.7397 -2.4301
  876MOL0     H15611   5.143   0.624  -2.241  4.0936  3.6149  0.7598
  876MOL0     H15612   4.917   0.575  -2.184  1.8426  0.1791 -0.6886
  876MOL0     H15613   4.938   0.741  -2.247 -1.4846 -1.2529 -0.8800
  876MOL0     H15614   5.239   0.387  -1.450  2.1581 -1.9876 -2.6712
  876MOL0     H15615   5.197   0.437  -1.226 -2.6195 -0.6265 -3.3094
  876MOL0     H15616   5.283   0.495  -0.821 -0.4961  1.6888  2.8444
  876MOL0     H15617   5.180   0.653  -0.677  0.0536 -0.0266  0.4105
  876MOL0     H15618   5.054   0.741   1.189 -0.7209  0.7389 -4.6220
  876MOL0     H15619   5.161   0.910   1.347  1.0689  0.3198 -2.0179
  876MOL0     H15620   5.266   1.130   1.762  3.4571  1.2539 -0.7617
  876MOL0     H15621   5.334   1.329   1.881  1.2568  2.0796  0.3106
  876MOL0     H15622   5.283   1.703   1.656 -1.2422 -1.1953  0.8667
  876MOL0     H15623   5.454   1.641   1.674  0.0545 -3.3372  0.3327
  876MOL0     H15624   5.315   1.829   1.869 -0.4246  1.2263 -0.5064
  876MOL0     H15625   5.482   1.759   1.883 -0.6245 -1.4210  0.7779
  876MOL0     H15626   5.367   1.946   1.669 -2.0907 -1.3046  1.3378
  876MOL0     H15627   5.514   1.857   1.647 -0.1530 -0.1606  1.9382
  876MOL0     H15628   5.464   2.049   1.873  0.0434  1.1472 -1.8561
  876MOL0     H15629   5.601   1.937   1.860  0.5583 -0.6586 -2.3875
  876MOL0     H15630   5.731   2.256   1.615  0.6632 -2.7348 -1.9507
  876MOL0     H15631   5.167   1.579   1.579  0.8612  1.1981  2.5902
  876MOL0     H15632   5.062   1.375   1.474 -1.5719 -1.1052  0.8682
  877MOL0     O15633  10.055   0.419   0.639 -0.7058  0.0549 -0.1896
  877MOL0     C15634  10.050   0.315   0.570  0.7599  0.0243 -0.4095
  877MOL0     O15635  10.129   0.209   0.591 -0.5218  0.1076 -0.2436
  877MOL0     C15636  10.202   0.191   0.705 -0.9242  0.7119 -0.1249
  877MOL0     C15637  10.151   0.171   0.832  0.1359  0.1063  0.8352
  877MOL0     C15638  10.231   0.144   0.944 -0.4808  1.0009 -0.4619
  877MOL0     C15639  10.369   0.160   0.936  0.0603  1.0088 -0.0313
  877MOL0     O15640  10.430   0.163   1.063 -0.5444  0.3617 -0.1979
  877MOL0     C15641  10.544   0.241   1.077  0.5914 -0.3412  0.7727
  877MOL0     C15642  10.624   0.185   1.205  0.1693 -0.2262 -0.6066
  877MOL0     C15643  10.737   0.274   1.250 -0.6599 -0.4085 -0.0434
  877MOL0     C15644  10.794   0.244   1.385 -0.9096 -0.2753 -0.6117
  877MOL0     C15645  10.898   0.342   1.411  0.2856 -1.0162 -1.3214
  877MOL0     C15646  10.934   0.331   1.562  0.3024 -0.7611 -0.6627
  877MOL0     C15647  11.055   0.419   1.597  0.1029 -0.3553  0.9785
  877MOL0     C15648  11.187   0.364   1.530 -0.8845 -0.8408 -0.1964
  877MOL0     N15649  11.304   0.442   1.566 -0.1541  0.7308 -0.8400
  877MOL0     C15650  11.346   0.573   1.529 -0.0059  0.6342 -0.4299
  877MOL0     C15651  11.459   0.595   1.605 -0.4285  0.5263  1.0058
  877MOL0     C15652  11.548   0.711   1.611  0.3534 -0.9142  0.5725
  877MOL0     C15653  11.619   0.697   1.743  0.7717  0.2868 -0.4559
  877MOL0     C15654  11.706   0.817   1.771 -0.0623 -0.1494 -0.0185
  877MOL0     C15655  11.780   0.817   1.908 -0.1905 -0.0814 -0.1378
  877MOL0     O15656  11.832   0.948   1.922  0.0822  0.1059  0.7825
  877MOL0     C15657  11.966   0.961   1.934  0.2235  0.6632 -0.0591
  877MOL0     C15658  12.037   0.939   2.059  0.7014  0.4882 -0.1922
  877MOL0     C15659  12.171   0.973   2.072 -0.0567 -0.3115  0.1870
  877MOL0     C15660  12.246   1.006   1.948  0.6254 -1.4173 -0.4471
  877MOL0     C15661  12.387   1.044   1.965  0.4193  0.9511  0.8319
  877MOL0     O15662  12.459   1.043   1.854  0.1357  0.1820  0.3143
  877MOL0     C15663  12.589   1.089   1.845  0.0076  0.1825  0.1061
  877MOL0     C15664  12.650   1.042   1.721 -0.3968  0.0911 -0.5910
  877MOL0     C15665  12.789   1.051   1.706  0.1820  0.9747 -0.0247
  877MOL0     C15666  12.867   1.113   1.799 -1.3570  0.1702  0.0288
  877MOL0     O15667  12.998   1.131   1.786  0.2526 -0.1258 -0.0008
  877MOL0     C15668  13.053   1.133   1.657  0.3635 -0.1927 -0.1032
  877MOL0     C15669  13.203   1.165   1.669  0.6776 -0.4075  0.2320
  877MOL0     C15670  13.219   1.310   1.711  0.0838  0.1563 -0.3422
  877MOL0     C15671  13.368   1.348   1.703 -0.5132 -0.8212 -0.5507
  877MOL0     C15672  13.391   1.490   1.752 -0.5454 -0.3693  1.3336
  877MOL0     C15673  13.300   1.599   1.698  0.0218 -0.4287  0.5969
  877MOL0     C15674  13.341   1.741   1.736  0.0930 -0.5090  0.0413
  877MOL0     C15675  13.270   1.856   1.658 -0.4273 -0.7565 -0.6996
  877MOL0    Cl15676  13.186   1.794   1.503  0.2058  0.1619 -0.2170
  877MOL0     C15677  12.800   1.160   1.917 -0.3798 -0.5462  0.3082
  877MOL0     C15678  12.668   1.152   1.940 -0.0978  0.2998  0.0393
  877MOL0     O15679  12.423   1.084   2.077 -0.1764 -0.3859  0.2419
  877MOL0     C15680  12.176   1.026   1.824 -0.3362 -0.2958  0.0003
  877MOL0     C15681  12.039   1.008   1.821  0.2303 -0.3238  0.1012
  877MOL0     N15682  11.473   0.482   1.684 -0.7695  0.6471 -0.5401
  877MOL0     N15683  11.376   0.395   1.664  0.1179  0.3652 -0.3702
  877MOL0     C15684  10.426   0.180   0.810 -1.0377 -0.4632  0.2708
  877MOL0     C15685  10.338   0.198   0.696  0.0952 -0.2152 -0.3318
  877MOL0     C15686   9.968   0.318   0.450 -0.2980 -0.2850 -0.3386
  877MOL0     C15687   9.865   0.415   0.424  0.4722  0.8318  0.9499
  877MOL0     C15688   9.778   0.386   0.315 -0.3567  0.5270  0.4293
  877MOL0     C15689   9.809   0.292   0.218  0.2664 -0.2426 -0.1746
  877MOL0     O15690   9.720   0.289   0.111 -0.1429 -0.2622  0.1267
  877MOL0     C15691   9.729   0.186   0.013 -0.3597 -0.1414 -0.4788
  877MOL0     C15692   9.821   0.213  -0.102 -0.8308 -0.7959 -0.8500
  877MOL0     C15693   9.766   0.319  -0.201  1.4656 -0.3328 -0.3056
  877MOL0     C15694   9.651   0.269  -0.292  0.8601 -0.0961  0.1858
  877MOL0     C15695   9.605   0.353  -0.400 -0.6793 -0.0913  0.3709
  877MOL0     C15696   9.591   0.424  -0.498  1.6259  0.5006  0.2538
  877MOL0     C15697   9.922   0.214   0.231 -0.0095  0.2506 -0.4735
  877MOL0     C15698   9.999   0.221   0.353  1.3263 -0.4438 -0.3305
  877MOL0     H15699  10.043   0.164   0.842 -0.4857  4.1190 -0.9937
  877MOL0     H15700  10.204   0.121   1.046  0.0001 -1.0523 -0.7349
  877MOL0     H15701  10.500   0.340   1.092  0.3460  0.0924 -2.1542
  877MOL0     H15702  10.604   0.241   0.985  1.2015 -3.8873  1.0093
  877MOL0     H15703  10.664   0.085   1.187 -1.6536 -0.9022 -1.1146
  877MOL0     H15704  10.554   0.164   1.286  0.4398  2.0200  0.2908
  877MOL0     H15705  10.694   0.374   1.263  0.9874  0.2408  0.7695
  877MOL0     H15706  10.818   0.281   1.177 -0.1964 -0.4811  0.4536
  877MOL0     H15707  10.719   0.244   1.465 -0.8849  4.4019 -0.3366
  877MOL0     H15708  10.835   0.143   1.387 -1.5319 -0.5239  1.3325
  877MOL0     H15709  10.845   0.434   1.386 -3.2125 -2.5143 -0.0387
  877MOL0     H15710  10.989   0.334   1.350  1.1020 -0.6722 -0.1932
  877MOL0     H15711  10.955   0.235   1.609  2.4569  0.5788  1.3788
  877MOL0     H15712  10.849   0.367   1.621  0.3093 -1.9732  0.1189
  877MOL0     H15713  11.031   0.516   1.552  3.4008 -1.1392 -3.0890
  877MOL0     H15714  11.055   0.409   1.706  0.7608 -0.8412  0.9362
  877MOL0     H15715  11.184   0.368   1.420  1.2023 -0.1237 -0.2767
  877MOL0     H15716  11.201   0.263   1.570  3.8202 -0.4377 -0.3188
  877MOL0     H15717  11.290   0.648   1.475  0.2145  1.4702  0.4767
  877MOL0     H15718  11.488   0.802   1.606 -0.0687 -1.2295 -0.2740
  877MOL0     H15719  11.625   0.705   1.533  1.3163  3.4475  0.9834
  877MOL0     H15720  11.668   0.602   1.765  0.1865  0.1425  0.2490
  877MOL0     H15721  11.538   0.707   1.816 -1.3967  3.6862 -3.0494
  877MOL0     H15722  11.785   0.826   1.695  0.5417  2.3266  0.7881
  877MOL0     H15723  11.636   0.901   1.775 -1.9729 -1.6838 -0.1697
  877MOL0     H15724  11.864   0.749   1.891  2.6254  2.0758  3.6538
  877MOL0     H15725  11.735   0.779   2.000  0.7201  1.3867  0.9563
  877MOL0     H15726  11.974   0.908   2.142 -1.0933  1.0293 -1.2943
  877MOL0     H15727  12.220   0.966   2.169 -0.6898 -2.5360  0.4038
  877MOL0     H15728  12.581   0.995   1.651 -1.8671 -1.3496  1.6818
  877MOL0     H15729  12.820   0.994   1.618  4.3277  3.2388 -0.2459
  877MOL0     H15730  13.008   1.206   1.590  1.6797 -1.3432 -2.3786
  877MOL0     H15731  13.044   1.035   1.610  1.7729 -1.6684  2.4180
  877MOL0     H15732  13.254   1.153   1.573 -0.6209  1.0505 -0.6918
  877MOL0     H15733  13.253   1.098   1.740  2.5225  0.2080 -0.4259
  877MOL0     H15734  13.180   1.331   1.811 -1.7233 -0.3835 -0.9004
  877MOL0     H15735  13.165   1.378   1.644 -2.3828  0.4215  1.7788
  877MOL0     H15736  13.437   1.285   1.760  1.5085  2.2504  0.6411
  877MOL0     H15737  13.397   1.334   1.598  3.2091  1.4054 -0.0077
  877MOL0     H15738  13.492   1.514   1.720 -2.1412  1.9626 -2.7050
  877MOL0     H15739  13.387   1.504   1.860 -0.2516  0.2535  1.2655
  877MOL0     H15740  13.193   1.588   1.717 -0.2363  0.6913 -0.0735
  877MOL0     H15741  13.307   1.585   1.590 -1.0614 -3.8847  0.8570
  877MOL0     H15742  13.323   1.770   1.840 -2.2154 -0.3424 -0.3575
  877MOL0     H15743  13.448   1.744   1.714 -0.3507  0.6930 -2.3324
  877MOL0     H15744  13.342   1.937   1.644  0.7290 -2.1669 -3.7119
  877MOL0     H15745  13.186   1.886   1.721 -1.1836  0.3267 -2.1604
  877MOL0     H15746  12.870   1.195   1.992  2.1009 -0.2154 -1.9989
  877MOL0     H15747  12.632   1.184   2.038  0.9402  2.0631 -0.1064
  877MOL0     H15748  12.242   1.053   1.742  1.1095  1.2662  1.5718
  877MOL0     H15749  11.983   1.020   1.729 -1.6442  1.2463  1.3658
  877MOL0     H15750  10.535   0.180   0.809 -1.0106  1.1324 -0.3621
  877MOL0     H15751  10.374   0.222   0.597  0.7878  0.0184 -0.0275
  877MOL0     H15752   9.835   0.484   0.502  3.4705 -1.1200  4.1081
  877MOL0     H15753   9.694   0.454   0.303 -1.1694 -0.8185 -2.4364
  877MOL0     H15754   9.626   0.170  -0.022 -0.6354  2.5779 -1.1443
  877MOL0     H15755   9.767   0.094   0.057 -0.8630  0.1400  0.5784
  877MOL0     H15756   9.912   0.259  -0.064 -1.6777  1.1650 -1.1117
  877MOL0     H15757   9.866   0.127  -0.153  1.4641  1.2191 -2.4670
  877MOL0     H15758   9.843   0.357  -0.269  0.7950 -0.3885 -1.1172
  877MOL0     H15759   9.725   0.401  -0.141 -0.1109 -2.3942  1.6055
  877MOL0     H15760   9.689   0.180  -0.343 -2.2149 -1.1110 -0.5732
  877MOL0     H15761   9.553   0.245  -0.249 -0.8083  0.7345 -2.8081
  877MOL0     H15762   9.587   0.487  -0.584  4.6996  1.7006  0.8720
  877MOL0     H15763   9.948   0.139   0.157 -1.2000  0.9437 -1.6266
  877MOL0     H15764  10.075   0.145   0.368 -0.9446 -2.6465  0.6126
  878MOL0     O15765   6.304   1.830   6.979  0.0928  0.3596  0.3837
  878MOL0     C15766   6.286   1.877   7.087  0.2997  0.2711  0.7817
  878MOL0     O15767   6.224   1.996   7.121 -0.4368 -0.3797  0.1209
  878MOL0     C15768   6.188   2.101   7.033 -0.6856 -0.4924  0.4151
  878MOL0     C15769   6.233   2.117   6.898  0.1638  0.2817  0.4623
  878MOL0     C15770   6.183   2.215   6.814  0.5491  0.0716 -0.2130
  878MOL0     C15771   6.092   2.302   6.864 -0.2787 -0.3725 -0.2609
  878MOL0     O15772   6.025   2.403   6.797  0.1303  0.0234  0.1736
  878MOL0     C15773   6.010   2.386   6.659  0.1790 -0.0989 -0.4239
  878MOL0     C15774   5.889   2.465   6.629  0.2326 -0.3714 -0.7523
  878MOL0     C15775   5.841   2.446   6.487 -1.0006  0.3322  1.0183
  878MOL0     C15776   5.710   2.535   6.469  0.7762 -1.1433  0.1617
  878MOL0     C15777   5.700   2.587   6.324 -0.1771  0.2692 -0.5267
  878MOL0     C15778   5.696   2.475   6.222  0.0072 -1.4531  0.4454
  878MOL0     C15779   5.661   2.536   6.080  0.8256  0.2554  0.1737
  878MOL0     C15780   5.676   2.431   5.964  0.2732  0.0433 -0.3433
  878MOL0     N15781   5.543   2.350   5.959 -0.2337 -0.6727 -0.5720
  878MOL0     C15782   5.416   2.399   5.979 -0.2025 -0.1048 -1.3506
  878MOL0     C15783   5.335   2.291   5.972  0.1584  0.9924 -0.0064
  878MOL0     C15784   5.180   2.297   6.001 -0.0475  0.5019  0.5125
  878MOL0     C15785   5.092   2.392   5.919  0.3658 -0.5337  1.0167
  878MOL0     C15786   5.119   2.543   5.941  0.1483  0.4918 -0.5802
  878MOL0     C15787   5.153   2.633   5.822 -0.1952 -0.6736  0.8725
  878MOL0     O15788   5.285   2.602   5.780 -0.5307 -0.8491  0.4104
  878MOL0     C15789   5.310   2.609   5.641 -0.1278 -0.3529  0.3110
  878MOL0     C15790   5.428   2.543   5.596  0.1674  0.4561  0.3508
  878MOL0     C15791   5.474   2.551   5.458 -0.5067  0.0699  0.0841
  878MOL0     C15792   5.400   2.625   5.368 -0.3191  0.7026  0.3949
  878MOL0     C15793   5.443   2.637   5.223 -0.2745 -0.6591 -0.2614
  878MOL0     O15794   5.349   2.688   5.141 -0.3614  0.2686 -0.5656
  878MOL0     C15795   5.373   2.722   5.008  0.3723  0.0294  0.1696
  878MOL0     C15796   5.280   2.825   4.961 -0.0968  0.4631  0.1531
  878MOL0     C15797   5.288   2.883   4.832  0.0628 -0.2726 -0.0600
  878MOL0     C15798   5.403   2.848   4.758 -0.4451 -0.0579 -0.4858
  878MOL0     O15799   5.425   2.914   4.642 -0.3520  0.2102  0.1514
  878MOL0     C15800   5.341   2.865   4.536  0.1790  0.4750  0.2837
  878MOL0     C15801   5.421   2.752   4.467 -0.9498 -0.4917  1.1498
  878MOL0     C15802   5.557   2.795   4.403  0.2947 -0.3736  0.2494
  878MOL0     C15803   5.638   2.693   4.324 -0.5648 -0.6176  0.4395
  878MOL0     C15804   5.775   2.764   4.261  0.0060 -0.5628  0.4691
  878MOL0     C15805   5.879   2.794   4.368 -0.1201 -0.2849  0.2118
  878MOL0     C15806   5.944   2.666   4.436 -0.6620  0.0949  0.3438
  878MOL0     C15807   6.085   2.630   4.380  1.0502 -0.0817  0.2765
  878MOL0    Cl15808   6.061   2.584   4.207 -0.1530 -0.1252  0.5265
  878MOL0     C15809   5.502   2.755   4.809  1.3221 -0.1720 -0.1961
  878MOL0     C15810   5.485   2.688   4.925 -0.1638 -0.7537  0.3480
  878MOL0     O15811   5.557   2.613   5.192  0.1572  0.8511 -0.5199
  878MOL0     C15812   5.287   2.685   5.416  0.2914 -0.7741  1.6433
  878MOL0     C15813   5.242   2.680   5.549  0.3682 -0.4589  0.2328
  878MOL0     N15814   5.414   2.181   5.958 -0.6054  0.3843  0.1992
  878MOL0     N15815   5.534   2.212   5.961 -0.0759  0.1368 -0.2167
  878MOL0     C15816   6.052   2.293   6.994 -0.9499 -0.1060  0.4561
  878MOL0     C15817   6.089   2.190   7.074  0.4007  0.1687 -0.3904
  878MOL0     C15818   6.333   1.792   7.195 -0.9097 -0.4415  0.5297
  878MOL0     C15819   6.289   1.814   7.327 -0.1403  0.3748 -0.5277
  878MOL0     C15820   6.334   1.733   7.444 -0.3024  1.0162  0.9901
  878MOL0     C15821   6.416   1.628   7.415 -0.9775 -0.2759  0.3168
  878MOL0     O15822   6.450   1.543   7.508  0.0109  0.8950 -0.0119
  878MOL0     C15823   6.589   1.542   7.555  0.3415  0.2370 -1.1401
  878MOL0     C15824   6.576   1.456   7.690  1.3046  0.6586  0.4281
  878MOL0     C15825   6.701   1.438   7.783 -0.2013 -0.4540 -0.3881
  878MOL0     C15826   6.668   1.360   7.919  0.6774  0.1641  0.5234
  878MOL0     C15827   6.619   1.227   7.895  0.3204  0.0710  0.6350
  878MOL0     C15828   6.618   1.107   7.867 -0.2809  0.7500  0.2480
  878MOL0     C15829   6.448   1.597   7.283 -0.0641  0.0724 -0.3662
  878MOL0     C15830   6.415   1.682   7.174  1.0399 -0.4425 -0.1811
  878MOL0     H15831   6.299   2.044   6.851 -0.1600  1.1700 -1.4699
  878MOL0     H15832   6.209   2.220   6.709  0.7486  1.5998 -0.1148
  878MOL0     H15833   5.993   2.283   6.629 -1.8714 -0.3002  1.2434
  878MOL0     H15834   6.094   2.445   6.619 -2.3108  3.3495 -1.0119
  878MOL0     H15835   5.911   2.571   6.644  2.9605 -1.0303  0.5388
  878MOL0     H15836   5.806   2.439   6.695  3.5000 -0.0714  3.9366
  878MOL0     H15837   5.822   2.342   6.459  1.3426  0.1366 -0.1466
  878MOL0     H15838   5.925   2.481   6.425  0.1442  3.0560  3.8084
  878MOL0     H15839   5.622   2.482   6.506  0.2415  0.4660  1.2917
  878MOL0     H15840   5.717   2.626   6.529 -1.7845 -1.6593  1.3947
  878MOL0     H15841   5.791   2.646   6.310  0.1666  0.4545  2.1257
  878MOL0     H15842   5.608   2.647   6.321 -3.3615 -3.8513  3.0361
  878MOL0     H15843   5.620   2.403   6.253 -0.2683 -1.0985  0.5959
  878MOL0     H15844   5.790   2.419   6.221  1.0351  0.1037 -2.6466
  878MOL0     H15845   5.566   2.588   6.067  0.2805 -0.7416  0.1115
  878MOL0     H15846   5.731   2.620   6.068 -1.1976  1.8597 -1.0449
  878MOL0     H15847   5.766   2.373   5.989  2.2213  2.7194 -0.7316
  878MOL0     H15848   5.688   2.467   5.862  3.0095  1.6852  0.4406
  878MOL0     H15849   5.395   2.505   5.983  0.2018 -0.0544  1.5287
  878MOL0     H15850   5.177   2.329   6.105  1.3816  1.2825  0.3462
  878MOL0     H15851   5.140   2.197   5.982  2.1107 -0.3634  0.1603
  878MOL0     H15852   4.989   2.370   5.951 -0.5813  1.5168 -0.3745
  878MOL0     H15853   5.100   2.375   5.812  1.7162 -1.8629  1.3063
  878MOL0     H15854   5.031   2.593   5.981 -0.6475 -1.3034  0.0197
  878MOL0     H15855   5.200   2.553   6.014  0.1527 -0.6510 -0.4126
  878MOL0     H15856   5.154   2.739   5.848  4.6367 -0.8044  2.2668
  878MOL0     H15857   5.081   2.609   5.744 -1.9551 -0.5574  2.3902
  878MOL0     H15858   5.481   2.486   5.671  0.3549  0.9626  0.6136
  878MOL0     H15859   5.573   2.510   5.437 -2.0292 -5.0636  1.5052
  878MOL0     H15860   5.197   2.865   5.018 -0.4050  2.0954 -1.3600
  878MOL0     H15861   5.229   2.971   4.808 -1.8198 -2.1233 -2.8456
  878MOL0     H15862   5.326   2.937   4.455  1.7908 -3.2330 -3.7177
  878MOL0     H15863   5.245   2.826   4.571  1.0547 -2.2469 -0.1088
  878MOL0     H15864   5.358   2.710   4.387 -0.0146  1.0106 -0.4422
  878MOL0     H15865   5.431   2.673   4.541 -1.7763 -1.6837  0.0580
  878MOL0     H15866   5.613   2.822   4.493 -1.4370  3.5490  0.3263
  878MOL0     H15867   5.537   2.883   4.342 -0.2132 -0.8692 -0.3011
  878MOL0     H15868   5.654   2.613   4.396 -2.5977 -2.0242 -0.5539
  878MOL0     H15869   5.585   2.655   4.236 -0.3383 -0.0770  0.0624
  878MOL0     H15870   5.736   2.850   4.206  1.1083 -0.3076  0.0630
  878MOL0     H15871   5.821   2.698   4.187 -0.7927 -1.0259  0.3803
  878MOL0     H15872   5.823   2.850   4.443 -3.2533 -1.9605 -0.6864
  878MOL0     H15873   5.962   2.854   4.330  2.6114 -3.3825  0.7621
  878MOL0     H15874   5.943   2.663   4.546  1.1749  5.2971  0.8224
  878MOL0     H15875   5.890   2.574   4.414  1.2275 -1.3340  1.3656
  878MOL0     H15876   6.114   2.543   4.441  2.2876  1.5435  2.1411
  878MOL0     H15877   6.159   2.710   4.392 -1.2280  1.9824  1.4134
  878MOL0     H15878   5.599   2.737   4.763  1.2253 -2.3443  0.3577
  878MOL0     H15879   5.574   2.632   4.951  2.2922  0.9499 -3.4476
  878MOL0     H15880   5.228   2.745   5.348  2.7303  0.6588  0.6597
  878MOL0     H15881   5.153   2.739   5.568  0.4788 -1.1110  3.3121
  878MOL0     H15882   5.993   2.372   7.039  1.2930  1.3412  1.0554
  878MOL0     H15883   6.057   2.193   7.178 -0.2087 -2.3885 -0.4369
  878MOL0     H15884   6.210   1.888   7.336  0.5934  1.6081 -3.1786
  878MOL0     H15885   6.297   1.753   7.543 -1.2505  1.3876  0.5733
  878MOL0     H15886   6.626   1.640   7.587 -0.6694  0.2311  0.1354
  878MOL0     H15887   6.666   1.496   7.493  0.4744 -0.3273 -0.5645
  878MOL0     H15888   6.498   1.497   7.755  2.6148  3.6063  0.3052
  878MOL0     H15889   6.539   1.364   7.644 -1.9870  2.5210 -0.9746
  878MOL0     H15890   6.741   1.539   7.792 -0.7945 -0.1175 -1.3702
  878MOL0     H15891   6.778   1.382   7.729  1.6404  3.1730 -1.8648
  878MOL0     H15892   6.761   1.358   7.976  1.9240  0.2632 -1.4279
  878MOL0     H15893   6.596   1.426   7.970 -0.2019  0.5813 -1.1636
  878MOL0     H15894   6.615   1.002   7.848  0.8947  0.8085 -0.3756
  878MOL0     H15895   6.524   1.521   7.273 -0.0340 -0.4976  2.9581
  878MOL0     H15896   6.468   1.670   7.079 -2.1531  0.1815 -2.1865
  879MOL0     O15897  10.730   4.447   6.091 -0.2797  1.0570 -0.5685
  879MOL0     C15898  10.823   4.388   6.035 -0.6575  0.1857  0.8980
  879MOL0     O15899  10.842   4.255   6.028 -0.6521  0.8360  0.3285
  879MOL0     C15900  10.756   4.156   6.055  0.8405  0.5839 -0.5141
  879MOL0     C15901  10.618   4.166   6.059 -0.1090  0.2589  0.7963
  879MOL0     C15902  10.532   4.059   6.103 -0.0394  0.3012 -0.3216
  879MOL0     C15903  10.592   3.931   6.138 -0.5547 -0.4449 -0.4799
  879MOL0     O15904  10.525   3.819   6.183  0.4236 -0.1986  0.1654
  879MOL0     C15905  10.387   3.799   6.146 -0.5640 -0.1379 -0.1205
  879MOL0     C15906  10.354   3.651   6.160 -0.3922 -0.3862  0.2279
  879MOL0     C15907  10.377   3.592   6.302  0.1395 -0.5566  1.0677
  879MOL0     C15908  10.522   3.546   6.332 -0.5735 -0.6379 -0.4243
  879MOL0     C15909  10.530   3.509   6.478 -0.0452 -0.8305  0.4651
  879MOL0     C15910  10.475   3.371   6.504 -0.3899  0.3294  0.1619
  879MOL0     C15911  10.484   3.360   6.653  0.2530  0.3556  0.7285
  879MOL0     C15912  10.443   3.212   6.684 -0.1095 -0.1245  0.1691
  879MOL0     N15913  10.298   3.169   6.697 -0.0506 -0.1722 -0.7877
  879MOL0     C15914  10.241   3.056   6.634 -0.3192 -0.1247 -0.1247
  879MOL0     C15915  10.102   3.072   6.665  0.7261 -0.0951 -0.8915
  879MOL0     C15916   9.990   2.983   6.624  0.5879 -0.2312 -0.7587
  879MOL0     C15917   9.972   2.980   6.477 -0.0918  0.0583 -0.1475
  879MOL0     C15918   9.823   3.010   6.432 -0.1332  0.4927 -0.8811
  879MOL0     C15919   9.756   3.139   6.496  0.6860  0.3783  0.1601
  879MOL0     O15920   9.846   3.246   6.445 -0.9714 -0.2254 -0.1809
  879MOL0     C15921   9.819   3.372   6.493  0.2409 -0.6517 -0.7628
  879MOL0     C15922   9.690   3.419   6.530 -0.0738 -0.1126 -0.5069
  879MOL0     C15923   9.660   3.552   6.557 -0.6083  0.7979 -0.2758
  879MOL0     C15924   9.762   3.645   6.553  0.2329 -0.4392 -1.1731
  879MOL0     C15925   9.731   3.792   6.572  1.2542 -0.0072  0.0375
  879MOL0     O15926   9.632   3.817   6.660 -0.1401  0.7918  0.1622
  879MOL0     C15927   9.564   3.941   6.657  0.1838 -0.2377  0.3893
  879MOL0     C15928   9.428   3.951   6.647 -0.0426  0.2420  0.5982
  879MOL0     C15929   9.362   4.076   6.666 -0.5870 -0.3131  0.6733
  879MOL0     C15930   9.437   4.194   6.698  0.8186  0.8352  0.1994
  879MOL0     O15931   9.380   4.319   6.724 -0.0675 -0.2470 -0.2950
  879MOL0     C15932   9.237   4.331   6.741 -0.1308  0.0877 -0.4425
  879MOL0     C15933   9.212   4.459   6.816  0.1991  0.1648  0.0283
  879MOL0     C15934   9.270   4.432   6.954 -0.0487 -0.1285 -0.9453
  879MOL0     C15935   9.323   4.560   7.024  0.3882 -0.1868 -0.4600
  879MOL0     C15936   9.208   4.658   7.051  0.3584 -0.3896 -0.2916
  879MOL0     C15937   9.268   4.802   7.090  1.0046  0.7519  0.6960
  879MOL0     C15938   9.156   4.898   7.111 -0.9304 -0.1512 -0.1748
  879MOL0     C15939   9.214   5.026   7.188  0.4876  0.2886 -0.2761
  879MOL0    Cl15940   9.249   4.975   7.362 -0.0370 -0.0131 -0.0355
  879MOL0     C15941   9.574   4.169   6.717  0.2676 -0.1515 -0.2334
  879MOL0     C15942   9.630   4.045   6.710 -0.9433 -0.0241 -0.1990
  879MOL0     O15943   9.802   3.875   6.511  1.4547 -0.1285  0.7632
  879MOL0     C15944   9.881   3.601   6.500 -1.6207  0.0419  0.1032
  879MOL0     C15945   9.917   3.465   6.482 -0.3853  0.4955  0.0552
  879MOL0     N15946  10.094   3.174   6.755 -0.3323 -0.8600 -0.4848
  879MOL0     N15947  10.209   3.234   6.775 -1.1132  0.2317 -0.1146
  879MOL0     C15948  10.736   3.918   6.128 -1.0049 -0.3188 -0.2547
  879MOL0     C15949  10.806   4.029   6.092 -0.2219 -0.3571 -0.7096
  879MOL0     C15950  10.921   4.471   5.963 -1.0997  0.8349  0.2559
  879MOL0     C15951  11.042   4.408   5.914 -0.0302 -0.1556 -0.0680
  879MOL0     C15952  11.118   4.489   5.824  0.0986 -0.1543 -0.2697
  879MOL0     C15953  11.081   4.625   5.789 -1.1289  0.5171  0.3769
  879MOL0     O15954  11.163   4.702   5.704 -0.2362 -0.6872 -0.1922
  879MOL0     C15955  11.295   4.654   5.674  0.0271 -0.2366  1.0890
  879MOL0     C15956  11.359   4.744   5.571  0.6623 -0.2613 -0.2262
  879MOL0     C15957  11.275   4.713   5.444 -0.3442 -0.0397 -0.6434
  879MOL0     C15958  11.335   4.787   5.318 -0.4024 -0.3781 -0.4066
  879MOL0     C15959  11.372   4.921   5.352  0.2861 -1.1750  0.3702
  879MOL0     C15960  11.388   5.040   5.379  1.2564  0.0837  0.3938
  879MOL0     C15961  10.958   4.672   5.834 -0.4669 -0.9226 -0.0714
  879MOL0     C15962  10.877   4.592   5.909  0.2128 -0.1893  0.2387
  879MOL0     H15963  10.566   4.258   6.034  0.9189  0.4976 -0.5804
  879MOL0     H15964  10.424   4.070   6.107  0.0386  1.1492 -0.3401
  879MOL0     H15965  10.370   3.841   6.046 -0.5601 -0.8292 -0.4135
  879MOL0     H15966  10.317   3.849   6.213  0.7276  0.2637  0.9656
  879MOL0     H15967  10.414   3.586   6.095 -0.0641 -0.8988  1.0240
  879MOL0     H15968  10.247   3.642   6.141 -0.3011 -1.5589  0.2459
  879MOL0     H15969  10.307   3.508   6.305 -0.6829 -0.1553 -2.4903
  879MOL0     H15970  10.348   3.678   6.363  1.9769  1.9225 -1.3115
  879MOL0     H15971  10.548   3.458   6.273 -1.5938 -1.9530  0.9924
  879MOL0     H15972  10.600   3.619   6.310 -2.0751  0.7663 -1.2804
  879MOL0     H15973  10.486   3.591   6.536  1.2783 -0.5724  1.1504
  879MOL0     H15974  10.635   3.496   6.508  0.5810  0.9861 -0.7878
  879MOL0     H15975  10.535   3.290   6.461 -2.4702 -0.4965 -1.3835
  879MOL0     H15976  10.374   3.362   6.463 -1.0803 -0.1227  1.8703
  879MOL0     H15977  10.583   3.382   6.695  0.1714  0.0688  1.0820
  879MOL0     H15978  10.415   3.437   6.690  2.8543  3.2612 -0.1078
  879MOL0     H15979  10.497   3.191   6.777  0.0237  0.7800  0.3108
  879MOL0     H15980  10.499   3.153   6.611  0.4725  1.4104 -0.6763
  879MOL0     H15981  10.290   2.978   6.576 -1.3079  0.3911 -1.7444
  879MOL0     H15982   9.903   3.020   6.678  1.1560  0.1561 -0.0913
  879MOL0     H15983   9.995   2.879   6.658 -0.5372 -0.2147 -0.5061
  879MOL0     H15984   9.986   2.881   6.432  2.0667  1.1299 -2.0604
  879MOL0     H15985  10.040   3.055   6.436  2.7221  0.1563  4.1053
  879MOL0     H15986   9.828   3.016   6.323  0.1056  1.0528 -0.8436
  879MOL0     H15987   9.769   2.917   6.448 -0.1977  0.0731 -3.1840
  879MOL0     H15988   9.740   3.150   6.603  0.6305 -0.0359  0.1932
  879MOL0     H15989   9.663   3.157   6.441  0.2261 -0.3678  0.6819
  879MOL0     H15990   9.602   3.355   6.532 -0.2013 -0.1106 -2.9076
  879MOL0     H15991   9.558   3.587   6.572 -0.4866  1.1832 -0.3311
  879MOL0     H15992   9.365   3.868   6.617  1.4428 -0.3698 -0.9786
  879MOL0     H15993   9.255   4.090   6.654 -0.3361  2.6448  1.1573
  879MOL0     H15994   9.208   4.247   6.804  0.7635 -1.3639 -1.9048
  879MOL0     H15995   9.189   4.341   6.644  1.5365  6.6250 -1.0915
  879MOL0     H15996   9.106   4.483   6.824  0.5550  1.6194  0.8845
  879MOL0     H15997   9.261   4.543   6.765 -0.9041  0.9692  0.2518
  879MOL0     H15998   9.347   4.354   6.953 -1.3020 -1.5377  1.6550
  879MOL0     H15999   9.187   4.394   7.014  1.1937 -4.6018 -1.6632
  879MOL0     H16000   9.374   4.535   7.118 -1.2016 -1.4415  0.1245
  879MOL0     H16001   9.387   4.616   6.956 -0.8190  1.1983 -0.5133
  879MOL0     H16002   9.145   4.633   7.137 -0.6961 -0.2872 -1.0147
  879MOL0     H16003   9.143   4.657   6.963 -0.4705 -0.7924  0.3097
  879MOL0     H16004   9.330   4.842   7.009  3.4952 -0.5473  1.8357
  879MOL0     H16005   9.328   4.783   7.180  0.1449  2.3085  1.6350
  879MOL0     H16006   9.111   4.933   7.017 -2.3991 -2.0499 -0.2341
  879MOL0     H16007   9.081   4.844   7.169 -0.5168 -1.0702 -0.4812
  879MOL0     H16008   9.134   5.100   7.200 -0.5888 -1.1732  2.2548
  879MOL0     H16009   9.299   5.076   7.141  0.0319  4.0751  2.4761
  879MOL0     H16010   9.638   4.251   6.749  1.2139 -0.6472 -0.8035
  879MOL0     H16011   9.730   4.035   6.750 -0.8203 -4.9337 -1.1615
  879MOL0     H16012   9.965   3.671   6.504 -2.0883  0.5474  2.8699
  879MOL0     H16013  10.015   3.430   6.452 -0.6267  0.4398 -0.6690
  879MOL0     H16014  10.780   3.825   6.163 -1.9365 -0.8632 -0.5094
  879MOL0     H16015  10.913   4.014   6.107 -0.4604 -0.1870  1.4125
  879MOL0     H16016  11.082   4.310   5.936  0.1623  0.2066  1.2384
  879MOL0     H16017  11.195   4.426   5.780  1.0201 -0.8544  2.1763
  879MOL0     H16018  11.286   4.549   5.644 -1.0163  0.5666 -1.7960
  879MOL0     H16019  11.364   4.654   5.759  2.2605 -0.3759 -0.6223
  879MOL0     H16020  11.343   4.847   5.604  3.3866 -0.2809  1.4557
  879MOL0     H16021  11.467   4.732   5.566  0.6363 -0.4672 -0.2830
  879MOL0     H16022  11.175   4.754   5.459 -0.6951 -1.0659 -0.0468
  879MOL0     H16023  11.258   4.606   5.425 -0.0603 -0.6071  1.9211
  879MOL0     H16024  11.420   4.726   5.284  0.2791 -0.2181  0.9270
  879MOL0     H16025  11.263   4.805   5.238  1.5718  4.4485 -1.4162
  879MOL0     H16026  11.399   5.143   5.404 -2.9730  0.5275  1.1757
  879MOL0     H16027  10.918   4.763   5.791  1.7721 -0.3351 -1.0264
  879MOL0     H16028  10.774   4.619   5.932 -1.3285 -5.5428  1.0083
  880MOL0     O16029   1.864   4.388   4.519  0.5490 -0.3884  0.2748
  880MOL0     C16030   1.784   4.430   4.440  0.0687  0.5538 -0.9042
  880MOL0     O16031   1.813   4.489   4.311  0.2555  0.4804  0.0037
  880MOL0     C16032   1.947   4.496   4.282 -0.1470  0.5285  0.2409
  880MOL0     C16033   2.029   4.385   4.263 -0.0823 -0.2476  0.0492
  880MOL0     C16034   2.161   4.407   4.226 -0.0431  0.2158 -0.4677
  880MOL0     C16035   2.219   4.535   4.222  0.7514 -0.4838  0.0802
  880MOL0     O16036   2.353   4.574   4.197  0.5393  0.5510  1.1840
  880MOL0     C16037   2.448   4.472   4.173 -0.2233  0.4506  0.2128
  880MOL0     C16038   2.564   4.534   4.103 -0.1571 -0.2912  0.2900
  880MOL0     C16039   2.673   4.431   4.071 -0.5999 -0.4145  0.1803
  880MOL0     C16040   2.783   4.500   3.992  0.2971 -0.5619  0.1887
  880MOL0     C16041   2.881   4.392   3.960 -0.2358  0.2825  0.0340
  880MOL0     C16042   2.936   4.296   4.077  0.1858  0.3392 -0.1546
  880MOL0     C16043   3.066   4.226   4.054  0.2804 -0.4478  0.7455
  880MOL0     C16044   3.126   4.158   4.175  1.1669 -0.8846  1.4122
  880MOL0     N16045   3.039   4.046   4.212  0.2162 -0.5065  0.2326
  880MOL0     C16046   3.014   3.928   4.143 -0.1797  0.6265  0.1327
  880MOL0     C16047   2.937   3.853   4.226  0.2956 -0.1470 -0.0287
  880MOL0     C16048   2.894   3.717   4.199  0.8397 -0.0824 -0.1520
  880MOL0     C16049   2.978   3.611   4.271  0.1602  0.5179  0.0852
  880MOL0     C16050   2.932   3.465   4.254 -0.5647  1.0640  0.4747
  880MOL0     C16051   2.991   3.369   4.357  0.2944 -0.4852 -0.0398
  880MOL0     O16052   2.906   3.250   4.370 -0.0651  0.3196  0.1858
  880MOL0     C16053   2.950   3.159   4.461 -0.0670  0.2444 -0.1131
  880MOL0     C16054   2.849   3.084   4.517 -0.2105 -0.2949  0.5026
  880MOL0     C16055   2.860   2.994   4.619 -0.2147 -0.2699  0.0356
  880MOL0     C16056   2.987   2.960   4.672  0.7791  0.3577  0.4001
  880MOL0     C16057   3.008   2.858   4.773 -0.1589  1.0355  0.0583
  880MOL0     O16058   3.133   2.853   4.837  0.4205  0.2600 -1.0289
  880MOL0     C16059   3.125   2.804   4.965 -0.0951 -0.2282  0.3082
  880MOL0     C16060   3.136   2.660   4.985 -0.5967 -0.5493  0.3731
  880MOL0     C16061   3.149   2.611   5.115  0.4746  1.0224 -0.1384
  880MOL0     C16062   3.145   2.704   5.226 -0.3351  0.5409 -0.2706
  880MOL0     O16063   3.168   2.664   5.352 -0.7780  0.1567  0.7588
  880MOL0     C16064   3.053   2.622   5.419  0.6299 -0.4389  1.0279
  880MOL0     C16065   3.013   2.734   5.518 -1.4465  0.0745 -0.2456
  880MOL0     C16066   3.112   2.734   5.631  0.2115  0.4378  0.3194
  880MOL0     C16067   3.138   2.868   5.692 -0.5411 -0.2548  0.1699
  880MOL0     C16068   3.242   2.869   5.810  0.0938  0.6292 -0.5921
  880MOL0     C16069   3.206   2.763   5.918 -0.5380 -0.4002 -0.1153
  880MOL0     C16070   3.070   2.793   5.986  0.2579 -0.4573 -0.0280
  880MOL0     C16071   3.065   2.926   6.065 -0.8641 -0.0455  0.0923
  880MOL0    Cl16072   2.943   2.929   6.198  0.1519  0.1967  0.0340
  880MOL0     C16073   3.135   2.838   5.200 -0.4392 -0.4623 -1.3266
  880MOL0     C16074   3.121   2.888   5.072  0.1047 -0.4332  0.7796
  880MOL0     O16075   2.909   2.789   4.805 -0.0969 -0.3204  0.4333
  880MOL0     C16076   3.094   3.037   4.614  0.5147  0.4641 -1.0430
  880MOL0     C16077   3.079   3.142   4.523  0.8330 -0.0501  0.3541
  880MOL0     N16078   2.920   3.921   4.339  0.2857  0.0116  0.2313
  880MOL0     N16079   2.978   4.037   4.331 -0.1515  0.1583  0.2719
  880MOL0     C16080   2.138   4.640   4.252 -0.7775 -0.9638 -0.4678
  880MOL0     C16081   2.004   4.625   4.288  0.0777 -0.9263  0.4896
  880MOL0     C16082   1.643   4.432   4.480 -0.0304 -0.2109  0.5346
  880MOL0     C16083   1.546   4.497   4.406  0.0801  1.3921  0.0982
  880MOL0     C16084   1.410   4.494   4.442  0.4910  0.6872  0.0629
  880MOL0     C16085   1.366   4.433   4.555 -0.6923  0.0567  0.4318
  880MOL0     O16086   1.233   4.422   4.581  0.0380 -0.1121  0.0090
  880MOL0     C16087   1.188   4.382   4.714  0.1421  0.2538 -1.2933
  880MOL0     C16088   1.226   4.493   4.811  0.1414 -0.7241 -0.4310
  880MOL0     C16089   1.212   4.455   4.955  0.1788 -0.2330 -0.1790
  880MOL0     C16090   1.198   4.569   5.059 -0.1987  0.9378  0.4193
  880MOL0     C16091   1.067   4.634   5.026  0.3984  0.8837 -0.5584
  880MOL0     C16092   0.958   4.674   5.009 -0.0267 -0.1049  0.6532
  880MOL0     C16093   1.468   4.384   4.637 -0.3790 -0.9701  0.2458
  880MOL0     C16094   1.597   4.373   4.607 -1.0155  0.1312 -0.3284
  880MOL0     H16095   1.977   4.294   4.236 -3.8006  1.7550 -0.1946
  880MOL0     H16096   2.217   4.320   4.191 -2.7161 -1.3077 -1.1947
  880MOL0     H16097   2.413   4.393   4.105  1.2500  0.5012 -0.6548
  880MOL0     H16098   2.474   4.424   4.268  2.6949 -0.1675 -0.8070
  880MOL0     H16099   2.594   4.613   4.172 -0.4295 -0.2255  0.3331
  880MOL0     H16100   2.523   4.570   4.008 -2.1988 -3.2970 -0.1131
  880MOL0     H16101   2.629   4.348   4.015  0.5659 -1.6985  1.0746
  880MOL0     H16102   2.719   4.399   4.165  1.0402  0.4342 -0.2811
  880MOL0     H16103   2.748   4.546   3.900  0.4720 -0.8010 -0.0018
  880MOL0     H16104   2.828   4.572   4.061  0.0668 -2.7874  2.8868
  880MOL0     H16105   2.966   4.450   3.923  0.5207  1.8122  3.6618
  880MOL0     H16106   2.853   4.316   3.887  2.6953 -1.8409  0.8895
  880MOL0     H16107   2.862   4.217   4.096  1.2686 -0.0252  3.4033
  880MOL0     H16108   2.951   4.357   4.167 -1.2010 -3.0085  2.5625
  880MOL0     H16109   3.052   4.153   3.974 -1.6079  1.5721 -0.9074
  880MOL0     H16110   3.130   4.305   4.015 -1.8156 -0.3315 -2.8451
  880MOL0     H16111   3.127   4.231   4.257  1.8379 -0.9814  1.4907
  880MOL0     H16112   3.229   4.129   4.152  0.5130 -0.6648 -2.5156
  880MOL0     H16113   3.045   3.908   4.041 -0.8649 -3.0578  0.5082
  880MOL0     H16114   2.894   3.686   4.094  2.2158 -0.6705  0.0017
  880MOL0     H16115   2.799   3.706   4.251  2.0379 -3.3718  1.5829
  880MOL0     H16116   2.999   3.636   4.375  2.7532 -1.0275  0.0382
  880MOL0     H16117   3.078   3.619   4.227  0.0499 -0.6857 -0.4135
  880MOL0     H16118   2.822   3.466   4.253 -0.6676  0.8108 -3.2288
  880MOL0     H16119   2.949   3.434   4.150 -1.3346  1.9585  0.0648
  880MOL0     H16120   2.981   3.415   4.455  2.1060 -2.4312  1.1358
  880MOL0     H16121   3.099   3.355   4.350  0.6405  1.9315 -0.3052
  880MOL0     H16122   2.751   3.106   4.475  0.3591  1.2648 -0.0821
  880MOL0     H16123   2.776   2.935   4.655 -0.4830 -0.5566 -1.0094
  880MOL0     H16124   3.143   2.605   4.892  0.4145 -0.3239  0.3019
  880MOL0     H16125   3.171   2.505   5.123  0.5256  0.9058 -1.4578
  880MOL0     H16126   3.063   2.531   5.479 -2.0791  0.4846  3.0734
  880MOL0     H16127   2.972   2.607   5.347 -0.1889 -4.6471  2.5538
  880MOL0     H16128   2.916   2.704   5.561  0.3089 -3.3699  1.7695
  880MOL0     H16129   2.999   2.829   5.465  2.2954 -0.2641 -2.1686
  880MOL0     H16130   3.211   2.698   5.600 -0.2769 -1.7622  1.1157
  880MOL0     H16131   3.075   2.657   5.700 -2.0822  1.5679  0.4389
  880MOL0     H16132   3.165   2.939   5.613  1.4508 -0.5876  0.4969
  880MOL0     H16133   3.042   2.911   5.722 -0.0954  1.0970 -0.2607
  880MOL0     H16134   3.242   2.970   5.853  0.9314 -0.2675  1.6493
  880MOL0     H16135   3.340   2.849   5.768  0.7232  0.6403  0.8178
  880MOL0     H16136   3.287   2.750   5.990 -2.6999 -1.6233  2.2831
  880MOL0     H16137   3.198   2.660   5.884 -1.1242 -2.3307  5.0176
  880MOL0     H16138   2.979   2.786   5.926  0.0280 -3.1401  0.5141
  880MOL0     H16139   3.060   2.720   6.067  3.2610 -0.0420  0.8601
  880MOL0     H16140   3.050   3.013   6.000  0.8351  0.8643  0.8465
  880MOL0     H16141   3.163   2.936   6.113 -1.1172  0.2900  0.5528
  880MOL0     H16142   3.134   2.907   5.284  1.8121 -1.2496 -0.5809
  880MOL0     H16143   3.119   2.992   5.043  0.8978 -0.8238 -0.7525
  880MOL0     H16144   3.194   3.007   4.645 -0.1143 -1.1864 -0.5046
  880MOL0     H16145   3.163   3.204   4.493  1.6381  0.7980  3.8434
  880MOL0     H16146   2.198   4.729   4.265 -0.5139 -1.4143  1.8441
  880MOL0     H16147   1.951   4.714   4.321  2.7651  0.7426  0.6339
  880MOL0     H16148   1.571   4.528   4.305  1.5458 -0.5454 -0.1979
  880MOL0     H16149   1.336   4.530   4.371 -1.5823 -1.1625  1.1666
  880MOL0     H16150   1.240   4.292   4.750 -0.0371 -0.7804 -3.4827
  880MOL0     H16151   1.080   4.366   4.717 -0.5104  4.0311 -0.4484
  880MOL0     H16152   1.332   4.523   4.807 -0.0340 -0.1926 -1.3526
  880MOL0     H16153   1.159   4.578   4.794 -0.6734 -1.3066 -0.1866
  880MOL0     H16154   1.289   4.387   4.991  2.8719  1.4241 -2.4215
  880MOL0     H16155   1.120   4.395   4.952  0.2042 -0.3101  0.5477
  880MOL0     H16156   1.201   4.533   5.162  1.4652  0.8390  0.3720
  880MOL0     H16157   1.281   4.638   5.043  0.7298 -0.7536 -3.1224
  880MOL0     H16158   0.857   4.704   4.990  0.9953  1.4699 -3.0591
  880MOL0     H16159   1.436   4.334   4.728  3.1667 -1.8294  1.1789
  880MOL0     H16160   1.659   4.318   4.677 -1.7441  1.5159  1.4906
  881MOL0     O16161   1.959   3.849   4.124  0.9594  0.0571 -0.7091
  881MOL0     C16162   1.974   3.964   4.088  0.1130 -0.5861  0.0948
  881MOL0     O16163   1.884   4.071   4.099  0.6413  0.7525 -0.9861
  881MOL0     C16164   1.749   4.038   4.113 -0.5562 -0.1087  0.6458
  881MOL0     C16165   1.662   4.142   4.167  0.0845  0.1282  0.1693
  881MOL0     C16166   1.533   4.122   4.200  0.9736  0.1169 -0.3948
  881MOL0     C16167   1.474   4.003   4.164  0.3199  0.2427 -1.0688
  881MOL0     O16168   1.341   3.992   4.195 -0.1617  0.0818 -0.0115
  881MOL0     C16169   1.261   3.878   4.178 -0.1151 -0.2491  0.2723
  881MOL0     C16170   1.275   3.767   4.284 -0.4706 -0.1571  0.0415
  881MOL0     C16171   1.397   3.671   4.271 -0.0509  0.4239  0.3859
  881MOL0     C16172   1.386   3.548   4.359 -0.0867  0.0149 -0.7569
  881MOL0     C16173   1.514   3.459   4.365  0.7963 -0.1191  0.5250
  881MOL0     C16174   1.488   3.316   4.412  0.1603 -0.1417 -0.3005
  881MOL0     C16175   1.614   3.237   4.446 -0.4267 -0.3119  0.0267
  881MOL0     C16176   1.580   3.089   4.432 -0.2598  0.5198  0.1758
  881MOL0     N16177   1.689   2.999   4.479 -0.0477 -0.0095 -0.2020
  881MOL0     C16178   1.763   2.990   4.600  0.3014  0.1318 -0.1457
  881MOL0     C16179   1.824   2.868   4.588  0.3884  0.0720 -0.3958
  881MOL0     C16180   1.897   2.808   4.703  0.5276  0.0083  0.5269
  881MOL0     C16181   1.856   2.667   4.744 -0.2345 -0.0313  0.1711
  881MOL0     C16182   1.739   2.669   4.838 -0.3386 -0.3640  0.6495
  881MOL0     C16183   1.757   2.763   4.955 -0.2230  0.6164 -0.6315
  881MOL0     O16184   1.686   2.718   5.068 -0.7539  0.2008 -0.6987
  881MOL0     C16185   1.659   2.810   5.175  0.2434 -0.5524  0.3161
  881MOL0     C16186   1.545   2.780   5.254  0.5874  1.2266 -0.4513
  881MOL0     C16187   1.510   2.851   5.372  0.2394 -0.8878  0.5715
  881MOL0     C16188   1.588   2.962   5.406  0.2323 -0.0844  0.3478
  881MOL0     C16189   1.557   3.021   5.534  0.7477 -0.7121 -0.3946
  881MOL0     O16190   1.452   2.972   5.617  0.1921  0.5085  0.2344
  881MOL0     C16191   1.436   3.040   5.737 -0.6498  0.7561  0.2501
  881MOL0     C16192   1.321   3.118   5.762  0.3981  0.9057 -0.7687
  881MOL0     C16193   1.317   3.190   5.888  0.7346  0.0642  1.1874
  881MOL0     C16194   1.413   3.186   5.982  0.0638 -0.5468  0.5436
  881MOL0     O16195   1.422   3.259   6.099 -0.2664  0.7795  1.2599
  881MOL0     C16196   1.332   3.366   6.099  0.4049 -0.2417  0.1031
  881MOL0     C16197   1.364   3.473   6.207  0.1007  1.0564 -0.8487
  881MOL0     C16198   1.260   3.585   6.216  0.0257  0.9300 -0.0079
  881MOL0     C16199   1.128   3.535   6.281  0.0596  0.7181 -0.1059
  881MOL0     C16200   0.998   3.592   6.221 -0.0827  0.4079  0.4862
  881MOL0     C16201   0.969   3.529   6.080  0.2522  0.9184  0.0984
  881MOL0     C16202   0.827   3.562   6.029 -0.8133 -0.6390 -0.6836
  881MOL0     C16203   0.770   3.695   6.060 -0.7563 -0.3880 -0.0450
  881MOL0    Cl16204   0.859   3.804   5.952  0.2546 -0.1086 -0.0578
  881MOL0     C16205   1.518   3.103   5.959  0.2200  0.9485  0.5541
  881MOL0     C16206   1.533   3.034   5.837  0.2602 -1.0517 -0.5349
  881MOL0     O16207   1.628   3.120   5.563  0.1364  0.3473  0.9882
  881MOL0     C16208   1.689   3.001   5.322  0.0965 -0.3275  0.3487
  881MOL0     C16209   1.725   2.931   5.201  0.7752  0.6287 -0.1923
  881MOL0     N16210   1.798   2.809   4.463 -0.8756  0.6231 -0.5583
  881MOL0     N16211   1.718   2.893   4.404  0.8109 -0.2488  0.0967
  881MOL0     C16212   1.549   3.905   4.108  0.2378  0.1773 -0.0614
  881MOL0     C16213   1.687   3.917   4.087  0.3849 -0.0313 -0.9802
  881MOL0     C16214   2.113   3.995   4.041  0.0703  0.1292 -1.1290
  881MOL0     C16215   2.134   4.110   3.967  0.3480  0.3113  0.6546
  881MOL0     C16216   2.257   4.154   3.941 -0.3052 -0.0766 -0.6450
  881MOL0     C16217   2.377   4.087   3.992  0.2553 -0.2629  0.1369
  881MOL0     O16218   2.506   4.125   3.951  0.5021  0.1875 -0.6768
  881MOL0     C16219   2.594   4.025   3.898 -0.5293  0.3885  0.6541
  881MOL0     C16220   2.536   3.947   3.764 -1.1687  0.5152 -1.1595
  881MOL0     C16221   2.438   4.021   3.665  0.6602  0.0211  0.7616
  881MOL0     C16222   2.500   4.144   3.618 -0.2077  0.7153 -1.0702
  881MOL0     C16223   2.428   4.225   3.528  0.4997 -0.4884  0.5008
  881MOL0     C16224   2.343   4.279   3.463  0.6016  0.0987 -0.6661
  881MOL0     C16225   2.351   3.973   4.063  0.6036 -0.8109  0.0831
  881MOL0     C16226   2.224   3.921   4.093  0.1484 -0.1248  0.6791
  881MOL0     H16227   1.688   4.245   4.188  2.4975 -0.6617  1.3819
  881MOL0     H16228   1.465   4.185   4.258 -0.1857 -0.8255 -0.6990
  881MOL0     H16229   1.284   3.829   4.082 -0.7418  0.0611 -0.0369
  881MOL0     H16230   1.159   3.916   4.177  0.4511  1.5854  3.1318
  881MOL0     H16231   1.185   3.707   4.267  0.4908 -2.3320  2.1685
  881MOL0     H16232   1.260   3.805   4.386  2.8065 -3.5036  1.9994
  881MOL0     H16233   1.494   3.711   4.303  1.9684 -5.6667  3.3641
  881MOL0     H16234   1.412   3.650   4.165 -0.4501 -1.1093  0.6130
  881MOL0     H16235   1.369   3.571   4.465  0.8817  0.7297 -0.7363
  881MOL0     H16236   1.310   3.480   4.320  2.2130 -1.0649 -3.7659
  881MOL0     H16237   1.589   3.500   4.434 -1.3054  1.0303  2.2242
  881MOL0     H16238   1.557   3.456   4.264 -1.3128 -1.6743 -0.3902
  881MOL0     H16239   1.420   3.266   4.342 -0.7065  0.3630  0.1643
  881MOL0     H16240   1.442   3.333   4.510  2.8054  1.3093  0.7807
  881MOL0     H16241   1.695   3.266   4.378 -0.1004 -0.3050  0.4151
  881MOL0     H16242   1.640   3.265   4.549 -1.2631 -2.7003  0.9644
  881MOL0     H16243   1.567   3.078   4.324 -1.5189  1.1228  0.2439
  881MOL0     H16244   1.489   3.057   4.483 -0.2272 -0.8815 -0.5916
  881MOL0     H16245   1.741   3.056   4.683 -0.7606  0.8725 -0.9767
  881MOL0     H16246   1.893   2.883   4.783 -1.8318  2.6187 -1.8244
  881MOL0     H16247   1.995   2.793   4.657 -1.1302  0.0724 -3.3774
  881MOL0     H16248   1.937   2.625   4.803 -0.5162  2.8343  2.8592
  881MOL0     H16249   1.836   2.602   4.658 -2.4909 -1.5846  1.7353
  881MOL0     H16250   1.647   2.688   4.781 -0.0475 -0.3166  0.1881
  881MOL0     H16251   1.737   2.564   4.867 -0.1530 -0.0439  1.8565
  881MOL0     H16252   1.711   2.857   4.923 -5.5843 -2.5649 -3.7970
  881MOL0     H16253   1.862   2.783   4.979 -0.7684  1.2972  1.3423
  881MOL0     H16254   1.490   2.693   5.220  1.2780 -0.7298  2.9617
  881MOL0     H16255   1.413   2.815   5.407 -1.1490  2.1697  0.2115
  881MOL0     H16256   1.250   3.127   5.680  2.1946  0.3071 -2.4978
  881MOL0     H16257   1.236   3.255   5.918  0.9223 -0.5093  3.0281
  881MOL0     H16258   1.229   3.333   6.113 -0.0840  2.1178  3.2527
  881MOL0     H16259   1.328   3.417   6.002 -1.5670 -1.6898 -0.6475
  881MOL0     H16260   1.466   3.508   6.192  2.4494 -3.5073  2.1741
  881MOL0     H16261   1.361   3.427   6.306 -0.8295  2.4492 -0.1861
  881MOL0     H16262   1.250   3.609   6.110 -1.4841 -1.0650 -0.3874
  881MOL0     H16263   1.308   3.675   6.256  0.1142  0.2902  1.4120
  881MOL0     H16264   1.120   3.426   6.291  0.3201  0.7629  0.6224
  881MOL0     H16265   1.115   3.563   6.386 -0.5710  2.7611 -0.6865
  881MOL0     H16266   1.008   3.699   6.201  2.3544 -0.1516 -2.0039
  881MOL0     H16267   0.918   3.570   6.292 -1.1310 -0.0953 -0.8224
  881MOL0     H16268   0.978   3.421   6.094  1.0841  0.5920 -2.4275
  881MOL0     H16269   1.045   3.566   6.011 -1.8291  3.9200 -0.7909
  881MOL0     H16270   0.826   3.560   5.919  2.4252  1.0287 -0.8484
  881MOL0     H16271   0.753   3.493   6.070  0.0058  0.1087  2.2469
  881MOL0     H16272   0.773   3.725   6.165  2.3011  0.4406 -0.2820
  881MOL0     H16273   0.665   3.704   6.030 -0.7091 -0.6619 -0.2987
  881MOL0     H16274   1.599   3.096   6.030  0.6597  1.7212  0.1440
  881MOL0     H16275   1.625   2.977   5.827  1.5978  0.8802  0.2888
  881MOL0     H16276   1.748   3.088   5.350 -1.3739  1.5892 -2.0551
  881MOL0     H16277   1.804   2.964   5.134  1.5892  2.0445  1.3977
  881MOL0     H16278   1.494   3.816   4.081 -0.9228  0.7785  0.2592
  881MOL0     H16279   1.734   3.832   4.039  0.4912  0.3006 -1.4701
  881MOL0     H16280   2.046   4.144   3.914  1.3468 -0.3085 -1.5248
  881MOL0     H16281   2.285   4.237   3.877  1.8975  0.8948  1.4156
  881MOL0     H16282   2.612   3.951   3.976 -0.4919 -0.0635  0.2198
  881MOL0     H16283   2.685   4.081   3.870  1.1183 -2.6181 -0.4434
  881MOL0     H16284   2.623   3.922   3.703 -0.1066  4.0984 -1.3396
  881MOL0     H16285   2.504   3.845   3.787  1.4118 -0.7438 -2.6614
  881MOL0     H16286   2.348   4.052   3.719  1.9651  3.1181  1.3790
  881MOL0     H16287   2.412   3.972   3.570 -3.7963  1.8137  0.8090
  881MOL0     H16288   2.525   4.209   3.702  1.8247 -1.3761  0.0568
  881MOL0     H16289   2.596   4.127   3.569  0.1918 -0.2864  0.0124
  881MOL0     H16290   2.259   4.305   3.402 -1.0655  0.3953  1.6043
  881MOL0     H16291   2.431   3.907   4.095  0.7404 -2.0785 -2.5572
  881MOL0     H16292   2.213   3.839   4.163  0.8920 -0.1708  0.7468
  882MOL0     O16293   7.634   7.510   0.725 -0.2848  0.5221 -0.1019
  882MOL0     C16294   7.729   7.451   0.774 -0.4243 -0.7463 -0.0283
  882MOL0     O16295   7.851   7.503   0.786 -0.2193  0.3255  0.4713
  882MOL0     C16296   7.863   7.635   0.744  0.6396  0.5925 -0.2201
  882MOL0     C16297   7.891   7.671   0.611  0.5095  0.1078 -0.0626
  882MOL0     C16298   7.901   7.805   0.577 -0.6778 -0.4701  0.0557
  882MOL0     C16299   7.899   7.900   0.675 -0.6961 -0.3677 -0.3875
  882MOL0     O16300   7.937   8.035   0.657 -0.0594  0.1847 -0.2323
  882MOL0     C16301   7.972   8.083   0.532 -1.2040 -0.5922  0.0248
  882MOL0     C16302   8.053   8.208   0.562  0.1701 -0.4548  0.0201
  882MOL0     C16303   8.201   8.186   0.588  0.3819 -0.0758  1.5122
  882MOL0     C16304   8.278   8.310   0.640 -0.1301 -0.6732 -0.5674
  882MOL0     C16305   8.229   8.391   0.754 -0.2305  0.2762  0.3470
  882MOL0     C16306   8.186   8.321   0.887  0.3352  0.8961  0.4100
  882MOL0     C16307   8.180   8.433   1.000 -0.1218  1.2739 -0.4134
  882MOL0     C16308   8.103   8.364   1.112 -0.3258  0.9305  0.7641
  882MOL0     N16309   8.057   8.464   1.213  0.1862  0.8761 -0.0390
  882MOL0     C16310   7.944   8.545   1.195  0.4012 -0.2855  0.2235
  882MOL0     C16311   7.935   8.611   1.315  0.5370 -0.3310 -0.0083
  882MOL0     C16312   7.846   8.727   1.352  1.0174  0.0435  0.4001
  882MOL0     C16313   7.696   8.705   1.319  0.5042  1.0054  0.0132
  882MOL0     C16314   7.610   8.828   1.341 -0.3547 -0.7665  0.9972
  882MOL0     C16315   7.595   8.921   1.219 -0.6106  0.8521  0.1454
  882MOL0     O16316   7.496   9.017   1.252  0.2369 -0.2385 -0.1423
  882MOL0     C16317   7.535   9.134   1.309 -0.0862 -1.0402 -0.5565
  882MOL0     C16318   7.436   9.227   1.292 -0.2126  0.7893 -0.2106
  882MOL0     C16319   7.455   9.365   1.319 -0.5678 -0.3179  0.0778
  882MOL0     C16320   7.582   9.415   1.350 -0.1057 -0.6648  0.1523
  882MOL0     C16321   7.600   9.556   1.382 -0.0184 -0.1133  0.4258
  882MOL0     O16322   7.714   9.608   1.430 -0.3530  1.5099  0.1055
  882MOL0     C16323   7.721   9.746   1.430  0.5892 -0.0785 -0.5195
  882MOL0     C16324   7.642   9.831   1.510  0.6876  0.2011 -0.3495
  882MOL0     C16325   7.664   9.969   1.501  0.1076 -1.0405  0.0764
  882MOL0     C16326   7.763  10.026   1.428 -0.1229  0.1098  0.4840
  882MOL0     O16327   7.778  10.161   1.401 -0.2290 -0.0310 -0.0258
  882MOL0     C16328   7.736  10.255   1.507  0.2754  0.2495 -0.1314
  882MOL0     C16329   7.760  10.396   1.448 -0.4241 -1.0808 -0.4541
  882MOL0     C16330   7.909  10.435   1.436 -0.0190 -0.0258  1.3404
  882MOL0     C16331   7.966  10.390   1.306 -0.5741 -0.3857  0.0079
  882MOL0     C16332   8.123  10.436   1.301  0.6203 -0.9977  0.4773
  882MOL0     C16333   8.139  10.590   1.283 -0.1176  0.1288  0.5356
  882MOL0     C16334   8.283  10.620   1.245  0.0432 -0.4908  0.6586
  882MOL0     C16335   8.332  10.740   1.329 -0.1273  0.4874 -0.2180
  882MOL0    Cl16336   8.352  10.689   1.506  0.4431 -0.3827  0.1113
  882MOL0     C16337   7.855   9.937   1.369 -0.7413  0.2003  0.5164
  882MOL0     C16338   7.833   9.798   1.379 -0.3189  0.0722  0.3664
  882MOL0     O16339   7.501   9.627   1.346  0.1411 -0.1516 -0.2951
  882MOL0     C16340   7.678   9.315   1.382  0.4901 -0.0280 -0.0420
  882MOL0     C16341   7.660   9.183   1.349  0.1100  0.3150 -0.6608
  882MOL0     N16342   8.034   8.563   1.402 -0.0576 -0.2993 -0.5816
  882MOL0     N16343   8.110   8.476   1.343  0.4562  0.0710  0.3106
  882MOL0     C16344   7.876   7.863   0.801 -0.9946  0.1203  0.7029
  882MOL0     C16345   7.844   7.730   0.842 -0.2107  0.7414 -0.4292
  882MOL0     C16346   7.706   7.318   0.841 -0.4741 -0.0303  0.4317
  882MOL0     C16347   7.580   7.263   0.828 -0.0087 -0.4151 -0.7254
  882MOL0     C16348   7.556   7.131   0.874  0.4390  0.0492  0.2690
  882MOL0     C16349   7.651   7.067   0.942  0.8663  0.8792 -0.4940
  882MOL0     O16350   7.630   6.943   0.983  0.0686 -0.5541 -0.8589
  882MOL0     C16351   7.638   6.833   0.901  0.9457  0.2774  0.3858
  882MOL0     C16352   7.506   6.804   0.841 -0.6373 -1.0872 -0.2539
  882MOL0     C16353   7.521   6.687   0.734  0.1693  0.0359  0.4702
  882MOL0     C16354   7.472   6.547   0.769  0.1302 -0.2118 -0.1801
  882MOL0     C16355   7.556   6.485   0.872  0.5768  0.9115  0.4811
  882MOL0     C16356   7.623   6.426   0.951  0.3939  0.5664 -1.0298
  882MOL0     C16357   7.775   7.119   0.954 -0.3507 -0.0299  0.4696
  882MOL0     C16358   7.804   7.240   0.903  0.8744 -0.1421  0.3739
  882MOL0     H16359   7.911   7.596   0.535 -2.0475 -1.0804  0.3002
  882MOL0     H16360   7.923   7.834   0.475  0.2822 -0.5728  0.2256
  882MOL0     H16361   7.890   8.109   0.465 -0.2503 -1.6498 -1.6386
  882MOL0     H16362   8.032   8.004   0.484 -1.0232 -1.3750  1.4875
  882MOL0     H16363   8.019   8.252   0.656  1.2178 -1.6572  1.0009
  882MOL0     H16364   8.036   8.270   0.474 -0.1926 -3.1459 -1.9369
  882MOL0     H16365   8.244   8.150   0.493 -3.3874  1.3169 -0.9415
  882MOL0     H16366   8.209   8.104   0.660  4.5152  1.0871  2.6887
  882MOL0     H16367   8.378   8.272   0.663 -0.9298 -2.5242  0.0251
  882MOL0     H16368   8.298   8.379   0.557  1.4849 -1.0173 -0.4900
  882MOL0     H16369   8.143   8.452   0.724 -0.6621 -1.0850 -1.3652
  882MOL0     H16370   8.302   8.471   0.766 -1.7695  2.0347 -1.4234
  882MOL0     H16371   8.261   8.248   0.918 -0.9457 -0.8026 -0.3172
  882MOL0     H16372   8.090   8.270   0.869 -0.0948  0.9947  2.2744
  882MOL0     H16373   8.283   8.462   1.019  0.3173 -1.7330  2.7652
  882MOL0     H16374   8.126   8.519   0.959 -0.3417  1.2128 -0.2566
  882MOL0     H16375   8.165   8.281   1.148  2.2644  2.7579  0.7721
  882MOL0     H16376   8.009   8.331   1.067  1.0024  0.3247 -1.7665
  882MOL0     H16377   7.893   8.569   1.103  1.6278 -0.0226 -0.4127
  882MOL0     H16378   7.880   8.808   1.287 -0.9037  0.0373 -0.7123
  882MOL0     H16379   7.860   8.754   1.456 -4.0410  0.1213  1.2880
  882MOL0     H16380   7.653   8.633   1.389 -1.6810  0.2445 -1.9832
  882MOL0     H16381   7.675   8.671   1.217  0.8642  1.6568 -0.2837
  882MOL0     H16382   7.512   8.800   1.381 -1.5033 -1.0869 -1.8116
  882MOL0     H16383   7.662   8.884   1.419 -1.0467 -1.6909  2.1704
  882MOL0     H16384   7.554   8.868   1.133 -1.2897  4.8523 -2.2952
  882MOL0     H16385   7.692   8.958   1.185  0.1244 -3.3540 -3.1474
  882MOL0     H16386   7.342   9.190   1.252  0.4169  0.5161 -1.5033
  882MOL0     H16387   7.371   9.433   1.311 -3.1429 -3.1848  1.2186
  882MOL0     H16388   7.572   9.785   1.579  2.2269 -2.0382 -0.1900
  882MOL0     H16389   7.594  10.019   1.567 -0.6817 -3.4532  1.2014
  882MOL0     H16390   7.785  10.241   1.604 -0.9444 -1.0152  0.3327
  882MOL0     H16391   7.630  10.250   1.535  0.4194  0.1319  0.4024
  882MOL0     H16392   7.707  10.466   1.514  2.2282  1.2306 -0.5696
  882MOL0     H16393   7.717  10.418   1.350 -1.5362 -0.3312  0.1796
  882MOL0     H16394   7.972  10.409   1.522 -0.3597 -1.1136  1.2702
  882MOL0     H16395   7.904  10.544   1.431 -1.5629 -0.1260 -2.0824
  882MOL0     H16396   7.972  10.281   1.298  2.0190 -0.2986  0.0191
  882MOL0     H16397   7.905  10.425   1.222  0.2778 -0.9464 -0.8713
  882MOL0     H16398   8.150  10.384   1.209 -1.0637  0.6097 -1.0045
  882MOL0     H16399   8.182  10.401   1.387  1.7379 -0.7810 -0.1789
  882MOL0     H16400   8.113  10.642   1.376  0.6390  0.2194  0.7037
  882MOL0     H16401   8.076  10.634   1.206  0.6965  0.4932  0.0704
  882MOL0     H16402   8.349  10.534   1.261 -1.0335 -1.1685  1.5484
  882MOL0     H16403   8.298  10.645   1.139  1.4755 -2.7084  0.2612
  882MOL0     H16404   8.269  10.829   1.324 -0.6302  0.0995 -3.8099
  882MOL0     H16405   8.431  10.767   1.291 -0.8814  0.7140 -2.1548
  882MOL0     H16406   7.938   9.983   1.316 -0.0907 -1.0968  0.3785
  882MOL0     H16407   7.910   9.732   1.341  0.8300 -0.2788  3.0562
  882MOL0     H16408   7.778   9.350   1.407  1.7039  0.7813 -4.9204
  882MOL0     H16409   7.742   9.114   1.361  0.1394  0.5456  0.7494
  882MOL0     H16410   7.873   7.946   0.872 -2.9788 -1.7313  2.9624
  882MOL0     H16411   7.828   7.703   0.946  0.1354 -3.9835 -1.3572
  882MOL0     H16412   7.505   7.318   0.772  2.0932  2.4210 -0.9810
  882MOL0     H16413   7.457   7.088   0.861 -1.6059  3.3761  2.9823
  882MOL0     H16414   7.676   6.747   0.956 -0.4220 -0.3998  0.3200
  882MOL0     H16415   7.706   6.856   0.818  0.1395 -0.6776 -0.5602
  882MOL0     H16416   7.430   6.785   0.917  2.3932  3.6967  4.7496
  882MOL0     H16417   7.472   6.887   0.778  0.6353  1.0142  1.6382
  882MOL0     H16418   7.626   6.687   0.703  1.2500  2.2433  3.6233
  882MOL0     H16419   7.478   6.705   0.635  1.4847  2.6972  0.3142
  882MOL0     H16420   7.372   6.552   0.813 -0.1543  2.1642 -0.9444
  882MOL0     H16421   7.488   6.490   0.677  2.6684  3.7461 -2.4547
  882MOL0     H16422   7.692   6.366   1.007 -0.9080 -0.6831 -0.7026
  882MOL0     H16423   7.859   7.063   0.995 -1.6623 -2.9865 -0.6681
  882MOL0     H16424   7.904   7.281   0.916  1.4453 -0.9375 -1.2239
  883MOL0     O16425   2.436   7.509   6.391 -0.3929 -0.4532 -0.2818
  883MOL0     C16426   2.400   7.495   6.510 -0.1604  0.9673  0.5145
  883MOL0     O16427   2.463   7.421   6.605 -0.6975 -0.2750 -0.0658
  883MOL0     C16428   2.579   7.360   6.570  0.0841 -0.2240  0.0457
  883MOL0     C16429   2.694   7.380   6.657  0.3221 -0.3327 -0.2376
  883MOL0     C16430   2.824   7.324   6.622 -0.0711 -0.2923 -1.1145
  883MOL0     C16431   2.838   7.253   6.508  0.9194  0.7302  0.4447
  883MOL0     O16432   2.963   7.194   6.497 -0.5214 -0.5934  0.5359
  883MOL0     C16433   3.028   7.200   6.371 -0.3419  0.0552 -0.2202
  883MOL0     C16434   3.168   7.149   6.404  0.9250  0.2676 -0.2489
  883MOL0     C16435   3.245   7.133   6.275  0.3530  0.6625  0.6980
  883MOL0     C16436   3.399   7.102   6.289 -1.2221  0.0153 -0.5448
  883MOL0     C16437   3.448   7.005   6.178  1.9146  0.3656  0.4123
  883MOL0     C16438   3.442   7.082   6.040 -0.2812  0.0947 -0.0991
  883MOL0     C16439   3.514   7.002   5.932  0.0666  0.2099 -0.0542
  883MOL0     C16440   3.500   7.063   5.801 -0.7740 -0.3003  0.0144
  883MOL0     N16441   3.573   6.984   5.699  0.4013  0.1276 -0.5149
  883MOL0     C16442   3.636   7.048   5.589 -0.9377  0.4371  1.1360
  883MOL0     C16443   3.668   6.952   5.504  0.0840  0.1498 -0.4701
  883MOL0     C16444   3.745   6.978   5.380  0.0084 -0.1090  0.5101
  883MOL0     C16445   3.891   6.921   5.385  0.3184 -0.7585  0.4756
  883MOL0     C16446   3.972   6.932   5.255 -0.2207 -0.3863 -0.1680
  883MOL0     C16447   4.119   6.874   5.280  0.2516  0.6793  0.2721
  883MOL0     O16448   4.201   6.953   5.366  0.4160  0.2784 -0.5877
  883MOL0     C16449   4.295   7.035   5.319 -0.2208 -0.0153  0.6840
  883MOL0     C16450   4.335   7.051   5.181 -0.0238 -0.2072 -1.0172
  883MOL0     C16451   4.403   7.167   5.139  0.5816  0.5018  0.0079
  883MOL0     C16452   4.463   7.248   5.232 -0.3715 -0.5179 -0.0966
  883MOL0     C16453   4.551   7.358   5.200  0.2746  0.7392  0.3594
  883MOL0     O16454   4.613   7.421   5.297 -0.0018  0.2286 -0.4139
  883MOL0     C16455   4.719   7.499   5.262 -0.0965  0.1023 -0.4642
  883MOL0     C16456   4.726   7.616   5.337  0.5007 -0.3832  0.2296
  883MOL0     C16457   4.831   7.710   5.313 -1.2468 -0.0908 -0.5183
  883MOL0     C16458   4.927   7.684   5.217 -0.2756  0.0762  0.4428
  883MOL0     O16459   5.021   7.782   5.195  0.2687 -0.5291  0.1221
  883MOL0     C16460   5.126   7.786   5.293 -0.6142  0.0923  0.0622
  883MOL0     C16461   5.252   7.840   5.233  0.4058  0.2136 -0.2808
  883MOL0     C16462   5.233   7.990   5.215 -0.8985 -0.2049 -0.1046
  883MOL0     C16463   5.361   8.041   5.134 -0.4702 -0.0114 -0.1495
  883MOL0     C16464   5.368   8.191   5.132  0.8669 -0.0602 -0.5711
  883MOL0     C16465   5.240   8.266   5.092  0.4566  0.0266  0.5893
  883MOL0     C16466   5.230   8.257   4.938  0.0927  1.1914  0.6552
  883MOL0     C16467   5.121   8.353   4.886  0.2438 -0.5320  0.2059
  883MOL0    Cl16468   5.199   8.512   4.853  0.3821 -0.1913 -0.1806
  883MOL0     C16469   4.919   7.566   5.146 -0.1273  0.1200 -1.0078
  883MOL0     C16470   4.814   7.477   5.165  0.1660  0.3013  0.3272
  883MOL0     O16471   4.570   7.371   5.077 -0.9845  0.0963 -0.1494
  883MOL0     C16472   4.416   7.231   5.363 -0.8466  0.9927 -0.4447
  883MOL0     C16473   4.333   7.131   5.400  0.0420  0.5058 -0.2209
  883MOL0     N16474   3.634   6.834   5.560 -0.5278 -0.1615  0.2796
  883MOL0     N16475   3.566   6.851   5.671  0.2703  0.3862  0.1147
  883MOL0     C16476   2.725   7.217   6.429 -1.2082  0.9626 -0.6424
  883MOL0     C16477   2.603   7.278   6.458  0.1183 -0.0946  1.1047
  883MOL0     C16478   2.264   7.544   6.554  1.0711  0.1909  0.2209
  883MOL0     C16479   2.227   7.552   6.686 -0.4695 -0.4219 -0.3239
  883MOL0     C16480   2.106   7.606   6.717  1.3383 -0.4054 -0.4404
  883MOL0     C16481   2.012   7.653   6.615 -0.4902  0.5196  0.0435
  883MOL0     O16482   1.897   7.701   6.657  0.5778 -0.0825 -1.2784
  883MOL0     C16483   1.898   7.849   6.661 -0.1637 -0.4744 -0.8297
  883MOL0     C16484   1.789   7.916   6.593  0.4505  0.2824  0.8189
  883MOL0     C16485   1.789   7.915   6.440 -0.4559  0.4300  0.1218
  883MOL0     C16486   1.721   8.029   6.384  0.0797 -0.4432  0.0569
  883MOL0     C16487   1.572   8.011   6.420  0.4307  0.5046  0.6880
  883MOL0     C16488   1.454   8.015   6.440 -0.4986  0.4568 -0.1054
  883MOL0     C16489   2.054   7.644   6.479  0.0022 -0.4325 -0.5617
  883MOL0     C16490   2.186   7.611   6.455  0.6567 -0.1062  1.5420
  883MOL0     H16491   2.679   7.445   6.742  1.8575  1.1677 -1.0543
  883MOL0     H16492   2.920   7.340   6.670 -0.0796  2.9473 -1.9492
  883MOL0     H16493   3.025   7.303   6.334  0.4098 -0.5135 -1.9783
  883MOL0     H16494   2.987   7.138   6.291 -0.8996 -1.0350  0.8939
  883MOL0     H16495   3.160   7.052   6.455  2.0327  0.2496 -0.0773
  883MOL0     H16496   3.210   7.224   6.473 -0.1943  0.9390 -0.2670
  883MOL0     H16497   3.234   7.209   6.197  1.2543 -0.0097 -0.1092
  883MOL0     H16498   3.202   7.045   6.227  1.2954  0.7023 -0.2502
  883MOL0     H16499   3.459   7.193   6.295 -0.6942 -0.4161  1.4752
  883MOL0     H16500   3.421   7.047   6.381 -2.1053 -2.7326 -1.8646
  883MOL0     H16501   3.391   6.911   6.180  1.9898  0.3250  0.9738
  883MOL0     H16502   3.550   6.972   6.200  2.0068  0.3847  0.0098
  883MOL0     H16503   3.489   7.179   6.063 -0.8330  0.6975 -1.4407
  883MOL0     H16504   3.338   7.106   6.017 -0.3024  2.6923  2.1852
  883MOL0     H16505   3.621   6.985   5.948 -0.0053  0.5173  0.7852
  883MOL0     H16506   3.457   6.909   5.926 -0.9012  0.7804  0.2031
  883MOL0     H16507   3.554   7.156   5.822 -1.3912 -0.5319  3.0379
  883MOL0     H16508   3.395   7.072   5.770 -0.5431 -0.1223 -0.7384
  883MOL0     H16509   3.653   7.151   5.560 -1.4303  0.0532 -0.5779
  883MOL0     H16510   3.744   7.085   5.358 -1.1530 -0.6420 -2.5312
  883MOL0     H16511   3.691   6.938   5.294  1.1481  0.6754 -0.6028
  883MOL0     H16512   3.884   6.815   5.409 -1.7978 -1.1468 -1.4324
  883MOL0     H16513   3.947   6.978   5.460  0.6763 -2.6604  1.7000
  883MOL0     H16514   3.926   6.871   5.177  1.7171 -2.2315  0.0307
  883MOL0     H16515   3.991   7.033   5.219 -0.5336 -0.2554  0.0274
  883MOL0     H16516   4.169   6.857   5.184  0.6583 -1.2872  0.7773
  883MOL0     H16517   4.112   6.772   5.319 -0.3894 -0.2363 -2.0725
  883MOL0     H16518   4.301   6.985   5.103  2.2633  1.9701 -4.0928
  883MOL0     H16519   4.411   7.185   5.032  3.3647 -0.4200 -0.0179
  883MOL0     H16520   4.660   7.636   5.420 -1.5571  0.2173 -1.4608
  883MOL0     H16521   4.822   7.803   5.368  0.2348  0.0501 -0.4733
  883MOL0     H16522   5.147   7.692   5.345  1.1216  1.6725  2.4494
  883MOL0     H16523   5.099   7.848   5.379 -1.2020  0.4292 -0.3578
  883MOL0     H16524   5.281   7.782   5.145  3.5776 -0.3236  1.0077
  883MOL0     H16525   5.328   7.814   5.307  0.4557 -1.0632 -0.7653
  883MOL0     H16526   5.207   8.032   5.312 -1.0265 -1.0849  0.2584
  883MOL0     H16527   5.144   8.012   5.156 -1.0512 -0.3413  0.0719
  883MOL0     H16528   5.453   7.990   5.164 -2.9269 -4.2557  1.0214
  883MOL0     H16529   5.351   8.013   5.029  1.0673  3.3132 -1.3009
  883MOL0     H16530   5.458   8.218   5.077  1.2271  1.0223  0.5128
  883MOL0     H16531   5.383   8.226   5.235 -0.5818  2.0687 -1.0089
  883MOL0     H16532   5.247   8.373   5.115  3.8154  0.4713 -1.6708
  883MOL0     H16533   5.146   8.235   5.138  0.0267 -1.8141 -1.3675
  883MOL0     H16534   5.329   8.280   4.898  0.6186 -1.7662  0.0837
  883MOL0     H16535   5.187   8.159   4.918 -1.6932  1.2728  3.4553
  883MOL0     H16536   5.027   8.354   4.942  0.2896  2.6450  0.3853
  883MOL0     H16537   5.084   8.321   4.788  0.4090 -0.0821 -0.0051
  883MOL0     H16538   5.003   7.558   5.078  1.5902 -0.3954  1.0585
  883MOL0     H16539   4.825   7.377   5.123 -1.3097  0.8581 -1.4951
  883MOL0     H16540   4.450   7.302   5.437  0.4390  0.8049 -0.8256
  883MOL0     H16541   4.290   7.145   5.499  1.4941  2.1966  0.2121
  883MOL0     H16542   2.738   7.156   6.340 -2.3992  0.9834 -0.8487
  883MOL0     H16543   2.518   7.258   6.393  0.4538 -1.7206  1.1052
  883MOL0     H16544   2.288   7.515   6.769  0.5348  1.4721 -0.1587
  883MOL0     H16545   2.097   7.607   6.826 -2.7715  1.8004 -0.6032
  883MOL0     H16546   1.988   7.902   6.630 -1.9540  1.7519 -2.5294
  883MOL0     H16547   1.886   7.883   6.764 -0.6507 -0.7288 -0.7941
  883MOL0     H16548   1.691   7.882   6.629  1.0242 -4.7383 -1.4869
  883MOL0     H16549   1.813   8.017   6.629  1.9638 -0.4045  1.8473
  883MOL0     H16550   1.751   7.816   6.412 -0.8014  1.1203 -2.0062
  883MOL0     H16551   1.894   7.925   6.412 -1.2093  2.0180 -2.4729
  883MOL0     H16552   1.752   8.122   6.432 -1.9842  0.0242  0.5421
  883MOL0     H16553   1.739   8.035   6.276  0.1627 -0.2618  0.0815
  883MOL0     H16554   1.348   8.007   6.453 -0.4161  1.3888  1.2894
  883MOL0     H16555   1.991   7.682   6.399  2.5102 -2.1790 -3.5981
  883MOL0     H16556   2.226   7.617   6.354 -1.1035  1.2965  0.8843
  884MOL0     O16557   2.549  10.223  10.601  0.0319 -0.0787 -0.1326
  884MOL0     C16558   2.616  10.190  10.694 -0.2261 -0.4981 -0.1396
  884MOL0     O16559   2.569  10.148  10.824  0.3323 -0.2691 -0.6797
  884MOL0     C16560   2.478  10.228  10.890  0.3006  0.2001 -0.9478
  884MOL0     C16561   2.407  10.170  10.998 -0.5319  0.2134 -0.4894
  884MOL0     C16562   2.318  10.253  11.072  0.1312  0.1455 -0.1202
  884MOL0     C16563   2.298  10.380  11.038 -0.2763  0.4624 -0.7638
  884MOL0     O16564   2.188  10.442  11.090  0.0557 -0.2520  0.9865
  884MOL0     C16565   2.075  10.430  11.006 -0.1442 -0.0470 -0.0037
  884MOL0     C16566   1.954  10.478  11.089  0.3894  0.0845 -0.3770
  884MOL0     C16567   1.829  10.436  11.009 -0.2942 -0.5093 -0.2210
  884MOL0     C16568   1.715  10.385  11.095 -0.7961  0.0019  0.8831
  884MOL0     C16569   1.588  10.371  11.006  0.4079  1.5831 -1.0058
  884MOL0     C16570   1.469  10.348  11.110 -0.1748  0.1226  0.5478
  884MOL0     C16571   1.334  10.353  11.059 -0.0511 -1.1956  0.5894
  884MOL0     C16572   1.291  10.487  10.990  0.5529 -0.0594 -0.1660
  884MOL0     N16573   1.303  10.598  11.088 -0.2287  0.3121 -0.6662
  884MOL0     C16574   1.404  10.700  11.071 -0.0061  0.5289 -1.0793
  884MOL0     C16575   1.382  10.775  11.185  0.2782  0.0786 -1.1552
  884MOL0     C16576   1.483  10.877  11.223 -0.2830 -0.3015  0.1228
  884MOL0     C16577   1.416  11.016  11.244 -0.6977 -0.4968  0.0443
  884MOL0     C16578   1.498  11.128  11.313  0.0875  0.1449  0.3061
  884MOL0     C16579   1.419  11.257  11.329  0.1505  0.3893 -0.1256
  884MOL0     O16580   1.498  11.367  11.382 -0.7016 -0.6013 -0.0864
  884MOL0     C16581   1.496  11.410  11.517 -0.4803 -0.2192  0.5810
  884MOL0     C16582   1.568  11.529  11.549  0.1145  0.3188  0.5173
  884MOL0     C16583   1.571  11.577  11.679  0.0258  0.1733 -0.6022
  884MOL0     C16584   1.505  11.510  11.786  0.1855 -0.8018 -0.8372
  884MOL0     C16585   1.489  11.557  11.918 -0.1957  0.4742 -0.0002
  884MOL0     O16586   1.547  11.670  11.945  0.5379 -0.0994 -0.1584
  884MOL0     C16587   1.524  11.714  12.078  0.5903 -0.1565 -0.2625
  884MOL0     C16588   1.508  11.853  12.085  0.7892  0.2745  0.4192
  884MOL0     C16589   1.482  11.913  12.207  0.1989  0.3418 -0.6613
  884MOL0     C16590   1.493  11.839  12.319  0.0644 -0.3724  0.1749
  884MOL0     O16591   1.440  11.899  12.429 -0.7220  0.1677 -0.2910
  884MOL0     C16592   1.537  11.911  12.535 -0.8133 -0.4057 -0.3282
  884MOL0     C16593   1.512  12.028  12.629 -0.2862  0.2226  1.1442
  884MOL0     C16594   1.359  12.030  12.659  0.0535  1.3713 -0.5964
  884MOL0     C16595   1.321  12.107  12.776 -0.0967  0.0332 -0.2120
  884MOL0     C16596   1.167  12.107  12.782 -0.1070  0.4346  0.5507
  884MOL0     C16597   1.122  12.186  12.902 -0.9738 -0.8325  0.9080
  884MOL0     C16598   0.982  12.207  12.910  0.7526  0.0681 -0.5056
  884MOL0     C16599   0.913  12.293  12.811 -0.5681  0.0743 -1.1883
  884MOL0    Cl16600   0.757  12.336  12.884  0.2910 -0.2472  0.5715
  884MOL0     C16601   1.515  11.700  12.313 -0.2756  0.5285  1.1055
  884MOL0     C16602   1.539  11.636  12.190  0.0348 -0.5698 -0.2067
  884MOL0     O16603   1.408  11.491  11.988  0.3530  0.0656 -0.4167
  884MOL0     C16604   1.443  11.384  11.750 -0.5519 -0.9585 -0.1689
  884MOL0     C16605   1.434  11.338  11.618 -0.2570 -0.4576 -0.3484
  884MOL0     N16606   1.276  10.727  11.253 -0.1566 -0.1800 -0.5178
  884MOL0     N16607   1.224  10.620  11.190 -0.2170 -0.3133 -0.1547
  884MOL0     C16608   2.362  10.438  10.928 -0.3916  0.7052  0.2121
  884MOL0     C16609   2.458  10.358  10.863 -0.2532 -0.0867  0.0444
  884MOL0     C16610   2.762  10.204  10.677 -0.2085 -0.0156  0.8828
  884MOL0     C16611   2.813  10.274  10.566  0.0100 -0.5693  0.6272
  884MOL0     C16612   2.951  10.287  10.551 -0.7768  0.3126  0.0791
  884MOL0     C16613   3.041  10.219  10.634 -1.1887  0.0506  0.4114
  884MOL0     O16614   3.178  10.225  10.610  0.0036  0.4921  0.2027
  884MOL0     C16615   3.238  10.095  10.562 -0.4619 -0.5020  0.4540
  884MOL0     C16616   3.385  10.118  10.493  0.0392  0.9418  0.8600
  884MOL0     C16617   3.472   9.998  10.511 -0.4922  0.1771 -0.4650
  884MOL0     C16618   3.599  10.009  10.431 -0.4363 -0.2511  1.0738
  884MOL0     C16619   3.697  10.091  10.503 -0.4020  0.3075  0.1486
  884MOL0     C16620   3.766  10.152  10.582 -0.6633 -0.0372 -0.1271
  884MOL0     C16621   2.989  10.140  10.744  0.7609 -1.2320 -0.0375
  884MOL0     C16622   2.849  10.141  10.768 -0.5171 -0.9976  0.1347
  884MOL0     H16623   2.419  10.064  11.018  0.8437  1.0989  4.8082
  884MOL0     H16624   2.252  10.200  11.140 -0.5257 -1.0349 -1.5960
  884MOL0     H16625   2.066  10.323  10.986 -1.2266 -0.2981  1.6711
  884MOL0     H16626   2.084  10.483  10.911 -1.7284 -0.8671 -0.6505
  884MOL0     H16627   1.952  10.587  11.098 -0.4487  0.5282 -4.1758
  884MOL0     H16628   1.950  10.425  11.185 -2.1929 -1.2623 -1.1356
  884MOL0     H16629   1.836  10.365  10.926 -0.0775 -1.7476  0.8229
  884MOL0     H16630   1.806  10.529  10.955 -1.5620  1.6706  3.6856
  884MOL0     H16631   1.753  10.295  11.143  2.8175 -0.0473 -1.6472
  884MOL0     H16632   1.698  10.459  11.174 -0.0785 -0.4441  1.4737
  884MOL0     H16633   1.595  10.276  10.952 -0.8938 -1.2411  3.3299
  884MOL0     H16634   1.586  10.461  10.944 -0.2231  0.0664 -3.3017
  884MOL0     H16635   1.472  10.419  11.193 -0.9696 -0.9931  1.5796
  884MOL0     H16636   1.486  10.250  11.156  1.3846 -1.8163 -3.6288
  884MOL0     H16637   1.330  10.274  10.983  3.1933 -2.2588  1.3542
  884MOL0     H16638   1.268  10.323  11.141  1.5668  0.7856  2.7272
  884MOL0     H16639   1.188  10.475  10.954 -1.0773  2.2298  3.1318
  884MOL0     H16640   1.355  10.507  10.904  0.1277  0.4686 -0.3677
  884MOL0     H16641   1.481  10.702  10.994  2.2197 -0.6744  0.9794
  884MOL0     H16642   1.562  10.888  11.148 -0.2256 -2.6866 -0.2324
  884MOL0     H16643   1.531  10.837  11.312  1.5573 -2.4804 -1.7220
  884MOL0     H16644   1.334  11.000  11.316 -1.2839  0.9803 -0.2661
  884MOL0     H16645   1.387  11.051  11.145 -0.1924  1.5438  0.5645
  884MOL0     H16646   1.542  11.083  11.402  3.6216  1.2386 -0.7494
  884MOL0     H16647   1.589  11.147  11.257 -1.2813 -1.4433 -2.6979
  884MOL0     H16648   1.335  11.247  11.399  1.3079  2.8215  1.7634
  884MOL0     H16649   1.386  11.286  11.228 -3.2544 -5.0314 -0.9758
  884MOL0     H16650   1.612  11.587  11.468 -0.4818  0.2568  0.1409
  884MOL0     H16651   1.626  11.665  11.710  2.0887 -1.8864  2.1283
  884MOL0     H16652   1.505  11.910  11.993 -0.7443 -2.0347 -1.0996
  884MOL0     H16653   1.454  12.018  12.219 -0.2396  0.0718  1.0169
  884MOL0     H16654   1.641  11.918  12.503 -0.5812 -2.0630 -0.0216
  884MOL0     H16655   1.531  11.819  12.595 -1.2538  0.4042  0.9076
  884MOL0     H16656   1.542  12.117  12.572 -1.2245  0.5013  1.0709
  884MOL0     H16657   1.576  12.013  12.716  2.0195  0.5286 -0.4033
  884MOL0     H16658   1.328  11.927  12.679 -0.0031  1.1582 -1.6745
  884MOL0     H16659   1.308  12.069  12.570 -0.6868  1.5124 -0.1117
  884MOL0     H16660   1.354  12.057  12.868  0.9039  1.2223  0.1079
  884MOL0     H16661   1.356  12.210  12.787  0.8106 -0.4675  2.4414
  884MOL0     H16662   1.131  12.004  12.789 -1.3833  0.2462 -4.6568
  884MOL0     H16663   1.130  12.143  12.685 -0.5769  1.5854  1.1358
  884MOL0     H16664   1.172  12.283  12.914  0.3707 -1.3442 -0.3257
  884MOL0     H16665   1.137  12.127  12.993 -0.8427  0.3494  1.6769
  884MOL0     H16666   0.925  12.114  12.920  0.6099  0.1229 -0.7953
  884MOL0     H16667   0.978  12.266  13.001  1.8963 -1.7204  0.7754
  884MOL0     H16668   0.898  12.247  12.713 -2.4260  2.1261 -1.9533
  884MOL0     H16669   0.970  12.385  12.800 -0.2166 -0.0357 -0.3768
  884MOL0     H16670   1.510  11.642  12.405 -2.8943 -2.2909 -0.6334
  884MOL0     H16671   1.563  11.531  12.184 -0.2391 -0.6225 -0.4064
  884MOL0     H16672   1.375  11.340  11.822 -0.4520  0.5715  0.9054
  884MOL0     H16673   1.379  11.249  11.591  0.1845 -0.6466 -0.6294
  884MOL0     H16674   2.335  10.537  10.891 -0.8665 -0.4193 -2.7799
  884MOL0     H16675   2.514  10.397  10.780  2.6864 -0.8261  1.5397
  884MOL0     H16676   2.768  10.319  10.478  2.6530 -0.7563 -0.9462
  884MOL0     H16677   2.993  10.345  10.469  0.1132 -2.6000 -1.6701
  884MOL0     H16678   3.176  10.027  10.503  0.7355 -1.6269  0.4248
  884MOL0     H16679   3.251  10.032  10.650 -2.8458 -0.2217  1.0743
  884MOL0     H16680   3.376  10.150  10.388  1.7282 -0.3411  0.2727
  884MOL0     H16681   3.431  10.205  10.542 -0.0408  2.0173 -0.8641
  884MOL0     H16682   3.400   9.917  10.499 -1.2229  0.8055 -0.4565
  884MOL0     H16683   3.509   9.986  10.613  0.7097 -0.1394 -0.9181
  884MOL0     H16684   3.646   9.912  10.417  0.1402 -0.2143  2.6340
  884MOL0     H16685   3.575  10.048  10.331 -0.0447  0.6258  1.3086
  884MOL0     H16686   3.816  10.221  10.647 -0.8759 -0.4373  0.4646
  884MOL0     H16687   3.056  10.082  10.806  0.3450 -2.4874 -0.7304
  884MOL0     H16688   2.809  10.087  10.854 -0.1779 -0.0301  0.9154
  885MOL0     O16689   8.068   3.629   9.974  0.1177  0.0409 -0.3591
  885MOL0     C16690   8.146   3.598   9.892  0.4426  0.1306 -0.3551
  885MOL0     O16691   8.133   3.622   9.763  0.3053  0.0159  0.3112
  885MOL0     C16692   8.032   3.712   9.719  0.0497  0.6425  0.3959
  885MOL0     C16693   7.960   3.672   9.602  0.3484  0.1899  0.6967
  885MOL0     C16694   7.869   3.765   9.552 -0.7077  0.2449  0.4193
  885MOL0     C16695   7.856   3.896   9.607  0.2092  0.1339 -0.4728
  885MOL0     O16696   7.761   3.968   9.536  1.0171 -0.4737  0.3226
  885MOL0     C16697   7.691   4.076   9.605 -0.2866 -1.0065  0.2277
  885MOL0     C16698   7.560   4.114   9.531 -0.3176  0.2949  0.8089
  885MOL0     C16699   7.470   4.220   9.597  1.2748 -1.2498 -1.0277
  885MOL0     C16700   7.453   4.202   9.743 -0.0827 -0.5850 -0.5641
  885MOL0     C16701   7.360   4.083   9.774 -0.4193 -0.0183  0.2210
  885MOL0     C16702   7.362   4.055   9.917  0.6740  0.2725  0.5718
  885MOL0     C16703   7.243   3.956   9.953 -0.5614 -0.5559  0.3906
  885MOL0     C16704   7.107   4.029   9.956 -0.9604  0.7664  0.2671
  885MOL0     N16705   6.996   3.931  10.002 -0.9814  0.4473 -0.4004
  885MOL0     C16706   6.927   3.827   9.930 -0.0569  0.3635 -0.1110
  885MOL0     C16707   6.867   3.741  10.022 -0.7578 -0.3300  0.2753
  885MOL0     C16708   6.790   3.619   9.977  0.3850  0.8650  0.3694
  885MOL0     C16709   6.676   3.568  10.076  1.0347 -0.2240  0.6141
  885MOL0     C16710   6.577   3.450  10.039  0.0956 -0.7768  0.7331
  885MOL0     C16711   6.658   3.323   9.996 -1.2461  0.0410 -0.1158
  885MOL0     O16712   6.583   3.207   9.959  0.2314  1.0677  0.7516
  885MOL0     C16713   6.517   3.203   9.838 -0.2819 -0.5402  0.5627
  885MOL0     C16714   6.576   3.168   9.715 -0.0746  0.6996  0.5899
  885MOL0     C16715   6.503   3.158   9.597 -0.5354 -0.8873  0.2627
  885MOL0     C16716   6.365   3.187   9.604 -0.2999 -0.2200 -0.2403
  885MOL0     C16717   6.279   3.153   9.486 -0.4938  0.4169  0.1134
  885MOL0     O16718   6.345   3.093   9.371  0.3250  0.0420 -0.3865
  885MOL0     C16719   6.272   3.015   9.288 -0.8915  0.0064 -0.4435
  885MOL0     C16720   6.162   2.936   9.320  0.1035  0.0811  0.0952
  885MOL0     C16721   6.107   2.839   9.226  0.3821 -0.3457 -0.1436
  885MOL0     C16722   6.162   2.835   9.106  0.4663  0.6216  0.8102
  885MOL0     O16723   6.084   2.759   9.017 -0.7440  0.9640 -0.2177
  885MOL0     C16724   5.978   2.837   8.962 -0.2815 -0.1016 -0.8385
  885MOL0     C16725   5.915   2.771   8.839  0.2900 -0.7901  0.5908
  885MOL0     C16726   5.831   2.644   8.864 -0.3353 -0.0772  0.3159
  885MOL0     C16727   5.914   2.533   8.924  0.6765  0.5513  0.3841
  885MOL0     C16728   5.822   2.409   8.930  0.6537  0.7065  0.0937
  885MOL0     C16729   5.897   2.290   8.989  0.2071  0.2122 -0.7612
  885MOL0     C16730   5.878   2.269   9.142 -1.3003 -0.2902 -0.9444
  885MOL0     C16731   5.940   2.125   9.187  0.0061 -0.9781 -0.3747
  885MOL0    Cl16732   6.120   2.126   9.138  0.3206 -0.3957 -0.2929
  885MOL0     C16733   6.276   2.911   9.066 -0.7944 -0.1490  0.6061
  885MOL0     C16734   6.335   2.998   9.158  0.4804  0.3562  0.5833
  885MOL0     O16735   6.162   3.198   9.490 -1.0031  1.1996 -0.2522
  885MOL0     C16736   6.309   3.236   9.728  0.1315  1.4014 -0.2888
  885MOL0     C16737   6.379   3.237   9.846 -0.1776  0.2672 -0.8019
  885MOL0     N16738   6.928   3.774  10.140  0.6170  0.3608  0.6986
  885MOL0     N16739   6.993   3.884  10.126 -0.4137  0.3333  0.4366
  885MOL0     C16740   7.932   3.929   9.721 -0.3875  0.9814  0.4770
  885MOL0     C16741   8.014   3.836   9.767 -0.1703  0.0982 -0.3488
  885MOL0     C16742   8.265   3.536   9.951 -1.1138  0.6340  0.1992
  885MOL0     C16743   8.283   3.518  10.086 -0.1060 -0.5082  0.2176
  885MOL0     C16744   8.384   3.428  10.133  0.8533 -0.5780 -0.3545
  885MOL0     C16745   8.471   3.372  10.046 -0.6745 -0.2304  0.0237
  885MOL0     O16746   8.579   3.304  10.098 -0.5686 -0.0471 -0.6606
  885MOL0     C16747   8.646   3.214  10.008  0.5970  0.6940 -0.0521
  885MOL0     C16748   8.764   3.146  10.069  0.0539  0.1082  0.1870
  885MOL0     C16749   8.745   3.108  10.217  0.5082 -0.4849 -1.2574
  885MOL0     C16750   8.856   3.008  10.262 -0.1137 -0.7069 -0.2862
  885MOL0     C16751   8.993   3.068  10.270  0.2946  0.1519  0.1386
  885MOL0     C16752   9.102   3.112  10.294 -0.8750  0.4778 -1.0403
  885MOL0     C16753   8.447   3.395   9.904 -0.1752  1.1067 -0.0648
  885MOL0     C16754   8.338   3.473   9.858 -0.0068  0.7687  1.2067
  885MOL0     H16755   7.978   3.580   9.548  3.9721  1.4301 -0.4981
  885MOL0     H16756   7.805   3.740   9.468  1.5648  0.7200 -1.5506
  885MOL0     H16757   7.749   4.165   9.633  1.4358 -0.5154 -4.0772
  885MOL0     H16758   7.667   4.024   9.698  0.0565 -0.8993  0.3765
  885MOL0     H16759   7.506   4.019   9.521  3.0250 -1.4625 -3.5033
  885MOL0     H16760   7.589   4.137   9.428 -1.4563 -4.0049 -0.7124
  885MOL0     H16761   7.370   4.218   9.553 -0.5745 -2.2160  2.7318
  885MOL0     H16762   7.521   4.314   9.578  0.1899 -0.4482 -0.1050
  885MOL0     H16763   7.546   4.202   9.800 -0.5883  2.2263  0.4313
  885MOL0     H16764   7.402   4.290   9.783 -1.1840 -1.3939 -0.1384
  885MOL0     H16765   7.404   3.996   9.724  3.0204  1.4939  0.3342
  885MOL0     H16766   7.262   4.115   9.739  0.7703  0.7241 -2.7253
  885MOL0     H16767   7.344   4.147   9.973 -0.8816 -0.2785  1.0306
  885MOL0     H16768   7.462   4.019   9.941  0.1281 -3.2466 -1.6646
  885MOL0     H16769   7.241   3.878   9.877 -2.2386 -1.7192  1.5477
  885MOL0     H16770   7.261   3.906  10.049 -3.1587 -1.0996  0.6888
  885MOL0     H16771   7.085   4.077   9.860  1.1877 -1.8179 -1.6667
  885MOL0     H16772   7.112   4.112  10.028  3.0503 -0.0922  1.2280
  885MOL0     H16773   6.930   3.817   9.822  0.6641  0.1667 -0.0826
  885MOL0     H16774   6.873   3.548   9.970 -0.1568  0.3028 -0.5188
  885MOL0     H16775   6.751   3.649   9.879 -0.2067 -0.6926  0.1053
  885MOL0     H16776   6.610   3.653  10.092  1.4781  0.0269  1.1243
  885MOL0     H16777   6.727   3.520  10.160  3.5252 -3.4853 -2.4502
  885MOL0     H16778   6.513   3.434  10.126 -1.0060 -0.6578 -0.0292
  885MOL0     H16779   6.506   3.476   9.959 -1.1640 -1.2064  1.6764
  885MOL0     H16780   6.713   3.303  10.089 -3.9045 -1.1108  1.3275
  885MOL0     H16781   6.728   3.342   9.914 -0.9794  0.0520  0.1100
  885MOL0     H16782   6.676   3.126   9.704 -1.2099 -2.3932  1.3387
  885MOL0     H16783   6.559   3.122   9.511  0.4365  1.1432 -0.0060
  885MOL0     H16784   6.106   2.939   9.412 -3.4984  2.8408 -1.9337
  885MOL0     H16785   6.015   2.785   9.241  0.1508 -0.1742 -0.9407
  885MOL0     H16786   6.010   2.940   8.947  0.0516  0.5418  3.1811
  885MOL0     H16787   5.897   2.848   9.034 -2.3407 -2.8095 -2.5381
  885MOL0     H16788   5.990   2.742   8.766  0.0328 -3.2039  1.1951
  885MOL0     H16789   5.849   2.844   8.791 -0.5347 -2.6552 -1.2140
  885MOL0     H16790   5.780   2.611   8.773  1.3188  0.9865 -1.0430
  885MOL0     H16791   5.751   2.659   8.938  0.0011 -2.6425  1.2812
  885MOL0     H16792   6.006   2.506   8.871  3.0550  0.0669  4.2960
  885MOL0     H16793   5.946   2.560   9.025 -0.0738  2.8447  0.0668
  885MOL0     H16794   5.805   2.369   8.830  1.9270 -2.2446  0.9542
  885MOL0     H16795   5.731   2.433   8.984  0.6443  0.2979  0.2628
  885MOL0     H16796   6.003   2.296   8.961  0.1823  2.9111 -0.5768
  885MOL0     H16797   5.852   2.201   8.944  0.5044 -0.0543 -0.5419
  885MOL0     H16798   5.929   2.350   9.195 -0.2145 -2.6291  1.8658
  885MOL0     H16799   5.772   2.277   9.171 -0.6224  2.2982  1.2173
  885MOL0     H16800   5.897   2.039   9.135  2.5454 -1.8545 -1.1383
  885MOL0     H16801   5.937   2.113   9.295  2.6869 -2.6072 -0.3827
  885MOL0     H16802   6.328   2.890   8.974 -3.8666 -2.1455 -0.8565
  885MOL0     H16803   6.420   3.063   9.140 -0.4215  1.4993  0.3555
  885MOL0     H16804   6.203   3.258   9.720  0.3810  2.1754 -2.0241
  885MOL0     H16805   6.330   3.269   9.937  0.1583  0.7686 -0.7944
  885MOL0     H16806   7.937   4.029   9.761 -0.1334  0.5816  1.4652
  885MOL0     H16807   8.071   3.858   9.857  1.0065 -1.6764 -0.6000
  885MOL0     H16808   8.224   3.581  10.152 -2.9022 -0.9163 -1.7465
  885MOL0     H16809   8.378   3.411  10.240 -0.8572  0.2618 -0.2895
  885MOL0     H16810   8.671   3.255   9.910  0.1012 -2.0454 -1.4100
  885MOL0     H16811   8.575   3.133   9.990 -1.0175  1.5618  1.9328
  885MOL0     H16812   8.784   3.056  10.010 -0.8466 -0.0214  0.0650
  885MOL0     H16813   8.847   3.216  10.056 -0.4988  1.1789  2.0943
  885MOL0     H16814   8.653   3.050  10.208 -1.7824  2.4766  1.1583
  885MOL0     H16815   8.724   3.188  10.289 -1.6739 -2.7502  0.8097
  885MOL0     H16816   8.832   2.959  10.357  1.2524  1.5042  1.2710
  885MOL0     H16817   8.864   2.935  10.180 -3.3726 -1.9375  0.3556
  885MOL0     H16818   9.197   3.145  10.331 -0.2312 -2.6205  0.3761
  885MOL0     H16819   8.505   3.352   9.823 -1.7486  0.3493 -0.8377
  885MOL0     H16820   8.304   3.471   9.755 -0.5927  0.0393  1.4065
  886MOL0     O16821   6.750   8.527   0.346  0.1844  0.1319  0.3609
  886MOL0     C16822   6.711   8.417   0.315  0.3066 -0.7449 -0.1756
  886MOL0     O16823   6.786   8.311   0.293 -0.3212 -0.9002 -1.0301
  886MOL0     C16824   6.918   8.323   0.313 -0.7412 -0.2844  0.5512
  886MOL0     C16825   6.985   8.265   0.421 -0.0230  0.0843  0.2254
  886MOL0     C16826   7.121   8.283   0.442 -0.5392 -0.3048 -0.0486
  886MOL0     C16827   7.202   8.357   0.350 -0.1645  0.1076 -0.2491
  886MOL0     O16828   7.338   8.363   0.357 -0.5975  0.1764  0.1463
  886MOL0     C16829   7.405   8.246   0.413 -0.3250 -0.3852  0.1047
  886MOL0     C16830   7.371   8.109   0.343  0.1255 -0.7677 -0.1636
  886MOL0     C16831   7.465   7.994   0.373 -0.2267 -0.4715 -0.1159
  886MOL0     C16832   7.461   7.892   0.255 -0.1984 -0.0458  0.0039
  886MOL0     C16833   7.553   7.777   0.277  0.3685  0.4622  0.3764
  886MOL0     C16834   7.705   7.814   0.255 -0.8664  0.1801  0.0588
  886MOL0     C16835   7.795   7.691   0.251 -0.3266  0.5338 -0.3761
  886MOL0     C16836   7.792   7.612   0.128 -0.0790  0.0714 -0.6350
  886MOL0     N16837   7.892   7.510   0.141 -0.8691 -0.6492 -1.4063
  886MOL0     C16838   7.878   7.378   0.143 -0.2994  0.5400 -0.1594
  886MOL0     C16839   8.004   7.327   0.136  1.0784 -0.3092  0.3110
  886MOL0     C16840   8.026   7.183   0.145 -0.7119  0.8199  0.6711
  886MOL0     C16841   8.031   7.143   0.297 -0.6239  0.8565 -0.0816
  886MOL0     C16842   8.039   6.992   0.320  0.2393  0.0128  0.3467
  886MOL0     C16843   8.113   6.906   0.212 -0.4045 -0.2845  0.2218
  886MOL0     O16844   8.252   6.956   0.182 -0.3683 -0.2859  0.2101
  886MOL0     C16845   8.341   6.904   0.091  1.0350 -0.4329 -0.0944
  886MOL0     C16846   8.308   6.782   0.033  0.2633  0.1113 -0.6479
  886MOL0     C16847   8.381   6.730  -0.070  0.0137  0.2012  0.9236
  886MOL0     C16848   8.498   6.799  -0.116 -0.3199 -0.0812  0.0470
  886MOL0     C16849   8.584   6.758  -0.233 -0.3284 -0.1383 -0.2772
  886MOL0     O16850   8.657   6.854  -0.295  0.2379  0.2597 -0.0936
  886MOL0     C16851   8.708   6.837  -0.416 -0.1206  0.0014 -0.5719
  886MOL0     C16852   8.664   6.744  -0.516 -0.0879 -0.5181  0.4156
  886MOL0     C16853   8.735   6.740  -0.636  0.3681  0.5558 -0.5693
  886MOL0     C16854   8.841   6.832  -0.669  0.1353  0.4631  0.0325
  886MOL0     O16855   8.926   6.828  -0.782 -0.4375  0.3596 -0.1240
  886MOL0     C16856   8.933   6.711  -0.865  0.1682 -0.0675 -0.8239
  886MOL0     C16857   9.074   6.703  -0.924 -0.2382 -0.3324 -0.1293
  886MOL0     C16858   9.079   6.667  -1.073 -0.7627 -0.6595  0.1732
  886MOL0     C16859   9.045   6.518  -1.075 -0.3668  0.5549  0.7645
  886MOL0     C16860   9.054   6.464  -1.220 -0.2692  0.3462  0.5784
  886MOL0     C16861   8.944   6.498  -1.304  0.3117  0.1202 -0.0008
  886MOL0     C16862   8.943   6.431  -1.445  0.4281  0.4346  0.4491
  886MOL0     C16863   9.002   6.511  -1.563  0.0768  0.9804  0.1535
  886MOL0    Cl16864   8.974   6.411  -1.709 -0.0600 -0.5673 -0.0324
  886MOL0     C16865   8.885   6.917  -0.568  1.1400  0.0673 -0.4263
  886MOL0     C16866   8.814   6.931  -0.442  0.9101 -1.0935 -0.6271
  886MOL0     O16867   8.573   6.643  -0.275 -0.4721 -0.3152 -0.2550
  886MOL0     C16868   8.524   6.927  -0.062  0.6971 -0.3706  0.7469
  886MOL0     C16869   8.446   6.979   0.043 -0.8295 -0.6610 -0.1925
  886MOL0     N16870   8.090   7.428   0.111  0.6317  0.6849  0.0408
  886MOL0     N16871   8.026   7.539   0.116 -0.1842  0.3359  0.1837
  886MOL0     C16872   7.136   8.417   0.237 -0.9830 -0.3627  0.2032
  886MOL0     C16873   6.999   8.393   0.212  0.7233  0.0072  0.3860
  886MOL0     C16874   6.566   8.408   0.290 -0.3947  0.7865  0.7171
  886MOL0     C16875   6.492   8.526   0.275  0.0698 -0.2881  0.0167
  886MOL0     C16876   6.355   8.522   0.244 -0.0183  1.5375 -0.3527
  886MOL0     C16877   6.289   8.392   0.230 -0.7329 -0.5156 -0.0856
  886MOL0     O16878   6.157   8.372   0.225 -0.8344 -0.7456 -0.8476
  886MOL0     C16879   6.093   8.369   0.099 -0.3692  0.2040  0.1493
  886MOL0     C16880   6.086   8.246   0.005  0.6620  0.2498  0.1770
  886MOL0     C16881   6.020   8.135   0.095 -0.0535 -0.3090 -0.1568
  886MOL0     C16882   6.009   8.008   0.019 -0.6551  0.2549  0.4862
  886MOL0     C16883   5.891   7.920   0.042 -0.1280 -0.7293 -0.2982
  886MOL0     C16884   5.795   7.848   0.067  0.0597  0.1376  1.1121
  886MOL0     C16885   6.366   8.276   0.240  0.3954  0.6390 -0.4258
  886MOL0     C16886   6.499   8.281   0.285  0.0854  0.1399  0.1886
  886MOL0     H16887   6.942   8.217   0.509  0.8736  0.9565  1.1749
  886MOL0     H16888   7.175   8.242   0.526 -1.3485  2.6225  2.0834
  886MOL0     H16889   7.391   8.241   0.521 -0.2608 -0.5400  0.1069
  886MOL0     H16890   7.513   8.253   0.395 -0.4570  1.9212 -0.0826
  886MOL0     H16891   7.393   8.131   0.239  1.4083  1.3355  0.4800
  886MOL0     H16892   7.266   8.089   0.368  0.3395  0.2462  1.7625
  886MOL0     H16893   7.438   7.947   0.468 -1.5747  1.3831  0.4788
  886MOL0     H16894   7.565   8.038   0.379  0.2802 -1.3109 -1.9307
  886MOL0     H16895   7.361   7.851   0.236 -1.5423  2.1008  1.9313
  886MOL0     H16896   7.490   7.957   0.171 -0.0091 -0.2434 -0.0869
  886MOL0     H16897   7.523   7.698   0.207 -2.2293  0.4256  1.4133
  886MOL0     H16898   7.538   7.736   0.377  2.0134 -3.4395 -0.7974
  886MOL0     H16899   7.743   7.883   0.332  1.7054 -1.5998  0.5387
  886MOL0     H16900   7.714   7.867   0.160 -1.6250 -3.6095 -2.3475
  886MOL0     H16901   7.899   7.722   0.264  0.0692 -0.3682 -1.2646
  886MOL0     H16902   7.768   7.631   0.339 -1.9838  1.3096 -0.3101
  886MOL0     H16903   7.799   7.673   0.037 -1.7566 -3.4633 -3.3793
  886MOL0     H16904   7.690   7.571   0.130 -0.4037  0.6805  3.0917
  886MOL0     H16905   7.781   7.330   0.147  0.8566 -1.8916  0.5220
  886MOL0     H16906   8.124   7.165   0.100 -1.5710  1.3875 -1.5775
  886MOL0     H16907   7.951   7.122   0.093  1.1440 -0.7785 -0.2488
  886MOL0     H16908   7.954   7.190   0.357  0.8149 -0.2032  2.7579
  886MOL0     H16909   8.124   7.181   0.341 -0.5706  1.0344 -0.3410
  886MOL0     H16910   8.070   6.978   0.424  1.8623  1.5484  0.1296
  886MOL0     H16911   7.934   6.963   0.312 -0.4142  2.3024 -0.0357
  886MOL0     H16912   8.060   6.894   0.117 -0.9381 -0.9766  0.5970
  886MOL0     H16913   8.116   6.801   0.243  4.8343 -1.6475 -3.4006
  886MOL0     H16914   8.217   6.729   0.059 -0.1610  0.5613 -1.1924
  886MOL0     H16915   8.358   6.634  -0.116  1.8272 -0.0483  0.4600
  886MOL0     H16916   8.586   6.669  -0.507  0.3468 -0.7214  3.6974
  886MOL0     H16917   8.710   6.667  -0.711  0.7038  2.6508 -2.8543
  886MOL0     H16918   8.859   6.717  -0.946 -2.8486  0.0210  1.7121
  886MOL0     H16919   8.904   6.620  -0.811  1.7670 -1.1532 -1.7288
  886MOL0     H16920   9.150   6.650  -0.865 -0.3882  0.1168  0.4769
  886MOL0     H16921   9.109   6.807  -0.925  2.6934 -1.1742  1.4505
  886MOL0     H16922   9.178   6.689  -1.114 -0.3408 -2.5064  0.1051
  886MOL0     H16923   9.016   6.738  -1.127 -0.6774 -0.3079  0.5328
  886MOL0     H16924   9.125   6.462  -1.024 -1.5101 -0.0295  1.9615
  886MOL0     H16925   8.950   6.496  -1.025 -0.2673 -0.8762  0.3664
  886MOL0     H16926   9.069   6.356  -1.226  0.4972  0.4919 -0.4336
  886MOL0     H16927   9.149   6.508  -1.253 -1.6940  2.5814 -0.7730
  886MOL0     H16928   8.919   6.604  -1.318 -1.9544 -0.1775  1.2165
  886MOL0     H16929   8.853   6.460  -1.257 -1.2916  4.3605  0.8079
  886MOL0     H16930   8.994   6.336  -1.431 -0.5722  0.0364  1.6278
  886MOL0     H16931   8.844   6.405  -1.483  1.1803 -0.9553 -0.6413
  886MOL0     H16932   9.106   6.525  -1.534  0.6765  3.1836 -2.6870
  886MOL0     H16933   8.962   6.612  -1.576  0.0783  0.8089 -1.2434
  886MOL0     H16934   8.975   6.976  -0.577  1.7759 -0.9922 -1.3420
  886MOL0     H16935   8.846   7.003  -0.367  2.6799 -1.4476 -0.9963
  886MOL0     H16936   8.613   6.983  -0.088  0.3240 -0.0475  0.1402
  886MOL0     H16937   8.472   7.068   0.099 -2.3311  0.2692 -0.9119
  886MOL0     H16938   7.195   8.467   0.160 -1.3370 -1.4902 -0.8397
  886MOL0     H16939   6.957   8.436   0.121  5.8045  3.4456 -0.7234
  886MOL0     H16940   6.543   8.622   0.276 -2.6025  1.3134 -1.8847
  886MOL0     H16941   6.297   8.611   0.225  1.3391  2.1450 -1.8401
  886MOL0     H16942   6.146   8.444   0.041  0.1015  0.7191  1.2163
  886MOL0     H16943   5.993   8.414   0.108  0.5654  2.1261  1.5144
  886MOL0     H16944   6.015   8.278  -0.072 -2.1940 -0.8626  2.1821
  886MOL0     H16945   6.184   8.221  -0.037  0.4806  0.1837 -0.2159
  886MOL0     H16946   5.924   8.169   0.136  0.5537  1.6347 -0.2317
  886MOL0     H16947   6.086   8.121   0.181  0.6529  1.4043 -0.3820
  886MOL0     H16948   6.000   8.024  -0.089  0.2630 -4.6261 -0.5510
  886MOL0     H16949   6.094   7.941   0.030  1.1080  1.6274 -2.9727
  886MOL0     H16950   5.705   7.798   0.096 -0.8935  1.9294  1.4156
  886MOL0     H16951   6.318   8.182   0.217 -1.5974  1.1290  1.4107
  886MOL0     H16952   6.539   8.183   0.308 -0.1471  0.2627  1.1752
  887MOL0     O16953   4.565   1.566   0.329  0.6032 -0.1660 -0.2390
  887MOL0     C16954   4.587   1.673   0.394 -0.3071 -0.4459  0.4585
  887MOL0     O16955   4.545   1.706   0.514 -0.0841 -0.4069 -0.5204
  887MOL0     C16956   4.442   1.631   0.563 -1.1749 -0.5266  0.6262
  887MOL0     C16957   4.443   1.594   0.704  0.0516 -0.1950 -0.0485
  887MOL0     C16958   4.341   1.513   0.756  0.8945  0.0814  1.1553
  887MOL0     C16959   4.237   1.475   0.670  0.9551  0.1613 -0.2655
  887MOL0     O16960   4.134   1.396   0.718  0.4113  0.2256  0.6690
  887MOL0     C16961   4.105   1.398   0.858  0.8006  0.2086  0.5124
  887MOL0     C16962   3.964   1.338   0.868 -0.9682  0.1136 -0.6953
  887MOL0     C16963   3.938   1.319   1.024  0.3804  0.0493  0.7443
  887MOL0     C16964   3.800   1.255   1.046  0.2956  0.6382 -0.7637
  887MOL0     C16965   3.796   1.161   1.165  0.0736 -1.3163  0.0739
  887MOL0     C16966   3.845   1.218   1.295 -0.1546 -0.2765 -0.2622
  887MOL0     C16967   3.839   1.120   1.413 -0.4317 -0.2661 -0.8657
  887MOL0     C16968   3.877   1.207   1.538  0.2348  0.5687  0.9925
  887MOL0     N16969   3.901   1.125   1.657 -0.8626 -0.1601  0.2487
  887MOL0     C16970   3.979   1.171   1.762 -0.1725  0.3921 -0.2074
  887MOL0     C16971   3.945   1.106   1.871 -0.5363  0.6504 -0.6349
  887MOL0     C16972   4.037   1.103   1.985 -0.1276 -0.0608 -0.2316
  887MOL0     C16973   4.165   1.021   1.954  0.5551  0.4419 -0.4532
  887MOL0     C16974   4.279   1.044   2.054 -0.1372 -0.0865 -0.7839
  887MOL0     C16975   4.307   0.939   2.165 -0.2235  0.4721 -0.0913
  887MOL0     O16976   4.325   0.804   2.113  0.4255  0.2275  0.4302
  887MOL0     C16977   4.223   0.711   2.106 -0.6799  0.3541  0.8950
  887MOL0     C16978   4.256   0.595   2.026  0.9859 -0.0913  0.0198
  887MOL0     C16979   4.158   0.496   2.007 -0.6326 -0.4029  0.5706
  887MOL0     C16980   4.033   0.498   2.070 -0.2262 -0.1634 -0.3767
  887MOL0     C16981   3.937   0.384   2.054 -0.1588 -0.5117  0.8641
  887MOL0     O16982   3.820   0.392   2.112  0.7639  0.1245  0.3238
  887MOL0     C16983   3.739   0.286   2.111 -0.4698  0.5728  0.0540
  887MOL0     C16984   3.621   0.291   2.037  0.2751  1.0425  0.0084
  887MOL0     C16985   3.533   0.181   2.029 -0.6659 -0.4242 -0.4737
  887MOL0     C16986   3.557   0.067   2.112 -0.4605  0.2134 -0.0456
  887MOL0     O16987   3.475  -0.041   2.112 -0.2260 -0.1731 -0.0928
  887MOL0     C16988   3.341  -0.034   2.060 -0.2685  0.0413  0.2959
  887MOL0     C16989   3.255  -0.137   2.133 -0.3951  0.0259  0.3885
  887MOL0     C16990   3.300  -0.271   2.081 -0.1290 -0.3223  0.5664
  887MOL0     C16991   3.223  -0.384   2.149  0.8392  0.3056  0.6828
  887MOL0     C16992   3.228  -0.393   2.302  0.1742 -0.3731  0.4125
  887MOL0     C16993   3.164  -0.520   2.371  0.0482 -0.9140  0.3145
  887MOL0     C16994   3.266  -0.631   2.387  0.2915  0.0800  0.6149
  887MOL0     C16995   3.188  -0.767   2.399 -0.7572  0.4129  0.4029
  887MOL0    Cl16996   3.105  -0.811   2.248  0.0616 -0.7177 -0.0476
  887MOL0     C16997   3.676   0.064   2.186 -0.5301 -0.1413  0.2406
  887MOL0     C16998   3.764   0.166   2.183  0.7567 -0.4211  0.6148
  887MOL0     O16999   3.977   0.294   1.975 -0.9853  0.4261  0.3073
  887MOL0     C17000   4.005   0.609   2.152  0.4100 -0.3634  0.5664
  887MOL0     C17001   4.104   0.713   2.173  0.9953 -0.3219  0.7821
  887MOL0     N17002   3.858   1.010   1.836  0.4900  0.3694 -0.2561
  887MOL0     N17003   3.815   1.040   1.713 -0.7521 -0.2562 -0.1732
  887MOL0     C17004   4.231   1.507   0.538  0.2986 -0.0011 -0.0671
  887MOL0     C17005   4.334   1.591   0.485  0.7680 -0.2920 -0.4033
  887MOL0     C17006   4.676   1.767   0.329  0.1390  0.6089 -0.7300
  887MOL0     C17007   4.780   1.721   0.246 -0.3567  0.0062 -0.1451
  887MOL0     C17008   4.854   1.815   0.177  0.1635  0.2771  0.2504
  887MOL0     C17009   4.849   1.950   0.206  0.7575 -0.7004 -0.2038
  887MOL0     O17010   4.953   2.031   0.156  0.2592  0.0963  1.2543
  887MOL0     C17011   5.043   2.098   0.250 -0.4996 -0.1812 -0.3928
  887MOL0     C17012   5.004   2.253   0.250  0.4657 -0.2797  0.4611
  887MOL0     C17013   5.126   2.331   0.308  0.4116  0.0370 -0.4007
  887MOL0     C17014   5.102   2.485   0.320 -0.0090  0.6769 -0.1752
  887MOL0     C17015   5.074   2.558   0.201 -0.9941 -0.5937  0.7964
  887MOL0     C17016   5.049   2.609   0.095 -0.4662  0.8595 -0.1654
  887MOL0     C17017   4.746   1.991   0.285  0.4442 -0.7149  0.1344
  887MOL0     C17018   4.655   1.903   0.349  0.0591  0.1378  1.4547
  887MOL0     H17019   4.517   1.628   0.776  1.4653 -0.8305 -1.1507
  887MOL0     H17020   4.335   1.494   0.862  0.6630  0.3144  1.1867
  887MOL0     H17021   4.089   1.502   0.889 -2.8072  1.4451 -4.2633
  887MOL0     H17022   4.171   1.341   0.923 -1.5912  0.1806  3.0927
  887MOL0     H17023   3.957   1.236   0.827 -3.0385 -0.1128  0.1283
  887MOL0     H17024   3.888   1.400   0.821 -1.5912  0.4899  0.7449
  887MOL0     H17025   3.947   1.419   1.067 -3.3060  0.7208  0.2725
  887MOL0     H17026   4.014   1.266   1.083  1.3081  0.4945 -0.0290
  887MOL0     H17027   3.725   1.334   1.056 -0.4021 -0.1144  0.2244
  887MOL0     H17028   3.789   1.195   0.955 -0.1380 -2.8637  1.3926
  887MOL0     H17029   3.859   1.076   1.136  1.0859 -0.6295  0.2347
  887MOL0     H17030   3.690   1.135   1.168 -0.4691  0.6656 -0.3170
  887MOL0     H17031   3.790   1.309   1.319  1.9472  1.3461 -1.2450
  887MOL0     H17032   3.953   1.239   1.295 -0.0577  0.1104  4.3394
  887MOL0     H17033   3.744   1.068   1.426  0.7402 -2.4380 -0.5849
  887MOL0     H17034   3.909   1.042   1.381 -0.7926 -0.2734 -1.6717
  887MOL0     H17035   3.792   1.271   1.565 -1.0781 -0.7970  0.2107
  887MOL0     H17036   3.966   1.268   1.522  0.1136  0.9288  1.6517
  887MOL0     H17037   4.069   1.231   1.766 -0.4734  0.7668  2.4118
  887MOL0     H17038   3.990   1.067   2.077 -2.7696 -0.9127 -1.8354
  887MOL0     H17039   4.063   1.205   2.013  1.2398 -0.4007 -0.1543
  887MOL0     H17040   4.210   1.048   1.858  3.8512  1.2530  1.1642
  887MOL0     H17041   4.143   0.914   1.955  3.8815 -0.5048  4.0036
  887MOL0     H17042   4.375   1.060   2.004  0.3688  3.6164  1.0392
  887MOL0     H17043   4.261   1.137   2.109 -0.6479 -1.2540  1.1008
  887MOL0     H17044   4.225   0.936   2.237 -1.2532 -0.0108 -1.2457
  887MOL0     H17045   4.397   0.960   2.223  0.3127  0.9641 -1.0759
  887MOL0     H17046   4.349   0.611   1.973  2.1986  2.9333  2.7285
  887MOL0     H17047   4.190   0.420   1.936 -2.5876 -1.0747  0.3387
  887MOL0     H17048   3.592   0.382   1.984  0.1962  1.8475  1.3847
  887MOL0     H17049   3.448   0.186   1.963  1.3442 -0.4419 -3.2312
  887MOL0     H17050   3.348  -0.051   1.952  0.2028  0.9475  0.1714
  887MOL0     H17051   3.305   0.067   2.084 -4.0928 -0.8866 -0.7336
  887MOL0     H17052   3.149  -0.113   2.118 -0.4278 -0.4727 -0.2123
  887MOL0     H17053   3.284  -0.134   2.239  2.6628  2.0586 -0.4084
  887MOL0     H17054   3.407  -0.287   2.092 -0.2182  0.0516  2.1546
  887MOL0     H17055   3.285  -0.269   1.972 -1.5517 -4.8720  0.4296
  887MOL0     H17056   3.120  -0.365   2.117  1.0614  0.0047 -0.2117
  887MOL0     H17057   3.240  -0.485   2.112 -0.1003  1.4344 -3.2407
  887MOL0     H17058   3.193  -0.298   2.342  0.7141 -0.3094  0.7521
  887MOL0     H17059   3.337  -0.395   2.318  0.3066  0.3216 -0.3780
  887MOL0     H17060   3.076  -0.542   2.310 -0.5795 -0.8048  1.1691
  887MOL0     H17061   3.129  -0.491   2.471  2.2032  0.0071  0.8592
  887MOL0     H17062   3.337  -0.632   2.304 -1.9749 -0.3535 -1.4061
  887MOL0     H17063   3.317  -0.626   2.484  1.5988 -0.6397 -0.0014
  887MOL0     H17064   3.112  -0.744   2.475 -1.4964 -0.4835 -0.0499
  887MOL0     H17065   3.262  -0.844   2.425  0.7778  0.8446 -2.3011
  887MOL0     H17066   3.724  -0.021   2.232  1.9163 -0.5836 -2.7641
  887MOL0     H17067   3.850   0.163   2.249 -0.0144 -1.6587  1.6178
  887MOL0     H17068   3.924   0.602   2.224  2.9558  0.6897  3.8247
  887MOL0     H17069   4.069   0.787   2.244  1.0827  0.6437 -0.1599
  887MOL0     H17070   4.150   1.464   0.481 -1.6485  0.9285  1.8608
  887MOL0     H17071   4.319   1.610   0.379 -0.0005 -0.7757 -0.3936
  887MOL0     H17072   4.780   1.615   0.220 -0.5908 -0.1768  0.5806
  887MOL0     H17073   4.932   1.782   0.109 -0.1634  0.7954 -0.3897
  887MOL0     H17074   5.142   2.087   0.206 -1.9143  1.1147 -4.2850
  887MOL0     H17075   5.040   2.062   0.354 -2.0707 -2.6257 -1.1873
  887MOL0     H17076   4.968   2.276   0.149  0.1920 -0.9494  0.3969
  887MOL0     H17077   4.922   2.256   0.322 -0.0830 -3.5925  0.1292
  887MOL0     H17078   5.216   2.301   0.252  1.4376 -0.9761  1.6658
  887MOL0     H17079   5.139   2.288   0.408  1.4122 -0.9514 -0.9291
  887MOL0     H17080   5.007   2.490   0.373 -0.3361 -0.8208 -0.5640
  887MOL0     H17081   5.186   2.526   0.377  0.0934  1.1277 -0.6494
  887MOL0     H17082   5.003   2.648   0.006  1.1481  2.0828 -0.4955
  887MOL0     H17083   4.738   2.095   0.313  3.5708 -0.3120 -0.1455
  887MOL0     H17084   4.570   1.944   0.403 -0.4391 -1.8299  2.2432
  888MOL0     O17085   1.511   7.128  10.686 -0.5610 -0.0483 -0.5546
  888MOL0     C17086   1.432   7.197  10.623 -0.6679 -0.0346 -0.5881
  888MOL0     O17087   1.437   7.218  10.483 -0.2086  0.3042 -0.9981
  888MOL0     C17088   1.512   7.140  10.399  0.3207 -0.7895  0.1248
  888MOL0     C17089   1.464   7.014  10.376  0.0031  1.1375 -0.9401
  888MOL0     C17090   1.525   6.925  10.289 -0.1713 -0.7510  0.4252
  888MOL0     C17091   1.637   6.968  10.216 -0.1504  0.5705  0.0717
  888MOL0     O17092   1.697   6.869  10.136  0.0402 -0.1187  0.0728
  888MOL0     C17093   1.716   6.894  10.000  0.1565  0.1521 -0.0908
  888MOL0     C17094   1.779   6.763   9.946 -0.9264 -0.2164  0.1970
  888MOL0     C17095   1.829   6.762   9.804 -0.4136 -0.4632  0.3722
  888MOL0     C17096   1.885   6.898   9.753  0.3228 -1.0769  0.1058
  888MOL0     C17097   1.944   6.892   9.608 -0.5870 -0.2470  0.1908
  888MOL0     C17098   2.067   6.805   9.592 -0.0574 -0.9168  0.2531
  888MOL0     C17099   2.095   6.792   9.441  0.5657 -0.4064  0.8143
  888MOL0     C17100   2.137   6.926   9.376  0.2019  0.3248  0.0788
  888MOL0     N17101   2.145   6.905   9.228  0.1963 -0.1145 -0.2309
  888MOL0     C17102   2.246   6.847   9.163 -0.1308  0.4306  0.8350
  888MOL0     C17103   2.210   6.841   9.030  0.0948  0.5826  0.5836
  888MOL0     C17104   2.285   6.785   8.922 -0.7458  0.2459  0.0607
  888MOL0     C17105   2.192   6.698   8.836 -0.6089  0.4408 -1.5413
  888MOL0     C17106   2.266   6.614   8.732  0.1534  0.1774  0.4659
  888MOL0     C17107   2.173   6.541   8.630  0.1126 -0.8351  0.7901
  888MOL0     O17108   2.070   6.460   8.684 -0.0907 -0.1111  0.6109
  888MOL0     C17109   2.124   6.339   8.715 -0.8919  0.1300 -0.3421
  888MOL0     C17110   2.128   6.301   8.849 -0.5506 -1.3541  0.3124
  888MOL0     C17111   2.184   6.178   8.888  0.2544 -0.5997  0.4153
  888MOL0     C17112   2.238   6.092   8.790 -0.2439 -0.0289  0.5839
  888MOL0     C17113   2.272   5.958   8.839  1.0873 -0.2266 -0.0201
  888MOL0     O17114   2.372   5.884   8.768  0.6783  0.1677  0.2256
  888MOL0     C17115   2.370   5.743   8.783 -0.4250 -0.6352 -0.3539
  888MOL0     C17116   2.477   5.670   8.724 -0.4350 -0.1341  0.0890
  888MOL0     C17117   2.497   5.534   8.744  0.1043  0.0425  0.0095
  888MOL0     C17118   2.405   5.454   8.818 -0.1236  0.4282  0.0302
  888MOL0     O17119   2.395   5.320   8.819 -0.5128  0.3958  0.1305
  888MOL0     C17120   2.380   5.275   8.684 -0.0798  0.9681  0.1838
  888MOL0     C17121   2.307   5.135   8.688  0.2625 -0.3812 -0.2364
  888MOL0     C17122   2.379   5.020   8.759  1.2750  1.0044  1.0800
  888MOL0     C17123   2.280   4.903   8.736  0.4048  0.0668  0.4154
  888MOL0     C17124   2.308   4.796   8.848  1.0026 -0.4287 -0.5599
  888MOL0     C17125   2.208   4.688   8.870 -0.7480 -0.5214  1.1427
  888MOL0     C17126   2.167   4.617   8.738 -0.7219 -0.3349  1.2436
  888MOL0     C17127   2.108   4.477   8.767 -0.4456  0.4513  0.1087
  888MOL0    Cl17128   1.983   4.488   8.890  0.2300 -0.5132  0.2283
  888MOL0     C17129   2.301   5.527   8.881 -0.0636 -0.4712 -0.0217
  888MOL0     C17130   2.280   5.661   8.864 -0.4266  0.0768 -0.1085
  888MOL0     O17131   2.201   5.919   8.928  0.2779 -0.7255  0.4551
  888MOL0     C17132   2.234   6.117   8.651  0.1032  0.0401 -0.2065
  888MOL0     C17133   2.167   6.240   8.615 -0.5790 -0.4172 -0.6923
  888MOL0     N17134   2.081   6.894   9.019 -0.2563  0.2159  0.0736
  888MOL0     N17135   2.047   6.943   9.135  0.3207  0.1784 -0.9234
  888MOL0     C17136   1.675   7.106  10.228  0.1963  0.1180  0.5730
  888MOL0     C17137   1.613   7.194  10.322 -0.1612  0.0629 -0.7353
  888MOL0     C17138   1.312   7.251  10.694  0.3348 -0.3926  0.0056
  888MOL0     C17139   1.221   7.329  10.626 -0.3491 -0.3281 -0.4173
  888MOL0     C17140   1.102   7.370  10.690  0.8754 -0.0590 -0.4295
  888MOL0     C17141   1.066   7.320  10.814 -0.3536 -0.0543  0.1443
  888MOL0     O17142   0.955   7.348  10.883  1.0807  0.1433 -0.4840
  888MOL0     C17143   0.843   7.276  10.822  0.4131  0.2363 -1.4616
  888MOL0     C17144   0.757   7.190  10.921  0.9869  0.1142 -0.9674
  888MOL0     C17145   0.830   7.055  10.967  0.3103 -0.1204 -0.1927
  888MOL0     C17146   0.743   6.983  11.078 -1.5327 -0.3714  0.1491
  888MOL0     C17147   0.766   7.050  11.205  0.5673  0.4221  0.4072
  888MOL0     C17148   0.772   7.093  11.318  0.0895  0.0162  0.7100
  888MOL0     C17149   1.164   7.245  10.883  0.6747  0.5615 -0.0416
  888MOL0     C17150   1.289   7.214  10.825  0.0314  0.9106 -0.2588
  888MOL0     H17151   1.370   6.986  10.423  0.7524 -1.8036 -0.9928
  888MOL0     H17152   1.482   6.826  10.288  0.2295 -0.9287  0.6772
  888MOL0     H17153   1.790   6.973   9.981 -1.4066  1.5361 -0.7196
  888MOL0     H17154   1.619   6.916   9.955 -0.0007  0.7244  0.5010
  888MOL0     H17155   1.709   6.679   9.939  0.6105 -1.5394  0.2125
  888MOL0     H17156   1.855   6.730  10.017 -0.7653 -0.0242  0.1144
  888MOL0     H17157   1.740   6.739   9.745 -1.4687 -3.5163  2.8283
  888MOL0     H17158   1.897   6.677   9.792 -2.2573 -1.9007 -0.4180
  888MOL0     H17159   1.820   6.985   9.759  2.6755  0.7648 -0.0356
  888MOL0     H17160   1.961   6.919   9.828  1.6597 -3.4870 -0.4802
  888MOL0     H17161   1.990   6.988   9.580  0.8642  0.4082  4.1353
  888MOL0     H17162   1.866   6.850   9.544 -1.7600 -3.5467  3.4663
  888MOL0     H17163   2.071   6.705   9.635  1.7721 -0.6944  0.7064
  888MOL0     H17164   2.146   6.852   9.651  0.0616 -1.6088  0.6569
  888MOL0     H17165   2.175   6.720   9.422  0.8912 -0.5261  2.4527
  888MOL0     H17166   2.002   6.746   9.405  1.1712  0.1938 -1.6776
  888MOL0     H17167   2.229   6.963   9.422  0.0229  1.5137 -0.4680
  888MOL0     H17168   2.073   7.015   9.383 -0.4226 -0.0012 -1.1912
  888MOL0     H17169   2.340   6.812   9.204  0.7848  0.7359 -0.9138
  888MOL0     H17170   2.368   6.724   8.958 -0.9220  0.4976  0.9161
  888MOL0     H17171   2.322   6.878   8.877  1.2242 -0.5292 -0.0163
  888MOL0     H17172   2.126   6.767   8.781 -0.6700  0.4261 -1.4859
  888MOL0     H17173   2.140   6.620   8.891  2.2984 -0.6321 -0.1155
  888MOL0     H17174   2.326   6.678   8.667 -0.6057 -0.6111 -1.0758
  888MOL0     H17175   2.321   6.530   8.777 -1.3426 -0.7130  0.6989
  888MOL0     H17176   2.245   6.483   8.572 -0.7736 -1.4119  0.2512
  888MOL0     H17177   2.134   6.604   8.549 -2.1190 -2.2930  0.6469
  888MOL0     H17178   2.078   6.366   8.920 -0.7546 -1.8452  0.6261
  888MOL0     H17179   2.174   6.156   8.994  1.0235 -0.3382  0.5441
  888MOL0     H17180   2.555   5.715   8.663  0.6769 -1.9196  0.1438
  888MOL0     H17181   2.577   5.484   8.689  0.4399  1.1823 -0.5650
  888MOL0     H17182   2.476   5.265   8.634  0.1767  1.9549  0.4644
  888MOL0     H17183   2.319   5.349   8.632 -1.6921 -0.9979 -0.8920
  888MOL0     H17184   2.299   5.111   8.582  1.7751 -1.7081 -0.0838
  888MOL0     H17185   2.209   5.150   8.735  0.5651 -0.7472  0.5325
  888MOL0     H17186   2.404   5.038   8.864 -2.0614 -4.9065  3.3927
  888MOL0     H17187   2.470   4.987   8.707 -0.3802 -0.8354 -0.8585
  888MOL0     H17188   2.178   4.941   8.742 -0.2731 -0.7977 -3.3264
  888MOL0     H17189   2.290   4.856   8.638 -1.0292  0.2979  0.1454
  888MOL0     H17190   2.317   4.850   8.942 -2.6777 -0.5392  0.0112
  888MOL0     H17191   2.404   4.745   8.838  0.6946 -1.3514  0.8924
  888MOL0     H17192   2.121   4.730   8.921 -1.7071 -0.6891 -0.2875
  888MOL0     H17193   2.251   4.616   8.941 -1.1218 -2.2630 -0.3124
  888MOL0     H17194   2.098   4.684   8.685  1.0245  0.6513  0.1399
  888MOL0     H17195   2.254   4.606   8.674 -2.1224 -0.2454 -0.7710
  888MOL0     H17196   2.183   4.410   8.811 -3.3235 -1.4433  2.4839
  888MOL0     H17197   2.067   4.428   8.678 -2.7489 -0.4957  1.5973
  888MOL0     H17198   2.230   5.473   8.943 -0.5766 -2.0745 -1.9093
  888MOL0     H17199   2.184   5.696   8.901 -0.4808 -1.1889  0.9938
  888MOL0     H17200   2.273   6.044   8.581  0.4060 -2.3872  2.3021
  888MOL0     H17201   2.166   6.248   8.507  0.5471 -0.7072 -0.7304
  888MOL0     H17202   1.761   7.123  10.165  0.8518 -1.5383  0.9574
  888MOL0     H17203   1.656   7.290  10.350  1.6589 -1.0234  0.3982
  888MOL0     H17204   1.234   7.370  10.526 -5.1171 -1.0715 -1.5768
  888MOL0     H17205   1.040   7.442  10.637  0.9384 -0.4020 -0.9749
  888MOL0     H17206   0.878   7.208  10.744 -1.7317 -1.9503 -0.6444
  888MOL0     H17207   0.778   7.359  10.791  0.6898  1.5021  1.0525
  888MOL0     H17208   0.711   7.239  11.007  0.0501 -0.9155 -0.8638
  888MOL0     H17209   0.671   7.169  10.858 -0.6471 -0.2481  1.2702
  888MOL0     H17210   0.937   7.063  10.989  0.0789  0.6261  0.6990
  888MOL0     H17211   0.834   6.983  10.885 -1.7252 -0.7640  0.2068
  888MOL0     H17212   0.639   7.000  11.047 -0.6952  3.6763 -1.0342
  888MOL0     H17213   0.758   6.876  11.090 -2.2436 -0.6608 -1.2469
  888MOL0     H17214   0.776   7.144  11.412 -1.6936  2.4472 -0.4390
  888MOL0     H17215   1.143   7.211  10.984 -2.6345  0.3601 -0.7038
  888MOL0     H17216   1.362   7.149  10.872 -0.2434  0.0188 -1.0470
  889MOL0     O17217   4.534   7.017   4.666  0.5267 -0.8888 -0.4659
  889MOL0     C17218   4.424   7.050   4.692  1.0640 -0.3966  0.0419
  889MOL0     O17219   4.363   7.174   4.661 -0.5607 -0.7430 -0.7094
  889MOL0     C17220   4.454   7.276   4.634  0.5542  0.3848 -0.3681
  889MOL0     C17221   4.503   7.306   4.508  0.5913 -0.4061 -0.1899
  889MOL0     C17222   4.596   7.399   4.496  0.8319 -0.4789  0.6141
  889MOL0     C17223   4.651   7.470   4.597  0.1402  0.7419  0.5277
  889MOL0     O17224   4.762   7.547   4.564  0.9140  0.4465  0.1825
  889MOL0     C17225   4.790   7.663   4.638 -0.2755  0.8892 -0.6086
  889MOL0     C17226   4.930   7.701   4.628 -1.0748 -0.1417  0.5075
  889MOL0     C17227   5.012   7.627   4.738  0.2521 -0.3720  0.1793
  889MOL0     C17228   5.161   7.664   4.720 -0.0372  0.3211  0.0857
  889MOL0     C17229   5.254   7.591   4.820 -0.5929 -0.2632  0.6475
  889MOL0     C17230   5.400   7.639   4.816  0.0302  0.6016  0.1422
  889MOL0     C17231   5.433   7.776   4.868  0.8368  0.0259  0.1912
  889MOL0     C17232   5.577   7.784   4.922 -0.7583 -1.1692 -0.4749
  889MOL0     N17233   5.626   7.926   4.942 -0.4193  0.5207 -0.5419
  889MOL0     C17234   5.709   7.960   5.045  0.6138  0.0168 -0.8631
  889MOL0     C17235   5.742   8.087   5.026  1.0672  0.0412  0.4915
  889MOL0     C17236   5.835   8.162   5.105 -0.1960 -0.7302 -0.5115
  889MOL0     C17237   5.962   8.191   5.026  0.4189  0.3560 -0.7443
  889MOL0     C17238   6.040   8.306   5.079  0.1153  0.8243 -0.0740
  889MOL0     C17239   6.150   8.359   4.985  0.4740  1.1693 -0.0627
  889MOL0     O17240   6.096   8.404   4.868  0.5466 -0.6706  0.0145
  889MOL0     C17241   6.184   8.452   4.768 -0.0754  0.8512 -0.2243
  889MOL0     C17242   6.320   8.465   4.782 -0.3840  0.0530  0.7659
  889MOL0     C17243   6.404   8.532   4.698 -0.0046 -0.1690 -0.5793
  889MOL0     C17244   6.347   8.584   4.580 -0.0641  1.2241  0.1387
  889MOL0     C17245   6.423   8.644   4.489 -0.2875  0.0710 -0.0396
  889MOL0     O17246   6.550   8.591   4.481 -0.4975  0.1706 -0.9983
  889MOL0     C17247   6.635   8.656   4.387  0.7464  0.1792 -0.5009
  889MOL0     C17248   6.659   8.612   4.248 -0.1946 -0.1988 -0.3646
  889MOL0     C17249   6.764   8.676   4.181  0.0084  0.5022  0.5113
  889MOL0     C17250   6.842   8.774   4.233  0.2660  0.5332  0.7465
  889MOL0     O17251   6.958   8.816   4.171 -0.1887  0.0389 -0.4295
  889MOL0     C17252   7.003   8.944   4.202 -0.7008 -0.5693 -0.1744
  889MOL0     C17253   7.127   8.968   4.115 -0.4910 -0.4109 -0.8645
  889MOL0     C17254   7.183   9.105   4.156  0.2887  0.4115  0.7307
  889MOL0     C17255   7.287   9.148   4.050  0.4041  0.2959  0.6750
  889MOL0     C17256   7.429   9.141   4.101 -0.7268 -0.5480  0.0206
  889MOL0     C17257   7.524   9.133   3.973 -0.1359  0.9030 -0.0085
  889MOL0     C17258   7.501   9.223   3.854 -0.1227 -0.1831 -0.4422
  889MOL0     C17259   7.532   9.377   3.885  0.0734  0.8710 -0.5395
  889MOL0    Cl17260   7.705   9.398   3.933  0.5737  0.2321  0.4239
  889MOL0     C17261   6.808   8.827   4.362  0.4671 -0.0867 -0.1601
  889MOL0     C17262   6.707   8.766   4.436  0.5209  0.6387  0.4655
  889MOL0     O17263   6.382   8.729   4.412 -0.3133 -0.2184 -0.0054
  889MOL0     C17264   6.212   8.575   4.559  0.0672  0.9951  0.5223
  889MOL0     C17265   6.135   8.508   4.651 -0.1969  1.1794  0.1189
  889MOL0     N17266   5.665   8.133   4.924 -0.5325  0.7641  1.1316
  889MOL0     N17267   5.591   8.039   4.875  0.1759  0.0965 -0.4676
  889MOL0     C17268   4.611   7.437   4.726  0.3684  0.6162 -0.0207
  889MOL0     C17269   4.514   7.343   4.745 -0.1593 -0.3690  0.6159
  889MOL0     C17270   4.349   6.944   4.767 -0.4735 -0.0771 -0.4094
  889MOL0     C17271   4.217   6.954   4.806 -0.6174 -0.5299 -0.2884
  889MOL0     C17272   4.156   6.868   4.894  0.8603  0.1993  0.0900
  889MOL0     C17273   4.211   6.748   4.928  0.7745  0.3761  0.0352
  889MOL0     O17274   4.123   6.661   4.990  0.1464  0.6593 -0.7287
  889MOL0     C17275   4.189   6.556   5.070 -0.2965 -0.6083  1.1234
  889MOL0     C17276   4.083   6.501   5.165 -0.6513  0.7689  0.0744
  889MOL0     C17277   3.968   6.435   5.076  0.1858 -0.5095  0.0004
  889MOL0     C17278   3.857   6.362   5.147 -0.7360 -0.2298  0.1821
  889MOL0     C17279   3.794   6.467   5.228 -0.0850  0.3768 -0.0029
  889MOL0     C17280   3.728   6.562   5.272  0.1458 -0.4737 -0.9233
  889MOL0     C17281   4.334   6.719   4.865 -0.5011  0.0175 -0.3287
  889MOL0     C17282   4.410   6.817   4.792  0.0839  0.4574 -0.5970
  889MOL0     H17283   4.458   7.252   4.425  3.5045  0.7104 -2.7271
  889MOL0     H17284   4.626   7.419   4.394 -0.7799  1.3965  0.4519
  889MOL0     H17285   4.761   7.637   4.740  2.6479 -0.8487 -0.1042
  889MOL0     H17286   4.731   7.745   4.595 -2.2564 -0.7540 -1.1854
  889MOL0     H17287   4.927   7.806   4.660  0.2254 -0.4629  1.7917
  889MOL0     H17288   4.972   7.687   4.528 -0.6807  0.8189  0.5317
  889MOL0     H17289   4.998   7.519   4.728 -5.9176 -0.2285  2.7016
  889MOL0     H17290   4.971   7.667   4.831 -0.8420  1.2613 -0.9642
  889MOL0     H17291   5.190   7.633   4.619 -0.1022 -1.6441  0.6488
  889MOL0     H17292   5.182   7.771   4.735 -1.1382  0.8614 -1.7648
  889MOL0     H17293   5.250   7.483   4.801 -2.4169 -0.0766 -0.2530
  889MOL0     H17294   5.220   7.613   4.921 -1.5175  0.8700  0.1140
  889MOL0     H17295   5.436   7.633   4.713  0.6744  2.5687  0.2095
  889MOL0     H17296   5.468   7.568   4.864 -0.6072  1.2159  2.0750
  889MOL0     H17297   5.430   7.838   4.778 -0.3433  2.8181  2.0073
  889MOL0     H17298   5.356   7.814   4.937  0.5475 -0.9786  0.4371
  889MOL0     H17299   5.642   7.743   4.845  1.8320  2.6353 -0.6224
  889MOL0     H17300   5.583   7.719   5.009 -1.3154  2.2363  2.3489
  889MOL0     H17301   5.760   7.896   5.116 -0.7516 -2.0256 -1.6577
  889MOL0     H17302   5.871   8.122   5.200  1.2470  4.1096  1.2638
  889MOL0     H17303   5.773   8.248   5.132 -1.8854 -1.2892 -2.3509
  889MOL0     H17304   5.939   8.206   4.920 -1.1693  0.7750 -0.3688
  889MOL0     H17305   6.029   8.104   5.024 -0.7508 -0.5654 -0.7908
  889MOL0     H17306   5.968   8.384   5.105 -0.0959  0.5693  0.1116
  889MOL0     H17307   6.106   8.280   5.162  1.4324  0.9811 -1.0383
  889MOL0     H17308   6.221   8.279   4.961 -0.6087 -0.1714  1.0043
  889MOL0     H17309   6.195   8.440   5.043  0.6032  0.7587  0.4167
  889MOL0     H17310   6.363   8.412   4.866  1.4349 -0.7336 -0.6149
  889MOL0     H17311   6.512   8.536   4.709 -0.3177  1.3056  4.4863
  889MOL0     H17312   6.611   8.530   4.194  0.9805 -1.3661  0.3107
  889MOL0     H17313   6.772   8.638   4.080 -1.2894  1.5730 -0.0276
  889MOL0     H17314   7.017   8.953   4.310 -2.5002 -0.7613  0.1039
  889MOL0     H17315   6.935   9.023   4.172  1.4467  1.2167 -0.6349
  889MOL0     H17316   7.115   8.956   4.007  0.6091 -2.6149 -0.7840
  889MOL0     H17317   7.197   8.891   4.147 -0.1094  0.6437  0.9970
  889MOL0     H17318   7.224   9.117   4.257 -0.5031  3.5549  0.7713
  889MOL0     H17319   7.101   9.177   4.147 -1.2396 -1.3473 -0.2582
  889MOL0     H17320   7.278   9.090   3.958 -0.0226  0.3148  0.7029
  889MOL0     H17321   7.254   9.250   4.028  1.3505  0.3312 -0.6547
  889MOL0     H17322   7.442   9.053   4.165  0.3976  1.4431  2.7373
  889MOL0     H17323   7.455   9.234   4.152  1.5774 -1.4179  0.5617
  889MOL0     H17324   7.515   9.031   3.936 -2.7789  1.5167 -1.2597
  889MOL0     H17325   7.626   9.151   4.011  0.0970 -0.3991  0.0198
  889MOL0     H17326   7.569   9.204   3.771 -0.8550  1.1357 -1.3870
  889MOL0     H17327   7.397   9.220   3.819 -0.0516  3.5245 -1.4334
  889MOL0     H17328   7.474   9.407   3.973 -0.8618  2.1901 -1.5748
  889MOL0     H17329   7.510   9.436   3.796 -0.3659 -0.9538 -1.7010
  889MOL0     H17330   6.846   8.916   4.412 -0.1455  0.6278 -0.9341
  889MOL0     H17331   6.699   8.803   4.538  0.1857 -0.3995  0.8246
  889MOL0     H17332   6.161   8.613   4.472  0.7987  2.8441  0.8440
  889MOL0     H17333   6.030   8.487   4.630  0.3954 -0.4613 -1.4165
  889MOL0     H17334   4.653   7.478   4.817 -2.9957  1.6514  1.1733
  889MOL0     H17335   4.484   7.298   4.839 -0.1986 -0.9749  0.3156
  889MOL0     H17336   4.155   7.039   4.775  1.6584  0.9918 -0.9344
  889MOL0     H17337   4.057   6.895   4.929 -0.0245 -0.1138 -2.0087
  889MOL0     H17338   4.269   6.592   5.135 -1.5640 -1.1013  3.0556
  889MOL0     H17339   4.237   6.480   5.008 -0.5622 -0.2119  0.4220
  889MOL0     H17340   4.136   6.421   5.218  4.1719  1.5933 -2.9095
  889MOL0     H17341   4.054   6.576   5.238  2.5405  0.3786  1.9073
  889MOL0     H17342   4.006   6.365   5.001 -1.0235 -2.8617  1.4688
  889MOL0     H17343   3.923   6.516   5.018 -3.1135 -3.9694 -2.7835
  889MOL0     H17344   3.778   6.333   5.077 -0.9053  1.6571 -0.4530
  889MOL0     H17345   3.888   6.264   5.184 -1.4913 -2.0454 -3.5514
  889MOL0     H17346   3.670   6.639   5.318 -0.0651  0.9232 -3.3386
  889MOL0     H17347   4.376   6.621   4.890 -1.5349  0.1141  2.0226
  889MOL0     H17348   4.512   6.792   4.766 -0.0042  0.3235 -0.8141
  890MOL0     O17349   6.727   5.748   1.849  0.4780 -0.0618 -0.3134
  890MOL0     C17350   6.698   5.643   1.900  0.6613 -0.2110  0.2622
  890MOL0     O17351   6.766   5.586   2.012 -0.2327 -0.2789  0.5798
  890MOL0     C17352   6.848   5.674   2.088 -0.1920 -0.2124  0.3452
  890MOL0     C17353   6.988   5.636   2.092 -0.4250  0.3291  0.7537
  890MOL0     C17354   7.078   5.709   2.175  0.4044 -0.1266  0.5080
  890MOL0     C17355   7.036   5.819   2.245 -0.3952  0.6241  0.1809
  890MOL0     O17356   7.126   5.887   2.331 -0.2363 -0.3845 -0.2225
  890MOL0     C17357   7.150   6.025   2.301  0.3470  0.7970 -0.0139
  890MOL0     C17358   7.299   6.036   2.273 -0.4083  0.2577 -0.0510
  890MOL0     C17359   7.351   5.963   2.154  0.2627 -1.2996 -0.6973
  890MOL0     C17360   7.506   5.965   2.150 -0.3588  0.4104 -0.6539
  890MOL0     C17361   7.543   5.943   1.999 -0.5428  0.6501 -0.1820
  890MOL0     C17362   7.526   5.792   1.960  0.0625  0.5848  0.6224
  890MOL0     C17363   7.528   5.769   1.812 -1.2777 -0.1255  0.8293
  890MOL0     C17364   7.661   5.830   1.764  0.3640  0.5879  0.4522
  890MOL0     N17365   7.686   5.807   1.623  0.6796 -0.7271  0.2578
  890MOL0     C17366   7.804   5.776   1.556  0.4971 -0.2873  0.2799
  890MOL0     C17367   7.765   5.775   1.426  0.3362 -0.3145 -0.9990
  890MOL0     C17368   7.849   5.732   1.311  0.2446  0.3318  0.2295
  890MOL0     C17369   8.003   5.750   1.322 -0.6036  0.4078  0.4063
  890MOL0     C17370   8.053   5.894   1.286  0.5159  0.3535  0.0247
  890MOL0     C17371   8.211   5.900   1.305  0.3841 -1.2863  0.4925
  890MOL0     O17372   8.243   5.890   1.448  0.5155  0.5128 -0.6347
  890MOL0     C17373   8.350   5.815   1.481 -0.1209 -0.3853 -0.5472
  890MOL0     C17374   8.458   5.806   1.405  0.1112  0.6053 -0.1094
  890MOL0     C17375   8.564   5.720   1.424  0.5055 -0.6668 -0.4051
  890MOL0     C17376   8.567   5.631   1.535 -0.2337  0.7029 -0.4720
  890MOL0     C17377   8.677   5.539   1.558  0.6169  0.5199  0.7009
  890MOL0     O17378   8.766   5.509   1.451 -0.7055 -0.3930  0.3659
  890MOL0     C17379   8.877   5.430   1.482 -0.0379 -1.7450  0.2273
  890MOL0     C17380   8.871   5.312   1.553 -0.2728  0.4020 -0.1710
  890MOL0     C17381   8.991   5.249   1.584  0.6444  0.6597  0.0351
  890MOL0     C17382   9.113   5.311   1.554 -1.6158 -0.4712  0.6476
  890MOL0     O17383   9.223   5.230   1.568 -0.2843 -0.0029 -0.6430
  890MOL0     C17384   9.344   5.286   1.605  1.3237 -0.1237  0.7949
  890MOL0     C17385   9.419   5.155   1.632 -0.3142  0.6592 -0.2581
  890MOL0     C17386   9.552   5.198   1.704 -0.0949 -0.8140 -0.3085
  890MOL0     C17387   9.642   5.077   1.747  0.4804  0.1482  0.9012
  890MOL0     C17388   9.759   5.101   1.843 -0.8131  0.0451 -0.2923
  890MOL0     C17389   9.824   4.973   1.871  0.2301  1.0076  0.1071
  890MOL0     C17390   9.959   4.982   1.943  0.4429  1.0529 -0.3943
  890MOL0     C17391  10.079   5.019   1.858  0.1767 -0.4140 -0.1644
  890MOL0    Cl17392  10.148   4.886   1.759 -0.2178  0.5506 -0.0695
  890MOL0     C17393   9.123   5.440   1.492 -0.3702  0.5374  1.1217
  890MOL0     C17394   9.002   5.497   1.455  0.3661  0.0062 -0.3330
  890MOL0     O17395   8.695   5.520   1.682 -1.0597 -0.0429  0.1668
  890MOL0     C17396   8.453   5.652   1.626 -0.8120  0.2486 -0.7491
  890MOL0     C17397   8.353   5.740   1.594  0.7647  0.9306  0.1832
  890MOL0     N17398   7.630   5.801   1.416  0.1197  0.0724  0.6964
  890MOL0     N17399   7.583   5.810   1.533 -0.7565 -0.0970  0.0604
  890MOL0     C17400   6.896   5.856   2.239  0.0675 -0.2657 -0.5008
  890MOL0     C17401   6.808   5.791   2.158 -0.0676  1.2068 -0.5744
  890MOL0     C17402   6.590   5.562   1.837 -0.5775 -0.8067 -0.0415
  890MOL0     C17403   6.546   5.444   1.895  0.6999 -0.2313 -0.3506
  890MOL0     C17404   6.433   5.379   1.834 -0.4540 -0.6126  0.2995
  890MOL0     C17405   6.370   5.433   1.716 -0.2832 -0.4401 -0.3210
  890MOL0     O17406   6.270   5.372   1.641  0.3319  0.0232 -0.2986
  890MOL0     C17407   6.178   5.277   1.701  0.8908 -0.2738  0.2695
  890MOL0     C17408   6.235   5.136   1.690 -0.2635 -0.3929  0.4575
  890MOL0     C17409   6.276   5.116   1.544 -0.0651  0.6446  0.4374
  890MOL0     C17410   6.279   4.970   1.511 -1.0312 -0.0165 -0.2234
  890MOL0     C17411   6.401   4.903   1.559 -1.0960  0.2689 -0.6091
  890MOL0     C17412   6.494   4.846   1.610 -0.9614  0.5562  0.5821
  890MOL0     C17413   6.432   5.542   1.657  0.0503 -0.0301  0.0374
  890MOL0     C17414   6.539   5.611   1.719  0.9622  0.7038  0.4369
  890MOL0     H17415   7.010   5.540   2.046 -2.5639 -0.1113  0.5172
  890MOL0     H17416   7.184   5.686   2.181  0.0844 -1.2931  2.9224
  890MOL0     H17417   7.136   6.087   2.390 -0.4296  1.2696 -0.4536
  890MOL0     H17418   7.092   6.072   2.221  0.5999  0.0361 -0.6501
  890MOL0     H17419   7.342   6.000   2.367 -3.4030 -0.3652  1.2127
  890MOL0     H17420   7.335   6.138   2.280  1.8094 -0.4751 -0.0514
  890MOL0     H17421   7.312   6.019   2.069  2.0570  1.5976  0.2086
  890MOL0     H17422   7.310   5.862   2.155 -4.1985  0.2622  0.0945
  890MOL0     H17423   7.545   6.056   2.197  0.3313 -0.7833  1.1983
  890MOL0     H17424   7.539   5.882   2.212  2.1008  1.9119  0.2249
  890MOL0     H17425   7.648   5.972   2.005 -0.0681 -1.1850  1.4284
  890MOL0     H17426   7.483   6.004   1.930 -3.9847 -2.0614  0.1343
  890MOL0     H17427   7.425   5.765   1.989 -0.7545  2.6637 -0.0434
  890MOL0     H17428   7.609   5.735   2.002 -0.3223 -0.4591 -0.0172
  890MOL0     H17429   7.517   5.665   1.780 -1.1841  0.9197 -3.0850
  890MOL0     H17430   7.441   5.811   1.761 -0.1576  2.1231  0.6397
  890MOL0     H17431   7.749   5.798   1.821 -0.5044 -1.3659  0.7864
  890MOL0     H17432   7.650   5.939   1.763 -0.9200  0.4758 -1.4849
  890MOL0     H17433   7.901   5.740   1.588  0.5536 -1.9402 -1.5430
  890MOL0     H17434   7.815   5.774   1.216 -0.9438  0.7372  0.8057
  890MOL0     H17435   7.832   5.625   1.291 -0.8220  0.8327 -1.7605
  890MOL0     H17436   8.040   5.682   1.246 -2.5756 -1.7239  1.2191
  890MOL0     H17437   8.043   5.720   1.419 -1.6055 -1.4663  0.2811
  890MOL0     H17438   8.035   5.919   1.181  1.3559 -2.3998 -0.8835
  890MOL0     H17439   7.998   5.962   1.351  1.6477  0.8830  0.4569
  890MOL0     H17440   8.256   5.989   1.259 -1.6008 -1.9060 -2.9963
  890MOL0     H17441   8.249   5.810   1.256 -1.4966 -2.2072  0.6540
  890MOL0     H17442   8.449   5.867   1.315 -1.1113  0.4691 -0.0904
  890MOL0     H17443   8.639   5.730   1.346  1.6860 -0.1858  0.7537
  890MOL0     H17444   8.782   5.251   1.567  1.0914 -1.4187  1.1535
  890MOL0     H17445   8.999   5.161   1.648  0.9100  0.9381  0.3890
  890MOL0     H17446   9.338   5.352   1.691  0.7764  4.1064 -2.1893
  890MOL0     H17447   9.385   5.342   1.520 -0.9326 -1.3674 -1.2308
  890MOL0     H17448   9.435   5.095   1.541  1.4043  0.3102  0.2303
  890MOL0     H17449   9.362   5.086   1.695  2.0037  0.9377  2.3392
  890MOL0     H17450   9.511   5.231   1.800  0.3325 -0.3941 -0.2724
  890MOL0     H17451   9.601   5.282   1.655  0.9457 -0.3031  1.5103
  890MOL0     H17452   9.570   5.000   1.778 -2.0557  1.5948 -1.0202
  890MOL0     H17453   9.679   5.037   1.652 -1.0425  0.6837  0.0483
  890MOL0     H17454   9.715   5.145   1.933  0.1331  0.4030  0.0048
  890MOL0     H17455   9.828   5.177   1.807  1.0390 -1.5161 -0.1542
  890MOL0     H17456   9.853   4.927   1.776 -1.1628  3.1354 -1.4280
  890MOL0     H17457   9.757   4.916   1.936 -0.1435 -1.7625 -2.4655
  890MOL0     H17458   9.955   5.059   2.022  1.6163  2.4072 -1.5885
  890MOL0     H17459   9.983   4.883   1.982 -0.0261 -0.1810 -3.0753
  890MOL0     H17460  10.150   5.046   1.937 -0.8992  1.2070  0.2970
  890MOL0     H17461  10.046   5.105   1.800 -2.0542 -0.4449  0.9542
  890MOL0     H17462   9.224   5.476   1.475  0.4139 -2.0553 -0.4336
  890MOL0     H17463   8.973   5.593   1.413 -2.2841 -0.2079  0.7941
  890MOL0     H17464   8.440   5.596   1.718  2.9927 -3.3366 -2.0539
  890MOL0     H17465   8.268   5.746   1.661 -0.6738 -1.2155 -1.3069
  890MOL0     H17466   6.864   5.943   2.296  3.6863  0.9272 -0.0644
  890MOL0     H17467   6.705   5.825   2.170  0.5574  2.8847  0.2875
  890MOL0     H17468   6.587   5.415   1.991  1.9593 -0.3817 -0.9164
  890MOL0     H17469   6.375   5.303   1.885 -2.1293  0.4352  0.0473
  890MOL0     H17470   6.085   5.286   1.645  1.4671  1.3356 -0.5099
  890MOL0     H17471   6.145   5.288   1.805 -1.2672 -4.1932  0.1762
  890MOL0     H17472   6.306   5.113   1.770 -0.5274 -1.6532  0.3444
  890MOL0     H17473   6.158   5.060   1.708  0.2943 -0.6138  2.1461
  890MOL0     H17474   6.377   5.158   1.532 -0.3722  1.0833 -0.8312
  890MOL0     H17475   6.208   5.172   1.479  3.3662  4.0903 -0.6378
  890MOL0     H17476   6.188   4.926   1.554 -0.0496 -1.3106  0.5858
  890MOL0     H17477   6.275   4.945   1.405 -0.0957 -0.3901 -0.1749
  890MOL0     H17478   6.567   4.793   1.668 -2.0445  0.0775  1.5445
  890MOL0     H17479   6.391   5.582   1.566 -0.1212 -1.4902 -0.5595
  890MOL0     H17480   6.567   5.701   1.665  0.7553  0.5480  0.0702
  891MOL0     O17481   1.344   6.409   2.480  0.0670 -0.7635 -0.0231
  891MOL0     C17482   1.456   6.369   2.470  0.2556 -1.0224 -0.7198
  891MOL0     O17483   1.562   6.420   2.542 -0.0826  0.0786  0.3139
  891MOL0     C17484   1.548   6.505   2.640 -0.6741 -0.2834  0.0982
  891MOL0     C17485   1.442   6.555   2.708  0.1012 -1.1433 -0.2088
  891MOL0     C17486   1.459   6.659   2.803 -0.5583  0.2184  1.4745
  891MOL0     C17487   1.584   6.694   2.849 -0.4633 -0.8373 -1.2877
  891MOL0     O17488   1.604   6.808   2.931  0.1864 -0.6717  0.5370
  891MOL0     C17489   1.619   6.928   2.853  0.2454 -0.5681  0.2041
  891MOL0     C17490   1.756   6.980   2.859  0.0389  0.4846 -0.9217
  891MOL0     C17491   1.789   7.097   2.762  0.1844  0.0443  0.0607
  891MOL0     C17492   1.884   7.184   2.814 -0.5664  0.9872 -0.4314
  891MOL0     C17493   1.869   7.331   2.754  0.3616  1.8099  0.1793
  891MOL0     C17494   1.974   7.417   2.823  0.1843 -0.1908  0.0994
  891MOL0     C17495   1.967   7.561   2.764  0.3417  0.3266  0.3656
  891MOL0     C17496   2.021   7.658   2.880 -0.1834 -0.3359 -0.6480
  891MOL0     N17497   2.016   7.801   2.848 -0.2209 -0.6077  0.8446
  891MOL0     C17498   1.950   7.891   2.931 -0.8125 -1.5545 -0.3198
  891MOL0     C17499   1.958   8.021   2.872 -0.6245 -0.3078 -0.4038
  891MOL0     C17500   1.912   8.146   2.939  0.8533  0.3921 -0.3640
  891MOL0     C17501   1.940   8.260   2.851 -0.4551 -0.3542 -0.6805
  891MOL0     C17502   1.904   8.404   2.901 -0.3428 -0.1269 -0.0014
  891MOL0     C17503   1.937   8.509   2.798 -0.3985 -0.1144  0.8790
  891MOL0     O17504   1.949   8.636   2.862 -0.5818 -1.1304 -0.0072
  891MOL0     C17505   1.845   8.724   2.883  0.3089  0.5790 -0.6948
  891MOL0     C17506   1.873   8.836   2.957 -0.0159  0.4169 -0.0228
  891MOL0     C17507   1.779   8.916   3.018 -0.0773  0.7072 -0.1208
  891MOL0     C17508   1.642   8.892   2.992  0.7240 -0.0195 -1.1967
  891MOL0     C17509   1.535   8.980   3.058  0.5005 -1.0876  0.2282
  891MOL0     O17510   1.416   8.918   3.053  0.2022 -0.3619 -0.4077
  891MOL0     C17511   1.302   8.993   3.086 -0.5663 -0.7675  0.0510
  891MOL0     C17512   1.277   9.084   3.190  0.7249  0.9919 -0.7416
  891MOL0     C17513   1.146   9.149   3.198 -0.0316  0.3852 -0.8147
  891MOL0     C17514   1.045   9.121   3.105 -0.8623  0.0474 -0.1521
  891MOL0     O17515   0.906   9.150   3.114  0.2859 -0.5423 -0.3362
  891MOL0     C17516   0.856   9.214   3.232 -0.0686 -0.4515  0.1401
  891MOL0     C17517   0.794   9.347   3.179  0.5875  0.0979 -0.0420
  891MOL0     C17518   0.714   9.393   3.306  1.0208 -0.4556  0.5194
  891MOL0     C17519   0.645   9.528   3.269  0.0403 -0.4080 -0.0612
  891MOL0     C17520   0.752   9.643   3.242  0.1711 -0.4905 -0.7772
  891MOL0     C17521   0.671   9.775   3.249 -0.3050 -0.0673  1.1479
  891MOL0     C17522   0.764   9.896   3.209 -0.6241 -0.4624  1.1960
  891MOL0     C17523   0.723  10.016   3.281  0.8436  0.5880 -0.9424
  891MOL0    Cl17524   0.824  10.153   3.235  0.4830 -0.1864  0.3791
  891MOL0     C17525   1.069   9.038   3.003 -0.5038 -1.1903  0.3526
  891MOL0     C17526   1.195   8.972   2.989 -0.3769 -0.1436  0.5909
  891MOL0     O17527   1.556   9.100   3.097 -0.6746  0.6230  0.1460
  891MOL0     C17528   1.610   8.792   2.897 -0.6479  0.1308  0.4705
  891MOL0     C17529   1.709   8.707   2.838 -0.3354  0.2237 -1.0894
  891MOL0     N17530   2.024   7.993   2.747 -0.1482  0.8898 -1.0930
  891MOL0     N17531   2.042   7.867   2.733 -1.1245 -0.0389 -0.2006
  891MOL0     C17532   1.690   6.622   2.795 -0.0121 -0.5906  0.4112
  891MOL0     C17533   1.673   6.532   2.693 -0.7705 -0.6169 -0.1580
  891MOL0     C17534   1.475   6.269   2.363 -0.2478  0.6472  0.3534
  891MOL0     C17535   1.591   6.193   2.344  0.6427 -0.6848  0.2587
  891MOL0     C17536   1.601   6.096   2.249 -0.0992 -1.3794  0.9328
  891MOL0     C17537   1.490   6.063   2.167 -1.1848 -0.4569  0.1641
  891MOL0     O17538   1.491   5.963   2.084  0.5082  0.2771  0.2612
  891MOL0     C17539   1.606   5.877   2.085  0.6945 -0.8465  0.7838
  891MOL0     C17540   1.587   5.778   1.968  0.1631 -0.2275  0.6099
  891MOL0     C17541   1.566   5.843   1.839  0.1750 -0.3895  0.5386
  891MOL0     C17542   1.648   5.780   1.713  0.9421  0.1149 -0.7839
  891MOL0     C17543   1.590   5.656   1.666  1.2712  0.6610 -0.3018
  891MOL0     C17544   1.516   5.571   1.617 -0.1653 -0.1359 -0.2072
  891MOL0     C17545   1.379   6.142   2.173 -0.4960  0.5298  0.9555
  891MOL0     C17546   1.368   6.238   2.268  0.7365 -0.2047 -0.3655
  891MOL0     H17547   1.339   6.533   2.681 -0.3528  1.5486 -0.9148
  891MOL0     H17548   1.371   6.698   2.854 -2.2990 -2.5505  0.8354
  891MOL0     H17549   1.551   7.005   2.889 -0.1080 -0.8354  0.1086
  891MOL0     H17550   1.584   6.909   2.751  1.3178 -0.3324 -0.2236
  891MOL0     H17551   1.834   6.906   2.839  0.9553  1.3576 -0.7027
  891MOL0     H17552   1.767   7.016   2.962 -1.0877 -1.3151 -0.1322
  891MOL0     H17553   1.699   7.148   2.726  0.4304  0.8839  0.6073
  891MOL0     H17554   1.822   7.053   2.667 -2.5865 -2.7493  0.2053
  891MOL0     H17555   1.887   7.192   2.923  0.4616  0.8977 -0.4425
  891MOL0     H17556   1.988   7.151   2.804 -0.4514  0.2561  2.4645
  891MOL0     H17557   1.766   7.365   2.768 -0.5935 -0.5845 -0.5750
  891MOL0     H17558   1.879   7.331   2.645  1.1636 -0.5890  0.2096
  891MOL0     H17559   2.069   7.370   2.799 -0.3800 -0.3839 -1.9379
  891MOL0     H17560   1.958   7.413   2.931  1.1726 -1.2183  0.2174
  891MOL0     H17561   2.032   7.570   2.677 -1.2700 -1.7681 -1.1363
  891MOL0     H17562   1.868   7.577   2.722  0.3243  3.8386  1.3553
  891MOL0     H17563   2.125   7.631   2.898 -0.9014 -3.0259 -0.0545
  891MOL0     H17564   1.966   7.640   2.972 -1.1261  3.0171 -0.4274
  891MOL0     H17565   1.892   7.883   3.023 -0.5403  0.5389  0.1023
  891MOL0     H17566   1.967   8.144   3.033 -1.1760 -1.2388  0.8689
  891MOL0     H17567   1.803   8.147   2.946  0.7814  1.1225 -1.2940
  891MOL0     H17568   1.882   8.243   2.760 -1.1597 -0.1534 -0.2733
  891MOL0     H17569   2.046   8.244   2.826 -0.3658 -0.9782  0.0560
  891MOL0     H17570   1.796   8.406   2.922 -0.2351 -2.4906  1.1404
  891MOL0     H17571   1.964   8.416   2.992  0.9424  0.5338 -0.8977
  891MOL0     H17572   1.864   8.519   2.718 -1.6805  1.5643  2.1878
  891MOL0     H17573   2.037   8.491   2.759 -0.6388  0.1508  0.1346
  891MOL0     H17574   1.977   8.844   2.986  1.3375  1.1583 -4.3366
  891MOL0     H17575   1.813   8.991   3.089 -0.7324  2.7397 -1.8411
  891MOL0     H17576   1.352   9.105   3.265 -1.1016  1.5032  1.0372
  891MOL0     H17577   1.134   9.211   3.286  1.1668  1.1894 -1.1946
  891MOL0     H17578   0.933   9.224   3.309  1.0491  0.9666 -1.0961
  891MOL0     H17579   0.768   9.156   3.262 -1.0773  0.7106 -0.4860
  891MOL0     H17580   0.721   9.331   3.098 -1.1001  1.0525  1.2110
  891MOL0     H17581   0.860   9.427   3.145 -1.7536  0.3976 -4.6879
  891MOL0     H17582   0.782   9.413   3.389  1.8679  3.6755 -0.9286
  891MOL0     H17583   0.630   9.331   3.338 -1.7378  1.5139 -2.2979
  891MOL0     H17584   0.597   9.510   3.173  2.1928 -1.3623 -1.0202
  891MOL0     H17585   0.571   9.555   3.345  0.6736  0.8296  0.1382
  891MOL0     H17586   0.791   9.629   3.141  3.7426  0.5956  0.2935
  891MOL0     H17587   0.827   9.652   3.322  0.2937 -2.5269 -0.6117
  891MOL0     H17588   0.631   9.785   3.351  0.8508  1.8665  1.4608
  891MOL0     H17589   0.584   9.760   3.184  1.3847 -1.2823 -0.9245
  891MOL0     H17590   0.863   9.878   3.251  0.0936  1.3661  0.4060
  891MOL0     H17591   0.778   9.912   3.101 -2.4551 -2.7902  0.5258
  891MOL0     H17592   0.733  10.007   3.390  0.9785  1.4043 -0.8749
  891MOL0     H17593   0.619  10.023   3.248  1.1484  0.1462 -2.0583
  891MOL0     H17594   0.983   9.009   2.944  1.1639 -0.0293 -2.8401
  891MOL0     H17595   1.217   8.891   2.920  0.4347 -3.5104  4.4173
  891MOL0     H17596   1.515   8.787   2.845  0.9403 -1.3679 -2.5897
  891MOL0     H17597   1.670   8.621   2.785 -0.8366  0.1672 -0.6339
  891MOL0     H17598   1.787   6.656   2.830 -0.6632  0.6636  1.0808
  891MOL0     H17599   1.755   6.473   2.652 -0.5967  0.7275 -1.8927
  891MOL0     H17600   1.679   6.211   2.405  1.7092  0.3194 -1.5171
  891MOL0     H17601   1.696   6.049   2.226  0.0471 -0.0735 -1.4448
  891MOL0     H17602   1.590   5.824   2.179 -1.0167 -3.7956 -1.0135
  891MOL0     H17603   1.706   5.922   2.078 -0.1183  0.9927  0.1902
  891MOL0     H17604   1.671   5.708   1.973 -0.9290 -1.5013  2.9636
  891MOL0     H17605   1.496   5.726   2.001  1.2693 -0.0592  4.4048
  891MOL0     H17606   1.584   5.951   1.840  3.3897 -0.8355  1.2084
  891MOL0     H17607   1.464   5.812   1.817  1.1117 -2.6587 -1.0212
  891MOL0     H17608   1.644   5.858   1.636  2.3274  0.4391 -0.5525
  891MOL0     H17609   1.751   5.763   1.743  1.1616 -1.3520 -2.2246
  891MOL0     H17610   1.446   5.494   1.594 -2.9651  2.4832 -1.0444
  891MOL0     H17611   1.290   6.119   2.115  1.0339  0.7865 -1.6682
  891MOL0     H17612   1.271   6.288   2.268  1.0013  0.3477 -1.2559
  892MOL0     O17613   6.914   2.575   0.234 -0.2455 -0.0118  1.0382
  892MOL0     C17614   6.824   2.544   0.315  0.2107 -0.2431  0.7087
  892MOL0     O17615   6.684   2.545   0.282  0.6425 -0.4964  0.3676
  892MOL0     C17616   6.644   2.594   0.155 -0.9268 -0.7052  0.6173
  892MOL0     C17617   6.695   2.717   0.111  0.3352  0.6315 -0.3146
  892MOL0     C17618   6.671   2.756  -0.021 -0.0434 -0.5831 -0.1113
  892MOL0     C17619   6.592   2.675  -0.104 -1.8469  0.5497  0.4442
  892MOL0     O17620   6.553   2.712  -0.235  0.0113  0.0485 -0.5414
  892MOL0     C17621   6.587   2.839  -0.279 -0.2008 -0.4959 -0.0950
  892MOL0     C17622   6.549   2.871  -0.423  0.3123  0.4313  0.9414
  892MOL0     C17623   6.612   2.787  -0.525 -0.4836  0.0909 -0.0409
  892MOL0     C17624   6.595   2.837  -0.670 -1.4201  0.4915  0.5605
  892MOL0     C17625   6.710   2.779  -0.750 -0.4116  0.3841  0.3036
  892MOL0     C17626   6.735   2.830  -0.896  0.8757  0.0119 -0.1889
  892MOL0     C17627   6.614   2.828  -0.984  0.4251 -0.3018  0.0601
  892MOL0     C17628   6.545   2.974  -0.972 -1.0042 -0.5326  0.6293
  892MOL0     N17629   6.633   3.082  -1.017  0.9012 -0.0100 -0.3087
  892MOL0     C17630   6.667   3.191  -0.936 -0.0801  0.5490  0.1544
  892MOL0     C17631   6.775   3.243  -1.000 -0.3122 -0.6877 -0.2019
  892MOL0     C17632   6.856   3.369  -0.976  1.0883  0.0503  1.3379
  892MOL0     C17633   6.974   3.341  -0.892 -0.6901  0.4428 -0.8956
  892MOL0     C17634   6.932   3.296  -0.748 -0.0481 -0.4604  1.0282
  892MOL0     C17635   6.835   3.400  -0.684  0.4208  0.0786 -0.3321
  892MOL0     O17636   6.901   3.530  -0.679 -0.0834 -0.1251 -0.4579
  892MOL0     C17637   6.954   3.572  -0.564 -0.6813 -0.1020 -0.8671
  892MOL0     C17638   7.089   3.552  -0.524  0.8691  0.2966  0.3669
  892MOL0     C17639   7.131   3.584  -0.394  0.1050  0.5823 -0.3289
  892MOL0     C17640   7.049   3.640  -0.292 -1.0463 -0.1039 -0.5915
  892MOL0     C17641   7.112   3.674  -0.160  0.1592 -0.5619  0.3720
  892MOL0     O17642   7.023   3.714  -0.067  0.0234 -0.2125  0.6609
  892MOL0     C17643   7.076   3.725   0.057  0.1521  0.1063  0.6100
  892MOL0     C17644   7.088   3.851   0.111 -0.2984 -0.3903 -0.5479
  892MOL0     C17645   7.156   3.863   0.230  0.1212 -0.0900  0.3764
  892MOL0     C17646   7.197   3.760   0.306 -1.1338 -0.1130  0.4907
  892MOL0     O17647   7.285   3.773   0.411  0.4952 -0.2216 -1.1179
  892MOL0     C17648   7.372   3.665   0.442 -0.7152 -0.1450 -0.3974
  892MOL0     C17649   7.499   3.728   0.503  0.4649 -0.1519  0.2067
  892MOL0     C17650   7.622   3.626   0.500  0.5120 -0.2349 -0.7780
  892MOL0     C17651   7.755   3.689   0.543  0.2609  0.3273 -0.6067
  892MOL0     C17652   7.829   3.582   0.627  0.6349 -0.1791  0.7025
  892MOL0     C17653   7.968   3.612   0.681 -0.1883 -0.1539 -0.1486
  892MOL0     C17654   8.004   3.512   0.794  0.3042 -0.6447  0.6461
  892MOL0     C17655   8.063   3.604   0.913  0.3654  0.1687 -0.6295
  892MOL0    Cl17656   8.240   3.641   0.867  0.1224  0.3746 -0.1109
  892MOL0     C17657   7.162   3.629   0.261  0.0800  0.8420 -0.0841
  892MOL0     C17658   7.112   3.610   0.130 -0.3710  0.7887 -0.4069
  892MOL0     O17659   7.238   3.668  -0.157 -0.0793  0.1821 -1.1405
  892MOL0     C17660   6.910   3.652  -0.325  0.3834  0.4218 -0.7510
  892MOL0     C17661   6.870   3.622  -0.452 -0.2791 -0.0212 -0.6281
  892MOL0     N17662   6.811   3.156  -1.103  0.2393 -0.5018 -0.2328
  892MOL0     N17663   6.733   3.058  -1.112 -0.3379  0.1179  0.0669
  892MOL0     C17664   6.532   2.559  -0.052  0.6449  0.0849  0.3721
  892MOL0     C17665   6.559   2.515   0.080 -0.2396  1.0486  0.5884
  892MOL0     C17666   6.863   2.494   0.450 -0.7024 -0.0898 -0.7795
  892MOL0     C17667   6.774   2.431   0.533  0.1598 -0.4365  0.2062
  892MOL0     C17668   6.821   2.386   0.660  0.9764  0.6280  0.2957
  892MOL0     C17669   6.953   2.392   0.705  0.3990  0.0667  0.3295
  892MOL0     O17670   6.974   2.347   0.831  0.8400 -0.0330  0.1057
  892MOL0     C17671   7.077   2.396   0.910  0.3680 -0.2482 -0.6962
  892MOL0     C17672   7.075   2.551   0.925 -0.0270  0.0674  0.1884
  892MOL0     C17673   6.940   2.586   0.987  0.3729 -0.5410 -0.7765
  892MOL0     C17674   6.917   2.738   0.995 -0.0872  0.2245  0.4177
  892MOL0     C17675   6.790   2.761   1.079 -0.3702  0.1866  0.9729
  892MOL0     C17676   6.694   2.797   1.134  0.2270 -0.5970 -0.8872
  892MOL0     C17677   7.035   2.458   0.609 -0.3388 -0.4750 -0.4182
  892MOL0     C17678   6.994   2.510   0.488 -0.1140 -0.0562  0.1143
  892MOL0     H17679   6.761   2.775   0.175 -0.0457  0.9870 -0.2400
  892MOL0     H17680   6.715   2.846  -0.063 -1.1468 -0.6407 -1.4459
  892MOL0     H17681   6.694   2.857  -0.270 -0.8224  3.1450  2.1564
  892MOL0     H17682   6.528   2.910  -0.221  1.2584  3.0547 -2.6140
  892MOL0     H17683   6.602   2.962  -0.450  0.5773  0.6633  2.1725
  892MOL0     H17684   6.441   2.874  -0.435  0.1832  1.5618  2.1106
  892MOL0     H17685   6.587   2.681  -0.515  3.5977 -0.9983  0.8493
  892MOL0     H17686   6.719   2.787  -0.502  0.1080 -1.0904 -2.5271
  892MOL0     H17687   6.503   2.792  -0.708  0.4528 -0.4143 -3.5756
  892MOL0     H17688   6.594   2.946  -0.680 -0.0207  0.3901 -1.2778
  892MOL0     H17689   6.682   2.675  -0.768 -0.4397  0.6237 -1.1055
  892MOL0     H17690   6.808   2.783  -0.701 -0.2279  0.9625 -0.0945
  892MOL0     H17691   6.806   2.762  -0.944 -1.5767 -0.1328 -4.0954
  892MOL0     H17692   6.782   2.925  -0.871  0.6309 -0.5293  2.7652
  892MOL0     H17693   6.634   2.803  -1.088  2.0811  4.5831 -1.0643
  892MOL0     H17694   6.545   2.755  -0.940  0.0842 -1.1664 -1.8353
  892MOL0     H17695   6.520   2.994  -0.868  1.3317  1.5378  0.8970
  892MOL0     H17696   6.456   2.972  -1.036 -1.0320  0.0482  0.6458
  892MOL0     H17697   6.633   3.226  -0.839  2.6909  2.6468  0.5095
  892MOL0     H17698   6.788   3.438  -0.925  0.8203  1.5406 -0.9025
  892MOL0     H17699   6.897   3.407  -1.070  3.1131  0.3275  2.2819
  892MOL0     H17700   7.020   3.438  -0.873 -1.1738  0.7239 -1.1452
  892MOL0     H17701   7.048   3.273  -0.936 -2.3262 -3.2729  1.5452
  892MOL0     H17702   6.878   3.200  -0.742 -0.3443 -0.2846  6.5668
  892MOL0     H17703   7.024   3.297  -0.690  0.4177 -0.0071  0.2986
  892MOL0     H17704   6.819   3.371  -0.580  2.2462  3.4191  1.0211
  892MOL0     H17705   6.736   3.408  -0.731  0.0653  1.4178  0.5970
  892MOL0     H17706   7.158   3.505  -0.593 -1.2268 -3.3351  0.4965
  892MOL0     H17707   7.235   3.558  -0.375  0.0678 -2.1183 -2.9782
  892MOL0     H17708   7.066   3.938   0.051 -0.0108 -0.1043 -0.2424
  892MOL0     H17709   7.192   3.962   0.257 -2.3010  1.1179 -0.5946
  892MOL0     H17710   7.410   3.626   0.347  1.5356  2.6787 -0.8241
  892MOL0     H17711   7.329   3.591   0.510  1.2952  1.8929  3.4150
  892MOL0     H17712   7.484   3.762   0.606 -0.0906 -0.6897  0.3063
  892MOL0     H17713   7.517   3.820   0.445  3.6856 -1.2470 -0.7412
  892MOL0     H17714   7.638   3.580   0.402  0.0936 -1.7987 -0.1511
  892MOL0     H17715   7.593   3.554   0.577 -0.2270 -0.0318 -0.8534
  892MOL0     H17716   7.811   3.721   0.455 -1.8968  2.6773 -1.2432
  892MOL0     H17717   7.737   3.785   0.592 -0.9059 -0.1119 -0.1347
  892MOL0     H17718   7.833   3.490   0.568  5.0874  1.7121 -2.5523
  892MOL0     H17719   7.764   3.566   0.713 -1.4983  0.4386 -0.7248
  892MOL0     H17720   7.953   3.716   0.710 -2.1700 -0.3703 -0.2606
  892MOL0     H17721   8.033   3.621   0.594 -1.6255  0.9172 -1.1555
  892MOL0     H17722   7.912   3.469   0.835  1.3359 -1.1219  2.5804
  892MOL0     H17723   8.077   3.436   0.763  2.2026  0.9623  0.9728
  892MOL0     H17724   8.056   3.556   1.011 -2.2055 -0.8811 -1.2409
  892MOL0     H17725   8.011   3.700   0.905  2.4633  1.2402 -2.1268
  892MOL0     H17726   7.173   3.533   0.311  1.3869  0.1582 -1.5894
  892MOL0     H17727   7.088   3.512   0.091 -3.0342  0.7784  1.0491
  892MOL0     H17728   6.845   3.689  -0.247  0.9893  1.0534 -0.5394
  892MOL0     H17729   6.766   3.640  -0.478  0.6220  3.1036 -2.6123
  892MOL0     H17730   6.453   2.507  -0.106  1.4830  1.2223 -2.0970
  892MOL0     H17731   6.525   2.427   0.133  0.4528  2.2451  3.1793
  892MOL0     H17732   6.673   2.412   0.500 -0.0740  2.9351 -1.3805
  892MOL0     H17733   6.753   2.334   0.726 -0.6654 -0.0089 -1.7765
  892MOL0     H17734   7.172   2.366   0.864  0.6203 -2.6866  1.2232
  892MOL0     H17735   7.092   2.350   1.008 -0.2680  2.2157  0.6385
  892MOL0     H17736   7.144   2.576   1.006 -2.6288 -2.3911  3.4907
  892MOL0     H17737   7.095   2.602   0.831 -3.6543 -2.3693 -2.1880
  892MOL0     H17738   6.951   2.549   1.089  1.1197 -2.0789 -1.3949
  892MOL0     H17739   6.859   2.530   0.939 -0.7581  1.6418 -1.5778
  892MOL0     H17740   7.007   2.775   1.045  1.5908 -2.2981 -0.5255
  892MOL0     H17741   6.909   2.776   0.893 -0.0325 -2.6000 -0.7169
  892MOL0     H17742   6.603   2.833   1.177  0.9898 -0.2489  0.5083
  892MOL0     H17743   7.133   2.470   0.654 -0.7003 -2.2992  0.9835
  892MOL0     H17744   7.059   2.566   0.422 -1.8981  3.1194  0.8267
  893MOL0     O17745   4.843   8.257  10.145  0.0564  0.2052  0.1041
  893MOL0     C17746   4.774   8.242  10.245  0.1856 -1.0841  0.0273
  893MOL0     O17747   4.642   8.217  10.250 -0.4830  0.2571 -0.1696
  893MOL0     C17748   4.567   8.230  10.134 -0.6475  0.4027  1.1990
  893MOL0     C17749   4.445   8.293  10.146 -0.1406 -0.6013 -0.4491
  893MOL0     C17750   4.355   8.299  10.037  0.7147  0.2876  0.1603
  893MOL0     C17751   4.383   8.226   9.919  0.5193 -0.0201 -0.3000
  893MOL0     O17752   4.282   8.225   9.827  0.1942  0.4272  0.3363
  893MOL0     C17753   4.256   8.103   9.764 -0.2261 -0.1522 -1.4573
  893MOL0     C17754   4.138   8.114   9.669 -0.3326  0.6968 -0.3941
  893MOL0     C17755   4.159   8.221   9.571 -1.5810 -0.2580 -0.2764
  893MOL0     C17756   4.296   8.211   9.500 -0.3351  0.1951  0.3211
  893MOL0     C17757   4.299   8.285   9.361  0.2769 -0.1312 -1.1750
  893MOL0     C17758   4.441   8.285   9.291 -0.0964 -0.2449 -0.2804
  893MOL0     C17759   4.539   8.371   9.358  0.0220  0.0760  0.0865
  893MOL0     C17760   4.673   8.374   9.271 -0.1184  0.5330 -0.2198
  893MOL0     N17761   4.770   8.476   9.320 -0.5368  0.5838 -0.0840
  893MOL0     C17762   4.742   8.609   9.313 -0.4014  1.0727 -0.3529
  893MOL0     C17763   4.846   8.672   9.382 -0.9551  0.2582 -0.5659
  893MOL0     C17764   4.858   8.819   9.406 -0.3736  0.0577  0.4445
  893MOL0     C17765   4.963   8.893   9.325  0.0412  0.0825 -0.6793
  893MOL0     C17766   5.113   8.876   9.354  0.2813 -0.2889 -0.1357
  893MOL0     C17767   5.198   8.920   9.229  0.1734  0.2656  0.2366
  893MOL0     O17768   5.188   8.819   9.117 -0.4426 -0.4812 -0.1237
  893MOL0     C17769   5.264   8.832   9.007  0.4743  0.9240 -0.1812
  893MOL0     C17770   5.363   8.930   8.990  0.6337 -0.3300  0.1483
  893MOL0     C17771   5.438   8.947   8.880  0.0139  0.5320  1.0861
  893MOL0     C17772   5.413   8.868   8.768  0.1484 -0.4642  0.8409
  893MOL0     C17773   5.475   8.901   8.635 -0.5048  0.1392 -0.6722
  893MOL0     O17774   5.419   8.856   8.522 -1.3515  0.0612 -0.1771
  893MOL0     C17775   5.480   8.885   8.397  0.7307  0.2086 -0.0658
  893MOL0     C17776   5.581   8.811   8.352  0.2582 -0.5506 -0.9163
  893MOL0     C17777   5.642   8.838   8.227 -0.7366 -1.1768 -1.1198
  893MOL0     C17778   5.600   8.947   8.150 -0.7692 -0.0394 -0.1766
  893MOL0     O17779   5.649   8.954   8.024 -0.2927  0.0937  0.2808
  893MOL0     C17780   5.547   8.950   7.925  0.2431 -0.5074  0.8865
  893MOL0     C17781   5.576   8.874   7.789  0.1517  0.2471  0.6888
  893MOL0     C17782   5.622   8.967   7.680  0.0537 -0.3438 -0.4835
  893MOL0     C17783   5.558   8.926   7.539 -0.6475  0.1809  0.4748
  893MOL0     C17784   5.636   9.001   7.425  1.1926  0.2326  0.6754
  893MOL0     C17785   5.560   9.018   7.290 -0.1914  0.0273  0.5862
  893MOL0     C17786   5.661   9.050   7.177  0.4289 -0.0654  0.0297
  893MOL0     C17787   5.726   9.191   7.204  0.1407 -0.4308 -0.1954
  893MOL0    Cl17788   5.611   9.323   7.195 -0.2631  0.5809  0.1337
  893MOL0     C17789   5.503   9.028   8.208  0.7805 -0.1446  0.2528
  893MOL0     C17790   5.438   8.994   8.325 -0.8640  0.0938  0.7300
  893MOL0     O17791   5.564   8.986   8.642 -0.8194  0.8234  0.8631
  893MOL0     C17792   5.306   8.777   8.774 -0.2805 -0.7704 -0.9478
  893MOL0     C17793   5.236   8.756   8.897 -0.7890  0.0267 -0.1922
  893MOL0     N17794   4.920   8.565   9.442 -0.1130 -0.5458  0.7608
  893MOL0     N17795   4.868   8.450   9.412 -0.7544  0.2902 -0.0018
  893MOL0     C17796   4.511   8.156   9.905  0.2612 -0.0386 -0.1235
  893MOL0     C17797   4.593   8.164  10.016 -1.0937 -0.6064 -0.6322
  893MOL0     C17798   4.837   8.284  10.376  0.9942 -0.6871  0.6857
  893MOL0     C17799   4.755   8.287  10.490  0.1204 -0.8191 -1.1272
  893MOL0     C17800   4.824   8.316  10.611  0.2524 -1.1996 -0.5430
  893MOL0     C17801   4.963   8.343  10.619 -0.2066  0.2595  0.5656
  893MOL0     O17802   5.024   8.361  10.742  0.4871  0.2335 -0.3675
  893MOL0     C17803   5.041   8.499  10.776  0.3029  0.0250  0.1641
  893MOL0     C17804   5.023   8.495  10.930  0.4309 -0.7827  0.7107
  893MOL0     C17805   4.986   8.623  10.993 -0.2239  0.3030 -0.5420
  893MOL0     C17806   5.103   8.700  11.036  0.4777  0.6429  0.2583
  893MOL0     C17807   5.067   8.843  11.056 -0.0239 -0.1950  0.3929
  893MOL0     C17808   5.022   8.956  11.057  0.5889  0.6318  0.1323
  893MOL0     C17809   5.038   8.329  10.512  0.2893  0.7822 -0.7824
  893MOL0     C17810   4.976   8.302  10.391  0.1313 -0.6035  0.1232
  893MOL0     H17811   4.420   8.358  10.229  1.5432 -0.5653  0.0664
  893MOL0     H17812   4.262   8.354  10.052  0.5201  0.3725 -1.2593
  893MOL0     H17813   4.231   8.030   9.841  0.8487 -0.0444 -0.9850
  893MOL0     H17814   4.345   8.067   9.713  0.6385 -1.9446  1.1410
  893MOL0     H17815   4.050   8.126   9.734  0.1979  0.5391  0.3690
  893MOL0     H17816   4.126   8.023   9.610  0.0572 -0.2269  0.9057
  893MOL0     H17817   4.151   8.320   9.617  0.5673 -0.0593 -0.1984
  893MOL0     H17818   4.073   8.221   9.504 -3.5554 -3.6320  1.9873
  893MOL0     H17819   4.377   8.252   9.561  0.3133 -1.2152  0.4283
  893MOL0     H17820   4.329   8.110   9.474  2.8058  1.9736 -3.9583
  893MOL0     H17821   4.260   8.388   9.365  2.1918  0.7281 -2.8470
  893MOL0     H17822   4.244   8.213   9.301  2.1447 -2.2141 -0.5146
  893MOL0     H17823   4.427   8.315   9.187 -1.5158 -0.2816 -0.1182
  893MOL0     H17824   4.482   8.184   9.301  2.2404  0.7383  0.9093
  893MOL0     H17825   4.489   8.467   9.342 -0.7517 -0.5105 -1.2821
  893MOL0     H17826   4.554   8.343   9.462  2.7407 -0.0288 -0.2665
  893MOL0     H17827   4.654   8.388   9.164  1.2301 -2.0995 -0.8849
  893MOL0     H17828   4.721   8.276   9.280 -2.0241 -0.2975  1.9156
  893MOL0     H17829   4.657   8.662   9.271 -1.0892 -0.7887 -1.3799
  893MOL0     H17830   4.876   8.843   9.511  1.2454  1.7342 -0.1661
  893MOL0     H17831   4.757   8.857   9.388 -1.2566 -2.3269  0.0179
  893MOL0     H17832   4.950   9.001   9.339 -1.5851 -0.3661  2.1366
  893MOL0     H17833   4.937   8.869   9.222 -0.5985 -3.7988  0.2155
  893MOL0     H17834   5.130   8.936   9.444 -0.1598  0.3457 -0.4722
  893MOL0     H17835   5.137   8.772   9.376 -1.1173 -0.3765  1.1029
  893MOL0     H17836   5.303   8.939   9.253  1.4368 -2.6805 -2.3495
  893MOL0     H17837   5.162   9.020   9.202  0.8261  1.1009  2.2624
  893MOL0     H17838   5.370   9.009   9.064  1.0378  1.7080 -1.9394
  893MOL0     H17839   5.509   9.030   8.882  1.5137 -0.6995  0.5795
  893MOL0     H17840   5.610   8.727   8.414 -0.1429 -0.2763 -0.3396
  893MOL0     H17841   5.735   8.784   8.207  1.0142  1.4533 -0.5311
  893MOL0     H17842   5.516   9.052   7.901  1.2939 -0.6950 -1.4802
  893MOL0     H17843   5.463   8.893   7.967 -2.7573  1.7746 -1.5225
  893MOL0     H17844   5.483   8.823   7.765  0.6207 -1.5159  2.3736
  893MOL0     H17845   5.648   8.793   7.800 -2.1346 -2.6003 -3.0782
  893MOL0     H17846   5.730   8.977   7.692  0.1335 -1.2056 -0.3818
  893MOL0     H17847   5.573   9.064   7.694  0.3133 -0.0254 -1.7003
  893MOL0     H17848   5.558   8.819   7.512 -0.8471  0.3517 -0.2301
  893MOL0     H17849   5.452   8.952   7.538 -0.7913 -0.3758  0.4327
  893MOL0     H17850   5.732   8.952   7.403  1.3212  0.4928  0.6548
  893MOL0     H17851   5.663   9.100   7.464 -2.8864  0.7247  2.8114
  893MOL0     H17852   5.474   9.086   7.301 -0.7441 -0.7121  0.9593
  893MOL0     H17853   5.523   8.918   7.266 -0.8411  0.1336  1.0851
  893MOL0     H17854   5.752   8.990   7.182 -0.2861 -1.0913  1.1734
  893MOL0     H17855   5.613   9.034   7.079 -0.3550 -0.2298  0.4369
  893MOL0     H17856   5.796   9.212   7.122  1.4157 -3.1254  0.0812
  893MOL0     H17857   5.790   9.186   7.292  1.0385 -1.8317 -0.8923
  893MOL0     H17858   5.479   9.123   8.161  1.0919 -1.1067 -2.0044
  893MOL0     H17859   5.364   9.063   8.365  0.5235  4.0947 -2.9111
  893MOL0     H17860   5.276   8.716   8.689  2.5077  0.4227 -2.9400
  893MOL0     H17861   5.152   8.688   8.905 -1.4629  0.9374  0.7562
  893MOL0     H17862   4.541   8.110   9.811  1.0698 -0.5497  0.3699
  893MOL0     H17863   4.690   8.115  10.014  0.1901  1.6177  1.4084
  893MOL0     H17864   4.650   8.262  10.479  0.3680 -1.2828 -2.6157
  893MOL0     H17865   4.758   8.303  10.696  0.8505 -1.5142 -0.1181
  893MOL0     H17866   4.957   8.555  10.732 -2.6630 -1.0596  3.8836
  893MOL0     H17867   5.138   8.545  10.756 -0.8036  2.0900 -0.7420
  893MOL0     H17868   4.934   8.433  10.945 -0.1121 -0.9506 -2.5287
  893MOL0     H17869   5.108   8.447  10.981  0.5678 -1.9756 -0.5874
  893MOL0     H17870   4.914   8.612  11.075  0.6025 -0.4006  0.0980
  893MOL0     H17871   4.925   8.692  10.932  0.2318  5.0468  3.7181
  893MOL0     H17872   5.153   8.664  11.127  5.5633  0.4787 -2.2299
  893MOL0     H17873   5.176   8.698  10.954  0.4802  1.4519  0.2391
  893MOL0     H17874   4.968   9.049  11.057 -4.6093 -1.9673  1.8427
  893MOL0     H17875   5.146   8.340  10.518  0.5506  0.4110 -3.6040
  893MOL0     H17876   5.040   8.297  10.303 -0.6995 -0.8663 -0.4804
  894MOL0     O17877   5.703   8.480   7.073 -0.0595  0.3709 -0.4472
  894MOL0     C17878   5.759   8.485   6.967  0.9131 -0.7015  0.7236
  894MOL0     O17879   5.858   8.573   6.933  0.3100 -0.0223  0.0219
  894MOL0     C17880   5.920   8.663   7.021 -0.4248 -0.7498 -0.9817
  894MOL0     C17881   5.914   8.650   7.163 -0.3349  0.0498 -0.2033
  894MOL0     C17882   5.971   8.744   7.252 -0.2557  0.7848  0.6266
  894MOL0     C17883   6.034   8.857   7.195  0.5644 -0.0996  0.4905
  894MOL0     O17884   6.088   8.953   7.268 -0.6388  0.5945  0.5953
  894MOL0     C17885   6.065   8.955   7.408 -0.8131  0.5136  0.4146
  894MOL0     C17886   6.134   9.081   7.464  0.2134  0.4075 -0.5617
  894MOL0     C17887   6.071   9.219   7.430  0.4242  0.0996 -0.0002
  894MOL0     C17888   6.155   9.331   7.462  0.2445 -0.4308 -0.1768
  894MOL0     C17889   6.179   9.350   7.618 -0.2843  0.1165 -0.3188
  894MOL0     C17890   6.238   9.490   7.654 -0.0975  0.1646  0.5003
  894MOL0     C17891   6.254   9.496   7.797 -0.2152 -0.4619 -0.8709
  894MOL0     C17892   6.309   9.635   7.835 -0.8026  0.3757  0.4046
  894MOL0     N17893   6.365   9.642   7.972 -0.1831 -0.1554  0.7246
  894MOL0     C17894   6.287   9.691   8.069  0.2800 -0.5329  0.5748
  894MOL0     C17895   6.340   9.669   8.184 -1.1792  0.1340  0.7366
  894MOL0     C17896   6.288   9.713   8.315  0.2064  0.3748 -0.1928
  894MOL0     C17897   6.393   9.783   8.403 -0.0097 -0.5895 -0.1277
  894MOL0     C17898   6.357   9.798   8.549  1.1464 -1.1069  1.1622
  894MOL0     C17899   6.229   9.875   8.570  0.3835  0.7808 -0.6596
  894MOL0     O17900   6.122   9.789   8.546 -0.9363  0.4339 -0.7552
  894MOL0     C17901   6.001   9.821   8.606  0.1851 -0.8340 -0.8367
  894MOL0     C17902   5.887   9.752   8.557 -0.6248  0.0005  1.0733
  894MOL0     C17903   5.760   9.754   8.620  0.8973 -0.2493  0.4999
  894MOL0     C17904   5.748   9.828   8.739 -0.1398  1.4019 -0.8120
  894MOL0     C17905   5.625   9.828   8.820  0.3410  0.2004  0.4626
  894MOL0     O17906   5.635   9.840   8.949 -0.1917 -0.5300 -0.2490
  894MOL0     C17907   5.521   9.839   9.028 -0.0024  0.9501 -1.5424
  894MOL0     C17908   5.486   9.716   9.100  0.2658 -0.6833  0.4665
  894MOL0     C17909   5.380   9.707   9.171  0.0499  0.1041 -0.3097
  894MOL0     C17910   5.290   9.812   9.184  0.0290 -0.4790  0.3051
  894MOL0     O17911   5.178   9.799   9.262 -0.3343 -0.0990  0.0829
  894MOL0     C17912   5.053   9.797   9.190  0.8469  1.1206  0.0052
  894MOL0     C17913   4.942   9.812   9.303 -0.4918 -0.6972  0.1160
  894MOL0     C17914   4.803   9.787   9.247  0.0185 -0.0655 -1.2615
  894MOL0     C17915   4.770   9.900   9.146 -0.1323 -0.2539  0.3795
  894MOL0     C17916   4.779  10.043   9.208  0.4746 -0.3421  0.6957
  894MOL0     C17917   4.711  10.145   9.107 -0.3078 -0.1800  0.1259
  894MOL0     C17918   4.555  10.164   9.121 -0.1772  0.8401 -0.8326
  894MOL0     C17919   4.511  10.287   9.037  0.1606  0.2570 -0.5184
  894MOL0    Cl17920   4.601  10.434   9.066  0.2304 -0.3414 -0.5703
  894MOL0     C17921   5.313   9.933   9.114 -0.5441  0.5808  1.3100
  894MOL0     C17922   5.428   9.940   9.026  0.0869 -0.5194  0.1619
  894MOL0     O17923   5.520   9.819   8.748 -0.0122  0.1095  0.2211
  894MOL0     C17924   5.865   9.896   8.793  0.8582 -0.4118 -0.7202
  894MOL0     C17925   5.984   9.906   8.722 -0.0732 -0.0072  0.1276
  894MOL0     N17926   6.468   9.603   8.154  0.3236 -0.5634  0.2428
  894MOL0     N17927   6.483   9.591   8.026 -0.4190  0.0500  0.2394
  894MOL0     C17928   6.039   8.876   7.057  0.6368 -0.6154 -0.4236
  894MOL0     C17929   5.990   8.770   6.969 -0.5907 -0.6522  0.2189
  894MOL0     C17930   5.709   8.399   6.860 -0.4632 -0.0460 -0.2011
  894MOL0     C17931   5.757   8.400   6.726  0.0176  0.3137  0.5358
  894MOL0     C17932   5.689   8.322   6.630 -0.6949  0.8752 -0.0199
  894MOL0     C17933   5.583   8.233   6.656  0.3721  0.5538 -0.6895
  894MOL0     O17934   5.515   8.150   6.571  0.0076  0.2272  0.3496
  894MOL0     C17935   5.569   8.134   6.443  0.7835 -0.1456 -0.2886
  894MOL0     C17936   5.509   8.023   6.365  0.5114  0.3873  0.8160
  894MOL0     C17937   5.513   7.890   6.436 -0.7106 -0.5274  0.7399
  894MOL0     C17938   5.428   7.781   6.369  0.9137  0.4175  0.0648
  894MOL0     C17939   5.466   7.648   6.420 -0.2439  0.3768  0.2033
  894MOL0     C17940   5.500   7.536   6.462 -0.8503 -0.0392  0.1229
  894MOL0     C17941   5.538   8.237   6.785  0.4522  0.1917  0.2526
  894MOL0     C17942   5.596   8.315   6.880 -0.3940 -0.3031 -0.4419
  894MOL0     H17943   5.872   8.566   7.217  2.7500 -2.5057 -1.4352
  894MOL0     H17944   5.963   8.735   7.360 -0.8480 -2.9031  0.3945
  894MOL0     H17945   6.104   8.866   7.458 -0.5673  0.5556  0.2968
  894MOL0     H17946   5.959   8.957   7.437 -0.5733  1.4420  1.2842
  894MOL0     H17947   6.238   9.079   7.430  1.1221  2.4687  1.8787
  894MOL0     H17948   6.136   9.072   7.573 -1.4116  0.1495 -0.5322
  894MOL0     H17949   5.972   9.219   7.474 -0.6239 -2.8107 -2.0342
  894MOL0     H17950   6.042   9.220   7.325  2.3118  0.0858 -0.5662
  894MOL0     H17951   6.244   9.321   7.399 -0.5861 -1.0852 -1.2610
  894MOL0     H17952   6.099   9.420   7.430  2.2139  1.1301  0.4502
  894MOL0     H17953   6.246   9.272   7.655 -1.2592 -1.7248 -2.2529
  894MOL0     H17954   6.083   9.345   7.671  1.1924  0.6035  2.6131
  894MOL0     H17955   6.167   9.560   7.610 -0.6843 -2.6625 -3.5482
  894MOL0     H17956   6.334   9.503   7.603 -0.9010 -0.2760 -1.2099
  894MOL0     H17957   6.161   9.465   7.845  0.2472  1.0512  1.1738
  894MOL0     H17958   6.326   9.420   7.826  0.2927  0.0778 -0.6999
  894MOL0     H17959   6.236   9.715   7.826 -1.0063  0.2609  1.0344
  894MOL0     H17960   6.388   9.658   7.763  0.4911  0.5224  1.8204
  894MOL0     H17961   6.195   9.746   8.053 -0.2745 -1.5470  0.2374
  894MOL0     H17962   6.267   9.619   8.368  2.6758 -0.1005  0.0888
  894MOL0     H17963   6.191   9.763   8.311  0.1895  0.6184  1.9292
  894MOL0     H17964   6.395   9.884   8.360 -0.1844 -0.3771  0.3582
  894MOL0     H17965   6.489   9.732   8.390 -1.1505 -2.3196 -2.8457
  894MOL0     H17966   6.347   9.699   8.592  2.4475 -0.4395  3.1391
  894MOL0     H17967   6.428   9.864   8.599 -2.9200  4.2658  0.8469
  894MOL0     H17968   6.223   9.964   8.506  2.1624  2.6318  1.5947
  894MOL0     H17969   6.226   9.909   8.673 -0.3960 -3.7479  1.0478
  894MOL0     H17970   5.906   9.700   8.463  0.3574  1.9075  0.1540
  894MOL0     H17971   5.676   9.699   8.581  0.1533 -0.8209  2.8259
  894MOL0     H17972   5.548   9.628   9.095  0.1784 -0.6805 -1.9960
  894MOL0     H17973   5.351   9.619   9.227  1.2639  0.8017  1.5055
  894MOL0     H17974   5.048   9.700   9.142  2.3912  1.1544 -0.2664
  894MOL0     H17975   5.048   9.863   9.103  1.4191  1.6053  0.3299
  894MOL0     H17976   4.948   9.910   9.352 -3.0507  0.0740 -0.9672
  894MOL0     H17977   4.965   9.739   9.381 -2.5330 -0.7096  0.7528
  894MOL0     H17978   4.741   9.801   9.336  1.4211  0.0489 -0.2700
  894MOL0     H17979   4.781   9.685   9.215  4.0111 -1.2345 -0.8332
  894MOL0     H17980   4.826   9.887   9.053 -0.2848  0.4463  0.1877
  894MOL0     H17981   4.663   9.886   9.133 -0.2295 -1.2686  2.0276
  894MOL0     H17982   4.885  10.068   9.208  0.0951  1.7550 -2.2233
  894MOL0     H17983   4.722  10.036   9.302 -2.0567  0.4123 -0.6877
  894MOL0     H17984   4.745  10.130   9.004  0.1985  1.1081  0.0787
  894MOL0     H17985   4.752  10.244   9.131  0.3011 -0.8710  2.0757
  894MOL0     H17986   4.503  10.076   9.082 -3.1193  2.1716 -0.1761
  894MOL0     H17987   4.530  10.178   9.227  0.3242 -0.6413 -0.4861
  894MOL0     H17988   4.406  10.308   9.063  0.1113 -0.4747 -0.0958
  894MOL0     H17989   4.506  10.261   8.931 -4.2217  3.2975 -1.3344
  894MOL0     H17990   5.241  10.011   9.135 -1.1946  0.1751  0.6504
  894MOL0     H17991   5.447  10.033   8.973 -0.5527  0.6527  1.8952
  894MOL0     H17992   5.847   9.960   8.878 -2.9185 -4.0707  1.5883
  894MOL0     H17993   6.063   9.967   8.764  0.6632 -1.6807  1.2821
  894MOL0     H17994   6.096   8.961   7.019  1.5542  0.5152  3.0940
  894MOL0     H17995   5.987   8.784   6.861 -0.2127 -0.8085  0.1856
  894MOL0     H17996   5.827   8.482   6.711 -3.0318  3.2855  1.2366
  894MOL0     H17997   5.735   8.331   6.533 -2.2108  3.4979 -0.6192
  894MOL0     H17998   5.674   8.104   6.444  0.3645 -2.4302 -3.9213
  894MOL0     H17999   5.561   8.225   6.383  0.7683  0.8426  1.1741
  894MOL0     H18000   5.403   8.037   6.343  0.3728 -1.3804  0.2673
  894MOL0     H18001   5.568   8.007   6.274  3.7318  1.6092  2.5389
  894MOL0     H18002   5.484   7.898   6.542  2.4880 -2.5422  1.9123
  894MOL0     H18003   5.617   7.857   6.433 -1.5580 -3.4529 -1.5691
  894MOL0     H18004   5.326   7.809   6.398  1.5067  0.3985  2.3351
  894MOL0     H18005   5.437   7.780   6.260  2.8229 -1.4347  0.1781
  894MOL0     H18006   5.537   7.444   6.503 -1.3686 -3.2683 -5.5845
  894MOL0     H18007   5.453   8.174   6.807 -0.5188  1.6412  0.7895
  894MOL0     H18008   5.555   8.325   6.980  5.3243  3.0155  2.0395
  895MOL0     O18009   0.880   0.134   0.576  0.0969 -0.3727  1.2256
  895MOL0     C18010   0.824   0.076   0.674 -0.3558 -0.2605  0.1674
  895MOL0     O18011   0.702   0.043   0.686 -0.4929  0.7426  0.5325
  895MOL0     C18012   0.613   0.080   0.580 -0.4662  0.0240 -0.7887
  895MOL0     C18013   0.533  -0.018   0.521 -0.4612 -0.2778  0.0199
  895MOL0     C18014   0.445   0.006   0.417  0.1905  0.2331 -0.8938
  895MOL0     C18015   0.441   0.139   0.360  0.1411 -0.1518  0.4925
  895MOL0     O18016   0.362   0.173   0.258  0.1254 -0.2604 -0.3307
  895MOL0     C18017   0.276   0.291   0.268 -0.2324  1.0083 -0.1217
  895MOL0     C18018   0.153   0.246   0.351 -0.9321 -0.0819  0.7912
  895MOL0     C18019   0.087   0.126   0.269 -0.2461  0.1484  0.9525
  895MOL0     C18020  -0.050   0.092   0.331 -0.0056 -0.7082  0.2102
  895MOL0     C18021  -0.127  -0.009   0.254  0.2188 -0.0265 -1.2201
  895MOL0     C18022  -0.170   0.049   0.111 -0.8361  0.2764 -0.1994
  895MOL0     C18023  -0.218  -0.069   0.022 -0.7885 -0.3144 -0.9606
  895MOL0     C18024  -0.294  -0.022  -0.099  0.5678 -0.0066  0.0543
  895MOL0     N18025  -0.191   0.026  -0.197  0.2568 -0.7679 -0.5680
  895MOL0     C18026  -0.177   0.163  -0.224 -0.0821 -0.3593 -0.0240
  895MOL0     C18027  -0.105   0.169  -0.339  0.0749 -0.3707 -0.5197
  895MOL0     C18028  -0.060   0.286  -0.415  0.5887 -0.4214  0.3313
  895MOL0     C18029  -0.143   0.321  -0.541  0.1653 -0.0379  1.5893
  895MOL0     C18030  -0.155   0.474  -0.574  0.3238 -0.0327  0.4315
  895MOL0     C18031  -0.044   0.551  -0.651  0.2412 -0.0906 -0.3782
  895MOL0     O18032   0.058   0.613  -0.566 -0.5203  0.0702  0.6381
  895MOL0     C18033   0.136   0.724  -0.604 -0.1803  0.4705  0.3447
  895MOL0     C18034   0.125   0.771  -0.738 -0.5166  0.5226 -0.2528
  895MOL0     C18035   0.189   0.889  -0.770 -0.6408 -0.1699  0.6634
  895MOL0     C18036   0.256   0.961  -0.666 -0.1134  0.4189 -0.9239
  895MOL0     C18037   0.324   1.093  -0.699  0.4776  0.7102 -0.5694
  895MOL0     O18038   0.334   1.128  -0.831 -0.7767 -0.4762 -0.0410
  895MOL0     C18039   0.404   1.250  -0.853  0.4908 -0.3685 -0.6708
  895MOL0     C18040   0.338   1.372  -0.830  0.7364 -0.2201  0.4111
  895MOL0     C18041   0.403   1.494  -0.842  0.3764  1.0637  0.0258
  895MOL0     C18042   0.532   1.502  -0.884  0.6272 -0.2964 -0.4185
  895MOL0     O18043   0.578   1.628  -0.914  0.7227 -0.0282 -0.0582
  895MOL0     C18044   0.710   1.653  -0.953 -0.7702  1.0706  0.8709
  895MOL0     C18045   0.813   1.621  -0.838 -0.3824  0.0877 -0.6594
  895MOL0     C18046   0.968   1.646  -0.890  0.8090  0.3433 -0.4355
  895MOL0     C18047   0.995   1.793  -0.920  0.4805 -0.1486  0.1170
  895MOL0     C18048   1.146   1.831  -0.932 -0.4443  0.6100 -0.0795
  895MOL0     C18049   1.154   1.969  -0.988 -0.2950 -0.1199 -0.1215
  895MOL0     C18050   1.310   2.003  -0.977  0.4046  0.2299 -0.1908
  895MOL0     C18051   1.325   2.157  -0.974 -0.9129 -0.1168 -0.2350
  895MOL0    Cl18052   1.361   2.191  -0.798 -0.2725 -0.3049  0.3952
  895MOL0     C18053   0.601   1.382  -0.909  0.2859 -0.1029  0.5838
  895MOL0     C18054   0.543   1.259  -0.886  0.0702 -0.0905  0.9416
  895MOL0     O18055   0.353   1.172  -0.604  0.1302  0.2486  0.3777
  895MOL0     C18056   0.284   0.907  -0.539 -0.3239  0.3871  0.0593
  895MOL0     C18057   0.226   0.780  -0.514 -0.9752 -0.2841  0.4365
  895MOL0     N18058  -0.071   0.040  -0.370  0.2259 -0.5850  0.3166
  895MOL0     N18059  -0.128  -0.046  -0.289 -0.8931  0.3767  0.2191
  895MOL0     C18060   0.522   0.240   0.413  0.3690  0.1097 -0.2228
  895MOL0     C18061   0.602   0.206   0.529  0.1560 -0.5844 -0.3373
  895MOL0     C18062   0.914   0.035   0.786  0.1362 -0.5068 -0.6130
  895MOL0     C18063   0.871  -0.025   0.906 -0.1732 -0.3564 -0.0309
  895MOL0     C18064   0.963  -0.055   1.004  0.7235 -0.6137 -0.7659
  895MOL0     C18065   1.098  -0.038   0.992 -0.4172  0.8510  0.5232
  895MOL0     O18066   1.174  -0.059   1.107  0.6065 -0.1803  0.2982
  895MOL0     C18067   1.298   0.019   1.103  0.4421 -1.0781 -0.2372
  895MOL0     C18068   1.352   0.026   1.245 -0.4997 -0.5877 -0.1561
  895MOL0     C18069   1.276   0.141   1.330 -0.0833 -0.1140  0.6604
  895MOL0     C18070   1.314   0.108   1.470 -0.7476  0.4617 -0.5611
  895MOL0     C18071   1.443   0.160   1.528  0.1975 -0.2427 -0.0610
  895MOL0     C18072   1.545   0.200   1.587 -0.1364  0.0258 -0.2407
  895MOL0     C18073   1.146   0.024   0.871  0.3467  0.1273 -0.0966
  895MOL0     C18074   1.056   0.049   0.768  0.0407  0.7077 -0.5339
  895MOL0     H18075   0.544  -0.117   0.564  0.5511  0.3589  1.2877
  895MOL0     H18076   0.393  -0.081   0.379  1.9769 -0.0582 -2.8978
  895MOL0     H18077   0.251   0.315   0.164 -3.8232 -0.1877  0.3034
  895MOL0     H18078   0.327   0.376   0.314  0.2367  0.7373 -0.1333
  895MOL0     H18079   0.079   0.326   0.363 -1.3258 -0.2743 -0.2595
  895MOL0     H18080   0.177   0.211   0.452 -1.0302 -0.9321  0.5312
  895MOL0     H18081   0.154   0.039   0.279  0.7925  1.1347  3.7203
  895MOL0     H18082   0.087   0.157   0.164  2.7546 -1.5120  0.3436
  895MOL0     H18083  -0.041   0.057   0.435 -1.3226  1.2185  1.0378
  895MOL0     H18084  -0.105   0.186   0.340  0.5649 -0.2577 -0.9034
  895MOL0     H18085  -0.212  -0.036   0.316  2.0566 -0.3317  1.3421
  895MOL0     H18086  -0.073  -0.103   0.240  0.7691  0.3153 -1.4184
  895MOL0     H18087  -0.093   0.109   0.060 -0.0184  1.4227  2.2136
  895MOL0     H18088  -0.244   0.126   0.134  2.1761  2.4591  3.5284
  895MOL0     H18089  -0.127  -0.125  -0.000 -0.6764 -1.4065  1.8776
  895MOL0     H18090  -0.283  -0.141   0.072  0.0968 -1.5409 -1.5368
  895MOL0     H18091  -0.361   0.062  -0.079 -2.6677 -1.8803 -1.9256
  895MOL0     H18092  -0.347  -0.103  -0.151 -3.3279  1.5409  1.2053
  895MOL0     H18093  -0.201   0.253  -0.168 -1.5620 -1.0397  0.4879
  895MOL0     H18094   0.046   0.273  -0.441  0.2398 -3.6459  0.0758
  895MOL0     H18095  -0.068   0.370  -0.344 -0.4153 -0.5096  0.3405
  895MOL0     H18096  -0.242   0.276  -0.528 -0.0446  1.1151  4.5085
  895MOL0     H18097  -0.101   0.273  -0.630  2.2840 -0.2795  2.6673
  895MOL0     H18098  -0.240   0.467  -0.642  0.3785 -0.9700  0.4472
  895MOL0     H18099  -0.188   0.529  -0.485  0.4224  0.0407  0.4236
  895MOL0     H18100  -0.081   0.617  -0.730  1.7932  1.0576 -0.2096
  895MOL0     H18101   0.006   0.476  -0.713  1.9287 -0.5335  1.4041
  895MOL0     H18102   0.055   0.721  -0.805  1.8265 -2.2816 -0.8515
  895MOL0     H18103   0.186   0.935  -0.868  1.1005 -1.5519 -0.0862
  895MOL0     H18104   0.233   1.368  -0.804 -0.6696  2.1610 -3.8775
  895MOL0     H18105   0.346   1.585  -0.831  0.4564  1.5854 -2.9750
  895MOL0     H18106   0.728   1.755  -0.987 -0.4728  0.5960 -0.4591
  895MOL0     H18107   0.739   1.589  -1.037 -2.3645  2.6260 -0.9497
  895MOL0     H18108   0.812   1.522  -0.791  1.9341 -0.0874 -0.8560
  895MOL0     H18109   0.796   1.691  -0.756  5.3955  1.0681  0.1274
  895MOL0     H18110   0.999   1.602  -0.985  0.2235  2.4928 -1.6792
  895MOL0     H18111   1.039   1.621  -0.810 -0.9914  0.1725  1.1893
  895MOL0     H18112   0.936   1.813  -1.011 -0.8439 -2.0846  0.4864
  895MOL0     H18113   0.955   1.857  -0.841  2.0001  2.3461 -0.9868
  895MOL0     H18114   1.191   1.757  -0.999 -1.0668 -0.9610  1.1742
  895MOL0     H18115   1.185   1.819  -0.831  0.9518 -0.8376 -0.7537
  895MOL0     H18116   1.102   2.034  -0.917 -0.4122  0.3420 -0.6155
  895MOL0     H18117   1.117   1.987  -1.090  0.1210  3.3828  0.2188
  895MOL0     H18118   1.345   1.953  -0.886  2.5507  0.9864 -0.5311
  895MOL0     H18119   1.368   1.967  -1.063  3.1600  2.3663  0.6339
  895MOL0     H18120   1.239   2.210  -1.017 -0.2663  0.6442 -0.6117
  895MOL0     H18121   1.403   2.200  -1.038 -0.0530 -2.8249 -1.1465
  895MOL0     H18122   0.705   1.389  -0.939  0.1221  0.0861  0.0605
  895MOL0     H18123   0.610   1.174  -0.897 -0.8320 -0.5986 -0.9515
  895MOL0     H18124   0.344   0.956  -0.463 -0.2472  1.3081 -0.5775
  895MOL0     H18125   0.263   0.716  -0.435  5.3490  0.9922 -0.9708
  895MOL0     H18126   0.529   0.345   0.385 -0.0380 -0.2689 -1.8306
  895MOL0     H18127   0.641   0.285   0.592 -3.0545  0.0253  1.0778
  895MOL0     H18128   0.764  -0.039   0.915 -0.4009  2.0132  2.4750
  895MOL0     H18129   0.935  -0.103   1.098  0.5823 -1.6554 -1.3171
  895MOL0     H18130   1.279   0.122   1.071 -1.5940 -0.3476  2.8915
  895MOL0     H18131   1.375  -0.029   1.041  1.1250 -2.0249  1.2873
  895MOL0     H18132   1.364  -0.071   1.293  0.3397 -0.1505  0.5500
  895MOL0     H18133   1.456   0.058   1.234 -0.7430  0.1529 -0.3727
  895MOL0     H18134   1.168   0.125   1.323 -0.1246  0.3068  0.2605
  895MOL0     H18135   1.291   0.248   1.310 -4.8903  1.0687  2.0570
  895MOL0     H18136   1.228   0.142   1.528 -0.2031  1.0807 -0.1134
  895MOL0     H18137   1.313  -0.001   1.482 -2.2491 -0.0804 -4.1379
  895MOL0     H18138   1.644   0.218   1.624 -0.5651  2.4097 -0.0710
  895MOL0     H18139   1.250   0.030   0.840  0.1392 -1.6507 -1.3322
  895MOL0     H18140   1.098   0.082   0.674  1.7539 -0.9669 -0.4188
  896MOL0     O18141   5.515   3.438   8.641 -0.3062  0.2970  0.0655
  896MOL0     C18142   5.452   3.347   8.583  0.4334  0.4276 -0.2042
  896MOL0     O18143   5.398   3.352   8.452 -0.8602 -0.0258  0.3730
  896MOL0     C18144   5.405   3.460   8.373  0.2223  1.7648  0.6298
  896MOL0     C18145   5.406   3.596   8.419  0.5627 -0.3964 -0.5886
  896MOL0     C18146   5.420   3.696   8.319 -0.2914  1.0659  0.5000
  896MOL0     C18147   5.415   3.662   8.185 -0.4814 -0.1896  1.6399
  896MOL0     O18148   5.416   3.754   8.081  0.2296  0.0107 -0.3007
  896MOL0     C18149   5.465   3.887   8.096  0.8113 -0.0988  0.5480
  896MOL0     C18150   5.345   3.991   8.092  0.3993 -0.4662  0.0532
  896MOL0     C18151   5.366   4.129   8.154 -0.2035 -0.6248  0.0496
  896MOL0     C18152   5.453   4.132   8.272  0.5435  0.5054  0.3165
  896MOL0     C18153   5.468   4.256   8.353  0.4831 -0.0561 -0.4878
  896MOL0     C18154   5.556   4.255   8.480  0.7821  0.0422  0.3884
  896MOL0     C18155   5.557   4.398   8.530  0.7793 -0.3911 -0.1319
  896MOL0     C18156   5.582   4.400   8.679  0.0628  0.3503 -0.6725
  896MOL0     N18157   5.575   4.539   8.739 -0.3280 -0.3536  0.0908
  896MOL0     C18158   5.539   4.657   8.673  0.4348 -0.0247 -0.4099
  896MOL0     C18159   5.591   4.758   8.745  0.4142 -0.4437 -0.1841
  896MOL0     C18160   5.606   4.902   8.691  0.5172  0.7774  0.2055
  896MOL0     C18161   5.512   5.003   8.758 -0.2578  0.0480  0.0441
  896MOL0     C18162   5.497   5.129   8.674  0.7869  0.2238 -0.2772
  896MOL0     C18163   5.626   5.209   8.682  0.8465  0.4501 -0.0024
  896MOL0     O18164   5.664   5.242   8.818  0.5892 -0.0208 -0.7578
  896MOL0     C18165   5.795   5.280   8.827  0.1593 -0.0728  0.3664
  896MOL0     C18166   5.858   5.267   8.952  0.8203  0.0919  0.2326
  896MOL0     C18167   5.982   5.312   8.982  0.1007  0.7748  0.8311
  896MOL0     C18168   6.056   5.376   8.877  1.4981  0.0554  0.6371
  896MOL0     C18169   6.189   5.433   8.897 -0.2186 -0.3769 -0.3084
  896MOL0     O18170   6.230   5.442   9.028  0.5519 -0.0471 -0.6867
  896MOL0     C18171   6.347   5.507   9.041 -0.3344  0.4886 -1.6328
  896MOL0     C18172   6.345   5.639   9.102  0.1457 -0.4338 -0.5528
  896MOL0     C18173   6.463   5.715   9.107 -0.0604  0.4280 -0.0315
  896MOL0     C18174   6.585   5.678   9.052  0.1504  0.1336  0.6756
  896MOL0     O18175   6.686   5.770   9.041  0.0208 -0.5769 -0.4338
  896MOL0     C18176   6.771   5.780   8.923 -0.5209  1.3616 -0.2903
  896MOL0     C18177   6.853   5.907   8.922  0.3113 -0.5296 -0.0289
  896MOL0     C18178   7.007   5.877   8.938  0.4786  0.2277  0.2898
  896MOL0     C18179   7.074   5.846   8.801 -0.8115 -0.2082  0.1763
  896MOL0     C18180   7.216   5.791   8.819 -0.4001  0.2175 -0.9265
  896MOL0     C18181   7.285   5.726   8.699  0.8749  0.3044 -0.0442
  896MOL0     C18182   7.428   5.687   8.745 -0.1815 -0.6257 -0.3345
  896MOL0     C18183   7.517   5.615   8.645 -0.1968 -0.0367 -0.3037
  896MOL0    Cl18184   7.563   5.717   8.504 -0.4577 -0.2874  0.0086
  896MOL0     C18185   6.587   5.543   9.000 -0.8191 -0.5017  0.5961
  896MOL0     C18186   6.470   5.463   8.992 -0.2944  0.2894  0.4113
  896MOL0     O18187   6.253   5.474   8.801  1.4360  0.4681  0.0082
  896MOL0     C18188   6.006   5.374   8.745 -1.0633 -0.2064  0.0032
  896MOL0     C18189   5.877   5.338   8.728 -0.2466 -0.3798  0.4695
  896MOL0     N18190   5.649   4.696   8.851  0.5337  0.3338  0.1823
  896MOL0     N18191   5.657   4.569   8.842  0.5862  0.2160  0.7648
  896MOL0     C18192   5.403   3.532   8.149 -0.2991 -0.1901 -0.3353
  896MOL0     C18193   5.401   3.424   8.240  0.1199 -0.6415 -0.6676
  896MOL0     C18194   5.446   3.214   8.656  0.1709 -0.0381  0.1272
  896MOL0     C18195   5.533   3.180   8.763  1.4411 -1.2874  0.0401
  896MOL0     C18196   5.529   3.050   8.801 -0.8629  0.2974  0.0024
  896MOL0     C18197   5.437   2.959   8.756  0.2864 -0.8027  0.3977
  896MOL0     O18198   5.448   2.827   8.790  1.2575  0.0339  0.3234
  896MOL0     C18199   5.324   2.745   8.818  0.3146 -0.7468  0.8252
  896MOL0     C18200   5.357   2.609   8.861  1.0319  0.7349 -0.1029
  896MOL0     C18201   5.382   2.518   8.735  0.4964 -0.6176 -0.0271
  896MOL0     C18202   5.438   2.390   8.783 -0.1115  0.4331 -0.5338
  896MOL0     C18203   5.489   2.308   8.677  1.1166 -0.6596  0.3320
  896MOL0     C18204   5.505   2.237   8.577  0.6237  0.9864 -1.6072
  896MOL0     C18205   5.346   2.999   8.653  0.0113  0.0623 -0.6138
  896MOL0     C18206   5.353   3.127   8.603  0.0496 -0.8864 -0.1319
  896MOL0     H18207   5.413   3.617   8.525  1.2863  0.4494 -0.7907
  896MOL0     H18208   5.435   3.802   8.339  0.4826  0.9150  0.7435
  896MOL0     H18209   5.532   3.924   8.018  4.0042 -3.0656  1.6384
  896MOL0     H18210   5.527   3.893   8.186  3.7048 -0.5617 -1.2945
  896MOL0     H18211   5.260   3.954   8.149  1.2713  0.2974  1.9673
  896MOL0     H18212   5.305   3.991   7.990 -1.4507 -1.3938  0.7489
  896MOL0     H18213   5.272   4.165   8.197  0.5362 -0.6815  1.7931
  896MOL0     H18214   5.409   4.196   8.079 -0.3094 -2.2971 -1.5923
  896MOL0     H18215   5.416   4.048   8.332 -0.0057 -0.7893 -1.7404
  896MOL0     H18216   5.556   4.116   8.239  0.2144  1.1527 -1.1332
  896MOL0     H18217   5.365   4.279   8.383 -0.1461 -3.4250  0.3330
  896MOL0     H18218   5.520   4.328   8.289 -1.2997  0.5156 -1.3611
  896MOL0     H18219   5.658   4.216   8.477  0.1110 -1.7816 -0.2727
  896MOL0     H18220   5.510   4.195   8.559  1.5507  0.1278  0.9120
  896MOL0     H18221   5.634   4.457   8.480  0.9308 -0.4625  0.0151
  896MOL0     H18222   5.464   4.453   8.514  1.6564  0.4722 -2.7192
  896MOL0     H18223   5.686   4.371   8.697 -0.1041  1.7523  3.4414
  896MOL0     H18224   5.511   4.329   8.723 -1.0502  1.9372  0.1763
  896MOL0     H18225   5.511   4.671   8.569  0.4758 -0.6771 -0.5139
  896MOL0     H18226   5.594   4.894   8.583  0.0741 -4.1294  0.4100
  896MOL0     H18227   5.705   4.944   8.714 -0.4114  2.3853  1.4371
  896MOL0     H18228   5.552   5.024   8.858  1.2768 -4.1213  0.5035
  896MOL0     H18229   5.413   4.958   8.763  0.0935 -1.1500 -2.3450
  896MOL0     H18230   5.465   5.110   8.571  0.8736 -0.2002 -0.2256
  896MOL0     H18231   5.416   5.192   8.714 -2.2516 -1.6278 -2.9843
  896MOL0     H18232   5.610   5.301   8.626 -1.2738  1.0655  1.5031
  896MOL0     H18233   5.703   5.152   8.629 -1.5004 -2.1507 -0.9102
  896MOL0     H18234   5.797   5.227   9.033  2.5142 -1.4474  0.8141
  896MOL0     H18235   6.029   5.306   9.079  1.0813 -1.0607  0.3036
  896MOL0     H18236   6.260   5.686   9.151  3.1385  0.9958  3.8065
  896MOL0     H18237   6.450   5.811   9.156  4.7108  1.0586  0.4828
  896MOL0     H18238   6.720   5.769   8.827 -1.5238 -1.5944  0.4613
  896MOL0     H18239   6.842   5.697   8.927 -1.8809  0.1858  0.1203
  896MOL0     H18240   6.821   5.964   9.010 -0.2431 -2.4842  1.1052
  896MOL0     H18241   6.831   5.958   8.828  0.4559 -0.6680 -0.1375
  896MOL0     H18242   7.027   5.792   9.004 -0.1905 -1.6912 -1.8764
  896MOL0     H18243   7.053   5.963   8.990  1.0117 -0.7278  1.4588
  896MOL0     H18244   7.018   5.765   8.753  3.5870 -2.6515 -1.4863
  896MOL0     H18245   7.079   5.935   8.737  0.3438  0.1453  0.7395
  896MOL0     H18246   7.217   5.709   8.891  2.1736 -1.9189 -3.1353
  896MOL0     H18247   7.279   5.872   8.855 -0.5624 -0.2791  0.5575
  896MOL0     H18248   7.284   5.785   8.607 -1.4366 -3.0501 -2.4071
  896MOL0     H18249   7.233   5.631   8.686 -0.8399  1.1181  0.6429
  896MOL0     H18250   7.473   5.778   8.785 -2.9145  0.8082 -0.2756
  896MOL0     H18251   7.422   5.621   8.833  4.0722 -0.0755  0.5861
  896MOL0     H18252   7.479   5.519   8.608 -3.0509 -0.1788  2.5483
  896MOL0     H18253   7.616   5.593   8.685  1.4023  3.7432 -1.6706
  896MOL0     H18254   6.679   5.504   8.957  0.9833  3.0530  0.9045
  896MOL0     H18255   6.472   5.370   8.936  0.9567  1.5193 -1.7294
  896MOL0     H18256   6.056   5.409   8.656  0.9467 -1.4765  0.5741
  896MOL0     H18257   5.826   5.333   8.632  0.2908 -1.8032  0.2321
  896MOL0     H18258   5.405   3.504   8.044  0.7332 -3.0599  0.3421
  896MOL0     H18259   5.388   3.325   8.197  0.8557 -0.9499 -0.1992
  896MOL0     H18260   5.602   3.251   8.807  2.0925 -0.3448 -2.3373
  896MOL0     H18261   5.609   3.011   8.862 -1.8672  0.8963  1.7610
  896MOL0     H18262   5.257   2.738   8.731  1.8517 -1.4676 -0.3559
  896MOL0     H18263   5.279   2.795   8.903 -2.4182  1.4340 -1.6959
  896MOL0     H18264   5.446   2.625   8.923 -1.2275 -1.4833  4.1968
  896MOL0     H18265   5.276   2.564   8.918  1.1154 -1.0037 -1.2744
  896MOL0     H18266   5.454   2.571   8.672  0.6513  1.8285  2.0650
  896MOL0     H18267   5.288   2.504   8.681  0.4462 -0.0228 -0.1018
  896MOL0     H18268   5.518   2.420   8.851 -2.4943  1.7744  1.8964
  896MOL0     H18269   5.355   2.334   8.827  0.3286 -1.1610 -1.6723
  896MOL0     H18270   5.496   2.168   8.496 -2.1615 -0.8083  0.0464
  896MOL0     H18271   5.284   2.922   8.609  0.6965 -0.0185 -1.4615
  896MOL0     H18272   5.295   3.158   8.517  0.5296  0.6396  0.0657
  897MOL0     O18273   2.197   8.953   3.559  0.5349  0.2156 -0.5201
  897MOL0     C18274   2.255   9.054   3.591 -0.4634 -0.4103  0.1056
  897MOL0     O18275   2.199   9.182   3.578 -0.0300  0.2989 -0.1283
  897MOL0     C18276   2.066   9.195   3.533 -0.6519  0.4258  0.5444
  897MOL0     C18277   2.042   9.204   3.393 -0.1233 -0.2538 -0.6912
  897MOL0     C18278   1.913   9.233   3.346 -0.0980 -0.4573  0.3513
  897MOL0     C18279   1.803   9.261   3.436  0.5843 -1.2775  0.1801
  897MOL0     O18280   1.678   9.296   3.397 -1.0249  0.1980 -0.6797
  897MOL0     C18281   1.660   9.366   3.276 -0.1603 -0.8425 -0.2904
  897MOL0     C18282   1.669   9.516   3.325  0.0395 -0.8231 -0.2832
  897MOL0     C18283   1.560   9.551   3.429  0.8688  0.0398 -0.2954
  897MOL0     C18284   1.542   9.704   3.458  0.3478 -0.0509  0.1489
  897MOL0     C18285   1.425   9.736   3.557 -0.0902 -0.1879 -0.0950
  897MOL0     C18286   1.422   9.881   3.623  0.3642  0.3403 -0.1677
  897MOL0     C18287   1.443   9.996   3.523  0.3332  0.2333  0.3404
  897MOL0     C18288   1.409  10.124   3.590  0.1765 -0.4481  0.1214
  897MOL0     N18289   1.274  10.147   3.650  0.5168 -0.0031  0.6350
  897MOL0     C18290   1.256  10.105   3.782  0.1293 -0.2843 -0.1489
  897MOL0     C18291   1.135  10.129   3.813  1.2468  0.1526 -1.8130
  897MOL0     C18292   1.083  10.118   3.953 -0.1578  0.2420  0.5369
  897MOL0     C18293   0.935  10.084   3.962  0.0620 -0.1279  0.5232
  897MOL0     C18294   0.907   9.939   3.914  1.0737 -0.1778  1.0714
  897MOL0     C18295   0.792   9.952   3.818  0.9906 -0.0912  0.1180
  897MOL0     O18296   0.730   9.832   3.762  0.2050 -0.1003  0.8668
  897MOL0     C18297   0.815   9.757   3.679 -0.0612  0.0430 -0.7835
  897MOL0     C18298   0.925   9.802   3.608  0.9465  0.2116  0.3373
  897MOL0     C18299   1.018   9.704   3.561 -1.3241 -0.1654  0.3068
  897MOL0     C18300   1.010   9.569   3.595 -0.2495 -0.7853 -0.3294
  897MOL0     C18301   1.111   9.472   3.550 -0.4269  0.9126  0.2397
  897MOL0     O18302   1.095   9.342   3.584  0.2706  0.0695 -0.5860
  897MOL0     C18303   1.198   9.245   3.571 -0.8972 -0.5460 -0.8246
  897MOL0     C18304   1.341   9.264   3.575 -0.1768 -0.1523 -0.0711
  897MOL0     C18305   1.425   9.151   3.573  0.7894 -0.1111 -0.3359
  897MOL0     C18306   1.370   9.028   3.561 -0.2663 -0.4102 -0.0333
  897MOL0     O18307   1.452   8.913   3.554  0.2741 -0.3760 -0.1987
  897MOL0     C18308   1.584   8.927   3.517 -0.3255 -0.2068  0.5516
  897MOL0     C18309   1.650   8.787   3.505 -0.4195  0.0291 -0.3491
  897MOL0     C18310   1.627   8.730   3.361 -0.5429 -1.0356  0.9949
  897MOL0     C18311   1.649   8.581   3.350  0.5771 -0.8467 -0.0567
  897MOL0     C18312   1.636   8.539   3.199 -0.1198 -0.3793  0.0980
  897MOL0     C18313   1.686   8.389   3.189  0.2612 -0.4363 -0.4591
  897MOL0     C18314   1.603   8.296   3.277  0.1003  0.5338  0.3355
  897MOL0     C18315   1.593   8.154   3.223  0.3737  0.9492 -0.8471
  897MOL0    Cl18316   1.533   8.137   3.061 -0.1791 -0.2288  0.3635
  897MOL0     C18317   1.232   9.007   3.555 -0.4301  0.6124  0.0559
  897MOL0     C18318   1.149   9.114   3.565  0.5409 -0.1161 -0.1011
  897MOL0     O18319   1.214   9.513   3.495  0.4365 -0.2046 -0.0520
  897MOL0     C18320   0.897   9.531   3.670 -0.7541 -0.2455 -0.3742
  897MOL0     C18321   0.806   9.618   3.719 -0.5637  0.1587 -0.0290
  897MOL0     N18322   1.075  10.207   3.716 -0.0583 -0.3121  0.1436
  897MOL0     N18323   1.167  10.227   3.624  0.1706  0.3385 -0.2161
  897MOL0     C18324   1.834   9.236   3.573  1.0316 -0.4037  0.4913
  897MOL0     C18325   1.958   9.200   3.617  0.2402 -1.1759  0.6834
  897MOL0     C18326   2.390   9.043   3.644  0.1511  0.3938  0.0871
  897MOL0     C18327   2.448   8.923   3.684  0.0803  0.9082  0.4853
  897MOL0     C18328   2.575   8.921   3.733 -0.6875  0.3117 -0.0372
  897MOL0     C18329   2.659   9.030   3.743  0.2337 -0.5722  0.4026
  897MOL0     O18330   2.793   9.027   3.788 -0.2265  0.2801 -0.4711
  897MOL0     C18331   2.858   8.900   3.778 -0.0307 -0.0606 -0.6433
  897MOL0     C18332   2.901   8.853   3.643  0.1887 -0.6541  1.4809
  897MOL0     C18333   2.993   8.725   3.632  0.4933 -0.8812  0.2162
  897MOL0     C18334   3.006   8.691   3.486 -0.1125  0.2433  0.7079
  897MOL0     C18335   3.066   8.550   3.473  0.2263 -0.2470 -0.1748
  897MOL0     C18336   3.125   8.445   3.456 -0.7290  0.7130  0.1502
  897MOL0     C18337   2.604   9.155   3.699 -0.6076  0.8995  0.1703
  897MOL0     C18338   2.474   9.159   3.655 -0.4224 -0.7343 -1.0831
  897MOL0     H18339   2.134   9.192   3.336  1.2755  0.6343  1.2443
  897MOL0     H18340   1.885   9.227   3.242 -1.1192  0.7477  0.5213
  897MOL0     H18341   1.558   9.335   3.250 -1.4974  3.3350 -0.8298
  897MOL0     H18342   1.727   9.346   3.192 -2.0997 -2.3906 -1.5625
  897MOL0     H18343   1.656   9.588   3.244  2.4756 -0.8030 -0.7347
  897MOL0     H18344   1.764   9.534   3.377  1.2941 -0.9260 -2.3896
  897MOL0     H18345   1.585   9.504   3.525  0.8637  0.2921 -0.1702
  897MOL0     H18346   1.466   9.520   3.382  0.1919  3.5449 -1.4938
  897MOL0     H18347   1.637   9.742   3.494  0.5088  0.6122 -0.9227
  897MOL0     H18348   1.525   9.758   3.364 -2.5275 -0.3311  0.4243
  897MOL0     H18349   1.433   9.655   3.630  0.2474  1.7176  2.0776
  897MOL0     H18350   1.326   9.738   3.511 -0.2173  0.2812  0.2008
  897MOL0     H18351   1.496   9.895   3.702  0.8456 -2.7812  0.0409
  897MOL0     H18352   1.327   9.886   3.678  0.7311 -0.6360  0.5790
  897MOL0     H18353   1.541   9.969   3.483 -0.2084 -2.9427  0.8783
  897MOL0     H18354   1.373   9.981   3.440 -1.1628 -2.3024  1.9191
  897MOL0     H18355   1.430  10.199   3.513 -0.9652 -0.7612 -0.5276
  897MOL0     H18356   1.476  10.141   3.674  0.5274  0.0027 -0.2459
  897MOL0     H18357   1.323  10.055   3.852 -1.8701 -1.1034  1.2958
  897MOL0     H18358   1.098  10.211   4.008 -1.8221 -1.2826  3.8738
  897MOL0     H18359   1.131  10.032   4.003 -2.4900 -2.7670 -1.9697
  897MOL0     H18360   0.881  10.157   3.901 -0.1646 -0.1249  0.7248
  897MOL0     H18361   0.891  10.091   4.061 -3.2810 -0.9236 -0.7794
  897MOL0     H18362   0.990   9.886   3.867 -0.3979 -1.6159 -0.0313
  897MOL0     H18363   0.877   9.872   3.996  4.1895 -1.5615  1.2326
  897MOL0     H18364   0.816  10.028   3.742 -1.7503 -0.6453 -1.4229
  897MOL0     H18365   0.708  10.000   3.869 -2.1857 -0.0484 -4.5866
  897MOL0     H18366   0.931   9.907   3.580 -1.2592 -0.1169 -1.6938
  897MOL0     H18367   1.092   9.738   3.489 -1.9508  2.2147  0.7089
  897MOL0     H18368   1.383   9.363   3.581 -1.2525  0.2490  1.5276
  897MOL0     H18369   1.531   9.164   3.591  0.5142 -0.5404  1.9618
  897MOL0     H18370   1.626   8.982   3.601 -0.9937  1.5879 -0.2305
  897MOL0     H18371   1.590   8.985   3.424  1.2238  1.1835  1.4772
  897MOL0     H18372   1.617   8.712   3.578  0.0379 -0.9494 -1.1154
  897MOL0     H18373   1.755   8.796   3.534 -1.2221  0.3320  2.8315
  897MOL0     H18374   1.690   8.786   3.291  0.6362  0.6383  3.2720
  897MOL0     H18375   1.525   8.751   3.327 -0.1823  1.3179  1.2234
  897MOL0     H18376   1.747   8.556   3.392  1.3493  1.3825 -0.3559
  897MOL0     H18377   1.573   8.543   3.418 -0.4755  1.3720  0.0956
  897MOL0     H18378   1.705   8.602   3.143 -0.7417  0.8945  0.7443
  897MOL0     H18379   1.536   8.552   3.158  1.7902  1.6694 -4.6730
  897MOL0     H18380   1.786   8.388   3.234  0.2013 -3.1621 -0.2009
  897MOL0     H18381   1.687   8.351   3.087 -1.8541 -1.7257 -0.0747
  897MOL0     H18382   1.640   8.294   3.380 -2.1991  2.2115  1.2770
  897MOL0     H18383   1.505   8.345   3.283 -0.6606 -1.0820  3.1181
  897MOL0     H18384   1.529   8.096   3.290 -0.9119 -1.6092 -4.0054
  897MOL0     H18385   1.694   8.111   3.221  0.7678  1.7028  1.1525
  897MOL0     H18386   1.201   8.903   3.543  1.0721 -0.1160  1.9702
  897MOL0     H18387   1.041   9.099   3.575  0.6654  0.4021  3.0716
  897MOL0     H18388   0.885   9.427   3.695 -0.7392 -0.1369  0.0812
  897MOL0     H18389   0.721   9.593   3.781  0.3339 -3.8865 -0.1203
  897MOL0     H18390   1.753   9.237   3.646  0.4357 -2.1483 -0.0939
  897MOL0     H18391   1.993   9.182   3.718  0.6331  0.0279  0.7822
  897MOL0     H18392   2.396   8.830   3.663  0.4381  1.0768 -1.3604
  897MOL0     H18393   2.602   8.817   3.749 -1.2064 -0.0048 -1.1301
  897MOL0     H18394   2.799   8.821   3.825 -0.4919 -0.5141 -1.9362
  897MOL0     H18395   2.959   8.899   3.819  0.4362 -0.3713 -1.7562
  897MOL0     H18396   2.813   8.830   3.582  0.1542 -3.1122  2.3750
  897MOL0     H18397   2.970   8.924   3.596  0.7200 -3.0733 -1.7725
  897MOL0     H18398   2.959   8.637   3.688  1.0919 -1.1005  0.2423
  897MOL0     H18399   3.086   8.765   3.673  2.3000 -2.8860 -1.6672
  897MOL0     H18400   2.905   8.687   3.444 -0.2898  0.9481  1.0478
  897MOL0     H18401   3.054   8.772   3.430 -1.0369 -0.0702 -0.6003
  897MOL0     H18402   3.192   8.362   3.440 -0.1106  1.3279 -0.5272
  897MOL0     H18403   2.656   9.250   3.703 -0.7719  1.0031 -0.0851
  897MOL0     H18404   2.445   9.262   3.637  0.7078  0.1278  1.5690
  898MOL0     O18405   6.440   0.310   9.391 -1.0303 -0.0898  0.1104
  898MOL0     C18406   6.467   0.312   9.274 -0.2507  1.1218 -0.9524
  898MOL0     O18407   6.412   0.382   9.178 -0.1191  1.4667 -0.7665
  898MOL0     C18408   6.350   0.502   9.198  0.2427 -0.2974 -0.6649
  898MOL0     C18409   6.320   0.574   9.320  0.5364  0.2195  0.0288
  898MOL0     C18410   6.236   0.689   9.317  0.1678 -0.1669 -0.4325
  898MOL0     C18411   6.233   0.760   9.198  0.4359 -0.8130 -0.3538
  898MOL0     O18412   6.166   0.882   9.199 -0.2311  0.5800 -0.9150
  898MOL0     C18413   6.049   0.883   9.281  0.7820  0.8628  0.4570
  898MOL0     C18414   5.953   0.991   9.251 -0.3155  0.0403  1.3855
  898MOL0     C18415   5.868   0.941   9.134 -0.0786  0.3475 -0.9833
  898MOL0     C18416   5.778   1.050   9.093 -0.3122 -0.6680 -0.1205
  898MOL0     C18417   5.802   1.088   8.947 -0.2604  0.5149 -0.4780
  898MOL0     C18418   5.693   1.180   8.877 -0.4767  0.5013 -0.3104
  898MOL0     C18419   5.726   1.208   8.730  0.8597 -0.6998 -0.1107
  898MOL0     C18420   5.822   1.330   8.723 -0.8549 -0.4097 -0.1976
  898MOL0     N18421   5.751   1.459   8.735  0.0261  0.0922 -0.0560
  898MOL0     C18422   5.704   1.529   8.626 -0.2138 -0.6856 -0.3628
  898MOL0     C18423   5.707   1.659   8.654  0.6019 -0.6108  0.1389
  898MOL0     C18424   5.662   1.774   8.570 -0.6770 -0.1323 -0.0442
  898MOL0     C18425   5.516   1.806   8.599  0.0552 -0.4400 -0.2794
  898MOL0     C18426   5.438   1.845   8.467  0.3836  0.1882  0.7096
  898MOL0     C18427   5.453   1.727   8.368 -0.2917 -0.6132  0.1847
  898MOL0     O18428   5.348   1.725   8.271  0.3990  0.0930 -0.0568
  898MOL0     C18429   5.352   1.625   8.175 -0.0459  0.6042 -0.5512
  898MOL0     C18430   5.231   1.617   8.098 -0.9189 -0.1734 -0.3144
  898MOL0     C18431   5.224   1.530   7.990  1.3158  0.7340 -0.0065
  898MOL0     C18432   5.329   1.441   7.955  0.0761 -0.5938  1.2719
  898MOL0     C18433   5.305   1.340   7.856  0.8177 -0.0628 -0.4374
  898MOL0     O18434   5.402   1.246   7.833  0.0455  0.4132 -0.4020
  898MOL0     C18435   5.370   1.150   7.734  0.4325 -0.5753 -0.6740
  898MOL0     C18436   5.442   1.143   7.617  0.1479 -1.0552 -1.0404
  898MOL0     C18437   5.424   1.040   7.527  0.6197  0.3596  0.0533
  898MOL0     C18438   5.317   0.942   7.559 -0.3225  0.6380 -0.4037
  898MOL0     O18439   5.270   0.845   7.482  0.1533  0.5494  0.2867
  898MOL0     C18440   5.309   0.856   7.341  1.1142 -0.4554 -0.7417
  898MOL0     C18441   5.252   0.734   7.264  0.0946 -0.1921  0.0030
  898MOL0     C18442   5.296   0.603   7.323 -0.0736  0.6152  0.3559
  898MOL0     C18443   5.269   0.475   7.235 -0.0282 -0.0392 -0.2509
  898MOL0     C18444   5.315   0.343   7.300  0.5710  0.6975  0.7617
  898MOL0     C18445   5.322   0.223   7.200 -1.0246  0.0768  0.2266
  898MOL0     C18446   5.345   0.084   7.270 -0.2657 -0.5955  0.4313
  898MOL0     C18447   5.466   0.074   7.358  0.8937 -0.3192  0.5314
  898MOL0    Cl18448   5.412   0.114   7.523  0.2316 -0.3108 -0.2187
  898MOL0     C18449   5.256   0.940   7.678  0.8908  0.1730  0.7801
  898MOL0     C18450   5.271   1.051   7.765  0.2562  0.0696  0.4503
  898MOL0     O18451   5.197   1.357   7.788  1.2174  0.2924 -0.4907
  898MOL0     C18452   5.437   1.435   8.045 -0.0411  0.1035 -0.1449
  898MOL0     C18453   5.452   1.524   8.158  0.2945 -0.3104  0.2817
  898MOL0     N18454   5.759   1.675   8.782  0.8064  0.6445 -0.3662
  898MOL0     N18455   5.783   1.553   8.827  0.4569  0.1664  0.1563
  898MOL0     C18456   6.280   0.700   9.079 -0.7129 -0.5251 -0.3128
  898MOL0     C18457   6.334   0.571   9.076 -0.4682  0.3986  0.5853
  898MOL0     C18458   6.559   0.199   9.229 -0.3317  0.1256  0.3557
  898MOL0     C18459   6.538   0.141   9.110  0.0655 -0.5134 -0.5945
  898MOL0     C18460   6.614   0.038   9.067 -0.8171 -0.3548  0.3128
  898MOL0     C18461   6.714  -0.020   9.151 -0.6463 -0.0678  0.1950
  898MOL0     O18462   6.781  -0.125   9.087  0.4492  1.2747  0.0733
  898MOL0     C18463   6.918  -0.129   9.115 -0.6798  0.1966  0.3125
  898MOL0     C18464   6.990  -0.165   8.985 -0.8882  0.3784 -0.5760
  898MOL0     C18465   7.150  -0.195   9.000  0.5548 -0.8124 -0.4060
  898MOL0     C18466   7.205  -0.170   8.863  0.2237 -1.1706  0.3054
  898MOL0     C18467   7.346  -0.172   8.882 -0.5089  0.6334  0.2591
  898MOL0     C18468   7.464  -0.189   8.886  0.5309 -0.0507  0.4084
  898MOL0     C18469   6.727   0.028   9.278 -0.2482 -0.2073 -0.2724
  898MOL0     C18470   6.649   0.140   9.325  0.0274  0.4059  0.3950
  898MOL0     H18471   6.337   0.530   9.418 -1.7366 -0.2946  0.2396
  898MOL0     H18472   6.198   0.733   9.409 -0.1809  2.4476 -1.7398
  898MOL0     H18473   6.089   0.901   9.382  4.6216  0.1190 -0.7849
  898MOL0     H18474   6.002   0.786   9.263 -0.9807  2.0422 -1.8099
  898MOL0     H18475   6.008   1.080   9.218 -0.2106  0.3846  2.4485
  898MOL0     H18476   5.892   1.008   9.340 -2.0675  1.6769 -0.0274
  898MOL0     H18477   5.811   0.863   9.185  0.7600  0.5573  0.3312
  898MOL0     H18478   5.929   0.900   9.052 -2.1703 -2.2154 -1.4001
  898MOL0     H18479   5.675   1.017   9.108 -1.5218  3.2298  1.4096
  898MOL0     H18480   5.800   1.140   9.151  2.3548 -1.0246 -0.4373
  898MOL0     H18481   5.796   0.997   8.887  0.3154 -1.0300  1.7077
  898MOL0     H18482   5.901   1.133   8.938 -0.0611 -0.0057 -0.8619
  898MOL0     H18483   5.686   1.280   8.920  2.7009  2.0550 -2.9365
  898MOL0     H18484   5.597   1.129   8.887  1.4164 -3.2790  0.4053
  898MOL0     H18485   5.781   1.123   8.690  0.2588 -1.0375 -0.2337
  898MOL0     H18486   5.645   1.237   8.662  2.0364  1.4909 -0.6603
  898MOL0     H18487   5.881   1.337   8.631 -0.7163  1.1406 -0.0131
  898MOL0     H18488   5.899   1.335   8.800 -1.5849 -2.6282  0.7482
  898MOL0     H18489   5.676   1.495   8.527 -0.9135  1.4364 -0.9373
  898MOL0     H18490   5.691   1.755   8.466 -1.8762  0.6500 -0.5394
  898MOL0     H18491   5.718   1.863   8.597 -1.5075  1.4029 -2.9777
  898MOL0     H18492   5.518   1.886   8.673 -2.0343  1.7979 -2.4629
  898MOL0     H18493   5.470   1.718   8.646  0.4891 -0.8081 -0.5240
  898MOL0     H18494   5.340   1.876   8.504  1.8065  2.3061  3.0970
  898MOL0     H18495   5.472   1.940   8.423 -1.0797  0.3759 -0.0684
  898MOL0     H18496   5.464   1.629   8.415 -0.1443 -0.9088 -0.4571
  898MOL0     H18497   5.551   1.746   8.324 -0.0056  0.4386  1.2137
  898MOL0     H18498   5.147   1.682   8.117 -0.2932  0.0909  1.7472
  898MOL0     H18499   5.132   1.525   7.933  0.7664  2.5328  0.6493
  898MOL0     H18500   5.517   1.215   7.585 -0.5194 -0.7788 -2.0568
  898MOL0     H18501   5.486   1.041   7.438 -2.5081 -0.4248 -2.3240
  898MOL0     H18502   5.416   0.869   7.323  1.0120  0.1596 -0.9402
  898MOL0     H18503   5.257   0.946   7.306  2.1932 -0.4033 -2.3319
  898MOL0     H18504   5.273   0.746   7.157  0.8937  0.6355  0.2405
  898MOL0     H18505   5.143   0.727   7.276  0.1606 -0.7615  0.2975
  898MOL0     H18506   5.251   0.596   7.422  1.1789  0.1342  0.9048
  898MOL0     H18507   5.405   0.614   7.324  0.0634  0.5986 -3.0001
  898MOL0     H18508   5.165   0.461   7.204 -0.4340  0.0078  1.0520
  898MOL0     H18509   5.314   0.486   7.136 -1.5554 -1.2841 -1.1253
  898MOL0     H18510   5.253   0.311   7.385 -0.0786 -0.3397 -0.0836
  898MOL0     H18511   5.416   0.347   7.342  1.0008 -2.3845  0.2580
  898MOL0     H18512   5.409   0.233   7.134 -0.5544 -1.4215  0.5655
  898MOL0     H18513   5.226   0.217   7.146 -1.3702 -0.2867  0.8682
  898MOL0     H18514   5.257   0.058   7.328 -0.1645 -1.7189  0.1089
  898MOL0     H18515   5.357   0.008   7.193  1.1586 -2.2554  2.1835
  898MOL0     H18516   5.548   0.141   7.329 -0.6137  2.6824  2.7126
  898MOL0     H18517   5.511  -0.026   7.358  0.0014 -0.7767  2.8126
  898MOL0     H18518   5.188   0.863   7.712  2.7163 -2.2239 -0.6685
  898MOL0     H18519   5.212   1.051   7.856 -1.8872  0.0652 -0.8770
  898MOL0     H18520   5.525   1.373   8.029 -1.5490 -2.7767  1.8694
  898MOL0     H18521   5.537   1.517   8.225 -2.1338  2.5280  4.1093
  898MOL0     H18522   6.277   0.765   8.992 -0.7627  1.3987  1.0623
  898MOL0     H18523   6.351   0.520   8.982 -3.3375  0.5719 -0.1034
  898MOL0     H18524   6.451   0.170   9.052  0.4521  2.4679  0.1326
  898MOL0     H18525   6.599  -0.005   8.968 -2.0375  1.6911 -0.4586
  898MOL0     H18526   6.956  -0.199   9.190  2.4983  2.4665  0.9847
  898MOL0     H18527   6.965  -0.031   9.128  2.3196 -1.1623  0.5439
  898MOL0     H18528   6.944  -0.261   8.960 -2.6072  0.5577  1.5730
  898MOL0     H18529   6.974  -0.085   8.913  2.7460  1.1132 -0.7747
  898MOL0     H18530   7.165  -0.293   9.046  0.1000  0.3074  2.2661
  898MOL0     H18531   7.196  -0.126   9.071 -1.1943  0.6403 -0.6039
  898MOL0     H18532   7.164  -0.241   8.790  0.6898  1.1016 -2.3510
  898MOL0     H18533   7.176  -0.072   8.823  1.8124  0.9792  3.9062
  898MOL0     H18534   7.570  -0.177   8.901  0.8874  0.6043 -2.0435
  898MOL0     H18535   6.790  -0.029   9.345  1.9815  1.4271 -0.8536
  898MOL0     H18536   6.642   0.168   9.429 -2.0033  1.4729  0.0149
  899MOL0     O18537   2.151  10.881   8.309 -0.4788 -0.1586  0.3131
  899MOL0     C18538   2.185  10.990   8.256 -0.5572  0.3452 -0.0462
  899MOL0     O18539   2.191  11.107   8.327  0.1220  0.2438  0.0981
  899MOL0     C18540   2.201  11.097   8.462 -0.1412 -0.6994 -0.1952
  899MOL0     C18541   2.123  11.184   8.542 -0.1502 -0.2817 -0.8340
  899MOL0     C18542   2.139  11.186   8.678 -0.4975 -0.2965 -1.0951
  899MOL0     C18543   2.224  11.097   8.743 -0.6813  0.0549 -0.4402
  899MOL0     O18544   2.240  11.068   8.872  0.0184 -0.3270 -0.7997
  899MOL0     C18545   2.137  11.095   8.965  0.4045  0.1478  0.1156
  899MOL0     C18546   2.119  10.995   9.085  0.2898 -0.5827 -0.2811
  899MOL0     C18547   2.224  11.044   9.191 -1.1196 -0.3626  0.3360
  899MOL0     C18548   2.226  10.939   9.313 -1.1622 -0.6783 -0.0157
  899MOL0     C18549   2.312  10.985   9.434 -0.0140 -0.8226  1.2409
  899MOL0     C18550   2.260  10.926   9.573  0.1949  1.3642 -0.2280
  899MOL0     C18551   2.273  10.770   9.591 -0.2051  0.2212 -0.2803
  899MOL0     C18552   2.425  10.745   9.634 -0.8214  0.2320  0.4680
  899MOL0     N18553   2.453  10.799   9.770  0.8612 -0.1699 -1.1533
  899MOL0     C18554   2.408  10.750   9.893 -0.5495  0.0249  0.6612
  899MOL0     C18555   2.468  10.821   9.990 -1.0018  0.9257  0.5099
  899MOL0     C18556   2.444  10.799  10.135 -0.4076 -0.9120 -0.0507
  899MOL0     C18557   2.426  10.932  10.201  0.7757  0.2078 -0.1526
  899MOL0     C18558   2.318  11.018  10.150  0.1187  0.0848  0.6610
  899MOL0     C18559   2.187  10.983  10.227 -0.3872  0.7029  0.8851
  899MOL0     O18560   2.065  11.028  10.154  0.8059  0.0877 -0.1202
  899MOL0     C18561   2.005  10.943  10.068  1.1085  0.1110  0.5801
  899MOL0     C18562   1.881  10.998  10.024  0.6046  0.0613 -0.2286
  899MOL0     C18563   1.796  10.913   9.951  0.5434 -0.7436  0.0044
  899MOL0     C18564   1.847  10.783   9.899  1.0719 -0.2020 -0.4785
  899MOL0     C18565   1.747  10.694   9.834  0.1597  0.0148  0.4141
  899MOL0     O18566   1.625  10.749   9.812  0.2915  0.3331 -0.0341
  899MOL0     C18567   1.527  10.673   9.750  0.3594 -0.3958 -1.4230
  899MOL0     C18568   1.460  10.569   9.812 -0.3135  0.0846  0.5003
  899MOL0     C18569   1.345  10.516   9.742  0.2637  0.0198 -0.8086
  899MOL0     C18570   1.294  10.577   9.626 -0.1973 -0.1810  0.1468
  899MOL0     O18571   1.186  10.524   9.555 -0.0488  0.8744 -0.5133
  899MOL0     C18572   1.132  10.397   9.598 -0.3705  0.2349 -0.9340
  899MOL0     C18573   1.046  10.334   9.488  0.3110  0.1251  0.2932
  899MOL0     C18574   0.921  10.251   9.524  0.6695  0.0017 -1.4052
  899MOL0     C18575   0.834  10.324   9.629 -0.6983 -1.0047 -0.2444
  899MOL0     C18576   0.701  10.251   9.649 -0.0132  0.6581 -0.0833
  899MOL0     C18577   0.610  10.292   9.771  0.0085  0.3702  0.3016
  899MOL0     C18578   0.501  10.385   9.728 -0.4340  0.5322  0.0079
  899MOL0     C18579   0.435  10.456   9.841 -1.2565 -0.7623 -0.6233
  899MOL0    Cl18580   0.267  10.429   9.834  0.1860  0.3427 -0.1028
  899MOL0     C18581   1.367  10.679   9.576  0.0639 -0.3541  0.1300
  899MOL0     C18582   1.479  10.734   9.636 -0.1066  0.6521 -1.1235
  899MOL0     O18583   1.778  10.580   9.794 -0.1737 -0.3687 -0.0445
  899MOL0     C18584   1.972  10.743   9.941  0.3818  0.1438 -0.6970
  899MOL0     C18585   2.053  10.824  10.021  0.5021  0.2528 -1.7521
  899MOL0     N18586   2.551  10.910   9.928  0.4424  0.2171 -1.1005
  899MOL0     N18587   2.534  10.900   9.800 -0.5558  0.6399 -0.3767
  899MOL0     C18588   2.297  11.005   8.663 -0.8059 -0.7663 -0.6290
  899MOL0     C18589   2.287  11.006   8.528  0.3557 -0.5760  0.2800
  899MOL0     C18590   2.199  11.007   8.107 -0.0348  0.1265 -0.1452
  899MOL0     C18591   2.200  10.894   8.021  0.4948  0.4018 -0.5374
  899MOL0     C18592   2.217  10.923   7.886  0.3218  0.1699  0.7918
  899MOL0     C18593   2.232  11.056   7.835  0.1723  0.3630 -0.6018
  899MOL0     O18594   2.235  11.071   7.695  0.4163 -0.4170 -0.6164
  899MOL0     C18595   2.217  10.970   7.595 -0.2967 -0.0808  0.3598
  899MOL0     C18596   2.069  10.927   7.592  1.0752  0.2125  0.0328
  899MOL0     C18597   2.008  10.886   7.459 -0.3647  0.5932 -0.0722
  899MOL0     C18598   2.075  10.768   7.379  0.3141 -0.1665 -1.0657
  899MOL0     C18599   2.187  10.806   7.289  0.1850 -0.3654  0.5198
  899MOL0     C18600   2.290  10.827   7.222  0.4516 -0.0525 -0.5114
  899MOL0     C18601   2.203  11.160   7.920  0.0121  0.4012 -0.0201
  899MOL0     C18602   2.193  11.138   8.058 -0.7903  0.1367  0.2231
  899MOL0     H18603   2.050  11.258   8.510 -2.3842 -1.9427  0.1140
  899MOL0     H18604   2.074  11.249   8.739 -0.0447 -1.8321  1.0737
  899MOL0     H18605   2.043  11.089   8.908  1.0040 -2.0490 -0.7545
  899MOL0     H18606   2.147  11.201   8.992  3.4874  1.3716 -4.5546
  899MOL0     H18607   2.128  10.892   9.048 -2.3377 -1.2699  0.7965
  899MOL0     H18608   2.014  11.003   9.111  0.6536 -0.8794  1.3611
  899MOL0     H18609   2.212  11.148   9.223  2.5000  1.3417 -3.0114
  899MOL0     H18610   2.325  11.024   9.153 -0.8518  2.1039 -0.3823
  899MOL0     H18611   2.121  10.932   9.344 -1.3793 -0.6466 -0.7217
  899MOL0     H18612   2.270  10.845   9.279 -3.4071 -1.9691  0.4420
  899MOL0     H18613   2.295  11.093   9.438 -0.5960 -0.8189 -0.4054
  899MOL0     H18614   2.420  10.972   9.433  0.0512 -0.8097  3.7220
  899MOL0     H18615   2.159  10.968   9.579  0.1572  1.1218  1.5259
  899MOL0     H18616   2.323  10.982   9.643  0.4693  2.3637 -1.2556
  899MOL0     H18617   2.205  10.724   9.663  0.2930 -2.6671 -1.4941
  899MOL0     H18618   2.253  10.725   9.493 -1.1145  1.6702 -0.7984
  899MOL0     H18619   2.492  10.794   9.563 -1.9260  0.1828 -0.6269
  899MOL0     H18620   2.453  10.640   9.626  0.0529  0.5908 -1.9291
  899MOL0     H18621   2.333  10.671   9.896 -0.1622 -0.3135  1.6473
  899MOL0     H18622   2.522  10.751  10.195  0.0690  2.0837  1.9473
  899MOL0     H18623   2.351  10.745  10.155 -0.2786 -1.3930 -0.7251
  899MOL0     H18624   2.516  10.994  10.198  2.6761 -2.4393 -1.7536
  899MOL0     H18625   2.416  10.911  10.308  0.8526  0.3674 -0.1143
  899MOL0     H18626   2.336  11.126  10.154 -0.0409  0.1580 -0.2860
  899MOL0     H18627   2.303  11.003  10.042 -1.9807  1.6746  0.6505
  899MOL0     H18628   2.194  11.026  10.327  0.7597 -1.0756  1.5979
  899MOL0     H18629   2.177  10.878  10.253  1.2691  0.5940  1.1525
  899MOL0     H18630   1.837  11.089  10.062  3.3251  2.0410 -1.4875
  899MOL0     H18631   1.695  10.951   9.941 -0.0036 -1.8519  1.1377
  899MOL0     H18632   1.489  10.511   9.899 -0.0668 -1.4380 -0.5576
  899MOL0     H18633   1.306  10.423   9.782  1.5713  0.1186  0.7916
  899MOL0     H18634   1.066  10.412   9.684 -1.0139  3.2580 -1.8570
  899MOL0     H18635   1.198  10.315   9.628 -2.1435 -1.3004 -1.0527
  899MOL0     H18636   1.115  10.265   9.437 -2.0126 -1.7253 -0.5208
  899MOL0     H18637   1.007  10.412   9.422 -0.9816  0.5261  1.4774
  899MOL0     H18638   0.938  10.150   9.564  0.7915  0.1392 -1.1118
  899MOL0     H18639   0.867  10.233   9.430 -0.9400 -0.4872 -0.4263
  899MOL0     H18640   0.883  10.313   9.726  0.1929  0.8415 -0.4547
  899MOL0     H18641   0.821  10.431   9.610  1.4532 -0.9334 -1.5722
  899MOL0     H18642   0.746  10.151   9.653  1.1958  1.2012  0.5520
  899MOL0     H18643   0.641  10.240   9.558 -2.4176 -2.1536  1.6264
  899MOL0     H18644   0.675  10.353   9.834  0.9441  0.4791 -0.7376
  899MOL0     H18645   0.570  10.206   9.825 -2.6694  1.8153  0.7968
  899MOL0     H18646   0.537  10.467   9.666  1.5161  0.7709  1.3782
  899MOL0     H18647   0.427  10.313   9.690  0.2116 -1.4260  2.2175
  899MOL0     H18648   0.459  10.563   9.839  0.9254 -1.0172  2.5731
  899MOL0     H18649   0.464  10.420   9.940 -5.1045  0.2582  1.0689
  899MOL0     H18650   1.308  10.727   9.498 -0.4135  1.4722  1.5426
  899MOL0     H18651   1.541  10.811   9.591  1.4638 -1.6375 -3.1627
  899MOL0     H18652   2.014  10.648   9.908 -1.8761 -1.1578 -0.0020
  899MOL0     H18653   2.155  10.799  10.047  0.5941  3.1107  1.1433
  899MOL0     H18654   2.351  10.925   8.712  0.0346 -1.3356 -2.4126
  899MOL0     H18655   2.346  10.926   8.484 -0.2124 -1.7028  1.4819
  899MOL0     H18656   2.191  10.795   8.064  2.6529  0.7010  0.7557
  899MOL0     H18657   2.220  10.831   7.829  1.3839 -1.9620  3.9932
  899MOL0     H18658   2.279  10.880   7.604  0.2387  0.1673 -0.6699
  899MOL0     H18659   2.234  11.029   7.504 -1.5238 -2.2261 -1.3645
  899MOL0     H18660   2.063  10.839   7.656  1.8270  0.2014  0.0920
  899MOL0     H18661   2.009  11.006   7.639  1.5504  3.0556 -3.6879
  899MOL0     H18662   2.002  10.973   7.393 -0.4250  0.1153 -0.7159
  899MOL0     H18663   1.905  10.862   7.485 -0.0260  1.0887  1.8910
  899MOL0     H18664   2.103  10.689   7.449 -2.2533 -0.6775 -0.5284
  899MOL0     H18665   1.997  10.720   7.318 -0.8885 -1.5335  1.3671
  899MOL0     H18666   2.381  10.834   7.165 -0.7350  0.2949 -2.4362
  899MOL0     H18667   2.204  11.263   7.885  2.2920 -0.2512 -2.2058
  899MOL0     H18668   2.166  11.216   8.128 -0.7754  0.4313 -0.1001
  900MOL0     O18669   5.397   8.937   0.583  0.0311 -0.1776  0.0086
  900MOL0     C18670   5.459   8.894   0.677  0.7234  0.2129 -0.6662
  900MOL0     O18671   5.411   8.813   0.774 -0.4137 -0.5429  0.0854
  900MOL0     C18672   5.283   8.791   0.801  0.8139 -1.3885  0.6594
  900MOL0     C18673   5.250   8.721   0.913 -0.6627  0.0701  0.2507
  900MOL0     C18674   5.117   8.692   0.950 -0.6550  0.2506  0.1669
  900MOL0     C18675   5.011   8.730   0.861 -0.1515  0.0622 -0.2004
  900MOL0     O18676   4.884   8.706   0.896 -0.1010 -0.0638  0.0358
  900MOL0     C18677   4.847   8.652   1.030 -0.2700 -0.8114  1.0667
  900MOL0     C18678   4.696   8.626   1.020 -0.3777 -0.0020  0.0256
  900MOL0     C18679   4.647   8.513   1.108 -0.3771 -0.0098 -0.0285
  900MOL0     C18680   4.645   8.381   1.037 -0.8400 -0.0459 -1.2370
  900MOL0     C18681   4.586   8.270   1.126 -0.3113 -0.2577  0.2390
  900MOL0     C18682   4.573   8.144   1.037  0.9270 -1.1418  0.2892
  900MOL0     C18683   4.518   8.023   1.116  0.5731 -0.2422  0.3946
  900MOL0     C18684   4.581   7.988   1.254  0.6137 -0.5321 -0.0105
  900MOL0     N18685   4.725   7.958   1.239  0.3061 -0.0513  0.2774
  900MOL0     C18686   4.795   7.904   1.123  0.0965  0.0450 -1.0922
  900MOL0     C18687   4.921   7.901   1.174 -0.8402 -0.2576  0.7993
  900MOL0     C18688   5.042   7.861   1.104  0.5705 -0.3622  0.1590
  900MOL0     C18689   5.053   7.711   1.068  0.0973 -0.1713  0.1880
  900MOL0     C18690   5.060   7.594   1.177 -0.6491  0.5372 -1.1808
  900MOL0     C18691   4.923   7.591   1.249 -1.0263  1.4712  0.2868
  900MOL0     O18692   4.905   7.479   1.327 -0.6411 -0.3719 -0.7276
  900MOL0     C18693   4.864   7.370   1.268 -1.3843 -0.3884  0.1407
  900MOL0     C18694   4.892   7.259   1.338  0.7861 -0.2741  0.2529
  900MOL0     C18695   4.851   7.137   1.299 -0.4386  0.4044 -0.0454
  900MOL0     C18696   4.804   7.119   1.165 -1.2467  0.4723 -0.6045
  900MOL0     C18697   4.806   6.984   1.106  0.6707 -0.9722  0.6408
  900MOL0     O18698   4.771   6.990   0.978 -0.4728 -0.6188 -0.3462
  900MOL0     C18699   4.757   6.880   0.899  0.0881  0.4436  0.1892
  900MOL0     C18700   4.644   6.802   0.882 -0.4392 -0.4302 -0.1224
  900MOL0     C18701   4.631   6.708   0.791 -0.9147  0.4208  0.3532
  900MOL0     C18702   4.744   6.683   0.705 -0.7668  0.7418  1.2555
  900MOL0     O18703   4.727   6.601   0.598  0.1575  0.4293 -0.3162
  900MOL0     C18704   4.692   6.462   0.623 -0.7578  0.7058  0.3216
  900MOL0     C18705   4.634   6.396   0.502  0.0218 -0.4715  0.6079
  900MOL0     C18706   4.509   6.483   0.470 -0.3395 -0.1338  0.1037
  900MOL0     C18707   4.441   6.425   0.344 -0.6960 -0.0193 -0.7179
  900MOL0     C18708   4.331   6.512   0.289 -1.0813 -0.3850  0.4419
  900MOL0     C18709   4.368   6.589   0.160 -0.2500 -0.3362 -0.4235
  900MOL0     C18710   4.278   6.705   0.121  0.8702 -0.6248 -1.0761
  900MOL0     C18711   4.302   6.747  -0.028  0.0099 -0.3432  0.4779
  900MOL0    Cl18712   4.150   6.799  -0.095  0.4853 -0.7317 -0.2227
  900MOL0     C18713   4.864   6.746   0.729 -0.3488 -0.9755 -0.6590
  900MOL0     C18714   4.875   6.845   0.829  0.0083  0.5302  0.1905
  900MOL0     O18715   4.840   6.887   1.165 -0.1701  0.0648 -0.6060
  900MOL0     C18716   4.766   7.230   1.093  0.7593  0.5686 -0.6360
  900MOL0     C18717   4.794   7.351   1.146  0.4076  0.2159  0.9512
  900MOL0     N18718   4.934   7.937   1.301  0.3306 -1.1316  0.1349
  900MOL0     N18719   4.814   7.978   1.334  0.0435 -0.1064 -1.1259
  900MOL0     C18720   5.047   8.796   0.740 -0.2268 -0.6635  0.4678
  900MOL0     C18721   5.176   8.836   0.719 -0.3825 -0.4300 -0.3563
  900MOL0     C18722   5.602   8.926   0.688  1.0138  0.7809 -0.5787
  900MOL0     C18723   5.687   8.984   0.588 -0.0093 -0.7048  0.1609
  900MOL0     C18724   5.822   9.005   0.599 -0.1686  0.2267 -1.0741
  900MOL0     C18725   5.892   8.979   0.719  0.2031 -0.1511 -0.9279
  900MOL0     O18726   6.027   9.013   0.730 -0.4080  0.1673 -0.4008
  900MOL0     C18727   6.060   9.096   0.842  0.0294  0.2107  0.2069
  900MOL0     C18728   6.021   9.236   0.819 -0.7907 -0.9778 -0.3605
  900MOL0     C18729   6.091   9.289   0.697 -0.1563 -0.5782 -0.2941
  900MOL0     C18730   6.244   9.332   0.723 -0.1510  0.3824  0.4347
  900MOL0     C18731   6.294   9.412   0.609 -0.7974  0.0348 -0.1167
  900MOL0     C18732   6.340   9.481   0.527  0.3809  0.1473  0.1172
  900MOL0     C18733   5.811   8.895   0.811  0.3659  0.2007  0.8397
  900MOL0     C18734   5.671   8.881   0.803 -0.7031 -0.3596 -0.2590
  900MOL0     H18735   5.335   8.711   0.980  0.0780  1.0078 -0.5092
  900MOL0     H18736   5.105   8.644   1.047 -4.3873 -1.1394 -0.8054
  900MOL0     H18737   4.858   8.729   1.107  0.2625 -1.1988  1.3873
  900MOL0     H18738   4.901   8.560   1.051 -0.7717 -1.4622 -0.3476
  900MOL0     H18739   4.673   8.606   0.915 -3.1698 -0.5997  0.6635
  900MOL0     H18740   4.648   8.719   1.053  2.1478 -0.1336  5.0755
  900MOL0     H18741   4.544   8.548   1.126  0.1133  0.6788  1.6379
  900MOL0     H18742   4.703   8.502   1.202 -1.1266  1.4216  0.6338
  900MOL0     H18743   4.590   8.381   0.943 -1.6848  2.8520 -0.8421
  900MOL0     H18744   4.751   8.360   1.021 -0.1035  1.6783  0.8515
  900MOL0     H18745   4.488   8.298   1.165 -0.6428  0.4643 -1.0341
  900MOL0     H18746   4.657   8.258   1.208 -1.3971  1.3228  1.4638
  900MOL0     H18747   4.666   8.113   0.988  0.1234  0.1389 -2.2057
  900MOL0     H18748   4.501   8.170   0.959  1.7749  2.7459  0.5867
  900MOL0     H18749   4.414   8.049   1.138  0.6572  0.8473 -0.3655
  900MOL0     H18750   4.510   7.929   1.061 -0.5745  0.0527  0.0375
  900MOL0     H18751   4.530   7.900   1.297  1.6924 -1.0705  0.2002
  900MOL0     H18752   4.561   8.074   1.319 -3.3958 -0.1712 -1.4240
  900MOL0     H18753   4.756   7.872   1.027 -3.6164  0.1028  0.2158
  900MOL0     H18754   5.119   7.886   1.178 -3.2682 -1.0277  4.8457
  900MOL0     H18755   5.048   7.921   1.013 -1.4753  0.2175  0.3674
  900MOL0     H18756   5.134   7.701   0.995 -1.0349  0.6534 -1.2494
  900MOL0     H18757   4.966   7.681   1.008  0.1737  0.4627 -0.2550
  900MOL0     H18758   5.082   7.502   1.123 -0.6817 -1.3122  1.7278
  900MOL0     H18759   5.142   7.596   1.249  0.5828  0.2450 -2.5287
  900MOL0     H18760   4.836   7.600   1.183 -2.3678 -2.7608  1.1745
  900MOL0     H18761   4.922   7.676   1.318  2.4037  1.2418  0.7633
  900MOL0     H18762   4.918   7.286   1.440 -5.6917 -1.8987  2.8779
  900MOL0     H18763   4.867   7.051   1.363  3.7214  1.7218  0.9845
  900MOL0     H18764   4.557   6.831   0.940  0.6940  3.4265 -0.0778
  900MOL0     H18765   4.537   6.659   0.768 -0.5118  0.1176 -0.7488
  900MOL0     H18766   4.643   6.445   0.719 -0.6269  0.6627  0.3810
  900MOL0     H18767   4.779   6.399   0.644  0.1899  1.5673 -0.8531
  900MOL0     H18768   4.598   6.294   0.517  0.5207 -0.5394  1.3699
  900MOL0     H18769   4.707   6.385   0.421  0.7838 -5.1502  1.6273
  900MOL0     H18770   4.532   6.588   0.454  0.4690 -0.4491 -0.9213
  900MOL0     H18771   4.451   6.470   0.562 -1.1909  0.6133 -0.3221
  900MOL0     H18772   4.519   6.421   0.268 -0.3969  1.7602 -0.5528
  900MOL0     H18773   4.398   6.326   0.361 -1.5167  0.1069 -1.9361
  900MOL0     H18774   4.304   6.591   0.359  1.4151  1.4783 -0.5254
  900MOL0     H18775   4.248   6.445   0.266  0.1742 -1.9985  0.3975
  900MOL0     H18776   4.341   6.509   0.091 -2.8077  1.1658 -1.2741
  900MOL0     H18777   4.473   6.620   0.153 -0.3717  0.0890 -0.3604
  900MOL0     H18778   4.177   6.663   0.111 -1.2033  3.9094 -2.2225
  900MOL0     H18779   4.287   6.794   0.184 -0.2514 -0.5700 -0.9632
  900MOL0     H18780   4.343   6.667  -0.091  1.0646  1.1364 -0.7710
  900MOL0     H18781   4.381   6.822  -0.040  2.7739 -3.2094 -0.7062
  900MOL0     H18782   4.945   6.737   0.656  0.8524  1.8649  0.1968
  900MOL0     H18783   4.966   6.903   0.817  0.7399 -0.2975  1.4540
  900MOL0     H18784   4.707   7.220   1.002  1.1806  0.8252 -0.9455
  900MOL0     H18785   4.775   7.441   1.089  0.0043  2.0349  3.7535
  900MOL0     H18786   4.965   8.823   0.674  1.2421  2.5621 -0.2166
  900MOL0     H18787   5.179   8.906   0.636 -0.7875 -1.1383 -0.9818
  900MOL0     H18788   5.639   9.006   0.494 -4.7923 -0.5731  2.3432
  900MOL0     H18789   5.883   9.049   0.521  4.2859  0.9372  2.3530
  900MOL0     H18790   6.168   9.089   0.859 -0.1887 -3.5194  0.7295
  900MOL0     H18791   6.015   9.058   0.934 -1.5155  1.4468  0.0163
  900MOL0     H18792   5.914   9.246   0.798 -2.0633 -0.4343  4.8339
  900MOL0     H18793   6.048   9.284   0.914 -1.5303 -2.7992  0.8285
  900MOL0     H18794   6.052   9.382   0.656  3.9101  0.8327 -1.4313
  900MOL0     H18795   6.077   9.219   0.615 -0.1824  1.7608 -2.3907
  900MOL0     H18796   6.249   9.389   0.816 -0.2985 -0.1957  0.8000
  900MOL0     H18797   6.299   9.239   0.738  0.0685  0.7593  2.2364
  900MOL0     H18798   6.384   9.542   0.450 -0.4185  0.8341  0.1905
  900MOL0     H18799   5.866   8.863   0.899  1.2571  4.1101  1.9172
  900MOL0     H18800   5.618   8.840   0.888 -0.5835  0.9073  0.4576
  901MOL0     O18801  11.081   1.418  10.209  0.6024 -0.7599  0.5326
  901MOL0     C18802  10.991   1.423  10.291 -0.2457  1.0005  0.3429
  901MOL0     O18803  10.942   1.538  10.356  0.5848  0.0264  0.1476
  901MOL0     C18804  10.937   1.663  10.291 -0.0223  0.0116  0.2690
  901MOL0     C18805  10.836   1.750  10.338  0.5056 -0.1510  0.7278
  901MOL0     C18806  10.822   1.885  10.287 -0.7055 -0.2037 -0.8510
  901MOL0     C18807  10.906   1.924  10.183  0.6706  0.7633 -0.2666
  901MOL0     O18808  10.898   2.052  10.149  0.3810 -0.6524  0.0049
  901MOL0     C18809  11.013   2.128  10.124  0.7944  0.4128  0.1551
  901MOL0     C18810  10.983   2.252  10.039 -0.7090 -0.1902 -0.1566
  901MOL0     C18811  11.109   2.342  10.036 -0.4633  0.6365  0.2895
  901MOL0     C18812  11.091   2.445   9.935 -0.3922  0.0543 -1.4125
  901MOL0     C18813  11.224   2.522   9.913 -0.1527 -0.2794 -0.4716
  901MOL0     C18814  11.215   2.639   9.810  0.3608  0.2767  0.3552
  901MOL0     C18815  11.351   2.693   9.777  0.0483 -0.4127 -0.0916
  901MOL0     C18816  11.331   2.818   9.680 -0.1055 -0.0897 -0.0740
  901MOL0     N18817  11.454   2.885   9.643 -0.6310  0.6018  0.5913
  901MOL0     C18818  11.543   2.843   9.546  1.1843  0.2071  0.1460
  901MOL0     C18819  11.646   2.927   9.548  0.0651 -0.0032  0.7876
  901MOL0     C18820  11.766   2.937   9.453  0.2699  0.9411 -0.3698
  901MOL0     C18821  11.732   2.928   9.308 -0.5082 -0.6227 -0.3933
  901MOL0     C18822  11.722   2.786   9.246 -0.1468 -1.2903  0.6941
  901MOL0     C18823  11.783   2.789   9.094 -0.3155  0.2160 -0.2963
  901MOL0     O18824  11.714   2.888   9.016 -0.4766  0.0535 -0.8091
  901MOL0     C18825  11.790   2.979   8.945 -0.2515  0.0455 -0.0965
  901MOL0     C18826  11.920   3.025   8.974  0.0288  0.2714 -0.8876
  901MOL0     C18827  11.982   3.106   8.885 -0.7575 -0.6524 -0.4275
  901MOL0     C18828  11.910   3.172   8.785 -0.7404 -0.4403  0.1084
  901MOL0     C18829  11.973   3.278   8.706  0.2371 -0.5677 -0.9331
  901MOL0     O18830  12.107   3.303   8.736  0.7819 -0.2438  0.1990
  901MOL0     C18831  12.191   3.386   8.675  0.8912 -0.1895 -0.5156
  901MOL0     C18832  12.289   3.446   8.744 -0.0143 -0.2469 -0.7801
  901MOL0     C18833  12.393   3.510   8.686  0.5472  0.5402 -0.0397
  901MOL0     C18834  12.386   3.538   8.547  0.3596 -0.9037  0.3382
  901MOL0     O18835  12.491   3.591   8.472 -0.2524  0.1731 -1.4441
  901MOL0     C18836  12.535   3.724   8.514  0.3847  0.0169 -0.1428
  901MOL0     C18837  12.684   3.730   8.460 -0.4052 -0.0172  0.6250
  901MOL0     C18838  12.772   3.823   8.547 -0.3341 -0.7709  0.2139
  901MOL0     C18839  12.776   3.958   8.464  0.7975 -0.1315  0.2708
  901MOL0     C18840  12.845   4.063   8.548  0.8306  0.0267 -0.2711
  901MOL0     C18841  12.838   4.202   8.485  0.1389 -0.2221  0.2816
  901MOL0     C18842  12.738   4.298   8.549 -0.3937 -0.4101 -0.1069
  901MOL0     C18843  12.758   4.436   8.481 -0.5645  0.0921 -0.7837
  901MOL0    Cl18844  12.637   4.557   8.501  0.1802 -0.3962 -0.1036
  901MOL0     C18845  12.281   3.484   8.478  0.4801 -0.5014 -0.6256
  901MOL0     C18846  12.180   3.426   8.540 -0.2856  0.6477 -0.0513
  901MOL0     O18847  11.904   3.348   8.630  0.3647  0.4400  0.4903
  901MOL0     C18848  11.779   3.133   8.764  0.1648  0.1341 -0.8235
  901MOL0     C18849  11.720   3.033   8.839  0.9409 -0.4435 -0.6505
  901MOL0     N18850  11.635   3.008   9.653  0.0796  0.2848 -0.9689
  901MOL0     N18851  11.502   2.993   9.703  0.3323 -0.5470  0.6958
  901MOL0     C18852  11.004   1.830  10.128  0.2413  0.3468  0.1911
  901MOL0     C18853  11.014   1.700  10.178 -0.5535 -0.5060  0.0568
  901MOL0     C18854  10.926   1.294  10.323 -0.2490  0.2068  0.1521
  901MOL0     C18855  10.849   1.278  10.439  0.4254 -0.1892  0.8207
  901MOL0     C18856  10.793   1.157  10.471  0.5628 -0.8657  0.3118
  901MOL0     C18857  10.829   1.039  10.390 -0.1481 -0.6503 -0.0778
  901MOL0     O18858  10.793   0.915  10.407 -0.1532 -1.0484  0.5512
  901MOL0     C18859  10.654   0.892  10.433 -0.1078  0.0113 -0.0514
  901MOL0     C18860  10.576   0.859  10.307  0.8679 -0.2729  0.4590
  901MOL0     C18861  10.627   0.739  10.228  1.0389 -0.6000  0.2278
  901MOL0     C18862  10.522   0.702  10.123  1.2801  0.9181 -0.0408
  901MOL0     C18863  10.423   0.795  10.057  1.4545  0.4693  0.3054
  901MOL0     C18864  10.355   0.873   9.985  0.0278 -0.5446 -0.7814
  901MOL0     C18865  10.914   1.052  10.287 -0.0983 -0.1477  0.2308
  901MOL0     C18866  10.961   1.178  10.246  0.1029 -0.1366 -0.2242
  901MOL0     H18867  10.772   1.721  10.421 -1.9622  2.8311  0.0694
  901MOL0     H18868  10.743   1.946  10.329  0.5954 -0.2995  1.9632
  901MOL0     H18869  11.078   2.068  10.059 -2.1091  0.1041 -2.7217
  901MOL0     H18870  11.051   2.150  10.224 -0.3901  1.2910  0.4389
  901MOL0     H18871  10.898   2.306  10.083 -1.3745  2.1035 -3.8419
  901MOL0     H18872  10.961   2.206   9.943 -0.5799 -0.4627 -0.0552
  901MOL0     H18873  11.194   2.283  10.002 -0.5838  1.4808 -1.6337
  901MOL0     H18874  11.112   2.371  10.141 -0.9793 -0.8371  0.7263
  901MOL0     H18875  11.068   2.401   9.837  1.8136  1.8792 -2.8454
  901MOL0     H18876  11.013   2.517   9.961  0.0103 -0.5184  1.8088
  901MOL0     H18877  11.290   2.444   9.874 -0.8110 -0.1868 -1.8144
  901MOL0     H18878  11.286   2.552   9.998  1.2517  1.3082 -1.9643
  901MOL0     H18879  11.158   2.714   9.866 -0.5695 -2.5733  3.6295
  901MOL0     H18880  11.169   2.603   9.718 -1.5211  4.0628 -0.3852
  901MOL0     H18881  11.410   2.725   9.864 -1.0282  4.0272 -0.7716
  901MOL0     H18882  11.414   2.619   9.726  0.3909 -0.2717  0.1193
  901MOL0     H18883  11.271   2.890   9.736 -0.7412 -2.7979  2.9917
  901MOL0     H18884  11.279   2.792   9.587  2.7197  1.5797 -2.3186
  901MOL0     H18885  11.522   2.760   9.480 -1.3417  0.3399  0.6897
  901MOL0     H18886  11.846   2.863   9.463 -1.7970 -1.6990 -1.9680
  901MOL0     H18887  11.807   3.038   9.464  1.6816  0.3944 -0.4559
  901MOL0     H18888  11.789   2.992   9.239  1.7591 -2.7905 -0.6941
  901MOL0     H18889  11.630   2.964   9.294 -0.6163 -0.5205  0.5798
  901MOL0     H18890  11.770   2.710   9.308  1.5294 -0.0353  1.0233
  901MOL0     H18891  11.618   2.753   9.243 -0.3375 -0.8241  1.7394
  901MOL0     H18892  11.766   2.690   9.050 -1.0838  1.2781 -2.5259
  901MOL0     H18893  11.892   2.789   9.100 -0.3102  0.7406 -0.3560
  901MOL0     H18894  11.971   3.001   9.066 -0.0448 -0.2222 -0.9704
  901MOL0     H18895  12.086   3.132   8.900 -1.6915  3.0981  0.7055
  901MOL0     H18896  12.298   3.437   8.852 -1.0389  0.0370 -0.6583
  901MOL0     H18897  12.483   3.549   8.733 -2.0613  2.5803  3.8894
  901MOL0     H18898  12.525   3.752   8.620 -0.3387 -0.9867  0.0691
  901MOL0     H18899  12.477   3.802   8.462 -0.4385  0.1288  0.9045
  901MOL0     H18900  12.692   3.759   8.355  0.4763 -2.2402  0.0156
  901MOL0     H18901  12.734   3.633   8.468  1.5383  0.5855 -2.5556
  901MOL0     H18902  12.877   3.792   8.556 -0.4955 -1.5986 -0.6454
  901MOL0     H18903  12.721   3.845   8.641 -0.4288  1.7735 -0.3835
  901MOL0     H18904  12.828   3.934   8.371 -1.9382 -2.6189 -0.7680
  901MOL0     H18905  12.673   3.992   8.447  1.2516  1.5038  0.5712
  901MOL0     H18906  12.942   4.017   8.569  0.5322 -0.5736 -0.2002
  901MOL0     H18907  12.810   4.067   8.651 -0.6174 -1.7927 -0.6257
  901MOL0     H18908  12.835   4.177   8.379 -0.0245  1.7054 -0.2022
  901MOL0     H18909  12.936   4.246   8.504  0.8486 -2.8572  4.0134
  901MOL0     H18910  12.640   4.251   8.538  0.8439 -2.9178 -1.2300
  901MOL0     H18911  12.757   4.312   8.655  1.0908 -1.9569 -0.1260
  901MOL0     H18912  12.756   4.414   8.374  2.0301  0.5708 -0.9911
  901MOL0     H18913  12.849   4.478   8.527 -1.1385  2.3461 -1.5940
  901MOL0     H18914  12.274   3.487   8.370 -2.3725  1.4805 -0.5132
  901MOL0     H18915  12.114   3.380   8.466  2.9934 -0.8899 -2.2499
  901MOL0     H18916  11.724   3.168   8.677 -1.7810 -3.4983 -1.2511
  901MOL0     H18917  11.616   3.006   8.824  0.5735  1.6121 -2.2910
  901MOL0     H18918  11.068   1.869  10.049 -2.6086 -0.3107 -2.6704
  901MOL0     H18919  11.077   1.636  10.118 -1.0203  1.0358 -2.1797
  901MOL0     H18920  10.837   1.371  10.495  0.3428 -0.1213  0.6897
  901MOL0     H18921  10.743   1.156  10.567  1.2779 -2.2357  0.6967
  901MOL0     H18922  10.611   0.983  10.476  0.2679  0.2936 -0.2760
  901MOL0     H18923  10.641   0.819  10.513  3.2725  0.0359  0.6329
  901MOL0     H18924  10.470   0.855  10.332  0.6046 -0.2076 -0.6245
  901MOL0     H18925  10.585   0.947  10.242 -0.1487  0.2006  0.9422
  901MOL0     H18926  10.645   0.649  10.286  1.6874 -1.8039 -1.7535
  901MOL0     H18927  10.716   0.768  10.171  0.5512  1.8200  0.5621
  901MOL0     H18928  10.562   0.644  10.039  0.7085  0.3489  0.0769
  901MOL0     H18929  10.452   0.628  10.164 -0.5408  3.5832  2.0179
  901MOL0     H18930  10.308   0.940   9.916  2.7465  3.4487  0.9139
  901MOL0     H18931  10.955   0.966  10.236  1.6902  1.7366 -1.7660
  901MOL0     H18932  11.035   1.172  10.167 -0.7789  1.0839 -1.1645
  902MOL0     O18933   9.998   0.103   4.182 -0.4261 -0.1841 -0.6396
  902MOL0     C18934  10.114   0.093   4.141 -0.1939  0.0111  0.5502
  902MOL0     O18935  10.220   0.019   4.194  0.9361  0.3169  0.2750
  902MOL0     C18936  10.194  -0.116   4.217 -0.0698 -0.2443 -0.0615
  902MOL0     C18937  10.076  -0.189   4.183  0.3430 -0.2456  0.1568
  902MOL0     C18938  10.047  -0.314   4.229 -0.6503  0.6822 -0.4966
  902MOL0     C18939  10.148  -0.387   4.301 -0.2587  0.5072 -0.7592
  902MOL0     O18940  10.124  -0.502   4.359  0.1379  0.3469 -0.1470
  902MOL0     C18941  10.032  -0.593   4.292  0.4005  0.6295  0.7512
  902MOL0     C18942  10.051  -0.741   4.337 -1.1194  0.1392 -0.8930
  902MOL0     C18943  10.184  -0.787   4.279  0.2948  0.6763 -0.1687
  902MOL0     C18944  10.240  -0.923   4.332 -0.0037  0.4840  0.2326
  902MOL0     C18945  10.382  -0.941   4.280 -1.1327 -0.1977  0.9649
  902MOL0     C18946  10.443  -1.074   4.301 -0.2725  0.8401 -0.1851
  902MOL0     C18947  10.492  -1.083   4.454 -0.6665 -0.1745  0.5707
  902MOL0     C18948  10.624  -1.155   4.469 -0.4947 -0.2133  0.3740
  902MOL0     N18949  10.615  -1.292   4.423 -0.2043  0.7273 -0.0227
  902MOL0     C18950  10.612  -1.400   4.508 -0.2918 -0.9006 -0.4459
  902MOL0     C18951  10.610  -1.505   4.429  0.3396 -0.2821 -0.4383
  902MOL0     C18952  10.613  -1.653   4.472  0.8801  0.1033  0.1028
  902MOL0     C18953  10.527  -1.672   4.592  0.6704  1.0626 -0.6522
  902MOL0     C18954  10.479  -1.814   4.618 -0.1771 -0.7503 -0.7903
  902MOL0     C18955  10.406  -1.844   4.747 -0.2695 -0.0605 -0.4076
  902MOL0     O18956  10.511  -1.860   4.842  0.0631  0.0878 -0.0212
  902MOL0     C18957  10.490  -1.915   4.959 -1.1657 -0.2925 -0.1565
  902MOL0     C18958  10.612  -1.919   5.037  0.9572  0.2956 -0.2306
  902MOL0     C18959  10.606  -1.970   5.170  0.1125 -0.3910  0.0043
  902MOL0     C18960  10.487  -2.022   5.224  0.1205 -0.4412  0.3258
  902MOL0     C18961  10.495  -2.089   5.353 -0.9550  1.3211  0.3579
  902MOL0     O18962  10.613  -2.069   5.423 -0.0469 -0.1625  0.5605
  902MOL0     C18963  10.653  -2.160   5.523  0.7811 -0.3196  0.6396
  902MOL0     C18964  10.642  -2.294   5.500  0.0303  0.3030 -0.8943
  902MOL0     C18965  10.700  -2.388   5.593 -0.1928 -0.3881  0.0633
  902MOL0     C18966  10.755  -2.344   5.711 -1.0786 -0.0160 -0.6643
  902MOL0     O18967  10.829  -2.432   5.784 -0.0227 -0.6056 -0.6421
  902MOL0     C18968  10.772  -2.442   5.912 -0.4657  1.1624 -1.1221
  902MOL0     C18969  10.822  -2.578   5.968  0.2541 -0.1261  0.8052
  902MOL0     C18970  10.970  -2.586   5.987 -0.8659 -0.4411 -0.5511
  902MOL0     C18971  11.014  -2.729   6.001 -0.4968  0.1392  0.0962
  902MOL0     C18972  11.165  -2.752   5.978  0.2662 -0.6773 -0.7010
  902MOL0     C18973  11.201  -2.900   5.980  0.7488  0.5507 -0.2898
  902MOL0     C18974  11.353  -2.932   5.965  0.6983 -0.4079  0.9504
  902MOL0     C18975  11.391  -3.080   5.969 -0.9742 -0.7221 -0.1633
  902MOL0    Cl18976  11.554  -3.109   6.033 -0.2371 -0.0711 -0.3569
  902MOL0     C18977  10.763  -2.205   5.732  0.1530  0.4675 -0.4858
  902MOL0     C18978  10.710  -2.117   5.647 -0.8106  0.7321  0.9814
  902MOL0     O18979  10.399  -2.158   5.388  0.4467  0.8219  0.3231
  902MOL0     C18980  10.370  -2.022   5.139 -0.1876 -0.8071 -0.9961
  902MOL0     C18981  10.368  -1.966   5.012 -0.9568 -1.0444 -0.1336
  902MOL0     N18982  10.605  -1.465   4.295  0.1795  0.4136 -0.5823
  902MOL0     N18983  10.618  -1.337   4.294 -0.1830 -0.2863  0.1047
  902MOL0     C18984  10.270  -0.319   4.345  0.7167 -0.1932  0.2342
  902MOL0     C18985  10.290  -0.194   4.291  0.6231 -0.0352 -0.4463
  902MOL0     C18986  10.141   0.197   4.038  0.0811 -0.4518 -0.0257
  902MOL0     C18987  10.032   0.271   3.986 -0.3300 -0.4273  0.8073
  902MOL0     C18988  10.066   0.377   3.893  1.0015  0.0025  0.3878
  902MOL0     C18989  10.194   0.410   3.864  0.3912  0.2246  1.0606
  902MOL0     O18990  10.242   0.513   3.790 -0.1725  0.2834  0.0377
  902MOL0     C18991  10.166   0.632   3.797  1.2583 -0.7446 -0.5316
  902MOL0     C18992  10.260   0.740   3.748  1.7328 -0.8016 -0.7020
  902MOL0     C18993  10.367   0.772   3.846  0.5575  0.1099  1.1394
  902MOL0     C18994  10.451   0.892   3.798 -0.1808  0.4372  0.0939
  902MOL0     C18995  10.565   0.932   3.884 -0.0830  0.0649 -0.3364
  902MOL0     C18996  10.663   0.962   3.949 -0.2259 -0.3230  0.7879
  902MOL0     C18997  10.297   0.322   3.912 -0.0175  0.5332 -0.3715
  902MOL0     C18998  10.269   0.219   3.998  0.0478 -0.4990  0.7967
  902MOL0     H18999   9.996  -0.142   4.127  1.0143  0.7330  0.0019
  902MOL0     H19000   9.947  -0.355   4.220 -0.7246  1.2539 -2.7452
  902MOL0     H19001  10.012  -0.572   4.187 -3.5223  0.7961  1.3591
  902MOL0     H19002   9.933  -0.581   4.336 -0.7271  0.2833 -1.5378
  902MOL0     H19003   9.969  -0.811   4.319  0.6593 -2.7602  1.3308
  902MOL0     H19004  10.051  -0.749   4.446  0.4380  0.7514 -0.8193
  902MOL0     H19005  10.266  -0.722   4.309  1.3755 -0.0980 -1.3485
  902MOL0     H19006  10.185  -0.788   4.170  0.3386 -0.8242 -0.1857
  902MOL0     H19007  10.235  -0.939   4.440 -2.8514  2.2988  0.4693
  902MOL0     H19008  10.186  -1.005   4.283 -0.7670 -0.1007  1.9732
  902MOL0     H19009  10.446  -0.860   4.316  1.3523 -1.8666  0.5404
  902MOL0     H19010  10.375  -0.922   4.173  1.5013 -1.0407  0.5624
  902MOL0     H19011  10.526  -1.084   4.231 -1.7801 -2.5029 -1.7091
  902MOL0     H19012  10.382  -1.159   4.268 -0.8678  0.9091  0.7037
  902MOL0     H19013  10.498  -0.984   4.499  2.0072 -1.1238  2.5042
  902MOL0     H19014  10.417  -1.141   4.510 -0.5007  0.2574  1.2478
  902MOL0     H19015  10.650  -1.151   4.575  0.8093 -0.8445  0.0927
  902MOL0     H19016  10.711  -1.114   4.418  0.6885 -0.4647  2.1232
  902MOL0     H19017  10.625  -1.410   4.615  1.3256  1.7658 -0.3151
  902MOL0     H19018  10.719  -1.668   4.497  0.5947  0.1862  1.4748
  902MOL0     H19019  10.580  -1.719   4.393  1.9855  0.3129 -0.5597
  902MOL0     H19020  10.437  -1.612   4.579  0.3638  0.6972 -0.2306
  902MOL0     H19021  10.590  -1.638   4.675 -0.3515  0.3807  0.4380
  902MOL0     H19022  10.403  -1.834   4.541 -1.0508 -1.1564  0.1475
  902MOL0     H19023  10.564  -1.882   4.620 -1.1340 -1.9904 -0.8973
  902MOL0     H19024  10.336  -1.928   4.737 -0.4524  0.3097 -2.7821
  902MOL0     H19025  10.346  -1.757   4.777 -3.3460 -1.6041 -1.6590
  902MOL0     H19026  10.701  -1.869   5.000  3.7997 -4.9953 -1.5043
  902MOL0     H19027  10.705  -1.957   5.213  1.3506 -2.8950 -1.8321
  902MOL0     H19028  10.616  -2.330   5.401  0.1172  0.2814 -0.9095
  902MOL0     H19029  10.711  -2.491   5.562 -1.5275 -0.9663  1.3327
  902MOL0     H19030  10.662  -2.434   5.908 -1.1741 -0.8665  4.7661
  902MOL0     H19031  10.811  -2.362   5.976 -1.0194  1.4359 -1.1198
  902MOL0     H19032  10.792  -2.656   5.897 -2.3934 -2.8200  4.4638
  902MOL0     H19033  10.759  -2.601   6.054 -1.3295  1.6239  0.1690
  902MOL0     H19034  11.005  -2.534   6.076 -3.0383 -2.1499  1.4054
  902MOL0     H19035  11.010  -2.532   5.900 -2.8702  0.8148 -0.7443
  902MOL0     H19036  10.978  -2.753   6.101  0.0970  2.2185  0.8680
  902MOL0     H19037  10.969  -2.791   5.923 -0.3863 -0.5436  0.5653
  902MOL0     H19038  11.219  -2.701   6.058 -0.6955  0.8837 -1.0124
  902MOL0     H19039  11.186  -2.711   5.879 -2.7332 -4.2354 -3.1191
  902MOL0     H19040  11.142  -2.950   5.902  0.1484 -0.6493  0.8759
  902MOL0     H19041  11.161  -2.948   6.070  1.4229  0.4613 -0.0304
  902MOL0     H19042  11.384  -2.879   5.874 -2.5396 -2.5625 -1.6610
  902MOL0     H19043  11.391  -2.885   6.056 -4.3486  1.6179  2.3625
  902MOL0     H19044  11.396  -3.127   5.871 -0.4198 -2.4777  0.6576
  902MOL0     H19045  11.325  -3.141   6.032  2.1845 -1.5250  2.6900
  902MOL0     H19046  10.806  -2.161   5.822  0.7283 -0.8186 -0.1083
  902MOL0     H19047  10.716  -2.014   5.680  2.1601  0.1077  2.7490
  902MOL0     H19048  10.279  -2.065   5.178 -0.4214  2.1932  2.3008
  902MOL0     H19049  10.281  -1.959   4.948 -1.7932  0.0433  1.0702
  902MOL0     H19050  10.345  -0.354   4.415  2.0289  1.3107 -0.3685
  902MOL0     H19051  10.376  -0.138   4.329 -0.1285  0.3983  0.6905
  902MOL0     H19052   9.927   0.261   4.013 -0.0618 -1.4191  1.5522
  902MOL0     H19053   9.975   0.411   3.843 -0.4119 -3.9452 -0.0795
  902MOL0     H19054  10.130   0.646   3.900 -1.3739  0.2286 -1.5034
  902MOL0     H19055  10.085   0.620   3.725  1.8916 -4.1178 -0.8104
  902MOL0     H19056  10.304   0.710   3.653 -0.7766  0.4201 -2.3670
  902MOL0     H19057  10.212   0.838   3.736 -0.3393 -1.1492  3.2194
  902MOL0     H19058  10.427   0.683   3.867  3.3674  0.5639 -3.4173
  902MOL0     H19059  10.317   0.811   3.935 -4.3528  0.0284 -1.2326
  902MOL0     H19060  10.488   0.869   3.698 -1.0467  0.1817 -0.1784
  902MOL0     H19061  10.393   0.985   3.796 -1.0455  0.1312  3.7516
  902MOL0     H19062  10.737   0.984   4.023 -0.1237  2.2496  0.0255
  902MOL0     H19063  10.401   0.334   3.886 -0.4132 -0.3654 -2.5415
  902MOL0     H19064  10.349   0.163   4.045  0.2172 -1.7284 -0.8704
  903MOL0     O19065   1.005   0.500   2.440  0.1632 -0.1707  0.1761
  903MOL0     C19066   1.019   0.603   2.382  0.0925 -0.1021 -0.0222
  903MOL0     O19067   0.919   0.681   2.332 -0.1258 -1.1548  0.2412
  903MOL0     C19068   0.792   0.638   2.331  0.1238  0.2754 -0.7688
  903MOL0     C19069   0.763   0.535   2.249  0.4842  0.3262  1.3256
  903MOL0     C19070   0.624   0.507   2.232 -0.6717  0.5521  0.3400
  903MOL0     C19071   0.523   0.577   2.292 -0.1785 -0.8164  1.0649
  903MOL0     O19072   0.394   0.552   2.270 -1.1793 -0.3362  0.3008
  903MOL0     C19073   0.350   0.446   2.181  0.2960  0.5790  0.1588
  903MOL0     C19074   0.202   0.443   2.195  0.8304  0.4712  0.2808
  903MOL0     C19075   0.125   0.390   2.068 -0.9876 -0.1781  0.4731
  903MOL0     C19076  -0.027   0.364   2.097 -1.1998  0.2031  0.5934
  903MOL0     C19077  -0.101   0.482   2.167  1.4354 -0.1497 -0.1355
  903MOL0     C19078  -0.094   0.622   2.107  0.4162 -0.3372  0.4484
  903MOL0     C19079  -0.185   0.721   2.171  0.3989 -0.0204  1.1346
  903MOL0     C19080  -0.143   0.762   2.311  0.4763  0.3137  0.1486
  903MOL0     N19081   0.001   0.791   2.330  0.2106 -0.3777 -0.3446
  903MOL0     C19082   0.069   0.894   2.273 -0.1894  1.2769  0.1482
  903MOL0     C19083   0.189   0.892   2.335  0.8577 -0.7021 -0.0760
  903MOL0     C19084   0.313   0.979   2.308  0.5897 -0.2796  0.4527
  903MOL0     C19085   0.292   1.130   2.304  0.0534  0.2419  0.4486
  903MOL0     C19086   0.422   1.193   2.246 -0.5822  0.2234 -0.0385
  903MOL0     C19087   0.446   1.340   2.281 -0.0990 -0.1646 -0.0395
  903MOL0     O19088   0.578   1.399   2.253  0.1536 -0.0799 -0.0120
  903MOL0     C19089   0.643   1.380   2.136  0.7418  0.1933  0.8724
  903MOL0     C19090   0.581   1.377   2.005  1.0755  0.6176  0.3044
  903MOL0     C19091   0.661   1.376   1.891 -0.3564  0.2781  0.0266
  903MOL0     C19092   0.802   1.372   1.902  0.1497  0.0433  0.6789
  903MOL0     C19093   0.886   1.375   1.778 -0.6395  0.2175  0.1901
  903MOL0     O19094   0.822   1.353   1.661  0.0998  0.4895 -1.3693
  903MOL0     C19095   0.871   1.396   1.544  1.7981 -0.3770  0.4787
  903MOL0     C19096   0.836   1.315   1.439  0.2852  0.1944  0.6510
  903MOL0     C19097   0.864   1.350   1.306 -0.2292  0.4136 -0.7116
  903MOL0     C19098   0.947   1.463   1.280 -0.3564 -0.1701  0.4778
  903MOL0     O19099   0.973   1.490   1.146 -0.8296  0.0200  0.2338
  903MOL0     C19100   0.926   1.409   1.032 -0.0468 -0.5070 -0.7328
  903MOL0     C19101   0.953   1.488   0.900 -0.6520 -1.2880  0.5821
  903MOL0     C19102   0.840   1.591   0.895 -0.7412 -0.1241 -0.4758
  903MOL0     C19103   0.863   1.680   0.778 -0.1828 -0.4447  0.5619
  903MOL0     C19104   0.775   1.810   0.804  0.8345 -0.3880  0.4631
  903MOL0     C19105   0.753   1.893   0.678  0.0094 -0.3241  0.5808
  903MOL0     C19106   0.669   1.828   0.571 -0.1570  0.4990 -0.3217
  903MOL0     C19107   0.611   1.924   0.476 -0.2215 -0.5061 -0.0220
  903MOL0    Cl19108   0.743   2.027   0.411  0.2128  0.2585  0.2951
  903MOL0     C19109   1.003   1.530   1.388  0.0782 -0.1089 -1.0068
  903MOL0     C19110   0.960   1.506   1.519  1.1008 -0.3957  0.5217
  903MOL0     O19111   1.006   1.396   1.783  0.5181 -0.0466  0.2803
  903MOL0     C19112   0.861   1.363   2.034  0.2048 -0.2180  0.3719
  903MOL0     C19113   0.780   1.378   2.148  0.2613 -0.1716  0.6407
  903MOL0     N19114   0.186   0.788   2.433 -0.7453 -0.7078 -0.1056
  903MOL0     N19115   0.078   0.725   2.422 -0.0653  0.0853 -1.0972
  903MOL0     C19116   0.561   0.679   2.371 -0.4161  0.2526  0.4512
  903MOL0     C19117   0.692   0.709   2.397 -0.4895 -0.6759 -0.1175
  903MOL0     C19118   1.151   0.660   2.366 -0.1846  0.2328 -0.4691
  903MOL0     C19119   1.270   0.578   2.392  0.2420 -0.3271  0.8070
  903MOL0     C19120   1.397   0.644   2.405 -0.9854  0.5030 -0.1878
  903MOL0     C19121   1.419   0.771   2.363 -0.6093 -1.0853 -0.7283
  903MOL0     O19122   1.556   0.796   2.355 -0.0244 -0.0559 -0.7081
  903MOL0     C19123   1.591   0.919   2.289  0.1488  0.7527  0.5618
  903MOL0     C19124   1.734   0.915   2.243 -0.4541  0.2389 -0.9527
  903MOL0     C19125   1.752   0.964   2.092  0.2127  0.3511 -0.4130
  903MOL0     C19126   1.743   1.113   2.075  0.4134 -0.0296  1.2423
  903MOL0     C19127   1.830   1.189   2.160 -1.4304  0.1723 -0.3562
  903MOL0     C19128   1.905   1.250   2.242  0.1414 -0.3247  0.7075
  903MOL0     C19129   1.313   0.849   2.335 -0.1203  0.1286  0.4489
  903MOL0     C19130   1.177   0.796   2.327 -1.2597  0.4646  0.8321
  903MOL0     H19131   0.836   0.473   2.198  1.8414  0.9365  2.4447
  903MOL0     H19132   0.593   0.421   2.174  2.3328 -0.5568  0.1889
  903MOL0     H19133   0.387   0.347   2.209 -0.5869 -0.0436 -0.8164
  903MOL0     H19134   0.371   0.475   2.078 -3.5665 -0.8494 -1.2121
  903MOL0     H19135   0.157   0.540   2.218 -0.3517 -0.5095  2.5073
  903MOL0     H19136   0.169   0.379   2.278  1.5201 -0.7560 -0.3627
  903MOL0     H19137   0.167   0.290   2.048  3.6051  1.2711  1.5233
  903MOL0     H19138   0.140   0.457   1.983  1.4319  1.0629  1.7701
  903MOL0     H19139  -0.078   0.345   2.002 -0.6690  1.1018  0.1172
  903MOL0     H19140  -0.045   0.270   2.150  0.3530 -0.1225  0.5925
  903MOL0     H19141  -0.079   0.479   2.274  0.7688 -0.7088 -0.0036
  903MOL0     H19142  -0.202   0.439   2.170  1.2999  0.1294 -0.5666
  903MOL0     H19143  -0.125   0.602   2.004 -2.4263 -1.1363  1.3654
  903MOL0     H19144   0.009   0.658   2.116  1.1306 -2.2581  0.5334
  903MOL0     H19145  -0.189   0.807   2.104 -1.1446 -0.9727 -0.0516
  903MOL0     H19146  -0.286   0.679   2.174  1.8086 -3.7448  1.9502
  903MOL0     H19147  -0.169   0.681   2.381  2.4797  1.0303  1.8228
  903MOL0     H19148  -0.200   0.845   2.353  0.8489 -0.1130  1.5404
  903MOL0     H19149   0.035   0.981   2.218 -1.6965  0.2076 -0.7035
  903MOL0     H19150   0.349   0.947   2.209  2.5129  0.8312  0.7402
  903MOL0     H19151   0.397   0.956   2.375  2.1390 -2.5150 -2.0071
  903MOL0     H19152   0.276   1.158   2.409  2.2385 -3.1407  1.8420
  903MOL0     H19153   0.218   1.166   2.232  1.6196  2.9800  0.0755
  903MOL0     H19154   0.507   1.133   2.282  0.3212  2.1474  1.2118
  903MOL0     H19155   0.435   1.181   2.138 -1.1937  1.8908 -0.3244
  903MOL0     H19156   0.430   1.350   2.389  3.6917  1.2319  0.5466
  903MOL0     H19157   0.379   1.409   2.230  0.9158  0.0334 -1.1463
  903MOL0     H19158   0.474   1.372   1.995  1.1322  3.0605 -3.3805
  903MOL0     H19159   0.612   1.378   1.794 -0.6407  2.9223  0.1506
  903MOL0     H19160   0.765   1.235   1.454 -0.5537  0.1071 -2.8619
  903MOL0     H19161   0.829   1.276   1.235  0.3456 -1.9884  1.3746
  903MOL0     H19162   0.822   1.388   1.057  0.5060  1.0424  3.6366
  903MOL0     H19163   0.984   1.316   1.032  0.0492 -0.4515 -0.2405
  903MOL0     H19164   0.954   1.422   0.812 -1.9698 -0.9550  0.2975
  903MOL0     H19165   1.053   1.532   0.900 -0.7634 -0.9304 -1.5248
  903MOL0     H19166   0.843   1.648   0.988  1.6951 -0.0812 -0.5206
  903MOL0     H19167   0.747   1.537   0.874 -1.5159 -0.3305  2.9743
  903MOL0     H19168   0.965   1.719   0.776 -1.1964  2.4377 -0.7248
  903MOL0     H19169   0.844   1.636   0.680 -0.3362 -0.5917  0.6578
  903MOL0     H19170   0.817   1.879   0.878 -0.9409  0.3706  0.8126
  903MOL0     H19171   0.680   1.775   0.845  0.8720  0.4469  1.2835
  903MOL0     H19172   0.838   1.939   0.627 -0.5321  2.2041  1.7984
  903MOL0     H19173   0.702   1.984   0.710  1.6447  1.1206 -0.7516
  903MOL0     H19174   0.719   1.743   0.524 -1.6751 -0.3471 -0.4810
  903MOL0     H19175   0.583   1.778   0.617  2.0516 -1.3417  2.1037
  903MOL0     H19176   0.534   1.980   0.530  1.7966 -0.8388  3.4853
  903MOL0     H19177   0.556   1.866   0.401 -2.0283  1.0351  0.0372
  903MOL0     H19178   1.077   1.609   1.381  1.0458 -0.4623  2.8718
  903MOL0     H19179   1.010   1.556   1.602  2.7710 -3.6667  1.6650
  903MOL0     H19180   0.968   1.342   2.043  0.2612 -0.2696 -0.3277
  903MOL0     H19181   0.822   1.382   2.248  0.9220 -2.8908  0.5628
  903MOL0     H19182   0.478   0.737   2.409 -0.9504  0.7890 -1.4237
  903MOL0     H19183   0.705   0.802   2.451 -2.6110  1.3228 -2.7585
  903MOL0     H19184   1.267   0.472   2.416  3.1893 -0.6788  0.0153
  903MOL0     H19185   1.482   0.579   2.421 -0.7697  0.2947 -1.9989
  903MOL0     H19186   1.573   0.994   2.367 -4.2090 -0.0456  0.6017
  903MOL0     H19187   1.522   0.937   2.206 -2.5799  0.1697  2.5534
  903MOL0     H19188   1.789   0.970   2.320 -4.5429  1.2306  1.5424
  903MOL0     H19189   1.767   0.811   2.250  2.9162  1.2971  1.1215
  903MOL0     H19190   1.674   0.917   2.032 -1.5051  4.3791 -1.6991
  903MOL0     H19191   1.853   0.933   2.064  0.1753 -0.3194  0.1608
  903MOL0     H19192   1.773   1.139   1.973 -0.5474  0.9081  1.1834
  903MOL0     H19193   1.639   1.144   2.091  1.1114  1.8940  2.2775
  903MOL0     H19194   1.970   1.306   2.307  0.3415 -2.9560  2.9829
  903MOL0     H19195   1.331   0.956   2.326  1.6692 -0.0632  1.4353
  903MOL0     H19196   1.093   0.849   2.284 -1.6395 -2.8455 -3.2057
  904MOL0     O19197   9.901   2.169   0.389 -0.0443 -1.0559 -0.8397
  904MOL0     C19198   9.963   2.270   0.340 -0.2866 -0.7421 -0.3818
  904MOL0     O19199  10.066   2.344   0.396  0.1893 -0.1456  0.3832
  904MOL0     C19200  10.117   2.313   0.522 -0.2610  0.1792  0.2682
  904MOL0     C19201  10.250   2.336   0.538 -0.3261 -0.2867  1.1397
  904MOL0     C19202  10.307   2.293   0.663  0.0242 -0.7652  0.3820
  904MOL0     C19203  10.224   2.247   0.766 -0.8335  0.6920 -0.1963
  904MOL0     O19204  10.257   2.228   0.896 -0.2293 -0.2146 -0.2392
  904MOL0     C19205  10.357   2.132   0.933 -0.5431  0.3369 -0.2584
  904MOL0     C19206  10.471   2.180   1.024  0.9269  1.1398  0.2526
  904MOL0     C19207  10.546   2.285   0.950  0.1097  1.2623  0.7367
  904MOL0     C19208  10.650   2.352   1.050 -0.1324 -0.3590 -0.6059
  904MOL0     C19209  10.785   2.392   0.986  0.3730 -0.4678  0.8383
  904MOL0     C19210  10.773   2.509   0.876  0.2059 -0.0875  1.1511
  904MOL0     C19211  10.704   2.471   0.744 -0.0781  0.5250  0.4664
  904MOL0     C19212  10.750   2.552   0.621  0.1497 -0.0784 -0.5493
  904MOL0     N19213  10.667   2.531   0.504 -0.0295 -0.3865 -0.1111
  904MOL0     C19214  10.620   2.635   0.428 -0.3814  0.4035  0.1556
  904MOL0     C19215  10.534   2.573   0.335 -0.5272 -0.2547 -0.6897
  904MOL0     C19216  10.476   2.638   0.213  1.2241  0.0577  0.7300
  904MOL0     C19217  10.321   2.646   0.217 -0.2108  0.0516 -0.3261
  904MOL0     C19218  10.264   2.758   0.129 -0.7594  0.3074 -0.2632
  904MOL0     C19219  10.297   2.717  -0.015  0.1309 -0.7565  0.1645
  904MOL0     O19220  10.202   2.795  -0.093  0.1883  0.1804  0.6116
  904MOL0     C19221  10.204   2.771  -0.232  0.5577  0.4304  0.1701
  904MOL0     C19222  10.276   2.683  -0.308  0.2728  0.6443 -0.9660
  904MOL0     C19223  10.267   2.664  -0.452  0.4643 -0.0803  1.1031
  904MOL0     C19224  10.161   2.736  -0.514  0.4474 -0.3564 -0.0755
  904MOL0     C19225  10.136   2.729  -0.654 -0.2158  0.0547 -0.6230
  904MOL0     O19226  10.192   2.607  -0.713 -0.0121 -0.0197  0.0397
  904MOL0     C19227  10.171   2.561  -0.836 -0.1207  0.4148  0.3419
  904MOL0     C19228  10.183   2.644  -0.947  0.0735  0.3105 -0.2149
  904MOL0     C19229  10.180   2.584  -1.073 -0.4513  0.6258  0.3333
  904MOL0     C19230  10.164   2.446  -1.098  0.2151  0.3233  0.5340
  904MOL0     O19231  10.127   2.395  -1.225  0.2991  0.5422 -0.0986
  904MOL0     C19232   9.991   2.415  -1.239  0.6302  0.2593  0.4418
  904MOL0     C19233   9.961   2.483  -1.369  0.1872 -0.9498  0.1007
  904MOL0     C19234   9.820   2.469  -1.411 -0.2338  0.2449 -1.0687
  904MOL0     C19235   9.825   2.513  -1.560 -0.0241 -0.3831 -0.7871
  904MOL0     C19236   9.686   2.557  -1.618  0.0951  0.4691 -1.0991
  904MOL0     C19237   9.685   2.648  -1.732 -0.3986 -0.4188 -0.2868
  904MOL0     C19238   9.547   2.671  -1.798 -0.3372  0.6210 -0.4272
  904MOL0     C19239   9.558   2.771  -1.910  1.3287 -0.9359  0.2554
  904MOL0    Cl19240   9.576   2.937  -1.844  0.3724  0.2958  0.2111
  904MOL0     C19241  10.134   2.365  -0.980 -0.0228  0.5108 -0.4114
  904MOL0     C19242  10.153   2.419  -0.856  0.4281  0.0359  0.1807
  904MOL0     O19243  10.057   2.806  -0.710 -0.7066 -0.1008  0.2174
  904MOL0     C19244  10.091   2.828  -0.442 -0.6179 -0.0077 -0.4769
  904MOL0     C19245  10.113   2.852  -0.310 -0.0286  0.7926 -0.3611
  904MOL0     N19246  10.543   2.436   0.352  0.4121 -0.1058 -0.2626
  904MOL0     N19247  10.611   2.420   0.459  0.7079 -0.1746  0.1522
  904MOL0     C19248  10.092   2.228   0.746  0.4925 -1.7328  0.4806
  904MOL0     C19249  10.040   2.256   0.620  0.1744 -1.1821 -0.4734
  904MOL0     C19250   9.915   2.315   0.210 -0.6340  0.7793 -0.3756
  904MOL0     C19251   9.939   2.445   0.166 -0.0245  0.2914  0.2188
  904MOL0     C19252   9.895   2.479   0.036 -0.4317 -0.2476 -0.7384
  904MOL0     C19253   9.816   2.392  -0.032  0.4768  0.1125 -0.9071
  904MOL0     O19254   9.773   2.403  -0.169 -0.0648 -0.2017 -0.4216
  904MOL0     C19255   9.792   2.532  -0.222  0.5733 -0.0214 -0.4019
  904MOL0     C19256   9.743   2.525  -0.363 -1.0268 -0.1591  0.5727
  904MOL0     C19257   9.783   2.658  -0.428 -0.1243  0.5896 -0.8373
  904MOL0     C19258   9.746   2.674  -0.578  0.2420 -0.6528  0.2660
  904MOL0     C19259   9.803   2.575  -0.664 -0.3478  0.0918  0.5795
  904MOL0     C19260   9.860   2.502  -0.742  0.5805  0.0741  0.1151
  904MOL0     C19261   9.775   2.272   0.026 -0.1922 -0.3196 -0.4276
  904MOL0     C19262   9.828   2.232   0.146 -0.5701  0.5608  0.6882
  904MOL0     H19263  10.304   2.390   0.460 -2.4330 -0.2175 -0.3658
  904MOL0     H19264  10.414   2.302   0.674  0.1684 -1.0657 -0.6046
  904MOL0     H19265  10.415   2.098   0.847  0.7145 -2.2365  1.4848
  904MOL0     H19266  10.312   2.039   0.969  1.8131 -0.5919  0.4402
  904MOL0     H19267  10.539   2.095   1.041 -0.4300 -0.7998 -3.0282
  904MOL0     H19268  10.440   2.223   1.119  2.9952  0.8147  1.1380
  904MOL0     H19269  10.475   2.361   0.915 -0.9449  0.7129  1.5994
  904MOL0     H19270  10.597   2.245   0.862 -0.1218  2.6609 -0.0599
  904MOL0     H19271  10.598   2.434   1.098  0.4281 -1.8523  2.8619
  904MOL0     H19272  10.677   2.290   1.136  1.0783 -2.0807 -2.1529
  904MOL0     H19273  10.834   2.308   0.936 -0.2239 -2.0270  2.7602
  904MOL0     H19274  10.856   2.414   1.066  2.6020  4.0127 -1.9169
  904MOL0     H19275  10.875   2.533   0.843  1.3614 -3.4292  1.8767
  904MOL0     H19276  10.716   2.600   0.898 -2.4475 -1.1577 -0.7968
  904MOL0     H19277  10.715   2.365   0.724  1.2248  0.9454 -1.1875
  904MOL0     H19278  10.600   2.499   0.763  0.0699  1.2927  0.2044
  904MOL0     H19279  10.854   2.524   0.599  0.2348 -1.6258  1.4964
  904MOL0     H19280  10.760   2.657   0.648  2.1179 -0.1135 -0.9953
  904MOL0     H19281  10.637   2.741   0.444  3.1795  0.0356 -0.3804
  904MOL0     H19282  10.514   2.579   0.129  0.0343 -1.6054  1.2994
  904MOL0     H19283  10.516   2.739   0.203  1.9245 -0.1944  0.9629
  904MOL0     H19284  10.283   2.648   0.319 -0.0641 -1.4371 -0.2193
  904MOL0     H19285  10.285   2.548   0.184 -1.1942 -0.1187  1.1770
  904MOL0     H19286  10.157   2.772   0.148 -1.7739 -4.1124 -1.5194
  904MOL0     H19287  10.315   2.849   0.161  1.1803  0.2207 -2.8071
  904MOL0     H19288  10.283   2.609  -0.027  1.6733 -0.7212 -2.9607
  904MOL0     H19289  10.399   2.744  -0.042  0.7137 -0.4421  2.4728
  904MOL0     H19290  10.351   2.621  -0.259 -0.4200 -0.1247 -0.8597
  904MOL0     H19291  10.338   2.598  -0.500  2.0728  1.7664  0.8146
  904MOL0     H19292  10.190   2.751  -0.936  2.7058  0.1619 -0.0170
  904MOL0     H19293  10.186   2.640  -1.166 -0.1469  0.7947  0.4540
  904MOL0     H19294   9.958   2.497  -1.174 -1.9407  2.8447 -3.6750
  904MOL0     H19295   9.945   2.318  -1.223  3.4668 -1.4508 -1.0584
  904MOL0     H19296  10.032   2.433  -1.435  0.1720  0.6321 -1.1745
  904MOL0     H19297   9.977   2.591  -1.376 -1.5973 -0.3812  3.0237
  904MOL0     H19298   9.761   2.530  -1.343  2.3189  1.9721 -0.2840
  904MOL0     H19299   9.792   2.365  -1.390  1.5132  0.2505  1.7771
  904MOL0     H19300   9.896   2.592  -1.585 -1.2009  0.6018 -1.1494
  904MOL0     H19301   9.871   2.436  -1.622  1.5114 -1.7071  1.8696
  904MOL0     H19302   9.644   2.602  -1.527  1.5491 -3.2695  1.6479
  904MOL0     H19303   9.622   2.471  -1.642 -0.8234  1.3212 -1.8327
  904MOL0     H19304   9.749   2.620  -1.817  0.0052 -0.7581  0.1243
  904MOL0     H19305   9.719   2.743  -1.690 -0.7443 -0.6513  0.5248
  904MOL0     H19306   9.525   2.572  -1.839 -0.5745  0.3507  0.3167
  904MOL0     H19307   9.467   2.705  -1.730 -0.2481  1.8417 -0.9138
  904MOL0     H19308   9.461   2.765  -1.961  1.3525  0.0707  0.0722
  904MOL0     H19309   9.649   2.752  -1.967  0.9053 -1.0990 -0.3735
  904MOL0     H19310  10.110   2.260  -0.997 -2.0310  0.9686 -0.6671
  904MOL0     H19311  10.143   2.352  -0.771 -0.8962  2.1733  1.7817
  904MOL0     H19312  10.012   2.890  -0.481 -0.5774  0.0952 -0.3937
  904MOL0     H19313  10.062   2.928  -0.252 -0.3000 -1.1285  2.0928
  904MOL0     H19314  10.037   2.191   0.832  2.5636 -1.3642  2.0366
  904MOL0     H19315   9.937   2.238   0.594  0.2033  0.4949 -1.9218
  904MOL0     H19316   9.998   2.518   0.220  0.3710 -0.8199  1.3339
  904MOL0     H19317   9.929   2.570  -0.013  3.2087 -1.2757 -0.3788
  904MOL0     H19318   9.899   2.555  -0.226  0.4791  0.3138 -1.4602
  904MOL0     H19319   9.734   2.609  -0.170 -0.2236 -1.2048  0.5072
  904MOL0     H19320   9.797   2.444  -0.413 -1.0878  1.9959 -3.3663
  904MOL0     H19321   9.636   2.501  -0.366 -0.7567 -2.8693  4.5152
  904MOL0     H19322   9.891   2.673  -0.420 -0.5235  3.7315 -0.0895
  904MOL0     H19323   9.742   2.740  -0.369  2.0208  1.0271  0.1394
  904MOL0     H19324   9.637   2.670  -0.590  0.3859 -0.4669 -1.2793
  904MOL0     H19325   9.784   2.772  -0.606  2.0034 -1.3339  0.1383
  904MOL0     H19326   9.889   2.430  -0.816 -2.9767 -2.1229  0.5932
  904MOL0     H19327   9.716   2.201  -0.032 -0.3490  0.4631 -1.2559
  904MOL0     H19328   9.806   2.131   0.179 -3.0423  0.7634 -0.1560
  905MOL0     O19329   1.489  10.556   3.193 -0.0231 -0.3273  0.9236
  905MOL0     C19330   1.381  10.524   3.239  0.1450  0.5488 -0.1436
  905MOL0     O19331   1.303  10.595   3.324 -0.3236  0.0444 -0.4935
  905MOL0     C19332   1.301  10.732   3.312  0.2023 -0.4086  0.8504
  905MOL0     C19333   1.246  10.811   3.418  0.5850  0.6151  0.3360
  905MOL0     C19334   1.260  10.951   3.415 -0.6543  0.8702 -0.1792
  905MOL0     C19335   1.321  11.021   3.313 -0.4438  0.1038 -0.0708
  905MOL0     O19336   1.326  11.153   3.317 -0.3107 -0.7453 -0.0905
  905MOL0     C19337   1.208  11.206   3.262 -0.2507 -0.4295 -0.2963
  905MOL0     C19338   1.186  11.355   3.311  0.9910 -0.9381 -0.1616
  905MOL0     C19339   1.059  11.421   3.250 -0.4330 -0.5409  0.4794
  905MOL0     C19340   0.932  11.373   3.312 -0.5463  0.2768  0.4150
  905MOL0     C19341   0.813  11.433   3.235 -1.0839 -0.1102  0.2839
  905MOL0     C19342   0.777  11.575   3.286  0.7751  0.5958  0.4986
  905MOL0     C19343   0.720  11.581   3.424  0.4199  0.1420 -0.8383
  905MOL0     C19344   0.595  11.496   3.460 -0.3587  0.2317  0.4098
  905MOL0     N19345   0.580  11.510   3.607 -0.5453  0.1801  0.6030
  905MOL0     C19346   0.562  11.632   3.666  0.2789 -1.3375  0.0434
  905MOL0     C19347   0.577  11.598   3.800 -0.0648 -0.7707 -0.2236
  905MOL0     C19348   0.553  11.695   3.911 -0.4274 -0.6842 -0.0647
  905MOL0     C19349   0.677  11.771   3.946 -0.0601  0.9621 -0.1805
  905MOL0     C19350   0.768  11.691   4.035 -0.3918  0.2215 -0.5621
  905MOL0     C19351   0.692  11.644   4.161 -0.1022 -0.4799  0.3558
  905MOL0     O19352   0.768  11.690   4.278 -0.4807  0.1466  0.2307
  905MOL0     C19353   0.720  11.668   4.405  0.6260  0.7853  0.4346
  905MOL0     C19354   0.779  11.733   4.504 -0.1121  0.9405  0.4580
  905MOL0     C19355   0.738  11.727   4.638 -0.1849  0.5800 -0.9793
  905MOL0     C19356   0.614  11.676   4.668 -0.1402  0.6136 -0.2157
  905MOL0     C19357   0.555  11.687   4.801  0.1805  0.1278 -0.0137
  905MOL0     O19358   0.612  11.764   4.892 -0.6530 -0.6588 -0.0499
  905MOL0     C19359   0.569  11.793   5.022  1.1972  0.8302 -0.2291
  905MOL0     C19360   0.673  11.838   5.104  0.0830 -0.0409 -1.0612
  905MOL0     C19361   0.635  11.865   5.235 -0.3503 -0.2401  0.4130
  905MOL0     C19362   0.509  11.844   5.288  0.3135 -0.0035 -0.6291
  905MOL0     O19363   0.486  11.855   5.421 -0.6858  0.3163  0.5166
  905MOL0     C19364   0.439  11.987   5.464 -0.8019  0.0544 -0.2968
  905MOL0     C19365   0.305  11.973   5.530 -0.4585  0.0294  0.0625
  905MOL0     C19366   0.249  12.100   5.582  0.3386 -0.7646 -0.3513
  905MOL0     C19367   0.110  12.101   5.647 -0.4374  0.6177  0.5376
  905MOL0     C19368   0.048  12.242   5.680  0.4245 -0.2796  0.3429
  905MOL0     C19369   0.083  12.299   5.826  0.2244 -0.5452 -0.3512
  905MOL0     C19370   0.030  12.435   5.857 -0.1550  0.5784 -1.3045
  905MOL0     C19371  -0.020  12.441   6.002  0.0555  1.5028 -0.9302
  905MOL0    Cl19372   0.117  12.445   6.113 -0.2784  0.3110  0.5407
  905MOL0     C19373   0.414  11.796   5.206  0.7152 -0.2120  0.0511
  905MOL0     C19374   0.445  11.775   5.074  0.6153 -0.4177  0.6502
  905MOL0     O19375   0.458  11.615   4.824 -0.4475  0.3618  0.0945
  905MOL0     C19376   0.548  11.611   4.560  1.1300 -0.3109 -0.0152
  905MOL0     C19377   0.597  11.602   4.432 -0.2701 -1.3064 -0.3336
  905MOL0     N19378   0.637  11.479   3.813  1.2032  0.2002 -0.3911
  905MOL0     N19379   0.629  11.422   3.695  1.5068  0.6199  0.3646
  905MOL0     C19380   1.356  10.951   3.199 -0.1188  0.6024  0.3298
  905MOL0     C19381   1.348  10.807   3.200 -0.1974 -0.1174  0.4162
  905MOL0     C19382   1.348  10.380   3.222  0.7018  0.0519 -0.0400
  905MOL0     C19383   1.417  10.299   3.128  0.2311  0.1377 -0.1998
  905MOL0     C19384   1.385  10.158   3.112 -0.2423 -0.3304 -0.0996
  905MOL0     C19385   1.280  10.108   3.178  0.0062 -0.5903  0.8308
  905MOL0     O19386   1.258   9.974   3.152  0.2001 -0.3987  0.0771
  905MOL0     C19387   1.135   9.911   3.199  0.1587  0.7369  0.8464
  905MOL0     C19388   1.106   9.769   3.142  0.3969 -1.3895 -0.3166
  905MOL0     C19389   1.225   9.683   3.171 -0.5344 -0.2054  0.2990
  905MOL0     C19390   1.211   9.538   3.123  0.7014  0.8636  0.1708
  905MOL0     C19391   1.196   9.536   2.974 -1.0163  0.0804 -0.0273
  905MOL0     C19392   1.172   9.524   2.854  0.2718 -0.7322  0.1330
  905MOL0     C19393   1.225  10.192   3.279 -0.7530  1.0068  1.2492
  905MOL0     C19394   1.259  10.322   3.302  0.4339 -0.4604  0.4538
  905MOL0     H19395   1.190  10.768   3.500 -2.4370  0.7800 -1.4828
  905MOL0     H19396   1.215  11.011   3.494  1.8346  1.7631  0.6461
  905MOL0     H19397   1.119  11.149   3.290 -0.1198 -0.9895 -1.0106
  905MOL0     H19398   1.220  11.199   3.153 -0.6788 -1.4868 -0.2878
  905MOL0     H19399   1.268  11.419   3.278 -2.0738  2.1786 -2.4276
  905MOL0     H19400   1.181  11.368   3.420  0.3719 -0.5850 -0.2283
  905MOL0     H19401   1.056  11.415   3.141  0.6614 -1.0213  0.4645
  905MOL0     H19402   1.059  11.529   3.269  1.8786 -0.6844  1.6550
  905MOL0     H19403   0.924  11.264   3.307  0.0853  0.2460 -0.0216
  905MOL0     H19404   0.924  11.399   3.418 -0.8779 -2.1544  1.0354
  905MOL0     H19405   0.721  11.378   3.260 -2.2214  0.7264 -1.8318
  905MOL0     H19406   0.823  11.428   3.127  0.8957  1.9952  0.2968
  905MOL0     H19407   0.692  11.607   3.224  1.3872 -1.0442 -1.2669
  905MOL0     H19408   0.860  11.643   3.265  0.3671  0.5783 -1.2608
  905MOL0     H19409   0.803  11.551   3.489  0.5654 -0.9542 -1.4937
  905MOL0     H19410   0.679  11.681   3.440 -2.8876 -0.7864 -2.6288
  905MOL0     H19411   0.620  11.392   3.440 -0.6054 -0.3061  2.5935
  905MOL0     H19412   0.502  11.530   3.414 -0.9034 -3.0589 -1.1220
  905MOL0     H19413   0.530  11.724   3.618 -1.0970 -1.5641  0.4518
  905MOL0     H19414   0.521  11.632   3.994  4.3905 -3.2845  0.1784
  905MOL0     H19415   0.473  11.756   3.868  0.7578  1.3100  0.4054
  905MOL0     H19416   0.654  11.852   4.016  3.3519  1.4519  0.5580
  905MOL0     H19417   0.725  11.809   3.856  0.8376 -0.8802 -0.5289
  905MOL0     H19418   0.810  11.602   3.989  0.4792 -0.4617  1.4252
  905MOL0     H19419   0.852  11.752   4.071 -1.7460  1.0095  1.4560
  905MOL0     H19420   0.685  11.534   4.162  0.7147 -0.5628  2.4508
  905MOL0     H19421   0.591  11.685   4.157  0.2032  0.2508 -0.1275
  905MOL0     H19422   0.875  11.782   4.487 -0.5976  2.6260  2.2312
  905MOL0     H19423   0.788  11.769   4.724 -1.0596 -0.9989  0.3480
  905MOL0     H19424   0.777  11.850   5.074  1.2485  0.2386  2.6068
  905MOL0     H19425   0.712  11.909   5.298 -0.4812  0.6972 -0.0621
  905MOL0     H19426   0.420  12.045   5.373 -1.6969 -1.5071 -1.1594
  905MOL0     H19427   0.509  12.038   5.530 -0.6858  3.6284 -2.8642
  905MOL0     H19428   0.310  11.895   5.606  0.7060 -0.3378 -0.3753
  905MOL0     H19429   0.236  11.934   5.455  0.6232 -3.4230  0.6961
  905MOL0     H19430   0.251  12.175   5.502  2.2011  0.5572  0.8481
  905MOL0     H19431   0.318  12.141   5.656 -0.9964 -0.6539  0.8660
  905MOL0     H19432   0.039  12.042   5.589 -0.2384 -0.2198  1.1261
  905MOL0     H19433   0.131  12.036   5.733  1.5149 -0.5309 -0.7108
  905MOL0     H19434  -0.059  12.235   5.661  0.7209  1.7972 -2.7994
  905MOL0     H19435   0.086  12.299   5.594  1.7412  0.2826  1.2666
  905MOL0     H19436   0.191  12.305   5.839  0.0815  3.2687  0.0991
  905MOL0     H19437   0.031  12.229   5.892 -1.7267  2.0754  1.0821
  905MOL0     H19438   0.119  12.497   5.842 -0.3587  1.2695  0.0905
  905MOL0     H19439  -0.053  12.453   5.789 -2.5396 -0.4839  1.1319
  905MOL0     H19440  -0.091  12.363   6.031 -1.5514  3.4612  0.6737
  905MOL0     H19441  -0.068  12.537   6.021 -0.1556  0.9330  1.8144
  905MOL0     H19442   0.317  11.770   5.247  1.7517 -1.9498  1.5621
  905MOL0     H19443   0.358  11.749   5.015  0.4956  2.8966 -0.8178
  905MOL0     H19444   0.448  11.570   4.569  1.4830 -1.1971 -0.0680
  905MOL0     H19445   0.534  11.560   4.354 -0.1413 -0.2032 -1.0434
  905MOL0     H19446   1.394  11.009   3.116 -3.0040  1.6414 -0.3775
  905MOL0     H19447   1.388  10.750   3.117  0.1179  0.4299  0.1908
  905MOL0     H19448   1.498  10.342   3.070  0.9395 -0.1069  0.5955
  905MOL0     H19449   1.434  10.102   3.033 -1.6058 -3.5961  1.2138
  905MOL0     H19450   1.049   9.975   3.175  0.0179 -0.1371 -1.1691
  905MOL0     H19451   1.133   9.904   3.309  2.2600 -0.7957  0.8364
  905MOL0     H19452   1.030   9.727   3.209  0.8750 -0.4287  0.8672
  905MOL0     H19453   1.073   9.777   3.038  1.9431  2.1547 -0.6870
  905MOL0     H19454   1.250   9.693   3.277 -1.8882  1.3591  0.5102
  905MOL0     H19455   1.304   9.723   3.108  1.3882 -1.9531  1.4638
  905MOL0     H19456   1.309   9.501   3.155  1.9615  0.9008 -3.1733
  905MOL0     H19457   1.133   9.479   3.172  1.4388 -1.1909 -1.0034
  905MOL0     H19458   1.148   9.527   2.750 -2.5329 -3.0334  0.5966
  905MOL0     H19459   1.140  10.148   3.330 -0.7483  1.6827  1.8536
  905MOL0     H19460   1.201  10.377   3.376  1.4893  0.7596  0.4308
  906MOL0     O19461   8.877   4.510   9.666 -0.5979 -0.1664  0.0509
  906MOL0     C19462   8.813   4.405   9.671 -0.1179 -0.6555 -0.0338
  906MOL0     O19463   8.717   4.367   9.580  0.0012 -0.0662 -0.5660
  906MOL0     C19464   8.697   4.438   9.462  0.5205 -0.5832 -0.2171
  906MOL0     C19465   8.764   4.553   9.402 -0.0998 -0.5608 -0.0499
  906MOL0     C19466   8.726   4.597   9.277 -0.2783  0.4332  0.1893
  906MOL0     C19467   8.628   4.541   9.196  0.1257 -0.2270 -0.3996
  906MOL0     O19468   8.582   4.588   9.075 -0.9227  0.0713 -0.4415
  906MOL0     C19469   8.613   4.724   9.035 -0.2498  0.0840  0.6210
  906MOL0     C19470   8.569   4.735   8.895  0.5039  0.3272 -0.0132
  906MOL0     C19471   8.622   4.865   8.828 -0.3782  0.3802 -0.1796
  906MOL0     C19472   8.565   4.870   8.689 -1.1527  0.8520 -0.5354
  906MOL0     C19473   8.636   4.968   8.592  0.3181  0.7030 -0.3284
  906MOL0     C19474   8.644   5.112   8.639 -0.5374 -0.1382 -0.5495
  906MOL0     C19475   8.722   5.210   8.546  1.2943 -0.4672  0.2741
  906MOL0     C19476   8.864   5.167   8.512 -0.4775 -0.1711 -0.6221
  906MOL0     N19477   8.937   5.115   8.630 -0.8125  1.0657  0.0719
  906MOL0     C19478   9.038   5.022   8.616  0.0466  0.2256 -0.7477
  906MOL0     C19479   9.093   5.008   8.737 -0.7388  0.0729 -0.2030
  906MOL0     C19480   9.203   4.915   8.776 -0.6611  0.7764 -0.2909
  906MOL0     C19481   9.339   4.966   8.725 -0.2005 -0.0406  0.7843
  906MOL0     C19482   9.405   5.044   8.835  0.1050 -0.6725  0.0326
  906MOL0     C19483   9.504   5.142   8.775  0.6397 -0.3626  0.3529
  906MOL0     O19484   9.455   5.253   8.699  0.9310  0.0267 -0.1018
  906MOL0     C19485   9.389   5.356   8.764  0.2501 -0.7609 -0.3263
  906MOL0     C19486   9.350   5.368   8.903  0.2599 -0.5367  0.3011
  906MOL0     C19487   9.297   5.490   8.957  0.4731  0.4823 -0.6575
  906MOL0     C19488   9.277   5.604   8.881 -0.4351 -0.3221 -0.1344
  906MOL0     C19489   9.238   5.728   8.940  0.3683  0.3834  0.1664
  906MOL0     O19490   9.277   5.835   8.862  0.0837 -0.5639  0.0562
  906MOL0     C19491   9.242   5.966   8.895  0.4202 -0.8180  0.5168
  906MOL0     C19492   9.178   6.054   8.802  0.6758 -0.1209  0.5158
  906MOL0     C19493   9.149   6.185   8.836 -0.4691 -0.1786  0.1633
  906MOL0     C19494   9.165   6.236   8.961 -0.0390 -0.3658  0.0680
  906MOL0     O19495   9.136   6.369   8.982  0.6089  0.6969  0.3073
  906MOL0     C19496   9.069   6.408   9.103  0.7350 -0.1192 -0.4075
  906MOL0     C19497   8.941   6.321   9.121 -0.9381 -1.0984  0.2124
  906MOL0     C19498   8.871   6.391   9.231  0.6037 -0.0780  0.1818
  906MOL0     C19499   8.745   6.298   9.237 -0.2776 -0.1202 -1.1509
  906MOL0     C19500   8.631   6.359   9.322 -0.8532 -0.3448  0.0646
  906MOL0     C19501   8.690   6.362   9.471  0.6112  0.3804  1.0200
  906MOL0     C19502   8.578   6.357   9.569  0.6550  0.4414  0.4955
  906MOL0     C19503   8.606   6.353   9.719  0.1725  0.0771 -0.1676
  906MOL0    Cl19504   8.479   6.286   9.817  0.3377 -0.7578 -0.5034
  906MOL0     C19505   9.216   6.147   9.057  0.5807 -0.4675 -0.4820
  906MOL0     C19506   9.256   6.019   9.030  0.0075 -0.1243 -0.4076
  906MOL0     O19507   9.183   5.732   9.050  1.1196  0.0767  0.3093
  906MOL0     C19508   9.318   5.593   8.744  0.1910  0.5020  0.0321
  906MOL0     C19509   9.363   5.470   8.688 -0.4220 -0.1640  0.8987
  906MOL0     N19510   9.031   5.095   8.825 -0.0026 -0.1397  0.5108
  906MOL0     N19511   8.939   5.162   8.755 -0.3966 -0.0042  0.2813
  906MOL0     C19512   8.559   4.430   9.252 -0.0114  0.2361  0.6550
  906MOL0     C19513   8.586   4.392   9.384 -0.3411  0.7155  0.4169
  906MOL0     C19514   8.829   4.312   9.789  0.3597  0.0877 -0.5532
  906MOL0     C19515   8.918   4.354   9.893  0.5577  0.4773  1.1382
  906MOL0     C19516   8.952   4.269   9.999 -1.0210  0.3653  1.4045
  906MOL0     C19517   8.881   4.138  10.005  0.4689  0.0107 -0.8241
  906MOL0     O19518   8.893   4.041  10.106  0.5513 -0.0080 -0.2202
  906MOL0     C19519   8.999   4.063  10.201  0.3953  0.1623  1.0470
  906MOL0     C19520   9.005   3.948  10.296 -0.2101 -0.3918 -0.4131
  906MOL0     C19521   9.109   3.959  10.414 -0.1064 -0.1573  0.4420
  906MOL0     C19522   9.050   3.988  10.550  0.3078 -0.6326 -0.5564
  906MOL0     C19523   8.957   3.893  10.602  0.1851  0.5660 -0.0679
  906MOL0     C19524   8.862   3.829  10.637  0.6117  0.6739 -1.4030
  906MOL0     C19525   8.798   4.094   9.901 -0.1649 -0.0581  0.6766
  906MOL0     C19526   8.792   4.178   9.790  1.5253 -1.1858 -0.1067
  906MOL0     H19527   8.847   4.607   9.448  1.2878 -1.3939 -1.4738
  906MOL0     H19528   8.784   4.679   9.236  0.0618  1.4609  2.6034
  906MOL0     H19529   8.722   4.738   9.040 -0.0045 -0.9120 -1.0783
  906MOL0     H19530   8.561   4.801   9.092 -1.8746 -0.5948  0.1185
  906MOL0     H19531   8.461   4.717   8.889  0.5544 -0.7405  1.5033
  906MOL0     H19532   8.613   4.649   8.842 -3.2398 -2.6792  1.2560
  906MOL0     H19533   8.731   4.870   8.823 -0.3078 -0.8983 -0.4002
  906MOL0     H19534   8.601   4.956   8.884 -1.7064 -1.1377  1.9620
  906MOL0     H19535   8.569   4.769   8.648  0.4636 -0.3277  2.2364
  906MOL0     H19536   8.456   4.879   8.692 -1.3488 -0.0078 -2.7869
  906MOL0     H19537   8.577   4.951   8.502 -1.9332  0.5421  1.1049
  906MOL0     H19538   8.741   4.939   8.578  0.9168  1.1826  2.5067
  906MOL0     H19539   8.681   5.123   8.741 -4.1282 -0.1056  0.9150
  906MOL0     H19540   8.539   5.143   8.639 -0.6291 -0.4520 -0.6262
  906MOL0     H19541   8.660   5.229   8.458 -1.0476 -2.1377  1.4438
  906MOL0     H19542   8.725   5.307   8.597 -2.3433  0.3125 -0.6948
  906MOL0     H19543   8.918   5.256   8.477 -2.1973  1.2619  0.1808
  906MOL0     H19544   8.850   5.092   8.435 -3.1475  1.5931 -2.0231
  906MOL0     H19545   9.063   4.948   8.540 -2.7571 -2.0551  0.3558
  906MOL0     H19546   9.195   4.811   8.743  2.9058  1.2986 -3.5407
  906MOL0     H19547   9.204   4.908   8.885 -1.1760  0.7603 -0.2862
  906MOL0     H19548   9.332   5.016   8.628 -0.2550 -1.1465  0.2041
  906MOL0     H19549   9.401   4.880   8.697 -1.5827 -0.6509 -0.5291
  906MOL0     H19550   9.329   5.086   8.901 -1.2198 -2.7543 -0.0564
  906MOL0     H19551   9.466   4.981   8.902  0.8232 -0.1700 -0.1348
  906MOL0     H19552   9.577   5.089   8.713  1.4636 -2.0789  2.6120
  906MOL0     H19553   9.562   5.169   8.865 -0.2662  4.2872 -0.1997
  906MOL0     H19554   9.355   5.286   8.973 -2.6047 -0.7364  0.4017
  906MOL0     H19555   9.264   5.497   9.060 -2.3729  1.6017 -1.5450
  906MOL0     H19556   9.148   6.012   8.706 -5.7188  2.3881  0.9046
  906MOL0     H19557   9.102   6.249   8.762 -2.2477 -1.2852  0.2536
  906MOL0     H19558   9.049   6.515   9.101 -2.3346 -0.6128 -2.7918
  906MOL0     H19559   9.129   6.389   9.192  1.2771  0.9010 -0.5431
  906MOL0     H19560   8.962   6.223   9.163 -2.3647 -1.2611  0.5955
  906MOL0     H19561   8.892   6.313   9.024 -2.2824  0.9038  0.6558
  906MOL0     H19562   8.851   6.494   9.201  1.5018 -0.2591 -1.1044
  906MOL0     H19563   8.923   6.383   9.327  1.2343  0.8704 -0.0719
  906MOL0     H19564   8.705   6.291   9.135 -2.0127 -0.4766 -0.4858
  906MOL0     H19565   8.779   6.201   9.275  2.8941  0.8632 -1.2084
  906MOL0     H19566   8.544   6.293   9.311 -0.5924 -1.0066  1.6657
  906MOL0     H19567   8.602   6.452   9.273  0.0879 -0.2993 -0.4181
  906MOL0     H19568   8.738   6.460   9.484 -1.6036  1.9995 -1.7529
  906MOL0     H19569   8.759   6.278   9.482  0.6920 -0.1326 -2.3497
  906MOL0     H19570   8.503   6.436   9.555 -2.8076 -2.5882  0.1850
  906MOL0     H19571   8.515   6.271   9.542  2.1282 -0.8849  1.1109
  906MOL0     H19572   8.624   6.459   9.738 -0.3470  0.5448 -2.0607
  906MOL0     H19573   8.696   6.297   9.746 -0.3797 -0.4585  0.6064
  906MOL0     H19574   9.221   6.181   9.160  0.7270  0.0266 -0.6504
  906MOL0     H19575   9.297   5.959   9.110 -2.7762 -1.8187 -0.1447
  906MOL0     H19576   9.323   5.676   8.674  1.7708  0.1254 -0.3462
  906MOL0     H19577   9.397   5.471   8.585 -0.9063 -3.4158  0.6012
  906MOL0     H19578   8.481   4.379   9.196  0.2201  1.1762 -0.5848
  906MOL0     H19579   8.526   4.306   9.411 -0.0825 -0.4517 -2.3183
  906MOL0     H19580   8.943   4.460   9.888 -0.7056  0.7365 -1.8619
  906MOL0     H19581   9.024   4.292  10.077 -0.7943 -0.7538  1.5429
  906MOL0     H19582   8.969   4.160  10.241 -1.3604 -0.5702  1.6023
  906MOL0     H19583   9.094   4.073  10.148 -0.7776  3.6383 -0.7147
  906MOL0     H19584   8.902   3.947  10.333 -0.1704 -2.3378 -0.2465
  906MOL0     H19585   9.029   3.863  10.231  2.4992 -0.0596  0.0444
  906MOL0     H19586   9.179   4.041  10.394 -3.3710  2.6415 -0.4572
  906MOL0     H19587   9.162   3.864  10.424 -2.2652 -1.3763  1.0794
  906MOL0     H19588   9.129   3.992  10.625 -0.5914  0.4736  0.3803
  906MOL0     H19589   9.008   4.088  10.536  3.3297  0.3121 -4.6699
  906MOL0     H19590   8.792   3.766  10.689  2.2281  0.8603  1.1370
  906MOL0     H19591   8.755   3.995   9.897 -1.8741  0.6893 -0.8329
  906MOL0     H19592   8.727   4.132   9.715  1.6019 -0.1068 -0.8577
  907MOL0     O19593   6.171   0.307   8.892  0.7795 -0.4415 -0.4995
  907MOL0     C19594   6.051   0.284   8.913 -1.4946  0.3652  0.5617
  907MOL0     O19595   6.005   0.152   8.942 -0.0829 -0.1792 -1.3639
  907MOL0     C19596   6.092   0.059   8.980  0.5645 -0.0633  0.2762
  907MOL0     C19597   6.098  -0.064   8.905 -0.2336  0.6938  0.2085
  907MOL0     C19598   6.193  -0.163   8.941  1.0065  0.5071 -0.1776
  907MOL0     C19599   6.272  -0.154   9.060  0.2215 -0.3848  0.1433
  907MOL0     O19600   6.365  -0.241   9.095  0.0212  0.2413 -1.2409
  907MOL0     C19601   6.389  -0.344   9.011  0.1138 -0.8207  0.4839
  907MOL0     C19602   6.509  -0.433   9.057 -0.5636  0.0506  0.6618
  907MOL0     C19603   6.478  -0.518   9.173 -0.4452 -0.6960 -0.4845
  907MOL0     C19604   6.581  -0.629   9.181  0.0723 -1.3731  0.3485
  907MOL0     C19605   6.586  -0.709   9.311 -0.8147  1.2766  0.3655
  907MOL0     C19606   6.700  -0.810   9.315 -0.3919  0.9325  0.5948
  907MOL0     C19607   6.837  -0.757   9.282  1.3347 -0.2495  0.0998
  907MOL0     C19608   6.876  -0.641   9.368 -0.7822 -0.0011  0.8880
  907MOL0     N19609   6.958  -0.691   9.482 -0.5195 -0.1164 -0.4748
  907MOL0     C19610   6.899  -0.724   9.605  0.7968  0.3366  0.3044
  907MOL0     C19611   6.993  -0.781   9.681 -0.1295 -0.6756  0.1829
  907MOL0     C19612   6.994  -0.820   9.830  0.1790  1.1624  0.4959
  907MOL0     C19613   7.024  -0.963   9.881  0.8689  0.6215  0.0743
  907MOL0     C19614   7.021  -1.062   9.775  0.6503  0.7907 -0.5627
  907MOL0     C19615   7.059  -1.201   9.823  0.1708  0.2621 -0.0534
  907MOL0     O19616   6.965  -1.260   9.917 -0.5998 -0.4269 -0.2541
  907MOL0     C19617   7.014  -1.354  10.006  0.3138 -0.4765  0.7847
  907MOL0     C19618   7.021  -1.488   9.960 -0.0700  0.9940  0.3141
  907MOL0     C19619   7.092  -1.581  10.037 -0.2000 -0.5922 -1.0140
  907MOL0     C19620   7.151  -1.543  10.158  0.3469 -0.2257 -0.4301
  907MOL0     C19621   7.236  -1.633  10.241  0.2413  0.5043  0.5653
  907MOL0     O19622   7.241  -1.759  10.193  0.0266 -0.7496  0.3576
  907MOL0     C19623   7.325  -1.852  10.267 -0.4199 -0.6090  0.8234
  907MOL0     C19624   7.282  -1.977  10.309 -0.0686 -0.3835  0.5555
  907MOL0     C19625   7.377  -2.059  10.370 -0.4238 -0.1435  0.0713
  907MOL0     C19626   7.516  -2.025  10.377  0.4034  0.8411 -0.9942
  907MOL0     O19627   7.602  -2.107  10.439 -0.5963 -0.1757  0.4276
  907MOL0     C19628   7.562  -2.153  10.571 -0.1349 -0.2015  1.0177
  907MOL0     C19629   7.654  -2.269  10.606 -0.2055 -0.5671  0.0980
  907MOL0     C19630   7.677  -2.390  10.508  0.4410 -0.2057  0.2734
  907MOL0     C19631   7.768  -2.486  10.581 -0.9618 -0.0001 -0.2292
  907MOL0     C19632   7.813  -2.604  10.502 -0.7388 -1.1118  0.0664
  907MOL0     C19633   7.955  -2.651  10.552  0.2854  0.1612 -1.3303
  907MOL0     C19634   8.004  -2.773  10.485  0.3106 -0.7578  0.3043
  907MOL0     C19635   8.108  -2.749  10.386  1.4840 -0.1478  1.2097
  907MOL0    Cl19636   8.271  -2.703  10.473  0.3246 -0.1374  0.4782
  907MOL0     C19637   7.551  -1.902  10.324 -0.2700  0.3724 -0.3833
  907MOL0     C19638   7.463  -1.819  10.265 -0.3184  0.6301 -0.7551
  907MOL0     O19639   7.300  -1.589  10.336 -0.8486 -0.0005  0.2954
  907MOL0     C19640   7.127  -1.417  10.205  0.1412  0.4648  1.0097
  907MOL0     C19641   7.063  -1.324  10.130 -0.2147 -0.4046  0.6668
  907MOL0     N19642   7.111  -0.790   9.598  0.2749 -0.9142 -0.3514
  907MOL0     N19643   7.083  -0.739   9.481 -0.0032  0.1165  0.0495
  907MOL0     C19644   6.253  -0.043   9.139 -1.2586 -1.1632  0.1644
  907MOL0     C19645   6.169   0.065   9.097  0.2772 -0.2330  0.5202
  907MOL0     C19646   5.947   0.397   8.895  0.1728  0.2332  0.5271
  907MOL0     C19647   5.808   0.365   8.900 -0.3649  0.2922  0.2007
  907MOL0     C19648   5.710   0.458   8.889 -0.0872  0.4800 -0.2682
  907MOL0     C19649   5.750   0.594   8.870  0.4556  0.9869 -0.0288
  907MOL0     O19650   5.660   0.689   8.836  0.4580  0.1689  0.6476
  907MOL0     C19651   5.608   0.671   8.707  0.0675 -0.9126 -0.2694
  907MOL0     C19652   5.581   0.803   8.640 -0.3747  0.2942  0.3030
  907MOL0     C19653   5.515   0.791   8.505 -0.4636 -0.1303 -0.2270
  907MOL0     C19654   5.449   0.924   8.457 -0.5068  0.5052  1.0897
  907MOL0     C19655   5.450   0.910   8.313  0.1131 -1.0652  0.5992
  907MOL0     C19656   5.454   0.904   8.190 -0.2820  0.4154 -1.1273
  907MOL0     C19657   5.886   0.625   8.877 -0.3694  0.3335  0.3828
  907MOL0     C19658   5.982   0.525   8.889 -0.3366 -0.2181 -0.4290
  907MOL0     H19659   6.033  -0.077   8.819 -0.3959  2.1373  0.0843
  907MOL0     H19660   6.201  -0.260   8.894  1.0161 -0.6255  2.0451
  907MOL0     H19661   6.428  -0.304   8.918 -0.6170  1.2426  1.0133
  907MOL0     H19662   6.305  -0.414   9.000  0.3233 -1.3353  1.9038
  907MOL0     H19663   6.592  -0.366   9.082 -0.6641  0.0901  0.8890
  907MOL0     H19664   6.552  -0.487   8.972  2.1432  2.5558  0.2723
  907MOL0     H19665   6.374  -0.551   9.170  0.6407 -4.7595  0.1145
  907MOL0     H19666   6.491  -0.459   9.265  1.1788  0.4452 -1.4053
  907MOL0     H19667   6.568  -0.700   9.099  0.5313  0.1003 -1.0443
  907MOL0     H19668   6.678  -0.579   9.173  0.1892 -1.0166  3.0827
  907MOL0     H19669   6.490  -0.761   9.325 -0.6411  0.3642 -1.5674
  907MOL0     H19670   6.594  -0.643   9.398  0.3611  2.9826 -0.9706
  907MOL0     H19671   6.684  -0.889   9.240  0.3324  0.1359  1.2704
  907MOL0     H19672   6.709  -0.859   9.412  0.1807 -0.2238 -0.0187
  907MOL0     H19673   6.916  -0.832   9.284  0.4924 -1.2079  2.7625
  907MOL0     H19674   6.836  -0.729   9.177 -1.5695  0.4362  0.2358
  907MOL0     H19675   6.793  -0.576   9.398 -0.8943  0.7684 -0.9538
  907MOL0     H19676   6.932  -0.578   9.298 -1.0669  2.3360  2.6222
  907MOL0     H19677   6.794  -0.710   9.626  1.4169  0.7368  3.7846
  907MOL0     H19678   6.894  -0.798   9.870  0.0698  2.1795 -0.3229
  907MOL0     H19679   7.054  -0.755   9.894  1.7802 -0.1934  0.4487
  907MOL0     H19680   6.949  -0.987   9.957 -0.6941 -0.3521 -1.6923
  907MOL0     H19681   7.119  -0.969   9.935  0.3162 -1.0587  0.9035
  907MOL0     H19682   6.923  -1.073   9.726 -0.4010  0.4545  1.4859
  907MOL0     H19683   7.097  -1.036   9.701 -0.9348 -0.0763 -2.6127
  907MOL0     H19684   7.153  -1.192   9.878 -0.0979 -0.5203  0.5517
  907MOL0     H19685   7.073  -1.261   9.732 -0.5207  2.0410 -1.3820
  907MOL0     H19686   6.999  -1.523   9.860 -1.0576 -3.5495  1.8612
  907MOL0     H19687   7.101  -1.683  10.000  0.5989 -1.4902  1.4343
  907MOL0     H19688   7.174  -1.990  10.309 -0.2565  1.0080  0.5599
  907MOL0     H19689   7.336  -2.146  10.421  1.6975 -1.8470 -0.9311
  907MOL0     H19690   7.462  -2.198  10.582  0.4177 -1.5226  0.8680
  907MOL0     H19691   7.561  -2.068  10.639 -2.9554 -0.2683  1.2022
  907MOL0     H19692   7.611  -2.306  10.699  0.4175 -1.1515  0.1668
  907MOL0     H19693   7.756  -2.232  10.618 -1.3459  2.2705  1.8777
  907MOL0     H19694   7.716  -2.351  10.413 -0.8510 -1.9858 -1.0726
  907MOL0     H19695   7.585  -2.440  10.477  0.7112 -0.5367 -0.0090
  907MOL0     H19696   7.849  -2.421  10.616 -2.8643  3.1232 -1.1784
  907MOL0     H19697   7.718  -2.524  10.671  1.4262 -2.0699  0.3109
  907MOL0     H19698   7.816  -2.587  10.394 -0.6050 -2.7226 -0.2021
  907MOL0     H19699   7.745  -2.688  10.516  0.4514 -2.1752 -0.4159
  907MOL0     H19700   7.954  -2.665  10.661 -0.7262  5.2215 -0.4544
  907MOL0     H19701   8.029  -2.571  10.542  0.0228  0.6794  0.3845
  907MOL0     H19702   8.057  -2.838  10.555 -1.3805 -1.8000  0.6665
  907MOL0     H19703   7.919  -2.832  10.450  0.0422 -0.5929  0.6661
  907MOL0     H19704   8.066  -2.667  10.327 -2.1391  0.0195  3.6889
  907MOL0     H19705   8.118  -2.836  10.320  2.1925  1.7787 -1.3444
  907MOL0     H19706   7.654  -1.869  10.324 -0.1868  0.2239  1.4416
  907MOL0     H19707   7.478  -1.726  10.212  0.3028 -0.9751 -3.6024
  907MOL0     H19708   7.155  -1.395  10.307  0.2862 -3.0240  1.8646
  907MOL0     H19709   7.065  -1.219  10.156  0.7216 -0.5583  1.2663
  907MOL0     H19710   6.321  -0.038   9.224 -3.4847  2.5164  2.0105
  907MOL0     H19711   6.176   0.163   9.143  3.7981  0.5518 -1.2791
  907MOL0     H19712   5.780   0.260   8.894 -2.4106  0.7396  1.1461
  907MOL0     H19713   5.605   0.433   8.873 -0.1571  0.2280  0.5186
  907MOL0     H19714   5.513   0.619   8.717 -1.3673  0.9890 -2.8439
  907MOL0     H19715   5.665   0.605   8.639 -0.0225 -1.6047  0.3159
  907MOL0     H19716   5.516   0.870   8.698  0.8282  1.2954  0.5418
  907MOL0     H19717   5.679   0.851   8.634  0.5603 -1.3111  1.8891
  907MOL0     H19718   5.451   0.703   8.493 -0.8726  0.3390 -1.5959
  907MOL0     H19719   5.602   0.763   8.444  1.0971 -0.1085  1.8477
  907MOL0     H19720   5.347   0.932   8.496 -1.6007  2.6489 -1.9227
  907MOL0     H19721   5.503   1.012   8.493 -0.3937  0.9217 -0.0647
  907MOL0     H19722   5.446   0.906   8.083  2.1863 -1.9352 -1.4632
  907MOL0     H19723   5.909   0.729   8.857  0.1149 -0.1207 -1.6781
  907MOL0     H19724   6.089   0.545   8.888  0.1235 -2.4863 -0.3367
  908MOL0     O19725   0.278   5.512   9.807 -0.2389  0.5122  0.1943
  908MOL0     C19726   0.333   5.455   9.901  0.4442 -0.1086  0.2105
  908MOL0     O19727   0.273   5.398  10.005  0.5022  0.7850 -0.2365
  908MOL0     C19728   0.134   5.356   9.994  0.3067 -0.1780 -0.0762
  908MOL0     C19729   0.109   5.220  10.012  0.2557  0.6872  0.4205
  908MOL0     C19730  -0.020   5.174  10.010 -0.3141  0.7746 -0.4854
  908MOL0     C19731  -0.126   5.271  10.006 -0.1640 -0.3334 -0.3119
  908MOL0     O19732  -0.260   5.236  10.016  0.4088 -0.7139  0.8777
  908MOL0     C19733  -0.307   5.104  10.005  0.8552 -0.5274 -0.6996
  908MOL0     C19734  -0.457   5.123   9.997 -0.9192 -0.4332 -0.8844
  908MOL0     C19735  -0.528   5.124  10.132  0.0587 -0.3148  0.4236
  908MOL0     C19736  -0.681   5.141  10.110  0.2545  0.3829 -0.7262
  908MOL0     C19737  -0.729   5.285  10.109  0.2782  0.6308  0.1885
  908MOL0     C19738  -0.885   5.301  10.105  0.3427 -0.6858  0.3974
  908MOL0     C19739  -0.951   5.270   9.965 -0.9062  0.5524 -0.3617
  908MOL0     C19740  -1.081   5.341   9.935 -0.4227 -0.2902  0.3078
  908MOL0     N19741  -1.086   5.486   9.964  0.2945  0.2766  1.0475
  908MOL0     C19742  -1.024   5.587   9.895 -0.0573 -0.9759  0.4704
  908MOL0     C19743  -1.060   5.702   9.964 -0.2077 -0.0669  0.2880
  908MOL0     C19744  -1.014   5.838   9.947  0.2384  0.1984  0.4492
  908MOL0     C19745  -0.880   5.866  10.017  0.0152 -0.2882 -1.0628
  908MOL0     C19746  -0.841   6.020  10.010  0.3671  0.4426 -0.1584
  908MOL0     C19747  -0.776   6.054   9.874  0.4096 -0.5725 -0.0046
  908MOL0     O19748  -0.659   5.977   9.854 -0.2551 -0.3177  0.1256
  908MOL0     C19749  -0.545   6.050   9.878 -0.0512  0.9923 -0.0479
  908MOL0     C19750  -0.470   6.065   9.767  0.0177 -0.3380  0.7447
  908MOL0     C19751  -0.365   6.148   9.771  0.3111  0.5933  0.6761
  908MOL0     C19752  -0.338   6.217   9.891  0.7191 -0.3656  0.0342
  908MOL0     C19753  -0.216   6.305   9.887  0.1923  0.0747 -0.1465
  908MOL0     O19754  -0.138   6.299   9.764  0.0163 -0.7147 -0.1033
  908MOL0     C19755  -0.032   6.384   9.766  0.6165 -0.1801 -0.7406
  908MOL0     C19756   0.080   6.340   9.826  0.5197  0.3105 -0.3747
  908MOL0     C19757   0.191   6.420   9.825 -1.4186 -0.1327 -0.4554
  908MOL0     C19758   0.188   6.558   9.777  0.4584  0.2880 -0.0734
  908MOL0     O19759   0.292   6.642   9.800 -0.1250 -0.1265 -0.1144
  908MOL0     C19760   0.341   6.763   9.729  0.1933 -0.7331 -0.5260
  908MOL0     C19761   0.467   6.797   9.798 -0.8237  0.1364  0.5985
  908MOL0     C19762   0.565   6.681   9.753 -0.0780 -0.2241  0.0457
  908MOL0     C19763   0.717   6.703   9.801 -0.0097  0.2797 -0.4581
  908MOL0     C19764   0.762   6.614   9.934  1.5162 -0.8270  0.4245
  908MOL0     C19765   0.673   6.662  10.061 -1.0778 -0.4648 -0.1868
  908MOL0     C19766   0.745   6.630  10.193 -0.7911  0.4689  0.3064
  908MOL0     C19767   0.771   6.490  10.222  0.3443 -0.5784 -0.7095
  908MOL0    Cl19768   0.883   6.449  10.349  0.5462 -0.0012 -0.2673
  908MOL0     C19769   0.071   6.602   9.717  0.5548 -0.1756 -0.4665
  908MOL0     C19770  -0.039   6.515   9.705 -1.0052 -0.6112 -0.5761
  908MOL0     O19771  -0.192   6.380   9.976 -0.0237  0.0061 -0.9058
  908MOL0     C19772  -0.415   6.204  10.004 -0.6974  0.3273  0.2935
  908MOL0     C19773  -0.527   6.122   9.992  0.6987 -0.7926  0.0915
  908MOL0     N19774  -1.149   5.675  10.059  0.7596 -0.5565  0.9964
  908MOL0     N19775  -1.158   5.545  10.063  0.1882 -0.6354 -0.0048
  908MOL0     C19776  -0.098   5.405  10.001  0.4380  0.2179  0.6890
  908MOL0     C19777   0.035   5.447   9.991  0.5049  0.5329 -0.6128
  908MOL0     C19778   0.477   5.463   9.904  0.3827 -0.8186 -1.0554
  908MOL0     C19779   0.549   5.408  10.006 -0.5802 -0.8901  0.6156
  908MOL0     C19780   0.693   5.426  10.015 -0.0420 -0.3339 -0.2331
  908MOL0     C19781   0.753   5.498   9.917  0.1587  0.3582 -1.2519
  908MOL0     O19782   0.895   5.512   9.907 -0.2370 -0.0476 -0.0637
  908MOL0     C19783   0.964   5.416   9.978 -0.2623  0.4930  0.2041
  908MOL0     C19784   1.113   5.420   9.933 -0.3485  0.5104 -0.5581
  908MOL0     C19785   1.206   5.486  10.034  0.9427  1.3483  0.2682
  908MOL0     C19786   1.354   5.492   9.978  1.0402  0.6736  0.1429
  908MOL0     C19787   1.429   5.365   9.972 -0.8343 -0.4188 -0.3317
  908MOL0     C19788   1.511   5.271   9.955  0.6872 -0.6504  0.3502
  908MOL0     C19789   0.684   5.561   9.812 -0.1286  0.2309  0.4745
  908MOL0     C19790   0.546   5.547   9.819  0.4039  0.3737  0.2443
  908MOL0     H19791   0.192   5.150  10.020  0.2373  0.3069 -1.8984
  908MOL0     H19792  -0.033   5.066  10.013 -0.3034  0.7553  2.8376
  908MOL0     H19793  -0.269   5.046  10.089  1.4333  0.7721 -0.0404
  908MOL0     H19794  -0.283   5.063   9.906 -1.3098 -1.3313 -0.9638
  908MOL0     H19795  -0.484   5.026   9.952  0.8462 -2.0153  1.2644
  908MOL0     H19796  -0.489   5.200   9.926 -0.0945 -0.7373 -1.5939
  908MOL0     H19797  -0.488   5.208  10.189  0.7212 -0.2744 -0.0861
  908MOL0     H19798  -0.511   5.037  10.196 -1.4040 -0.7830  0.2116
  908MOL0     H19799  -0.721   5.081  10.028  0.6203 -1.1531  0.1801
  908MOL0     H19800  -0.726   5.102  10.202 -0.7172 -1.9030 -2.0986
  908MOL0     H19801  -0.687   5.345  10.027  0.2568  0.2767 -0.0867
  908MOL0     H19802  -0.699   5.340  10.198  1.3090 -0.8445  0.8045
  908MOL0     H19803  -0.894   5.406  10.135 -1.3036 -0.2978 -1.2810
  908MOL0     H19804  -0.936   5.239  10.179  0.4941 -3.0562 -1.3651
  908MOL0     H19805  -0.882   5.308   9.889 -2.4070  1.3939 -1.3473
  908MOL0     H19806  -0.974   5.163   9.955  0.1831  0.1153  1.3523
  908MOL0     H19807  -1.158   5.296   9.999  0.8577 -4.5001 -0.8263
  908MOL0     H19808  -1.108   5.327   9.830  1.3596 -1.0729 -0.0872
  908MOL0     H19809  -0.956   5.570   9.812  0.6382  0.7249  0.6279
  908MOL0     H19810  -1.089   5.914   9.972 -2.1753 -1.1722 -2.1390
  908MOL0     H19811  -1.003   5.855   9.839 -1.4516  2.0106  0.5133
  908MOL0     H19812  -0.810   5.800   9.966 -0.4159 -0.5568 -1.3187
  908MOL0     H19813  -0.891   5.853  10.125  0.9025  0.2988 -0.8961
  908MOL0     H19814  -0.935   6.072  10.024  0.5478  0.6291  0.3729
  908MOL0     H19815  -0.788   6.054  10.100 -0.2290  1.2249 -0.0965
  908MOL0     H19816  -0.759   6.161   9.861 -0.6605 -0.5660 -1.7411
  908MOL0     H19817  -0.846   6.034   9.791 -1.0123 -3.8570  1.7924
  908MOL0     H19818  -0.496   6.024   9.669 -0.0850 -1.3064  1.1679
  908MOL0     H19819  -0.300   6.156   9.684  0.1591  3.1050  0.7304
  908MOL0     H19820   0.077   6.239   9.864  2.5900  1.0063  1.9030
  908MOL0     H19821   0.289   6.382   9.850 -0.5605  2.1376 -0.1318
  908MOL0     H19822   0.274   6.848   9.747  0.3941 -0.9336  1.3751
  908MOL0     H19823   0.357   6.754   9.621  0.8210 -0.2061 -0.4762
  908MOL0     H19824   0.467   6.811   9.907 -0.4496  3.5735  0.2750
  908MOL0     H19825   0.492   6.897   9.761 -0.1373  0.2784  1.4012
  908MOL0     H19826   0.565   6.694   9.644  2.1440 -4.3322 -0.6749
  908MOL0     H19827   0.540   6.578   9.782  0.3337 -0.3468 -0.0239
  908MOL0     H19828   0.781   6.685   9.714 -0.5726  0.3379 -0.8952
  908MOL0     H19829   0.723   6.809   9.825  2.6160  0.1437 -0.2466
  908MOL0     H19830   0.869   6.632   9.943  1.7113 -0.0751 -2.3961
  908MOL0     H19831   0.747   6.509   9.908 -1.4667 -0.1381 -1.1137
  908MOL0     H19832   0.577   6.611  10.048 -0.8120 -1.0360  0.0784
  908MOL0     H19833   0.678   6.771  10.046  2.2359 -0.3253  1.0824
  908MOL0     H19834   0.837   6.688  10.187 -1.7291  2.0072  0.3317
  908MOL0     H19835   0.704   6.676  10.284  3.2123  1.7566  1.6886
  908MOL0     H19836   0.812   6.440  10.134  0.8433 -2.4790  0.5543
  908MOL0     H19837   0.672   6.452  10.248  1.5381 -1.8785  2.4405
  908MOL0     H19838   0.059   6.703   9.678 -4.2308 -0.4759 -0.3716
  908MOL0     H19839  -0.124   6.555   9.651 -1.5727 -1.1653 -0.1241
  908MOL0     H19840  -0.388   6.274  10.083 -0.1992  1.2032 -0.6267
  908MOL0     H19841  -0.588   6.119  10.081  0.0906  1.9681 -0.1293
  908MOL0     H19842  -0.178   5.478  10.009 -1.2043 -1.3385 -0.6376
  908MOL0     H19843   0.059   5.552  10.007 -0.4154  0.7789 -0.8156
  908MOL0     H19844   0.488   5.353  10.077 -0.0967  0.0695  1.8180
  908MOL0     H19845   0.747   5.376  10.094  0.2122  1.7647  1.0116
  908MOL0     H19846   0.925   5.318   9.948 -0.9640  0.1358  2.1210
  908MOL0     H19847   0.960   5.426  10.087  2.1167 -1.0279  0.5012
  908MOL0     H19848   1.138   5.314   9.926 -0.9718  0.3924 -1.1102
  908MOL0     H19849   1.124   5.458   9.831  1.7566 -0.3089 -0.6844
  908MOL0     H19850   1.193   5.439  10.132  2.2180  2.5425  1.0337
  908MOL0     H19851   1.174   5.591  10.036  1.5549  1.5489 -0.1817
  908MOL0     H19852   1.355   5.552   9.886  1.1788  5.3355  2.8701
  908MOL0     H19853   1.414   5.546  10.052  2.1613 -1.0821  0.5811
  908MOL0     H19854   1.586   5.195   9.962 -0.0431 -1.2309  4.7230
  908MOL0     H19855   0.733   5.611   9.729 -0.8544 -1.2117 -0.8699
  908MOL0     H19856   0.492   5.593   9.737 -1.2261 -2.8951 -0.7153
  909MOL0     O19857   8.170   9.732   7.992 -0.3486 -0.8892 -0.0880
  909MOL0     C19858   8.207   9.720   7.873  0.6485  0.1079  0.6430
  909MOL0     O19859   8.139   9.773   7.767  0.5613 -0.5793 -0.0518
  909MOL0     C19860   8.022   9.840   7.798  0.7270 -1.1069 -0.4530
  909MOL0     C19861   8.021   9.984   7.815 -0.6226  1.0085  0.6809
  909MOL0     C19862   7.905  10.052   7.815 -0.3847  0.5284  0.2418
  909MOL0     C19863   7.781   9.982   7.818  0.0137 -0.1327 -0.9359
  909MOL0     O19864   7.663  10.054   7.808 -0.1306 -0.2042 -0.3341
  909MOL0     C19865   7.659  10.193   7.848 -0.7021  0.3202 -0.2081
  909MOL0     C19866   7.519  10.250   7.818 -1.4211  0.3143  0.6813
  909MOL0     C19867   7.439  10.209   7.685 -0.0314  0.7285 -0.1300
  909MOL0     C19868   7.303  10.264   7.690 -0.2563 -0.8071  0.0192
  909MOL0     C19869   7.201  10.192   7.606 -0.4387  0.2238 -0.2319
  909MOL0     C19870   7.236  10.161   7.458 -0.2865  0.2885  0.6484
  909MOL0     C19871   7.130  10.066   7.399 -0.8743  1.2422 -0.3330
  909MOL0     C19872   7.140  10.037   7.250  0.1245 -0.5174 -0.4333
  909MOL0     N19873   7.036   9.928   7.210 -0.1014 -0.0345 -0.0834
  909MOL0     C19874   6.941   9.929   7.106  0.2806 -0.9980  0.5223
  909MOL0     C19875   6.916   9.797   7.091  0.1852  0.3845  0.4981
  909MOL0     C19876   6.831   9.733   6.979 -0.4654  0.2775  0.1992
  909MOL0     C19877   6.671   9.747   6.985  0.1881 -0.7581  0.4218
  909MOL0     C19878   6.602   9.669   7.094  0.5527  0.0310  0.2811
  909MOL0     C19879   6.460   9.626   7.053 -0.1592 -1.3961 -0.2938
  909MOL0     O19880   6.374   9.746   7.070  0.0383 -0.1008  0.9586
  909MOL0     C19881   6.321   9.789   7.184 -0.3741 -0.3590  0.4442
  909MOL0     C19882   6.335   9.724   7.318  0.1157 -0.6019  0.8904
  909MOL0     C19883   6.261   9.777   7.422 -0.3150  0.5438 -0.2014
  909MOL0     C19884   6.198   9.894   7.405  0.5636 -0.6275 -0.0967
  909MOL0     C19885   6.114   9.945   7.511  0.0102 -0.0592  0.1424
  909MOL0     O19886   6.133   9.896   7.638 -0.0642 -1.4869 -0.5017
  909MOL0     C19887   6.091   9.958   7.753 -0.2896 -0.1001  0.1359
  909MOL0     C19888   5.961   9.951   7.791 -0.5759 -0.3371  0.4354
  909MOL0     C19889   5.922  10.031   7.894 -0.1742 -0.7843 -0.9426
  909MOL0     C19890   6.016  10.088   7.982 -0.1426 -1.0805  0.8735
  909MOL0     O19891   5.965  10.165   8.085  0.4517  0.1544  0.0454
  909MOL0     C19892   6.058  10.228   8.177 -0.5686 -0.1842 -0.0996
  909MOL0     C19893   5.961  10.308   8.256 -0.7630  0.0209 -0.2463
  909MOL0     C19894   6.026  10.426   8.329  0.6703  0.3565 -0.7800
  909MOL0     C19895   5.911  10.510   8.389  0.2692 -0.2050 -1.2362
  909MOL0     C19896   5.945  10.633   8.466  0.1101  0.6304  0.0374
  909MOL0     C19897   6.016  10.739   8.383 -0.6245  0.0960 -0.0415
  909MOL0     C19898   6.065  10.862   8.454  0.0592  0.4111 -0.0631
  909MOL0     C19899   5.958  10.954   8.513 -0.1379 -0.6856 -0.8863
  909MOL0    Cl19900   6.018  11.094   8.617 -0.7824  0.0504 -0.2080
  909MOL0     C19901   6.154  10.069   7.945  0.3366  1.3270 -0.6395
  909MOL0     C19902   6.184  10.012   7.828  0.1898  0.9516 -0.8262
  909MOL0     O19903   6.054  10.046   7.485  0.3045  0.0279  0.1122
  909MOL0     C19904   6.190   9.961   7.286 -0.3135  0.0465 -0.6941
  909MOL0     C19905   6.243   9.905   7.171  0.4701 -1.3132  0.1076
  909MOL0     N19906   6.998   9.728   7.186 -0.0811 -0.1693  0.3657
  909MOL0     N19907   7.072   9.809   7.246 -0.1210  0.8167  0.4419
  909MOL0     C19908   7.777   9.844   7.811 -0.1240 -0.3763 -0.0668
  909MOL0     C19909   7.893   9.775   7.792  0.7280  0.4409  0.3873
  909MOL0     C19910   8.330   9.635   7.843  0.2450 -0.7094 -0.0816
  909MOL0     C19911   8.396   9.557   7.946 -0.6805 -0.5625  0.2971
  909MOL0     C19912   8.520   9.499   7.923 -0.7911  0.2877  0.0914
  909MOL0     C19913   8.580   9.512   7.802  0.5250  0.8887 -0.0175
  909MOL0     O19914   8.699   9.442   7.778 -1.0995 -0.2045 -0.0512
  909MOL0     C19915   8.815   9.475   7.853 -1.0519 -0.0176 -0.7193
  909MOL0     C19916   8.920   9.355   7.830 -0.0271 -0.7193  0.1813
  909MOL0     C19917   8.858   9.224   7.872 -0.8951 -0.2302 -0.1274
  909MOL0     C19918   8.918   9.091   7.811 -0.1971  0.1643  0.5441
  909MOL0     C19919   8.873   9.082   7.672  0.4675  0.4146 -0.2432
  909MOL0     C19920   8.828   9.058   7.566  0.2846 -0.4756  1.1523
  909MOL0     C19921   8.513   9.576   7.693 -0.0276 -0.1724 -0.0862
  909MOL0     C19922   8.390   9.644   7.718 -0.2670  0.1262  0.2822
  909MOL0     H19923   8.115  10.032   7.790 -0.2885  1.9556  3.3643
  909MOL0     H19924   7.917  10.158   7.797  0.3871  0.0050 -2.8900
  909MOL0     H19925   7.731  10.260   7.801 -0.2971 -0.1940 -0.3353
  909MOL0     H19926   7.676  10.204   7.956  0.7530  1.8786 -0.5507
  909MOL0     H19927   7.533  10.358   7.817 -0.7268  0.2915 -2.1574
  909MOL0     H19928   7.455  10.227   7.904 -2.4262 -0.0677 -0.1551
  909MOL0     H19929   7.453  10.101   7.675 -1.1813  0.4039  1.3833
  909MOL0     H19930   7.479  10.255   7.595  2.3507  2.0859  1.5043
  909MOL0     H19931   7.272  10.260   7.795  1.3308  0.2289  0.5685
  909MOL0     H19932   7.301  10.372   7.675 -1.4722 -0.5858  1.4852
  909MOL0     H19933   7.109  10.251   7.599  0.0964  0.9786 -1.1317
  909MOL0     H19934   7.176  10.096   7.652  1.5159  0.0287  0.5316
  909MOL0     H19935   7.327  10.101   7.450 -2.0229 -2.4878  0.1804
  909MOL0     H19936   7.249  10.252   7.398 -1.1849 -0.2734 -0.4493
  909MOL0     H19937   7.140   9.971   7.451 -1.1785  1.9749  1.1025
  909MOL0     H19938   7.030  10.098   7.428 -0.1268  2.1111  1.4624
  909MOL0     H19939   7.241  10.005   7.225  0.8299  1.8794 -0.9334
  909MOL0     H19940   7.129  10.125   7.185  0.7563  0.3762  0.6380
  909MOL0     H19941   6.899  10.012   7.051 -1.8068 -3.7747 -2.4286
  909MOL0     H19942   6.849   9.625   6.973 -0.7294  0.3221 -1.7291
  909MOL0     H19943   6.882   9.772   6.891  0.0124 -0.2365  0.2418
  909MOL0     H19944   6.626   9.709   6.893  0.0273  0.3642  0.0224
  909MOL0     H19945   6.641   9.852   6.982  1.2604 -0.4533 -0.5722
  909MOL0     H19946   6.651   9.574   7.115  0.8972  0.1913  0.2002
  909MOL0     H19947   6.610   9.722   7.190  0.2090  2.3871 -0.9157
  909MOL0     H19948   6.430   9.539   7.112  1.9489 -1.9819 -0.0203
  909MOL0     H19949   6.454   9.597   6.948 -0.1975  0.3614 -0.8141
  909MOL0     H19950   6.393   9.633   7.320  2.0466  0.4893 -1.0178
  909MOL0     H19951   6.282   9.730   7.517  0.7736 -4.0099 -2.4236
  909MOL0     H19952   5.883   9.914   7.726  0.1177  0.0278 -0.6217
  909MOL0     H19953   5.816  10.034   7.916 -0.0902  0.6214 -0.6556
  909MOL0     H19954   6.131  10.288   8.122  0.2576 -0.3859  0.7346
  909MOL0     H19955   6.110  10.158   8.244  0.3159 -1.1719 -1.7583
  909MOL0     H19956   5.902  10.241   8.318  0.3630 -0.8953 -0.1324
  909MOL0     H19957   5.885  10.354   8.192 -1.9212  0.0211  1.0828
  909MOL0     H19958   6.097  10.484   8.269  2.0910 -2.0012 -1.5307
  909MOL0     H19959   6.080  10.393   8.418 -0.1732 -1.8448 -1.0223
  909MOL0     H19960   5.860  10.550   8.301 -2.5795 -1.9085 -0.5001
  909MOL0     H19961   5.840  10.452   8.449 -0.0798  1.7160  0.3008
  909MOL0     H19962   6.018  10.604   8.542 -0.4743  1.2366  0.8422
  909MOL0     H19963   5.856  10.657   8.525  0.4924 -1.2341  1.4577
  909MOL0     H19964   5.943  10.774   8.310 -0.2495 -1.5098 -1.2498
  909MOL0     H19965   6.099  10.693   8.328 -0.0450  0.5847  0.4155
  909MOL0     H19966   6.138  10.818   8.523 -0.0100  0.2064 -0.1188
  909MOL0     H19967   6.121  10.931   8.391 -1.7204 -0.6069 -2.9531
  909MOL0     H19968   5.897  10.894   8.581  1.4642  1.2548  2.5229
  909MOL0     H19969   5.885  11.001   8.446 -0.6173  0.1036  0.1516
  909MOL0     H19970   6.239  10.101   8.006  0.8017 -1.2842  0.2004
  909MOL0     H19971   6.288  10.010   7.799  0.2372  0.1488 -0.6256
  909MOL0     H19972   6.140  10.057   7.276  0.0545  0.2761 -0.3350
  909MOL0     H19973   6.230   9.963   7.080 -1.3619 -0.7724  0.6791
  909MOL0     H19974   7.677   9.802   7.808 -0.0483 -0.7646  1.5874
  909MOL0     H19975   7.914   9.669   7.783  3.1092  0.6994  1.8772
  909MOL0     H19976   8.360   9.543   8.047 -1.4993 -1.5233 -0.1093
  909MOL0     H19977   8.580   9.463   8.006  4.1344 -0.3941 -3.3476
  909MOL0     H19978   8.790   9.481   7.959  0.7304  1.5511 -0.3372
  909MOL0     H19979   8.836   9.578   7.822 -0.4309 -0.6448 -2.4666
  909MOL0     H19980   8.940   9.356   7.722 -2.4155 -1.5261 -0.3311
  909MOL0     H19981   9.011   9.374   7.888 -1.1174  1.2298  1.3522
  909MOL0     H19982   8.749   9.215   7.867 -0.7524 -1.5065 -3.5225
  909MOL0     H19983   8.876   9.213   7.980 -2.4929 -0.0988  0.1867
  909MOL0     H19984   9.027   9.105   7.807 -0.2570  0.7713  0.9598
  909MOL0     H19985   8.887   9.006   7.873  0.4615 -0.5948 -0.1354
  909MOL0     H19986   8.807   9.016   7.469  1.1528 -1.4061  1.3495
  909MOL0     H19987   8.574   9.584   7.604  0.8166 -1.9594  0.2744
  909MOL0     H19988   8.332   9.687   7.638 -0.9308 -2.3155 -0.6272
  910MOL0     O19989   5.736  10.032   3.997 -0.0495 -0.2487  0.1920
  910MOL0     C19990   5.664   9.944   4.047  0.6492 -0.4195  0.9620
  910MOL0     O19991   5.528   9.926   4.026  0.9232  0.4227 -0.0569
  910MOL0     C19992   5.469   9.978   3.911 -0.8999  0.3286  0.5406
  910MOL0     C19993   5.349  10.046   3.912 -0.3409  0.5342 -0.3444
  910MOL0     C19994   5.290  10.101   3.803 -0.5087  0.7581  0.1739
  910MOL0     C19995   5.356  10.109   3.687  0.4963  0.1900  0.7252
  910MOL0     O19996   5.293  10.162   3.575 -0.2091 -0.3263  0.0376
  910MOL0     C19997   5.360  10.269   3.500  0.0852 -0.7894  0.0444
  910MOL0     C19998   5.344  10.393   3.578  0.1065  0.8355  0.3074
  910MOL0     C19999   5.414  10.506   3.509  0.0506  0.2991  0.1078
  910MOL0     C20000   5.462  10.604   3.615 -0.3221  0.0415  0.0374
  910MOL0     C20001   5.509  10.750   3.563  0.1320  0.5844 -0.4985
  910MOL0     C20002   5.655  10.731   3.516  0.5645  0.4043 -0.6520
  910MOL0     C20003   5.713  10.871   3.480 -0.2101 -0.3786  0.8084
  910MOL0     C20004   5.803  10.849   3.358 -0.0751  0.8662 -1.2011
  910MOL0     N20005   5.922  10.771   3.403 -0.7281 -0.0086  0.7868
  910MOL0     C20006   6.039  10.834   3.433 -0.1326  0.5387  0.8414
  910MOL0     C20007   6.132  10.743   3.456 -0.7933  0.2199 -0.0070
  910MOL0     C20008   6.269  10.770   3.510 -0.2589 -0.5833  0.6267
  910MOL0     C20009   6.381  10.770   3.404  1.1117  1.0448  0.9079
  910MOL0     C20010   6.326  10.843   3.274 -0.4730  0.2336 -0.4579
  910MOL0     C20011   6.449  10.863   3.175 -0.2185  0.8230 -0.2915
  910MOL0     O20012   6.511  10.736   3.142 -0.3346 -0.0763  0.1538
  910MOL0     C20013   6.638  10.739   3.185 -0.3270  0.4910  0.6295
  910MOL0     C20014   6.694  10.710   3.316 -0.0572 -0.4642 -1.2678
  910MOL0     C20015   6.835  10.696   3.336 -0.3752 -0.9144 -0.9252
  910MOL0     C20016   6.917  10.741   3.238 -0.8832 -1.1763 -0.2853
  910MOL0     C20017   7.063  10.732   3.264 -0.5285  1.1121  0.2668
  910MOL0     O20018   7.142  10.764   3.156  0.0696 -0.1267 -1.0267
  910MOL0     C20019   7.285  10.765   3.162  0.7087  0.6856 -0.1525
  910MOL0     C20020   7.368  10.690   3.245 -0.3860 -0.0943 -0.0827
  910MOL0     C20021   7.508  10.688   3.230 -0.3458  0.6471 -0.9068
  910MOL0     C20022   7.565  10.766   3.129 -0.3445  0.2609 -0.6076
  910MOL0     O20023   7.708  10.758   3.127  0.1364  0.0587  0.2158
  910MOL0     C20024   7.780  10.845   3.031 -0.2212  0.3482 -0.1504
  910MOL0     C20025   7.769  10.996   3.049  1.5749  0.8094 -0.1070
  910MOL0     C20026   7.880  11.078   2.969 -0.2056  0.1161  0.4553
  910MOL0     C20027   7.881  11.225   3.002  0.1772  0.1576  0.4329
  910MOL0     C20028   7.757  11.300   2.952 -0.1530  0.4169  0.0306
  910MOL0     C20029   7.738  11.439   3.006 -0.3963 -0.0302  0.7684
  910MOL0     C20030   7.576  11.460   3.006  0.0793 -0.0720  0.8146
  910MOL0     C20031   7.540  11.606   3.036  0.5305  0.1269  0.7201
  910MOL0    Cl20032   7.359  11.610   3.076 -0.4330 -0.1965 -0.1509
  910MOL0     C20033   7.481  10.844   3.057  0.0749 -0.2511  0.1533
  910MOL0     C20034   7.346  10.848   3.072  0.2596 -0.2403 -0.3762
  910MOL0     O20035   7.103  10.718   3.376 -0.1683  0.2718  0.4417
  910MOL0     C20036   6.866  10.771   3.111  0.5197 -0.0266  0.1210
  910MOL0     C20037   6.732  10.767   3.081 -0.2220  0.5465  0.2003
  910MOL0     N20038   6.066  10.621   3.427 -0.3991 -0.3189 -0.1492
  910MOL0     N20039   5.947  10.643   3.377  0.5945  0.6621 -0.3480
  910MOL0     C20040   5.479  10.046   3.677  0.7147 -0.1409  0.3077
  910MOL0     C20041   5.533   9.975   3.785  0.5184  0.8998  0.2412
  910MOL0     C20042   5.725   9.856   4.150  0.6815 -0.8191  0.8646
  910MOL0     C20043   5.641   9.813   4.250 -0.9966  0.1493 -1.1682
  910MOL0     C20044   5.696   9.737   4.355 -0.0236 -0.3750 -0.5219
  910MOL0     C20045   5.830   9.718   4.366 -0.0629  0.5329  0.5827
  910MOL0     O20046   5.889   9.630   4.451 -0.0155  0.4527  0.4676
  910MOL0     C20047   5.836   9.629   4.582  0.0951 -0.9610  0.1127
  910MOL0     C20048   5.779   9.493   4.633 -0.4209 -0.2551 -0.4130
  910MOL0     C20049   5.684   9.417   4.537  0.2517 -0.0344 -0.1267
  910MOL0     C20050   5.529   9.443   4.556 -0.2367  0.4181  0.5239
  910MOL0     C20051   5.490   9.396   4.687 -1.0306  0.5895 -0.8409
  910MOL0     C20052   5.453   9.355   4.797 -0.6169  0.8160 -0.5224
  910MOL0     C20053   5.909   9.757   4.257 -0.2803 -0.4018 -0.7258
  910MOL0     C20054   5.855   9.827   4.150  0.2713  0.5998  0.1583
  910MOL0     H20055   5.301  10.053   4.010  0.9145 -3.4736  0.7491
  910MOL0     H20056   5.190  10.140   3.822 -1.6162 -0.5060 -2.5016
  910MOL0     H20057   5.320  10.288   3.399  1.1001  2.0927  0.0817
  910MOL0     H20058   5.467  10.250   3.500 -0.0500 -1.8096 -1.8264
  910MOL0     H20059   5.376  10.364   3.678 -0.9168 -1.2527  0.0912
  910MOL0     H20060   5.236  10.412   3.577  0.0407  0.4818 -0.3192
  910MOL0     H20061   5.350  10.551   3.432 -0.8883 -0.9710  0.1029
  910MOL0     H20062   5.502  10.463   3.459  0.1317  0.1831  0.3496
  910MOL0     H20063   5.386  10.624   3.692 -2.3576  0.8762 -2.0554
  910MOL0     H20064   5.546  10.562   3.671 -0.2932  0.3404  0.2184
  910MOL0     H20065   5.508  10.834   3.634 -0.3531 -0.2103  0.4529
  910MOL0     H20066   5.447  10.778   3.477 -0.6311 -2.8268 -1.2031
  910MOL0     H20067   5.653  10.660   3.433 -3.0107  0.4298 -0.7419
  910MOL0     H20068   5.701  10.681   3.602 -0.3870 -1.0431 -0.9382
  910MOL0     H20069   5.632  10.940   3.453 -3.1666 -2.8728  2.5926
  910MOL0     H20070   5.767  10.917   3.563 -1.5735 -3.6561  3.7507
  910MOL0     H20071   5.831  10.946   3.315 -0.8798  1.2130 -0.9578
  910MOL0     H20072   5.752  10.789   3.282 -1.1779  0.9117 -0.5125
  910MOL0     H20073   6.060  10.940   3.447 -1.3660  0.8318  0.6242
  910MOL0     H20074   6.294  10.698   3.589  0.7544  1.6423  2.4468
  910MOL0     H20075   6.261  10.864   3.564 -0.2629 -1.1170  1.5816
  910MOL0     H20076   6.390  10.664   3.379  0.3249  0.8990  1.2142
  910MOL0     H20077   6.471  10.817   3.444  1.4333  0.9260  0.3366
  910MOL0     H20078   6.262  10.773   3.220  0.6386 -0.1500 -1.3079
  910MOL0     H20079   6.275  10.937   3.299 -0.1026  0.2390  0.3043
  910MOL0     H20080   6.519  10.927   3.229  1.7340 -0.6740 -0.8963
  910MOL0     H20081   6.435  10.917   3.081  1.8712  1.8808 -0.0524
  910MOL0     H20082   6.627  10.690   3.399 -0.0059  1.1686 -0.7878
  910MOL0     H20083   6.884  10.642   3.417 -0.6820 -4.3367 -2.8373
  910MOL0     H20084   7.324  10.613   3.308  0.8282 -2.6701 -2.1869
  910MOL0     H20085   7.580  10.620   3.274 -1.5582  0.3837  0.7663
  910MOL0     H20086   7.760  10.821   2.926  0.8931  1.1486 -0.5573
  910MOL0     H20087   7.887  10.823   3.038  0.3414  2.0079 -2.3979
  910MOL0     H20088   7.783  11.001   3.157  0.8680 -1.2460  0.1352
  910MOL0     H20089   7.674  11.031   3.008  0.9147 -0.2750  0.4616
  910MOL0     H20090   7.859  11.058   2.863  0.0170 -3.1587  0.8993
  910MOL0     H20091   7.980  11.036   2.983  0.4786  0.4243 -2.7584
  910MOL0     H20092   7.864  11.241   3.109 -1.0468  0.9034  0.1532
  910MOL0     H20093   7.976  11.268   2.970 -0.6120  2.0927  0.5402
  910MOL0     H20094   7.683  11.233   2.997  1.7035 -1.5232  0.3659
  910MOL0     H20095   7.730  11.295   2.847  0.8558  1.0766 -0.2738
  910MOL0     H20096   7.796  11.501   2.938  1.8648 -2.3905  0.3563
  910MOL0     H20097   7.780  11.452   3.107  2.2531 -0.1687 -0.2321
  910MOL0     H20098   7.541  11.418   2.912  2.0740  0.3777 -0.1886
  910MOL0     H20099   7.534  11.399   3.087  1.3284  0.4834  1.9266
  910MOL0     H20100   7.550  11.674   2.951  0.8041 -2.2573 -1.2737
  910MOL0     H20101   7.581  11.640   3.132 -2.2076  1.1255  1.6537
  910MOL0     H20102   7.518  10.916   2.985  2.6009  0.1578  1.7210
  910MOL0     H20103   7.289  10.910   3.004 -0.4238  0.0814  0.4710
  910MOL0     H20104   6.935  10.801   3.034 -0.8669  0.4137 -0.9992
  910MOL0     H20105   6.689  10.782   2.983  2.0839  0.6730 -0.8673
  910MOL0     H20106   5.520  10.049   3.576  1.8953  1.2367  0.8031
  910MOL0     H20107   5.620   9.914   3.764 -0.4084 -0.7596  1.0332
  910MOL0     H20108   5.539   9.849   4.249 -0.4653  1.8845 -3.5384
  910MOL0     H20109   5.629   9.689   4.426  1.5381  0.5607  1.6938
  910MOL0     H20110   5.752   9.698   4.593  2.8085  3.2195 -2.2651
  910MOL0     H20111   5.921   9.656   4.645  2.0517  0.1163 -2.7201
  910MOL0     H20112   5.858   9.420   4.648 -3.2544 -3.1786  1.5314
  910MOL0     H20113   5.730   9.511   4.729  1.3873  2.3534  0.1629
  910MOL0     H20114   5.691   9.308   4.542  0.7570 -0.2597 -3.3037
  910MOL0     H20115   5.704   9.456   4.437 -3.2206  0.9068 -0.5832
  910MOL0     H20116   5.501   9.548   4.546 -0.4556  0.5239  2.0761
  910MOL0     H20117   5.495   9.384   4.470 -0.9447  1.3502  0.1520
  910MOL0     H20118   5.426   9.316   4.893 -2.1974  2.3612 -0.2840
  910MOL0     H20119   6.015   9.736   4.258  0.2262  1.9620  0.1604
  910MOL0     H20120   5.926   9.866   4.078  0.8692  0.1979  0.5235
  911MOL0     O20121   0.019   6.345   5.224  0.3183 -0.0853 -0.1540
  911MOL0     C20122   0.026   6.270   5.126  0.9017  0.7046  0.8322
  911MOL0     O20123  -0.037   6.148   5.121 -0.0295 -0.0909 -0.5157
  911MOL0     C20124  -0.097   6.097   5.230 -0.2413  0.2014 -0.6936
  911MOL0     C20125  -0.219   6.150   5.275 -0.4957  0.3293 -0.1205
  911MOL0     C20126  -0.296   6.090   5.372 -0.4174 -0.0804  1.2224
  911MOL0     C20127  -0.230   5.982   5.437  0.3085 -0.1394  0.0166
  911MOL0     O20128  -0.292   5.951   5.553  0.3817 -0.1199  0.9915
  911MOL0     C20129  -0.208   5.888   5.649 -0.4571  0.2416 -0.6265
  911MOL0     C20130  -0.252   5.898   5.795  0.0968 -0.5085 -0.2874
  911MOL0     C20131  -0.354   5.798   5.846 -0.1365 -0.2769  0.0296
  911MOL0     C20132  -0.321   5.652   5.806 -0.1524  0.0456 -0.0339
  911MOL0     C20133  -0.386   5.553   5.908 -0.5484  0.8847 -0.0333
  911MOL0     C20134  -0.330   5.541   6.042 -0.0074 -0.7059 -0.8245
  911MOL0     C20135  -0.353   5.403   6.122  0.2941 -0.8175  0.6057
  911MOL0     C20136  -0.495   5.338   6.119  0.6012 -0.5569 -0.2500
  911MOL0     N20137  -0.589   5.422   6.194  0.0918  0.9941 -1.2620
  911MOL0     C20138  -0.586   5.431   6.334 -0.3411 -0.3715  0.1533
  911MOL0     C20139  -0.693   5.516   6.358 -0.4364 -0.7442 -0.0575
  911MOL0     C20140  -0.749   5.568   6.493 -0.1298 -1.0966  0.1757
  911MOL0     C20141  -0.842   5.470   6.554 -0.7491  0.7824  0.7516
  911MOL0     C20142  -0.867   5.513   6.699  0.9977  0.5231  0.1377
  911MOL0     C20143  -0.990   5.450   6.769 -0.1569  0.0228 -1.0931
  911MOL0     O20144  -1.104   5.452   6.679  0.2878  0.4821  0.2535
  911MOL0     C20145  -1.213   5.373   6.724  0.6630 -0.1138  0.1222
  911MOL0     C20146  -1.217   5.319   6.848  0.5001 -0.0830  0.1371
  911MOL0     C20147  -1.325   5.240   6.888 -0.4330 -1.1181 -0.9726
  911MOL0     C20148  -1.430   5.198   6.800 -0.0839 -1.2797  0.0307
  911MOL0     C20149  -1.517   5.074   6.809  0.0154 -0.1209  0.2297
  911MOL0     O20150  -1.496   5.003   6.926  0.6439 -0.2514  0.2472
  911MOL0     C20151  -1.535   4.873   6.932  0.3634  0.0804 -0.5363
  911MOL0     C20152  -1.650   4.818   6.875  0.0022 -0.3973  0.1291
  911MOL0     C20153  -1.679   4.683   6.895  0.5935 -0.1503  0.9875
  911MOL0     C20154  -1.602   4.603   6.973 -0.7151  0.4083  0.5052
  911MOL0     O20155  -1.653   4.481   7.008  0.8278  1.1568 -0.2341
  911MOL0     C20156  -1.560   4.398   7.087  0.7537 -0.3237  0.3811
  911MOL0     C20157  -1.642   4.272   7.141 -0.5913  0.4194  1.1257
  911MOL0     C20158  -1.553   4.171   7.237  0.1830 -0.3567  0.3159
  911MOL0     C20159  -1.442   4.103   7.162 -0.9522  1.6566 -0.0561
  911MOL0     C20160  -1.322   4.075   7.258 -0.2159  0.0042 -0.0210
  911MOL0     C20161  -1.204   4.015   7.194  0.2108 -0.2490 -0.8873
  911MOL0     C20162  -1.131   4.116   7.106  0.1055 -0.1862  0.7138
  911MOL0     C20163  -1.042   4.035   7.019 -1.0167 -0.3923 -0.4829
  911MOL0    Cl20164  -0.920   3.956   7.125  0.1503 -0.5401 -0.6081
  911MOL0     C20165  -1.481   4.652   7.021 -0.3057 -0.2371 -0.1283
  911MOL0     C20166  -1.461   4.794   7.010 -0.4283  0.2347 -0.9317
  911MOL0     O20167  -1.589   5.044   6.719  0.0973  0.2358 -0.3465
  911MOL0     C20168  -1.423   5.273   6.678 -0.2569 -0.0574  0.3301
  911MOL0     C20169  -1.322   5.360   6.641  0.1399  0.7453 -1.0352
  911MOL0     N20170  -0.741   5.565   6.238 -0.2656  0.0371  0.6413
  911MOL0     N20171  -0.685   5.500   6.140  0.2860 -0.5668 -0.1198
  911MOL0     C20172  -0.106   5.939   5.397 -0.2996 -0.2173  0.0814
  911MOL0     C20173  -0.048   5.985   5.287 -0.2673 -0.3513  0.6053
  911MOL0     C20174   0.107   6.307   5.009 -0.3814 -0.2355  1.1189
  911MOL0     C20175   0.150   6.441   4.995  1.3140  0.4363  0.0006
  911MOL0     C20176   0.237   6.488   4.892  0.5930 -0.3020  0.6786
  911MOL0     C20177   0.270   6.401   4.791 -1.2301  0.9655  0.3458
  911MOL0     O20178   0.363   6.427   4.694 -0.3902  0.4617  0.1286
  911MOL0     C20179   0.459   6.537   4.710  0.7183  0.2393  1.3582
  911MOL0     C20180   0.377   6.661   4.651 -0.3895 -1.1263 -0.5228
  911MOL0     C20181   0.475   6.783   4.632 -0.0939  0.0020 -0.0717
  911MOL0     C20182   0.559   6.785   4.497 -0.4551 -1.0131  0.1730
  911MOL0     C20183   0.567   6.924   4.444 -0.0926 -1.0005  0.7835
  911MOL0     C20184   0.604   7.034   4.414  0.4108  0.0942  1.3910
  911MOL0     C20185   0.221   6.272   4.791 -0.1748 -0.5699  0.5291
  911MOL0     C20186   0.144   6.219   4.900  0.6305 -1.3629 -1.0312
  911MOL0     H20187  -0.267   6.229   5.218 -0.0119 -0.6339 -1.9303
  911MOL0     H20188  -0.391   6.127   5.409 -0.2351  0.7844  0.8650
  911MOL0     H20189  -0.104   5.923   5.646 -0.5521  0.9547  1.7826
  911MOL0     H20190  -0.208   5.782   5.620  0.8578  0.9096 -3.2964
  911MOL0     H20191  -0.291   5.999   5.810  1.3784  0.0164 -0.3221
  911MOL0     H20192  -0.157   5.890   5.850  1.1902 -2.9431 -2.3380
  911MOL0     H20193  -0.449   5.825   5.798 -0.2157 -2.0070 -0.8624
  911MOL0     H20194  -0.367   5.803   5.954 -1.0693 -0.1282 -0.0851
  911MOL0     H20195  -0.346   5.629   5.702  2.4922 -2.7957 -0.1810
  911MOL0     H20196  -0.212   5.649   5.811 -0.1814  0.4113  1.3054
  911MOL0     H20197  -0.377   5.448   5.876 -0.2059  1.0288 -0.4184
  911MOL0     H20198  -0.494   5.568   5.914 -0.5986  2.1902 -2.8197
  911MOL0     H20199  -0.367   5.623   6.104  2.3038  0.8982 -1.4363
  911MOL0     H20200  -0.222   5.552   6.033  0.3426 -1.2822  1.8527
  911MOL0     H20201  -0.276   5.329   6.097  2.6409  1.4442  0.6930
  911MOL0     H20202  -0.339   5.438   6.225  0.9330 -0.6627  0.4723
  911MOL0     H20203  -0.494   5.237   6.162 -1.3436  0.0640  1.4127
  911MOL0     H20204  -0.516   5.332   6.012  3.7570  0.1556 -1.0163
  911MOL0     H20205  -0.526   5.387   6.414 -0.1520 -0.3019  0.0519
  911MOL0     H20206  -0.804   5.662   6.482  1.7341 -0.1570 -1.7790
  911MOL0     H20207  -0.664   5.583   6.560 -0.2795  1.6301 -0.1313
  911MOL0     H20208  -0.796   5.371   6.563  1.3630  1.5692 -0.7405
  911MOL0     H20209  -0.934   5.466   6.494 -1.5895  4.1067  1.6373
  911MOL0     H20210  -0.782   5.483   6.762 -0.1314 -1.0890  0.9795
  911MOL0     H20211  -0.879   5.622   6.701  0.5361  0.4646  1.8499
  911MOL0     H20212  -1.001   5.491   6.869  1.5854 -0.7804 -0.5214
  911MOL0     H20213  -0.973   5.342   6.769  2.8973  0.4036 -0.9411
  911MOL0     H20214  -1.151   5.346   6.929 -0.4028 -3.4668  2.2082
  911MOL0     H20215  -1.322   5.196   6.987  0.2457  0.2550 -0.3484
  911MOL0     H20216  -1.716   4.881   6.816 -0.0146  0.8638  1.4476
  911MOL0     H20217  -1.764   4.638   6.845  0.7055 -1.2847  1.7896
  911MOL0     H20218  -1.519   4.456   7.170 -0.7552  0.0868  0.8740
  911MOL0     H20219  -1.477   4.364   7.024  1.5929  1.4520  0.4812
  911MOL0     H20220  -1.677   4.212   7.057  0.8822 -0.5740  1.1690
  911MOL0     H20221  -1.725   4.300   7.206 -3.0690  0.4007 -1.8305
  911MOL0     H20222  -1.614   4.096   7.289 -4.3993  3.2113  0.7747
  911MOL0     H20223  -1.512   4.241   7.312  0.7997  2.4287 -2.3988
  911MOL0     H20224  -1.473   4.008   7.116  1.2269 -1.7416  4.6602
  911MOL0     H20225  -1.403   4.167   7.082 -1.4980 -1.5944 -3.2145
  911MOL0     H20226  -1.354   4.008   7.338 -1.5976  0.3979 -0.2274
  911MOL0     H20227  -1.301   4.176   7.296  0.5124 -0.4706  0.8536
  911MOL0     H20228  -1.242   3.933   7.132 -1.2282  0.5449 -1.0972
  911MOL0     H20229  -1.140   3.980   7.275 -0.6431 -0.7920 -0.4417
  911MOL0     H20230  -1.198   4.162   7.033 -0.2824  0.0623  1.2140
  911MOL0     H20231  -1.072   4.185   7.168  0.0533  0.9241 -0.4344
  911MOL0     H20232  -0.977   4.108   6.970  3.0182 -1.8582  2.1268
  911MOL0     H20233  -1.097   3.972   6.948 -1.3806 -0.2481 -0.3322
  911MOL0     H20234  -1.399   4.608   7.078  2.1375  2.0990 -1.5659
  911MOL0     H20235  -1.375   4.831   7.065 -1.3078 -0.4857  1.0108
  911MOL0     H20236  -1.495   5.250   6.600  0.2042  2.2427 -0.8501
  911MOL0     H20237  -1.313   5.413   6.546 -2.6285  0.3513 -1.5818
  911MOL0     H20238  -0.047   5.861   5.444 -1.3174 -1.0098  0.0725
  911MOL0     H20239   0.049   5.951   5.253  0.0216  1.9182 -1.0889
  911MOL0     H20240   0.128   6.521   5.065  0.3904  1.1206 -1.0373
  911MOL0     H20241   0.276   6.589   4.892  0.1369 -0.1242  0.9525
  911MOL0     H20242   0.547   6.514   4.650 -0.3826 -0.4182 -0.0792
  911MOL0     H20243   0.505   6.541   4.809  2.3314 -1.9301  0.7683
  911MOL0     H20244   0.319   6.644   4.560 -2.2284 -0.8157  0.5560
  911MOL0     H20245   0.314   6.695   4.734  1.1968  0.2787  0.1758
  911MOL0     H20246   0.534   6.807   4.720 -0.0764  1.0093 -0.3497
  911MOL0     H20247   0.410   6.871   4.627  0.9819  0.7936 -0.4033
  911MOL0     H20248   0.659   6.744   4.511  0.9115  1.4520 -1.5701
  911MOL0     H20249   0.509   6.726   4.420 -5.7405 -0.5795  2.8253
  911MOL0     H20250   0.624   7.134   4.380  0.2046 -0.7636 -1.5812
  911MOL0     H20251   0.248   6.206   4.709 -0.0345 -0.7992  0.7555
  911MOL0     H20252   0.104   6.119   4.915 -0.6591 -0.4850  2.1584
  912MOL0     O20253   9.173   1.228   7.397 -0.1756  0.5850  0.1276
  912MOL0     C20254   9.188   1.109   7.431  0.4309  0.0180 -0.4275
  912MOL0     O20255   9.213   1.070   7.559 -0.6874 -0.2668 -0.5175
  912MOL0     C20256   9.249   1.159   7.652  0.3336  1.0988 -0.3630
  912MOL0     C20257   9.356   1.244   7.633 -0.0407 -0.2331  0.0364
  912MOL0     C20258   9.410   1.316   7.748  0.2911  0.3881  0.8677
  912MOL0     C20259   9.372   1.286   7.874  0.6480  0.3306 -0.1919
  912MOL0     O20260   9.430   1.330   7.980 -0.0971 -0.4587  0.2428
  912MOL0     C20261   9.353   1.432   8.041  0.0000  0.3743  0.3627
  912MOL0     C20262   9.430   1.563   8.032 -0.2797  0.9435  0.6020
  912MOL0     C20263   9.352   1.699   8.013  0.4382  0.8392 -0.5994
  912MOL0     C20264   9.304   1.726   8.157 -0.8061  0.4202  1.0835
  912MOL0     C20265   9.243   1.879   8.181  0.0408  0.3887  0.3758
  912MOL0     C20266   9.117   1.903   8.104  0.6866 -0.2377  0.3809
  912MOL0     C20267   9.066   2.046   8.108  0.3734  0.5784 -0.1152
  912MOL0     C20268   8.924   2.062   8.068  0.6218  0.0749 -0.1857
  912MOL0     N20269   8.840   1.984   8.163  0.6156 -0.5445  0.6238
  912MOL0     C20270   8.808   2.028   8.287 -0.2269  0.1291  0.2577
  912MOL0     C20271   8.723   1.921   8.324  0.3780  0.6511  0.8452
  912MOL0     C20272   8.675   1.922   8.463  0.3027 -0.0589 -0.1430
  912MOL0     C20273   8.552   1.836   8.487 -0.0629 -0.1743  0.2638
  912MOL0     C20274   8.546   1.780   8.643 -0.7704 -0.6392  0.3333
  912MOL0     C20275   8.435   1.688   8.668 -0.0816  0.1897  0.3858
  912MOL0     O20276   8.439   1.624   8.800  0.4527  0.0767  0.1066
  912MOL0     C20277   8.326   1.581   8.854 -0.1739 -0.4725  0.2383
  912MOL0     C20278   8.246   1.670   8.925 -0.2411 -0.3174 -0.7471
  912MOL0     C20279   8.124   1.620   8.980 -0.5603  0.3682 -0.3347
  912MOL0     C20280   8.086   1.484   8.968  0.5542  0.9402 -1.0820
  912MOL0     C20281   7.970   1.425   9.041 -0.0215  0.7633 -0.4606
  912MOL0     O20282   7.915   1.306   9.005  0.1834 -0.2667 -0.1010
  912MOL0     C20283   7.819   1.248   9.089 -0.8467  0.2967 -0.6168
  912MOL0     C20284   7.838   1.123   9.148  0.6049  0.3545 -0.0873
  912MOL0     C20285   7.740   1.058   9.228 -1.2382 -0.0103  0.8461
  912MOL0     C20286   7.614   1.116   9.254 -0.7023 -0.7492 -0.4057
  912MOL0     O20287   7.516   1.062   9.334 -0.2780  0.7267 -0.1465
  912MOL0     C20288   7.551   0.978   9.449 -0.6014 -1.1459  0.8692
  912MOL0     C20289   7.488   1.016   9.574  0.7716 -0.5514 -0.1730
  912MOL0     C20290   7.509   1.157   9.616  0.1852 -0.9034 -0.2601
  912MOL0     C20291   7.485   1.160   9.767 -0.5740  0.6692  1.1680
  912MOL0     C20292   7.492   1.297   9.826 -0.8748  0.3533 -0.0833
  912MOL0     C20293   7.364   1.379   9.812 -0.3431 -0.5607  0.2657
  912MOL0     C20294   7.379   1.518   9.883 -0.2180 -0.1414 -0.3271
  912MOL0     C20295   7.255   1.605   9.873  0.5026  0.0396 -0.3539
  912MOL0    Cl20296   7.111   1.510   9.933 -0.1207 -0.0045  0.1679
  912MOL0     C20297   7.601   1.245   9.186  0.0882 -1.3409 -1.0516
  912MOL0     C20298   7.695   1.306   9.109  0.2102 -0.3064  0.1231
  912MOL0     O20299   7.916   1.504   9.118  0.0815  0.8289 -0.1310
  912MOL0     C20300   8.171   1.399   8.898 -0.5667 -0.2258 -0.6566
  912MOL0     C20301   8.282   1.445   8.834  0.1998  0.9244  0.1942
  912MOL0     N20302   8.711   1.828   8.226  0.0418  0.0336  0.4324
  912MOL0     N20303   8.781   1.866   8.131 -0.0191  0.4844  0.3374
  912MOL0     C20304   9.272   1.192   7.891 -0.2784 -0.3318 -0.6159
  912MOL0     C20305   9.205   1.135   7.782 -0.5695  0.0993 -0.1649
  912MOL0     C20306   9.162   1.006   7.334  0.2142 -0.2547 -0.9536
  912MOL0     C20307   9.122   1.034   7.205  0.0277  0.5326 -0.2262
  912MOL0     C20308   9.092   0.931   7.109  0.1453  0.5344  0.3009
  912MOL0     C20309   9.100   0.795   7.158  0.5161  0.1728  0.7779
  912MOL0     O20310   9.076   0.687   7.070 -0.1121  0.5780 -0.7356
  912MOL0     C20311   9.058   0.705   6.931 -0.0174  0.9989  0.5000
  912MOL0     C20312   8.902   0.706   6.905 -0.4145 -0.0813  0.2357
  912MOL0     C20313   8.874   0.791   6.773  0.7640 -0.5877 -0.6463
  912MOL0     C20314   8.862   0.723   6.634 -1.2435  0.2041  0.2937
  912MOL0     C20315   8.961   0.618   6.610  0.3958 -1.0492 -1.1634
  912MOL0     C20316   9.040   0.529   6.608 -0.3176  0.3501 -0.3827
  912MOL0     C20317   9.139   0.775   7.291  0.3237 -0.2489 -0.9895
  912MOL0     C20318   9.164   0.873   7.383  0.4692 -0.5156  0.0284
  912MOL0     H20319   9.407   1.251   7.538  1.8971  1.1528  1.1082
  912MOL0     H20320   9.496   1.382   7.744  1.7728 -1.4472  0.6119
  912MOL0     H20321   9.330   1.409   8.146 -2.6224 -1.6124 -0.5286
  912MOL0     H20322   9.257   1.449   7.990  0.7171  2.1700 -0.4947
  912MOL0     H20323   9.489   1.555   7.941  0.9470  3.8281  1.0159
  912MOL0     H20324   9.506   1.562   8.111 -0.8404  1.2561  1.1575
  912MOL0     H20325   9.267   1.699   7.945  0.3864  0.9285 -0.5337
  912MOL0     H20326   9.424   1.778   7.990 -1.8170  2.6295 -1.9249
  912MOL0     H20327   9.235   1.655   8.202  0.0346 -0.9383  0.3021
  912MOL0     H20328   9.387   1.730   8.228 -0.4226  0.3984  0.6455
  912MOL0     H20329   9.318   1.955   8.156  1.8549 -1.1947  0.7258
  912MOL0     H20330   9.228   1.882   8.289 -0.4785 -3.4937  0.5468
  912MOL0     H20331   9.044   1.849   8.165 -0.6641  0.1937 -0.7993
  912MOL0     H20332   9.110   1.858   8.005  1.3377  0.4361  0.0151
  912MOL0     H20333   9.064   2.082   8.211 -0.9907  0.8519 -0.2117
  912MOL0     H20334   9.133   2.112   8.053  0.6403  2.9379  2.8166
  912MOL0     H20335   8.916   2.027   7.964 -0.3923 -0.0823 -0.0682
  912MOL0     H20336   8.878   2.162   8.066 -1.4021 -0.7816 -2.6400
  912MOL0     H20337   8.854   2.109   8.342  1.2502 -1.8146  2.0753
  912MOL0     H20338   8.662   2.028   8.484  1.5397  0.2745 -0.9255
  912MOL0     H20339   8.756   1.882   8.524 -0.2221  0.1178  0.6750
  912MOL0     H20340   8.545   1.757   8.412 -0.1518 -1.0291  1.1546
  912MOL0     H20341   8.462   1.896   8.471  0.3737  0.6341  0.7779
  912MOL0     H20342   8.641   1.730   8.663  0.9520  3.2605  3.5372
  912MOL0     H20343   8.538   1.856   8.722  0.5500  0.3529 -0.4382
  912MOL0     H20344   8.453   1.609   8.594  4.9998 -0.2437  1.7239
  912MOL0     H20345   8.339   1.739   8.655 -0.0583 -0.0314 -0.7069
  912MOL0     H20346   8.291   1.768   8.942  0.6963 -1.0118  1.1209
  912MOL0     H20347   8.063   1.683   9.043 -2.0860 -0.1953 -1.1959
  912MOL0     H20348   7.924   1.061   9.123  0.9334  0.0571  1.6873
  912MOL0     H20349   7.766   0.959   9.264  0.6327  0.1614  0.0734
  912MOL0     H20350   7.658   0.987   9.469 -0.0151  0.5898 -2.4117
  912MOL0     H20351   7.525   0.873   9.430  1.7303 -2.4366  3.8945
  912MOL0     H20352   7.530   0.950   9.651  2.5622 -1.4960 -1.8745
  912MOL0     H20353   7.382   0.993   9.560  0.1391  1.6320  0.5952
  912MOL0     H20354   7.443   1.219   9.554  1.1787  0.9680  0.4678
  912MOL0     H20355   7.612   1.185   9.592  0.1361  2.6688  2.6864
  912MOL0     H20356   7.388   1.115   9.788 -1.1853  0.5822 -1.4921
  912MOL0     H20357   7.572   1.110   9.810  0.9718 -1.2440 -3.5422
  912MOL0     H20358   7.575   1.356   9.785  0.5248 -1.0315  0.6681
  912MOL0     H20359   7.503   1.285   9.935 -0.0816  0.6514 -0.1240
  912MOL0     H20360   7.292   1.312   9.859  2.2018 -1.7511  2.7782
  912MOL0     H20361   7.331   1.386   9.708 -0.8606 -0.3751  0.4395
  912MOL0     H20362   7.407   1.500   9.987  0.5476  0.0304 -0.4936
  912MOL0     H20363   7.461   1.571   9.833 -1.2831  0.3328 -1.6308
  912MOL0     H20364   7.244   1.643   9.771 -1.5519 -1.2307 -0.6555
  912MOL0     H20365   7.260   1.687   9.945 -0.8864  0.5375 -0.7921
  912MOL0     H20366   7.506   1.297   9.197  2.5782  4.0082 -1.8623
  912MOL0     H20367   7.665   1.403   9.070 -0.9205 -0.7292 -0.0804
  912MOL0     H20368   8.139   1.297   8.878 -1.7250 -0.9992  3.9692
  912MOL0     H20369   8.344   1.373   8.781  2.1423  2.4834  0.2486
  912MOL0     H20370   9.243   1.180   7.995  1.4456  3.2434  0.4506
  912MOL0     H20371   9.122   1.066   7.798 -0.5674 -0.0682 -0.8649
  912MOL0     H20372   9.111   1.137   7.175  1.1728  0.7196 -0.0545
  912MOL0     H20373   9.054   0.953   7.009 -4.0413  0.4741  1.6535
  912MOL0     H20374   9.095   0.618   6.876  1.4071  1.4063  0.7759
  912MOL0     H20375   9.115   0.788   6.887  1.4772 -1.0875 -1.7832
  912MOL0     H20376   8.856   0.607   6.905 -2.3022  0.7451  0.3761
  912MOL0     H20377   8.859   0.773   6.980 -3.7153 -0.1483 -1.3758
  912MOL0     H20378   8.956   0.864   6.776  1.0307 -0.9025  2.1273
  912MOL0     H20379   8.794   0.865   6.777 -2.2481 -3.5412 -1.4679
  912MOL0     H20380   8.766   0.671   6.639 -1.0768 -0.0108  3.3472
  912MOL0     H20381   8.858   0.790   6.548 -1.8215  0.0774  0.2187
  912MOL0     H20382   9.113   0.453   6.587 -1.0434 -0.0092 -1.7013
  912MOL0     H20383   9.134   0.674   7.332 -0.3148  0.1037 -0.1742
  912MOL0     H20384   9.184   0.851   7.487  2.2113  1.1107  0.0765
  913MOL0     O20385   5.603   2.972   3.481 -0.5879 -0.1635  0.2904
  913MOL0     C20386   5.691   2.901   3.438  0.1108  0.2821  0.6438
  913MOL0     O20387   5.802   2.937   3.366 -0.7177  0.0599  0.7280
  913MOL0     C20388   5.820   3.068   3.349 -0.5461 -0.1670 -0.2633
  913MOL0     C20389   5.906   3.142   3.431 -0.6161 -0.8658 -1.3365
  913MOL0     C20390   5.920   3.283   3.413  0.1814  0.0053 -0.5154
  913MOL0     C20391   5.851   3.349   3.314  0.7436 -0.8134  0.8496
  913MOL0     O20392   5.856   3.485   3.307  0.1788 -0.3812  0.3634
  913MOL0     C20393   5.776   3.553   3.213  0.2928 -0.6794  0.5746
  913MOL0     C20394   5.762   3.702   3.260 -0.0692  0.4248 -0.7504
  913MOL0     C20395   5.719   3.801   3.153 -0.1175 -0.3367 -0.4524
  913MOL0     C20396   5.672   3.942   3.193 -0.6925  0.7270 -1.5587
  913MOL0     C20397   5.604   4.009   3.082  0.3034 -0.4882  0.3207
  913MOL0     C20398   5.552   4.149   3.113  0.5038 -0.4360  0.2729
  913MOL0     C20399   5.495   4.205   2.984  0.3058 -1.5866  0.1643
  913MOL0     C20400   5.495   4.354   2.975 -0.2529 -0.1686  0.8778
  913MOL0     N20401   5.484   4.413   2.836 -0.9105 -0.0475 -0.2628
  913MOL0     C20402   5.505   4.350   2.716  1.5369 -0.8222  0.1915
  913MOL0     C20403   5.446   4.418   2.614 -0.0439 -0.2754 -0.7123
  913MOL0     C20404   5.446   4.406   2.462 -1.0969 -0.2539 -0.8494
  913MOL0     C20405   5.342   4.300   2.420 -0.1137  0.0580 -0.0572
  913MOL0     C20406   5.392   4.160   2.427  0.3990  0.3105 -0.2210
  913MOL0     C20407   5.284   4.053   2.428 -0.6633 -0.1092 -0.3422
  913MOL0     O20408   5.340   3.918   2.404  0.3081 -0.0381 -0.8100
  913MOL0     C20409   5.261   3.810   2.437  0.3634 -0.1311  0.6608
  913MOL0     C20410   5.136   3.813   2.501 -0.2280  0.2660  0.4204
  913MOL0     C20411   5.058   3.693   2.510 -0.8121 -1.2891 -0.6283
  913MOL0     C20412   5.107   3.571   2.473 -0.2493 -0.1611 -0.6782
  913MOL0     C20413   5.021   3.453   2.509 -1.1554  1.3429  0.0989
  913MOL0     O20414   4.882   3.470   2.509  0.0806 -0.2733 -0.0016
  913MOL0     C20415   4.803   3.359   2.517 -0.9061 -0.9416 -0.4837
  913MOL0     C20416   4.698   3.355   2.611  0.2527 -0.5512 -0.0525
  913MOL0     C20417   4.614   3.247   2.611 -0.6142  0.6660 -1.0789
  913MOL0     C20418   4.634   3.138   2.532 -0.6696  1.1029 -0.4564
  913MOL0     O20419   4.544   3.037   2.534 -0.2141  0.0436 -0.4641
  913MOL0     C20420   4.512   2.969   2.408 -0.5610 -0.0655  0.0357
  913MOL0     C20421   4.395   2.871   2.434 -0.4471  0.8994  0.5084
  913MOL0     C20422   4.302   2.858   2.309  1.1832  0.9373  0.8710
  913MOL0     C20423   4.363   2.791   2.181 -0.2551  0.6012  0.3322
  913MOL0     C20424   4.268   2.755   2.057  0.7008  0.6695 -0.5182
  913MOL0     C20425   4.131   2.697   2.107 -0.1890 -0.2333  0.4700
  913MOL0     C20426   4.065   2.603   2.004 -0.2092  1.2156  0.3244
  913MOL0     C20427   3.920   2.565   2.029 -0.9740 -0.4394  0.4676
  913MOL0    Cl20428   3.803   2.706   2.055  0.0287  0.4582  0.3933
  913MOL0     C20429   4.740   3.147   2.443 -0.7965  1.1653 -0.4168
  913MOL0     C20430   4.819   3.260   2.428  0.2183  0.1259  0.2219
  913MOL0     O20431   5.082   3.342   2.511 -0.1810  0.9348  0.0117
  913MOL0     C20432   5.247   3.559   2.435 -0.5570  0.0820 -0.4030
  913MOL0     C20433   5.314   3.684   2.408 -0.0051  0.2077  0.6615
  913MOL0     N20434   5.404   4.535   2.681 -0.5856 -0.6209 -0.0280
  913MOL0     N20435   5.432   4.535   2.811  1.1409 -0.2027 -0.1176
  913MOL0     C20436   5.772   3.272   3.226 -0.7086 -0.7553 -0.6599
  913MOL0     C20437   5.760   3.139   3.249  0.0018  0.0270  0.2265
  913MOL0     C20438   5.661   2.756   3.458 -0.2489  0.6170 -0.1697
  913MOL0     C20439   5.551   2.711   3.527  0.3632 -0.6956 -0.8273
  913MOL0     C20440   5.514   2.577   3.526  0.2221 -0.1459 -0.0591
  913MOL0     C20441   5.589   2.479   3.455  1.0814  0.2751 -0.1744
  913MOL0     O20442   5.567   2.342   3.449 -0.3470 -1.1111  0.0182
  913MOL0     C20443   5.459   2.291   3.371  0.0577  0.5749  1.1238
  913MOL0     C20444   5.432   2.155   3.412 -0.0282  0.2549 -0.8099
  913MOL0     C20445   5.542   2.060   3.369  0.0225  1.5521  0.0775
  913MOL0     C20446   5.498   1.914   3.336  0.4519 -0.3407  0.6798
  913MOL0     C20447   5.462   1.857   3.462  0.9587  0.3047  0.6808
  913MOL0     C20448   5.426   1.791   3.556 -0.7740 -0.5290  0.0618
  913MOL0     C20449   5.709   2.519   3.401 -0.6986 -0.5564 -0.3564
  913MOL0     C20450   5.742   2.653   3.410  0.0517  0.1033  0.4369
  913MOL0     H20451   5.953   3.089   3.514 -0.2182  0.0235 -0.9741
  913MOL0     H20452   5.985   3.338   3.480  0.2520 -1.8665  1.0457
  913MOL0     H20453   5.671   3.524   3.217 -0.4522  1.2053 -2.2921
  913MOL0     H20454   5.825   3.536   3.117  1.5201  0.0979  1.0309
  913MOL0     H20455   5.859   3.733   3.299  0.3811  0.9614 -2.2389
  913MOL0     H20456   5.685   3.704   3.338  0.0482 -0.4790 -0.5996
  913MOL0     H20457   5.646   3.744   3.095  0.7303 -1.3209 -0.5837
  913MOL0     H20458   5.809   3.813   3.092  0.8406  3.0732  1.3772
  913MOL0     H20459   5.610   3.949   3.282  1.5613  0.0917  0.1365
  913MOL0     H20460   5.758   4.002   3.224  0.5256 -1.1718 -1.1109
  913MOL0     H20461   5.514   3.962   3.042 -1.6035  0.9975  2.6072
  913MOL0     H20462   5.679   4.004   3.002 -1.4432  1.2298 -1.5466
  913MOL0     H20463   5.633   4.209   3.155  1.8033 -1.5072 -0.6465
  913MOL0     H20464   5.474   4.145   3.191 -2.5988 -0.6704 -2.5935
  913MOL0     H20465   5.563   4.181   2.902 -1.4028 -1.2953 -1.4095
  913MOL0     H20466   5.404   4.151   2.959  1.6182 -2.8983 -2.0821
  913MOL0     H20467   5.587   4.392   3.020 -0.4916  2.2415 -0.5370
  913MOL0     H20468   5.412   4.405   3.025  0.8440  2.7253 -0.0907
  913MOL0     H20469   5.555   4.256   2.696  1.5367 -0.8145  0.1541
  913MOL0     H20470   5.547   4.379   2.429 -0.6925 -1.7332  1.4158
  913MOL0     H20471   5.410   4.498   2.416 -2.1831 -1.2097 -1.9851
  913MOL0     H20472   5.325   4.332   2.317 -0.0666  2.0722  0.5215
  913MOL0     H20473   5.259   4.314   2.489 -0.5378  2.5815 -0.9823
  913MOL0     H20474   5.430   4.135   2.327  1.8457 -2.3889  0.8896
  913MOL0     H20475   5.467   4.130   2.500  3.4203  2.1058 -2.3769
  913MOL0     H20476   5.201   4.084   2.364 -2.4977 -2.1199  0.9054
  913MOL0     H20477   5.252   4.046   2.533  0.0279  1.3534 -0.0120
  913MOL0     H20478   5.102   3.914   2.522  4.3418  2.7901 -2.5739
  913MOL0     H20479   4.957   3.695   2.550 -0.5892  0.0795 -0.0539
  913MOL0     H20480   4.694   3.450   2.663  2.5623  0.5166 -1.6475
  913MOL0     H20481   4.529   3.252   2.678  0.2070 -1.0778  0.1810
  913MOL0     H20482   4.599   2.912   2.373  0.1289  0.0661  1.4535
  913MOL0     H20483   4.485   3.044   2.334  0.6594  0.6732  0.3125
  913MOL0     H20484   4.339   2.898   2.524  2.6820 -0.2947  3.0225
  913MOL0     H20485   4.444   2.773   2.445 -2.2882 -0.4450 -2.1130
  913MOL0     H20486   4.259   2.955   2.286  1.7871  0.3671 -3.5527
  913MOL0     H20487   4.210   2.803   2.330  2.3132 -2.0075 -1.1413
  913MOL0     H20488   4.443   2.862   2.156 -1.0973  2.2969  2.1676
  913MOL0     H20489   4.416   2.697   2.199 -0.5153  0.5819  1.0028
  913MOL0     H20490   4.320   2.689   1.987 -0.5819 -1.6761  0.6266
  913MOL0     H20491   4.244   2.847   2.002 -1.2930  1.1115  0.9697
  913MOL0     H20492   4.060   2.776   2.134 -1.9970 -1.3644 -0.7457
  913MOL0     H20493   4.140   2.631   2.193  2.3226 -0.6993 -0.0780
  913MOL0     H20494   4.074   2.648   1.905 -2.1156  0.5268 -0.1998
  913MOL0     H20495   4.121   2.510   1.991  0.7556  2.0501 -2.0250
  913MOL0     H20496   3.917   2.498   2.116  0.3008  1.9397  2.4911
  913MOL0     H20497   3.884   2.512   1.941 -0.6808  0.8859 -0.4768
  913MOL0     H20498   4.769   3.054   2.394  0.0080 -0.5561  3.0249
  913MOL0     H20499   4.902   3.262   2.358 -0.8092  2.3560 -1.0396
  913MOL0     H20500   5.301   3.465   2.426  0.8536  0.4990  2.5137
  913MOL0     H20501   5.413   3.669   2.365 -0.2911 -0.2289  0.1581
  913MOL0     H20502   5.734   3.299   3.128  0.8235 -4.4902 -2.4683
  913MOL0     H20503   5.697   3.093   3.173 -0.3055  0.2595  0.3415
  913MOL0     H20504   5.478   2.773   3.579  0.0353 -3.1663  1.9575
  913MOL0     H20505   5.430   2.533   3.578  0.3463 -1.7774 -1.1567
  913MOL0     H20506   5.479   2.298   3.263 -3.6893  2.1581  0.3785
  913MOL0     H20507   5.367   2.349   3.375  0.8977  2.5058 -2.6505
  913MOL0     H20508   5.422   2.160   3.521  4.1552  0.0135 -0.2384
  913MOL0     H20509   5.336   2.115   3.381 -1.6619  2.7022  0.7483
  913MOL0     H20510   5.631   2.059   3.433  0.2660 -0.2872 -0.2199
  913MOL0     H20511   5.588   2.102   3.279  0.2798  1.5076  0.1863
  913MOL0     H20512   5.412   1.916   3.268  1.5900  0.0152 -0.8016
  913MOL0     H20513   5.579   1.859   3.286 -0.8316  0.1336 -2.1108
  913MOL0     H20514   5.396   1.736   3.642  3.7888 -0.2362  2.1315
  913MOL0     H20515   5.765   2.439   3.354  0.5744 -1.2485  2.1735
  913MOL0     H20516   5.839   2.673   3.364  1.6566 -1.3604  2.9711
  914MOL0     O20517   2.731   5.777   6.373  0.3599  0.3699 -0.1797
  914MOL0     C20518   2.669   5.867   6.433 -0.1371  0.1176  0.1739
  914MOL0     O20519   2.539   5.874   6.451  0.4711 -0.0374 -0.9243
  914MOL0     C20520   2.444   5.777   6.429  0.6473 -0.7145  0.7658
  914MOL0     C20521   2.471   5.641   6.386  0.1682 -0.2682 -0.0163
  914MOL0     C20522   2.364   5.555   6.367 -0.3767 -0.3309  1.0688
  914MOL0     C20523   2.237   5.598   6.389  0.0618 -0.0235  0.2966
  914MOL0     O20524   2.136   5.508   6.357  0.2620 -0.2609  0.3769
  914MOL0     C20525   2.022   5.497   6.451  0.4560 -0.6696  0.3099
  914MOL0     C20526   1.955   5.368   6.430 -0.5627 -0.2766  0.1001
  914MOL0     C20527   2.049   5.249   6.466  0.4020 -0.2557 -0.2160
  914MOL0     C20528   1.980   5.110   6.418 -0.0961  0.3177  0.6341
  914MOL0     C20529   2.058   4.988   6.461 -0.6513 -1.6334 -0.4246
  914MOL0     C20530   1.988   4.855   6.446  0.2403  0.5739  0.3578
  914MOL0     C20531   2.063   4.724   6.453 -0.0567  0.2241  0.3822
  914MOL0     C20532   2.189   4.729   6.365 -0.0211 -0.6655  0.9230
  914MOL0     N20533   2.254   4.592   6.347  0.1779 -0.3921  0.0117
  914MOL0     C20534   2.375   4.547   6.396 -0.9007 -0.6472  0.8980
  914MOL0     C20535   2.386   4.426   6.352  0.1161  0.5958  0.2280
  914MOL0     C20536   2.492   4.325   6.391  0.4893 -0.0775 -0.8744
  914MOL0     C20537   2.435   4.182   6.427  0.4767 -1.0453  0.0191
  914MOL0     C20538   2.396   4.185   6.575 -0.8106 -0.0460 -0.4587
  914MOL0     C20539   2.255   4.239   6.598 -0.8837  0.0877 -0.1935
  914MOL0     O20540   2.230   4.205   6.737  0.6336 -0.1143  0.1499
  914MOL0     C20541   2.136   4.272   6.805 -0.3908 -0.0478 -0.0506
  914MOL0     C20542   2.101   4.409   6.799  1.0338  1.3367 -0.4471
  914MOL0     C20543   2.010   4.465   6.877  0.1575 -0.0688 -0.5055
  914MOL0     C20544   1.939   4.387   6.974 -0.2665 -1.1177 -0.0347
  914MOL0     C20545   1.825   4.461   7.058 -0.7429  0.2908 -0.3526
  914MOL0     O20546   1.819   4.597   7.048 -0.7820  0.0233  1.7237
  914MOL0     C20547   1.735   4.675   7.124 -0.1988  0.0317 -0.0894
  914MOL0     C20548   1.767   4.815   7.125 -0.3467  0.5441 -0.6463
  914MOL0     C20549   1.700   4.912   7.204  0.1649  0.4384 -0.3564
  914MOL0     C20550   1.593   4.869   7.279  0.7621 -0.8554  0.5719
  914MOL0     O20551   1.551   4.970   7.356 -0.5783 -0.5377  1.3019
  914MOL0     C20552   1.434   5.043   7.308  0.2911  0.9150  0.1614
  914MOL0     C20553   1.430   5.179   7.363  0.0156  0.4078  0.4940
  914MOL0     C20554   1.297   5.257   7.356 -0.3044 -0.2634  1.0889
  914MOL0     C20555   1.344   5.404   7.357  0.2927 -0.2257  0.8911
  914MOL0     C20556   1.228   5.503   7.322 -0.8484  0.9351  0.8272
  914MOL0     C20557   1.288   5.644   7.329  0.4755  0.8764  0.2674
  914MOL0     C20558   1.335   5.720   7.459 -0.5453  0.1404  0.5526
  914MOL0     C20559   1.216   5.722   7.558  0.8282 -0.1464  1.0821
  914MOL0    Cl20560   1.237   5.863   7.671  0.5546 -0.4445 -0.0594
  914MOL0     C20561   1.548   4.743   7.270  0.3559 -0.1845 -0.6273
  914MOL0     C20562   1.613   4.641   7.188 -0.2341 -0.0629  0.4758
  914MOL0     O20563   1.739   4.386   7.111 -0.3755  0.3102 -0.0122
  914MOL0     C20564   1.968   4.250   6.990  0.2995  0.1128  0.5530
  914MOL0     C20565   2.068   4.196   6.905  0.1893 -0.2582 -0.0195
  914MOL0     N20566   2.267   4.394   6.281  0.3451  0.1996  0.3889
  914MOL0     N20567   2.200   4.499   6.268  0.3214  0.5761  0.2011
  914MOL0     C20568   2.209   5.726   6.436 -0.1116 -1.0830  0.8951
  914MOL0     C20569   2.309   5.820   6.454 -0.0499 -0.3883  0.7771
  914MOL0     C20570   2.753   5.985   6.475 -0.3676 -0.3600 -0.3918
  914MOL0     C20571   2.691   6.100   6.517  0.1244  0.1811 -0.0445
  914MOL0     C20572   2.759   6.222   6.556 -0.1779  0.2663  0.7159
  914MOL0     C20573   2.896   6.221   6.537  0.0387  0.5311  0.1283
  914MOL0     O20574   2.967   6.340   6.537 -1.0713 -0.1331 -0.4634
  914MOL0     C20575   2.963   6.403   6.410 -0.5133 -0.0829 -0.4615
  914MOL0     C20576   3.114   6.409   6.376 -0.4145 -0.1814 -0.4559
  914MOL0     C20577   3.118   6.516   6.258  0.3951  0.4120 -0.8019
  914MOL0     C20578   3.262   6.567   6.229  0.2289 -0.4544 -0.1833
  914MOL0     C20579   3.305   6.656   6.332  0.0756 -1.1065  0.0789
  914MOL0     C20580   3.370   6.723   6.406  1.1949  0.4950 -0.3586
  914MOL0     C20581   2.960   6.102   6.500 -0.1489  0.0859  0.1774
  914MOL0     C20582   2.893   5.989   6.457 -0.3468 -0.2952  0.1429
  914MOL0     H20583   2.567   5.602   6.352 -0.8013 -1.9323 -0.9908
  914MOL0     H20584   2.387   5.455   6.330  3.7165  0.6477  0.5625
  914MOL0     H20585   1.957   5.583   6.434  0.4474 -0.2530  2.2280
  914MOL0     H20586   2.050   5.506   6.556  0.9082 -1.1279  0.2310
  914MOL0     H20587   1.900   5.361   6.336  0.4177 -0.4095 -0.4822
  914MOL0     H20588   1.880   5.374   6.509  1.8028  2.7948  2.3987
  914MOL0     H20589   2.061   5.253   6.575 -0.3786  0.4685 -0.1506
  914MOL0     H20590   2.148   5.257   6.421  0.8071  0.4134  0.7788
  914MOL0     H20591   1.879   5.103   6.459  0.4438  2.7351  2.5633
  914MOL0     H20592   1.960   5.115   6.310 -2.5377  1.6583  1.0644
  914MOL0     H20593   2.069   5.013   6.567 -0.0804  1.2227 -1.0807
  914MOL0     H20594   2.159   4.995   6.420 -1.0244 -0.6345 -1.1891
  914MOL0     H20595   1.935   4.856   6.350 -1.4445 -1.0108  1.2053
  914MOL0     H20596   1.897   4.847   6.507 -0.8424 -0.6233 -1.3374
  914MOL0     H20597   2.092   4.699   6.555  1.8640  0.2221 -0.1216
  914MOL0     H20598   1.999   4.647   6.408 -0.3899  1.7457 -1.9654
  914MOL0     H20599   2.255   4.807   6.403 -0.6555  0.3878 -0.0736
  914MOL0     H20600   2.158   4.766   6.267  2.0434 -0.4949  0.2932
  914MOL0     H20601   2.454   4.587   6.460  0.1755 -1.4466  0.1036
  914MOL0     H20602   2.557   4.357   6.472 -1.1809 -0.5279  0.6988
  914MOL0     H20603   2.550   4.295   6.303  2.8661 -1.2437  0.9915
  914MOL0     H20604   2.512   4.108   6.409  0.5455 -0.5810 -1.7777
  914MOL0     H20605   2.348   4.150   6.369  0.5059 -2.7584  0.8683
  914MOL0     H20606   2.404   4.086   6.621  0.5026 -0.0381 -0.6247
  914MOL0     H20607   2.460   4.255   6.630 -0.8515  1.1162 -1.8470
  914MOL0     H20608   2.172   4.201   6.539 -1.6425  2.4439 -0.7273
  914MOL0     H20609   2.257   4.348   6.585 -2.5316  0.1916  0.2355
  914MOL0     H20610   2.132   4.479   6.722  2.1464 -1.4273 -2.7131
  914MOL0     H20611   1.982   4.567   6.855  2.5528  0.4671 -1.4069
  914MOL0     H20612   1.855   4.843   7.068  0.4047 -3.2529 -1.6188
  914MOL0     H20613   1.721   5.018   7.197 -0.5036  0.6834  0.8959
  914MOL0     H20614   1.355   4.990   7.362  2.4495  0.0094  2.6934
  914MOL0     H20615   1.409   5.039   7.202  2.5087 -1.0204 -0.3742
  914MOL0     H20616   1.509   5.240   7.319  1.7008 -1.4505  0.7945
  914MOL0     H20617   1.470   5.185   7.464 -1.5584 -3.0489  1.4654
  914MOL0     H20618   1.225   5.232   7.435  0.8070 -0.8569  1.9409
  914MOL0     H20619   1.247   5.240   7.260  1.1992 -0.4219  0.3089
  914MOL0     H20620   1.405   5.434   7.443  0.7322 -3.0998  1.6910
  914MOL0     H20621   1.402   5.420   7.266 -4.1840 -3.4854 -3.0594
  914MOL0     H20622   1.143   5.505   7.390 -1.2501 -0.4252  0.3931
  914MOL0     H20623   1.190   5.473   7.224 -1.8179  2.7603  0.6104
  914MOL0     H20624   1.204   5.700   7.287  0.2238  0.5436  0.3235
  914MOL0     H20625   1.361   5.645   7.247  0.1124 -0.6755 -0.1146
  914MOL0     H20626   1.423   5.671   7.500 -2.1586 -5.6781 -1.9129
  914MOL0     H20627   1.372   5.819   7.431 -0.2040 -0.0577  0.2841
  914MOL0     H20628   1.219   5.620   7.599  2.1460  0.6015  2.9621
  914MOL0     H20629   1.124   5.753   7.508 -0.1715 -0.9680  2.3671
  914MOL0     H20630   1.454   4.726   7.322  0.3565  1.4954 -0.0105
  914MOL0     H20631   1.586   4.537   7.179  3.3027 -1.0718  0.1478
  914MOL0     H20632   1.908   4.194   7.061 -1.1031  0.4646 -0.3288
  914MOL0     H20633   2.085   4.090   6.919 -3.5019 -0.6156  3.6837
  914MOL0     H20634   2.107   5.762   6.433  0.5409  0.8810 -2.4705
  914MOL0     H20635   2.296   5.919   6.497  0.6507 -0.3487  0.9037
  914MOL0     H20636   2.582   6.102   6.517 -0.0562 -0.6782  3.9082
  914MOL0     H20637   2.702   6.310   6.584 -1.8058  0.7154 -3.3879
  914MOL0     H20638   2.919   6.504   6.415  1.1667  0.7294 -1.1394
  914MOL0     H20639   2.904   6.352   6.334 -1.7883  0.8518 -0.1408
  914MOL0     H20640   3.172   6.433   6.466 -0.8564 -0.6795 -0.0338
  914MOL0     H20641   3.146   6.307   6.355  0.6963 -0.0867  0.6341
  914MOL0     H20642   3.051   6.598   6.285 -1.2064 -1.3929  0.9880
  914MOL0     H20643   3.078   6.460   6.173  3.9117 -2.1696 -0.9680
  914MOL0     H20644   3.331   6.483   6.211 -0.1237 -0.3825 -2.0475
  914MOL0     H20645   3.254   6.628   6.139  2.0136 -1.1775 -0.8754
  914MOL0     H20646   3.428   6.774   6.480  1.6768 -2.4449  1.4421
  914MOL0     H20647   3.068   6.106   6.498 -0.1979  1.7810 -0.6446
  914MOL0     H20648   2.945   5.899   6.424 -2.3635 -2.6496  2.8515
  915MOL0     O20649   3.401   1.821   4.811 -0.1283  0.6654  0.0384
  915MOL0     C20650   3.283   1.849   4.787 -0.3095 -0.2615  0.1961
  915MOL0     O20651   3.207   1.776   4.712 -0.5979  0.5778  0.2137
  915MOL0     C20652   3.258   1.663   4.652  0.4142 -0.1493 -0.6760
  915MOL0     C20653   3.338   1.672   4.540  0.4928  0.5412  0.2168
  915MOL0     C20654   3.382   1.549   4.481  0.1557 -0.6632 -0.0747
  915MOL0     C20655   3.355   1.428   4.540 -0.0490 -0.0320 -0.2070
  915MOL0     O20656   3.395   1.304   4.482 -0.3895 -0.5112  0.0974
  915MOL0     C20657   3.323   1.181   4.511  0.5358 -0.7879  0.4371
  915MOL0     C20658   3.412   1.057   4.469 -0.1112 -0.5892  0.4399
  915MOL0     C20659   3.499   1.099   4.350 -0.5382 -0.1542 -0.0504
  915MOL0     C20660   3.419   1.140   4.226 -0.0515 -0.0670 -0.8317
  915MOL0     C20661   3.330   1.037   4.157 -0.4675  0.0345  0.7484
  915MOL0     C20662   3.312   1.060   4.001 -0.1613 -0.3152  0.9844
  915MOL0     C20663   3.248   0.944   3.925 -0.1665 -0.3109 -0.0845
  915MOL0     C20664   3.242   0.988   3.773  1.6748  0.5125 -1.2301
  915MOL0     N20665   3.318   0.910   3.676  0.2364  0.5645 -0.0370
  915MOL0     C20666   3.284   0.778   3.641  0.5551 -0.8926 -0.0791
  915MOL0     C20667   3.398   0.722   3.597  0.4821  1.0785 -0.4381
  915MOL0     C20668   3.405   0.580   3.551 -0.0584  0.2883  0.1610
  915MOL0     C20669   3.420   0.588   3.399 -0.3959 -0.5240  0.3444
  915MOL0     C20670   3.461   0.441   3.366  0.5824 -0.7219  0.2307
  915MOL0     C20671   3.491   0.427   3.217 -0.6430 -0.5000 -0.0393
  915MOL0     O20672   3.623   0.478   3.176  0.0488 -0.2921 -1.2194
  915MOL0     C20673   3.706   0.400   3.108 -0.2986  0.4300  0.4706
  915MOL0     C20674   3.800   0.469   3.028 -0.0250  1.0312  1.0635
  915MOL0     C20675   3.901   0.410   2.947 -0.1437 -0.0681  0.5765
  915MOL0     C20676   3.905   0.273   2.939 -0.6790 -0.8524  0.2617
  915MOL0     C20677   3.998   0.182   2.861 -0.1157 -0.3996 -0.5156
  915MOL0     O20678   4.015   0.054   2.907 -0.1282 -0.2254  0.1540
  915MOL0     C20679   4.102  -0.031   2.843  1.0200 -0.4587 -0.1282
  915MOL0     C20680   4.057  -0.161   2.823 -0.1241  0.1445  0.5555
  915MOL0     C20681   4.144  -0.250   2.757  0.4378  0.0415  0.3484
  915MOL0     C20682   4.272  -0.217   2.708  0.7398 -0.7831 -0.3861
  915MOL0     O20683   4.341  -0.312   2.643  0.0148  0.9190  0.9224
  915MOL0     C20684   4.461  -0.355   2.709  0.2799 -0.3893  0.1196
  915MOL0     C20685   4.434  -0.493   2.770 -0.5101  0.3578 -0.9502
  915MOL0     C20686   4.374  -0.596   2.666  0.0947  0.3974  0.1876
  915MOL0     C20687   4.460  -0.613   2.539  0.0527 -0.4551  0.2587
  915MOL0     C20688   4.478  -0.761   2.501  0.1793  0.3411  0.9191
  915MOL0     C20689   4.572  -0.760   2.375 -0.5117 -0.4269  0.7626
  915MOL0     C20690   4.594  -0.899   2.316 -0.1794  0.0630  0.8760
  915MOL0     C20691   4.688  -0.896   2.189 -0.0045 -0.6902 -0.1164
  915MOL0    Cl20692   4.574  -0.875   2.049  0.6248  0.4243  0.1434
  915MOL0     C20693   4.314  -0.086   2.729  0.1222 -0.8838 -0.2823
  915MOL0     C20694   4.234   0.002   2.812  0.6647 -0.0069  1.3635
  915MOL0     O20695   4.048   0.229   2.764 -0.3291  0.5329 -0.2893
  915MOL0     C20696   3.814   0.200   3.024  0.1910 -0.1790 -0.3997
  915MOL0     C20697   3.722   0.262   3.113 -1.2897  0.4163 -1.2669
  915MOL0     N20698   3.492   0.817   3.607 -0.6946 -0.5081 -0.5818
  915MOL0     N20699   3.445   0.924   3.648  0.4458  0.4220 -0.1701
  915MOL0     C20700   3.286   1.428   4.658  0.0389  0.4946 -0.7708
  915MOL0     C20701   3.241   1.544   4.721 -0.1928  0.3148  0.1918
  915MOL0     C20702   3.224   1.967   4.842 -0.0282  0.8835 -1.0486
  915MOL0     C20703   3.302   2.060   4.930  0.0707  1.2616  0.3935
  915MOL0     C20704   3.246   2.166   4.996  0.1906 -0.0138  0.6118
  915MOL0     C20705   3.103   2.179   4.997  0.0334  0.1205 -1.0971
  915MOL0     O20706   3.057   2.282   5.075 -0.2483 -0.0770  0.1478
  915MOL0     C20707   2.921   2.328   5.052  0.0812  0.3327 -0.3065
  915MOL0     C20708   2.823   2.254   5.144 -0.9149 -0.0355 -0.8767
  915MOL0     C20709   2.821   2.316   5.286 -0.1929  0.2733 -0.2079
  915MOL0     C20710   2.920   2.238   5.380  0.2043 -0.2044  0.1996
  915MOL0     C20711   2.920   2.292   5.515  0.0831  0.2009 -0.3794
  915MOL0     C20712   2.924   2.346   5.622  0.1191 -0.7538 -0.0148
  915MOL0     C20713   3.028   2.098   4.917  1.2975 -0.3996 -0.0518
  915MOL0     C20714   3.088   2.003   4.834  0.0057 -0.0421  0.1561
  915MOL0     H20715   3.358   1.764   4.487 -0.9993  0.3763 -0.6878
  915MOL0     H20716   3.428   1.562   4.384  1.3796  0.9332  0.6630
  915MOL0     H20717   3.225   1.182   4.462  1.0035 -1.4752 -0.5760
  915MOL0     H20718   3.289   1.169   4.614 -0.4007 -3.1008 -0.0722
  915MOL0     H20719   3.356   0.966   4.444 -0.1085 -0.7043  0.8417
  915MOL0     H20720   3.469   1.043   4.562 -2.0529  2.9907  2.3454
  915MOL0     H20721   3.562   1.014   4.322 -1.0514 -0.2673 -0.8751
  915MOL0     H20722   3.561   1.186   4.374 -0.8128  0.7232 -2.3543
  915MOL0     H20723   3.367   1.231   4.256 -1.8525 -1.0635 -0.7588
  915MOL0     H20724   3.488   1.191   4.158 -2.5715  2.4767 -1.6843
  915MOL0     H20725   3.235   1.045   4.211 -0.9016 -0.0245 -0.0072
  915MOL0     H20726   3.376   0.938   4.162  1.3442  0.8398  1.0805
  915MOL0     H20727   3.413   1.063   3.959 -0.9764  3.3147 -1.1159
  915MOL0     H20728   3.266   1.156   3.979  1.1634  0.3887  1.2097
  915MOL0     H20729   3.292   0.844   3.922 -0.9286 -0.6338 -1.0487
  915MOL0     H20730   3.150   0.933   3.973 -0.8397 -0.4269 -1.4357
  915MOL0     H20731   3.248   1.095   3.752 -2.5636  1.2797  0.4363
  915MOL0     H20732   3.135   0.973   3.753  1.6129 -2.0121  0.4414
  915MOL0     H20733   3.187   0.733   3.658 -0.2517  0.5356 -0.6640
  915MOL0     H20734   3.321   0.521   3.590  0.4082  1.0433  2.4986
  915MOL0     H20735   3.499   0.545   3.594  0.0103  0.3253  0.0388
  915MOL0     H20736   3.507   0.650   3.375 -1.2030  0.7198  0.5365
  915MOL0     H20737   3.329   0.619   3.346  0.6357  0.0371 -1.1906
  915MOL0     H20738   3.546   0.400   3.421  0.9225 -0.1634  0.1243
  915MOL0     H20739   3.377   0.372   3.382 -0.3420 -0.0357 -1.4185
  915MOL0     H20740   3.415   0.482   3.161 -2.9396 -0.5471  2.7823
  915MOL0     H20741   3.481   0.320   3.199  2.1244 -0.6900 -1.0240
  915MOL0     H20742   3.791   0.577   3.025 -0.6214  1.0258 -3.7484
  915MOL0     H20743   3.965   0.471   2.885 -1.4733  2.3049  1.4228
  915MOL0     H20744   3.957  -0.191   2.854  0.3130 -1.7318  0.2985
  915MOL0     H20745   4.111  -0.350   2.730  1.0040  0.1044 -0.6283
  915MOL0     H20746   4.498  -0.284   2.783 -1.7632  0.7600  0.1225
  915MOL0     H20747   4.533  -0.361   2.627 -3.3615 -0.8847 -3.3677
  915MOL0     H20748   4.360  -0.479   2.849  0.2265  1.4415 -0.4316
  915MOL0     H20749   4.525  -0.536   2.813 -0.8067 -1.9488 -2.4759
  915MOL0     H20750   4.281  -0.552   2.628 -0.0411  1.3462  1.5248
  915MOL0     H20751   4.364  -0.695   2.710  0.9299  1.0837  2.0456
  915MOL0     H20752   4.402  -0.564   2.460  0.1332 -0.4742  0.1869
  915MOL0     H20753   4.556  -0.561   2.541 -0.7093  1.2329 -2.2862
  915MOL0     H20754   4.391  -0.818   2.468  1.7053  0.0935 -3.4391
  915MOL0     H20755   4.526  -0.815   2.583  2.4573  1.7698  0.6320
  915MOL0     H20756   4.659  -0.696   2.393 -0.8300 -0.3710  2.2011
  915MOL0     H20757   4.530  -0.700   2.293 -1.2004 -2.4676 -0.4368
  915MOL0     H20758   4.658  -0.948   2.390  2.2725  2.9161  0.8497
  915MOL0     H20759   4.499  -0.949   2.296 -1.6273  3.3296 -1.3432
  915MOL0     H20760   4.735  -0.992   2.169 -2.0528 -1.2271 -3.1721
  915MOL0     H20761   4.760  -0.815   2.175 -1.6258  0.5896 -1.6094
  915MOL0     H20762   4.408  -0.056   2.684 -0.3223  1.5678  0.2425
  915MOL0     H20763   4.274   0.102   2.827  1.0847  0.6532 -2.7949
  915MOL0     H20764   3.818   0.091   3.020 -0.1885 -0.2626  0.9513
  915MOL0     H20765   3.660   0.199   3.176  2.3204  0.1717  2.4641
  915MOL0     H20766   3.267   1.340   4.719 -1.0553  1.9016  0.9943
  915MOL0     H20767   3.193   1.549   4.818 -1.1784 -3.2834  0.0584
  915MOL0     H20768   3.408   2.041   4.941  0.1556  0.3010 -1.6429
  915MOL0     H20769   3.305   2.245   5.041 -0.3047  2.0067 -2.0447
  915MOL0     H20770   2.892   2.316   4.947 -1.7397  1.4562  0.0206
  915MOL0     H20771   2.904   2.436   5.061  0.8529  0.6749 -2.4327
  915MOL0     H20772   2.725   2.282   5.104 -1.0925  0.3254 -0.1914
  915MOL0     H20773   2.843   2.146   5.149 -0.6399  0.0809  1.1524
  915MOL0     H20774   2.724   2.300   5.334  0.3675 -0.6072  0.6776
  915MOL0     H20775   2.843   2.421   5.270 -1.1548  0.0874 -3.3878
  915MOL0     H20776   2.893   2.133   5.370 -1.7811  0.3231 -0.5718
  915MOL0     H20777   3.023   2.241   5.345  0.0436 -0.6435 -0.3288
  915MOL0     H20778   2.941   2.403   5.712  1.2191  1.8525 -1.7401
  915MOL0     H20779   2.920   2.093   4.921  1.3116 -0.3284  0.4790
  915MOL0     H20780   3.021   1.942   4.775 -2.0551  3.3904 -1.2961
  916MOL0     O20781   2.183   6.495  10.760  0.7848 -0.7623 -0.3140
  916MOL0     C20782   2.234   6.594  10.814 -0.0042 -0.0618  0.4964
  916MOL0     O20783   2.248   6.617  10.947 -0.0982  0.3737  0.3538
  916MOL0     C20784   2.171   6.538  11.029  0.1835 -0.3407  0.2748
  916MOL0     C20785   2.212   6.466  11.139  0.8948  0.2945  1.2742
  916MOL0     C20786   2.122   6.396  11.221  0.0927 -0.5806 -0.5193
  916MOL0     C20787   1.983   6.405  11.203  0.3257 -0.7909  0.4597
  916MOL0     O20788   1.902   6.348  11.298  0.1404  0.3270 -0.0023
  916MOL0     C20789   1.761   6.379  11.290 -0.3323  0.5151  0.5481
  916MOL0     C20790   1.691   6.362  11.427  0.7212 -0.8947  0.9256
  916MOL0     C20791   1.559   6.294  11.443 -0.7123 -0.0042 -0.2577
  916MOL0     C20792   1.573   6.152  11.389 -0.4314  0.2658 -1.0546
  916MOL0     C20793   1.438   6.068  11.418 -0.3258  0.6603  0.2252
  916MOL0     C20794   1.470   5.919  11.396 -0.5651  0.6328 -0.7324
  916MOL0     C20795   1.337   5.832  11.392 -0.5507 -0.1683 -0.3312
  916MOL0     C20796   1.270   5.812  11.530  0.5996  0.9032 -0.9273
  916MOL0     N20797   1.330   5.720  11.630 -0.3287 -0.1651 -0.5526
  916MOL0     C20798   1.459   5.745  11.686 -0.6524 -0.7129  0.6155
  916MOL0     C20799   1.469   5.658  11.784 -0.2902 -0.4375 -0.5626
  916MOL0     C20800   1.574   5.641  11.898 -0.7855  0.4510  0.1203
  916MOL0     C20801   1.542   5.741  12.014 -0.2448  0.2357  0.1041
  916MOL0     C20802   1.631   5.708  12.137 -0.3988 -0.4357 -1.0690
  916MOL0     C20803   1.772   5.683  12.118  0.5912  0.0761 -0.6895
  916MOL0     O20804   1.838   5.799  12.071  0.0760 -0.5962  0.4857
  916MOL0     C20805   1.971   5.805  12.040  0.0993  0.6642 -0.8063
  916MOL0     C20806   2.019   5.931  12.014  0.9686 -0.9264  0.3139
  916MOL0     C20807   2.160   5.947  11.999  0.5836  0.3307 -0.2595
  916MOL0     C20808   2.252   5.837  12.002  0.1069  0.3313 -0.0791
  916MOL0     C20809   2.392   5.864  11.955 -0.4696 -0.8074 -0.5053
  916MOL0     O20810   2.436   5.997  11.933 -0.0083  0.3070  0.2898
  916MOL0     C20811   2.523   6.022  11.826  0.0133 -0.0013  1.1259
  916MOL0     C20812   2.580   6.154  11.822  0.7486 -0.4550 -1.1204
  916MOL0     C20813   2.664   6.192  11.721  0.2129  0.2647  0.8227
  916MOL0     C20814   2.703   6.103  11.619  1.0291  0.1157  0.4405
  916MOL0     O20815   2.804   6.154  11.542  0.2129  0.7137  0.4983
  916MOL0     C20816   2.904   6.056  11.506  0.9642 -0.1774 -0.0865
  916MOL0     C20817   3.020   6.122  11.439 -0.2089 -0.0377  0.0071
  916MOL0     C20818   3.090   6.240  11.513  0.8879 -0.4458 -0.0283
  916MOL0     C20819   3.202   6.304  11.431  0.2532 -0.3554 -0.7975
  916MOL0     C20820   3.300   6.201  11.364  0.6051 -0.2313 -0.5443
  916MOL0     C20821   3.411   6.270  11.294 -0.1792  0.7914 -0.2716
  916MOL0     C20822   3.483   6.161  11.206 -0.0175  0.4136 -1.3280
  916MOL0     C20823   3.416   6.156  11.065 -0.3641 -0.3625  0.6539
  916MOL0    Cl20824   3.467   6.313  10.979  0.0304  0.3931 -0.3117
  916MOL0     C20825   2.630   5.976  11.602  0.3979  0.2580 -0.9716
  916MOL0     C20826   2.547   5.932  11.712  0.1351  0.3450  0.3472
  916MOL0     O20827   2.461   5.765  11.960 -0.6041  0.1473  0.1108
  916MOL0     C20828   2.203   5.710  12.042 -0.5662  0.0774  0.0472
  916MOL0     C20829   2.071   5.691  12.064  0.5140 -0.4275  0.2547
  916MOL0     N20830   1.354   5.580  11.787  0.4538  0.1077 -0.3415
  916MOL0     N20831   1.271   5.619  11.698  0.1938 -0.4365  0.4420
  916MOL0     C20832   1.942   6.484  11.087 -0.1588 -0.7796  0.1169
  916MOL0     C20833   2.032   6.557  11.014  0.0729  0.2270  0.6136
  916MOL0     C20834   2.308   6.679  10.717  0.7033  0.3025 -0.2494
  916MOL0     C20835   2.332   6.638  10.588 -0.2112 -0.2959  0.5263
  916MOL0     C20836   2.408   6.709  10.496 -0.6180  0.1347 -0.4313
  916MOL0     C20837   2.473   6.826  10.539  0.0396  0.2551  1.0457
  916MOL0     O20838   2.563   6.899  10.465  0.1839  0.1005  0.0057
  916MOL0     C20839   2.569   6.882  10.327 -0.1379 -0.5895  0.7132
  916MOL0     C20840   2.673   6.975  10.267  0.3553 -0.7811 -0.3753
  916MOL0     C20841   2.617   7.112  10.276  0.4664  0.1255 -0.6509
  916MOL0     C20842   2.664   7.189  10.403  0.0328 -0.4359  0.3421
  916MOL0     C20843   2.570   7.300  10.428 -0.0647 -0.7577  0.2483
  916MOL0     C20844   2.500   7.401  10.449  0.4126  0.4272  1.0509
  916MOL0     C20845   2.437   6.877  10.666 -0.1639  0.0057  1.3165
  916MOL0     C20846   2.358   6.803  10.753 -0.2659 -0.4184  0.2151
  916MOL0     H20847   2.316   6.446  11.161  0.0833 -4.3537  1.8457
  916MOL0     H20848   2.163   6.349  11.310  2.7931  2.5989  0.1506
  916MOL0     H20849   1.707   6.316  11.220 -2.0782 -1.2177  3.2940
  916MOL0     H20850   1.757   6.484  11.260 -1.5999  0.3883  0.2262
  916MOL0     H20851   1.676   6.468  11.451  0.7853 -0.4080 -0.9611
  916MOL0     H20852   1.762   6.325  11.501  1.3190 -0.5936  0.5091
  916MOL0     H20853   1.485   6.350  11.384 -1.2032 -0.3325  0.0323
  916MOL0     H20854   1.530   6.309  11.548  1.6724 -3.1562  1.0132
  916MOL0     H20855   1.601   6.147  11.283  1.9163  0.7878 -0.5288
  916MOL0     H20856   1.649   6.103  11.450  0.0680  0.7264 -1.2933
  916MOL0     H20857   1.359   6.107  11.354 -2.6996 -1.6906  1.5318
  916MOL0     H20858   1.386   6.094  11.511  1.0667 -2.0161  1.8978
  916MOL0     H20859   1.544   5.874  11.463 -2.8942 -2.4772  0.0027
  916MOL0     H20860   1.503   5.918  11.292  0.3897  1.5063 -0.4526
  916MOL0     H20861   1.260   5.875  11.328  0.2574  0.8855 -0.6180
  916MOL0     H20862   1.362   5.735  11.349 -2.4198 -1.2839  0.9618
  916MOL0     H20863   1.169   5.778  11.505  1.2339 -0.2702 -2.0433
  916MOL0     H20864   1.260   5.909  11.579  1.4564  1.2955 -1.4953
  916MOL0     H20865   1.534   5.821  11.666  0.7931 -2.7474 -2.4385
  916MOL0     H20866   1.676   5.661  11.864  0.3536 -2.8634  1.2823
  916MOL0     H20867   1.561   5.538  11.932  3.7305 -1.2937 -2.5181
  916MOL0     H20868   1.436   5.735  12.042 -1.1448  0.3434 -2.9065
  916MOL0     H20869   1.554   5.846  11.984  0.1701  0.5104  1.1593
  916MOL0     H20870   1.605   5.791  12.203  1.2152  1.0216 -2.2002
  916MOL0     H20871   1.593   5.615  12.181  2.2667 -0.8078  0.6489
  916MOL0     H20872   1.775   5.604  12.042 -2.0912 -1.8227  1.0425
  916MOL0     H20873   1.821   5.657  12.212 -0.0322 -4.9113 -1.5075
  916MOL0     H20874   1.946   6.010  11.997  0.8152 -1.3132 -1.0054
  916MOL0     H20875   2.195   6.045  11.967  3.2293 -0.8067 -1.1547
  916MOL0     H20876   2.562   6.229  11.898 -1.9756 -0.5954 -1.5262
  916MOL0     H20877   2.710   6.290  11.716 -0.3386  0.4827 -1.7437
  916MOL0     H20878   2.868   5.983  11.433 -0.7545  0.1808  0.3545
  916MOL0     H20879   2.927   5.994  11.593 -0.3047 -0.7372 -0.1188
  916MOL0     H20880   2.990   6.152  11.338  3.5248  2.6016 -0.5170
  916MOL0     H20881   3.095   6.044  11.422  0.4132  0.7852 -1.1315
  916MOL0     H20882   3.126   6.202  11.609 -0.8854  1.6511  1.5888
  916MOL0     H20883   3.015   6.317  11.536 -1.7269 -2.9037  0.2441
  916MOL0     H20884   3.160   6.371  11.356 -0.6536  0.5110  0.4525
  916MOL0     H20885   3.257   6.371  11.498  0.1664 -0.5352 -0.5489
  916MOL0     H20886   3.244   6.139  11.292  2.7905 -0.4143 -2.1880
  916MOL0     H20887   3.339   6.134  11.441  2.1468  1.6070  0.3309
  916MOL0     H20888   3.478   6.306  11.372  2.0809  1.7367 -2.4810
  916MOL0     H20889   3.379   6.356  11.235  1.3917 -0.6170 -3.4369
  916MOL0     H20890   3.585   6.199  11.196 -0.1724  0.9237 -1.0029
  916MOL0     H20891   3.487   6.059  11.246 -1.4750 -0.5125 -3.3583
  916MOL0     H20892   3.308   6.166  11.080 -0.3819  1.0358 -0.1910
  916MOL0     H20893   3.440   6.066  11.008 -0.8180  0.3002 -0.6212
  916MOL0     H20894   2.647   5.910  11.517  0.0966  1.3059 -1.8601
  916MOL0     H20895   2.492   5.838  11.711 -0.3878  0.6391  1.0478
  916MOL0     H20896   2.269   5.628  12.070 -1.8016 -1.5021 -1.4272
  916MOL0     H20897   2.045   5.590  12.093  0.9587 -0.0737  1.9871
  916MOL0     H20898   1.837   6.480  11.058 -0.0160 -0.6107 -0.4323
  916MOL0     H20899   1.990   6.628  10.943  1.4821  1.8206  1.3160
  916MOL0     H20900   2.279   6.553  10.546 -1.1814  1.4287 -1.9896
  916MOL0     H20901   2.416   6.659  10.400 -3.5409 -1.6646  0.1411
  916MOL0     H20902   2.473   6.906  10.280  0.5314  1.8906  0.4924
  916MOL0     H20903   2.584   6.777  10.301 -0.8919 -0.7930  1.0658
  916MOL0     H20904   2.774   6.961  10.308 -0.6923  0.4482  2.9446
  916MOL0     H20905   2.673   6.961  10.158 -5.3988 -2.4475 -0.4664
  916MOL0     H20906   2.508   7.109  10.280  0.5152 -1.6749  0.8586
  916MOL0     H20907   2.651   7.167  10.188 -0.3671 -0.6488 -1.4824
  916MOL0     H20908   2.659   7.126  10.492 -2.9559  0.1975  0.7068
  916MOL0     H20909   2.762   7.234  10.381 -1.0693  2.5950  1.1523
  916MOL0     H20910   2.440   7.482  10.483 -0.6496 -1.9432  5.6561
  916MOL0     H20911   2.476   6.976  10.689 -1.7271  1.8565 -2.9674
  916MOL0     H20912   2.353   6.841  10.855  2.1777 -0.5387  0.4489
  917MOL0     O20913   6.815   8.649   1.638  0.1023  0.0990 -0.1662
  917MOL0     C20914   6.846   8.614   1.749  0.3641  0.1801  0.4758
  917MOL0     O20915   6.794   8.503   1.809  0.3843  0.4356  0.5717
  917MOL0     C20916   6.713   8.420   1.737 -0.8595  0.7861 -1.1854
  917MOL0     C20917   6.762   8.332   1.641  0.3388  0.2692  0.0287
  917MOL0     C20918   6.681   8.251   1.567  0.4775 -0.5531  0.4367
  917MOL0     C20919   6.547   8.220   1.619 -0.6299 -0.3291 -0.1458
  917MOL0     O20920   6.485   8.113   1.564 -0.1827 -0.5295 -0.6612
  917MOL0     C20921   6.342   8.130   1.526 -1.1222  0.4756 -0.3539
  917MOL0     C20922   6.291   7.990   1.478 -0.2061 -1.0308  0.0350
  917MOL0     C20923   6.306   7.951   1.330  0.2875  0.1969 -0.1546
  917MOL0     C20924   6.219   7.821   1.311 -0.7864 -0.9769 -0.1639
  917MOL0     C20925   6.233   7.751   1.173 -0.1238 -0.0079  1.1049
  917MOL0     C20926   6.140   7.631   1.161  0.1774  0.1593 -0.6908
  917MOL0     C20927   6.088   7.605   1.015  0.0983 -0.2681 -0.1481
  917MOL0     C20928   5.949   7.535   1.025 -0.5333 -0.2166  0.5411
  917MOL0     N20929   5.873   7.501   0.898 -0.2808 -0.2249 -0.1739
  917MOL0     C20930   5.852   7.592   0.801 -0.8896  0.0519  0.2710
  917MOL0     C20931   5.758   7.534   0.725  0.3808  0.0801 -1.2412
  917MOL0     C20932   5.730   7.572   0.588  0.0085 -0.5180 -1.1562
  917MOL0     C20933   5.582   7.594   0.568 -0.4186 -0.0612 -0.2104
  917MOL0     C20934   5.535   7.600   0.417 -0.1867 -1.1809 -0.1621
  917MOL0     C20935   5.377   7.611   0.417 -0.0202  0.6861 -0.3885
  917MOL0     O20936   5.337   7.723   0.345 -0.2832  0.2659  0.4015
  917MOL0     C20937   5.351   7.730   0.205  0.1471 -0.6907 -0.5518
  917MOL0     C20938   5.324   7.852   0.141  0.7529 -0.1875 -0.8028
  917MOL0     C20939   5.351   7.878   0.003  0.4782  0.6829 -0.1070
  917MOL0     C20940   5.395   7.766  -0.078 -0.1808  0.1447  0.2492
  917MOL0     C20941   5.431   7.776  -0.222  0.1257  1.6448 -0.0809
  917MOL0     O20942   5.456   7.905  -0.268 -0.1113 -0.1523  0.2465
  917MOL0     C20943   5.511   7.931  -0.392 -0.6465 -0.2189  0.7262
  917MOL0     C20944   5.499   7.853  -0.507  0.0331 -0.9326  0.6227
  917MOL0     C20945   5.593   7.873  -0.613  0.0764  0.7446 -0.2898
  917MOL0     C20946   5.692   7.973  -0.606 -0.0982  0.2758 -0.8466
  917MOL0     O20947   5.780   8.000  -0.706 -0.3079  0.0642  0.3265
  917MOL0     C20948   5.862   7.897  -0.759 -0.7764  0.1713 -0.2513
  917MOL0     C20949   5.998   7.946  -0.822 -0.0381  0.0649  0.2973
  917MOL0     C20950   6.099   7.842  -0.856  0.4942  0.4523  0.4983
  917MOL0     C20951   6.188   7.880  -0.976 -0.5005  0.8729  0.6575
  917MOL0     C20952   6.257   7.773  -1.053  0.7483  0.4022 -0.3163
  917MOL0     C20953   6.307   7.667  -0.960 -0.3560 -0.2888  0.6751
  917MOL0     C20954   6.432   7.605  -1.024  0.0116  0.7781 -0.3464
  917MOL0     C20955   6.480   7.484  -0.937  0.3727 -0.2135 -0.6769
  917MOL0    Cl20956   6.539   7.532  -0.768  0.3258 -0.3197  0.0612
  917MOL0     C20957   5.698   8.058  -0.495 -0.2339  0.5032  0.6420
  917MOL0     C20958   5.604   8.041  -0.397 -0.8657  1.1578  0.5709
  917MOL0     O20959   5.424   7.668  -0.288 -0.1789 -0.4967  0.3618
  917MOL0     C20960   5.407   7.648  -0.007  0.8574  0.1929 -0.0085
  917MOL0     C20961   5.377   7.620   0.126 -0.0770 -0.9487 -0.1798
  917MOL0     N20962   5.728   7.411   0.775  0.7693  0.3386 -0.9280
  917MOL0     N20963   5.794   7.390   0.881 -0.1037  1.1957  0.0025
  917MOL0     C20964   6.491   8.302   1.722  0.1714 -0.4829 -0.3245
  917MOL0     C20965   6.578   8.405   1.782 -0.3757 -0.0258 -0.2317
  917MOL0     C20966   6.946   8.695   1.822 -0.3330  0.0846 -0.5524
  917MOL0     C20967   6.973   8.832   1.795  0.3995 -0.6834  0.3462
  917MOL0     C20968   7.053   8.903   1.876  0.7159  0.0325  0.2711
  917MOL0     C20969   7.128   8.839   1.974  0.2405  0.2703  0.1688
  917MOL0     O20970   7.223   8.916   2.036 -0.9068  0.5918  0.3448
  917MOL0     C20971   7.310   8.866   2.145  1.3675  0.2837  0.8588
  917MOL0     C20972   7.431   8.956   2.158  0.5931 -0.1604 -0.0157
  917MOL0     C20973   7.405   9.061   2.261 -0.5349  0.4606  0.2837
  917MOL0     C20974   7.508   9.176   2.261 -0.3177 -0.4829 -0.4480
  917MOL0     C20975   7.531   9.235   2.397  0.2467 -0.5961  1.3330
  917MOL0     C20976   7.533   9.283   2.512 -0.8153  0.0498 -0.0330
  917MOL0     C20977   7.120   8.704   1.986  0.1930  0.8447 -0.5020
  917MOL0     C20978   7.026   8.630   1.922  0.4270  0.5108 -0.8181
  917MOL0     H20979   6.865   8.349   1.611  0.6506 -1.1895  0.1658
  917MOL0     H20980   6.714   8.187   1.486  0.8904 -0.7995  0.7939
  917MOL0     H20981   6.336   8.214   1.457  1.1591  0.3723 -0.7557
  917MOL0     H20982   6.287   8.155   1.617  1.5247 -1.0953  1.8527
  917MOL0     H20983   6.185   8.005   1.502 -0.7390  0.1468 -2.6723
  917MOL0     H20984   6.342   7.908   1.528 -0.7066 -0.9766  0.6487
  917MOL0     H20985   6.407   7.911   1.317  0.0351 -0.0672 -1.4075
  917MOL0     H20986   6.268   8.032   1.267 -0.2553  0.8507  0.9861
  917MOL0     H20987   6.231   7.753   1.396  0.2069 -0.8177 -0.1600
  917MOL0     H20988   6.120   7.862   1.331 -0.0171  0.6586  0.4805
  917MOL0     H20989   6.338   7.722   1.179  0.9229  3.4612  1.8348
  917MOL0     H20990   6.218   7.808   1.081 -1.7446 -3.7231 -1.1972
  917MOL0     H20991   6.055   7.645   1.228  1.0960 -0.4427  0.6432
  917MOL0     H20992   6.190   7.543   1.203 -1.2222  0.3336  1.4844
  917MOL0     H20993   6.068   7.703   0.970 -2.1535 -0.5706  0.0569
  917MOL0     H20994   6.169   7.547   0.971  0.5600  0.1915  0.0780
  917MOL0     H20995   5.882   7.597   1.085 -0.0478  0.8154  0.0539
  917MOL0     H20996   5.972   7.444   1.079  2.2079  1.0665  1.7294
  917MOL0     H20997   5.905   7.686   0.791  0.2367 -0.3617  1.8898
  917MOL0     H20998   5.764   7.493   0.521 -3.6367 -0.3725 -3.4026
  917MOL0     H20999   5.782   7.665   0.565 -1.3284  0.1692 -1.4935
  917MOL0     H21000   5.555   7.684   0.625  1.2789  0.4869 -0.2243
  917MOL0     H21001   5.528   7.514   0.620  1.9089  1.0882  4.5208
  917MOL0     H21002   5.585   7.693   0.389  0.8301 -1.1016  1.7216
  917MOL0     H21003   5.562   7.512   0.358 -2.2044 -2.0414  0.1202
  917MOL0     H21004   5.340   7.617   0.520  1.0091 -2.8554  0.3011
  917MOL0     H21005   5.329   7.526   0.368 -0.9401  1.5182 -0.9636
  917MOL0     H21006   5.283   7.931   0.202  1.5422 -1.6155  1.7631
  917MOL0     H21007   5.328   7.971  -0.047 -2.3855 -0.8806 -2.0183
  917MOL0     H21008   5.412   7.788  -0.509 -0.4556 -0.2902 -1.3567
  917MOL0     H21009   5.598   7.811  -0.702 -1.4311  0.6089 -0.3072
  917MOL0     H21010   5.806   7.844  -0.837  2.0492 -0.5295 -1.9154
  917MOL0     H21011   5.892   7.826  -0.681 -0.4922 -0.5520 -1.0085
  917MOL0     H21012   6.033   8.033  -0.767 -4.4770  3.0589 -1.0880
  917MOL0     H21013   5.971   7.992  -0.918  0.0061 -1.1091 -0.3045
  917MOL0     H21014   6.042   7.749  -0.867  0.1360  0.3499  2.8876
  917MOL0     H21015   6.164   7.835  -0.769 -1.6662  4.3571  2.6789
  917MOL0     H21016   6.126   7.943  -1.041 -2.8192 -0.5419  1.3924
  917MOL0     H21017   6.275   7.941  -0.948  2.0564 -3.4381  3.3535
  917MOL0     H21018   6.339   7.810  -1.115  1.4419  0.5501  0.6664
  917MOL0     H21019   6.187   7.722  -1.119  0.3507 -0.4821  0.7438
  917MOL0     H21020   6.229   7.598  -0.926 -0.7589 -1.1379 -1.7939
  917MOL0     H21021   6.339   7.712  -0.866 -1.8476  0.4469  0.8616
  917MOL0     H21022   6.419   7.562  -1.123 -0.7466 -2.4071  1.0105
  917MOL0     H21023   6.509   7.683  -1.021 -1.3518  2.1614  0.3264
  917MOL0     H21024   6.565   7.443  -0.992 -0.8942 -2.8600 -0.8294
  917MOL0     H21025   6.419   7.393  -0.929  3.1382 -2.2993 -1.8947
  917MOL0     H21026   5.786   8.121  -0.489  1.7151 -2.1495  2.2743
  917MOL0     H21027   5.611   8.102  -0.308  0.2895  1.7574  0.0830
  917MOL0     H21028   5.417   7.549  -0.052  0.8137 -0.5444  1.5540
  917MOL0     H21029   5.391   7.521   0.168  0.4500 -0.3327  1.1674
  917MOL0     H21030   6.387   8.294   1.753  0.6044 -0.1804  1.2801
  917MOL0     H21031   6.543   8.464   1.866  1.5280  1.7410 -0.5829
  917MOL0     H21032   6.917   8.884   1.718 -0.5284 -0.6921  1.0008
  917MOL0     H21033   7.058   9.008   1.848 -3.0597  0.3588  0.2179
  917MOL0     H21034   7.339   8.761   2.133  0.1833  0.1540 -1.6105
  917MOL0     H21035   7.247   8.868   2.234  0.1273 -0.1169  0.0157
  917MOL0     H21036   7.520   8.897   2.180  0.3787 -0.4598  0.0466
  917MOL0     H21037   7.449   9.004   2.062 -2.2917  0.7537 -0.2204
  917MOL0     H21038   7.379   9.031   2.363 -0.7772  2.5931  0.8968
  917MOL0     H21039   7.317   9.116   2.228  0.1532  1.6461  0.3585
  917MOL0     H21040   7.605   9.143   2.222  1.4047  2.6816  0.7438
  917MOL0     H21041   7.471   9.253   2.194  0.9567 -0.0425 -0.6619
  917MOL0     H21042   7.532   9.319   2.613  0.8115 -0.3964  0.1721
  917MOL0     H21043   7.185   8.639   2.045 -0.0866 -0.2645 -1.3952
  917MOL0     H21044   7.000   8.530   1.956 -2.4103  1.6257  0.6024
  918MOL0     O21045   1.345  10.571   4.485 -0.2874 -0.4635 -0.4531
  918MOL0     C21046   1.246  10.609   4.433  0.1403 -0.4314 -0.6582
  918MOL0     O21047   1.203  10.578   4.304 -0.4619 -0.8121  1.1370
  918MOL0     C21048   1.291  10.491   4.236  0.0593  0.0775 -0.6873
  918MOL0     C21049   1.238  10.366   4.190  0.2532 -0.6270  0.1024
  918MOL0     C21050   1.323  10.273   4.139  0.0063 -0.3987 -0.9474
  918MOL0     C21051   1.464  10.295   4.125  0.4318 -0.0225 -0.5360
  918MOL0     O21052   1.541  10.206   4.055  0.1691 -0.2917  0.1106
  918MOL0     C21053   1.675  10.179   4.112  0.1884 -0.9885  0.2264
  918MOL0     C21054   1.671  10.138   4.266  0.8766 -0.3746 -0.0821
  918MOL0     C21055   1.601  10.003   4.282  1.0602  0.2302  0.2394
  918MOL0     C21056   1.674   9.886   4.215 -0.5080 -0.0577 -0.4792
  918MOL0     C21057   1.607   9.744   4.208 -0.5375 -0.8451 -0.4020
  918MOL0     C21058   1.608   9.680   4.350  0.2344 -0.3065 -0.2124
  918MOL0     C21059   1.580   9.529   4.365  0.1310 -0.9383 -0.3520
  918MOL0     C21060   1.580   9.501   4.515  1.3609  0.4617 -0.0246
  918MOL0     N21061   1.579   9.355   4.536 -0.0121  0.8598  0.0492
  918MOL0     C21062   1.652   9.278   4.631 -0.3246 -0.8785 -0.6556
  918MOL0     C21063   1.609   9.152   4.605  0.1915 -0.1087 -1.7993
  918MOL0     C21064   1.667   9.024   4.668  0.5997 -0.1514 -0.0515
  918MOL0     C21065   1.542   8.937   4.719  0.1041 -0.3514  0.1942
  918MOL0     C21066   1.579   8.818   4.818  0.1207  0.0128 -0.4310
  918MOL0     C21067   1.472   8.708   4.819 -0.1676  0.3525  0.0728
  918MOL0     O21068   1.486   8.627   4.704  0.4031  0.0233 -0.5479
  918MOL0     C21069   1.413   8.506   4.699  0.4301 -0.2508 -0.2902
  918MOL0     C21070   1.488   8.388   4.673  0.2963 -0.0851  1.2407
  918MOL0     C21071   1.425   8.264   4.689  0.1076  0.2271  0.0420
  918MOL0     C21072   1.288   8.251   4.712  0.1480 -0.1105  0.7837
  918MOL0     C21073   1.211   8.120   4.734 -0.1004  0.6717  0.0411
  918MOL0     O21074   1.119   8.121   4.830  0.3365 -0.0340 -0.2119
  918MOL0     C21075   1.073   8.004   4.883  0.5549  0.3788  0.2789
  918MOL0     C21076   0.939   8.005   4.920  0.3026 -0.6372 -0.1536
  918MOL0     C21077   0.869   7.898   4.975  0.0188 -0.3555 -0.5781
  918MOL0     C21078   0.938   7.776   4.989 -0.2834 -0.0149 -1.0400
  918MOL0     O21079   0.882   7.659   5.043 -0.1055  0.2898 -0.5936
  918MOL0     C21080   0.773   7.686   5.138  0.0345 -0.2971 -0.1587
  918MOL0     C21081   0.820   7.754   5.263  0.4398  0.1803  0.1210
  918MOL0     C21082   0.732   7.758   5.391 -0.6672  0.7989 -0.1702
  918MOL0     C21083   0.616   7.857   5.391  0.2400  0.6453  0.2517
  918MOL0     C21084   0.573   7.893   5.530 -0.2012 -0.5915 -0.0732
  918MOL0     C21085   0.450   7.988   5.517  0.1486 -0.2056  0.5652
  918MOL0     C21086   0.416   8.042   5.654 -0.2470  0.3502 -0.1048
  918MOL0     C21087   0.272   8.102   5.665  0.1234 -0.0463 -0.6199
  918MOL0    Cl21088   0.234   8.216   5.531 -0.5925  0.0934 -0.2900
  918MOL0     C21089   1.076   7.775   4.975 -0.3267 -0.5827  0.3180
  918MOL0     C21090   1.139   7.883   4.914  0.0231 -0.0612  0.1521
  918MOL0     O21091   1.252   8.025   4.676  0.6992  0.3112 -0.2548
  918MOL0     C21092   1.204   8.367   4.720  0.1783  0.2391  0.4125
  918MOL0     C21093   1.275   8.493   4.741  0.1865  0.5714  0.3323
  918MOL0     N21094   1.501   9.154   4.522  0.8441 -1.0575  0.6439
  918MOL0     N21095   1.493   9.277   4.474 -0.1545 -0.2331 -0.4064
  918MOL0     C21096   1.512  10.422   4.163 -0.2666  1.5265 -0.4413
  918MOL0     C21097   1.430  10.518   4.226 -0.4518 -0.1517  0.3570
  918MOL0     C21098   1.173  10.711   4.506 -0.1597 -0.3468  0.0103
  918MOL0     C21099   1.170  10.712   4.649 -0.2903 -0.7039  0.2927
  918MOL0     C21100   1.092  10.811   4.712  0.0565  0.0776  0.1922
  918MOL0     C21101   1.023  10.910   4.643 -0.5081 -0.5839  0.4355
  918MOL0     O21102   0.968  11.026   4.698 -0.6551  0.8814 -0.3779
  918MOL0     C21103   0.830  11.006   4.733  0.6298  1.2240 -0.5564
  918MOL0     C21104   0.811  10.962   4.876 -0.0754  0.6005  1.1526
  918MOL0     C21105   0.804  11.082   4.976  0.7476  0.4403  0.0321
  918MOL0     C21106   0.830  11.038   5.118 -0.1014 -0.1914 -0.7236
  918MOL0     C21107   0.956  11.098   5.171  0.2401 -0.0210  0.1276
  918MOL0     C21108   1.053  11.148   5.226 -0.4601  0.3413 -0.1967
  918MOL0     C21109   1.033  10.905   4.501 -0.0632  0.5159 -0.3188
  918MOL0     C21110   1.098  10.802   4.434  0.9521  0.3157 -0.0924
  918MOL0     H21111   1.135  10.335   4.206 -0.2721  1.8186  2.2410
  918MOL0     H21112   1.274  10.180   4.109 -2.1022  0.8679 -1.6149
  918MOL0     H21113   1.755  10.252   4.093  1.4889 -2.2419  0.6462
  918MOL0     H21114   1.718  10.092   4.060 -0.5855 -0.9745 -0.4450
  918MOL0     H21115   1.617  10.213   4.325  1.4760  1.1717 -1.3958
  918MOL0     H21116   1.774  10.130   4.304  1.0480  0.7741 -0.2532
  918MOL0     H21117   1.499  10.013   4.245  0.9259  1.5147  0.8972
  918MOL0     H21118   1.590   9.982   4.389 -3.3023 -0.2928 -0.1659
  918MOL0     H21119   1.699   9.914   4.113 -0.9826  1.1072 -0.2981
  918MOL0     H21120   1.767   9.878   4.273  0.5475  0.0765 -2.1071
  918MOL0     H21121   1.674   9.674   4.157  0.2259 -1.5546  1.4700
  918MOL0     H21122   1.506   9.746   4.165 -1.2567 -1.1601  1.1916
  918MOL0     H21123   1.531   9.744   4.395 -1.4390 -0.7553 -2.2318
  918MOL0     H21124   1.700   9.704   4.403 -0.2595 -0.5866  0.7888
  918MOL0     H21125   1.478   9.514   4.329  0.0608  1.3902 -1.2814
  918MOL0     H21126   1.651   9.470   4.306 -2.0439 -1.1924 -2.8738
  918MOL0     H21127   1.502   9.554   4.571  3.4405  4.0772 -0.2141
  918MOL0     H21128   1.673   9.531   4.565  0.9462 -0.6875  1.5279
  918MOL0     H21129   1.729   9.310   4.700 -0.6673  0.6602 -0.9601
  918MOL0     H21130   1.739   9.056   4.744  0.7093  0.6186 -0.4723
  918MOL0     H21131   1.723   8.971   4.592 -2.2117 -1.5955 -1.2752
  918MOL0     H21132   1.489   8.888   4.637  2.0665 -4.1930  1.0177
  918MOL0     H21133   1.471   9.007   4.764  0.2449  0.1062 -0.2867
  918MOL0     H21134   1.677   8.777   4.792  1.3670  0.6869  2.8257
  918MOL0     H21135   1.589   8.857   4.919 -3.2210  0.9880 -0.3639
  918MOL0     H21136   1.373   8.754   4.810 -0.9111 -1.0127  0.8684
  918MOL0     H21137   1.481   8.635   4.900 -1.4189 -1.1597 -1.0896
  918MOL0     H21138   1.595   8.404   4.657 -0.0754  2.9357  1.2400
  918MOL0     H21139   1.478   8.171   4.673 -0.7352 -0.0644 -1.1771
  918MOL0     H21140   0.899   8.106   4.922  1.1023 -0.2481 -1.6381
  918MOL0     H21141   0.764   7.910   4.999  0.1923  2.9992 -1.0109
  918MOL0     H21142   0.719   7.594   5.162 -0.5939 -0.7623 -3.0343
  918MOL0     H21143   0.701   7.751   5.089  2.0488  0.9142 -1.6462
  918MOL0     H21144   0.831   7.859   5.234  1.8036 -0.6290 -2.6859
  918MOL0     H21145   0.924   7.721   5.276 -0.0782 -1.1237  1.2993
  918MOL0     H21146   0.792   7.792   5.476  0.0305  1.9898 -1.1113
  918MOL0     H21147   0.703   7.656   5.415 -0.5508  0.5537 -1.0327
  918MOL0     H21148   0.639   7.949   5.336  2.0039  0.5948  0.8385
  918MOL0     H21149   0.530   7.811   5.341 -0.2893 -0.1892  1.8667
  918MOL0     H21150   0.650   7.954   5.577 -0.6339 -0.1637  0.0868
  918MOL0     H21151   0.560   7.802   5.589  2.3940 -1.4972 -0.7569
  918MOL0     H21152   0.370   7.919   5.488 -2.8811 -0.2053  7.1319
  918MOL0     H21153   0.449   8.078   5.455  0.7806 -0.0417  0.7780
  918MOL0     H21154   0.412   7.963   5.731 -0.1625  1.4475  1.0534
  918MOL0     H21155   0.491   8.118   5.676  1.6043 -0.4757 -3.0166
  918MOL0     H21156   0.257   8.164   5.754 -1.7453 -1.5287  0.1638
  918MOL0     H21157   0.196   8.024   5.664  0.8057 -0.7872  0.9856
  918MOL0     H21158   1.137   7.686   4.990 -2.1830 -2.0179 -0.1979
  918MOL0     H21159   1.247   7.881   4.916  0.0086 -0.3845  2.1979
  918MOL0     H21160   1.097   8.351   4.732  0.5557 -1.7579  1.6021
  918MOL0     H21161   1.205   8.573   4.763 -2.2833 -1.2875 -0.2281
  918MOL0     H21162   1.620  10.434   4.152 -0.2161  1.8354  0.3597
  918MOL0     H21163   1.474  10.613   4.253  1.2972 -0.6688 -0.5527
  918MOL0     H21164   1.239  10.661   4.716  1.3869  2.2830  1.0483
  918MOL0     H21165   1.083  10.832   4.819 -3.1651  0.1525  0.0209
  918MOL0     H21166   0.787  10.922   4.678  0.1550 -1.5310  3.5748
  918MOL0     H21167   0.769  11.092   4.707  1.1441  1.5785 -0.5961
  918MOL0     H21168   0.712  10.914   4.878 -0.0963  0.5892  0.1503
  918MOL0     H21169   0.888  10.887   4.894 -0.7281 -1.2601 -2.7657
  918MOL0     H21170   0.715  11.144   4.964  0.2215 -0.4421 -0.7117
  918MOL0     H21171   0.891  11.144   4.951 -0.1075  2.2527  1.2997
  918MOL0     H21172   0.757  11.070   5.193 -0.3331  0.4153 -1.2016
  918MOL0     H21173   0.833  10.930   5.129  3.3525 -0.3871 -2.2775
  918MOL0     H21174   1.146  11.176   5.273 -0.1450  1.5879 -1.4931
  918MOL0     H21175   0.988  10.990   4.450 -1.2953 -1.5146 -2.8250
  918MOL0     H21176   1.103  10.803   4.326 -2.3212 -2.3213 -0.4298
  919MOL0     O21177   8.845  10.025   9.959 -0.0039  0.1488 -0.1606
  919MOL0     C21178   8.852  10.094   9.853 -0.9414  0.2044 -0.0555
  919MOL0     O21179   8.979  10.141   9.804  0.4298  0.5518 -0.5182
  919MOL0     C21180   9.090  10.108   9.865  0.3382 -0.0068 -0.1906
  919MOL0     C21181   9.164  10.005   9.816  0.5555 -0.8680  0.3211
  919MOL0     C21182   9.278   9.961   9.873  0.2988 -0.4819  0.0984
  919MOL0     C21183   9.329  10.027   9.984  0.5971  0.4586  0.1877
  919MOL0     O21184   9.450  10.007  10.044  0.1560  0.0329 -0.5625
  919MOL0     C21185   9.538   9.895  10.002 -0.1318  1.3580 -0.4072
  919MOL0     C21186   9.655   9.889  10.106 -0.2819  0.0864  0.0273
  919MOL0     C21187   9.745   9.766  10.065 -0.2697 -0.5674 -0.3668
  919MOL0     C21188   9.880   9.801  10.147  0.0917  0.6429  0.0644
  919MOL0     C21189   9.971   9.692  10.127 -0.6256 -0.2412 -0.3165
  919MOL0     C21190  10.098   9.730  10.212  0.1843 -0.4402 -0.3599
  919MOL0     C21191  10.229   9.652  10.183 -1.1574  0.2254  0.1710
  919MOL0     C21192  10.252   9.538  10.283 -0.2027 -1.2697 -0.9888
  919MOL0     N21193  10.315   9.583  10.407  0.9907  0.3950 -0.2153
  919MOL0     C21194  10.446   9.606  10.405 -0.2523  0.1361  0.0501
  919MOL0     C21195  10.464   9.696  10.510 -0.5136  0.0326  0.3855
  919MOL0     C21196  10.582   9.761  10.558 -0.5139 -0.9433  0.9475
  919MOL0     C21197  10.624   9.902  10.492  0.0383  0.2318 -0.1811
  919MOL0     C21198  10.662   9.882  10.345  0.4558 -0.0020  0.3932
  919MOL0     C21199  10.795   9.802  10.320  0.1801 -0.0825  0.3654
  919MOL0     O21200  10.836   9.816  10.192 -0.0407 -0.6297 -0.5136
  919MOL0     C21201  10.970   9.822  10.166 -0.1711  0.2401  0.5439
  919MOL0     C21202  11.071   9.783  10.253  0.0825 -0.3165  0.0206
  919MOL0     C21203  11.211   9.777  10.226 -0.1938 -0.4623 -0.3847
  919MOL0     C21204  11.256   9.822  10.099 -0.8728  0.3360 -0.6535
  919MOL0     C21205  11.403   9.811  10.075  0.5202  0.8612 -0.4515
  919MOL0     O21206  11.450   9.885   9.974  0.5275 -0.8747  0.1821
  919MOL0     C21207  11.577   9.879   9.916  0.3096 -0.1870 -0.0133
  919MOL0     C21208  11.604   9.985   9.837 -0.0663 -1.3600 -0.5563
  919MOL0     C21209  11.726  10.000   9.776  0.3447  0.4027  0.2142
  919MOL0     C21210  11.826   9.904   9.802 -0.4731 -0.1103 -0.1257
  919MOL0     O21211  11.944   9.918   9.731  0.0720 -1.1498 -0.3386
  919MOL0     C21212  12.041   9.809   9.716  0.3939 -0.4363 -0.6694
  919MOL0     C21213  12.097   9.790   9.574 -0.0339  0.4106  0.1090
  919MOL0     C21214  11.989   9.740   9.471 -0.7181 -0.2307  0.4826
  919MOL0     C21215  12.075   9.693   9.347 -0.0088  0.4746 -0.5409
  919MOL0     C21216  11.970   9.699   9.229  0.6652 -0.3134  0.4514
  919MOL0     C21217  12.042   9.677   9.101  0.0323  0.0270 -0.4223
  919MOL0     C21218  11.983   9.748   8.971 -0.0674 -0.3213  0.0260
  919MOL0     C21219  11.870   9.680   8.891  0.1345  0.6440  0.0590
  919MOL0    Cl21220  11.927   9.514   8.827 -0.0947  0.6512 -0.0043
  919MOL0     C21221  11.798   9.800   9.893 -0.8684 -0.0324  0.2236
  919MOL0     C21222  11.674   9.783   9.946 -1.1127  0.4510 -0.5707
  919MOL0     O21223  11.462   9.723  10.136  0.4840 -0.2720  0.4454
  919MOL0     C21224  11.155   9.875  10.008 -0.6665  0.1764  0.4612
  919MOL0     C21225  11.018   9.866  10.041  0.6530 -0.8832  0.4045
  919MOL0     N21226  10.335   9.710  10.564 -0.3571 -0.5453  0.2550
  919MOL0     N21227  10.247   9.646  10.501 -0.1974  0.8087  0.2934
  919MOL0     C21228   9.250  10.132  10.038 -0.4646 -0.0522 -1.2047
  919MOL0     C21229   9.126  10.172   9.984 -0.1120 -0.2387  0.3544
  919MOL0     C21230   8.734  10.147   9.796  0.8303 -0.6682 -0.2866
  919MOL0     C21231   8.722  10.226   9.682  0.0639 -1.6250 -0.0811
  919MOL0     C21232   8.598  10.247   9.623  0.0471 -0.9323 -0.0948
  919MOL0     C21233   8.478  10.211   9.690 -0.0466 -0.6872 -0.4708
  919MOL0     O21234   8.360  10.252   9.632 -0.8965  0.8307  0.1109
  919MOL0     C21235   8.241  10.162   9.632 -0.0803 -0.5425  0.2188
  919MOL0     C21236   8.135  10.234   9.545 -0.2370  0.2085 -0.2106
  919MOL0     C21237   8.095  10.364   9.615 -0.2321 -0.3447 -0.0776
  919MOL0     C21238   7.983  10.436   9.543 -0.4065  1.2734 -0.2660
  919MOL0     C21239   8.007  10.460   9.398  0.0503 -0.6157 -0.2915
  919MOL0     C21240   8.025  10.487   9.284  0.5366  0.8364  0.8479
  919MOL0     C21241   8.489  10.144   9.804 -0.7304 -0.4703 -0.0457
  919MOL0     C21242   8.615  10.111   9.857  0.5560 -0.0704 -0.2823
  919MOL0     H21243   9.129   9.960   9.724  0.7519  0.5810 -0.4972
  919MOL0     H21244   9.333   9.890   9.813 -0.7565 -0.3499 -1.0591
  919MOL0     H21245   9.588   9.898   9.905  1.7708 -2.4626  0.2375
  919MOL0     H21246   9.481   9.801   9.999  3.4225 -1.0311 -2.4310
  919MOL0     H21247   9.613   9.875  10.206  2.2065  2.6279  1.5697
  919MOL0     H21248   9.703   9.987  10.118 -0.4885  0.0602  1.1649
  919MOL0     H21249   9.764   9.769   9.958  0.2579 -1.6596 -0.3174
  919MOL0     H21250   9.699   9.670  10.094  0.3028 -0.5588  0.6360
  919MOL0     H21251   9.911   9.893  10.097  2.0857 -0.9847 -1.8478
  919MOL0     H21252   9.865   9.828  10.252  0.5628 -1.4528  0.7204
  919MOL0     H21253   9.991   9.677  10.021  3.2185 -0.4751  0.2875
  919MOL0     H21254   9.927   9.603  10.172 -1.0095 -0.1437 -0.4981
  919MOL0     H21255  10.074   9.721  10.319  0.1630 -0.2118 -0.3441
  919MOL0     H21256  10.121   9.832  10.179  0.2453 -0.0626  0.7884
  919MOL0     H21257  10.232   9.596  10.089 -0.1927 -2.8112  1.8707
  919MOL0     H21258  10.315   9.719  10.170 -1.2940 -0.0659 -3.0442
  919MOL0     H21259  10.316   9.461  10.237  1.6802  0.5577 -1.5821
  919MOL0     H21260  10.160   9.492  10.318  0.2328 -0.0221  2.0521
  919MOL0     H21261  10.518   9.559  10.339  2.0113  3.9948 -0.5187
  919MOL0     H21262  10.661   9.687  10.543  0.8203  0.3249  1.5044
  919MOL0     H21263  10.569   9.777  10.665  0.8002 -0.3115  1.0292
  919MOL0     H21264  10.711   9.929  10.552 -0.9629 -1.7713  2.3680
  919MOL0     H21265  10.548   9.980  10.503 -2.3054 -2.1046  1.2696
  919MOL0     H21266  10.576   9.836  10.296  0.0612  1.1919 -0.0725
  919MOL0     H21267  10.679   9.984  10.308  1.1782  0.5326  2.0598
  919MOL0     H21268  10.766   9.698  10.341 -2.4296 -0.0975 -2.5853
  919MOL0     H21269  10.865   9.843  10.393  1.3978 -0.4147 -0.5728
  919MOL0     H21270  11.041   9.750  10.352 -0.5676 -1.7833 -0.6407
  919MOL0     H21271  11.272   9.743  10.309 -2.6280 -3.0543  0.5006
  919MOL0     H21272  11.532  10.064   9.819 -0.3542 -2.0381 -2.7652
  919MOL0     H21273  11.746  10.073   9.698 -1.4275 -0.6628 -1.3221
  919MOL0     H21274  12.000   9.713   9.747  2.3224 -0.1111  3.6381
  919MOL0     H21275  12.127   9.829   9.781 -0.1278 -1.6998  0.4533
  919MOL0     H21276  12.171   9.709   9.581  0.6112  0.9393 -0.4858
  919MOL0     H21277  12.163   9.864   9.528  1.3096 -0.9652 -0.2808
  919MOL0     H21278  11.921   9.821   9.444 -0.9738 -0.9911 -1.3639
  919MOL0     H21279  11.928   9.657   9.508 -1.6295  0.4600  0.5653
  919MOL0     H21280  12.149   9.772   9.334 -0.0085  0.4216 -0.8661
  919MOL0     H21281  12.132   9.601   9.360  2.7248  1.9456 -1.4059
  919MOL0     H21282  11.921   9.796   9.220 -1.1995 -0.9811  2.6338
  919MOL0     H21283  11.891   9.625   9.237 -1.8632  2.1501 -0.1415
  919MOL0     H21284  12.037   9.568   9.086 -0.8418  0.0522 -0.3602
  919MOL0     H21285  12.145   9.708   9.116  0.4970 -1.2877 -0.7299
  919MOL0     H21286  11.949   9.848   8.998  0.2087  0.2999 -1.8079
  919MOL0     H21287  12.068   9.772   8.907 -0.5804 -0.0173 -0.5523
  919MOL0     H21288  11.848   9.724   8.793 -2.5013 -1.1762 -0.2699
  919MOL0     H21289  11.788   9.686   8.963  1.9732 -0.2409  2.3637
  919MOL0     H21290  11.870   9.719   9.903  2.2010  2.1921 -1.9088
  919MOL0     H21291  11.652   9.693  10.004 -1.9876  1.2001  0.3031
  919MOL0     H21292  11.181   9.923   9.914 -1.8491 -0.6571 -0.3345
  919MOL0     H21293  10.942   9.898   9.970  1.4108 -1.4431 -0.6839
  919MOL0     H21294   9.298  10.175  10.126 -2.6730  0.4330 -0.1678
  919MOL0     H21295   9.061  10.248  10.026 -3.2136 -2.1783 -0.6439
  919MOL0     H21296   8.817  10.270   9.652 -0.7221 -0.8115 -1.4659
  919MOL0     H21297   8.611  10.322   9.546  1.6514  1.5766  2.4074
  919MOL0     H21298   8.197  10.151   9.731 -2.7785  1.4745 -0.6199
  919MOL0     H21299   8.270  10.069   9.582 -1.6781 -0.3348 -1.2274
  919MOL0     H21300   8.182  10.261   9.450  1.2460  0.3181  0.5337
  919MOL0     H21301   8.054  10.168   9.512  0.6875 -0.7344 -0.6468
  919MOL0     H21302   8.183  10.427   9.626 -0.0800 -0.6915  0.8626
  919MOL0     H21303   8.072  10.348   9.721  0.0346 -0.3810 -0.0244
  919MOL0     H21304   7.890  10.380   9.556  0.0635  0.8313  1.4032
  919MOL0     H21305   7.968  10.530   9.597 -0.5984  0.7888  0.5458
  919MOL0     H21306   8.025  10.510   9.180 -0.6896 -1.0750  0.3643
  919MOL0     H21307   8.400  10.098   9.846 -0.2963 -3.2759 -1.9309
  919MOL0     H21308   8.606  10.053   9.949  1.7082 -3.4973 -2.1253
  920MOL0     O21309  10.906   8.694   5.310  0.9817  0.0589 -0.7337
  920MOL0     C21310  10.993   8.764   5.249 -0.4298  0.0925  0.5448
  920MOL0     O21311  11.062   8.723   5.137 -0.8523  0.4805 -0.2277
  920MOL0     C21312  11.025   8.611   5.074 -0.3775 -0.1603  0.3976
  920MOL0     C21313  11.099   8.489   5.089  0.0902 -0.6202 -0.2135
  920MOL0     C21314  11.066   8.366   5.035  0.0727  0.6786 -0.3452
  920MOL0     C21315  10.936   8.358   4.973  0.4802  1.1927 -0.1934
  920MOL0     O21316  10.901   8.238   4.914  0.5284  0.5386  0.1985
  920MOL0     C21317  10.765   8.213   4.881 -0.2208  0.9987 -0.7229
  920MOL0     C21318  10.733   8.071   4.846 -0.3954  0.5444 -0.9545
  920MOL0     C21319  10.762   7.975   4.962  0.1297 -0.2052  0.1598
  920MOL0     C21320  10.705   7.831   4.931  0.0596 -0.1619 -0.1844
  920MOL0     C21321  10.775   7.765   4.805 -0.3709  0.2803 -0.1590
  920MOL0     C21322  10.736   7.614   4.797  0.3857  0.1546 -0.2400
  920MOL0     C21323  10.837   7.526   4.715  0.3038 -0.5514 -0.5157
  920MOL0     C21324  10.814   7.381   4.731  0.4954  1.3188  0.8101
  920MOL0     N21325  10.693   7.326   4.671 -0.0162  1.4359  0.4810
  920MOL0     C21326  10.582   7.277   4.737  0.2047  0.7305  0.3545
  920MOL0     C21327  10.497   7.232   4.637 -0.0606 -0.4252 -1.4216
  920MOL0     C21328  10.359   7.175   4.654 -0.1899 -0.3033  0.6156
  920MOL0     C21329  10.260   7.283   4.710 -0.5331 -0.6369 -0.6224
  920MOL0     C21330  10.246   7.412   4.640 -0.0242 -0.0811  0.0205
  920MOL0     C21331  10.263   7.414   4.485  0.1805 -1.3874 -0.4888
  920MOL0     O21332  10.218   7.540   4.428 -0.2726  0.5646  1.3640
  920MOL0     C21333  10.232   7.559   4.289  0.5948  0.4111 -0.4539
  920MOL0     C21334  10.206   7.686   4.236  0.3948 -0.4858 -1.0582
  920MOL0     C21335  10.209   7.712   4.103 -0.8463  0.8570 -0.7163
  920MOL0     C21336  10.242   7.609   4.014 -0.2310 -0.3100 -0.6702
  920MOL0     C21337  10.256   7.641   3.868 -0.4548  1.2132  0.4429
  920MOL0     O21338  10.269   7.765   3.823  0.4856 -0.9811  0.7336
  920MOL0     C21339  10.314   7.805   3.700  0.7143 -0.9815  0.1445
  920MOL0     C21340  10.410   7.900   3.686 -0.1344  0.4900  0.2389
  920MOL0     C21341  10.465   7.935   3.566  0.5541 -0.7222 -0.2957
  920MOL0     C21342  10.415   7.883   3.444  0.6641  0.5018 -0.2467
  920MOL0     O21343  10.456   7.920   3.314 -0.3421  0.2098 -0.0143
  920MOL0     C21344  10.594   7.894   3.287 -0.1561  0.9782 -0.5492
  920MOL0     C21345  10.640   7.959   3.152 -0.7533 -0.2449  0.1492
  920MOL0     C21346  10.562   7.908   3.022 -0.0766 -0.5383  0.6726
  920MOL0     C21347  10.434   7.996   3.008 -0.0980  0.7657 -0.5253
  920MOL0     C21348  10.362   7.958   2.877  0.2616 -0.4632 -0.0498
  920MOL0     C21349  10.311   7.814   2.885 -0.1591  0.5608  0.6308
  920MOL0     C21350  10.217   7.788   2.760 -0.5324  0.5544 -0.6827
  920MOL0     C21351  10.282   7.804   2.629 -0.4974  0.2227 -0.9480
  920MOL0    Cl21352  10.252   7.968   2.557 -0.1016  0.0667  0.2244
  920MOL0     C21353  10.304   7.791   3.457  0.4188  0.6260 -1.0082
  920MOL0     C21354  10.252   7.752   3.587 -0.3282 -0.4481  0.4651
  920MOL0     O21355  10.239   7.545   3.790  0.0207 -0.8859 -0.5365
  920MOL0     C21356  10.253   7.476   4.059  0.3209  0.0332 -0.1753
  920MOL0     C21357  10.249   7.451   4.197  0.3185  0.3038  0.5612
  920MOL0     N21358  10.563   7.240   4.516 -1.0592 -0.6367  0.2113
  920MOL0     N21359  10.684   7.281   4.544  0.2281  0.0816  0.6970
  920MOL0     C21360  10.867   8.475   4.958  0.2419 -0.2026  0.3713
  920MOL0     C21361  10.906   8.598   4.997  0.9263 -0.1878  0.8868
  920MOL0     C21362  11.037   8.884   5.310 -0.4850  0.5580 -0.9844
  920MOL0     C21363  10.985   8.929   5.431  0.2235 -0.5105  0.1962
  920MOL0     C21364  11.024   9.049   5.478 -0.0085  0.1412  0.6072
  920MOL0     C21365  11.121   9.132   5.417  0.0627 -0.4175  0.7870
  920MOL0     O21366  11.164   9.251   5.462 -0.2968 -0.3396 -0.5037
  920MOL0     C21367  11.069   9.334   5.511  0.3662 -0.1241  0.3004
  920MOL0     C21368  11.123   9.473   5.490 -0.2991  0.4939  0.5819
  920MOL0     C21369  11.029   9.578   5.545 -0.0287  0.0448  0.5813
  920MOL0     C21370  10.917   9.595   5.444 -0.0208 -0.1741 -0.1469
  920MOL0     C21371  10.814   9.684   5.509  0.6717  0.1804  0.8259
  920MOL0     C21372  10.739   9.760   5.562  0.1313 -0.2746 -0.6136
  920MOL0     C21373  11.164   9.093   5.289 -0.1074 -1.8658 -0.5636
  920MOL0     C21374  11.116   8.972   5.232 -0.1019  0.1295  0.4880
  920MOL0     H21375  11.188   8.498   5.151  0.5357 -0.1812 -0.8983
  920MOL0     H21376  11.132   8.279   5.040 -0.2086  0.3113 -2.3439
  920MOL0     H21377  10.730   8.282   4.803 -0.2707  0.9136 -0.7754
  920MOL0     H21378  10.710   8.238   4.973 -0.7219 -2.0306 -0.0806
  920MOL0     H21379  10.790   8.046   4.756 -1.8541 -1.7581 -1.3397
  920MOL0     H21380  10.630   8.048   4.815 -1.1024 -0.1860  1.6120
  920MOL0     H21381  10.715   8.023   5.049  4.5417  6.1080 -0.2132
  920MOL0     H21382  10.870   7.972   4.978  0.8094  1.1332 -3.3499
  920MOL0     H21383  10.718   7.771   5.021 -2.0830  0.6725  0.7386
  920MOL0     H21384  10.598   7.833   4.911 -0.3303  1.3611  1.7667
  920MOL0     H21385  10.881   7.774   4.833 -0.0542  3.2107 -1.8319
  920MOL0     H21386  10.761   7.824   4.714  0.8296 -0.1213 -0.6352
  920MOL0     H21387  10.639   7.602   4.747  0.9091  0.0732 -1.2591
  920MOL0     H21388  10.721   7.573   4.898  0.5098 -1.4658 -0.8510
  920MOL0     H21389  10.843   7.549   4.608  1.0181 -1.0686 -0.5891
  920MOL0     H21390  10.934   7.556   4.755 -0.0444  2.9452 -1.9564
  920MOL0     H21391  10.825   7.343   4.833  1.2686 -1.4523 -0.2398
  920MOL0     H21392  10.882   7.322   4.670 -2.7549 -0.5157 -1.3340
  920MOL0     H21393  10.561   7.275   4.844  1.1827 -2.7810  0.6264
  920MOL0     H21394  10.371   7.094   4.727 -0.3221 -1.7628 -0.9352
  920MOL0     H21395  10.327   7.136   4.557 -2.6357  0.5573  1.0014
  920MOL0     H21396  10.270   7.305   4.817 -1.7317  1.4855 -0.8971
  920MOL0     H21397  10.162   7.236   4.704 -0.7243 -0.3885  0.3650
  920MOL0     H21398  10.145   7.442   4.667  0.2070  0.2484  0.5261
  920MOL0     H21399  10.316   7.489   4.674  0.0965  0.0084 -0.4172
  920MOL0     H21400  10.204   7.328   4.453  1.7385 -4.2893  3.4792
  920MOL0     H21401  10.368   7.390   4.468 -0.0638 -1.7401 -1.5490
  920MOL0     H21402  10.190   7.768   4.305  1.0018 -1.4952  0.3281
  920MOL0     H21403  10.202   7.813   4.065  2.1835  0.6903 -1.9530
  920MOL0     H21404  10.453   7.939   3.778  1.0973 -1.2121  0.4373
  920MOL0     H21405  10.544   8.009   3.566 -0.3798  0.3935 -2.7263
  920MOL0     H21406  10.607   7.787   3.267 -0.9218  0.6671  0.4976
  920MOL0     H21407  10.666   7.924   3.362  1.1648 -2.7799 -0.0771
  920MOL0     H21408  10.747   7.950   3.129 -1.0138  0.2394 -1.3572
  920MOL0     H21409  10.614   8.065   3.161  2.0824  0.8443 -2.4160
  920MOL0     H21410  10.548   7.800   3.018  1.9512 -0.8174 -0.7305
  920MOL0     H21411  10.627   7.925   2.935 -0.1389 -1.7367  0.3829
  920MOL0     H21412  10.358   7.954   3.075  0.3807 -0.1853 -0.5611
  920MOL0     H21413  10.460   8.101   3.019 -1.3779  1.0113  0.4573
  920MOL0     H21414  10.434   7.973   2.796  2.0031 -0.7279  1.3922
  920MOL0     H21415  10.278   8.028   2.876 -1.0832 -2.0211  0.1563
  920MOL0     H21416  10.258   7.787   2.977 -1.6593 -0.8055 -0.5911
  920MOL0     H21417  10.397   7.747   2.878  0.3032  1.0237  1.6797
  920MOL0     H21418  10.186   7.685   2.779  1.8857 -0.3958 -1.5187
  920MOL0     H21419  10.117   7.832   2.760 -1.3367 -1.0838  1.7245
  920MOL0     H21420  10.243   7.730   2.559  0.0980  0.0347 -1.0930
  920MOL0     H21421  10.390   7.789   2.634 -0.6880 -1.1311 -0.6255
  920MOL0     H21422  10.257   7.752   3.367 -0.4260 -0.8298  0.0249
  920MOL0     H21423  10.165   7.688   3.600  0.2444 -1.1283  1.0899
  920MOL0     H21424  10.266   7.390   3.993 -0.7504 -0.1083 -0.2197
  920MOL0     H21425  10.258   7.350   4.238  1.9162  1.3088  2.9278
  920MOL0     H21426  10.767   8.467   4.917  1.9672 -0.7048 -4.3124
  920MOL0     H21427  10.840   8.684   4.985  0.9937 -0.4188 -1.8878
  920MOL0     H21428  10.902   8.884   5.483 -0.3713  0.7530  0.3884
  920MOL0     H21429  11.001   9.096   5.574 -1.3235 -0.0708  0.4148
  920MOL0     H21430  11.038   9.318   5.615  0.3201 -1.0086  0.1632
  920MOL0     H21431  10.979   9.320   5.450  0.7498 -0.5064 -0.1831
  920MOL0     H21432  11.214   9.467   5.551  0.8853  0.2080 -1.1325
  920MOL0     H21433  11.164   9.499   5.392  0.5326  3.0406  1.5250
  920MOL0     H21434  11.093   9.666   5.550  2.3178 -1.3037 -2.5078
  920MOL0     H21435  10.996   9.543   5.644  1.1378 -0.5470  0.7871
  920MOL0     H21436  10.956   9.642   5.353 -3.0684  0.2510 -1.3723
  920MOL0     H21437  10.871   9.506   5.402 -1.8602 -0.1308  1.6243
  920MOL0     H21438  10.678   9.827   5.618 -0.7735 -0.7789 -0.9821
  920MOL0     H21439  11.230   9.155   5.229 -0.8343 -0.7158 -0.2069
  920MOL0     H21440  11.139   8.945   5.130 -0.8660 -0.9124  0.5704
  921MOL0     O21441   4.088  10.968   7.348  0.1726  0.5247 -1.1232
  921MOL0     C21442   4.180  10.951   7.427  0.3972 -0.5956 -0.4303
  921MOL0     O21443   4.299  10.903   7.394 -0.2873  0.3330 -0.1638
  921MOL0     C21444   4.333  10.859   7.269 -0.7815 -0.3506  0.6950
  921MOL0     C21445   4.317  10.948   7.156 -1.0640  0.2648 -0.1522
  921MOL0     C21446   4.351  10.899   7.028 -0.7880 -0.7083  0.1808
  921MOL0     C21447   4.404  10.765   7.007 -0.6937  0.1417  0.1885
  921MOL0     O21448   4.439  10.727   6.876  0.0618  0.0683 -0.3264
  921MOL0     C21449   4.342  10.643   6.811 -0.8732  0.1663 -0.4190
  921MOL0     C21450   4.417  10.564   6.700  0.5302 -0.1003  0.1013
  921MOL0     C21451   4.488  10.442   6.749  0.0665  0.2013  0.2414
  921MOL0     C21452   4.536  10.361   6.631  0.9203  0.7707 -1.0974
  921MOL0     C21453   4.618  10.238   6.658 -0.0191  0.7615  0.3580
  921MOL0     C21454   4.619  10.135   6.545  0.1138  0.5757  0.1543
  921MOL0     C21455   4.487  10.056   6.534 -0.5277  0.0432  0.3189
  921MOL0     C21456   4.521   9.936   6.441  0.3417  0.2372  0.2338
  921MOL0     N21457   4.411   9.838   6.422  0.2067  0.0061  0.4676
  921MOL0     C21458   4.292   9.858   6.368 -0.2408 -0.4073 -0.1932
  921MOL0     C21459   4.226   9.738   6.383  0.0154 -0.7857 -0.5569
  921MOL0     C21460   4.094   9.705   6.311  0.6223 -0.0202  0.3386
  921MOL0     C21461   4.095   9.683   6.162 -0.7777 -0.1271  0.1110
  921MOL0     C21462   4.180   9.568   6.107  0.0624 -0.2962  0.3744
  921MOL0     C21463   4.130   9.428   6.160 -0.3805  0.7842  0.5567
  921MOL0     O21464   4.030   9.375   6.075 -0.2016 -0.3696  0.4829
  921MOL0     C21465   3.996   9.246   6.103  1.0841 -0.4973  0.9584
  921MOL0     C21466   4.040   9.169   6.211  0.1561 -0.2343 -0.0323
  921MOL0     C21467   4.001   9.030   6.225 -0.4483 -0.7709 -0.2357
  921MOL0     C21468   3.909   8.983   6.131 -0.3898  0.8250  0.6861
  921MOL0     C21469   3.843   8.851   6.138  0.0089  0.6489  0.2827
  921MOL0     O21470   3.749   8.825   6.044 -0.2409  0.3682  0.1271
  921MOL0     C21471   3.679   8.711   6.028  0.4898 -0.2702  0.4368
  921MOL0     C21472   3.574   8.711   5.930 -0.2557 -0.3468 -0.2595
  921MOL0     C21473   3.508   8.593   5.882  0.3157  0.1054  0.1988
  921MOL0     C21474   3.540   8.471   5.939  0.0105  0.5283  0.5063
  921MOL0     O21475   3.481   8.351   5.903 -0.7135  0.1648  0.0702
  921MOL0     C21476   3.371   8.347   5.812 -0.5457 -0.7588  0.4552
  921MOL0     C21477   3.248   8.374   5.895 -1.2579  0.6650 -0.2889
  921MOL0     C21478   3.136   8.398   5.797 -0.3139 -0.1624 -0.0764
  921MOL0     C21479   3.125   8.546   5.765  0.4851 -0.0886  0.0733
  921MOL0     C21480   3.009   8.586   5.675 -0.1763  0.3694 -0.4447
  921MOL0     C21481   3.007   8.741   5.661 -0.1627  0.1745  0.6410
  921MOL0     C21482   3.129   8.780   5.567 -0.9716  0.2484 -0.5664
  921MOL0     C21483   3.088   8.898   5.482  0.1629 -0.1782  0.7511
  921MOL0    Cl21484   3.178   8.928   5.335  0.0000  0.0001  0.5050
  921MOL0     C21485   3.636   8.462   6.036 -0.2034 -0.2369  0.0382
  921MOL0     C21486   3.707   8.578   6.075  0.4751  0.4444  0.0827
  921MOL0     O21487   3.881   8.772   6.216  0.0054  0.5711 -0.4940
  921MOL0     C21488   3.868   9.064   6.027 -0.2516 -0.7958 -0.3949
  921MOL0     C21489   3.915   9.189   6.011  0.3628 -0.9461 -0.0502
  921MOL0     N21490   4.310   9.652   6.457 -0.6841  0.4736 -0.1666
  921MOL0     N21491   4.422   9.716   6.473  0.1965 -0.6786 -0.6105
  921MOL0     C21492   4.422  10.681   7.119 -0.1586 -0.3202  0.8393
  921MOL0     C21493   4.383  10.728   7.245  1.1366 -0.8617  0.0502
  921MOL0     C21494   4.164  10.996   7.571 -0.1685  1.3143  0.1064
  921MOL0     C21495   4.039  11.014   7.623 -0.1523 -0.4538 -0.0457
  921MOL0     C21496   4.025  11.038   7.761  0.3599 -0.4823  1.3420
  921MOL0     C21497   4.136  11.057   7.849 -0.7847  0.1563 -0.9852
  921MOL0     O21498   4.109  11.088   7.981 -0.4967  0.2599 -0.3733
  921MOL0     C21499   4.209  11.039   8.083  0.5721 -0.4919  0.6892
  921MOL0     C21500   4.151  11.037   8.223 -0.6300 -0.5386 -0.3558
  921MOL0     C21501   4.106  11.184   8.264  0.2538  0.7300 -0.0288
  921MOL0     C21502   4.041  11.200   8.406  0.6444 -0.1297 -0.2816
  921MOL0     C21503   3.904  11.146   8.407 -0.8857  0.4178  0.0074
  921MOL0     C21504   3.791  11.108   8.381  0.9753 -0.0718 -0.2382
  921MOL0     C21505   4.262  11.041   7.796  0.8428 -0.8710 -0.4192
  921MOL0     C21506   4.274  11.004   7.662  0.0894 -0.5651  0.3107
  921MOL0     H21507   4.277  11.046   7.183  0.0989  1.2589 -1.8401
  921MOL0     H21508   4.329  10.966   6.946 -3.2280 -2.2632 -0.5476
  921MOL0     H21509   4.262  10.696   6.759 -1.7159 -2.5040 -2.0146
  921MOL0     H21510   4.292  10.578   6.884  2.0651 -2.4031 -0.4410
  921MOL0     H21511   4.486  10.635   6.655  0.3498  0.8997  1.3305
  921MOL0     H21512   4.349  10.525   6.624  1.1820 -1.4332  0.1660
  921MOL0     H21513   4.418  10.389   6.814 -1.8884  2.4107  0.0659
  921MOL0     H21514   4.574  10.462   6.812  1.2255 -1.6373 -0.6670
  921MOL0     H21515   4.442  10.336   6.581  0.7292 -0.3200 -0.2299
  921MOL0     H21516   4.598  10.427   6.570  1.5372 -0.4199 -1.7999
  921MOL0     H21517   4.586  10.180   6.745 -1.4824 -1.1303 -1.3407
  921MOL0     H21518   4.719  10.278   6.666 -0.7470  2.8135 -0.1468
  921MOL0     H21519   4.703  10.068   6.562 -1.2575 -1.1703  0.4075
  921MOL0     H21520   4.639  10.181   6.448 -1.6605  3.2536  0.9193
  921MOL0     H21521   4.442  10.010   6.623  0.6174  0.0810  0.9336
  921MOL0     H21522   4.409  10.119   6.490  0.8102  1.3605 -0.2328
  921MOL0     H21523   4.608   9.881   6.478 -1.0382 -1.5682  0.9601
  921MOL0     H21524   4.543   9.987   6.347  2.3166  1.0410  1.0825
  921MOL0     H21525   4.266   9.941   6.303  1.8133  1.3529  1.1014
  921MOL0     H21526   4.030   9.793   6.322 -0.3864 -0.4975 -1.2278
  921MOL0     H21527   4.042   9.617   6.350  0.7335 -0.1782  0.1302
  921MOL0     H21528   4.138   9.769   6.111  2.6246 -2.5014 -1.4447
  921MOL0     H21529   3.990   9.670   6.134 -0.9022  0.7928  0.1261
  921MOL0     H21530   4.168   9.559   5.998 -3.1629 -3.4785  0.8111
  921MOL0     H21531   4.285   9.580   6.133 -0.2570  0.1196  1.5028
  921MOL0     H21532   4.105   9.435   6.266 -0.3795  4.1947  0.4630
  921MOL0     H21533   4.207   9.351   6.154 -0.5781  0.6389 -0.2946
  921MOL0     H21534   4.109   9.201   6.288 -2.7150 -1.5016  3.3733
  921MOL0     H21535   4.034   8.958   6.299  0.6273  1.9812  2.1599
  921MOL0     H21536   3.549   8.811   5.897 -0.8832  0.9816  3.7593
  921MOL0     H21537   3.427   8.602   5.811 -0.6418  0.7373  1.3293
  921MOL0     H21538   3.365   8.247   5.769 -0.7226 -1.0001  1.0198
  921MOL0     H21539   3.385   8.416   5.728 -0.6224 -2.0753 -0.6765
  921MOL0     H21540   3.264   8.459   5.963  3.0393 -2.3461  3.0132
  921MOL0     H21541   3.226   8.294   5.966  2.6040  1.8242  2.5790
  921MOL0     H21542   3.042   8.361   5.838  1.3988 -1.0437  3.5001
  921MOL0     H21543   3.150   8.345   5.702 -3.5858  0.1133 -0.8166
  921MOL0     H21544   3.108   8.611   5.852 -0.6767  2.4389 -1.8863
  921MOL0     H21545   3.218   8.578   5.717 -0.3857  0.3434 -1.3856
  921MOL0     H21546   2.913   8.562   5.720  0.0897  0.1775  0.0239
  921MOL0     H21547   3.038   8.539   5.581 -0.5171 -1.3958  0.3021
  921MOL0     H21548   3.009   8.790   5.758  2.3474 -0.3851  0.9547
  921MOL0     H21549   2.914   8.766   5.610 -0.2469 -1.4861 -0.0984
  921MOL0     H21550   3.207   8.814   5.636 -0.3000 -1.7545 -0.2700
  921MOL0     H21551   3.163   8.698   5.503 -3.8299 -1.6300  0.1371
  921MOL0     H21552   3.097   8.986   5.547  4.9412 -0.0739  0.3174
  921MOL0     H21553   2.982   8.893   5.454 -0.4036  4.1555  1.4519
  921MOL0     H21554   3.661   8.372   6.090  3.4647  1.9856  2.5316
  921MOL0     H21555   3.796   8.574   6.138  0.3033  1.9533  0.4727
  921MOL0     H21556   3.806   9.029   5.945 -0.0026 -0.4719 -0.7246
  921MOL0     H21557   3.892   9.247   5.922 -1.5730 -0.6498  0.6012
  921MOL0     H21558   4.461  10.580   7.119 -0.2822 -0.3757 -0.0583
  921MOL0     H21559   4.394  10.669   7.336 -1.2100  3.0891  3.2547
  921MOL0     H21560   3.949  11.021   7.563 -0.8279  0.3440  1.0131
  921MOL0     H21561   3.924  11.047   7.800  0.1693 -3.5734  1.7990
  921MOL0     H21562   4.301  11.098   8.077 -1.9429  4.0200  1.9741
  921MOL0     H21563   4.230  10.934   8.060 -1.5078 -1.2141  1.8328
  921MOL0     H21564   4.076  10.958   8.234 -1.2697  0.3779  3.3384
  921MOL0     H21565   4.225  11.006   8.296 -0.6588 -2.9502 -1.2787
  921MOL0     H21566   4.035  11.205   8.184  1.9119 -2.8240 -2.6689
  921MOL0     H21567   4.187  11.257   8.251  0.3364  0.4504 -1.1425
  921MOL0     H21568   4.105  11.134   8.464  0.2251 -1.5720 -1.4113
  921MOL0     H21569   4.035  11.303   8.442 -1.3530 -0.2364 -0.2124
  921MOL0     H21570   3.697  11.062   8.359  1.5388 -1.5412  0.2649
  921MOL0     H21571   4.352  11.048   7.856  1.6024  1.0713 -1.6857
  921MOL0     H21572   4.374  10.978   7.629 -0.8243 -3.6076 -0.4016
  922MOL0     O21573   7.866  10.207   4.499  0.2428 -0.2738  0.6040
  922MOL0     C21574   7.963  10.129   4.492 -0.0387 -0.2714  0.5110
  922MOL0     O21575   8.077  10.135   4.416  0.1307 -0.4679 -0.5093
  922MOL0     C21576   8.087  10.228   4.314  0.3919  0.1573 -0.3871
  922MOL0     C21577   8.225  10.248   4.279  0.3858  1.4770 -0.3359
  922MOL0     C21578   8.265  10.317   4.163 -0.3842 -0.6147 -0.3908
  922MOL0     C21579   8.169  10.377   4.086  0.4934 -0.0757  1.0064
  922MOL0     O21580   8.196  10.433   3.964  0.3146 -0.0416  0.1820
  922MOL0     C21581   8.206  10.575   3.979 -0.4502 -0.6384  0.5847
  922MOL0     C21582   8.338  10.621   3.910 -0.7748 -0.0978 -0.4922
  922MOL0     C21583   8.459  10.571   3.989 -0.5809 -0.0028 -0.1862
  922MOL0     C21584   8.591  10.604   3.929  0.5560  0.6092  0.7895
  922MOL0     C21585   8.634  10.749   3.935  0.3126 -0.6332  0.4402
  922MOL0     C21586   8.768  10.750   3.865 -0.4224  0.6428  0.4972
  922MOL0     C21587   8.842  10.885   3.893 -0.2118 -0.1249  0.5929
  922MOL0     C21588   8.983  10.881   3.852 -0.6842 -1.3831  0.7585
  922MOL0     N21589   9.051  11.014   3.868  0.4906  0.4145  0.3070
  922MOL0     C21590   9.009  11.146   3.857  0.8741  0.4561  0.0025
  922MOL0     C21591   9.116  11.216   3.878  0.0546 -0.1075  0.1180
  922MOL0     C21592   9.127  11.364   3.862  0.0716  0.5170  0.5027
  922MOL0     C21593   9.083  11.407   3.720  0.2594 -0.2551 -0.2225
  922MOL0     C21594   9.065  11.560   3.720 -0.1632 -0.7298 -0.2739
  922MOL0     C21595   8.921  11.597   3.791  0.1602  0.6316 -0.6835
  922MOL0     O21596   8.813  11.508   3.748  0.5982  0.4867 -0.8425
  922MOL0     C21597   8.767  11.509   3.626 -0.0680  0.1161  0.2962
  922MOL0     C21598   8.718  11.385   3.582  0.4289 -0.1505 -0.3556
  922MOL0     C21599   8.659  11.370   3.455  0.6260 -0.7619  0.7895
  922MOL0     C21600   8.644  11.470   3.367  0.3316 -0.5243  0.2842
  922MOL0     C21601   8.570  11.450   3.237  1.1219  0.2616 -0.4205
  922MOL0     O21602   8.532  11.560   3.157 -0.5853  0.6402  0.4964
  922MOL0     C21603   8.456  11.538   3.037 -0.3223  0.3386  0.0282
  922MOL0     C21604   8.321  11.494   3.052  0.6252 -0.3940  0.6632
  922MOL0     C21605   8.232  11.472   2.948  0.0137  0.0635  0.2954
  922MOL0     C21606   8.277  11.517   2.820  0.3377  0.0240 -0.6693
  922MOL0     O21607   8.209  11.471   2.711 -0.6521  0.1573  0.6353
  922MOL0     C21608   8.165  11.582   2.633  0.0657 -0.0095  0.4385
  922MOL0     C21609   8.040  11.639   2.692  0.4693  0.7160 -0.3154
  922MOL0     C21610   7.984  11.725   2.584 -0.1999  0.3210  0.3873
  922MOL0     C21611   7.878  11.813   2.649 -0.2780  0.0323 -0.0202
  922MOL0     C21612   7.756  11.729   2.698 -0.2659 -1.0458 -1.7164
  922MOL0     C21613   7.624  11.826   2.692 -0.3925  0.5615 -0.1008
  922MOL0     C21614   7.635  11.934   2.797 -0.3316 -0.0681  0.6695
  922MOL0     C21615   7.506  12.014   2.834 -0.3829  0.4277  0.1869
  922MOL0    Cl21616   7.371  11.902   2.868 -0.7050  0.4022  0.2438
  922MOL0     C21617   8.408  11.585   2.811  0.3556  0.1915  0.5479
  922MOL0     C21618   8.499  11.574   2.916 -0.8323  0.4465  0.2306
  922MOL0     O21619   8.526  11.340   3.213 -0.9298  0.3654  0.6572
  922MOL0     C21620   8.684  11.601   3.417  0.3964 -0.3432 -0.4878
  922MOL0     C21621   8.739  11.621   3.546  0.5657  0.8596  0.5318
  922MOL0     N21622   9.228  11.138   3.894  0.2939  0.3344 -0.0085
  922MOL0     N21623   9.185  11.010   3.888  0.4379  0.5473 -0.1861
  922MOL0     C21624   8.037  10.380   4.130 -0.5813  0.2717  0.5219
  922MOL0     C21625   7.996  10.302   4.240  0.3903 -0.8720  0.3954
  922MOL0     C21626   7.947  10.004   4.562 -0.2144 -0.3371 -0.8939
  922MOL0     C21627   7.840   9.979   4.648  0.5611  0.2279  0.3040
  922MOL0     C21628   7.823   9.855   4.714 -0.3111  0.2964  0.2300
  922MOL0     C21629   7.908   9.740   4.690  0.0943 -0.7461  0.5469
  922MOL0     O21630   7.890   9.631   4.764 -0.0586  0.0502 -0.2756
  922MOL0     C21631   7.929   9.505   4.701 -0.6426  0.5555  0.3881
  922MOL0     C21632   8.034   9.440   4.793  0.3227  0.0231 -0.2872
  922MOL0     C21633   8.175   9.503   4.785 -0.5510  0.4015  1.1784
  922MOL0     C21634   8.256   9.431   4.682  0.4045 -0.0291  0.4444
  922MOL0     C21635   8.403   9.460   4.682  0.5639  0.1019 -0.4980
  922MOL0     C21636   8.510   9.517   4.684 -0.2794  0.3150 -0.5198
  922MOL0     C21637   8.018   9.760   4.597  0.1261  0.7636  0.1854
  922MOL0     C21638   8.029   9.893   4.538 -0.5198  0.6610  0.7242
  922MOL0     H21639   8.301  10.196   4.335 -0.9466 -0.6779 -0.4189
  922MOL0     H21640   8.370  10.321   4.136 -0.2580 -0.4402  0.1172
  922MOL0     H21641   8.213  10.603   4.085 -1.3121  0.7867  0.2985
  922MOL0     H21642   8.116  10.624   3.941 -1.5870 -0.6401  3.0464
  922MOL0     H21643   8.335  10.729   3.898 -1.4154 -0.0675 -0.1154
  922MOL0     H21644   8.323  10.573   3.813 -0.3614 -2.4162  0.5113
  922MOL0     H21645   8.454  10.464   4.008 -0.4070  0.1586  0.8510
  922MOL0     H21646   8.465  10.629   4.082  1.3815  0.3607 -0.4936
  922MOL0     H21647   8.655  10.537   3.987 -1.5749 -0.0963  2.4647
  922MOL0     H21648   8.588  10.569   3.825  0.7434 -0.5524  1.1570
  922MOL0     H21649   8.650  10.781   4.038  1.1487  0.1649  0.0659
  922MOL0     H21650   8.559  10.813   3.888  2.6587  0.5668 -1.9305
  922MOL0     H21651   8.737  10.726   3.763 -1.7986 -1.1828  1.2800
  922MOL0     H21652   8.830  10.665   3.897 -1.8204 -0.4700  0.3467
  922MOL0     H21653   8.785  10.972   3.859  0.5150  0.0777 -0.1505
  922MOL0     H21654   8.860  10.885   4.001  2.8528  2.0267  0.2073
  922MOL0     H21655   8.993  10.870   3.743  0.9047  0.8708  0.6032
  922MOL0     H21656   9.041  10.807   3.908  0.7951 -0.8229  0.0292
  922MOL0     H21657   8.913  11.184   3.825 -0.4289 -3.2837 -1.1457
  922MOL0     H21658   9.226  11.404   3.884  1.0379 -0.9858 -0.8061
  922MOL0     H21659   9.064  11.416   3.934  1.7633  0.5981  1.9848
  922MOL0     H21660   8.993  11.354   3.687  0.5808 -0.9628  0.0185
  922MOL0     H21661   9.161  11.392   3.644 -0.0889 -1.0141 -0.4331
  922MOL0     H21662   9.151  11.607   3.770  1.0375 -3.5646  0.5429
  922MOL0     H21663   9.062  11.586   3.614 -2.1262  2.6238  0.4706
  922MOL0     H21664   8.894  11.703   3.789 -0.8459  0.3834 -0.8212
  922MOL0     H21665   8.938  11.567   3.895  2.2092 -0.7210 -1.3353
  922MOL0     H21666   8.726  11.294   3.640 -1.6451  0.5103  1.0759
  922MOL0     H21667   8.623  11.271   3.428 -0.2987 -0.8573  2.2908
  922MOL0     H21668   8.282  11.475   3.151 -0.6113  0.1856  0.3016
  922MOL0     H21669   8.143  11.411   2.959 -0.5730  0.2327 -2.6429
  922MOL0     H21670   8.137  11.543   2.535 -0.0354 -0.5167  0.6621
  922MOL0     H21671   8.246  11.653   2.617 -1.3565  1.1561 -2.2305
  922MOL0     H21672   8.075  11.695   2.779  3.2885 -0.4482 -0.5722
  922MOL0     H21673   7.977  11.554   2.718 -0.2664  2.1748  3.2098
  922MOL0     H21674   7.943  11.670   2.498  0.0702 -1.3737  1.2883
  922MOL0     H21675   8.061  11.797   2.554 -0.8020  2.2021  3.0671
  922MOL0     H21676   7.927  11.874   2.726  1.0162 -0.9246 -0.0722
  922MOL0     H21677   7.837  11.880   2.573  0.2195  0.7750  0.3513
  922MOL0     H21678   7.767  11.704   2.804 -0.1042  1.3725 -1.1017
  922MOL0     H21679   7.738  11.637   2.642 -1.7531 -2.2802  0.6168
  922MOL0     H21680   7.546  11.755   2.720  0.5222 -1.0847 -1.4792
  922MOL0     H21681   7.607  11.878   2.598  1.1604  0.8475 -0.2635
  922MOL0     H21682   7.671  11.898   2.894 -0.1135 -0.5663  0.4059
  922MOL0     H21683   7.706  12.008   2.760  0.5290 -0.4156  1.5871
  922MOL0     H21684   7.485  12.085   2.754 -1.4661  2.5281  2.2295
  922MOL0     H21685   7.520  12.073   2.925 -3.0724  1.3115  0.0976
  922MOL0     H21686   8.444  11.626   2.717 -1.1170 -2.7462 -1.4572
  922MOL0     H21687   8.605  11.602   2.914 -0.3461 -1.3133  0.1163
  922MOL0     H21688   8.667  11.674   3.338 -0.2518 -1.3771 -1.3261
  922MOL0     H21689   8.754  11.717   3.594 -0.7113  0.5098  1.6805
  922MOL0     H21690   7.970  10.438   4.067  2.1527  1.1364 -1.7994
  922MOL0     H21691   7.888  10.301   4.253  0.0637 -0.1477 -1.8664
  922MOL0     H21692   7.766  10.058   4.656  2.8765  2.5442  0.2454
  922MOL0     H21693   7.737   9.840   4.779  2.8170 -5.2825  3.8200
  922MOL0     H21694   7.973   9.496   4.601 -1.6109 -0.8481  0.0656
  922MOL0     H21695   7.841   9.441   4.700  0.8298 -1.5993  0.6460
  922MOL0     H21696   8.014   9.451   4.900 -0.2067 -0.7783 -0.2961
  922MOL0     H21697   8.034   9.333   4.772  3.3115 -0.5478  1.9190
  922MOL0     H21698   8.222   9.476   4.880  0.5623 -0.7952  0.3267
  922MOL0     H21699   8.174   9.609   4.760  1.5486  0.2575  0.2413
  922MOL0     H21700   8.241   9.325   4.700  0.2704 -0.3950 -1.6266
  922MOL0     H21701   8.212   9.445   4.583  2.1615 -0.3340 -0.4190
  922MOL0     H21702   8.607   9.564   4.676 -0.6854  1.4253  0.6895
  922MOL0     H21703   8.081   9.679   4.564 -4.7492 -3.3965 -0.1737
  922MOL0     H21704   8.113   9.904   4.471 -1.6317  1.1331 -0.6490
  923MOL0     O21705   7.523   2.717   1.898  0.3794 -0.3037  0.5722
  923MOL0     C21706   7.434   2.729   1.812  0.4552 -0.0015 -0.4167
  923MOL0     O21707   7.378   2.627   1.745 -0.0639 -0.4785 -0.2263
  923MOL0     C21708   7.433   2.503   1.749  0.8868  1.7031  0.4617
  923MOL0     C21709   7.572   2.488   1.735  0.0281 -0.0759 -0.3016
  923MOL0     C21710   7.629   2.365   1.738  0.0774  0.1771 -0.7288
  923MOL0     C21711   7.546   2.246   1.741  0.2355 -0.1359 -0.0679
  923MOL0     O21712   7.618   2.134   1.767  0.0692 -0.6279 -0.2281
  923MOL0     C21713   7.550   2.008   1.731  0.3128 -0.2948 -0.0391
  923MOL0     C21714   7.458   1.946   1.841  0.0244 -0.6176 -0.2050
  923MOL0     C21715   7.523   1.832   1.919 -0.4695 -0.2134  0.1170
  923MOL0     C21716   7.638   1.888   2.013 -0.6775  0.5974 -0.2332
  923MOL0     C21717   7.671   1.800   2.135  0.2077 -0.0572  0.2768
  923MOL0     C21718   7.598   1.863   2.257 -0.2664  0.0508  0.1946
  923MOL0     C21719   7.632   1.778   2.386 -0.2951 -1.0480  0.4618
  923MOL0     C21720   7.750   1.825   2.473 -0.1048 -1.2120  0.2724
  923MOL0     N21721   7.776   1.727   2.577  0.2506  0.2032  0.3649
  923MOL0     C21722   7.852   1.622   2.539  0.6731 -0.4280  0.2773
  923MOL0     C21723   7.879   1.554   2.649 -0.1150 -0.1222  0.3054
  923MOL0     C21724   7.942   1.419   2.670 -0.5216  0.9556  0.5092
  923MOL0     C21725   8.096   1.439   2.673  0.5384  0.0470  0.2710
  923MOL0     C21726   8.154   1.302   2.710 -0.0508  0.0716  0.6431
  923MOL0     C21727   8.316   1.313   2.684  0.0518 -0.5436  0.3359
  923MOL0     O21728   8.399   1.253   2.780  0.2781 -0.1440 -0.7238
  923MOL0     C21729   8.410   1.318   2.903 -1.1780 -0.8790  0.0750
  923MOL0     C21730   8.340   1.428   2.949 -0.2128  0.8251 -0.6616
  923MOL0     C21731   8.361   1.479   3.078 -0.1103  1.1044 -0.1047
  923MOL0     C21732   8.468   1.428   3.155 -0.2667  0.1455  0.2667
  923MOL0     C21733   8.522   1.498   3.276  0.4794  0.6139 -0.3909
  923MOL0     O21734   8.652   1.483   3.313 -0.3772  0.3659  0.5088
  923MOL0     C21735   8.677   1.526   3.440  0.6195  0.2856 -1.4733
  923MOL0     C21736   8.688   1.429   3.541  1.2293 -0.0626  0.6667
  923MOL0     C21737   8.698   1.469   3.677 -0.3457 -0.1342  0.9598
  923MOL0     C21738   8.700   1.607   3.719  0.0022 -0.1917  0.0560
  923MOL0     O21739   8.698   1.629   3.857  0.5902  0.3132  0.0776
  923MOL0     C21740   8.723   1.762   3.908 -0.0049  0.0821 -0.4813
  923MOL0     C21741   8.707   1.774   4.055  0.7409 -0.1240 -0.3682
  923MOL0     C21742   8.835   1.752   4.143  0.8162  0.7090  1.0843
  923MOL0     C21743   8.802   1.767   4.296  1.0991  0.0260 -1.1138
  923MOL0     C21744   8.901   1.702   4.382 -0.9909 -0.1649 -0.0044
  923MOL0     C21745   8.849   1.676   4.526 -0.9685  0.4724  0.0836
  923MOL0     C21746   8.857   1.799   4.617  0.9611  0.1171 -0.4366
  923MOL0     C21747   8.824   1.781   4.766 -0.4028 -0.1454  1.4260
  923MOL0    Cl21748   8.932   1.656   4.845 -0.2753 -0.5466 -0.0957
  923MOL0     C21749   8.689   1.706   3.614 -0.8207  0.1552  0.0782
  923MOL0     C21750   8.675   1.664   3.476  0.2988  0.3096 -0.5724
  923MOL0     O21751   8.432   1.560   3.337  0.4305 -0.6224  0.0602
  923MOL0     C21752   8.540   1.315   3.108  0.1307  0.1543 -0.5163
  923MOL0     C21753   8.509   1.261   2.980 -0.5534 -0.0192 -0.9688
  923MOL0     N21754   7.859   1.643   2.750  0.5698 -0.0545  0.0909
  923MOL0     N21755   7.781   1.744   2.709  0.6914  0.7572  1.0366
  923MOL0     C21756   7.408   2.257   1.746  0.1030  0.6472  0.3649
  923MOL0     C21757   7.354   2.380   1.751  0.7154 -0.7328 -0.1258
  923MOL0     C21758   7.378   2.866   1.815  0.1411  0.4557  0.5251
  923MOL0     C21759   7.415   2.966   1.913 -0.0476  1.4239 -0.1094
  923MOL0     C21760   7.364   3.095   1.901  0.1876 -0.7530 -0.4141
  923MOL0     C21761   7.277   3.122   1.801 -0.5740 -0.2646  0.3595
  923MOL0     O21762   7.225   3.247   1.779  0.8417  0.5692  0.9550
  923MOL0     C21763   7.270   3.355   1.866  0.0967 -0.3261  0.4020
  923MOL0     C21764   7.179   3.472   1.845  0.0835 -0.9275 -0.4665
  923MOL0     C21765   7.034   3.467   1.897  0.2905  0.7521  0.2824
  923MOL0     C21766   6.920   3.540   1.813 -0.0597  0.3206  0.4415
  923MOL0     C21767   6.925   3.506   1.669  0.0180  0.4990  0.0075
  923MOL0     C21768   6.947   3.466   1.555  0.5302 -0.2806 -0.2780
  923MOL0     C21769   7.239   3.024   1.710  0.6232 -0.7759 -0.0184
  923MOL0     C21770   7.276   2.887   1.712 -0.6995  0.2744 -0.4939
  923MOL0     H21771   7.633   2.577   1.734 -4.0593  3.0102  0.1474
  923MOL0     H21772   7.737   2.358   1.749  0.1426  2.1997  0.3284
  923MOL0     H21773   7.620   1.927   1.708  0.9938  0.4793 -0.7903
  923MOL0     H21774   7.490   2.026   1.641  0.8535 -0.0903 -0.3664
  923MOL0     H21775   7.364   1.911   1.796 -1.7237  1.1789  1.8455
  923MOL0     H21776   7.434   2.030   1.906  3.2445  0.6132 -0.4319
  923MOL0     H21777   7.571   1.757   1.855 -1.2302 -1.9660  1.5263
  923MOL0     H21778   7.449   1.777   1.978 -0.0213 -0.1716  0.7331
  923MOL0     H21779   7.730   1.902   1.956 -0.6344  0.9212 -0.0853
  923MOL0     H21780   7.618   1.991   2.045 -0.8401  0.9667 -1.4808
  923MOL0     H21781   7.780   1.803   2.143  0.3717  1.6142 -1.7231
  923MOL0     H21782   7.617   1.704   2.127  2.5600 -1.3947 -0.4179
  923MOL0     H21783   7.497   1.837   2.223  1.5123 -1.5990 -4.5456
  923MOL0     H21784   7.629   1.967   2.268  2.9393 -0.1945 -4.0885
  923MOL0     H21785   7.542   1.765   2.446 -0.2290 -0.0942  0.7797
  923MOL0     H21786   7.647   1.674   2.355  0.1463 -0.1394 -2.8429
  923MOL0     H21787   7.734   1.924   2.516 -2.0269 -0.7264 -1.4149
  923MOL0     H21788   7.833   1.835   2.402 -1.0009 -1.6750 -0.8653
  923MOL0     H21789   7.875   1.587   2.439 -1.7206  1.9320 -1.2439
  923MOL0     H21790   7.912   1.359   2.584 -0.5842 -0.5651  1.5490
  923MOL0     H21791   7.903   1.387   2.767 -0.0536  0.6707  0.6074
  923MOL0     H21792   8.131   1.510   2.748 -1.5256 -1.8369  3.2558
  923MOL0     H21793   8.123   1.460   2.569  0.0660  0.8902  0.3153
  923MOL0     H21794   8.129   1.293   2.816  2.1962 -0.5445  1.1737
  923MOL0     H21795   8.110   1.222   2.649 -0.0099  1.0426 -0.7056
  923MOL0     H21796   8.341   1.418   2.671  0.0053 -0.6086 -0.2926
  923MOL0     H21797   8.339   1.269   2.587 -2.2249 -1.1169  0.0025
  923MOL0     H21798   8.257   1.469   2.893 -3.5530 -3.2575  0.7532
  923MOL0     H21799   8.315   1.572   3.111 -0.5405  0.3806  1.4087
  923MOL0     H21800   8.680   1.323   3.517 -4.5991 -0.9192  4.3677
  923MOL0     H21801   8.709   1.392   3.753 -2.1509 -0.3580  1.0278
  923MOL0     H21802   8.650   1.833   3.868  1.7809  1.4118 -1.5290
  923MOL0     H21803   8.823   1.794   3.878 -0.2721  0.3297 -1.1220
  923MOL0     H21804   8.637   1.697   4.089  1.2921 -0.0400  1.0415
  923MOL0     H21805   8.673   1.873   4.088 -4.2968 -1.5268 -0.6437
  923MOL0     H21806   8.912   1.829   4.132 -0.2121  1.6365  0.0419
  923MOL0     H21807   8.871   1.652   4.118  1.4852  1.4940 -1.4403
  923MOL0     H21808   8.787   1.868   4.335  1.1061 -1.3833  3.1171
  923MOL0     H21809   8.711   1.713   4.321 -0.2939  3.3086  1.6089
  923MOL0     H21810   8.990   1.766   4.376  0.8278 -2.5876 -0.2742
  923MOL0     H21811   8.918   1.605   4.334 -0.7397  0.0617 -0.3730
  923MOL0     H21812   8.911   1.594   4.564 -1.4666 -0.0750 -0.2696
  923MOL0     H21813   8.746   1.640   4.532  0.3205 -4.0392 -1.0174
  923MOL0     H21814   8.960   1.835   4.607  1.2224  1.3222  4.2215
  923MOL0     H21815   8.785   1.869   4.574 -0.0173 -1.7300 -1.9387
  923MOL0     H21816   8.722   1.743   4.779 -2.2478  4.1682  1.2753
  923MOL0     H21817   8.830   1.875   4.821 -1.5690 -0.2806  1.8192
  923MOL0     H21818   8.664   1.808   3.639 -2.6849  0.0037 -1.0233
  923MOL0     H21819   8.643   1.728   3.394 -2.4565  2.0134  1.6301
  923MOL0     H21820   8.627   1.274   3.157 -1.5087  0.0280  2.5078
  923MOL0     H21821   8.563   1.176   2.940  0.4939  1.6617 -3.3669
  923MOL0     H21822   7.339   2.176   1.767 -0.0416  1.3881  3.1414
  923MOL0     H21823   7.246   2.388   1.756  0.3443 -4.1172 -0.2833
  923MOL0     H21824   7.495   2.953   1.986 -1.9030 -0.9354  1.6655
  923MOL0     H21825   7.387   3.168   1.978  1.0574  0.1659 -1.5033
  923MOL0     H21826   7.374   3.386   1.858  0.5881 -1.7351  0.9818
  923MOL0     H21827   7.250   3.326   1.970 -2.1519 -0.7935 -0.0935
  923MOL0     H21828   7.225   3.543   1.914  1.1178 -2.0687  0.0686
  923MOL0     H21829   7.198   3.513   1.745  2.1230  1.3865  0.7461
  923MOL0     H21830   7.025   3.504   1.999 -2.4485  2.7506 -0.5346
  923MOL0     H21831   7.001   3.363   1.898 -1.6227  1.2999 -0.5853
  923MOL0     H21832   6.825   3.502   1.852  0.1123 -0.1994  0.3568
  923MOL0     H21833   6.927   3.648   1.826 -4.2987  1.2048 -2.4277
  923MOL0     H21834   6.961   3.432   1.455 -1.9214 -0.6134 -0.5642
  923MOL0     H21835   7.177   3.051   1.625 -0.2926  0.1317  0.9072
  923MOL0     H21836   7.236   2.818   1.640 -0.2850 -0.1241 -0.3492
  924MOL0     O21837   9.593   2.684   8.935  0.2916  0.4410 -0.9803
  924MOL0     C21838   9.539   2.716   9.040 -0.2503  0.2376  0.3995
  924MOL0     O21839   9.451   2.642   9.115  0.0807  0.4875  0.2931
  924MOL0     C21840   9.361   2.567   9.039  0.0453 -1.0041 -0.0733
  924MOL0     C21841   9.353   2.426   9.048 -0.7708  0.2604 -0.1735
  924MOL0     C21842   9.262   2.354   8.965 -0.7596  0.1589  0.7407
  924MOL0     C21843   9.175   2.426   8.889  0.4056  0.0356 -0.3621
  924MOL0     O21844   9.071   2.364   8.825 -0.3245  0.0580  0.6695
  924MOL0     C21845   8.952   2.331   8.899 -0.5818 -0.3666 -0.4603
  924MOL0     C21846   8.967   2.194   8.971 -0.5309  0.6872 -0.3887
  924MOL0     C21847   8.940   2.086   8.871 -0.1405 -0.5210  0.3911
  924MOL0     C21848   9.053   2.056   8.775 -0.7458  0.5385 -0.0433
  924MOL0     C21849   9.030   1.920   8.715  0.3394  0.0320 -0.7078
  924MOL0     C21850   9.148   1.886   8.639 -0.0118 -0.1733 -0.2074
  924MOL0     C21851   9.111   1.782   8.533  0.0460  0.2950 -0.0193
  924MOL0     C21852   9.056   1.648   8.602 -0.3912 -0.6841 -0.4403
  924MOL0     N21853   9.019   1.565   8.485 -0.8055 -0.0975 -0.2553
  924MOL0     C21854   8.895   1.562   8.432 -0.4269  0.1348 -0.6163
  924MOL0     C21855   8.910   1.499   8.311  0.4944  0.1966  0.3544
  924MOL0     C21856   8.804   1.449   8.205 -0.9200 -0.4792 -0.2291
  924MOL0     C21857   8.668   1.454   8.270 -0.2985  0.3757  0.1805
  924MOL0     C21858   8.555   1.414   8.179  0.7164  0.1556 -0.2120
  924MOL0     C21859   8.545   1.505   8.067  0.1620  1.2912  0.4996
  924MOL0     O21860   8.412   1.511   8.023  0.2737 -0.0243  0.6524
  924MOL0     C21861   8.376   1.444   7.907 -0.5978 -0.2267  0.1910
  924MOL0     C21862   8.462   1.420   7.800  0.7112  1.2400 -0.1460
  924MOL0     C21863   8.410   1.357   7.684 -0.5303 -0.5676 -0.2809
  924MOL0     C21864   8.280   1.309   7.684  0.3808  0.0776  0.0231
  924MOL0     C21865   8.216   1.251   7.563  0.5240  0.5956  0.8771
  924MOL0     O21866   8.296   1.166   7.497 -0.2102  0.4992  0.0736
  924MOL0     C21867   8.257   1.094   7.388  0.4605 -0.5821 -0.5032
  924MOL0     C21868   8.295   1.157   7.261  0.2825  0.4981  0.1601
  924MOL0     C21869   8.252   1.104   7.139 -0.3046 -0.2930  0.0507
  924MOL0     C21870   8.176   0.984   7.138  0.0617 -0.6942 -0.0710
  924MOL0     O21871   8.145   0.900   7.039  0.6486 -1.0338  0.4682
  924MOL0     C21872   8.057   0.955   6.940  0.3871 -0.0179 -0.4020
  924MOL0     C21873   7.989   0.842   6.854  0.5833  0.0137 -0.1176
  924MOL0     C21874   8.077   0.720   6.829 -1.0216 -0.5863  0.7881
  924MOL0     C21875   8.091   0.614   6.934  0.5561 -0.1693  0.3375
  924MOL0     C21876   8.183   0.505   6.892 -1.3054 -0.5774 -0.0773
  924MOL0     C21877   8.140   0.415   6.784  0.2096  0.8160 -0.3026
  924MOL0     C21878   8.082   0.279   6.834  0.0280  0.3661 -0.8619
  924MOL0     C21879   8.062   0.184   6.712  0.4731 -0.1106 -0.0190
  924MOL0    Cl21880   8.020   0.013   6.772 -0.2607  0.1120 -0.0522
  924MOL0     C21881   8.141   0.933   7.268  0.7047 -0.4874  0.0713
  924MOL0     C21882   8.168   0.994   7.390  0.3171 -0.4840  0.6311
  924MOL0     O21883   8.106   1.283   7.530 -0.2810  0.7258 -0.3489
  924MOL0     C21884   8.194   1.329   7.800  0.1609  0.4255  0.2436
  924MOL0     C21885   8.247   1.390   7.911 -0.0986 -2.0198  0.3395
  924MOL0     N21886   9.046   1.466   8.299  0.6020 -1.2757  0.6173
  924MOL0     N21887   9.109   1.509   8.402 -0.2676  1.0207  0.6188
  924MOL0     C21888   9.179   2.569   8.884 -0.1692 -0.2790 -0.3895
  924MOL0     C21889   9.280   2.637   8.948  1.1458  0.5867  0.3933
  924MOL0     C21890   9.585   2.838   9.108  0.4408  0.3164 -0.5892
  924MOL0     C21891   9.708   2.890   9.074 -1.1403 -0.3972  0.1274
  924MOL0     C21892   9.729   3.023   9.118 -0.2736 -0.2199  0.7893
  924MOL0     C21893   9.636   3.103   9.171  0.0145 -0.2891 -0.2017
  924MOL0     O21894   9.678   3.231   9.199  0.2025  0.1511 -0.3391
  924MOL0     C21895   9.589   3.320   9.278  0.3555 -0.6908 -0.2889
  924MOL0     C21896   9.596   3.285   9.431  0.7536  0.2272  0.3796
  924MOL0     C21897   9.477   3.342   9.508 -0.9313  0.2122  0.2780
  924MOL0     C21898   9.490   3.333   9.655 -0.0994 -0.0920 -0.4936
  924MOL0     C21899   9.359   3.348   9.718  0.7195 -0.6433 -0.4151
  924MOL0     C21900   9.244   3.365   9.763 -0.4531  0.5816 -0.4443
  924MOL0     C21901   9.517   3.050   9.215 -0.7646  0.0117 -0.3473
  924MOL0     C21902   9.492   2.919   9.178 -0.3042 -0.5087 -0.5125
  924MOL0     H21903   9.421   2.365   9.106 -0.9607  1.1533  1.0349
  924MOL0     H21904   9.274   2.246   8.969  0.7151  0.2946  0.5736
  924MOL0     H21905   8.874   2.326   8.822 -0.1364 -1.4200 -0.8569
  924MOL0     H21906   8.938   2.405   8.978  1.6521 -1.6193  1.2083
  924MOL0     H21907   8.899   2.194   9.057  0.1920 -1.8014  0.2623
  924MOL0     H21908   9.062   2.174   9.022 -0.4848 -1.0776 -1.1253
  924MOL0     H21909   8.848   2.110   8.816  0.7505 -0.2866 -1.0513
  924MOL0     H21910   8.916   1.995   8.928  2.0221 -1.0757  0.4768
  924MOL0     H21911   9.059   2.139   8.703  2.2391  0.3279 -0.1549
  924MOL0     H21912   9.148   2.055   8.829 -0.4322  0.4105 -0.5892
  924MOL0     H21913   8.936   1.930   8.659  0.0523  0.0371 -0.2332
  924MOL0     H21914   9.011   1.848   8.795  0.1197  1.2903  0.4068
  924MOL0     H21915   9.231   1.853   8.703 -1.2590 -0.1056  1.5123
  924MOL0     H21916   9.189   1.971   8.583 -0.7628  1.1573  1.1785
  924MOL0     H21917   9.041   1.826   8.461 -0.5030 -2.1249 -1.1035
  924MOL0     H21918   9.202   1.754   8.478 -1.5026 -0.6806 -2.2557
  924MOL0     H21919   8.960   1.659   8.654 -0.5199 -0.4653 -0.7187
  924MOL0     H21920   9.130   1.602   8.667 -0.5462 -0.7427 -0.3040
  924MOL0     H21921   8.806   1.610   8.471  1.3930  1.0484  2.8114
  924MOL0     H21922   8.833   1.346   8.180  1.1602 -0.2211  0.9559
  924MOL0     H21923   8.816   1.517   8.120  2.0130 -1.9458 -1.1151
  924MOL0     H21924   8.642   1.554   8.306  0.7444  0.9115 -0.5057
  924MOL0     H21925   8.671   1.395   8.362 -3.2814  0.6931  0.5888
  924MOL0     H21926   8.559   1.309   8.148  2.9010  0.0632  0.2020
  924MOL0     H21927   8.457   1.422   8.228  0.5140  1.6825 -0.7911
  924MOL0     H21928   8.613   1.466   7.990  0.5201 -1.0938  1.9193
  924MOL0     H21929   8.569   1.607   8.097  1.8452  1.8118 -2.2249
  924MOL0     H21930   8.557   1.471   7.789  0.4124  2.8425  3.4899
  924MOL0     H21931   8.480   1.342   7.602 -3.0248 -2.1651 -2.2515
  924MOL0     H21932   8.348   1.252   7.256 -3.7775  3.0911  1.6087
  924MOL0     H21933   8.266   1.158   7.046  0.4666 -1.5254 -0.5707
  924MOL0     H21934   8.103   1.029   6.875  2.0675 -0.1442  0.5882
  924MOL0     H21935   7.985   1.015   6.996 -0.7843 -2.2306  0.5956
  924MOL0     H21936   7.977   0.884   6.753  0.4912 -3.4154 -1.6609
  924MOL0     H21937   7.893   0.811   6.895  0.5899  1.7627  1.3399
  924MOL0     H21938   8.174   0.759   6.797 -1.1104 -0.4888  0.6320
  924MOL0     H21939   8.034   0.674   6.740  1.1850 -0.0344 -0.6613
  924MOL0     H21940   8.127   0.656   7.029  0.3804  0.4504  0.1324
  924MOL0     H21941   7.994   0.573   6.962 -0.4675  2.3842  0.7277
  924MOL0     H21942   8.187   0.440   6.980  1.2279 -0.9041 -0.3536
  924MOL0     H21943   8.284   0.544   6.875 -1.1755 -1.0973 -0.5314
  924MOL0     H21944   8.225   0.384   6.721 -1.4593 -2.8308 -1.0466
  924MOL0     H21945   8.061   0.459   6.722  0.1634  2.4090  0.8366
  924MOL0     H21946   8.152   0.223   6.896  2.0493  2.9619 -0.5902
  924MOL0     H21947   7.993   0.285   6.897 -0.1009  2.9334 -1.1670
  924MOL0     H21948   8.147   0.169   6.645 -0.6967 -4.5897 -0.8100
  924MOL0     H21949   7.975   0.222   6.658  0.9937  1.3739  0.1381
  924MOL0     H21950   8.074   0.847   7.262  0.8753 -0.5683 -0.8023
  924MOL0     H21951   8.144   0.945   7.484  2.3627  0.8045  1.9063
  924MOL0     H21952   8.093   1.290   7.797  0.9614 -1.7551 -0.7393
  924MOL0     H21953   8.178   1.420   7.989  0.0355 -0.6382 -0.0424
  924MOL0     H21954   9.119   2.618   8.808 -0.8531  0.2642  0.4728
  924MOL0     H21955   9.303   2.742   8.939  0.4276  0.5890 -2.1064
  924MOL0     H21956   9.777   2.830   9.015  0.7961  2.2324 -0.4440
  924MOL0     H21957   9.817   3.070   9.076  0.3766 -2.0472  0.0169
  924MOL0     H21958   9.487   3.305   9.243  0.1311  2.4968 -1.3595
  924MOL0     H21959   9.615   3.426   9.263 -2.1775  0.0919  0.4316
  924MOL0     H21960   9.593   3.176   9.445 -2.5708  0.1423 -0.1661
  924MOL0     H21961   9.676   3.351   9.465 -1.4666  3.1581  0.2193
  924MOL0     H21962   9.390   3.277   9.493 -0.7174  0.1520 -0.7955
  924MOL0     H21963   9.465   3.447   9.482  0.5207 -0.1347 -2.0802
  924MOL0     H21964   9.535   3.235   9.674  3.1215  1.0622 -1.6219
  924MOL0     H21965   9.558   3.402   9.706  1.7357 -2.3418  0.2754
  924MOL0     H21966   9.149   3.373   9.813  0.0986 -0.4734  0.8346
  924MOL0     H21967   9.447   3.094   9.286 -0.2973 -2.0147  1.4386
  924MOL0     H21968   9.402   2.869   9.210  1.3038 -2.9083  0.5557
  925MOL0     O21969   7.082   1.734   1.692 -0.0084 -0.4060  0.3363
  925MOL0     C21970   7.202   1.718   1.648 -0.9250 -0.3168 -0.0020
  925MOL0     O21971   7.260   1.803   1.563  0.2225  0.7127  0.0856
  925MOL0     C21972   7.190   1.910   1.515 -0.2567 -0.0786  0.0645
  925MOL0     C21973   7.156   2.017   1.595 -1.5694  0.3813 -0.4481
  925MOL0     C21974   7.118   2.138   1.538 -0.0484 -0.0044 -0.1298
  925MOL0     C21975   7.091   2.158   1.407 -0.2682 -0.1751  0.1015
  925MOL0     O21976   7.080   2.285   1.366 -0.3455 -0.5836 -0.8270
  925MOL0     C21977   7.180   2.335   1.273 -0.4031 -0.1504 -0.1136
  925MOL0     C21978   7.309   2.375   1.356  0.2422  0.7720  0.0674
  925MOL0     C21979   7.408   2.443   1.265  0.1615  0.6092 -0.2202
  925MOL0     C21980   7.389   2.592   1.255 -0.6735 -0.1164  0.5708
  925MOL0     C21981   7.475   2.640   1.136  0.3483 -0.4318  0.1675
  925MOL0     C21982   7.450   2.787   1.105  1.1620  0.2271 -0.2243
  925MOL0     C21983   7.544   2.835   0.995  0.9515 -0.6062  0.0717
  925MOL0     C21984   7.508   2.855   0.844  0.2695  0.9223 -0.9500
  925MOL0     N21985   7.472   2.728   0.778 -0.4704  0.1314  0.1843
  925MOL0     C21986   7.559   2.621   0.751  0.1650  0.6322 -0.1754
  925MOL0     C21987   7.474   2.530   0.697 -0.2395 -0.0339 -0.9413
  925MOL0     C21988   7.529   2.402   0.653  0.1434  1.6739 -0.6345
  925MOL0     C21989   7.441   2.280   0.676  0.7562 -0.6009  0.5396
  925MOL0     C21990   7.447   2.243   0.825  0.4287 -0.0742  0.3402
  925MOL0     C21991   7.344   2.139   0.854 -0.1988  0.2600 -0.1104
  925MOL0     O21992   7.345   2.113   0.995  0.2808 -0.6597 -0.2564
  925MOL0     C21993   7.416   2.010   1.051  0.3698 -0.6740  0.5779
  925MOL0     C21994   7.429   2.026   1.189  0.0267  0.0910 -0.0977
  925MOL0     C21995   7.490   1.937   1.269  0.0120  0.0654 -0.2469
  925MOL0     C21996   7.556   1.831   1.210 -0.2077  0.2466  0.4170
  925MOL0     C21997   7.627   1.728   1.290 -0.2409 -0.6313  0.2246
  925MOL0     O21998   7.632   1.604   1.232  0.5051 -0.2181 -0.6492
  925MOL0     C21999   7.663   1.496   1.311  0.4166 -0.5713 -0.2390
  925MOL0     C22000   7.568   1.392   1.338  0.3192  0.3597  0.2409
  925MOL0     C22001   7.601   1.277   1.408 -0.0175  0.1134  0.6139
  925MOL0     C22002   7.732   1.252   1.452 -0.2576  0.4723  0.2533
  925MOL0     O22003   7.758   1.135   1.521  0.0681 -0.3905 -0.3400
  925MOL0     C22004   7.889   1.088   1.496 -0.2743  0.4888  0.6505
  925MOL0     C22005   7.905   0.937   1.516 -0.7095 -0.5386  0.1616
  925MOL0     C22006   7.819   0.859   1.424  0.0545 -0.3330  0.4954
  925MOL0     C22007   7.829   0.701   1.444 -0.4117 -0.2110  0.2842
  925MOL0     C22008   7.723   0.637   1.365  1.6566  1.0208  0.9627
  925MOL0     C22009   7.577   0.653   1.425 -0.0196  0.6859 -0.0051
  925MOL0     C22010   7.481   0.548   1.370  0.7347  0.2712  0.0757
  925MOL0     C22011   7.329   0.588   1.399  0.5036 -0.7802 -0.2344
  925MOL0    Cl22012   7.286   0.517   1.553  0.0820 -0.0940  0.0437
  925MOL0     C22013   7.834   1.356   1.430  0.4379  0.8285 -0.3176
  925MOL0     C22014   7.794   1.477   1.365 -0.8376 -0.1772 -0.0229
  925MOL0     O22015   7.690   1.769   1.393 -0.4513 -0.3204 -0.4983
  925MOL0     C22016   7.556   1.812   1.073  0.0656  0.8878 -0.0571
  925MOL0     C22017   7.479   1.897   0.994 -0.1822  0.7512  0.0944
  925MOL0     N22018   7.349   2.578   0.694 -0.1655  0.4714 -0.2853
  925MOL0     N22019   7.344   2.690   0.750  0.0529  0.6354  1.0726
  925MOL0     C22020   7.116   2.043   1.325 -0.2028 -0.3460 -0.1416
  925MOL0     C22021   7.172   1.921   1.377  0.6009  1.1351  0.5438
  925MOL0     C22022   7.289   1.623   1.708 -0.3754  0.5268 -0.0302
  925MOL0     C22023   7.262   1.560   1.826  0.2818 -0.1293 -0.2030
  925MOL0     C22024   7.357   1.482   1.893 -0.6974  0.6656  0.2868
  925MOL0     C22025   7.473   1.442   1.826 -0.4960  0.2662  0.3837
  925MOL0     O22026   7.563   1.348   1.890 -0.0729 -0.4807  1.1771
  925MOL0     C22027   7.604   1.234   1.817 -0.6334  0.0071  0.1032
  925MOL0     C22028   7.550   1.105   1.879  0.6219  1.2513  0.6270
  925MOL0     C22029   7.590   0.963   1.812  0.5431 -0.4066  0.4340
  925MOL0     C22030   7.550   0.849   1.900 -0.1718 -0.2374 -0.9799
  925MOL0     C22031   7.558   0.723   1.830 -0.5860 -0.2848 -0.4417
  925MOL0     C22032   7.559   0.606   1.795  0.4755  0.2983 -0.7459
  925MOL0     C22033   7.504   1.491   1.697 -0.0801 -0.6433 -0.5407
  925MOL0     C22034   7.409   1.585   1.638 -0.0972 -0.6762  0.2872
  925MOL0     H22035   7.171   2.016   1.702 -2.5817  2.5381 -0.2214
  925MOL0     H22036   7.092   2.218   1.606 -2.5896 -0.1620 -0.7911
  925MOL0     H22037   7.143   2.429   1.231  0.2025 -0.0094 -0.3429
  925MOL0     H22038   7.211   2.270   1.191  1.8052  0.3756  0.2476
  925MOL0     H22039   7.344   2.281   1.400 -2.5638  0.6576  2.3224
  925MOL0     H22040   7.279   2.431   1.445 -0.7782  0.1390  0.1473
  925MOL0     H22041   7.412   2.400   1.165 -4.3771 -0.5780 -0.1138
  925MOL0     H22042   7.499   2.431   1.325 -0.3251 -3.0920  0.0165
  925MOL0     H22043   7.283   2.614   1.243 -0.4920  0.2784 -0.4034
  925MOL0     H22044   7.424   2.643   1.345 -1.0557 -0.4702  0.9237
  925MOL0     H22045   7.453   2.574   1.052  2.2165 -2.5800  1.2707
  925MOL0     H22046   7.581   2.629   1.160  0.9120 -0.1145 -1.9753
  925MOL0     H22047   7.450   2.845   1.197  2.0701  2.1834 -1.3848
  925MOL0     H22048   7.350   2.809   1.068  1.2345  1.7449  0.4291
  925MOL0     H22049   7.558   2.935   1.037 -2.6631  0.0648 -0.0095
  925MOL0     H22050   7.639   2.784   1.013  0.6160 -0.9455  0.9280
  925MOL0     H22051   7.589   2.915   0.801 -1.4303  3.6427 -0.5800
  925MOL0     H22052   7.420   2.919   0.850  0.9042  1.8462 -1.2026
  925MOL0     H22053   7.667   2.607   0.751  0.0607 -0.3571 -0.8878
  925MOL0     H22054   7.630   2.378   0.688  1.4683  1.6572 -4.1364
  925MOL0     H22055   7.553   2.419   0.548  1.0033  3.9091 -0.1257
  925MOL0     H22056   7.467   2.197   0.610  2.9768  1.7980 -1.8664
  925MOL0     H22057   7.342   2.311   0.641  1.2992 -0.1661 -0.6560
  925MOL0     H22058   7.546   2.201   0.845  0.2639 -0.1023  1.1192
  925MOL0     H22059   7.432   2.338   0.877  3.3617  1.4749 -1.3578
  925MOL0     H22060   7.359   2.050   0.793 -0.8262  2.1405 -3.2485
  925MOL0     H22061   7.247   2.180   0.825 -0.3888 -1.4166 -2.0988
  925MOL0     H22062   7.378   2.118   1.216  1.7071  1.0519 -0.1161
  925MOL0     H22063   7.497   1.950   1.376 -2.1209 -1.4305  0.1461
  925MOL0     H22064   7.472   1.402   1.289  0.9021  0.0544 -1.0267
  925MOL0     H22065   7.536   1.193   1.431  0.2291 -0.1737  0.2772
  925MOL0     H22066   7.969   1.141   1.549 -0.8858  0.9335  1.1417
  925MOL0     H22067   7.927   1.113   1.396  0.4097  0.3568  0.8693
  925MOL0     H22068   7.882   0.912   1.620  0.5475 -1.0477  0.3362
  925MOL0     H22069   8.012   0.917   1.510 -0.3992  0.1648  2.5187
  925MOL0     H22070   7.865   0.882   1.328 -1.5262  2.3721  0.2761
  925MOL0     H22071   7.715   0.894   1.432 -0.0660 -0.0485 -1.7386
  925MOL0     H22072   7.920   0.653   1.407  0.4088 -0.2408  2.2320
  925MOL0     H22073   7.824   0.681   1.552 -1.3908  0.5926  0.4113
  925MOL0     H22074   7.757   0.533   1.358 -1.5954 -0.2495  1.9821
  925MOL0     H22075   7.721   0.672   1.261  0.0967  2.4810  1.4509
  925MOL0     H22076   7.543   0.754   1.400 -0.1325  0.6297 -0.0779
  925MOL0     H22077   7.595   0.652   1.533 -1.2312 -2.7428  0.2921
  925MOL0     H22078   7.494   0.544   1.261  0.5805  1.1082  0.0184
  925MOL0     H22079   7.501   0.450   1.415 -0.7765  0.6883  1.7634
  925MOL0     H22080   7.257   0.545   1.328  0.9957  2.1778 -2.7088
  925MOL0     H22081   7.328   0.697   1.405  1.5478 -0.8599  2.8476
  925MOL0     H22082   7.931   1.344   1.477 -0.0324 -2.2787  0.1019
  925MOL0     H22083   7.866   1.557   1.353 -0.4124 -0.4071  0.9471
  925MOL0     H22084   7.617   1.733   1.030 -1.9343 -0.8377  0.0983
  925MOL0     H22085   7.469   1.865   0.890 -1.1349 -0.8704  0.6540
  925MOL0     H22086   7.091   2.052   1.220 -2.1545 -1.1476  0.1987
  925MOL0     H22087   7.202   1.845   1.306 -5.2979 -1.7262  0.5002
  925MOL0     H22088   7.165   1.579   1.871  0.3369  0.9815 -0.5249
  925MOL0     H22089   7.338   1.436   1.989  1.1486 -2.0259 -0.5285
  925MOL0     H22090   7.713   1.230   1.825 -0.6427 -0.3247  0.1009
  925MOL0     H22091   7.572   1.247   1.713 -1.2821 -1.9721  0.0123
  925MOL0     H22092   7.579   1.093   1.983 -0.5622 -2.3782  0.6950
  925MOL0     H22093   7.441   1.101   1.873  0.6615  0.1697  0.3105
  925MOL0     H22094   7.697   0.968   1.790  0.2646 -0.6290 -1.0555
  925MOL0     H22095   7.530   0.962   1.721 -1.6927  0.8396  1.7923
  925MOL0     H22096   7.614   0.846   1.989 -0.3307 -0.3797 -0.8714
  925MOL0     H22097   7.452   0.872   1.942  0.7558  2.4528 -0.0521
  925MOL0     H22098   7.556   0.501   1.774 -0.5853  0.5425 -1.9345
  925MOL0     H22099   7.596   1.452   1.656  0.3798  0.8839 -1.0045
  925MOL0     H22100   7.426   1.642   1.547 -1.0096  0.6010  0.8914
  926MOL0     O22101  10.391   3.704   2.081  0.5143 -0.4968  0.2621
  926MOL0     C22102  10.499   3.762   2.052 -0.5097  0.2770 -0.2032
  926MOL0     O22103  10.551   3.768   1.924  0.7378  0.8033  0.3384
  926MOL0     C22104  10.479   3.713   1.826 -0.7497  0.1852 -0.0206
  926MOL0     C22105  10.436   3.785   1.710  0.7538 -0.4442  0.0814
  926MOL0     C22106  10.344   3.741   1.612  0.0361  0.9469 -0.9220
  926MOL0     C22107  10.332   3.599   1.607  0.1705 -0.4907  0.4776
  926MOL0     O22108  10.265   3.549   1.499 -0.4453 -0.5883 -0.1746
  926MOL0     C22109  10.128   3.552   1.526  0.3101 -0.3068 -0.2654
  926MOL0     C22110  10.048   3.546   1.404 -0.0203  0.0260  0.0383
  926MOL0     C22111  10.093   3.420   1.329  0.2254 -0.2803  0.5957
  926MOL0     C22112   9.987   3.368   1.225  0.0491 -0.0229 -0.0636
  926MOL0     C22113  10.042   3.252   1.142 -0.0565  0.9675  0.2259
  926MOL0     C22114   9.925   3.152   1.115 -0.5890 -0.1254 -0.2429
  926MOL0     C22115   9.970   3.045   1.022  0.0880  0.1262  0.0681
  926MOL0     C22116   9.856   2.964   0.964  0.1299 -0.2274 -0.3449
  926MOL0     N22117   9.794   3.044   0.855 -1.2819  0.2160  0.5114
  926MOL0     C22118   9.666   3.085   0.836 -0.5443 -0.5095  0.2999
  926MOL0     C22119   9.655   3.111   0.707 -0.8803 -0.1840 -1.0489
  926MOL0     C22120   9.532   3.157   0.629 -0.8046  0.2680  0.0520
  926MOL0     C22121   9.492   3.304   0.640 -0.4987 -0.2165 -0.7450
  926MOL0     C22122   9.375   3.351   0.549 -0.4590  0.5191 -0.6778
  926MOL0     C22123   9.236   3.282   0.580 -0.2738  0.6588 -0.0942
  926MOL0     O22124   9.207   3.296   0.717  0.4535 -0.1505 -0.2349
  926MOL0     C22125   9.114   3.389   0.752 -0.6047  0.3805 -0.2195
  926MOL0     C22126   8.987   3.335   0.751 -0.7118 -0.5028  0.4211
  926MOL0     C22127   8.878   3.419   0.771 -1.0010  0.2018 -0.7453
  926MOL0     C22128   8.904   3.561   0.792  0.5940  0.9278  0.1458
  926MOL0     C22129   8.790   3.644   0.817  0.0127  0.5915 -0.2723
  926MOL0     O22130   8.812   3.772   0.858 -0.1687 -0.3579 -0.2263
  926MOL0     C22131   8.703   3.836   0.900  0.4387 -0.5133 -0.5420
  926MOL0     C22132   8.656   3.808   1.032 -0.1166 -0.0262 -0.6797
  926MOL0     C22133   8.553   3.880   1.082 -1.6390  0.3395 -0.3488
  926MOL0     C22134   8.497   3.985   1.008 -0.3961 -0.2639 -0.1504
  926MOL0     O22135   8.383   4.047   1.047  0.5466 -0.6472  0.6704
  926MOL0     C22136   8.293   3.966   1.118 -0.0946  0.0047 -0.4005
  926MOL0     C22137   8.163   4.036   1.143 -0.3206  0.0829  0.4721
  926MOL0     C22138   8.083   3.959   1.252  0.1219 -0.1616  0.3865
  926MOL0     C22139   8.007   3.827   1.206 -0.1170  0.3279  0.2780
  926MOL0     C22140   7.946   3.744   1.320  0.6591  0.0897  0.3217
  926MOL0     C22141   7.834   3.813   1.394  0.1035 -0.6297 -0.0703
  926MOL0     C22142   7.727   3.880   1.291 -0.6311 -0.7570 -0.3918
  926MOL0     C22143   7.613   3.951   1.364  0.6517  0.4381  0.8451
  926MOL0    Cl22144   7.507   4.015   1.237  0.0821  0.1393 -0.1152
  926MOL0     C22145   8.547   4.020   0.878 -0.1278  0.0548 -0.2699
  926MOL0     C22146   8.646   3.944   0.829  0.4797  0.4565  0.0535
  926MOL0     O22147   8.678   3.593   0.807  0.2852  0.3274 -0.1147
  926MOL0     C22148   9.031   3.606   0.774 -0.1932  0.2876 -0.4587
  926MOL0     C22149   9.136   3.526   0.761  0.2890  1.4199  0.7971
  926MOL0     N22150   9.772   3.081   0.638  0.8037 -0.4750  0.6961
  926MOL0     N22151   9.856   3.033   0.726  0.3870 -0.4818 -0.1811
  926MOL0     C22152  10.374   3.513   1.717  0.4004 -0.2420 -0.0542
  926MOL0     C22153  10.441   3.572   1.826  0.9203  0.5848 -0.3753
  926MOL0     C22154  10.596   3.814   2.148  0.4773 -0.5035 -0.8515
  926MOL0     C22155  10.703   3.887   2.104 -0.5384 -0.9684  0.5930
  926MOL0     C22156  10.804   3.948   2.189 -0.3615 -0.0262  0.4437
  926MOL0     C22157  10.790   3.938   2.326 -0.0727 -0.6424 -0.4151
  926MOL0     O22158  10.874   4.003   2.417  0.1805 -0.1235 -0.3077
  926MOL0     C22159  11.007   4.047   2.372  0.3141  0.1808  0.2885
  926MOL0     C22160  11.044   4.176   2.445  0.3207 -0.2088  0.0599
  926MOL0     C22161  11.101   4.148   2.583  1.0023  0.2584 -0.0028
  926MOL0     C22162  11.172   4.266   2.656  0.7319  0.1888  0.6249
  926MOL0     C22163  11.157   4.260   2.802  0.0928 -0.2356 -0.5561
  926MOL0     C22164  11.137   4.261   2.919 -0.0148 -1.2058 -0.3565
  926MOL0     C22165  10.689   3.847   2.381 -0.3615  0.2094  0.2567
  926MOL0     C22166  10.599   3.785   2.292 -0.3566 -1.0773  0.0424
  926MOL0     H22167  10.453   3.892   1.710  0.3330 -0.3732 -0.5218
  926MOL0     H22168  10.325   3.801   1.523 -1.2737  1.0683 -0.5701
  926MOL0     H22169  10.107   3.645   1.580  1.0518 -0.7550  0.8158
  926MOL0     H22170  10.090   3.468   1.585  1.6753 -2.1240 -1.8343
  926MOL0     H22171  10.054   3.631   1.336 -1.4005 -0.8836 -1.2943
  926MOL0     H22172   9.945   3.529   1.436 -0.7056 -0.2487 -2.1110
  926MOL0     H22173  10.115   3.340   1.400 -0.7689 -1.1278 -0.0127
  926MOL0     H22174  10.186   3.441   1.274 -0.6622  1.0840 -0.4546
  926MOL0     H22175   9.894   3.348   1.278  0.7998 -3.8119  0.0931
  926MOL0     H22176   9.982   3.448   1.150 -0.5178 -2.7686 -3.1961
  926MOL0     H22177  10.117   3.202   1.204  0.5174  1.0432 -0.3928
  926MOL0     H22178  10.088   3.295   1.053  0.8067 -0.6443 -0.1412
  926MOL0     H22179   9.844   3.210   1.071 -0.5773 -0.4939 -0.7490
  926MOL0     H22180   9.889   3.115   1.211  2.0683 -1.2863  0.4039
  926MOL0     H22181  10.015   3.089   0.933 -1.2126  0.4674 -0.4455
  926MOL0     H22182  10.045   2.986   1.076  0.1607  0.2310  0.0814
  926MOL0     H22183   9.787   2.928   1.041  1.9417 -0.2690  1.3599
  926MOL0     H22184   9.904   2.876   0.919 -0.3928  0.5211 -2.4586
  926MOL0     H22185   9.578   3.076   0.900 -2.0428 -1.4370 -1.7666
  926MOL0     H22186   9.445   3.104   0.668 -1.6137  0.8021 -1.0090
  926MOL0     H22187   9.545   3.141   0.522  4.2344  1.2118  0.2795
  926MOL0     H22188   9.569   3.380   0.624 -1.7390  2.7352  4.7745
  926MOL0     H22189   9.475   3.331   0.745  2.2213  1.0196 -0.5448
  926MOL0     H22190   9.365   3.459   0.565  1.0659  0.8452 -1.6819
  926MOL0     H22191   9.415   3.337   0.448  0.1931 -1.5590 -0.1766
  926MOL0     H22192   9.231   3.175   0.558 -0.5976  0.4686  0.8560
  926MOL0     H22193   9.171   3.335   0.510  1.0131  2.5261  0.0476
  926MOL0     H22194   8.981   3.227   0.747  0.6238 -0.6309  1.3213
  926MOL0     H22195   8.782   3.369   0.766  0.7891 -3.3585 -3.7165
  926MOL0     H22196   8.701   3.725   1.087 -1.8123 -3.5819 -4.1359
  926MOL0     H22197   8.532   3.851   1.185 -1.9430  2.2113  0.1622
  926MOL0     H22198   8.332   3.937   1.216  0.4770  2.6745  0.2436
  926MOL0     H22199   8.273   3.881   1.051 -1.0021  1.0991 -1.5641
  926MOL0     H22200   8.099   4.062   1.058 -0.2489  3.0084  1.1953
  926MOL0     H22201   8.196   4.129   1.190  0.8268 -1.0640  2.0316
  926MOL0     H22202   8.003   4.027   1.283  0.9204  1.3708 -0.8054
  926MOL0     H22203   8.143   3.929   1.338 -0.3628 -0.7990  0.5154
  926MOL0     H22204   7.928   3.843   1.133 -1.0342 -1.0157  0.9370
  926MOL0     H22205   8.076   3.757   1.157 -0.5447  1.0111 -1.3298
  926MOL0     H22206   8.021   3.712   1.393 -1.0402 -1.6553  1.4120
  926MOL0     H22207   7.905   3.653   1.275  0.9138  0.3432 -0.4227
  926MOL0     H22208   7.872   3.873   1.477 -1.7584  0.8146 -0.1848
  926MOL0     H22209   7.778   3.732   1.443 -1.0729  0.2159  0.0207
  926MOL0     H22210   7.777   3.957   1.231 -0.5116 -1.3973 -1.1329
  926MOL0     H22211   7.675   3.807   1.228 -1.5753  1.7411 -2.6917
  926MOL0     H22212   7.640   4.043   1.416  1.8240  0.8837 -0.4742
  926MOL0     H22213   7.554   3.883   1.426  0.1201  1.3601  1.3575
  926MOL0     H22214   8.495   4.098   0.824 -1.3871  0.2564  1.1551
  926MOL0     H22215   8.669   3.972   0.727 -1.5924 -2.6705 -1.4013
  926MOL0     H22216   9.043   3.713   0.779  0.2592  0.2848 -1.3253
  926MOL0     H22217   9.236   3.569   0.755  0.1388  2.6471  4.3657
  926MOL0     H22218  10.356   3.406   1.718 -0.6364 -0.1008  2.3640
  926MOL0     H22219  10.485   3.514   1.907  1.1155 -1.0084 -1.5901
  926MOL0     H22220  10.732   3.900   2.000  1.6385 -2.0684  0.9931
  926MOL0     H22221  10.878   4.004   2.133 -0.0581 -1.9957 -1.2481
  926MOL0     H22222  11.011   4.071   2.265 -1.4738 -1.9154 -0.3314
  926MOL0     H22223  11.077   3.963   2.382 -2.7709 -3.1058 -2.6684
  926MOL0     H22224  11.123   4.228   2.389 -0.3033  1.6903  0.8711
  926MOL0     H22225  10.956   4.239   2.450 -1.1063 -1.7444 -2.8992
  926MOL0     H22226  11.171   4.064   2.579 -3.0070 -3.4272 -0.6672
  926MOL0     H22227  11.032   4.103   2.654  1.7324 -0.3916  0.3083
  926MOL0     H22228  11.274   4.259   2.618 -0.3910 -0.8093 -2.4993
  926MOL0     H22229  11.136   4.365   2.626  1.1660  0.4481  0.9458
  926MOL0     H22230  11.116   4.267   3.024 -3.0191 -2.9763 -0.7268
  926MOL0     H22231  10.691   3.829   2.488 -2.7566 -0.6341  0.2072
  926MOL0     H22232  10.520   3.726   2.337 -0.5724 -0.8507 -0.0359
  927MOL0     O22233   5.876   9.291   3.052 -0.6484  0.9234 -0.4381
  927MOL0     C22234   5.841   9.409   3.036 -0.2257 -0.6844  0.8045
  927MOL0     O22235   5.851   9.504   3.126  0.2861 -0.6479 -0.6513
  927MOL0     C22236   5.925   9.478   3.241  0.0533  0.1333  0.1870
  927MOL0     C22237   5.873   9.492   3.361  0.2242 -0.4693  0.1540
  927MOL0     C22238   5.944   9.466   3.486  0.4783  1.3113 -0.2690
  927MOL0     C22239   6.078   9.424   3.480 -0.3310  0.3252 -0.2007
  927MOL0     O22240   6.158   9.396   3.588 -0.8575  0.1066 -0.5162
  927MOL0     C22241   6.108   9.417   3.724 -0.8559  0.1861 -1.0708
  927MOL0     C22242   6.218   9.388   3.830 -0.0491 -0.4710  0.1279
  927MOL0     C22243   6.249   9.239   3.853 -0.8340  0.4405 -0.9030
  927MOL0     C22244   6.392   9.215   3.921  0.4065  0.0786 -1.0713
  927MOL0     C22245   6.393   9.250   4.065 -0.0312  0.1454 -0.2385
  927MOL0     C22246   6.534   9.254   4.125 -0.0012 -0.2933  0.5339
  927MOL0     C22247   6.535   9.243   4.275 -0.1940 -0.2096 -0.0331
  927MOL0     C22248   6.516   9.102   4.325  0.5406  0.2515  0.7703
  927MOL0     N22249   6.555   9.093   4.464 -0.6956 -0.2667 -0.5751
  927MOL0     C22250   6.492   9.012   4.550 -0.3919 -0.3357  1.2376
  927MOL0     C22251   6.551   9.037   4.670  1.3508  0.7128 -0.3418
  927MOL0     C22252   6.493   8.965   4.797 -0.5626  0.7202  0.4177
  927MOL0     C22253   6.340   8.990   4.813  0.6907 -0.0575 -1.0808
  927MOL0     C22254   6.310   9.146   4.826  0.2676  0.3537 -0.3826
  927MOL0     C22255   6.159   9.163   4.851 -0.1226  0.6218 -0.3885
  927MOL0     O22256   6.119   9.301   4.857 -0.3812  0.3782 -0.1158
  927MOL0     C22257   6.002   9.344   4.912  0.2150  0.4449 -1.1323
  927MOL0     C22258   5.982   9.476   4.950  0.7157 -0.2410  1.0088
  927MOL0     C22259   5.860   9.520   5.017  0.1806 -0.2375 -1.0250
  927MOL0     C22260   5.763   9.427   5.046 -1.0044  0.8368  0.4411
  927MOL0     C22261   5.636   9.452   5.110  0.4890  0.5280 -0.4872
  927MOL0     O22262   5.557   9.348   5.149  0.6236  0.0069  0.0743
  927MOL0     C22263   5.422   9.360   5.175  0.2197  0.0484  0.5050
  927MOL0     C22264   5.332   9.455   5.124  1.0909 -0.3313 -0.2111
  927MOL0     C22265   5.201   9.442   5.151  0.2757  0.8451  0.1441
  927MOL0     C22266   5.152   9.336   5.234 -0.6516  0.0384 -0.6640
  927MOL0     O22267   5.013   9.345   5.270 -0.1232  0.3660 -0.1000
  927MOL0     C22268   4.939   9.225   5.239  0.5746  0.0831  0.0154
  927MOL0     C22269   4.792   9.228   5.289 -0.1229 -0.4329  0.2631
  927MOL0     C22270   4.716   9.096   5.266 -0.1035 -0.0145  0.1548
  927MOL0     C22271   4.709   9.053   5.121 -0.2279 -0.6104  0.1485
  927MOL0     C22272   4.772   8.917   5.097  0.7401 -0.0758 -0.1727
  927MOL0     C22273   4.776   8.890   4.941  0.6970 -0.2120 -0.6548
  927MOL0     C22274   4.823   8.739   4.912 -1.4486 -0.6284  1.2871
  927MOL0     C22275   4.779   8.633   5.010  0.2356 -0.0906 -0.7887
  927MOL0    Cl22276   4.761   8.480   4.928  0.7425  0.4613 -0.1991
  927MOL0     C22277   5.242   9.252   5.293 -0.3401  0.3899  0.0756
  927MOL0     C22278   5.378   9.266   5.260 -0.0983  0.8970  0.5441
  927MOL0     O22279   5.602   9.573   5.119 -0.0590  0.5655  0.2113
  927MOL0     C22280   5.786   9.292   5.001  0.4905  0.0382 -0.2476
  927MOL0     C22281   5.908   9.250   4.953  0.1808  0.4736  0.0723
  927MOL0     N22282   6.649   9.127   4.647  0.2882  0.0197  0.0194
  927MOL0     N22283   6.660   9.157   4.525  0.1685  0.2052  0.0223
  927MOL0     C22284   6.129   9.402   3.349  0.2839  0.4611 -1.1214
  927MOL0     C22285   6.060   9.443   3.233  1.0041  0.5632  0.0874
  927MOL0     C22286   5.766   9.452   2.908  0.0679  0.5557  0.4418
  927MOL0     C22287   5.772   9.370   2.791 -0.0553 -0.0041  0.3350
  927MOL0     C22288   5.702   9.405   2.675  0.6128 -0.4478  0.0638
  927MOL0     C22289   5.628   9.528   2.671 -0.4626 -0.0623  0.1331
  927MOL0     O22290   5.546   9.565   2.575  1.2721 -0.0588 -0.5633
  927MOL0     C22291   5.511   9.476   2.471  0.1079  0.9197 -0.0054
  927MOL0     C22292   5.426   9.554   2.368  0.0819 -0.4630 -0.1023
  927MOL0     C22293   5.480   9.698   2.343 -0.0555  0.3795 -0.0917
  927MOL0     C22294   5.602   9.680   2.262  0.3760 -0.5510  0.1225
  927MOL0     C22295   5.668   9.808   2.234 -0.0639 -0.2689 -0.2275
  927MOL0     C22296   5.692   9.928   2.212 -0.0913 -0.6524  0.4748
  927MOL0     C22297   5.621   9.610   2.783  0.0324  0.7665 -0.6949
  927MOL0     C22298   5.686   9.574   2.905 -0.0160  0.5798 -0.6756
  927MOL0     H22299   5.769   9.521   3.370 -0.3992 -1.7470 -2.0065
  927MOL0     H22300   5.891   9.462   3.581  1.1056  1.5658  0.0976
  927MOL0     H22301   6.015   9.363   3.745 -1.5286  2.7599  4.4829
  927MOL0     H22302   6.092   9.525   3.733 -0.2188  0.4820 -3.0895
  927MOL0     H22303   6.203   9.435   3.928 -1.0774 -0.4115 -0.0400
  927MOL0     H22304   6.307   9.439   3.792 -1.0534  0.7894 -0.6205
  927MOL0     H22305   6.247   9.169   3.768  1.0791 -1.4706  0.5226
  927MOL0     H22306   6.178   9.204   3.927  2.6562 -2.9201  1.2287
  927MOL0     H22307   6.421   9.111   3.903 -1.1624 -1.1092  2.3321
  927MOL0     H22308   6.465   9.281   3.874 -0.2530  2.0337  0.5372
  927MOL0     H22309   6.351   9.158   4.107 -0.2947 -0.4356 -1.7267
  927MOL0     H22310   6.325   9.333   4.082  0.9820  1.5699 -2.6669
  927MOL0     H22311   6.578   9.354   4.113 -1.9378  0.3622 -1.8862
  927MOL0     H22312   6.590   9.173   4.076  2.0046  1.2613  0.1415
  927MOL0     H22313   6.641   9.251   4.299 -0.4497 -0.8884  1.4632
  927MOL0     H22314   6.478   9.320   4.328  0.5346  2.0986 -2.4272
  927MOL0     H22315   6.555   9.022   4.261  0.9923 -1.0336  2.5589
  927MOL0     H22316   6.408   9.085   4.327 -0.0026  2.8640 -1.1026
  927MOL0     H22317   6.407   8.950   4.523 -0.9076 -0.3268  2.7973
  927MOL0     H22318   6.544   9.019   4.877 -1.0942  3.9494 -1.2481
  927MOL0     H22319   6.524   8.861   4.782  1.9042  1.4101  0.2258
  927MOL0     H22320   6.324   8.924   4.899 -0.3584  1.6771  0.1090
  927MOL0     H22321   6.283   8.955   4.727  3.4304 -1.0649 -2.5858
  927MOL0     H22322   6.374   9.182   4.908  0.4505  2.6160 -1.4424
  927MOL0     H22323   6.352   9.194   4.737  2.7442 -1.7840 -0.4974
  927MOL0     H22324   6.137   9.109   4.944  3.6554  1.7241  1.3236
  927MOL0     H22325   6.114   9.117   4.763  2.4639 -0.8700 -1.0379
  927MOL0     H22326   6.061   9.542   4.915  0.3029 -1.2909 -2.1436
  927MOL0     H22327   5.854   9.627   5.037 -2.5018 -0.5345  0.0180
  927MOL0     H22328   5.347   9.537   5.054 -1.9432  0.4526 -0.1111
  927MOL0     H22329   5.139   9.501   5.085  0.0168 -2.7638 -3.2196
  927MOL0     H22330   4.970   9.128   5.278  0.6546 -0.3416 -1.0743
  927MOL0     H22331   4.937   9.228   5.129 -1.2180  1.6006  0.0291
  927MOL0     H22332   4.739   9.310   5.241 -1.2768 -1.4956 -0.3449
  927MOL0     H22333   4.794   9.244   5.398 -0.1446  1.8435 -0.0446
  927MOL0     H22334   4.616   9.104   5.308 -0.2793  2.1781 -0.5406
  927MOL0     H22335   4.764   9.022   5.331 -1.5883 -0.9652  0.2101
  927MOL0     H22336   4.604   9.049   5.092 -0.5664 -1.7627  1.4041
  927MOL0     H22337   4.764   9.118   5.053  0.8264 -0.8276  0.7611
  927MOL0     H22338   4.704   8.851   5.151  0.4086  0.9186  0.6545
  927MOL0     H22339   4.870   8.942   5.137  1.2944  0.5536 -1.8220
  927MOL0     H22340   4.836   8.960   4.882 -4.0847  1.6588 -3.8936
  927MOL0     H22341   4.675   8.907   4.903 -0.0536  5.3582  2.6749
  927MOL0     H22342   4.784   8.708   4.815 -0.3965  2.6023 -0.3052
  927MOL0     H22343   4.931   8.727   4.902 -1.2824  2.0095 -1.1336
  927MOL0     H22344   4.689   8.657   5.068  0.2682 -1.2253 -0.2369
  927MOL0     H22345   4.858   8.609   5.083 -1.2563  1.4419  1.4735
  927MOL0     H22346   5.215   9.186   5.375 -2.6623  0.5330 -0.5012
  927MOL0     H22347   5.442   9.191   5.304 -0.6075  0.1231 -0.0001
  927MOL0     H22348   5.715   9.220   5.039 -0.2908  1.5364  1.2835
  927MOL0     H22349   5.914   9.145   4.927 -2.2406 -0.0523  1.3367
  927MOL0     H22350   6.232   9.372   3.332  0.0349 -1.9087  1.0372
  927MOL0     H22351   6.098   9.429   3.132 -2.3905 -0.5976 -1.1479
  927MOL0     H22352   5.847   9.292   2.785 -0.1712 -0.0849 -0.1168
  927MOL0     H22353   5.726   9.348   2.587  2.5156 -3.5436  2.3858
  927MOL0     H22354   5.458   9.393   2.519 -0.9921  2.0952  0.8802
  927MOL0     H22355   5.591   9.431   2.411 -0.8233 -3.6796  1.7858
  927MOL0     H22356   5.416   9.500   2.273 -1.9295 -0.0069 -0.1986
  927MOL0     H22357   5.321   9.551   2.399 -0.5548  1.7645 -1.8112
  927MOL0     H22358   5.506   9.763   2.427  1.7071  3.2901 -2.6888
  927MOL0     H22359   5.400   9.742   2.282 -0.7154 -0.1525  0.3784
  927MOL0     H22360   5.670   9.619   2.321 -0.6471  1.3739  3.5824
  927MOL0     H22361   5.569   9.634   2.168 -1.1999  0.2139  0.2658
  927MOL0     H22362   5.723  10.029   2.195 -0.8813 -0.7060 -1.5665
  927MOL0     H22363   5.557   9.698   2.784  0.9254  1.4187  0.0918
  927MOL0     H22364   5.661   9.627   2.996  3.2160  1.0813  0.0105
  928MOL0     O22365   2.238   7.961   0.384  0.3189  0.2714  1.2723
  928MOL0     C22366   2.275   7.900   0.479 -0.2132  0.5429 -0.5517
  928MOL0     O22367   2.223   7.915   0.601  0.2160  0.6384  0.2139
  928MOL0     C22368   2.165   8.032   0.639 -0.2637 -0.9549  0.3541
  928MOL0     C22369   2.044   8.069   0.586 -0.4659 -1.3825 -0.3092
  928MOL0     C22370   1.996   8.204   0.622 -0.5328 -0.8625  0.4528
  928MOL0     C22371   2.084   8.288   0.709  0.0408 -0.1107 -0.3004
  928MOL0     O22372   2.058   8.426   0.743 -0.1969 -0.7217  0.0908
  928MOL0     C22373   1.927   8.479   0.718 -0.9046  0.6245  0.3793
  928MOL0     C22374   1.948   8.628   0.750  0.1193  0.4802 -0.0689
  928MOL0     C22375   1.822   8.721   0.745  0.3516  0.4191 -0.1629
  928MOL0     C22376   1.718   8.710   0.859  0.6815  0.2214 -0.9813
  928MOL0     C22377   1.600   8.807   0.839  0.1414  0.6223 -0.9839
  928MOL0     C22378   1.488   8.800   0.943 -0.6475 -0.8920 -0.2109
  928MOL0     C22379   1.361   8.881   0.907  0.5856 -0.7129 -0.0377
  928MOL0     C22380   1.253   8.906   1.021 -1.3090  0.7008  0.3588
  928MOL0     N22381   1.192   8.791   1.077  0.3168 -0.0947 -0.7703
  928MOL0     C22382   1.151   8.683   1.004  0.5410  0.2646 -0.4736
  928MOL0     C22383   1.106   8.594   1.102 -0.4207 -0.3065 -0.5499
  928MOL0     C22384   1.061   8.463   1.061 -0.0499  0.6527  0.3455
  928MOL0     C22385   0.915   8.449   1.067 -0.4989 -0.8812  0.2684
  928MOL0     C22386   0.853   8.313   1.083  0.2835 -0.0547 -0.3779
  928MOL0     C22387   0.891   8.254   1.220 -0.0204 -0.2246 -0.1373
  928MOL0     O22388   1.026   8.196   1.217 -0.7619 -0.0193  0.5628
  928MOL0     C22389   1.049   8.077   1.145  0.3105 -0.3352 -0.9343
  928MOL0     C22390   0.954   8.005   1.084 -0.3026  0.7954  0.4445
  928MOL0     C22391   0.994   7.894   1.009 -0.2789 -0.5499  1.1013
  928MOL0     C22392   1.134   7.856   0.986  0.7881  0.2483  0.1838
  928MOL0     C22393   1.169   7.765   0.889 -0.9505 -0.0958  0.6615
  928MOL0     O22394   1.084   7.759   0.782 -0.6062  0.4974 -0.4129
  928MOL0     C22395   1.099   7.646   0.703 -0.0997 -0.3687  0.7123
  928MOL0     C22396   0.982   7.573   0.688 -0.9009  0.5401  0.0178
  928MOL0     C22397   0.973   7.461   0.600  0.0305  0.1555 -0.1036
  928MOL0     C22398   1.088   7.421   0.531  0.2442  0.4825  0.1614
  928MOL0     O22399   1.095   7.322   0.438  0.1515  0.0840 -0.2304
  928MOL0     C22400   1.076   7.193   0.493 -0.3821 -0.8808  0.3228
  928MOL0     C22401   1.201   7.109   0.438 -0.2287  0.0255  0.0122
  928MOL0     C22402   1.164   7.062   0.301 -0.3291 -0.9108 -0.2133
  928MOL0     C22403   1.281   7.014   0.223  0.6017  0.1054 -0.4016
  928MOL0     C22404   1.235   6.931   0.101  0.1633  0.4525  0.1888
  928MOL0     C22405   1.148   7.008  -0.001 -0.0165  0.0970 -0.2627
  928MOL0     C22406   1.119   6.953  -0.137  0.4175  0.4220  0.2087
  928MOL0     C22407   1.148   7.057  -0.246 -0.5476 -0.7107  0.6584
  928MOL0    Cl22408   1.327   7.052  -0.299  0.2038  0.2221 -0.5646
  928MOL0     C22409   1.203   7.496   0.546 -0.5761 -0.0433 -0.5140
  928MOL0     C22410   1.213   7.611   0.624 -0.5146  0.4461  0.5921
  928MOL0     O22411   1.278   7.706   0.906 -0.2330  0.2620  0.3278
  928MOL0     C22412   1.227   7.935   1.051 -0.1480  0.3819 -1.3082
  928MOL0     C22413   1.184   8.039   1.128 -0.4433  0.2179 -1.3121
  928MOL0     N22414   1.129   8.646   1.237 -0.4433  0.0935  0.1487
  928MOL0     N22415   1.191   8.768   1.215  0.6595  1.0626 -0.1683
  928MOL0     C22416   2.204   8.228   0.767  0.0719  0.2509  0.4442
  928MOL0     C22417   2.245   8.105   0.732  0.4466 -0.4013 -0.3119
  928MOL0     C22418   2.381   7.806   0.470 -1.1842 -1.0891 -0.5597
  928MOL0     C22419   2.417   7.750   0.347 -0.6082 -0.4828  0.0753
  928MOL0     C22420   2.515   7.653   0.345 -0.7278  0.3063 -0.1487
  928MOL0     C22421   2.606   7.630   0.444 -0.5463  0.1252 -0.0849
  928MOL0     O22422   2.712   7.543   0.446 -0.1768 -0.3201 -0.0087
  928MOL0     C22423   2.755   7.493   0.319 -0.4609  0.6024  0.0222
  928MOL0     C22424   2.865   7.386   0.333 -0.5664  0.1494 -0.6198
  928MOL0     C22425   2.941   7.337   0.208 -0.7407  0.4631  0.0763
  928MOL0     C22426   2.848   7.261   0.116  0.3254  0.7801  1.2140
  928MOL0     C22427   2.830   7.125   0.169 -0.1915 -0.1281 -1.2306
  928MOL0     C22428   2.815   7.013   0.208 -0.5697  0.5231 -1.1227
  928MOL0     C22429   2.580   7.680   0.566 -0.3790 -0.4322  0.5863
  928MOL0     C22430   2.467   7.769   0.584 -0.2627 -0.9889 -0.5768
  928MOL0     H22431   1.991   8.011   0.511 -1.7289 -0.1669 -0.3854
  928MOL0     H22432   1.904   8.244   0.581  1.2895  0.9014 -2.2988
  928MOL0     H22433   1.868   8.433   0.797 -3.2784  2.0001 -0.5046
  928MOL0     H22434   1.900   8.467   0.613  0.1843 -4.2305  0.4302
  928MOL0     H22435   2.030   8.666   0.688 -0.6668  1.3413 -0.6050
  928MOL0     H22436   1.983   8.629   0.854 -1.4224 -0.5636  0.4829
  928MOL0     H22437   1.770   8.702   0.651  0.1698 -1.1255  0.2148
  928MOL0     H22438   1.860   8.823   0.743 -0.3987  0.7351  0.8153
  928MOL0     H22439   1.683   8.607   0.848 -1.0526  0.6041  0.4940
  928MOL0     H22440   1.766   8.720   0.957 -2.8361 -0.2099  0.9249
  928MOL0     H22441   1.562   8.784   0.739 -1.3240  3.5762 -1.2294
  928MOL0     H22442   1.639   8.909   0.834  0.6829  0.7184  2.5093
  928MOL0     H22443   1.525   8.833   1.040 -2.0601  0.9193 -0.2342
  928MOL0     H22444   1.458   8.695   0.950  1.0685 -1.3609  0.6099
  928MOL0     H22445   1.394   8.983   0.883  0.6930 -0.6587  0.3299
  928MOL0     H22446   1.315   8.837   0.819 -1.9808 -0.3195  1.0009
  928MOL0     H22447   1.175   8.971   0.981 -3.3105 -2.5906 -1.5559
  928MOL0     H22448   1.283   8.965   1.108  0.6777  0.1546  0.0885
  928MOL0     H22449   1.150   8.671   0.896 -1.1763  1.7916 -0.6681
  928MOL0     H22450   1.111   8.381   1.113  1.6721  0.4577 -1.5310
  928MOL0     H22451   1.087   8.440   0.958 -0.1630 -2.3909  0.9051
  928MOL0     H22452   0.876   8.500   0.979  0.5040 -1.0330 -0.2720
  928MOL0     H22453   0.872   8.509   1.149 -0.5244 -0.4088 -0.0836
  928MOL0     H22454   0.745   8.319   1.064  0.4921 -0.9128 -2.0409
  928MOL0     H22455   0.878   8.243   1.002  0.2482 -0.3844 -0.1067
  928MOL0     H22456   0.812   8.183   1.242 -2.7332  3.1565  2.0930
  928MOL0     H22457   0.878   8.335   1.293  0.2926 -0.2332 -0.0683
  928MOL0     H22458   0.849   8.033   1.076  0.3082  2.5933 -2.6767
  928MOL0     H22459   0.912   7.838   0.964 -0.1514  1.3196 -1.7081
  928MOL0     H22460   0.891   7.594   0.743  0.4800  5.3041  0.9600
  928MOL0     H22461   0.878   7.410   0.590  1.1692 -2.5756  1.7410
  928MOL0     H22462   0.980   7.152   0.461  1.8681 -4.3296 -2.8129
  928MOL0     H22463   1.071   7.190   0.602 -5.1394  0.5508  0.3928
  928MOL0     H22464   1.208   7.029   0.512 -2.1914 -1.3052 -1.1442
  928MOL0     H22465   1.284   7.180   0.436 -1.9792  2.2267  1.0474
  928MOL0     H22466   1.104   7.128   0.238 -1.9361 -0.1585  1.9426
  928MOL0     H22467   1.096   6.979   0.322 -0.2855 -0.4405  2.1178
  928MOL0     H22468   1.337   7.098   0.181  0.3061  0.3817 -0.2498
  928MOL0     H22469   1.349   6.957   0.287  0.1707  0.4698  0.4003
  928MOL0     H22470   1.194   6.830   0.106  0.4615  0.3653  0.9587
  928MOL0     H22471   1.326   6.905   0.047  0.5722  1.1247  0.5427
  928MOL0     H22472   1.207   7.098  -0.019  1.0477 -0.8206 -1.5987
  928MOL0     H22473   1.057   7.047   0.045  1.6176  1.3094  2.1577
  928MOL0     H22474   1.189   6.874  -0.169 -0.9593  0.1069 -2.2847
  928MOL0     H22475   1.016   6.918  -0.149  1.0631 -1.8730  0.8321
  928MOL0     H22476   1.130   7.161  -0.217 -0.2410  0.0434 -1.6462
  928MOL0     H22477   1.094   7.022  -0.334 -2.3011 -0.7288  1.6934
  928MOL0     H22478   1.293   7.469   0.492  1.5055  2.4463  1.4640
  928MOL0     H22479   1.303   7.672   0.623  1.0399 -1.6611 -1.4387
  928MOL0     H22480   1.333   7.919   1.034  0.1789 -0.0174  0.8555
  928MOL0     H22481   1.257   8.095   1.185 -0.4080 -1.2691  0.2038
  928MOL0     H22482   2.274   8.288   0.824 -0.8263  1.4355  0.3465
  928MOL0     H22483   2.338   8.063   0.770  0.0116  1.2708  2.8808
  928MOL0     H22484   2.357   7.770   0.259 -0.0081 -1.6440 -0.6106
  928MOL0     H22485   2.535   7.613   0.246 -0.8156  2.0088 -0.8872
  928MOL0     H22486   2.771   7.582   0.257 -1.9961  1.2075  0.4511
  928MOL0     H22487   2.676   7.435   0.272  0.2954 -1.0385  0.7027
  928MOL0     H22488   2.947   7.436   0.385 -0.0639  2.7265 -3.5750
  928MOL0     H22489   2.828   7.308   0.399  0.4782  2.0311  2.3799
  928MOL0     H22490   3.024   7.270   0.233 -1.2807 -1.2693 -2.4174
  928MOL0     H22491   2.991   7.423   0.162  3.5253 -1.5614  0.4561
  928MOL0     H22492   2.748   7.306   0.114 -0.0682 -0.0746  1.1008
  928MOL0     H22493   2.885   7.255   0.013 -0.1805 -2.3332  1.1044
  928MOL0     H22494   2.813   6.911   0.241 -0.7456  1.4219  1.9295
  928MOL0     H22495   2.651   7.654   0.644 -0.0588 -1.5272 -0.0481
  928MOL0     H22496   2.448   7.800   0.686  0.0792 -2.2085 -0.1331
  929MOL0     O22497   5.656   7.336   7.269 -0.1313 -0.1857  1.1196
  929MOL0     C22498   5.543   7.354   7.238  0.3702 -0.1406 -0.7852
  929MOL0     O22499   5.447   7.255   7.252 -0.0856 -0.0254 -0.2679
  929MOL0     C22500   5.482   7.149   7.330  0.1208  0.7128 -0.5762
  929MOL0     C22501   5.544   7.034   7.282 -0.4189 -0.0263  0.3447
  929MOL0     C22502   5.578   6.921   7.356  0.3336 -0.4100 -0.4694
  929MOL0     C22503   5.531   6.916   7.491 -0.8687 -0.7451  0.4305
  929MOL0     O22504   5.574   6.803   7.571  0.1504 -0.0451 -0.0012
  929MOL0     C22505   5.578   6.670   7.515 -0.1830 -0.0332  0.2885
  929MOL0     C22506   5.564   6.575   7.633  0.1221  0.4637  0.2741
  929MOL0     C22507   5.554   6.423   7.583  0.0591 -0.1387 -0.5312
  929MOL0     C22508   5.580   6.314   7.687 -0.7045 -0.0540  0.1969
  929MOL0     C22509   5.546   6.187   7.629 -0.7813  0.3052  0.0496
  929MOL0     C22510   5.614   6.072   7.696 -0.0853 -0.3783  1.2009
  929MOL0     C22511   5.614   5.937   7.618  0.5844 -0.0086 -0.1273
  929MOL0     C22512   5.483   5.850   7.652 -0.4396 -1.0402  0.7521
  929MOL0     N22513   5.486   5.725   7.571 -0.9271 -0.1370  0.2559
  929MOL0     C22514   5.510   5.710   7.434 -0.5111 -0.7112 -0.5907
  929MOL0     C22515   5.546   5.586   7.422 -0.2394 -0.7997  0.0725
  929MOL0     C22516   5.612   5.538   7.299 -0.2386 -0.0966 -0.3195
  929MOL0     C22517   5.519   5.516   7.185 -0.2167 -0.0540 -0.6360
  929MOL0     C22518   5.557   5.590   7.058 -0.0190  0.5726 -0.1651
  929MOL0     C22519   5.445   5.586   6.945 -0.4849  0.2307 -0.6128
  929MOL0     O22520   5.322   5.644   6.985  0.1620  0.0798 -0.2530
  929MOL0     C22521   5.221   5.647   6.891 -0.0776  0.1849  0.1148
  929MOL0     C22522   5.228   5.595   6.759 -0.3827  0.4945 -0.6649
  929MOL0     C22523   5.113   5.576   6.685  0.3551  0.9597 -0.2084
  929MOL0     C22524   4.987   5.604   6.731  0.0154  0.2548  0.9666
  929MOL0     C22525   4.862   5.574   6.661  0.0966  0.3767  0.1688
  929MOL0     O22526   4.748   5.631   6.712  0.4241 -0.2081  0.5748
  929MOL0     C22527   4.629   5.627   6.639 -0.4184 -0.5827 -0.2606
  929MOL0     C22528   4.580   5.748   6.580  0.0721 -0.3618 -0.7131
  929MOL0     C22529   4.463   5.749   6.525  0.1972  0.7247 -0.4695
  929MOL0     C22530   4.379   5.643   6.529 -0.3098  0.0952  0.0445
  929MOL0     O22531   4.264   5.653   6.462 -0.6650 -0.1433  0.3568
  929MOL0     C22532   4.257   5.588   6.329  0.1895  0.2843 -0.7585
  929MOL0     C22533   4.112   5.610   6.282  1.3210  0.2402  0.3063
  929MOL0     C22534   4.067   5.493   6.188 -0.1888 -0.4692  0.2386
  929MOL0     C22535   3.927   5.492   6.118 -0.3649  0.0624 -0.5681
  929MOL0     C22536   3.905   5.362   6.034 -0.0671 -0.8221 -0.9838
  929MOL0     C22537   3.829   5.256   6.110  0.3037 -0.2285 -0.0225
  929MOL0     C22538   3.693   5.285   6.157  0.8796 -0.5286 -0.3626
  929MOL0     C22539   3.623   5.162   6.222  0.6419  0.8628  0.3213
  929MOL0    Cl22540   3.713   5.072   6.356 -0.0162 -0.5363  0.3823
  929MOL0     C22541   4.413   5.527   6.584 -0.5504 -0.2569 -0.1903
  929MOL0     C22542   4.544   5.510   6.632 -1.1931 -0.2987  0.2318
  929MOL0     O22543   4.867   5.483   6.576 -0.1516 -0.3804  0.4451
  929MOL0     C22544   4.980   5.670   6.855  0.0903 -0.1784 -0.3384
  929MOL0     C22545   5.096   5.698   6.933  0.0446  0.7922 -0.1013
  929MOL0     N22546   5.520   5.515   7.536 -0.8492 -0.1845 -0.9202
  929MOL0     N22547   5.482   5.600   7.616  0.8636 -0.3118 -0.2805
  929MOL0     C22548   5.452   7.012   7.537 -0.4384  0.4868 -0.1774
  929MOL0     C22549   5.427   7.127   7.458 -0.5479  0.0499  0.4664
  929MOL0     C22550   5.498   7.481   7.170  0.2202  0.0960  0.7423
  929MOL0     C22551   5.361   7.496   7.131  0.0478 -0.7172 -0.5441
  929MOL0     C22552   5.331   7.611   7.067  0.6621 -0.7397 -0.3013
  929MOL0     C22553   5.407   7.713   7.059 -0.1894 -0.4862  0.4591
  929MOL0     O22554   5.356   7.817   6.987 -1.4366 -0.8499  0.0182
  929MOL0     C22555   5.244   7.887   7.038  0.1596  0.0849  0.6189
  929MOL0     C22556   5.276   7.954   7.180  0.3080 -0.4868 -0.0603
  929MOL0     C22557   5.149   8.022   7.233 -0.4980 -0.5590 -0.0353
  929MOL0     C22558   5.088   8.144   7.150 -0.5959 -0.2483 -1.0724
  929MOL0     C22559   5.023   8.248   7.241  0.4973  0.7672  0.4238
  929MOL0     C22560   4.977   8.332   7.321 -0.1167 -0.0436  0.8830
  929MOL0     C22561   5.537   7.708   7.098 -0.1556  0.7768 -0.1241
  929MOL0     C22562   5.586   7.578   7.135 -0.4705 -0.1070  0.3406
  929MOL0     H22563   5.567   7.036   7.176 -1.4051  0.4423  0.1333
  929MOL0     H22564   5.627   6.833   7.316  0.4399  0.0167 -1.3003
  929MOL0     H22565   5.677   6.654   7.471 -1.2570 -1.3585 -1.8121
  929MOL0     H22566   5.498   6.661   7.441 -0.6925 -1.8636  0.9945
  929MOL0     H22567   5.471   6.611   7.677 -0.4003  0.9146 -1.1297
  929MOL0     H22568   5.649   6.577   7.703  1.1488 -1.4187 -0.8474
  929MOL0     H22569   5.615   6.397   7.496 -1.3487 -2.6076 -0.8575
  929MOL0     H22570   5.448   6.425   7.557  0.5449  0.7945 -2.6577
  929MOL0     H22571   5.684   6.313   7.720 -0.9129 -2.5098  1.0267
  929MOL0     H22572   5.516   6.334   7.772 -2.7337  0.8956 -1.4688
  929MOL0     H22573   5.571   6.193   7.523 -0.2149 -1.4481  0.0448
  929MOL0     H22574   5.439   6.166   7.642 -1.0806  1.8238  0.1561
  929MOL0     H22575   5.580   6.062   7.799 -2.1193  1.3346  0.7696
  929MOL0     H22576   5.718   6.103   7.695 -0.7434  2.0370  1.2886
  929MOL0     H22577   5.633   5.949   7.511  0.8649  0.8307  0.0083
  929MOL0     H22578   5.702   5.883   7.654  1.1900  1.1407  0.1491
  929MOL0     H22579   5.401   5.905   7.604 -2.0882 -2.7461  1.4611
  929MOL0     H22580   5.465   5.833   7.759 -0.6656  3.0550  1.5270
  929MOL0     H22581   5.508   5.795   7.366 -2.3988  1.1878  1.6521
  929MOL0     H22582   5.671   5.450   7.323 -1.2432  0.0326  3.1436
  929MOL0     H22583   5.688   5.613   7.275  2.2271 -1.2292  3.1875
  929MOL0     H22584   5.425   5.561   7.219 -1.1787  0.5452 -3.7551
  929MOL0     H22585   5.512   5.407   7.183  0.2464 -0.1083  0.2052
  929MOL0     H22586   5.583   5.696   7.071 -1.8019  1.0634 -0.3866
  929MOL0     H22587   5.648   5.534   7.034  0.2007  0.8530  0.0082
  929MOL0     H22588   5.426   5.483   6.916  0.0407 -0.1786  0.4476
  929MOL0     H22589   5.488   5.639   6.859 -0.8368 -0.7349 -1.4050
  929MOL0     H22590   5.322   5.545   6.739  0.0757  1.4920 -1.0142
  929MOL0     H22591   5.117   5.534   6.585  2.3554  3.4163 -1.2923
  929MOL0     H22592   4.633   5.839   6.604 -3.6636  0.9838  3.7713
  929MOL0     H22593   4.432   5.842   6.479 -1.1725 -0.5094 -2.1966
  929MOL0     H22594   4.295   5.486   6.340 -0.4912 -0.1613 -2.2638
  929MOL0     H22595   4.307   5.648   6.252 -2.7938  2.3448 -1.2933
  929MOL0     H22596   4.088   5.705   6.234  0.8933  0.0644  0.1668
  929MOL0     H22597   4.049   5.611   6.372  2.3198  0.7188  1.0158
  929MOL0     H22598   4.070   5.399   6.244  1.4439 -0.3067  0.4722
  929MOL0     H22599   4.142   5.503   6.109 -1.4670  1.1175 -0.8388
  929MOL0     H22600   3.850   5.501   6.195 -1.8811 -2.3765 -1.6908
  929MOL0     H22601   3.922   5.575   6.046  3.9365 -0.2145 -1.4502
  929MOL0     H22602   3.999   5.324   5.993  1.6087 -1.2071  2.8074
  929MOL0     H22603   3.853   5.393   5.942 -0.6465 -1.2418 -0.8056
  929MOL0     H22604   3.883   5.232   6.202  4.0214 -1.4788 -2.2764
  929MOL0     H22605   3.830   5.161   6.055 -1.0629 -4.1268  5.7197
  929MOL0     H22606   3.705   5.372   6.222  0.8018  0.3269 -1.4663
  929MOL0     H22607   3.632   5.321   6.074  0.5890 -2.4839 -1.0514
  929MOL0     H22608   3.613   5.090   6.140  0.8340  0.4058  0.6869
  929MOL0     H22609   3.530   5.205   6.259  0.0066  2.4533 -2.8104
  929MOL0     H22610   4.342   5.449   6.610 -0.7727 -0.0600 -0.2066
  929MOL0     H22611   4.571   5.415   6.676  0.7947 -0.6465 -1.5593
  929MOL0     H22612   4.887   5.715   6.888 -0.2600 -1.5371  0.6668
  929MOL0     H22613   5.100   5.760   7.022 -0.3950  0.3795  0.2077
  929MOL0     H22614   5.402   6.999   7.633 -4.4894 -1.2772 -2.2610
  929MOL0     H22615   5.375   7.212   7.501  0.9500 -0.7574  4.3411
  929MOL0     H22616   5.291   7.413   7.137  1.2886 -1.6877  1.7495
  929MOL0     H22617   5.236   7.621   7.016  1.3574  0.5449 -1.4152
  929MOL0     H22618   5.156   7.822   7.050  0.8208 -0.5237  2.4154
  929MOL0     H22619   5.215   7.966   6.969  2.0424 -0.3138 -0.7001
  929MOL0     H22620   5.308   7.875   7.248 -3.0469 -1.2811  0.7423
  929MOL0     H22621   5.354   8.030   7.171  1.2696 -1.2821  1.2541
  929MOL0     H22622   5.178   8.073   7.325  1.0861  1.9750 -1.8332
  929MOL0     H22623   5.072   7.945   7.251  1.8006 -3.2998 -1.1918
  929MOL0     H22624   5.173   8.190   7.099 -2.0514  2.5306 -1.1676
  929MOL0     H22625   5.018   8.097   7.081  0.1684 -2.3936 -0.4715
  929MOL0     H22626   4.930   8.409   7.378 -0.0754 -0.1752  1.0957
  929MOL0     H22627   5.608   7.788   7.081  1.0608  0.3067  2.2938
  929MOL0     H22628   5.694   7.574   7.134 -0.3805  1.6074 -0.2268
  930MOL0     O22629   6.307   0.356  10.357 -0.9333  0.4882 -0.2432
  930MOL0     C22630   6.301   0.229  10.330 -0.5498 -0.3844 -0.1942
  930MOL0     O22631   6.180   0.158  10.326 -1.1324  0.3688  0.0278
  930MOL0     C22632   6.062   0.230  10.328  0.0570  0.1029  0.4489
  930MOL0     C22633   6.007   0.284  10.447  0.0176  0.0736 -0.2959
  930MOL0     C22634   5.882   0.358  10.448 -0.0033 -0.3596  0.3752
  930MOL0     C22635   5.804   0.350  10.333  0.6732  0.5206 -0.2573
  930MOL0     O22636   5.681   0.409  10.323  0.7929  0.3012 -0.6201
  930MOL0     C22637   5.670   0.534  10.377 -0.2529  0.3597 -0.3091
  930MOL0     C22638   5.583   0.516  10.505  0.0324 -0.2290  0.4571
  930MOL0     C22639   5.559   0.643  10.592 -0.0682  0.3294  0.1819
  930MOL0     C22640   5.547   0.775  10.519 -0.6869 -0.1488 -0.3556
  930MOL0     C22641   5.525   0.893  10.618  0.0259 -0.4798  0.1813
  930MOL0     C22642   5.385   0.897  10.689 -0.1293  0.4988 -0.3787
  930MOL0     C22643   5.365   0.997  10.814  0.7072  0.5526  0.8901
  930MOL0     C22644   5.494   1.035  10.883  0.0961  0.7755 -0.4160
  930MOL0     N22645   5.465   1.105  11.009 -0.7676 -0.5875 -0.6173
  930MOL0     C22646   5.371   1.205  11.040 -1.5374  0.4511 -0.4644
  930MOL0     C22647   5.374   1.217  11.182  0.7115 -0.0655  0.1678
  930MOL0     C22648   5.282   1.310  11.266 -0.7822  0.5936 -0.5805
  930MOL0     C22649   5.187   1.216  11.341  0.0060  0.4766 -0.6337
  930MOL0     C22650   5.231   1.195  11.490  0.3880 -0.4475  0.4564
  930MOL0     C22651   5.235   1.047  11.529 -0.2113 -0.1884  0.2973
  930MOL0     O22652   5.230   1.074  11.673  0.1917 -0.7754 -0.0921
  930MOL0     C22653   5.246   0.969  11.762  0.1109  0.3654 -0.3023
  930MOL0     C22654   5.222   0.835  11.729  0.8370  0.3490 -0.5404
  930MOL0     C22655   5.217   0.735  11.834  0.3149  1.0264  0.1421
  930MOL0     C22656   5.240   0.762  11.964  0.2332  0.7037  0.1126
  930MOL0     C22657   5.219   0.651  12.055 -0.9577  0.4773 -0.1751
  930MOL0     O22658   5.225   0.686  12.189  0.6366 -0.2798 -0.1315
  930MOL0     C22659   5.205   0.611  12.297  0.4932 -0.0985  0.8077
  930MOL0     C22660   5.272   0.654  12.408 -0.1306 -0.4664  1.0555
  930MOL0     C22661   5.258   0.579  12.526  0.3972 -0.7843 -1.1825
  930MOL0     C22662   5.169   0.471  12.540 -0.4597  1.2967 -0.3649
  930MOL0     O22663   5.157   0.430  12.673 -0.5858 -0.8633  0.7023
  930MOL0     C22664   5.083   0.312  12.705  0.6586 -1.1762  0.5489
  930MOL0     C22665   5.084   0.301  12.857 -0.7256  0.3662  0.2369
  930MOL0     C22666   5.228   0.256  12.899  0.5718 -0.0556  0.3499
  930MOL0     C22667   5.226   0.239  13.062 -0.6504  0.3343 -0.8413
  930MOL0     C22668   5.343   0.157  13.103 -0.7043  0.0822  0.1175
  930MOL0     C22669   5.323   0.108  13.245 -0.0903 -0.4288 -0.5935
  930MOL0     C22670   5.452   0.030  13.312  0.5961 -1.5564  0.0779
  930MOL0     C22671   5.407  -0.059  13.427 -0.6712 -0.6915  0.3145
  930MOL0    Cl22672   5.529  -0.175  13.494 -0.3592 -0.4761  0.0278
  930MOL0     C22673   5.111   0.420  12.423  0.2836  0.2942 -0.6079
  930MOL0     C22674   5.128   0.491  12.302 -0.1993 -0.1685  1.0527
  930MOL0     O22675   5.199   0.536  12.008  0.0142  0.0812  0.2107
  930MOL0     C22676   5.259   0.899  11.993 -0.2904  0.8134  0.7109
  930MOL0     C22677   5.248   1.005  11.899 -0.8726 -0.4605  0.4293
  930MOL0     N22678   5.477   1.137  11.223  1.0919  0.4168 -0.4311
  930MOL0     N22679   5.517   1.066  11.131  0.2180 -0.2463  0.2457
  930MOL0     C22680   5.846   0.281  10.221 -0.4648  0.2907 -0.5061
  930MOL0     C22681   5.976   0.227  10.213 -0.3700 -1.9499 -0.9803
  930MOL0     C22682   6.427   0.154  10.328  0.5180 -0.3835  0.4105
  930MOL0     C22683   6.544   0.204  10.394 -0.1677 -0.4528 -0.0516
  930MOL0     C22684   6.668   0.151  10.382  0.0742  0.8049 -0.7215
  930MOL0     C22685   6.692   0.039  10.291  1.3329 -0.0063  0.8615
  930MOL0     O22686   6.820   0.004  10.266  0.2968  0.1595  0.3821
  930MOL0     C22687   6.879  -0.113  10.320 -0.4524  0.7050  0.4078
  930MOL0     C22688   7.013  -0.151  10.259  0.2909 -0.2291  0.4347
  930MOL0     C22689   7.129  -0.082  10.308 -0.8055  0.3774  0.2403
  930MOL0     C22690   7.264  -0.109  10.226 -0.8278 -0.8879 -0.6411
  930MOL0     C22691   7.321  -0.240  10.249 -0.3065  0.0140  0.8569
  930MOL0     C22692   7.380  -0.347  10.280  0.3485 -0.0815  0.2792
  930MOL0     C22693   6.575  -0.017  10.234 -0.4285 -0.1360  0.1186
  930MOL0     C22694   6.437   0.036  10.252  0.2972  0.3523  0.7458
  930MOL0     H22695   6.076   0.291  10.530 -0.5971 -0.0461  0.2309
  930MOL0     H22696   5.851   0.410  10.539 -2.9590 -2.7586  0.9094
  930MOL0     H22697   5.626   0.602  10.304 -0.9630 -0.8793 -1.0768
  930MOL0     H22698   5.759   0.588  10.411 -0.5196  0.4687  0.2345
  930MOL0     H22699   5.610   0.437  10.575  3.3972  0.5933  0.2591
  930MOL0     H22700   5.491   0.472  10.466  0.6226  1.4798 -3.3572
  930MOL0     H22701   5.639   0.642  10.667 -1.5313 -3.4652  1.9403
  930MOL0     H22702   5.476   0.619  10.659  2.3698  1.4750  3.9199
  930MOL0     H22703   5.640   0.775  10.462  0.7113 -1.6203  1.8116
  930MOL0     H22704   5.455   0.771  10.459 -2.0837  1.3631  1.5301
  930MOL0     H22705   5.534   0.985  10.561  0.7245 -0.0272  1.0072
  930MOL0     H22706   5.604   0.901  10.694  0.2825  2.4239 -0.2953
  930MOL0     H22707   5.359   0.799  10.732  0.9265  0.0476 -0.7375
  930MOL0     H22708   5.297   0.912  10.625  0.4335 -0.7510 -1.4996
  930MOL0     H22709   5.327   1.089  10.770 -0.4259  0.1723  1.0438
  930MOL0     H22710   5.290   0.959  10.884 -0.8558  2.6757  0.4598
  930MOL0     H22711   5.548   1.097  10.810 -0.0883 -0.7705 -1.9521
  930MOL0     H22712   5.552   0.946  10.910 -2.6748 -1.0097  0.0687
  930MOL0     H22713   5.300   1.262  10.980  0.5611  3.7133 -0.0610
  930MOL0     H22714   5.235   1.378  11.194  1.3783 -0.0372 -2.7141
  930MOL0     H22715   5.338   1.380  11.329  0.8352 -0.0182 -1.2771
  930MOL0     H22716   5.188   1.122  11.284  1.7197  1.0859 -1.6710
  930MOL0     H22717   5.090   1.266  11.338  0.2085  0.8769 -0.4876
  930MOL0     H22718   5.333   1.234  11.493 -0.0743  1.1079 -1.6869
  930MOL0     H22719   5.173   1.267  11.550 -0.7483 -0.4362 -0.6105
  930MOL0     H22720   5.332   1.004  11.502 -1.2713 -2.4363 -0.1769
  930MOL0     H22721   5.153   0.988  11.487 -0.2118 -2.5409  3.2658
  930MOL0     H22722   5.197   0.799  11.630 -1.2604  1.5844 -0.5354
  930MOL0     H22723   5.202   0.631  11.804  1.5218  0.4892  1.2730
  930MOL0     H22724   5.339   0.739  12.405  4.0550 -3.4495 -0.8366
  930MOL0     H22725   5.307   0.614  12.616  1.1154 -0.6997 -1.6026
  930MOL0     H22726   5.129   0.223  12.660  1.7592 -0.4489  0.2087
  930MOL0     H22727   4.985   0.326  12.660  2.7529 -1.9562 -5.1459
  930MOL0     H22728   5.015   0.218  12.878 -0.9253  0.2747 -0.7642
  930MOL0     H22729   5.045   0.393  12.900 -4.6071 -0.1235 -1.8362
  930MOL0     H22730   5.305   0.330  12.873  0.3980 -0.0151 -0.0479
  930MOL0     H22731   5.254   0.163  12.848 -2.2433 -0.6943 -0.0739
  930MOL0     H22732   5.224   0.341  13.102 -2.0419  0.1857 -0.4687
  930MOL0     H22733   5.136   0.191  13.103 -1.0886  1.5587 -0.3222
  930MOL0     H22734   5.430   0.223  13.105 -0.3823 -0.3499  1.3070
  930MOL0     H22735   5.355   0.072  13.035 -1.5840  0.0011  0.0571
  930MOL0     H22736   5.240   0.036  13.239 -0.6792  0.1011  0.7460
  930MOL0     H22737   5.286   0.196  13.298 -0.2815  0.5773 -2.3115
  930MOL0     H22738   5.498  -0.037  13.239  2.4658 -0.3898  0.1381
  930MOL0     H22739   5.528   0.103  13.339 -1.2295  0.3039  0.3875
  930MOL0     H22740   5.328  -0.115  13.376 -1.4392  1.9786 -1.6675
  930MOL0     H22741   5.368   0.017  13.496 -1.3302 -0.0442 -0.7327
  930MOL0     H22742   5.037   0.343  12.441  1.7112 -1.0258 -0.2427
  930MOL0     H22743   5.074   0.450  12.217  1.9955 -3.2397  0.9558
  930MOL0     H22744   5.265   0.926  12.098  0.1141  2.1965  0.3553
  930MOL0     H22745   5.249   1.109  11.929  0.7956  0.2664 -1.8442
  930MOL0     H22746   5.778   0.277  10.136  0.4103  1.8199 -1.3327
  930MOL0     H22747   6.001   0.162  10.129  2.5644 -0.9681 -0.9676
  930MOL0     H22748   6.522   0.287  10.460 -2.0138 -0.3686 -0.7047
  930MOL0     H22749   6.752   0.189  10.439 -2.5310  0.0314  4.1708
  930MOL0     H22750   6.802  -0.188  10.299 -3.8451  4.6596 -3.1560
  930MOL0     H22751   6.891  -0.101  10.428  1.1974 -2.4388  0.6906
  930MOL0     H22752   7.030  -0.257  10.278  1.8790 -0.2984 -1.1164
  930MOL0     H22753   7.003  -0.144  10.150  0.1103  0.8008  0.5072
  930MOL0     H22754   7.147  -0.110  10.412  3.9135 -0.5124 -0.6054
  930MOL0     H22755   7.103   0.024  10.304  2.1738  1.1981  0.4000
  930MOL0     H22756   7.235  -0.089  10.122 -0.6148 -2.2465 -0.9825
  930MOL0     H22757   7.338  -0.040  10.267 -1.0383 -0.8132 -0.3861
  930MOL0     H22758   7.428  -0.437  10.312 -2.2838 -2.2209 -1.3259
  930MOL0     H22759   6.590  -0.100  10.166 -0.9874 -0.2913  0.1764
  930MOL0     H22760   6.353  -0.012  10.202  1.1331 -0.7056  0.3068
  931MOL0     O22761   0.156   9.615   7.034 -0.3798  0.7258 -0.3024
  931MOL0     C22762   0.263   9.656   7.077 -0.3884  0.4423  0.4259
  931MOL0     O22763   0.273   9.748   7.182 -0.3333  0.6482 -0.2625
  931MOL0     C22764   0.165   9.809   7.248  0.3882 -0.2787 -0.4928
  931MOL0     C22765   0.030   9.830   7.187 -0.7966  0.4962 -0.0419
  931MOL0     C22766  -0.058   9.909   7.269 -1.0772  0.9629  0.0497
  931MOL0     C22767  -0.010   9.976   7.384  0.0603 -0.2483 -0.5621
  931MOL0     O22768  -0.095  10.051   7.464  1.0011  0.5119 -0.3927
  931MOL0     C22769  -0.082  10.012   7.608  0.4588  0.6166 -0.8809
  931MOL0     C22770  -0.204  10.050   7.691 -0.0118  0.1802  0.4720
  931MOL0     C22771  -0.335   9.994   7.649  0.3181 -0.2916  0.7402
  931MOL0     C22772  -0.452  10.019   7.739  1.3592  1.1088  0.0467
  931MOL0     C22773  -0.581   9.941   7.698  0.4147 -0.4227 -0.8466
  931MOL0     C22774  -0.598   9.941   7.548  0.2033  0.3831 -0.2362
  931MOL0     C22775  -0.726   9.874   7.515  0.4532  0.5974  0.6636
  931MOL0     C22776  -0.771   9.893   7.366 -0.1316 -0.7286 -0.8327
  931MOL0     N22777  -0.914   9.868   7.326  0.4679 -0.4243  0.5612
  931MOL0     C22778  -0.960   9.879   7.193 -0.0849  0.6298  0.8433
  931MOL0     C22779  -1.093   9.845   7.200 -0.4678  0.3354  0.4338
  931MOL0     C22780  -1.179   9.815   7.077 -0.0052  0.1099  0.1376
  931MOL0     C22781  -1.215   9.664   7.069 -0.1755 -0.5438  0.1440
  931MOL0     C22782  -1.093   9.574   7.085  0.8329  0.1098  0.0923
  931MOL0     C22783  -1.126   9.423   7.068  0.4044 -0.1264  0.0156
  931MOL0     O22784  -0.995   9.367   7.080 -0.3685 -0.3580 -0.6932
  931MOL0     C22785  -0.968   9.241   7.024 -0.5685  0.5343  0.3690
  931MOL0     C22786  -1.065   9.149   7.006 -0.1113 -0.2553  0.6061
  931MOL0     C22787  -1.028   9.028   6.951  0.3703  0.6902 -0.2440
  931MOL0     C22788  -0.894   8.989   6.933  0.7512  0.1982  0.3280
  931MOL0     C22789  -0.853   8.850   6.913  0.7470  0.8563 -0.7529
  931MOL0     O22790  -0.715   8.825   6.890  0.1535 -0.0660  0.0179
  931MOL0     C22791  -0.663   8.699   6.906 -0.4348  0.8273  0.1982
  931MOL0     C22792  -0.715   8.594   6.993 -0.1762  0.9625 -0.7974
  931MOL0     C22793  -0.644   8.474   6.996  0.0917  0.1467  0.5867
  931MOL0     C22794  -0.520   8.459   6.915 -0.0953 -0.3480  0.0053
  931MOL0     O22795  -0.437   8.351   6.918 -0.4278  0.4107  0.2448
  931MOL0     C22796  -0.510   8.229   6.948  0.7785  0.5468 -0.7785
  931MOL0     C22797  -0.430   8.102   6.926  0.0019  0.1011  0.6054
  931MOL0     C22798  -0.527   7.979   6.897 -0.4415 -1.0057 -0.5123
  931MOL0     C22799  -0.454   7.857   6.948  0.2584  0.0530  0.5014
  931MOL0     C22800  -0.538   7.732   6.910 -0.2545  0.1077  0.7125
  931MOL0     C22801  -0.472   7.610   6.972  0.5241  0.7128  0.1587
  931MOL0     C22802  -0.592   7.505   6.999 -0.2899  0.4964  0.1421
  931MOL0     C22803  -0.529   7.366   7.019  0.2689 -0.3508  0.1200
  931MOL0    Cl22804  -0.442   7.361   7.178  0.0559 -0.0796  0.2777
  931MOL0     C22805  -0.474   8.566   6.833  0.0185  0.6060  0.7508
  931MOL0     C22806  -0.544   8.681   6.830 -0.0061  0.2241 -0.4549
  931MOL0     O22807  -0.938   8.762   6.926 -0.1352 -0.3227  0.2626
  931MOL0     C22808  -0.803   9.083   6.960 -1.4228 -0.0582  0.4964
  931MOL0     C22809  -0.837   9.200   7.006  0.3402 -0.9177 -0.4567
  931MOL0     N22810  -1.118   9.817   7.336  0.4476  0.4723 -0.0212
  931MOL0     N22811  -1.012   9.838   7.412 -0.7189  0.1083  0.6873
  931MOL0     C22812   0.121   9.971   7.425  0.0946  0.1017  0.6464
  931MOL0     C22813   0.204   9.887   7.360 -0.4298  0.5973 -0.4390
  931MOL0     C22814   0.397   9.620   7.014 -0.2227 -0.0889  0.2187
  931MOL0     C22815   0.506   9.700   7.024  0.1687  0.4543  1.4225
  931MOL0     C22816   0.620   9.665   6.951 -0.0499  0.0234  0.2885
  931MOL0     C22817   0.638   9.536   6.889 -0.0436  0.0488  1.1413
  931MOL0     O22818   0.768   9.503   6.849 -0.0462  0.5139  0.0091
  931MOL0     C22819   0.813   9.382   6.915  0.3414  0.0041 -0.1632
  931MOL0     C22820   0.960   9.379   6.944  0.1983  0.3389 -0.5157
  931MOL0     C22821   1.047   9.457   6.848 -0.3249  1.0168  0.3234
  931MOL0     C22822   1.191   9.397   6.836  0.7332 -1.2181  0.1024
  931MOL0     C22823   1.177   9.283   6.741  0.2788  0.4723  0.5091
  931MOL0     C22824   1.143   9.181   6.688 -1.4215  0.8182 -0.3051
  931MOL0     C22825   0.521   9.452   6.887 -0.4685  0.5087  0.3437
  931MOL0     C22826   0.410   9.495   6.950 -0.1462  0.7729 -1.2743
  931MOL0     H22827  -0.005   9.800   7.089 -2.1406 -2.1186  1.1400
  931MOL0     H22828  -0.161   9.935   7.246 -1.7382 -2.3205 -1.3837
  931MOL0     H22829  -0.000  10.079   7.636  0.8884  0.5078 -1.8020
  931MOL0     H22830  -0.057   9.907   7.628 -1.7852  0.7659  3.8376
  931MOL0     H22831  -0.215  10.158   7.697 -3.7445 -0.0922  0.7509
  931MOL0     H22832  -0.175  10.014   7.790  0.1505 -3.9175 -0.8334
  931MOL0     H22833  -0.332   9.884   7.642 -0.9777 -0.3221  0.4052
  931MOL0     H22834  -0.363  10.042   7.555  1.1515  0.8037  1.0333
  931MOL0     H22835  -0.425   9.985   7.840 -3.2111  1.0743  1.4734
  931MOL0     H22836  -0.488  10.122   7.749 -2.5630 -0.2246  1.6010
  931MOL0     H22837  -0.675   9.968   7.748  2.7552 -2.1594  5.5042
  931MOL0     H22838  -0.574   9.836   7.725 -1.0571 -0.5305 -0.7726
  931MOL0     H22839  -0.511   9.896   7.499  2.1709  3.1759  0.4540
  931MOL0     H22840  -0.605  10.047   7.523 -2.2492 -0.3382 -3.2418
  931MOL0     H22841  -0.722   9.770   7.550  1.5146 -1.1690 -3.9493
  931MOL0     H22842  -0.811   9.918   7.566 -2.6161 -0.9529 -2.6411
  931MOL0     H22843  -0.719   9.832   7.292 -1.8462  0.6039 -3.2681
  931MOL0     H22844  -0.751   9.997   7.341  2.3514 -0.9376 -0.0275
  931MOL0     H22845  -0.904   9.899   7.103  0.6122 -0.9185  0.8971
  931MOL0     H22846  -1.119   9.841   6.990  0.5933  3.1216  1.3522
  931MOL0     H22847  -1.270   9.875   7.073 -0.6435 -0.7376  1.1529
  931MOL0     H22848  -1.265   9.649   6.973 -0.1757  2.1006 -0.3504
  931MOL0     H22849  -1.289   9.648   7.149 -0.1560 -1.8780 -0.0835
  931MOL0     H22850  -1.024   9.593   7.002  0.4416  0.2132 -0.2138
  931MOL0     H22851  -1.037   9.590   7.178  1.7747  3.1760 -0.9014
  931MOL0     H22852  -1.175   9.394   6.975  1.0933 -3.3473  0.5292
  931MOL0     H22853  -1.192   9.389   7.148  0.5971  0.1769  0.3016
  931MOL0     H22854  -1.172   9.165   7.017 -0.2015 -0.1713 -0.3026
  931MOL0     H22855  -1.108   8.963   6.916 -0.0889  1.9046 -1.5777
  931MOL0     H22856  -0.806   8.598   7.053  0.6927 -0.9841  0.7520
  931MOL0     H22857  -0.679   8.387   7.051 -0.7750  0.0885 -0.0444
  931MOL0     H22858  -0.603   8.226   6.891  0.4100 -0.4039 -0.1466
  931MOL0     H22859  -0.541   8.222   7.053  4.1586  0.5201  0.3506
  931MOL0     H22860  -0.377   8.079   7.018  2.1650 -2.4814 -1.1336
  931MOL0     H22861  -0.349   8.115   6.853 -0.2540  2.5126  0.6713
  931MOL0     H22862  -0.547   7.970   6.790 -2.1261  1.5950 -0.5253
  931MOL0     H22863  -0.628   7.980   6.940 -0.4403  3.2601 -0.1414
  931MOL0     H22864  -0.361   7.840   6.893  0.7623 -0.5456  1.4953
  931MOL0     H22865  -0.421   7.858   7.053 -0.9336 -1.6313  0.9302
  931MOL0     H22866  -0.535   7.713   6.803  0.2960 -1.5107  0.9857
  931MOL0     H22867  -0.643   7.754   6.934  0.2412  2.3246  1.1376
  931MOL0     H22868  -0.438   7.622   7.075 -1.0289  1.2598  0.6361
  931MOL0     H22869  -0.396   7.560   6.911  0.4446 -0.9875  1.3631
  931MOL0     H22870  -0.645   7.542   7.088 -1.4130  1.8418 -1.0380
  931MOL0     H22871  -0.650   7.515   6.907 -0.8313  1.1757  0.5454
  931MOL0     H22872  -0.467   7.354   6.930 -0.6739  2.3009 -1.0106
  931MOL0     H22873  -0.604   7.287   7.023  0.0891 -0.4964 -3.4611
  931MOL0     H22874  -0.380   8.559   6.780 -0.7846 -2.2730 -0.4862
  931MOL0     H22875  -0.507   8.764   6.770  1.3780 -0.7343 -0.9691
  931MOL0     H22876  -0.704   9.051   6.987 -1.6343 -1.3990 -0.2643
  931MOL0     H22877  -0.767   9.278   7.035 -0.7051 -0.2020  0.2273
  931MOL0     H22878   0.152  10.011   7.521 -0.0534  1.3710  0.1806
  931MOL0     H22879   0.312   9.887   7.375 -0.3926  0.2031 -0.6915
  931MOL0     H22880   0.496   9.785   7.091  0.4070  0.0586  1.9670
  931MOL0     H22881   0.711   9.721   6.972 -1.4587  2.5059  0.1707
  931MOL0     H22882   0.790   9.299   6.847  0.8937  1.0515 -1.6942
  931MOL0     H22883   0.765   9.367   7.012  0.5159  1.1647  0.1189
  931MOL0     H22884   0.985   9.418   7.043 -0.0802 -1.2706  0.2115
  931MOL0     H22885   0.993   9.275   6.951  2.3803  1.0396  0.7672
  931MOL0     H22886   1.051   9.562   6.881  1.5677  2.1430 -2.9325
  931MOL0     H22887   1.004   9.459   6.747  1.2126  4.1092 -0.4088
  931MOL0     H22888   1.261   9.467   6.789  0.5706 -0.1440  1.4088
  931MOL0     H22889   1.237   9.355   6.925 -0.6923  0.5447  1.7804
  931MOL0     H22890   1.136   9.088   6.634  0.3546  0.2342  0.4058
  931MOL0     H22891   0.535   9.358   6.834  1.2104  0.7851  0.2425
  931MOL0     H22892   0.328   9.425   6.969 -2.0282  2.9101 -1.1325
  932MOL0     O22893   6.872   6.162   1.546  0.9200  0.6829 -0.6425
  932MOL0     C22894   6.765   6.130   1.607 -0.2134 -0.8832  0.6238
  932MOL0     O22895   6.685   6.034   1.575 -0.1469 -0.4402  0.2224
  932MOL0     C22896   6.697   5.990   1.441 -0.8615  0.4223 -1.2379
  932MOL0     C22897   6.719   5.853   1.425  0.0760  0.1950 -0.1176
  932MOL0     C22898   6.705   5.793   1.298  0.4485  0.7539 -0.2434
  932MOL0     C22899   6.702   5.877   1.183 -0.1155  0.5906  0.9856
  932MOL0     O22900   6.715   5.802   1.067  1.3634  0.8632  0.1565
  932MOL0     C22901   6.650   5.866   0.951  0.4812  1.1368  0.3220
  932MOL0     C22902   6.627   5.752   0.836 -0.6173 -0.0630 -0.1508
  932MOL0     C22903   6.500   5.677   0.819 -0.1765 -0.1828 -1.1719
  932MOL0     C22904   6.489   5.573   0.717 -0.3012  0.0446 -0.3052
  932MOL0     C22905   6.385   5.470   0.744  0.3727  0.4918 -1.2166
  932MOL0     C22906   6.235   5.526   0.743  0.0287  0.2689  0.8422
  932MOL0     C22907   6.126   5.420   0.732 -0.1172  0.1251 -1.1758
  932MOL0     C22908   6.134   5.358   0.586  0.1490 -0.2670  1.1957
  932MOL0     N22909   6.020   5.274   0.557 -0.2637 -0.8855  0.7003
  932MOL0     C22910   5.958   5.197   0.643  0.1370  0.4312 -0.2916
  932MOL0     C22911   5.870   5.124   0.571 -0.1992  0.1574  0.2683
  932MOL0     C22912   5.764   5.032   0.631  0.3558  0.5638  0.0052
  932MOL0     C22913   5.657   5.002   0.523 -0.1690  0.1484  0.0109
  932MOL0     C22914   5.566   4.883   0.565  0.4921 -0.0093  0.1421
  932MOL0     C22915   5.456   4.862   0.459 -0.9497  0.0132 -0.4955
  932MOL0     O22916   5.325   4.875   0.513  0.1091  0.1353 -0.3695
  932MOL0     C22917   5.278   4.782   0.597  0.1393  1.3150  0.2755
  932MOL0     C22918   5.340   4.656   0.623 -0.0950 -0.2830  0.0995
  932MOL0     C22919   5.279   4.553   0.699  0.5640 -0.5870  0.4861
  932MOL0     C22920   5.158   4.572   0.758 -0.4652 -0.5567 -0.7713
  932MOL0     C22921   5.096   4.466   0.839 -0.1512 -0.5619 -0.2976
  932MOL0     O22922   5.192   4.390   0.902 -0.1825  0.6764 -0.0631
  932MOL0     C22923   5.153   4.287   0.975  1.0432 -0.8270 -0.5097
  932MOL0     C22924   5.217   4.164   0.960 -0.3152 -0.7081 -1.2955
  932MOL0     C22925   5.170   4.065   1.048 -0.3939  0.3726  0.1019
  932MOL0     C22926   5.078   4.092   1.148  0.1060  0.4672 -0.4958
  932MOL0     O22927   5.054   4.007   1.255  0.6840 -0.4144  0.0690
  932MOL0     C22928   4.918   3.969   1.289 -0.0777 -0.7748  0.1404
  932MOL0     C22929   4.877   3.842   1.216 -0.2770  0.4878 -0.0378
  932MOL0     C22930   4.741   3.794   1.257  0.3058  0.0095  0.8671
  932MOL0     C22931   4.693   3.655   1.194  0.2193 -0.4658  0.4737
  932MOL0     C22932   4.570   3.610   1.261 -0.2215  0.0127 -0.1608
  932MOL0     C22933   4.536   3.466   1.226  0.1554 -0.4103 -0.5241
  932MOL0     C22934   4.450   3.387   1.332  0.1860  0.1177 -0.5065
  932MOL0     C22935   4.422   3.240   1.307  0.0576  0.1846 -0.1396
  932MOL0    Cl22936   4.318   3.200   1.161  0.1751  0.1140 -0.1000
  932MOL0     C22937   5.031   4.218   1.173  0.4401 -0.8128  0.1537
  932MOL0     C22938   5.061   4.313   1.081  0.0459  0.1324  0.4774
  932MOL0     O22939   4.974   4.471   0.859  0.4838  0.5619 -0.3698
  932MOL0     C22940   5.086   4.694   0.734 -0.1867 -0.3914 -0.4437
  932MOL0     C22941   5.148   4.795   0.651  0.1830 -0.0180  0.5852
  932MOL0     N22942   5.880   5.171   0.437 -0.9939  0.7288  0.4345
  932MOL0     N22943   5.976   5.257   0.426 -0.6351  0.2296 -0.1978
  932MOL0     C22944   6.708   6.016   1.204 -0.7078 -0.8764 -0.1015
  932MOL0     C22945   6.700   6.076   1.331  0.1425  0.8113 -0.0573
  932MOL0     C22946   6.775   6.183   1.746 -0.6646  0.0083  0.3756
  932MOL0     C22947   6.772   6.084   1.854 -0.7924  0.2844  0.4855
  932MOL0     C22948   6.809   6.127   1.987 -0.7883 -0.6179 -0.1417
  932MOL0     C22949   6.837   6.263   2.017  0.8330  0.7927  0.1754
  932MOL0     O22950   6.853   6.304   2.142 -0.4261 -0.5596  0.6859
  932MOL0     C22951   6.967   6.402   2.151  0.1856 -0.3153 -0.0288
  932MOL0     C22952   6.930   6.536   2.219  0.7051 -0.8322 -0.9639
  932MOL0     C22953   7.048   6.608   2.285  0.8694 -0.1412 -0.0870
  932MOL0     C22954   7.131   6.685   2.192 -0.6104  0.6597  0.6818
  932MOL0     C22955   7.272   6.675   2.222  0.9593 -0.2094  0.8695
  932MOL0     C22956   7.385   6.658   2.235 -0.2199 -0.5888 -0.9498
  932MOL0     C22957   6.831   6.357   1.908 -0.4234  0.1125  0.1427
  932MOL0     C22958   6.803   6.321   1.772  0.7211  1.3152 -0.4702
  932MOL0     H22959   6.714   5.786   1.510 -0.5281 -1.2959 -1.2911
  932MOL0     H22960   6.712   5.684   1.295 -0.9097  0.6376 -0.0169
  932MOL0     H22961   6.706   5.947   0.903  0.2734  0.8984 -0.3353
  932MOL0     H22962   6.557   5.896   0.999 -0.5466 -1.3610  0.0447
  932MOL0     H22963   6.711   5.688   0.862 -0.2577  0.7403  0.7267
  932MOL0     H22964   6.652   5.802   0.741 -0.5769 -1.2683 -0.7916
  932MOL0     H22965   6.417   5.748   0.816 -2.5164 -2.5710  1.1724
  932MOL0     H22966   6.482   5.629   0.916 -0.4915  2.7093  0.3322
  932MOL0     H22967   6.474   5.636   0.629  3.2877  1.4921 -0.0578
  932MOL0     H22968   6.582   5.516   0.723 -0.8534 -1.0293 -1.4437
  932MOL0     H22969   6.401   5.442   0.849 -0.7117  1.5027 -0.7479
  932MOL0     H22970   6.399   5.382   0.681  0.9946 -2.3154  2.4566
  932MOL0     H22971   6.215   5.605   0.671 -4.4685  1.2746  2.9034
  932MOL0     H22972   6.217   5.572   0.840 -1.6915 -1.5203  1.4494
  932MOL0     H22973   6.150   5.339   0.801  4.2910  1.6068 -0.6655
  932MOL0     H22974   6.032   5.474   0.753  0.5315  1.2459 -1.0467
  932MOL0     H22975   6.216   5.286   0.577 -2.2189 -3.4556  3.0860
  932MOL0     H22976   6.151   5.441   0.517 -3.1749 -0.6772 -0.2970
  932MOL0     H22977   5.979   5.191   0.749 -2.4289  0.4662  0.2891
  932MOL0     H22978   5.712   5.077   0.717  1.4898 -2.0126  2.1999
  932MOL0     H22979   5.812   4.941   0.668  0.1329  0.6571  0.5322
  932MOL0     H22980   5.711   4.980   0.431 -0.0649  1.9755 -0.4014
  932MOL0     H22981   5.603   5.094   0.503  1.0894  0.9764  0.3153
  932MOL0     H22982   5.638   4.802   0.576 -0.9862 -1.3258  0.4823
  932MOL0     H22983   5.518   4.896   0.662 -2.0666  1.0231 -1.1552
  932MOL0     H22984   5.470   4.766   0.408 -2.4644 -0.9639  0.8664
  932MOL0     H22985   5.465   4.943   0.385  4.3477 -1.2082 -1.6289
  932MOL0     H22986   5.436   4.634   0.577 -1.8894 -1.2311 -3.6036
  932MOL0     H22987   5.326   4.456   0.712 -1.4862 -1.3801  2.8392
  932MOL0     H22988   5.294   4.160   0.884  1.4838  1.0254  0.3358
  932MOL0     H22989   5.216   3.968   1.066  0.3379  0.8182  0.7078
  932MOL0     H22990   4.842   4.046   1.277 -0.2962 -0.3508  3.3306
  932MOL0     H22991   4.908   3.942   1.395  1.9239  0.6382  0.7451
  932MOL0     H22992   4.944   3.757   1.230 -0.8756 -0.4440 -2.3201
  932MOL0     H22993   4.867   3.866   1.109 -1.6634  0.6606  0.1099
  932MOL0     H22994   4.669   3.873   1.231  4.0176  2.1309 -4.9218
  932MOL0     H22995   4.749   3.791   1.366  0.6061 -1.7225  0.8314
  932MOL0     H22996   4.676   3.655   1.086 -1.3462  0.6378  0.6992
  932MOL0     H22997   4.770   3.584   1.226 -0.2323 -1.2051 -0.0679
  932MOL0     H22998   4.483   3.672   1.240 -1.5648 -2.4916 -2.4721
  932MOL0     H22999   4.576   3.613   1.370  0.2107 -1.8817 -0.0913
  932MOL0     H23000   4.631   3.411   1.223  0.9366  0.7259  1.4847
  932MOL0     H23001   4.484   3.471   1.130 -1.7905  2.1434  0.5489
  932MOL0     H23002   4.495   3.400   1.431  0.4606  0.4964 -0.6794
  932MOL0     H23003   4.357   3.443   1.346  0.5403  0.4405  0.7245
  932MOL0     H23004   4.376   3.207   1.400  0.6331  1.5632  0.6567
  932MOL0     H23005   4.514   3.182   1.295  0.2047  0.9420 -4.0225
  932MOL0     H23006   4.972   4.250   1.258  2.0140  2.2628  0.2300
  932MOL0     H23007   5.017   4.406   1.115  1.8787  0.1800  2.9758
  932MOL0     H23008   4.985   4.698   0.773 -0.1099 -3.4072  0.2988
  932MOL0     H23009   5.092   4.883   0.620 -0.0784 -0.1517  0.6779
  932MOL0     H23010   6.718   6.075   1.114  0.9935  0.2905  0.7790
  932MOL0     H23011   6.688   6.183   1.349 -2.3492  0.4096  1.1907
  932MOL0     H23012   6.758   5.981   1.825 -0.4957  0.3458  0.1206
  932MOL0     H23013   6.792   6.052   2.063 -1.0524  0.8022  1.2520
  932MOL0     H23014   7.015   6.418   2.054 -1.6665 -1.3182 -1.1674
  932MOL0     H23015   7.032   6.358   2.227  0.1188  1.2160  0.9552
  932MOL0     H23016   6.876   6.589   2.139 -1.5475 -2.4478 -0.6009
  932MOL0     H23017   6.861   6.521   2.302  0.5638  2.4228 -0.3647
  932MOL0     H23018   7.110   6.529   2.328  1.1314  0.2085  0.1861
  932MOL0     H23019   7.004   6.667   2.366  0.3065 -1.0198  0.2505
  932MOL0     H23020   7.124   6.649   2.089  1.6395 -2.2689  1.4370
  932MOL0     H23021   7.121   6.794   2.194  1.5335  0.8761  2.5481
  932MOL0     H23022   7.489   6.646   2.257 -0.1363 -1.4771 -1.7506
  932MOL0     H23023   6.852   6.461   1.928  0.8132 -0.7964  4.6076
  932MOL0     H23024   6.833   6.391   1.694  3.8679  0.4895 -0.1542
  933MOL0     O23025  10.271   9.708   3.310  0.3998 -0.1776  0.5159
  933MOL0     C23026  10.260   9.762   3.416  0.2334 -0.4513 -0.0914
  933MOL0     O23027  10.328   9.737   3.528  0.8815 -0.7089  0.4259
  933MOL0     C23028  10.419   9.635   3.521  0.0368 -0.0784 -0.9205
  933MOL0     C23029  10.383   9.502   3.531  1.0693  0.4664  0.1628
  933MOL0     C23030  10.475   9.398   3.551  0.1403  0.0537  0.9728
  933MOL0     C23031  10.609   9.438   3.578  0.2497 -0.2549 -0.3418
  933MOL0     O23032  10.715   9.355   3.599 -0.3182  0.0545 -0.2664
  933MOL0     C23033  10.694   9.220   3.584  1.4525 -0.0855  0.0473
  933MOL0     C23034  10.816   9.140   3.612  0.1109 -0.2988 -0.7388
  933MOL0     C23035  10.828   9.115   3.760 -0.0044  0.2670  0.6780
  933MOL0     C23036  10.830   9.245   3.843  0.7977 -0.7797 -0.7413
  933MOL0     C23037  10.858   9.213   3.992 -0.0826  0.7098  0.9612
  933MOL0     C23038  11.004   9.227   4.050 -0.3389  0.2690 -0.7637
  933MOL0     C23039  11.099   9.127   3.972  0.5856 -0.6150  0.3918
  933MOL0     C23040  11.241   9.105   4.041  1.2816  0.0071  0.0791
  933MOL0     N23041  11.231   9.145   4.184 -0.0461  0.6777  0.1013
  933MOL0     C23042  11.282   9.265   4.222  0.3689  0.5590  1.8991
  933MOL0     C23043  11.248   9.283   4.349 -0.9727  0.4418 -0.5646
  933MOL0     C23044  11.289   9.413   4.420 -0.2383 -1.3050  0.1922
  933MOL0     C23045  11.179   9.518   4.413  0.5464 -1.0707  0.6089
  933MOL0     C23046  11.203   9.617   4.530  0.3181 -0.3165  0.3003
  933MOL0     C23047  11.115   9.741   4.514 -0.3150  0.3150 -1.1740
  933MOL0     O23048  11.137   9.797   4.390 -0.1503  0.0909 -0.2590
  933MOL0     C23049  11.133   9.928   4.390 -0.0133  0.0923  0.1592
  933MOL0     C23050  11.241  10.023   4.393  0.0514 -1.0119  0.1489
  933MOL0     C23051  11.212  10.164   4.401  0.8776 -0.5694  0.5508
  933MOL0     C23052  11.079  10.207   4.417 -0.0255  0.2285  0.1423
  933MOL0     C23053  11.053  10.345   4.411 -0.2261  0.0916 -0.3349
  933MOL0     O23054  11.132  10.415   4.331  0.1159 -0.0879 -0.1741
  933MOL0     C23055  11.121  10.555   4.321 -0.3747 -0.6756 -0.4333
  933MOL0     C23056  11.245  10.621   4.301  1.4758  0.3877 -0.1715
  933MOL0     C23057  11.237  10.759   4.288  0.1704 -0.4167  0.5084
  933MOL0     C23058  11.115  10.825   4.271  0.2229 -0.5306 -0.0833
  933MOL0     O23059  11.129  10.961   4.245 -0.5897 -1.2868  0.7128
  933MOL0     C23060  11.013  11.045   4.232  0.1097 -0.8500  0.8177
  933MOL0     C23061  11.045  11.160   4.137 -0.7947  0.9428 -0.3264
  933MOL0     C23062  10.932  11.263   4.106  0.6165 -0.6574 -0.4681
  933MOL0     C23063  10.891  11.349   4.236  0.1151  0.7348  0.7455
  933MOL0     C23064  10.796  11.459   4.205 -0.2771 -0.7005  0.1048
  933MOL0     C23065  10.775  11.574   4.312 -0.2640 -0.4976  0.2487
  933MOL0     C23066  10.717  11.706   4.258  0.1644  0.1930 -0.5061
  933MOL0     C23067  10.573  11.687   4.217  0.2378  0.5018 -0.0500
  933MOL0    Cl23068  10.469  11.822   4.198 -0.4375 -0.4783 -0.3936
  933MOL0     C23069  10.995  10.765   4.285 -0.2819  0.3759 -0.3131
  933MOL0     C23070  10.998  10.627   4.318  0.2661 -0.1194 -0.9152
  933MOL0     O23071  10.952  10.380   4.473  0.6571  0.2261 -0.3429
  933MOL0     C23072  10.972  10.118   4.406  0.1186  0.3827 -0.6701
  933MOL0     C23073  11.002   9.982   4.401  0.5016 -0.1403 -0.1770
  933MOL0     N23074  11.178   9.165   4.385 -0.4179  0.4382  0.2392
  933MOL0     N23075  11.156   9.090   4.278 -1.0418  0.8642 -0.1449
  933MOL0     C23076  10.648   9.572   3.578  0.7109  0.8562 -0.0859
  933MOL0     C23077  10.551   9.667   3.553  0.7069 -0.3924  0.5063
  933MOL0     C23078  10.177   9.889   3.420 -0.7183 -0.1466  1.1009
  933MOL0     C23079  10.205   9.991   3.508 -0.7194 -0.8486  0.2511
  933MOL0     C23080  10.122  10.109   3.519  0.2326 -0.5440  1.5760
  933MOL0     C23081  10.004  10.118   3.442  0.0647  0.3044  0.0675
  933MOL0     O23082   9.933  10.234   3.453 -1.0386 -0.1262  0.6762
  933MOL0     C23083   9.950  10.327   3.340  0.2426 -0.3267  0.1857
  933MOL0     C23084   9.838  10.313   3.226  0.1987  0.2655  0.2197
  933MOL0     C23085   9.704  10.311   3.291 -0.5283  0.1445  0.7291
  933MOL0     C23086   9.590  10.292   3.195  0.3209  1.0833  1.0023
  933MOL0     C23087   9.594  10.142   3.151  0.0009 -0.0549  0.0083
  933MOL0     C23088   9.593  10.023   3.117  0.7041  0.6347 -0.8141
  933MOL0     C23089   9.970  10.010   3.355 -0.4677 -0.1802  0.8375
  933MOL0     C23090  10.056   9.898   3.348 -0.9233 -0.2982 -0.4282
  933MOL0     H23091  10.281   9.471   3.513  1.1532 -0.4647  1.1785
  933MOL0     H23092  10.447   9.294   3.534 -0.1325  0.4300 -1.0287
  933MOL0     H23093  10.641   9.211   3.488 -0.4055  3.7498  0.4959
  933MOL0     H23094  10.616   9.187   3.653  0.4024  1.6688 -0.2258
  933MOL0     H23095  10.899   9.196   3.568 -0.1088  0.2027 -0.5280
  933MOL0     H23096  10.816   9.043   3.563  1.8449 -0.9836  0.4756
  933MOL0     H23097  10.925   9.068   3.775 -0.2273  0.7423  4.6990
  933MOL0     H23098  10.746   9.051   3.795 -3.3546  3.1276 -1.3035
  933MOL0     H23099  10.903   9.318   3.806  1.1052 -0.7422 -0.0617
  933MOL0     H23100  10.730   9.290   3.838  1.1869  0.0261 -1.7733
  933MOL0     H23101  10.820   9.113   4.013  0.1483  0.2301 -0.7500
  933MOL0     H23102  10.803   9.287   4.051 -2.7515 -1.1260  0.9287
  933MOL0     H23103  10.987   9.201   4.155 -0.2503  2.0298 -0.2706
  933MOL0     H23104  11.050   9.327   4.051  0.5732 -0.0711  2.1145
  933MOL0     H23105  11.061   9.024   3.974  1.0095 -0.7761  0.0888
  933MOL0     H23106  11.108   9.164   3.870 -0.4681  0.3991  0.6347
  933MOL0     H23107  11.324   9.159   3.995  2.4522  1.6904  3.8043
  933MOL0     H23108  11.271   9.000   4.028  0.7980  0.0702 -1.8075
  933MOL0     H23109  11.323   9.340   4.155 -1.7391  1.3486  1.4367
  933MOL0     H23110  11.383   9.449   4.379 -0.7614 -1.0769 -0.8413
  933MOL0     H23111  11.304   9.387   4.525 -1.0641  1.3139  1.0435
  933MOL0     H23112  11.078   9.476   4.421 -0.4214  1.4439  4.5184
  933MOL0     H23113  11.193   9.564   4.315  0.0825 -2.1556  0.0168
  933MOL0     H23114  11.163   9.573   4.622 -0.5502  0.2918  0.2246
  933MOL0     H23115  11.309   9.644   4.525  1.1149 -3.4124 -2.1972
  933MOL0     H23116  11.133   9.809   4.598  2.7703 -0.6414 -0.9163
  933MOL0     H23117  11.011   9.710   4.521  0.3674 -2.0581 -0.5206
  933MOL0     H23118  11.346   9.995   4.386  0.0773 -0.7491 -0.5457
  933MOL0     H23119  11.291  10.238   4.399 -1.3455  1.9131 -0.1191
  933MOL0     H23120  11.338  10.565   4.296  0.3836 -1.6778  1.4628
  933MOL0     H23121  11.332  10.808   4.264  1.5257 -4.1340 -2.7820
  933MOL0     H23122  10.994  11.105   4.321 -1.5113  3.5028 -2.0961
  933MOL0     H23123  10.923  11.000   4.188 -1.4925  1.2193  1.7821
  933MOL0     H23124  11.075  11.120   4.039  2.0846  1.7549  0.1339
  933MOL0     H23125  11.137  11.195   4.185 -3.8417  4.8118  3.3661
  933MOL0     H23126  10.833  11.228   4.073  0.2070  0.1138 -0.0779
  933MOL0     H23127  10.966  11.327   4.025  0.1327  1.0785  0.6495
  933MOL0     H23128  10.844  11.284   4.310  1.0706 -0.7786  0.0720
  933MOL0     H23129  10.986  11.384   4.277  0.0908 -0.9066  2.3261
  933MOL0     H23130  10.700  11.413   4.182  1.1818 -3.0299 -1.8357
  933MOL0     H23131  10.835  11.505   4.114 -1.5239  0.6340  0.2196
  933MOL0     H23132  10.872  11.596   4.357 -0.2571 -3.8751  2.2256
  933MOL0     H23133  10.716  11.533   4.395  1.6893 -1.5600  1.1991
  933MOL0     H23134  10.727  11.775   4.342 -4.0343 -2.9663  3.1148
  933MOL0     H23135  10.773  11.758   4.180  2.0344  0.9320  1.2493
  933MOL0     H23136  10.524  11.621   4.289 -1.5607  0.4851 -1.2200
  933MOL0     H23137  10.561  11.630   4.125 -0.1677 -1.8164  1.3568
  933MOL0     H23138  10.903  10.821   4.292  1.2851  2.9473  1.0683
  933MOL0     H23139  10.907  10.573   4.341 -1.0681  2.8851  1.6788
  933MOL0     H23140  10.873  10.159   4.395 -0.7567 -0.9922  1.4215
  933MOL0     H23141  10.916   9.919   4.379 -0.3242  1.2076 -0.9624
  933MOL0     H23142  10.748   9.606   3.601  2.2320 -2.2027 -1.5841
  933MOL0     H23143  10.562   9.775   3.563 -0.6698  0.0260 -1.7271
  933MOL0     H23144  10.290   9.985   3.576 -0.1385 -1.1159 -0.4962
  933MOL0     H23145  10.157  10.187   3.587 -0.1596 -0.2316  1.4229
  933MOL0     H23146  10.050  10.327   3.295 -1.0571 -2.0792 -3.1121
  933MOL0     H23147   9.933  10.425   3.384 -0.3458  1.2607 -3.2219
  933MOL0     H23148   9.859  10.395   3.157  0.8979 -1.2315 -1.3992
  933MOL0     H23149   9.859  10.218   3.177  1.0906 -1.0849  3.0009
  933MOL0     H23150   9.682  10.408   3.337 -3.1357 -1.4754  3.2515
  933MOL0     H23151   9.703  10.239   3.373  3.0446 -0.4574  0.3956
  933MOL0     H23152   9.491  10.308   3.238 -0.0259 -1.2360  1.2030
  933MOL0     H23153   9.605  10.355   3.106  0.1599 -1.1988 -0.7335
  933MOL0     H23154   9.580   9.921   3.086 -1.4845  0.4535  0.5020
  933MOL0     H23155   9.875   9.989   3.306 -0.4928 -1.2615  1.3322
  933MOL0     H23156  10.024   9.814   3.287 -0.8454 -0.1870 -0.6211
  934MOL0     O23157   3.615   1.574   7.819 -0.3667  1.0484  0.2538
  934MOL0     C23158   3.659   1.489   7.894 -1.1427  0.2443 -0.1949
  934MOL0     O23159   3.681   1.511   8.022 -0.1870  0.8970  0.7514
  934MOL0     C23160   3.648   1.620   8.097  0.1276  0.4561 -0.0382
  934MOL0     C23161   3.513   1.668   8.078 -1.1462  0.4293 -0.0218
  934MOL0     C23162   3.477   1.785   8.143  0.7065 -0.6320  0.1074
  934MOL0     C23163   3.550   1.849   8.241 -0.1582 -0.2568  0.5535
  934MOL0     O23164   3.484   1.955   8.299 -0.4867  0.0896 -0.1078
  934MOL0     C23165   3.567   2.032   8.393 -0.3387 -0.4945  0.3861
  934MOL0     C23166   3.488   2.158   8.425 -1.0318  0.1042  0.0253
  934MOL0     C23167   3.580   2.276   8.448  0.0355 -0.1411 -0.0535
  934MOL0     C23168   3.485   2.399   8.473  0.0921 -0.3005 -0.1795
  934MOL0     C23169   3.566   2.521   8.514 -0.1721  0.1601  0.4290
  934MOL0     C23170   3.469   2.625   8.559 -0.0851 -0.7218  0.5812
  934MOL0     C23171   3.527   2.755   8.612  0.0304 -0.2430 -0.8051
  934MOL0     C23172   3.429   2.849   8.681  0.9328  0.7280 -0.0195
  934MOL0     N23173   3.370   2.795   8.813 -0.3370 -0.4349  0.5471
  934MOL0     C23174   3.237   2.759   8.834  0.3754  0.7501 -0.3728
  934MOL0     C23175   3.241   2.695   8.953 -0.8618  0.7060 -0.3292
  934MOL0     C23176   3.121   2.633   9.026  0.4443  0.5539 -0.4084
  934MOL0     C23177   3.123   2.479   9.027 -0.2557 -0.1329 -0.0883
  934MOL0     C23178   3.086   2.416   8.892 -0.6726 -0.6620  0.6650
  934MOL0     C23179   3.109   2.267   8.912  0.2531 -0.3159  0.4581
  934MOL0     O23180   3.251   2.252   8.875  0.1469 -0.6015 -0.2999
  934MOL0     C23181   3.311   2.137   8.858  0.3285  0.3479 -0.0475
  934MOL0     C23182   3.426   2.140   8.786 -0.1562 -0.6015  0.3842
  934MOL0     C23183   3.504   2.024   8.757  0.4684 -1.0499 -0.1871
  934MOL0     C23184   3.451   1.904   8.795 -0.5028 -0.2262  0.1700
  934MOL0     C23185   3.519   1.784   8.760  0.4152  0.8287  0.3590
  934MOL0     O23186   3.463   1.660   8.781  0.8929  0.1559  0.5236
  934MOL0     C23187   3.515   1.538   8.754 -0.5491  0.5787 -0.8777
  934MOL0     C23188   3.623   1.502   8.670  0.9771  1.3438  0.4358
  934MOL0     C23189   3.653   1.366   8.644  0.1066  0.0693 -0.6770
  934MOL0     C23190   3.576   1.272   8.700 -0.0354 -0.4467 -0.9186
  934MOL0     O23191   3.615   1.141   8.668  0.2100 -0.7913  0.9883
  934MOL0     C23192   3.517   1.029   8.681 -0.6603 -0.5580  0.2358
  934MOL0     C23193   3.389   1.059   8.593  0.1729 -0.9757  0.0302
  934MOL0     C23194   3.281   0.955   8.625  0.1074 -0.0908  0.1763
  934MOL0     C23195   3.161   0.982   8.539 -0.0763 -0.5046  0.1026
  934MOL0     C23196   3.040   0.885   8.564 -0.1774  0.0672 -0.0673
  934MOL0     C23197   2.912   0.934   8.500  0.0748 -0.2095 -0.2066
  934MOL0     C23198   2.790   0.861   8.516  1.7630  0.0789 -0.1785
  934MOL0     C23199   2.792   0.713   8.475 -0.1212  0.0045 -0.0655
  934MOL0    Cl23200   2.821   0.707   8.297 -0.3936 -0.3280  0.0359
  934MOL0     C23201   3.476   1.305   8.795  0.2393 -1.7856 -0.2650
  934MOL0     C23202   3.446   1.440   8.815 -0.9137  0.0552  0.0998
  934MOL0     O23203   3.629   1.802   8.715 -0.2230  0.0113  0.8845
  934MOL0     C23204   3.339   1.898   8.879  0.7322 -0.3165 -0.0568
  934MOL0     C23205   3.267   2.013   8.913 -0.6115  0.2855  0.0962
  934MOL0     N23206   3.377   2.681   8.997  0.6612 -0.2452  0.1432
  934MOL0     N23207   3.450   2.749   8.916  0.3295  0.4996 -1.0263
  934MOL0     C23208   3.682   1.803   8.256 -0.1696 -0.7985 -0.3985
  934MOL0     C23209   3.733   1.689   8.187  0.3175 -0.1248 -0.7852
  934MOL0     C23210   3.708   1.366   7.834 -1.1286  0.2442  0.0318
  934MOL0     C23211   3.686   1.341   7.696 -0.8670  0.2167 -0.2690
  934MOL0     C23212   3.720   1.219   7.635 -0.8533 -1.1994 -0.1491
  934MOL0     C23213   3.792   1.125   7.698 -0.8373 -0.8304  1.1133
  934MOL0     O23214   3.861   1.027   7.643  0.1183 -0.3227  0.1323
  934MOL0     C23215   3.849   1.018   7.499  0.0706  0.0626 -0.2570
  934MOL0     C23216   3.924   0.902   7.447  0.6032  0.0007  0.3151
  934MOL0     C23217   3.836   0.773   7.452  0.4757 -0.1952 -0.5337
  934MOL0     C23218   3.908   0.651   7.389  0.2489 -0.8616 -0.3800
  934MOL0     C23219   4.039   0.614   7.453 -0.0006 -0.3534 -0.0539
  934MOL0     C23220   4.149   0.590   7.502 -0.3285  0.1951  0.2907
  934MOL0     C23221   3.808   1.148   7.833  0.1511 -0.2648 -0.3448
  934MOL0     C23222   3.776   1.264   7.899  0.6161 -0.3436 -0.3808
  934MOL0     H23223   3.441   1.611   8.020  0.1128  0.8347 -2.0862
  934MOL0     H23224   3.384   1.838   8.124  1.4262  0.7080  0.2233
  934MOL0     H23225   3.666   2.063   8.358 -0.6218 -2.4495 -2.5495
  934MOL0     H23226   3.575   1.977   8.487 -1.8434 -0.8027  0.3574
  934MOL0     H23227   3.431   2.137   8.516 -2.8901 -0.4699 -1.2156
  934MOL0     H23228   3.420   2.185   8.344  2.2295 -0.2336 -3.0684
  934MOL0     H23229   3.641   2.297   8.359 -1.6585  1.4940 -0.8928
  934MOL0     H23230   3.638   2.263   8.540  0.9682  1.6802 -0.3296
  934MOL0     H23231   3.433   2.437   8.384  2.7809 -0.2186 -1.8118
  934MOL0     H23232   3.417   2.373   8.555  0.5752  0.6769  0.5593
  934MOL0     H23233   3.621   2.553   8.425  0.2724  0.8359  0.9341
  934MOL0     H23234   3.636   2.486   8.591  0.5678  1.4983  0.3995
  934MOL0     H23235   3.408   2.585   8.641 -0.5424 -2.3325 -0.5128
  934MOL0     H23236   3.400   2.644   8.477  0.1842 -1.7807  0.0980
  934MOL0     H23237   3.610   2.728   8.678 -1.3483  0.3611  1.2453
  934MOL0     H23238   3.564   2.805   8.521  3.7572  2.0080  1.6713
  934MOL0     H23239   3.334   2.865   8.630  0.3920  2.0699  1.3116
  934MOL0     H23240   3.488   2.941   8.691  2.7581 -0.2953 -0.8484
  934MOL0     H23241   3.143   2.782   8.785 -0.9544  1.1169  2.2159
  934MOL0     H23242   3.027   2.672   8.987 -1.1785  0.1014  2.7227
  934MOL0     H23243   3.120   2.658   9.132  0.0559 -0.8133 -0.0648
  934MOL0     H23244   3.046   2.450   9.099 -1.1550 -1.3786 -1.4920
  934MOL0     H23245   3.213   2.437   9.073 -1.6491 -0.2686  2.7245
  934MOL0     H23246   2.982   2.445   8.874 -0.1586  0.1310 -1.2934
  934MOL0     H23247   3.153   2.462   8.818 -2.0903  0.3604 -0.0259
  934MOL0     H23248   3.045   2.194   8.861 -0.1745 -0.1190  0.7091
  934MOL0     H23249   3.091   2.243   9.018 -0.3184 -2.6142 -0.1050
  934MOL0     H23250   3.462   2.238   8.754 -0.1664  0.0713  2.2882
  934MOL0     H23251   3.600   2.048   8.713  0.2431  2.2240  0.8508
  934MOL0     H23252   3.676   1.578   8.613  1.5403 -1.6132 -3.3778
  934MOL0     H23253   3.736   1.332   8.582 -0.3047 -0.6764 -0.8292
  934MOL0     H23254   3.484   1.019   8.784  2.0045 -2.3623  1.0066
  934MOL0     H23255   3.572   0.940   8.649 -0.2653 -0.8802  1.7545
  934MOL0     H23256   3.415   1.055   8.486 -0.6095  2.5230 -0.4058
  934MOL0     H23257   3.344   1.157   8.610  0.4445 -0.2521 -2.7798
  934MOL0     H23258   3.247   0.965   8.728 -2.7814  1.4830 -0.8287
  934MOL0     H23259   3.316   0.854   8.603  0.0736  0.2560 -1.5927
  934MOL0     H23260   3.139   1.089   8.547  4.7688  0.6767  0.1696
  934MOL0     H23261   3.189   0.981   8.434  0.6803 -0.8007  0.2983
  934MOL0     H23262   3.031   0.861   8.671  2.8110 -0.1607  0.2130
  934MOL0     H23263   3.072   0.793   8.514  0.9715  0.8524 -0.8191
  934MOL0     H23264   2.928   0.947   8.392 -3.3569  2.2518 -0.5808
  934MOL0     H23265   2.892   1.031   8.546 -2.7126 -0.4685 -0.6928
  934MOL0     H23266   2.774   0.864   8.624  1.9410 -0.3358 -0.1383
  934MOL0     H23267   2.713   0.904   8.451  0.0272 -1.2047  0.9167
  934MOL0     H23268   2.712   0.644   8.506  0.9020 -1.6712 -1.0297
  934MOL0     H23269   2.881   0.677   8.527  0.5307  1.4615 -0.1540
  934MOL0     H23270   3.421   1.231   8.851 -3.7187  0.9305 -0.1732
  934MOL0     H23271   3.357   1.473   8.867 -1.1500  2.7440 -1.7593
  934MOL0     H23272   3.314   1.803   8.924 -1.3837  1.1838  2.2142
  934MOL0     H23273   3.183   2.013   8.981  1.1106 -0.4017  2.3426
  934MOL0     H23274   3.748   1.858   8.322 -1.8498  1.5856 -0.6034
  934MOL0     H23275   3.838   1.663   8.190  0.7186  0.8983 -3.3846
  934MOL0     H23276   3.638   1.427   7.651 -1.6446  1.3376  2.4444
  934MOL0     H23277   3.720   1.227   7.527  2.7743  3.5374 -0.1101
  934MOL0     H23278   3.874   1.112   7.449 -2.4748  1.0399  0.1358
  934MOL0     H23279   3.743   1.001   7.476  0.2702  0.6744 -1.7368
  934MOL0     H23280   3.962   0.932   7.349  0.6773  1.1209  0.6805
  934MOL0     H23281   4.018   0.886   7.501  1.5938  0.8649 -1.0971
  934MOL0     H23282   3.738   0.788   7.406 -1.3060 -3.6950  1.6297
  934MOL0     H23283   3.811   0.745   7.555  0.8960  0.4970 -0.2341
  934MOL0     H23284   3.846   0.561   7.394 -1.2020  0.1249  0.0812
  934MOL0     H23285   3.915   0.673   7.282 -1.1379  0.5033 -0.2178
  934MOL0     H23286   4.248   0.563   7.533  0.6538  1.3673 -1.6506
  934MOL0     H23287   3.875   1.084   7.889 -2.0443 -1.0987  1.4970
  934MOL0     H23288   3.814   1.278   8.000 -1.2110  2.4271  0.0553
  935MOL0     O23289   8.870   3.382   5.146 -0.0965  0.5936 -0.3167
  935MOL0     C23290   8.815   3.493   5.137 -0.3711 -0.2961  0.1008
  935MOL0     O23291   8.817   3.577   5.028 -0.0296  0.4017  0.4508
  935MOL0     C23292   8.896   3.569   4.916  0.1523 -0.3016 -1.2314
  935MOL0     C23293   8.883   3.671   4.818  1.3915 -0.7111  1.0603
  935MOL0     C23294   8.941   3.658   4.694  0.5505 -1.6454  0.3261
  935MOL0     C23295   9.041   3.562   4.676 -0.6170 -0.6740  0.7886
  935MOL0     O23296   9.109   3.529   4.564 -0.5940 -0.3722  0.1494
  935MOL0     C23297   9.088   3.601   4.432  0.4752  0.1842  0.1996
  935MOL0     C23298   9.134   3.512   4.318  0.0778  0.0582 -0.8381
  935MOL0     C23299   9.093   3.556   4.177  0.1069 -0.4163  0.8320
  935MOL0     C23300   9.159   3.687   4.154 -0.0133 -0.0613  0.1463
  935MOL0     C23301   9.143   3.737   4.012 -0.0529  0.1050  0.8345
  935MOL0     C23302   8.991   3.760   3.965 -0.1397 -0.0435 -0.4864
  935MOL0     C23303   8.970   3.896   3.877  0.5461  0.7214 -1.0482
  935MOL0     C23304   9.015   4.019   3.956  0.1837 -0.6000 -1.4114
  935MOL0     N23305   8.947   4.138   3.908 -0.1332  0.2864 -1.2036
  935MOL0     C23306   9.007   4.250   3.850 -0.6814 -0.4107 -0.8137
  935MOL0     C23307   8.920   4.326   3.790  0.7618  0.0269  0.1732
  935MOL0     C23308   8.932   4.451   3.700 -0.4755  0.7265  0.7750
  935MOL0     C23309   8.843   4.443   3.583  0.0640 -0.7787  0.1783
  935MOL0     C23310   8.899   4.357   3.472 -0.4636 -0.0057 -0.3667
  935MOL0     C23311   8.861   4.214   3.503 -0.6258 -0.3960  0.5048
  935MOL0     O23312   8.909   4.148   3.383 -0.1597  1.4905  0.2964
  935MOL0     C23313   8.893   4.013   3.374 -0.7505 -0.2966 -0.1075
  935MOL0     C23314   8.951   3.960   3.259 -0.0322  0.3151  0.5084
  935MOL0     C23315   8.927   3.823   3.238 -0.3228  0.1970  0.5930
  935MOL0     C23316   8.858   3.746   3.330  0.8837 -0.3887 -0.9843
  935MOL0     C23317   8.842   3.596   3.312  0.6543  0.1649 -0.3172
  935MOL0     O23318   8.779   3.520   3.410 -0.1298 -0.8558  0.2541
  935MOL0     C23319   8.797   3.377   3.417  0.0049 -0.6924 -0.9222
  935MOL0     C23320   8.702   3.305   3.492 -0.3704  0.8729  0.1837
  935MOL0     C23321   8.719   3.161   3.496  0.4993 -0.5540 -0.1787
  935MOL0     C23322   8.827   3.082   3.446  0.3686 -0.4911  0.2819
  935MOL0     O23323   8.863   2.953   3.464  0.5857  1.0212  0.6141
  935MOL0     C23324   8.794   2.874   3.568 -0.2932  0.2108 -0.7362
  935MOL0     C23325   8.835   2.724   3.560  0.0459 -0.8222 -0.1233
  935MOL0     C23326   8.778   2.640   3.673  0.7724 -0.0870  0.6947
  935MOL0     C23327   8.837   2.500   3.659  0.3072 -0.0599 -0.2375
  935MOL0     C23328   8.768   2.415   3.764 -0.5133  0.5376  0.0007
  935MOL0     C23329   8.824   2.269   3.752  0.0503  0.3302 -0.6505
  935MOL0     C23330   8.761   2.180   3.870  0.5896 -0.6346 -0.4903
  935MOL0     C23331   8.836   2.195   4.008 -0.3942 -1.0151  0.1272
  935MOL0    Cl23332   8.989   2.093   3.990  0.4211  0.2181  0.0826
  935MOL0     C23333   8.926   3.161   3.377  0.8372  0.7537  0.5742
  935MOL0     C23334   8.917   3.304   3.367  0.1576 -1.1700 -0.2647
  935MOL0     O23335   8.895   3.552   3.213 -0.8123  0.1061 -0.1581
  935MOL0     C23336   8.812   3.798   3.452 -0.4507  0.2240  0.3127
  935MOL0     C23337   8.815   3.934   3.467  1.2343 -1.1397  0.0124
  935MOL0     N23338   8.802   4.285   3.834 -0.0218 -0.3552  0.0749
  935MOL0     N23339   8.813   4.167   3.895 -0.7182  0.1691  0.0831
  935MOL0     C23340   9.073   3.471   4.775 -0.6392 -0.8447  1.0338
  935MOL0     C23341   8.986   3.470   4.885 -0.1662  0.6069  0.7364
  935MOL0     C23342   8.746   3.541   5.258  0.2939 -0.2676  0.2948
  935MOL0     C23343   8.766   3.483   5.387  0.5842 -0.1718  0.1528
  935MOL0     C23344   8.713   3.555   5.493  0.1544 -0.3282 -1.0431
  935MOL0     C23345   8.629   3.668   5.477 -0.8720 -0.6751  1.3703
  935MOL0     O23346   8.563   3.737   5.575 -0.1458 -0.0831  0.6619
  935MOL0     C23347   8.606   3.712   5.707  0.0979 -0.2020  0.1114
  935MOL0     C23348   8.512   3.789   5.800 -0.3400  0.3257  0.2351
  935MOL0     C23349   8.365   3.752   5.776  0.2867 -0.5024 -0.6989
  935MOL0     C23350   8.285   3.839   5.871  0.1785  0.6958 -0.5262
  935MOL0     C23351   8.283   3.778   6.008  0.5013 -0.4751 -0.3617
  935MOL0     C23352   8.263   3.720   6.115 -0.6088  0.0241 -0.2053
  935MOL0     C23353   8.604   3.708   5.347  0.1512 -0.5888 -0.6167
  935MOL0     C23354   8.673   3.660   5.247  1.3060  0.4656  0.5448
  935MOL0     H23355   8.819   3.757   4.836  4.4004  3.0197 -3.6665
  935MOL0     H23356   8.906   3.722   4.614  1.7987  1.5303  2.1359
  935MOL0     H23357   9.149   3.691   4.435 -1.0250  1.2941 -1.0514
  935MOL0     H23358   8.986   3.639   4.421 -0.3183 -2.4106 -2.5592
  935MOL0     H23359   9.092   3.412   4.332 -2.9400  1.2907 -0.0318
  935MOL0     H23360   9.242   3.501   4.325  0.1596  1.6423  1.3689
  935MOL0     H23361   8.984   3.560   4.171  0.1049  0.0851  1.1843
  935MOL0     H23362   9.118   3.487   4.096  1.0647  1.6008 -0.6728
  935MOL0     H23363   9.127   3.764   4.225 -0.0269  0.3189 -0.2686
  935MOL0     H23364   9.267   3.672   4.156  0.1232 -0.2751 -3.1506
  935MOL0     H23365   9.194   3.683   3.931  0.0238  1.8867 -0.3791
  935MOL0     H23366   9.190   3.836   4.011 -1.8036  0.9788  0.2163
  935MOL0     H23367   8.919   3.774   4.046 -2.0962 -2.6596 -1.6441
  935MOL0     H23368   8.955   3.672   3.911  0.4263  0.5519 -1.8754
  935MOL0     H23369   9.026   3.888   3.783  0.4219 -0.1697 -1.0531
  935MOL0     H23370   8.861   3.902   3.869  0.5577  2.6455 -0.2359
  935MOL0     H23371   9.119   4.042   3.928  0.3277  0.1277 -0.3050
  935MOL0     H23372   8.996   4.011   4.063 -2.6274 -1.9213 -1.9136
  935MOL0     H23373   9.115   4.254   3.837 -0.4442 -0.4506  0.9750
  935MOL0     H23374   9.038   4.464   3.677 -0.2493  0.3377  1.5452
  935MOL0     H23375   8.908   4.538   3.762 -0.1679  0.7846  0.8129
  935MOL0     H23376   8.841   4.548   3.554  4.7343 -0.8684 -1.2460
  935MOL0     H23377   8.739   4.415   3.605 -1.4631  2.7030 -1.8482
  935MOL0     H23378   8.848   4.379   3.378  0.1977  1.8151 -0.3504
  935MOL0     H23379   9.008   4.350   3.469 -0.3796 -1.9780  2.6002
  935MOL0     H23380   8.753   4.203   3.495 -0.6150 -0.7765  0.8544
  935MOL0     H23381   8.910   4.176   3.594  1.2295 -0.4704 -0.4866
  935MOL0     H23382   8.988   4.016   3.173 -0.4225  0.4053  0.3939
  935MOL0     H23383   8.974   3.779   3.151  0.3446 -0.0787  1.0877
  935MOL0     H23384   8.621   3.361   3.538 -1.2434  2.4979 -3.0758
  935MOL0     H23385   8.648   3.105   3.556  2.0402 -2.1775  0.2500
  935MOL0     H23386   8.686   2.883   3.554 -0.2558  0.4551 -0.8809
  935MOL0     H23387   8.827   2.919   3.662 -0.0311  0.6733 -1.0454
  935MOL0     H23388   8.944   2.725   3.572  0.3606 -0.1968 -2.5199
  935MOL0     H23389   8.798   2.685   3.465  0.3520  2.7383 -1.8734
  935MOL0     H23390   8.670   2.640   3.687  0.8569  0.6261  1.3633
  935MOL0     H23391   8.823   2.672   3.767  0.0862 -2.6132  1.9686
  935MOL0     H23392   8.819   2.466   3.557 -5.2711  1.2799 -0.0312
  935MOL0     H23393   8.944   2.488   3.676  0.6829 -0.2369 -2.5192
  935MOL0     H23394   8.663   2.401   3.736 -0.1439  1.4164 -1.9933
  935MOL0     H23395   8.781   2.461   3.863 -1.9448  4.0705 -1.2903
  935MOL0     H23396   8.931   2.269   3.773 -0.2979 -0.1592  1.2996
  935MOL0     H23397   8.797   2.239   3.650 -0.3599  0.2910 -0.5324
  935MOL0     H23398   8.655   2.203   3.873  0.7076 -0.1168 -0.0994
  935MOL0     H23399   8.769   2.075   3.841 -0.0578 -0.8570  0.1143
  935MOL0     H23400   8.771   2.153   4.085 -0.7453 -1.8943 -0.6144
  935MOL0     H23401   8.853   2.302   4.023  3.4938 -1.2389 -1.4777
  935MOL0     H23402   9.022   3.113   3.360 -0.2690 -1.3416 -0.0578
  935MOL0     H23403   8.998   3.369   3.334 -1.4638  0.3277 -1.5192
  935MOL0     H23404   8.761   3.735   3.524 -4.7151 -0.1116 -2.6227
  935MOL0     H23405   8.765   3.976   3.554 -3.3901 -2.3648 -1.7600
  935MOL0     H23406   9.155   3.402   4.758 -1.1315 -1.0371 -0.7190
  935MOL0     H23407   9.009   3.380   4.942  1.7902 -0.9233 -2.2140
  935MOL0     H23408   8.827   3.395   5.407 -1.1031 -1.4235 -0.0143
  935MOL0     H23409   8.730   3.519   5.594  0.0401  2.0461 -0.1017
  935MOL0     H23410   8.701   3.767   5.711 -0.2114  0.6275 -2.4246
  935MOL0     H23411   8.605   3.607   5.738  3.1197 -0.2655  0.3154
  935MOL0     H23412   8.528   3.764   5.905 -1.7051 -1.4161  0.0796
  935MOL0     H23413   8.543   3.894   5.795 -2.9177  1.1823  0.6162
  935MOL0     H23414   8.333   3.647   5.773 -0.0800 -0.5032  1.4764
  935MOL0     H23415   8.338   3.793   5.679  1.6421  1.3205 -0.3586
  935MOL0     H23416   8.337   3.936   5.866 -2.1946  2.0188 -0.9594
  935MOL0     H23417   8.180   3.846   5.841 -0.2088 -0.0157  0.6298
  935MOL0     H23418   8.244   3.682   6.213 -3.7760  0.6209 -0.4726
  935MOL0     H23419   8.542   3.796   5.334 -0.7787 -1.3049 -1.1458
  935MOL0     H23420   8.679   3.704   5.148 -1.5837 -4.5082 -2.2831
  936MOL0     O23421   2.203  10.583  10.214 -0.8124 -0.1970 -0.2826
  936MOL0     C23422   2.126  10.606  10.309  0.5825  0.0984  0.2827
  936MOL0     O23423   2.155  10.621  10.438 -0.6797  0.2579 -0.6293
  936MOL0     C23424   2.284  10.617  10.481 -1.8132  0.0391 -0.3782
  936MOL0     C23425   2.364  10.503  10.467 -0.0225 -0.7894 -0.2209
  936MOL0     C23426   2.502  10.512  10.477  0.5342  0.3929 -0.0593
  936MOL0     C23427   2.574  10.628  10.495  0.3451 -0.3666  0.2143
  936MOL0     O23428   2.709  10.622  10.507 -0.5695 -0.2731  0.0084
  936MOL0     C23429   2.795  10.735  10.503 -0.0400 -0.1074  0.8494
  936MOL0     C23430   2.938  10.694  10.512 -1.1212  0.1400 -0.8025
  936MOL0     C23431   3.012  10.668  10.381  0.1358 -0.3600 -0.3640
  936MOL0     C23432   3.146  10.593  10.416 -0.1507 -0.9979 -0.2300
  936MOL0     C23433   3.193  10.538  10.284 -0.5032 -0.4387 -0.5603
  936MOL0     C23434   3.325  10.469  10.300  1.0380 -0.0604 -0.6069
  936MOL0     C23435   3.448  10.573  10.313  0.2986  0.0839 -0.4603
  936MOL0     C23436   3.587  10.505  10.328  0.6394  0.3049  0.2201
  936MOL0     N23437   3.650  10.504  10.190  0.5556 -0.9263  0.1168
  936MOL0     C23438   3.722  10.605  10.136 -0.1403 -0.6294  0.9024
  936MOL0     C23439   3.742  10.568  10.008  0.6502 -0.0720 -0.0640
  936MOL0     C23440   3.869  10.600   9.932 -0.6024  0.7281 -0.1193
  936MOL0     C23441   3.932  10.731   9.964 -0.6263 -0.7718  0.0699
  936MOL0     C23442   4.064  10.737   9.882 -0.8063 -0.0677  0.7197
  936MOL0     C23443   4.113  10.886   9.886  0.2138  0.5199 -0.8232
  936MOL0     O23444   4.239  10.888   9.812 -0.4468 -0.5007  0.5131
  936MOL0     C23445   4.360  10.837   9.866  0.8779  0.3051  0.0586
  936MOL0     C23446   4.380  10.784   9.989  0.0766 -0.4903 -0.2178
  936MOL0     C23447   4.504  10.734  10.023  0.4695 -0.2580 -0.4126
  936MOL0     C23448   4.608  10.741   9.932  0.4111  0.2816 -0.0321
  936MOL0     C23449   4.749  10.701   9.968  0.1538 -0.4908  0.6204
  936MOL0     O23450   4.819  10.642   9.868 -0.2091 -0.8819 -0.9488
  936MOL0     C23451   4.936  10.577   9.908  0.2980  0.1607  0.3217
  936MOL0     C23452   5.051  10.647   9.909  1.1896 -0.0626  0.1221
  936MOL0     C23453   5.176  10.572   9.918 -0.0667 -1.0226  0.5083
  936MOL0     C23454   5.183  10.432   9.946  0.1058  0.4286  0.0303
  936MOL0     O23455   5.304  10.375   9.942  0.1361 -0.8149  0.4900
  936MOL0     C23456   5.319  10.256  10.025 -0.0473 -0.0797 -0.5321
  936MOL0     C23457   5.466  10.205  10.026  0.1684 -0.2888 -0.5499
  936MOL0     C23458   5.503  10.120  10.152  0.6982 -0.3646  0.8875
  936MOL0     C23459   5.439   9.970  10.132  0.3271 -0.9147 -0.5772
  936MOL0     C23460   5.426   9.894  10.265  0.0828  0.6274 -0.1682
  936MOL0     C23461   5.357   9.761  10.247 -0.2080  0.0339  0.4428
  936MOL0     C23462   5.446   9.648  10.177  0.8329  0.0983 -0.8068
  936MOL0     C23463   5.572   9.619  10.255  0.4942 -0.7668 -0.3811
  936MOL0    Cl23464   5.657   9.479  10.181 -0.3419  0.3350 -0.2475
  936MOL0     C23465   5.060  10.368   9.964 -0.0559  0.8479  0.7578
  936MOL0     C23466   4.939  10.439   9.938 -0.7318 -1.0202 -0.1851
  936MOL0     O23467   4.793  10.735  10.083  0.1427  0.4558  0.1194
  936MOL0     C23468   4.587  10.788   9.802 -0.0112 -0.0572  0.0966
  936MOL0     C23469   4.464  10.841   9.767  0.3816 -1.1750 -0.1523
  936MOL0     N23470   3.672  10.453   9.981  0.0944  0.2695 -0.0549
  936MOL0     N23471   3.614  10.420  10.093 -0.1021  0.9544 -0.3362
  936MOL0     C23472   2.496  10.748  10.508 -0.5088 -0.2314  0.0627
  936MOL0     C23473   2.354  10.742  10.494 -0.4408  1.7411 -0.9516
  936MOL0     C23474   1.971  10.604  10.282 -1.7599  0.4351  0.0752
  936MOL0     C23475   1.873  10.667  10.368  0.9929  0.0342 -0.1401
  936MOL0     C23476   1.735  10.669  10.330 -0.8262 -0.0476 -0.2548
  936MOL0     C23477   1.698  10.604  10.213  0.5172 -0.5562  0.0057
  936MOL0     O23478   1.573  10.609  10.151  1.2396 -0.3724  0.1911
  936MOL0     C23479   1.459  10.622  10.247 -0.6555  0.1228 -0.0198
  936MOL0     C23480   1.318  10.609  10.184  0.0399  1.0267 -0.0211
  936MOL0     C23481   1.285  10.470  10.121 -0.5042 -0.4422  0.1539
  936MOL0     C23482   1.142  10.479  10.053  0.4098  0.1757  0.4811
  936MOL0     C23483   1.097  10.340  10.046  0.2171 -0.0012 -0.0423
  936MOL0     C23484   1.039  10.235  10.060 -0.0787  0.6970  0.8375
  936MOL0     C23485   1.787  10.526  10.143  0.2642  0.7109  0.1184
  936MOL0     C23486   1.919  10.533  10.172 -0.3092 -0.2142 -0.8030
  936MOL0     H23487   2.319  10.407  10.444  1.8387 -1.2499 -2.1928
  936MOL0     H23488   2.562  10.422  10.462  0.3645  0.4349 -1.0146
  936MOL0     H23489   2.776  10.807  10.583  3.8552  2.9884 -0.6709
  936MOL0     H23490   2.765  10.787  10.411 -2.6213 -0.4196  1.4364
  936MOL0     H23491   2.945  10.615  10.588 -0.2717 -1.5213 -2.5127
  936MOL0     H23492   2.986  10.783  10.552 -1.7418 -1.0766  3.0620
  936MOL0     H23493   3.019  10.759  10.320 -0.3192  0.8715  1.3490
  936MOL0     H23494   2.951  10.603  10.318  0.4079 -0.3777 -0.6133
  936MOL0     H23495   3.218  10.652  10.473  3.1055 -2.1125 -2.8265
  936MOL0     H23496   3.130  10.499  10.470  0.6689 -2.2388 -2.0308
  936MOL0     H23497   3.205  10.608  10.201  1.8500 -0.8040 -0.6169
  936MOL0     H23498   3.117  10.469  10.247  1.9429 -3.7643  0.0993
  936MOL0     H23499   3.340  10.405  10.212  0.6654 -0.4628 -0.3802
  936MOL0     H23500   3.313  10.416  10.395 -0.4472  0.3452 -0.5453
  936MOL0     H23501   3.449  10.638  10.225 -1.9728 -0.4848 -0.9590
  936MOL0     H23502   3.433  10.634  10.402 -0.5967 -1.9851  0.8760
  936MOL0     H23503   3.582  10.406  10.375  2.4997 -0.6870 -1.5011
  936MOL0     H23504   3.655  10.557  10.396 -0.5621 -0.7581  2.3340
  936MOL0     H23505   3.755  10.698  10.182 -1.0498  0.9014 -1.3625
  936MOL0     H23506   3.860  10.573   9.826  0.8042  2.0951 -0.6177
  936MOL0     H23507   3.946  10.535   9.974 -1.1747  1.6588  2.5599
  936MOL0     H23508   3.952  10.739  10.071  1.5337  1.1159 -0.3967
  936MOL0     H23509   3.866  10.811   9.930 -0.4866  0.4794  2.5791
  936MOL0     H23510   4.143  10.669   9.914 -0.6851 -0.1934  0.1506
  936MOL0     H23511   4.051  10.706   9.778  3.9282 -0.4030  0.0238
  936MOL0     H23512   4.125  10.929   9.987 -2.8273 -1.7668  0.6825
  936MOL0     H23513   4.032  10.944   9.841  1.0287  2.9774  0.6625
  936MOL0     H23514   4.320  10.780  10.079 -0.4894  1.2492 -0.4899
  936MOL0     H23515   4.529  10.698  10.123 -0.3207 -1.1466 -0.5177
  936MOL0     H23516   5.042  10.751   9.878 -2.0673 -0.5020 -0.7546
  936MOL0     H23517   5.276  10.612   9.913 -0.3958 -0.2926 -1.4128
  936MOL0     H23518   5.259  10.171   9.992 -0.7862  0.5764 -0.9012
  936MOL0     H23519   5.291  10.289  10.125 -1.4807 -1.9352 -0.2634
  936MOL0     H23520   5.540  10.285  10.028  1.8966 -1.8104 -0.0307
  936MOL0     H23521   5.486  10.155   9.931  1.1258  0.6752 -0.8827
  936MOL0     H23522   5.474  10.163  10.248  0.6396 -3.4909  2.4294
  936MOL0     H23523   5.613  10.113  10.154  0.8635  0.9840 -1.1061
  936MOL0     H23524   5.341   9.990  10.089  0.3318  2.0101  0.6050
  936MOL0     H23525   5.501   9.914  10.060  3.3810  1.3550  0.0850
  936MOL0     H23526   5.363   9.950  10.335  1.4990  1.6185  0.3572
  936MOL0     H23527   5.521   9.883  10.317 -0.2447  1.9191  0.7594
  936MOL0     H23528   5.268   9.784  10.187  2.6627  1.9302 -3.5388
  936MOL0     H23529   5.324   9.717  10.342 -0.7844  2.2102  1.2954
  936MOL0     H23530   5.383   9.558  10.184 -3.2448  2.7109 -0.3378
  936MOL0     H23531   5.469   9.668  10.073  0.4436  0.6494 -0.7912
  936MOL0     H23532   5.559   9.600  10.362  3.2058 -3.0978 -0.3231
  936MOL0     H23533   5.635   9.709  10.251 -1.4925  0.6885 -0.3543
  936MOL0     H23534   5.060  10.262   9.986 -0.9382  0.3219 -1.5017
  936MOL0     H23535   4.844  10.387   9.933 -1.3141  0.1242 -2.5993
  936MOL0     H23536   4.662  10.786   9.724  0.2587 -1.5626  0.3573
  936MOL0     H23537   4.443  10.863   9.663  0.6248 -7.2517 -1.8529
  936MOL0     H23538   2.553  10.840  10.497  1.5647 -1.5436 -0.8500
  936MOL0     H23539   2.305  10.839  10.497  2.3938  3.2950 -1.1859
  936MOL0     H23540   1.900  10.720  10.459 -2.5393  0.1089  1.0121
  936MOL0     H23541   1.679  10.730  10.400  2.4353 -1.0475  3.5601
  936MOL0     H23542   1.473  10.718  10.297 -1.3555 -0.6781  1.8082
  936MOL0     H23543   1.459  10.542  10.323 -0.8895  0.5761  0.4623
  936MOL0     H23544   1.239  10.620  10.259  0.7543  0.7903  0.7827
  936MOL0     H23545   1.285  10.679  10.107  0.2547  0.7962 -0.3268
  936MOL0     H23546   1.287  10.398  10.204 -0.8143 -3.2537 -2.0954
  936MOL0     H23547   1.362  10.429  10.055 -1.6902 -0.4802 -1.2486
  936MOL0     H23548   1.078  10.538  10.118 -1.1552 -0.2396 -0.6122
  936MOL0     H23549   1.142  10.514   9.949  3.1645 -1.2012 -0.0692
  936MOL0     H23550   1.001  10.135  10.056 -2.0153  1.3943  1.0582
  936MOL0     H23551   1.765  10.464  10.057  0.8802 -1.8220  1.7033
  936MOL0     H23552   1.989  10.469  10.120 -0.8384 -0.8352 -0.7706
  937MOL0     O23553   0.959   3.786   7.518 -0.9356 -0.8626  0.0013
  937MOL0     C23554   0.931   3.822   7.636 -0.9309  0.2933  0.3990
  937MOL0     O23555   1.008   3.897   7.711 -0.4659 -0.2310  0.4924
  937MOL0     C23556   1.120   3.957   7.658  0.4543 -0.9595  1.0200
  937MOL0     C23557   1.127   4.101   7.656  0.1186  0.8266  0.3525
  937MOL0     C23558   1.231   4.169   7.605 -0.8064  0.4386 -0.5938
  937MOL0     C23559   1.339   4.099   7.553  0.0638 -0.8426 -0.5586
  937MOL0     O23560   1.454   4.169   7.513 -0.0723 -0.6067 -0.0495
  937MOL0     C23561   1.587   4.096   7.521  0.0688 -0.3874  0.8418
  937MOL0     C23562   1.712   4.181   7.527 -0.1754 -0.8681 -0.5274
  937MOL0     C23563   1.702   4.302   7.426  0.2490  0.5728 -0.5912
  937MOL0     C23564   1.822   4.388   7.431 -0.0930 -0.3589  0.0903
  937MOL0     C23565   1.951   4.314   7.397 -0.3897 -0.1107 -0.5297
  937MOL0     C23566   2.084   4.395   7.412  1.0348  0.3426 -0.3269
  937MOL0     C23567   2.080   4.525   7.327 -0.1244  0.8809  0.1956
  937MOL0     C23568   2.214   4.590   7.338 -0.9103 -0.2125 -0.1561
  937MOL0     N23569   2.191   4.732   7.330  0.3761 -0.4070  0.0247
  937MOL0     C23570   2.153   4.808   7.431 -0.5585 -1.5177 -0.6895
  937MOL0     C23571   2.118   4.930   7.380 -0.3492  0.0163  0.3308
  937MOL0     C23572   2.092   5.056   7.452  0.3760 -0.1210  0.8092
  937MOL0     C23573   1.935   5.087   7.448 -0.4009  0.3096  0.1494
  937MOL0     C23574   1.901   5.218   7.525  1.1070 -0.2280  0.1070
  937MOL0     C23575   1.748   5.240   7.502  0.2377  0.3218  0.3119
  937MOL0     O23576   1.710   5.367   7.563  0.3104  0.1300  0.2809
  937MOL0     C23577   1.723   5.488   7.501 -0.8463  0.5106 -0.8793
  937MOL0     C23578   1.731   5.596   7.590 -0.0288  0.1287 -0.3958
  937MOL0     C23579   1.758   5.726   7.546  0.2346 -0.1256 -0.3121
  937MOL0     C23580   1.749   5.751   7.404 -0.1519  1.0644  0.4811
  937MOL0     C23581   1.751   5.887   7.356 -0.1091  0.5228  1.1522
  937MOL0     O23582   1.738   5.910   7.225 -0.7056 -0.0162  0.0004
  937MOL0     C23583   1.729   6.041   7.193  0.5311 -0.7053 -0.1481
  937MOL0     C23584   1.805   6.067   7.085 -0.2395 -0.9982  0.5514
  937MOL0     C23585   1.831   6.202   7.044 -0.3909  0.5407 -0.4211
  937MOL0     C23586   1.747   6.298   7.096 -1.0374  0.9934  0.4021
  937MOL0     O23587   1.773   6.431   7.073 -0.5571  0.5200  0.4003
  937MOL0     C23588   1.876   6.487   6.981 -0.3482 -0.6745  0.3150
  937MOL0     C23589   1.928   6.625   7.030  0.5609 -0.0664 -0.7559
  937MOL0     C23590   1.824   6.734   7.060  0.3049  0.4445 -0.6800
  937MOL0     C23591   1.787   6.813   6.937 -0.6710 -0.2031  0.6579
  937MOL0     C23592   1.669   6.919   6.971  0.6810  0.2603 -0.0478
  937MOL0     C23593   1.530   6.857   6.989 -0.1255  0.5124 -0.9291
  937MOL0     C23594   1.421   6.964   6.997 -0.3723 -1.0230 -0.2827
  937MOL0     C23595   1.285   6.910   6.957  0.2919 -0.5713 -0.1311
  937MOL0    Cl23596   1.271   6.910   6.785 -0.1823 -0.3977 -0.1373
  937MOL0     C23597   1.662   6.274   7.205  0.2545  0.0505 -0.3673
  937MOL0     C23598   1.656   6.145   7.252  0.0372 -0.5683 -0.2690
  937MOL0     O23599   1.785   5.964   7.442 -0.2325 -0.5427  1.1748
  937MOL0     C23600   1.725   5.649   7.313 -0.0350 -0.6150  0.4187
  937MOL0     C23601   1.735   5.519   7.363  0.0324 -0.4681  0.1019
  937MOL0     N23602   2.118   4.912   7.241 -1.0621  0.1605 -0.4935
  937MOL0     N23603   2.164   4.803   7.218 -0.2851  1.0857  0.0648
  937MOL0     C23604   1.328   3.960   7.532  0.4117 -0.5668 -0.3755
  937MOL0     C23605   1.217   3.889   7.591 -0.0156  0.6309  0.4400
  937MOL0     C23606   0.806   3.770   7.703  0.1713  0.0788  0.3948
  937MOL0     C23607   0.791   3.799   7.844 -0.2897  0.6864  0.5711
  937MOL0     C23608   0.668   3.756   7.904  1.0182  0.2925  0.1064
  937MOL0     C23609   0.572   3.694   7.825  0.5314 -0.1871  0.0149
  937MOL0     O23610   0.457   3.639   7.866  0.1346  0.9229  0.0420
  937MOL0     C23611   0.390   3.681   7.991  1.0776 -1.4111  0.0133
  937MOL0     C23612   0.459   3.628   8.115  0.3624  0.5994  0.3773
  937MOL0     C23613   0.397   3.501   8.158  1.1456  1.1938  0.6436
  937MOL0     C23614   0.435   3.445   8.292 -0.0552 -0.1034 -0.5244
  937MOL0     C23615   0.425   3.306   8.301 -0.0263 -0.3350  0.3198
  937MOL0     C23616   0.423   3.185   8.303 -0.1189 -0.7813  0.6535
  937MOL0     C23617   0.590   3.688   7.687  0.3949 -0.7388  1.1374
  937MOL0     C23618   0.707   3.713   7.625  0.0927 -0.0879 -0.0273
  937MOL0     H23619   1.041   4.147   7.703 -2.4484 -1.6679 -1.5677
  937MOL0     H23620   1.236   4.277   7.601 -2.5113  0.6822  1.7372
  937MOL0     H23621   1.601   4.028   7.436  2.7650 -3.3642  3.3661
  937MOL0     H23622   1.582   4.019   7.599  0.6184 -0.0379  1.2301
  937MOL0     H23623   1.790   4.106   7.515 -0.2378 -2.4304  5.7824
  937MOL0     H23624   1.707   4.212   7.631 -2.4238  1.8812 -1.3121
  937MOL0     H23625   1.615   4.363   7.452  1.1501  0.7422  2.3854
  937MOL0     H23626   1.697   4.252   7.329  3.7644  1.3369 -1.2942
  937MOL0     H23627   1.810   4.473   7.363  0.4989 -0.1578  0.2339
  937MOL0     H23628   1.837   4.426   7.533  2.2331 -2.4536  0.6051
  937MOL0     H23629   1.946   4.264   7.300  0.2345  1.4613 -1.4080
  937MOL0     H23630   1.969   4.233   7.468  0.7239  0.6097  0.0426
  937MOL0     H23631   2.164   4.328   7.380  1.5363 -0.4286  2.3318
  937MOL0     H23632   2.098   4.424   7.516  0.0908  5.6792 -1.3857
  937MOL0     H23633   2.043   4.516   7.224  0.1758 -4.7737  0.2991
  937MOL0     H23634   2.005   4.592   7.371 -2.8356 -0.6291 -1.7679
  937MOL0     H23635   2.270   4.562   7.248 -0.0915  0.6111  0.0785
  937MOL0     H23636   2.277   4.558   7.422  0.0739  0.8543 -0.4564
  937MOL0     H23637   2.158   4.780   7.536 -3.5489 -2.4705 -0.6794
  937MOL0     H23638   2.155   5.131   7.405 -0.4239  1.0437  1.5513
  937MOL0     H23639   2.130   5.057   7.555 -2.8023 -0.6099  2.0975
  937MOL0     H23640   1.877   5.000   7.483 -1.1315  1.5893  2.2933
  937MOL0     H23641   1.910   5.095   7.342 -0.6126 -3.7064 -0.2576
  937MOL0     H23642   1.925   5.195   7.630 -1.5042  0.2463  0.8653
  937MOL0     H23643   1.962   5.301   7.491  2.2693 -1.3876 -0.7515
  937MOL0     H23644   1.693   5.163   7.557  1.5776  0.0232  1.2961
  937MOL0     H23645   1.721   5.241   7.396 -0.0585  1.7449  0.3746
  937MOL0     H23646   1.711   5.581   7.696  1.0054  3.2099  0.3588
  937MOL0     H23647   1.753   5.800   7.624 -2.7418  1.0732 -1.5038
  937MOL0     H23648   1.854   5.980   7.043 -0.4551 -1.2339  0.7839
  937MOL0     H23649   1.897   6.216   6.959  0.1737  0.2423 -0.0381
  937MOL0     H23650   1.836   6.484   6.880  0.0633  3.1815 -0.0908
  937MOL0     H23651   1.962   6.419   6.986  0.1780 -0.4494 -3.3248
  937MOL0     H23652   2.006   6.654   6.958  1.5494  2.4202  1.1800
  937MOL0     H23653   1.976   6.609   7.127 -1.5148 -2.0453  0.0264
  937MOL0     H23654   1.869   6.803   7.131 -2.5722 -0.1270  1.9000
  937MOL0     H23655   1.737   6.692   7.111 -0.0756  2.8046  0.7645
  937MOL0     H23656   1.871   6.871   6.896 -0.3524 -0.2778  1.1989
  937MOL0     H23657   1.760   6.749   6.853  0.0519  2.0967 -1.4619
  937MOL0     H23658   1.664   6.987   6.885 -0.4038  0.3954  0.1113
  937MOL0     H23659   1.694   6.981   7.058 -1.6728  3.1839 -1.2780
  937MOL0     H23660   1.536   6.782   7.069 -1.2994  1.2711 -0.1006
  937MOL0     H23661   1.497   6.796   6.905  1.7087 -1.6165 -0.2143
  937MOL0     H23662   1.432   6.997   7.101  1.0654 -0.6053 -0.5349
  937MOL0     H23663   1.434   7.048   6.928  1.4877 -1.5947 -0.6791
  937MOL0     H23664   1.215   6.981   7.002 -2.1445 -2.2474 -1.0756
  937MOL0     H23665   1.257   6.819   7.011 -0.0511 -0.0566  0.5748
  937MOL0     H23666   1.598   6.348   7.252  0.3581 -0.4623  0.6230
  937MOL0     H23667   1.596   6.124   7.340  1.7134 -3.3368  0.3695
  937MOL0     H23668   1.705   5.677   7.211  2.1759  1.0130  0.3682
  937MOL0     H23669   1.744   5.432   7.299  0.7119 -0.7428  0.5596
  937MOL0     H23670   1.407   3.903   7.483  0.7457 -0.4943  0.0708
  937MOL0     H23671   1.203   3.782   7.575 -1.5796  0.4756  2.5192
  937MOL0     H23672   0.867   3.844   7.906 -1.8577 -2.9103  5.7704
  937MOL0     H23673   0.648   3.758   8.011 -0.4812 -1.1163 -0.1078
  937MOL0     H23674   0.282   3.663   7.984  0.4577  1.6838  0.0431
  937MOL0     H23675   0.383   3.790   7.994 -0.4836 -1.4641 -0.5026
  937MOL0     H23676   0.568   3.619   8.109  1.0566  4.6134  2.7287
  937MOL0     H23677   0.436   3.686   8.206  0.7149 -3.4431  3.3099
  937MOL0     H23678   0.430   3.433   8.079 -1.1860  3.2111 -2.3018
  937MOL0     H23679   0.288   3.506   8.160  1.0226 -0.8466  0.9143
  937MOL0     H23680   0.534   3.489   8.312  0.4659 -1.4176 -0.1307
  937MOL0     H23681   0.372   3.479   8.375  1.2780 -1.9875  1.3569
  937MOL0     H23682   0.440   3.081   8.321  2.5648 -0.6074 -0.3579
  937MOL0     H23683   0.508   3.655   7.623  1.7290  2.6521 -2.7694
  937MOL0     H23684   0.721   3.692   7.520  0.4885  1.4405 -0.3031
  938MOL0     O23685   4.425   1.897   1.057 -0.0398  0.3415  0.1564
  938MOL0     C23686   4.455   2.019   1.076 -0.2211 -0.1735  0.7296
  938MOL0     O23687   4.587   2.067   1.072 -0.2928 -0.4011  0.4425
  938MOL0     C23688   4.679   1.978   1.021  1.4562 -0.4290 -0.8205
  938MOL0     C23689   4.669   1.921   0.893  0.4275 -0.8230  0.0651
  938MOL0     C23690   4.776   1.858   0.835 -0.0316  0.1743 -0.7645
  938MOL0     C23691   4.895   1.833   0.901  0.2440  0.1344  0.1009
  938MOL0     O23692   4.989   1.754   0.830  0.9928  0.3985  0.0783
  938MOL0     C23693   5.123   1.769   0.866  0.2636 -0.2265  0.0644
  938MOL0     C23694   5.198   1.697   0.751 -0.8903  0.6472  0.3812
  938MOL0     C23695   5.188   1.764   0.610 -0.1897 -0.8557 -0.4730
  938MOL0     C23696   5.293   1.706   0.508 -0.1335  0.5648 -0.0874
  938MOL0     C23697   5.228   1.596   0.418  0.6817  0.2852 -0.2312
  938MOL0     C23698   5.282   1.599   0.285 -0.9893 -0.0045  0.4966
  938MOL0     C23699   5.426   1.546   0.283  0.0822 -1.1636 -0.4301
  938MOL0     C23700   5.492   1.577   0.140 -1.0847  0.6722 -1.1615
  938MOL0     N23701   5.622   1.507   0.113  0.3076 -0.4052 -1.0625
  938MOL0     C23702   5.643   1.369   0.115  0.1072 -0.2155  1.0860
  938MOL0     C23703   5.745   1.337   0.034 -0.6495  0.3212  0.8695
  938MOL0     C23704   5.817   1.213   0.004 -0.7999  0.4367 -0.4545
  938MOL0     C23705   5.949   1.201   0.080 -0.4153 -0.1054  0.4127
  938MOL0     C23706   6.068   1.264  -0.004  0.0588 -0.7021  0.0051
  938MOL0     C23707   6.201   1.239   0.050 -0.5000 -0.0698  0.0348
  938MOL0     O23708   6.235   1.099   0.044  0.9236 -0.3954 -0.4676
  938MOL0     C23709   6.339   1.058  -0.044  0.3395  0.1148  0.1258
  938MOL0     C23710   6.377   0.924  -0.045 -0.9833  0.5326 -0.6597
  938MOL0     C23711   6.489   0.880  -0.121  0.4164  0.0492  0.5588
  938MOL0     C23712   6.568   0.974  -0.202  1.2943 -0.7184  0.2851
  938MOL0     C23713   6.688   0.941  -0.270 -0.3853  0.4487  0.5731
  938MOL0     O23714   6.778   0.853  -0.194  0.7609  0.2183  0.1162
  938MOL0     C23715   6.871   0.778  -0.253 -0.5344  0.2499  0.7792
  938MOL0     C23716   6.977   0.732  -0.173  0.4156 -0.4439  0.0879
  938MOL0     C23717   7.078   0.652  -0.227  0.7097 -0.5802  0.4078
  938MOL0     C23718   7.077   0.612  -0.366  0.0661 -0.1640  0.3549
  938MOL0     O23719   7.174   0.525  -0.405  0.0005 -0.5620 -0.1449
  938MOL0     C23720   7.188   0.509  -0.552 -0.5900  0.2687 -0.5503
  938MOL0     C23721   7.252   0.636  -0.619 -0.1504  0.5595 -0.2037
  938MOL0     C23722   7.396   0.644  -0.581  0.0800 -0.0410 -0.0389
  938MOL0     C23723   7.475   0.750  -0.663 -0.6138 -0.1621  0.0699
  938MOL0     C23724   7.483   0.880  -0.580  0.8472 -0.2520 -0.4358
  938MOL0     C23725   7.472   1.012  -0.674  1.1045  0.1251  0.4202
  938MOL0     C23726   7.491   1.152  -0.611 -0.5985 -0.3564 -0.0800
  938MOL0     C23727   7.352   1.222  -0.607  0.1347  0.2223 -0.2342
  938MOL0    Cl23728   7.262   1.131  -0.474 -0.2531  0.3102 -0.0958
  938MOL0     C23729   6.975   0.668  -0.450 -0.0162  0.7293  0.0530
  938MOL0     C23730   6.870   0.741  -0.394  0.5788  0.5644 -1.1896
  938MOL0     O23731   6.706   1.000  -0.377 -0.0329 -0.2244 -0.4721
  938MOL0     C23732   6.503   1.108  -0.211 -0.0555 -0.1447 -0.4525
  938MOL0     C23733   6.397   1.147  -0.140 -1.5976 -0.5901  0.4791
  938MOL0     N23734   5.796   1.457  -0.007  0.3186 -0.1415 -0.2083
  938MOL0     N23735   5.723   1.555   0.035  0.2195  0.1710 -0.6453
  938MOL0     C23736   4.907   1.880   1.028  0.4088 -0.2207  0.5061
  938MOL0     C23737   4.802   1.951   1.097  0.5539  0.8387  0.9967
  938MOL0     C23738   4.348   2.111   1.108  0.1251  0.0053 -0.4170
  938MOL0     C23739   4.378   2.241   1.122 -0.8002 -0.3458  0.4973
  938MOL0     C23740   4.279   2.339   1.138 -0.4838  0.7770  0.7834
  938MOL0     C23741   4.143   2.303   1.157  0.6340 -0.2156 -0.2012
  938MOL0     O23742   4.038   2.391   1.187 -0.7885 -0.0080 -0.2266
  938MOL0     C23743   3.947   2.402   1.068  0.0886 -0.4141 -0.1670
  938MOL0     C23744   3.809   2.328   1.088 -0.2405 -0.7499 -0.4304
  938MOL0     C23745   3.719   2.400   1.199  0.2838  0.0953 -1.0518
  938MOL0     C23746   3.659   2.538   1.156 -0.4545  1.1398  0.3500
  938MOL0     C23747   3.581   2.583   1.270 -0.4244  1.1950  1.3086
  938MOL0     C23748   3.519   2.649   1.351 -0.1925  0.4085 -0.3083
  938MOL0     C23749   4.114   2.164   1.151  0.1471  0.1282 -0.4746
  938MOL0     C23750   4.213   2.074   1.112 -0.3384  0.5454  0.0695
  938MOL0     H23751   4.582   1.923   0.827  0.0632  0.2695  0.5567
  938MOL0     H23752   4.773   1.820   0.733 -1.5603  1.8195 -1.3697
  938MOL0     H23753   5.136   1.713   0.959 -1.1361 -2.0486 -0.7713
  938MOL0     H23754   5.149   1.875   0.878 -1.1188  0.3839 -1.8267
  938MOL0     H23755   5.170   1.592   0.738 -0.3543  0.7764 -2.5396
  938MOL0     H23756   5.299   1.708   0.791 -1.5296  3.0485  1.5521
  938MOL0     H23757   5.223   1.865   0.633 -0.4041 -0.8902  0.0295
  938MOL0     H23758   5.091   1.772   0.562  0.2407  2.7244 -1.0341
  938MOL0     H23759   5.333   1.783   0.442  1.6076 -1.6180 -1.7593
  938MOL0     H23760   5.380   1.662   0.558 -1.0225 -4.7416 -2.4986
  938MOL0     H23761   5.126   1.631   0.403  0.4031 -0.7201 -0.7078
  938MOL0     H23762   5.236   1.497   0.463 -0.4804  0.2679 -0.0418
  938MOL0     H23763   5.282   1.701   0.245 -0.2432 -0.3295 -0.3575
  938MOL0     H23764   5.216   1.536   0.224 -0.3989 -0.1995  0.0514
  938MOL0     H23765   5.489   1.587   0.362  2.3472  0.1302 -2.7726
  938MOL0     H23766   5.414   1.437   0.285 -2.4428 -0.9310  0.2228
  938MOL0     H23767   5.501   1.686   0.144  1.8770  0.4680  0.4696
  938MOL0     H23768   5.432   1.553   0.051  0.1971 -2.7046 -1.2593
  938MOL0     H23769   5.572   1.293   0.146  0.0831  0.2634  2.2589
  938MOL0     H23770   5.836   1.205  -0.103 -2.2944  2.1294 -0.8937
  938MOL0     H23771   5.741   1.137   0.024 -0.8670  1.1091  2.2864
  938MOL0     H23772   5.963   1.102   0.123  2.0446 -0.0714 -0.1647
  938MOL0     H23773   5.941   1.259   0.173  2.3893  1.3150 -0.1067
  938MOL0     H23774   6.063   1.232  -0.109  1.6068  0.6110 -0.5133
  938MOL0     H23775   6.059   1.372   0.005  2.2694 -0.2917 -1.6733
  938MOL0     H23776   6.203   1.278   0.152  0.2749 -0.4366  0.1730
  938MOL0     H23777   6.276   1.300  -0.001 -0.1015  0.2707  0.9993
  938MOL0     H23778   6.333   0.861   0.031  2.4613 -0.5254  0.6402
  938MOL0     H23779   6.512   0.775  -0.108  0.1588 -0.2216 -0.9235
  938MOL0     H23780   6.951   0.750  -0.069 -1.7158  1.1769 -0.6594
  938MOL0     H23781   7.148   0.619  -0.150  3.6699  2.4929 -0.7373
  938MOL0     H23782   7.094   0.484  -0.603 -2.9965  1.6632  2.8584
  938MOL0     H23783   7.251   0.424  -0.578 -0.5279  0.2001 -0.1805
  938MOL0     H23784   7.214   0.736  -0.592  2.3272  2.0239 -1.7285
  938MOL0     H23785   7.235   0.629  -0.726 -2.3893 -1.6864  0.2190
  938MOL0     H23786   7.454   0.557  -0.613  1.0424  0.3760  0.5481
  938MOL0     H23787   7.416   0.655  -0.474  1.6272  0.7798 -0.3753
  938MOL0     H23788   7.578   0.721  -0.688  0.1463 -1.7712  4.1974
  938MOL0     H23789   7.417   0.766  -0.754 -1.6679  2.6829  1.1365
  938MOL0     H23790   7.574   0.878  -0.519 -1.1587  1.3805  2.9051
  938MOL0     H23791   7.398   0.888  -0.512  0.2834  3.0633 -1.3741
  938MOL0     H23792   7.372   1.006  -0.716  0.5304 -1.3574  1.8584
  938MOL0     H23793   7.551   1.002  -0.749 -1.0009  1.2978 -2.0996
  938MOL0     H23794   7.542   1.144  -0.514  0.8673 -1.5793 -0.8905
  938MOL0     H23795   7.560   1.213  -0.669  0.1054 -0.7772  0.2966
  938MOL0     H23796   7.299   1.222  -0.702  1.0266  2.7368 -0.8062
  938MOL0     H23797   7.358   1.327  -0.579  0.3370  0.5908 -1.6249
  938MOL0     H23798   6.962   0.642  -0.554 -0.3907  1.4903 -0.0967
  938MOL0     H23799   6.795   0.775  -0.464 -0.3228 -1.0702 -1.0680
  938MOL0     H23800   6.565   1.171  -0.275  2.3467 -1.6652  0.2528
  938MOL0     H23801   6.362   1.247  -0.164  0.5106  0.1089  0.0697
  938MOL0     H23802   4.998   1.871   1.087  3.1882  2.1582 -2.9564
  938MOL0     H23803   4.802   1.971   1.204  1.3493  0.6417  1.0374
  938MOL0     H23804   4.476   2.282   1.100 -1.4851  1.6767  1.0061
  938MOL0     H23805   4.321   2.439   1.142  1.9754 -0.1765  0.0242
  938MOL0     H23806   4.007   2.361   0.986  0.5989 -1.5553  0.7444
  938MOL0     H23807   3.922   2.507   1.052  0.4706  0.0349  1.9169
  938MOL0     H23808   3.751   2.340   0.996 -0.6829  0.4088 -0.0167
  938MOL0     H23809   3.825   2.224   1.116 -1.2533 -0.2750  2.1521
  938MOL0     H23810   3.787   2.424   1.281  1.5573 -0.5516 -1.8815
  938MOL0     H23811   3.647   2.329   1.241 -0.1167 -1.1374 -3.6495
  938MOL0     H23812   3.726   2.610   1.108 -1.9249 -0.5854 -5.1190
  938MOL0     H23813   3.589   2.530   1.072  0.2148 -3.0177  0.0097
  938MOL0     H23814   3.471   2.705   1.429 -1.7212  1.8671 -2.2028
  938MOL0     H23815   4.011   2.132   1.167 -0.2686  1.8455  0.4995
  938MOL0     H23816   4.191   1.969   1.096  1.4596 -0.0644  1.3153
  939MOL0     O23817   7.091   5.503   5.927 -0.3931 -0.1775  0.7529
  939MOL0     C23818   7.214   5.530   5.907 -1.2318 -0.0784 -0.5572
  939MOL0     O23819   7.269   5.650   5.902 -0.1808  0.0359 -0.1230
  939MOL0     C23820   7.195   5.761   5.939 -0.6142  0.8070 -0.2720
  939MOL0     C23821   7.146   5.786   6.068 -0.7831 -1.5364 -0.4903
  939MOL0     C23822   7.083   5.915   6.090 -0.1630  0.9892  0.0588
  939MOL0     C23823   7.031   5.994   5.983  0.1540  1.3632 -0.4756
  939MOL0     O23824   6.933   6.081   5.999  0.1092 -0.3498 -0.4993
  939MOL0     C23825   6.898   6.194   5.906  1.0301  0.6994  0.2762
  939MOL0     C23826   6.745   6.224   5.912  0.2105 -0.5517  0.6234
  939MOL0     C23827   6.707   6.353   5.827 -0.4697 -1.0651 -0.3930
  939MOL0     C23828   6.755   6.344   5.685  0.0926  0.1132 -0.0468
  939MOL0     C23829   6.698   6.230   5.611 -0.5454 -0.1946 -0.1757
  939MOL0     C23830   6.552   6.245   5.572  1.5346 -0.5814  0.6552
  939MOL0     C23831   6.500   6.113   5.514  0.5901 -0.4679 -0.3712
  939MOL0     C23832   6.355   6.136   5.463  0.4457 -0.1059  0.1562
  939MOL0     N23833   6.297   6.020   5.404  0.3208 -0.1981  0.1180
  939MOL0     C23834   6.275   5.906   5.475 -0.6204 -0.2654 -0.0246
  939MOL0     C23835   6.244   5.814   5.385  0.4131 -0.2608  0.3792
  939MOL0     C23836   6.215   5.671   5.400 -0.4142  0.2520  0.0020
  939MOL0     C23837   6.207   5.637   5.552  0.4152 -0.4761  0.1077
  939MOL0     C23838   6.071   5.673   5.619  0.5717  0.0329 -0.1418
  939MOL0     C23839   6.068   5.654   5.780  0.3078  0.0959  0.0110
  939MOL0     O23840   6.180   5.713   5.840  0.3657  0.0509  0.8022
  939MOL0     C23841   6.197   5.852   5.852 -0.6694  0.1322  0.0210
  939MOL0     C23842   6.325   5.892   5.887  0.2857 -1.1443  0.6591
  939MOL0     C23843   6.365   6.024   5.913  0.0090 -0.8824  0.5894
  939MOL0     C23844   6.262   6.125   5.899 -0.2360 -0.2797  0.1640
  939MOL0     C23845   6.276   6.259   5.957  1.6634 -0.0919  0.8520
  939MOL0     O23846   6.167   6.343   5.958 -0.9794  0.0042 -0.4018
  939MOL0     C23847   6.176   6.475   5.981 -0.0042  0.4275  0.1333
  939MOL0     C23848   6.291   6.547   5.946 -0.0763 -0.1009  0.8567
  939MOL0     C23849   6.295   6.684   5.968 -0.3553  0.0463  0.6848
  939MOL0     C23850   6.187   6.743   6.046 -0.6281 -0.9658 -0.6262
  939MOL0     O23851   6.191   6.883   6.065  0.7170 -0.6512  0.1060
  939MOL0     C23852   6.295   6.946   6.140 -0.5212  0.0146  0.3658
  939MOL0     C23853   6.224   7.010   6.274 -0.0866  0.4651  0.9792
  939MOL0     C23854   6.323   7.058   6.383  0.9013 -0.3473  0.0903
  939MOL0     C23855   6.270   7.178   6.467 -0.6805  0.4637  0.0428
  939MOL0     C23856   6.394   7.241   6.520  0.2785  0.4349  0.4477
  939MOL0     C23857   6.374   7.358   6.617  0.3601 -0.4569 -0.2172
  939MOL0     C23858   6.497   7.415   6.694  0.5608 -0.7071  0.3453
  939MOL0     C23859   6.611   7.322   6.726  0.9452  0.5110  0.1409
  939MOL0    Cl23860   6.722   7.404   6.827 -0.1661  0.4697 -0.0269
  939MOL0     C23861   6.071   6.673   6.075 -0.7535  1.3290 -0.3613
  939MOL0     C23862   6.063   6.535   6.035 -0.3661  0.9779 -0.4390
  939MOL0     O23863   6.389   6.283   6.000  0.9137 -0.8542  0.3936
  939MOL0     C23864   6.133   6.088   5.853 -0.5630  0.3584  0.6892
  939MOL0     C23865   6.105   5.954   5.826  0.0778  0.4888 -0.1369
  939MOL0     N23866   6.250   5.872   5.262  0.1395  0.7226 -0.3988
  939MOL0     N23867   6.289   5.999   5.271  1.0802  0.9313 -0.4812
  939MOL0     C23868   7.089   5.962   5.863 -0.2922 -0.0904 -0.8666
  939MOL0     C23869   7.178   5.860   5.843 -0.2355  0.5466  0.2499
  939MOL0     C23870   7.307   5.419   5.881 -0.0309  0.5194 -0.5301
  939MOL0     C23871   7.444   5.430   5.890  0.7540 -0.3726  0.1233
  939MOL0     C23872   7.530   5.321   5.873  0.4507 -0.2076  0.1152
  939MOL0     C23873   7.482   5.196   5.840 -0.5036 -0.2482  0.9209
  939MOL0     O23874   7.560   5.087   5.832 -0.6693 -0.3159 -0.9730
  939MOL0     C23875   7.533   4.991   5.930  0.3384 -0.5316  0.7467
  939MOL0     C23876   7.643   4.889   5.914  0.1136  0.0032  0.5579
  939MOL0     C23877   7.660   4.820   6.049  0.4519  0.5477  0.4119
  939MOL0     C23878   7.758   4.711   6.064  0.0540 -0.0375  0.8196
  939MOL0     C23879   7.746   4.630   6.181 -0.1041 -0.3945 -1.0118
  939MOL0     C23880   7.732   4.539   6.258  0.4668  0.8622 -0.6102
  939MOL0     C23881   7.342   5.179   5.830  0.1431 -1.0116 -0.4838
  939MOL0     C23882   7.259   5.292   5.848 -0.1764  0.9617 -0.2259
  939MOL0     H23883   7.182   5.724   6.149  0.0674 -2.5227 -1.5914
  939MOL0     H23884   7.077   5.939   6.196 -0.2439  2.0477 -0.1756
  939MOL0     H23885   6.934   6.169   5.805  0.2926 -0.7993  0.3592
  939MOL0     H23886   6.942   6.288   5.939 -0.0468  0.7526  1.6445
  939MOL0     H23887   6.713   6.247   6.014 -1.4141 -2.0672  0.5043
  939MOL0     H23888   6.687   6.137   5.881 -1.0223 -0.8132  3.3540
  939MOL0     H23889   6.757   6.436   5.878 -1.8317  1.5500 -3.0644
  939MOL0     H23890   6.602   6.383   5.820  0.2499  1.1185 -3.9704
  939MOL0     H23891   6.737   6.437   5.630  2.5743  0.6370 -0.0751
  939MOL0     H23892   6.864   6.330   5.684  0.3586  1.3566 -3.7123
  939MOL0     H23893   6.714   6.138   5.669 -2.2940  1.8770  4.0219
  939MOL0     H23894   6.757   6.233   5.520  1.9866  0.0838  1.3794
  939MOL0     H23895   6.537   6.328   5.502  1.2605 -0.0293  1.3546
  939MOL0     H23896   6.480   6.275   5.648  0.6961 -0.1626 -0.2870
  939MOL0     H23897   6.564   6.083   5.431  0.4062  0.4903 -0.8731
  939MOL0     H23898   6.506   6.034   5.589  1.9399 -0.5484 -0.5360
  939MOL0     H23899   6.366   6.211   5.384  1.2367  2.7209  2.7382
  939MOL0     H23900   6.299   6.169   5.551 -2.9880  1.8350 -2.4909
  939MOL0     H23901   6.259   5.902   5.582  0.6646  1.2784  0.2670
  939MOL0     H23902   6.292   5.604   5.362 -0.4163  0.2314  0.0330
  939MOL0     H23903   6.125   5.650   5.342 -2.1109  1.3644  2.0720
  939MOL0     H23904   6.292   5.668   5.614  1.5376 -1.8529 -0.6877
  939MOL0     H23905   6.207   5.528   5.541 -0.8174 -0.5772  0.8431
  939MOL0     H23906   6.045   5.778   5.603 -2.6179 -0.4672  0.9816
  939MOL0     H23907   5.991   5.610   5.580 -0.8565  1.3304  0.5518
  939MOL0     H23908   6.067   5.549   5.810  0.5429  0.5833  1.7967
  939MOL0     H23909   5.973   5.692   5.819 -0.1227 -2.2582  1.4619
  939MOL0     H23910   6.393   5.808   5.903  3.5726  1.0059 -0.8764
  939MOL0     H23911   6.456   6.065   5.954  1.0861 -1.9193 -0.6697
  939MOL0     H23912   6.375   6.505   5.893  2.0003  1.0521  3.0144
  939MOL0     H23913   6.373   6.748   5.929  0.8469 -0.6898  1.8062
  939MOL0     H23914   6.349   7.019   6.079  1.2520 -0.3676  1.3996
  939MOL0     H23915   6.373   6.874   6.164  0.3122  0.4112 -1.0435
  939MOL0     H23916   6.167   6.926   6.314 -0.6248 -0.9167 -2.3212
  939MOL0     H23917   6.157   7.089   6.240 -2.4903 -2.4128 -1.6319
  939MOL0     H23918   6.418   7.091   6.341  1.0335 -1.7055 -0.7356
  939MOL0     H23919   6.345   6.961   6.428  1.2086 -0.9376 -1.2734
  939MOL0     H23920   6.217   7.242   6.396  1.2589  1.2934 -0.7232
  939MOL0     H23921   6.206   7.136   6.545  2.7162 -2.9482  1.3270
  939MOL0     H23922   6.446   7.293   6.439 -0.4949  2.5439  1.2435
  939MOL0     H23923   6.458   7.171   6.573 -0.6083  0.2999  1.3685
  939MOL0     H23924   6.303   7.328   6.695 -1.8468 -0.3222 -2.0533
  939MOL0     H23925   6.334   7.443   6.561  1.3333  1.3068  1.6302
  939MOL0     H23926   6.540   7.484   6.620  3.1313  0.4703  2.7454
  939MOL0     H23927   6.450   7.476   6.772 -2.4880  0.4031 -2.1255
  939MOL0     H23928   6.662   7.280   6.639  2.1761 -0.5613  1.3358
  939MOL0     H23929   6.581   7.233   6.782  3.1527 -0.2167  0.2547
  939MOL0     H23930   5.985   6.726   6.114 -1.0305 -0.1209  1.1307
  939MOL0     H23931   5.973   6.481   6.062  0.9453 -3.5396 -3.8822
  939MOL0     H23932   6.063   6.168   5.831  2.2727  4.3625  4.4630
  939MOL0     H23933   6.005   5.928   5.793  0.5457 -1.7744  0.0829
  939MOL0     H23934   7.074   6.026   5.777  2.0939 -1.2315 -2.2342
  939MOL0     H23935   7.202   5.834   5.740  2.1974  2.4375  0.2324
  939MOL0     H23936   7.484   5.517   5.941  1.4845 -2.1773  2.8908
  939MOL0     H23937   7.638   5.329   5.874  0.4261  0.3161 -0.4549
  939MOL0     H23938   7.437   4.941   5.913  0.9080 -1.3143 -0.2524
  939MOL0     H23939   7.537   5.036   6.030 -1.1535  0.6709  0.2968
  939MOL0     H23940   7.622   4.823   5.830  0.6062 -0.2605  0.6419
  939MOL0     H23941   7.738   4.934   5.886  0.6042 -2.2579 -1.8072
  939MOL0     H23942   7.567   4.783   6.091  1.1247 -0.7843  0.7661
  939MOL0     H23943   7.699   4.901   6.112 -0.1155  0.7353  0.5247
  939MOL0     H23944   7.751   4.642   5.979  5.6629  0.1296 -0.1689
  939MOL0     H23945   7.859   4.752   6.064  0.2626 -0.5392  0.7828
  939MOL0     H23946   7.716   4.466   6.334 -1.0241  2.0325  0.2788
  939MOL0     H23947   7.313   5.075   5.814  1.8176 -1.7371  0.8834
  939MOL0     H23948   7.154   5.273   5.826 -0.3010  0.2512  0.8755
  940MOL0     O23949   4.907  11.311   5.073 -0.5800  0.3098  0.2934
  940MOL0     C23950   4.809  11.370   5.033 -0.4758  0.1379  0.6806
  940MOL0     O23951   4.762  11.491   5.078  0.1239 -0.3981  0.2404
  940MOL0     C23952   4.802  11.559   5.193  0.0920  0.6186 -0.4315
  940MOL0     C23953   4.778  11.500   5.320  0.6417 -0.5812 -0.2418
  940MOL0     C23954   4.778  11.590   5.430  0.2257  0.6419  0.2889
  940MOL0     C23955   4.800  11.730   5.421  0.3015  0.2089  0.1399
  940MOL0     O23956   4.812  11.817   5.522  0.1345  0.4859  0.0295
  940MOL0     C23957   4.760  11.791   5.658  0.1046 -0.8895 -0.4781
  940MOL0     C23958   4.791  11.915   5.745 -1.3935 -0.1905 -0.0609
  940MOL0     C23959   4.869  11.881   5.878 -0.4348  0.5410  0.0766
  940MOL0     C23960   4.822  11.763   5.965 -0.3831  0.5546 -0.4741
  940MOL0     C23961   4.668  11.778   6.000 -0.6042 -0.4720  0.5374
  940MOL0     C23962   4.638  11.868   6.123  1.0323  0.6713  0.5322
  940MOL0     C23963   4.485  11.885   6.148 -0.6698  0.3033  0.8978
  940MOL0     C23964   4.462  11.941   6.285  0.0374 -0.3538  0.1212
  940MOL0     N23965   4.439  11.842   6.385 -0.0860 -0.4732  0.4121
  940MOL0     C23966   4.507  11.711   6.387 -0.3302 -0.4598 -0.3468
  940MOL0     C23967   4.419  11.647   6.477  0.5908  0.0094  0.4718
  940MOL0     C23968   4.426  11.503   6.528 -0.0133  0.0725 -0.2256
  940MOL0     C23969   4.291  11.442   6.575  0.0916 -0.0809 -0.0502
  940MOL0     C23970   4.183  11.448   6.471 -0.4318  1.1610  1.5476
  940MOL0     C23971   4.062  11.369   6.518  0.7611 -0.4013  0.1018
  940MOL0     O23972   3.935  11.429   6.474 -0.5599 -0.2912 -0.2761
  940MOL0     C23973   3.889  11.422   6.346 -0.7755  1.0113  0.2900
  940MOL0     C23974   3.911  11.323   6.251 -0.8394  0.1227  0.8140
  940MOL0     C23975   3.866  11.342   6.123  0.6430  0.1870  0.7688
  940MOL0     C23976   3.797  11.459   6.075  0.1415  0.0698  0.2078
  940MOL0     C23977   3.751  11.487   5.937  0.2321 -1.2888  0.3645
  940MOL0     O23978   3.686  11.606   5.912 -0.0848  0.2428 -0.4386
  940MOL0     C23979   3.633  11.647   5.789  0.1310 -0.0612 -0.1900
  940MOL0     C23980   3.592  11.568   5.687 -0.7674 -0.3675  0.9376
  940MOL0     C23981   3.538  11.621   5.570 -0.1865  0.2644  1.2525
  940MOL0     C23982   3.523  11.760   5.549 -0.8008 -0.2696 -0.0301
  940MOL0     O23983   3.455  11.798   5.438 -0.2251  0.7654  0.7137
  940MOL0     C23984   3.435  11.938   5.402  1.2218  0.1358 -0.6363
  940MOL0     C23985   3.384  11.968   5.262 -0.4801  0.4178 -0.7611
  940MOL0     C23986   3.496  11.938   5.158 -0.8397  0.4927  0.3175
  940MOL0     C23987   3.432  11.989   5.024 -0.9959 -0.0219 -0.3160
  940MOL0     C23988   3.547  12.022   4.913 -0.7842 -0.5513  0.1956
  940MOL0     C23989   3.472  12.041   4.777  0.4324  0.7533 -0.6290
  940MOL0     C23990   3.579  12.042   4.670  0.5887  0.1682 -0.5192
  940MOL0     C23991   3.544  12.089   4.537  0.6350 -0.6143 -0.0196
  940MOL0    Cl23992   3.653  12.008   4.418  0.1451  0.0837  0.2540
  940MOL0     C23993   3.565  11.842   5.656  0.4521  0.7510  0.5608
  940MOL0     C23994   3.620  11.786   5.768  1.1865 -0.0375  0.0878
  940MOL0     O23995   3.790  11.418   5.850 -0.8678 -0.3001 -0.2802
  940MOL0     C23996   3.778  11.554   6.177 -0.3083 -0.8463  0.9694
  940MOL0     C23997   3.826  11.542   6.309  0.1682  0.3311  1.1083
  940MOL0     N23998   4.316  11.726   6.524 -0.4062  0.6396  0.9493
  940MOL0     N23999   4.330  11.839   6.468 -0.5841 -0.3603  0.4039
  940MOL0     C24000   4.832  11.781   5.293 -0.7529  0.1244 -0.5485
  940MOL0     C24001   4.841  11.698   5.180 -0.4312 -0.2907  0.5406
  940MOL0     C24002   4.736  11.309   4.916 -1.0514 -0.1326 -0.2712
  940MOL0     C24003   4.776  11.185   4.862 -1.0800 -0.4890  0.0471
  940MOL0     C24004   4.728  11.145   4.738 -0.1399  0.2621  0.5502
  940MOL0     C24005   4.629  11.212   4.682 -0.2432 -1.1058 -0.1943
  940MOL0     O24006   4.583  11.165   4.562  0.0982  0.7383  0.1415
  940MOL0     C24007   4.512  11.243   4.466 -0.3687  0.2235 -0.6810
  940MOL0     C24008   4.478  11.156   4.340 -0.3992  0.4001  0.4744
  940MOL0     C24009   4.418  11.238   4.225 -0.6959  0.8081 -1.3620
  940MOL0     C24010   4.388  11.174   4.097  0.3089  0.6375  0.2455
  940MOL0     C24011   4.516  11.152   4.023 -0.3107 -0.0448 -0.4495
  940MOL0     C24012   4.618  11.119   3.978  0.4950  0.4872 -0.2921
  940MOL0     C24013   4.575  11.327   4.742 -0.2786  0.4748  0.2899
  940MOL0     C24014   4.635  11.384   4.850 -0.2425 -0.6272 -0.5081
  940MOL0     H24015   4.737  11.400   5.328 -0.0638 -0.2093  0.9865
  940MOL0     H24016   4.755  11.550   5.528  0.0795  2.6587  1.1069
  940MOL0     H24017   4.817  11.707   5.698  4.8805  1.9338 -0.6080
  940MOL0     H24018   4.655  11.763   5.670  0.1891 -1.3236 -0.7508
  940MOL0     H24019   4.702  11.973   5.769 -1.6541 -1.3687  2.0456
  940MOL0     H24020   4.853  11.975   5.677 -1.8729  0.2730 -0.0999
  940MOL0     H24021   4.886  11.973   5.933  0.2364 -0.5299  1.7178
  940MOL0     H24022   4.971  11.853   5.848 -0.4994  1.5256 -1.1723
  940MOL0     H24023   4.840  11.663   5.923  2.6791  1.2575 -1.0914
  940MOL0     H24024   4.888  11.768   6.052  1.1333 -0.2309 -1.5399
  940MOL0     H24025   4.637  11.678   6.031  0.2473 -1.1108 -0.5958
  940MOL0     H24026   4.612  11.807   5.910  1.9435  0.7852 -0.7548
  940MOL0     H24027   4.657  11.973   6.100 -1.4313  1.4368  1.5823
  940MOL0     H24028   4.683  11.833   6.216 -1.4681 -1.0731  1.1985
  940MOL0     H24029   4.451  11.955   6.071 -2.7265 -3.0957 -1.5688
  940MOL0     H24030   4.426  11.795   6.126 -2.1103  1.5217 -0.4267
  940MOL0     H24031   4.375  12.005   6.298 -2.5743 -3.9362  2.1131
  940MOL0     H24032   4.556  11.987   6.317 -1.3488  2.4725  0.4382
  940MOL0     H24033   4.598  11.680   6.336 -1.8371 -2.8005 -1.8074
  940MOL0     H24034   4.495  11.524   6.610  2.3358  3.4540 -2.7768
  940MOL0     H24035   4.482  11.450   6.451 -2.2217  0.1746 -1.9993
  940MOL0     H24036   4.265  11.504   6.661 -3.0559 -1.4112  0.1081
  940MOL0     H24037   4.299  11.338   6.610  0.2936  0.0414  0.2743
  940MOL0     H24038   4.152  11.552   6.459 -0.6695  1.0635  1.2886
  940MOL0     H24039   4.208  11.417   6.369 -1.2872 -1.0144  1.9517
  940MOL0     H24040   4.057  11.356   6.626  2.1847 -0.6560  0.1564
  940MOL0     H24041   4.060  11.270   6.471 -0.6434  0.7294 -2.4769
  940MOL0     H24042   3.964  11.230   6.271  2.4887  1.1089 -2.1682
  940MOL0     H24043   3.870  11.255   6.058 -0.4901 -0.4344  1.4849
  940MOL0     H24044   3.590  11.461   5.708 -2.5568 -0.8007 -1.0711
  940MOL0     H24045   3.486  11.550   5.506  0.2078  1.3359 -0.2963
  940MOL0     H24046   3.525  11.997   5.421  0.9869  0.2798  0.0461
  940MOL0     H24047   3.360  11.975   5.472 -0.1763 -4.3339  0.5884
  940MOL0     H24048   3.353  12.073   5.260 -0.4179  0.4403 -0.5529
  940MOL0     H24049   3.304  11.898   5.237 -0.6347 -0.1491  1.1339
  940MOL0     H24050   3.507  11.833   5.130 -3.1360  1.1438 -3.7898
  940MOL0     H24051   3.587  11.996   5.175 -2.6025  3.5126  0.0883
  940MOL0     H24052   3.363  11.909   4.997 -1.2863 -0.0778  0.5468
  940MOL0     H24053   3.372  12.080   5.035 -1.3351 -0.4201  1.6417
  940MOL0     H24054   3.619  11.941   4.906  0.1165  0.3302 -1.1365
  940MOL0     H24055   3.600  12.116   4.932 -0.9873  0.3240 -2.9488
  940MOL0     H24056   3.409  12.131   4.775 -1.9398 -0.7536  1.1034
  940MOL0     H24057   3.411  11.954   4.754  1.3289  0.1242 -0.6462
  940MOL0     H24058   3.666  12.102   4.696  0.4556 -0.3270  1.1782
  940MOL0     H24059   3.616  11.939   4.660  0.2991 -0.2802  2.1906
  940MOL0     H24060   3.538  12.199   4.534 -0.5168 -0.6173  1.2224
  940MOL0     H24061   3.443  12.054   4.513  0.0269  0.3949  0.9910
  940MOL0     H24062   3.556  11.950   5.651 -1.4961  0.5589 -0.7996
  940MOL0     H24063   3.656  11.867   5.830 -1.4166  3.8236 -2.9146
  940MOL0     H24064   3.730  11.651   6.166  0.5268 -0.5088  0.1453
  940MOL0     H24065   3.814  11.639   6.356 -0.4527  2.9585 -3.8141
  940MOL0     H24066   4.867  11.883   5.281  1.1641 -0.5426 -1.1031
  940MOL0     H24067   4.871  11.729   5.081 -0.3445 -4.5600 -0.9488
  940MOL0     H24068   4.838  11.118   4.920 -1.5899 -0.2530  0.8871
  940MOL0     H24069   4.761  11.054   4.690 -0.1310  0.7626 -0.4140
  940MOL0     H24070   4.573  11.329   4.437  2.1767 -1.8843 -1.9644
  940MOL0     H24071   4.417  11.286   4.500 -1.0945  2.1410 -4.5645
  940MOL0     H24072   4.563  11.095   4.307 -0.7014  0.0108  0.4011
  940MOL0     H24073   4.403  11.086   4.378  1.7858 -0.0126  4.6158
  940MOL0     H24074   4.478  11.329   4.222  3.5289 -1.4498  2.5409
  940MOL0     H24075   4.315  11.267   4.249 -1.4616 -0.7735 -2.5253
  940MOL0     H24076   4.356  11.073   4.123  1.3969 -0.7021 -3.0730
  940MOL0     H24077   4.312  11.222   4.035  0.1689  1.2445  0.8738
  940MOL0     H24078   4.711  11.105   3.928  0.0490 -1.4179 -0.6707
  940MOL0     H24079   4.501  11.382   4.685  1.3763  0.9327 -1.5412
  940MOL0     H24080   4.609  11.487   4.873 -1.1696 -1.3536  2.0780
  941MOL0     O24081   2.506   0.790   1.913  0.0391  0.0236 -1.2587
  941MOL0     C24082   2.555   0.689   1.963 -0.0242  0.5427 -0.2152
  941MOL0     O24083   2.623   0.674   2.084 -0.4538 -0.3804  1.0965
  941MOL0     C24084   2.619   0.776   2.168  0.4165  0.8502 -0.0501
  941MOL0     C24085   2.702   0.880   2.153  0.2835 -0.4653 -0.6078
  941MOL0     C24086   2.712   0.979   2.253  0.1961 -0.9771  0.4325
  941MOL0     C24087   2.633   0.965   2.377  0.4416 -0.9216  0.5957
  941MOL0     O24088   2.668   1.039   2.485  0.2208 -0.0906  0.7486
  941MOL0     C24089   2.563   1.067   2.584 -0.0662 -0.3485  0.8385
  941MOL0     C24090   2.452   1.148   2.517  0.2908  1.3141  0.0376
  941MOL0     C24091   2.369   1.239   2.614 -0.3462 -0.1414  0.5485
  941MOL0     C24092   2.281   1.322   2.541  0.4743  0.0949 -0.2485
  941MOL0     C24093   2.189   1.389   2.647 -0.0259  0.6007  0.2291
  941MOL0     C24094   2.108   1.494   2.570  0.5746 -0.1094 -0.5173
  941MOL0     C24095   1.967   1.512   2.631 -0.3707  0.5314  0.7436
  941MOL0     C24096   1.876   1.389   2.612  0.5431  0.4650 -0.0363
  941MOL0     N24097   1.803   1.380   2.737 -0.7607 -0.3657  0.0659
  941MOL0     C24098   1.707   1.470   2.799  0.4567  0.7415  0.2862
  941MOL0     C24099   1.694   1.418   2.925  0.7499  0.3339 -0.3897
  941MOL0     C24100   1.619   1.480   3.040 -0.2280  0.1087  0.3065
  941MOL0     C24101   1.725   1.560   3.118 -0.0387  0.5683  0.0502
  941MOL0     C24102   1.661   1.616   3.244 -0.8050 -0.0643 -0.0572
  941MOL0     C24103   1.766   1.715   3.306  0.5815  0.0811  0.0397
  941MOL0     O24104   1.719   1.821   3.395  0.5426 -0.2823  0.1955
  941MOL0     C24105   1.823   1.878   3.468 -0.5288 -0.2127  1.1786
  941MOL0     C24106   1.837   2.016   3.446  0.3157  0.6839  0.4569
  941MOL0     C24107   1.946   2.086   3.495 -0.0576 -0.0224  0.0592
  941MOL0     C24108   2.048   2.022   3.562  0.1198 -1.0856  0.1387
  941MOL0     C24109   2.169   2.094   3.616  0.3664  0.0934 -0.2846
  941MOL0     O24110   2.184   2.216   3.550 -0.2854 -0.3571  0.3536
  941MOL0     C24111   2.309   2.262   3.550 -0.9256  0.5915  0.0324
  941MOL0     C24112   2.396   2.252   3.435  0.3311  0.7121 -1.8907
  941MOL0     C24113   2.530   2.303   3.442  0.8544  0.2136  0.8492
  941MOL0     C24114   2.571   2.377   3.545  0.1355 -1.2651 -0.2741
  941MOL0     O24115   2.704   2.421   3.544  0.0417 -0.1342 -0.3747
  941MOL0     C24116   2.754   2.493   3.647 -0.3264 -0.7917 -0.3139
  941MOL0     C24117   2.706   2.643   3.649 -0.9054 -0.5539  0.1399
  941MOL0     C24118   2.721   2.712   3.791  0.4648  1.1359  0.3143
  941MOL0     C24119   2.615   2.810   3.840 -0.3980  0.0779 -0.0518
  941MOL0     C24120   2.609   2.814   3.994  0.3229  0.3469 -0.3522
  941MOL0     C24121   2.740   2.813   4.074 -0.9796  0.0825  0.1250
  941MOL0     C24122   2.719   2.792   4.222  0.7194  1.2263  0.1918
  941MOL0     C24123   2.860   2.763   4.274 -0.9815  1.1226 -0.1662
  941MOL0    Cl24124   2.949   2.630   4.219 -0.1802 -0.3044 -0.0012
  941MOL0     C24125   2.490   2.395   3.662  0.5945  0.0970  0.0427
  941MOL0     C24126   2.359   2.332   3.661 -1.4510  0.5018 -0.8357
  941MOL0     O24127   2.253   2.040   3.698  0.1269 -0.3830  1.1180
  941MOL0     C24128   2.040   1.882   3.573 -0.6599  0.0575 -0.0866
  941MOL0     C24129   1.925   1.822   3.534 -0.4388 -0.2168  0.3630
  941MOL0     N24130   1.776   1.307   2.935  0.6594 -0.0418  0.4762
  941MOL0     N24131   1.843   1.283   2.824  0.2962  0.0866  0.0008
  941MOL0     C24132   2.550   0.847   2.386 -0.8098  0.2036  0.4864
  941MOL0     C24133   2.548   0.756   2.282 -0.2845 -0.8808  0.3984
  941MOL0     C24134   2.556   0.570   1.874 -0.6060 -0.0504 -0.8751
  941MOL0     C24135   2.619   0.451   1.916 -0.5834 -0.3099  0.2396
  941MOL0     C24136   2.611   0.338   1.842 -0.4056 -0.1264  0.1283
  941MOL0     C24137   2.548   0.326   1.721  0.3694 -0.5492 -0.5470
  941MOL0     O24138   2.548   0.213   1.646 -0.7243  0.0939 -0.0021
  941MOL0     C24139   2.656   0.115   1.649 -0.5959 -0.0858  0.1498
  941MOL0     C24140   2.626  -0.009   1.561  0.8891 -0.4942  0.4254
  941MOL0     C24141   2.510  -0.086   1.616 -0.2522  0.2055  0.1473
  941MOL0     C24142   2.477  -0.196   1.516  0.2748  0.4699  0.0841
  941MOL0     C24143   2.588  -0.294   1.506 -0.4237 -1.0485  0.1382
  941MOL0     C24144   2.670  -0.378   1.507 -0.1255 -1.1361 -1.0450
  941MOL0     C24145   2.499   0.445   1.668 -1.2077 -0.2545  0.1787
  941MOL0     C24146   2.499   0.568   1.743  1.0503 -1.0922 -0.4556
  941MOL0     H24147   2.762   0.888   2.062  1.8589  1.5290  0.5206
  941MOL0     H24148   2.791   1.049   2.228  1.5286 -2.3538  0.6447
  941MOL0     H24149   2.605   1.142   2.652  1.1457 -0.8312  0.6438
  941MOL0     H24150   2.536   0.975   2.638 -0.4386 -0.3906  0.5854
  941MOL0     H24151   2.386   1.071   2.475  0.3471  1.9410 -1.2286
  941MOL0     H24152   2.493   1.213   2.440  1.8960 -1.5874 -1.7268
  941MOL0     H24153   2.439   1.288   2.682  1.2424 -0.6204 -0.6855
  941MOL0     H24154   2.314   1.157   2.662  3.1722 -5.1512 -3.0168
  941MOL0     H24155   2.341   1.396   2.488  0.8789  2.3000  2.9750
  941MOL0     H24156   2.214   1.259   2.482  0.2309  1.2543 -1.2360
  941MOL0     H24157   2.247   1.438   2.725 -1.1589 -0.0821  1.5300
  941MOL0     H24158   2.125   1.316   2.696  0.8034 -0.1115  0.2829
  941MOL0     H24159   2.095   1.447   2.472  1.4408  0.3105 -0.8411
  941MOL0     H24160   2.171   1.582   2.555  2.3426 -1.7719 -4.1467
  941MOL0     H24161   1.985   1.536   2.737  0.9390 -0.6628  0.8164
  941MOL0     H24162   1.919   1.601   2.589 -1.5400 -0.1351  0.6047
  941MOL0     H24163   1.936   1.300   2.590 -0.4736 -0.0757 -0.7033
  941MOL0     H24164   1.810   1.405   2.526  0.5009 -0.7108 -0.2458
  941MOL0     H24165   1.650   1.559   2.774 -2.3598 -0.8176  0.7747
  941MOL0     H24166   1.580   1.411   3.115 -1.0677  1.3004  0.9924
  941MOL0     H24167   1.545   1.549   2.999 -0.1728 -0.3776 -0.6395
  941MOL0     H24168   1.767   1.646   3.064 -0.9298  2.1321  1.7316
  941MOL0     H24169   1.808   1.491   3.132  2.8550  3.5660 -1.1586
  941MOL0     H24170   1.574   1.673   3.211 -0.6415  0.3288  0.1935
  941MOL0     H24171   1.638   1.543   3.322  1.6348  1.6611  2.4508
  941MOL0     H24172   1.826   1.760   3.226  0.1725 -1.0040 -0.9006
  941MOL0     H24173   1.818   1.637   3.362 -3.8810 -1.8352  1.9287
  941MOL0     H24174   1.749   2.055   3.395 -0.2862 -0.6002  0.4595
  941MOL0     H24175   1.948   2.195   3.490  4.7776  0.1136  0.5162
  941MOL0     H24176   2.375   2.204   3.340  2.1045  1.7206 -2.8536
  941MOL0     H24177   2.593   2.288   3.354 -1.4654  0.1160 -0.8849
  941MOL0     H24178   2.863   2.490   3.637 -0.3686 -2.1250 -0.6270
  941MOL0     H24179   2.739   2.443   3.743 -0.1109  0.6107  0.4779
  941MOL0     H24180   2.599   2.648   3.626 -0.6565 -0.9832 -1.1837
  941MOL0     H24181   2.759   2.711   3.582  2.8091 -3.3550 -0.0831
  941MOL0     H24182   2.819   2.760   3.803  0.4128  0.9137  1.9791
  941MOL0     H24183   2.705   2.631   3.864 -2.3455  1.9909  0.7534
  941MOL0     H24184   2.650   2.911   3.816 -0.4314  0.3919  1.1841
  941MOL0     H24185   2.514   2.789   3.801 -0.7657 -0.6392  1.2370
  941MOL0     H24186   2.564   2.718   4.020 -0.7622  1.5397  2.7580
  941MOL0     H24187   2.546   2.893   4.037 -1.1130 -0.3016 -1.1875
  941MOL0     H24188   2.798   2.905   4.069 -0.0949 -0.5055 -0.9358
  941MOL0     H24189   2.812   2.740   4.036 -1.0951 -0.1264  0.2978
  941MOL0     H24190   2.681   2.881   4.273  4.1778  2.0294  1.6107
  941MOL0     H24191   2.650   2.709   4.242  4.4210 -1.7727  1.8481
  941MOL0     H24192   2.850   2.746   4.382 -0.2166  3.0576  0.2626
  941MOL0     H24193   2.931   2.844   4.254  1.0088 -0.8603 -1.5197
  941MOL0     H24194   2.519   2.450   3.751 -0.7262 -0.4142  0.8135
  941MOL0     H24195   2.302   2.342   3.753  0.0019  3.3587 -0.1107
  941MOL0     H24196   2.118   1.815   3.606  1.6164 -0.3265 -5.3697
  941MOL0     H24197   1.923   1.717   3.559  1.3226  0.1694  2.3746
  941MOL0     H24198   2.502   0.809   2.476 -1.3340 -3.9024 -1.3062
  941MOL0     H24199   2.481   0.671   2.292  0.1974 -1.7583 -2.8196
  941MOL0     H24200   2.663   0.453   2.016  0.0128  0.0808 -0.0298
  941MOL0     H24201   2.664   0.253   1.885  1.2041  0.1885 -1.1027
  941MOL0     H24202   2.660   0.078   1.752 -2.4206  0.6684  0.5207
  941MOL0     H24203   2.755   0.154   1.624 -0.5418 -1.4596 -2.0859
  941MOL0     H24204   2.611   0.011   1.455  3.1813  1.2973  0.3568
  941MOL0     H24205   2.717  -0.070   1.567  1.3740  0.2559  0.7403
  941MOL0     H24206   2.417  -0.026   1.620 -0.7138 -0.5266  0.5712
  941MOL0     H24207   2.523  -0.127   1.717 -1.0309 -0.2826  0.0640
  941MOL0     H24208   2.392  -0.252   1.556  0.2051 -0.6843 -1.5680
  941MOL0     H24209   2.453  -0.163   1.414 -0.5260 -0.2155  0.0399
  941MOL0     H24210   2.748  -0.450   1.522  0.6495  0.0517  1.1262
  941MOL0     H24211   2.465   0.428   1.566  1.1323 -1.2227 -0.5027
  941MOL0     H24212   2.464   0.659   1.696  1.6687  0.9016  2.6085
  942MOL0     O24213   1.065   4.415   3.592 -0.8985  0.1816 -0.4421
  942MOL0     C24214   1.098   4.370   3.701  0.0309 -0.0173 -0.2084
  942MOL0     O24215   1.040   4.265   3.766 -0.8553  0.0848  0.2464
  942MOL0     C24216   0.937   4.203   3.712 -0.4729  0.0827 -0.6003
  942MOL0     C24217   0.809   4.250   3.694 -0.2575  0.5205  0.1712
  942MOL0     C24218   0.712   4.165   3.641  0.1197  0.2835 -0.1515
  942MOL0     C24219   0.748   4.029   3.608 -0.6921 -0.2858 -0.2571
  942MOL0     O24220   0.645   3.955   3.558  0.2451  0.0636  0.2903
  942MOL0     C24221   0.656   3.809   3.588 -0.5239  0.6375 -0.3475
  942MOL0     C24222   0.527   3.748   3.561 -0.3535  0.7534  0.5371
  942MOL0     C24223   0.506   3.757   3.412  0.3417  1.1922 -0.7253
  942MOL0     C24224   0.371   3.682   3.383 -0.3351  0.3126  0.6624
  942MOL0     C24225   0.321   3.712   3.234 -0.1561  0.3237 -1.7701
  942MOL0     C24226   0.392   3.602   3.144 -0.3394  0.5310  0.2157
  942MOL0     C24227   0.353   3.622   3.001 -0.0755 -0.6582 -0.0713
  942MOL0     C24228   0.427   3.531   2.900  0.9049 -0.5169 -0.7227
  942MOL0     N24229   0.356   3.546   2.768  0.5355  0.3311  0.0789
  942MOL0     C24230   0.299   3.441   2.696  0.0602 -0.0286  0.2056
  942MOL0     C24231   0.262   3.487   2.578 -0.1099  0.3025  0.5084
  942MOL0     C24232   0.205   3.402   2.476  0.1817  0.9149 -0.6705
  942MOL0     C24233   0.149   3.474   2.348 -0.4973  0.6638  0.4959
  942MOL0     C24234   0.115   3.385   2.222 -0.2880 -0.2629 -0.1757
  942MOL0     C24235   0.228   3.313   2.149  0.7946  0.3421 -1.0084
  942MOL0     O24236   0.248   3.200   2.231  0.3923 -0.1904 -0.0321
  942MOL0     C24237   0.368   3.132   2.239  0.1949  1.0869 -0.2230
  942MOL0     C24238   0.363   3.021   2.338 -0.2478  0.5501  0.5157
  942MOL0     C24239   0.475   2.945   2.359 -0.1240 -0.2406 -0.5203
  942MOL0     C24240   0.593   2.969   2.283 -0.0492 -0.6119 -0.4847
  942MOL0     C24241   0.707   2.888   2.302 -0.1967  0.1514  0.8839
  942MOL0     O24242   0.686   2.789   2.394 -0.0532  0.6213 -0.5100
  942MOL0     C24243   0.774   2.686   2.409  0.7361  0.4086  1.2626
  942MOL0     C24244   0.710   2.565   2.429  0.1268 -0.3873 -0.9211
  942MOL0     C24245   0.780   2.449   2.420 -0.1585 -0.3470  0.4581
  942MOL0     C24246   0.922   2.451   2.401  0.3251 -0.2178  0.1738
  942MOL0     O24247   0.995   2.343   2.417  0.8519 -0.3801 -0.3484
  942MOL0     C24248   0.942   2.209   2.413  0.4421 -0.6105  0.2332
  942MOL0     C24249   1.034   2.113   2.474 -0.5184 -0.0777 -0.3502
  942MOL0     C24250   1.037   2.112   2.624  0.1062  0.8514  0.9064
  942MOL0     C24251   1.176   2.065   2.658 -0.4586  0.0387 -0.7853
  942MOL0     C24252   1.180   2.021   2.812  0.2648  0.4393 -1.0129
  942MOL0     C24253   1.111   1.883   2.829  1.3841  1.2918 -0.3972
  942MOL0     C24254   1.143   1.812   2.963 -0.2095 -0.3021  0.0143
  942MOL0     C24255   1.279   1.731   2.981  0.3200 -0.2492 -0.2044
  942MOL0    Cl24256   1.419   1.833   2.978  0.8753  0.4424 -0.3094
  942MOL0     C24257   0.987   2.577   2.385  0.0247 -0.2542  0.5203
  942MOL0     C24258   0.914   2.690   2.388  0.4728  0.2916 -0.1518
  942MOL0     O24259   0.813   2.918   2.246 -0.4582 -0.2348  0.3862
  942MOL0     C24260   0.598   3.067   2.182  0.2432  0.1442 -0.4515
  942MOL0     C24261   0.484   3.141   2.165  0.4341 -0.1136  1.4992
  942MOL0     N24262   0.310   3.611   2.570 -0.1507  0.1317 -0.4014
  942MOL0     N24263   0.373   3.642   2.675  1.4585  0.9202 -0.0207
  942MOL0     C24264   0.878   3.983   3.625  0.1984 -0.7439 -0.5411
  942MOL0     C24265   0.974   4.078   3.678  0.2282 -0.1604  1.5552
  942MOL0     C24266   1.227   4.416   3.763  0.8774 -0.5053  1.2411
  942MOL0     C24267   1.263   4.368   3.892 -1.0374 -1.5110  0.2363
  942MOL0     C24268   1.389   4.419   3.943  1.2218  1.0630 -0.4171
  942MOL0     C24269   1.469   4.508   3.873 -0.5345 -1.2915  0.8242
  942MOL0     O24270   1.576   4.574   3.943  0.8846  0.0908 -0.0973
  942MOL0     C24271   1.694   4.615   3.875  0.4271  0.2304 -0.2706
  942MOL0     C24272   1.812   4.569   3.960 -0.1893  0.7455  0.0165
  942MOL0     C24273   1.956   4.596   3.899 -0.8334 -0.4289  0.5276
  942MOL0     C24274   1.987   4.500   3.786  0.6463 -0.5123  0.2932
  942MOL0     C24275   2.129   4.506   3.753 -0.3005  0.0907  0.6097
  942MOL0     C24276   2.235   4.514   3.697 -0.6256  1.2002 -0.2047
  942MOL0     C24277   1.443   4.534   3.734  0.9287 -1.0030 -0.3272
  942MOL0     C24278   1.316   4.493   3.681 -0.7460 -0.4335  0.1751
  942MOL0     H24279   0.806   4.357   3.715 -0.2097  0.0476  2.9238
  942MOL0     H24280   0.613   4.208   3.626 -0.7000 -0.4744  2.4988
  942MOL0     H24281   0.665   3.783   3.694  1.9131 -0.3339 -0.7333
  942MOL0     H24282   0.737   3.762   3.531 -0.9247 -0.9893  0.3782
  942MOL0     H24283   0.449   3.789   3.626 -1.4320 -0.1913 -0.1261
  942MOL0     H24284   0.528   3.647   3.603  0.0856  1.2037  1.6678
  942MOL0     H24285   0.578   3.692   3.362 -1.5893 -1.1169 -0.7118
  942MOL0     H24286   0.516   3.857   3.370  2.1396  1.4486  0.2198
  942MOL0     H24287   0.370   3.573   3.399 -2.4876  0.6288  3.3029
  942MOL0     H24288   0.297   3.724   3.450 -2.7444 -1.1610 -0.9270
  942MOL0     H24289   0.329   3.819   3.211 -0.3622  0.7501 -0.0262
  942MOL0     H24290   0.215   3.687   3.241  0.1621 -0.7250  2.8934
  942MOL0     H24291   0.368   3.499   3.174  2.9337 -0.1334  0.9873
  942MOL0     H24292   0.500   3.613   3.136 -0.1980 -1.2929 -1.0536
  942MOL0     H24293   0.246   3.606   2.993  0.2324 -2.1521 -1.6542
  942MOL0     H24294   0.371   3.728   2.981 -2.4328  0.4811  3.0354
  942MOL0     H24295   0.427   3.427   2.937 -0.5674 -0.3857 -0.2964
  942MOL0     H24296   0.532   3.561   2.900  0.8234 -0.0542  1.4869
  942MOL0     H24297   0.286   3.341   2.735  2.6812 -0.7489 -0.5878
  942MOL0     H24298   0.139   3.331   2.527  1.6890  0.4126  0.6786
  942MOL0     H24299   0.292   3.342   2.446 -0.2357 -0.6393  1.0430
  942MOL0     H24300   0.220   3.545   2.304 -1.2563  0.9047 -0.3702
  942MOL0     H24301   0.063   3.532   2.382  0.7496  1.0458  3.2945
  942MOL0     H24302   0.033   3.317   2.247  0.4296 -1.2681 -0.4711
  942MOL0     H24303   0.079   3.452   2.144  1.5182  2.1863  0.9416
  942MOL0     H24304   0.314   3.379   2.135 -0.1500  1.5427 -1.3420
  942MOL0     H24305   0.208   3.270   2.051  0.4399  0.2459 -0.8933
  942MOL0     H24306   0.276   2.990   2.394  0.3706  1.1234  1.8256
  942MOL0     H24307   0.467   2.875   2.441  0.0823 -0.8879 -1.0387
  942MOL0     H24308   0.601   2.564   2.432  0.0455 -0.5893 -2.6117
  942MOL0     H24309   0.734   2.352   2.403  0.7152 -0.4493 -1.7901
  942MOL0     H24310   0.908   2.192   2.310 -4.7920 -0.6298  1.6887
  942MOL0     H24311   0.851   2.197   2.472 -0.5426 -0.0522 -1.1022
  942MOL0     H24312   1.135   2.116   2.430  1.0438 -2.4686  2.7072
  942MOL0     H24313   0.996   2.017   2.439  2.6252 -1.2444 -0.8719
  942MOL0     H24314   0.958   2.058   2.677 -0.2400  2.3359  1.9953
  942MOL0     H24315   1.029   2.211   2.671  1.1470  0.9483  0.9068
  942MOL0     H24316   1.192   1.975   2.598  4.3541  2.2331 -3.3556
  942MOL0     H24317   1.260   2.132   2.636  0.8764  0.4173  4.2507
  942MOL0     H24318   1.137   2.098   2.876  0.7802 -1.1573  1.3945
  942MOL0     H24319   1.287   2.012   2.835  0.3312 -2.5008 -1.9903
  942MOL0     H24320   1.133   1.817   2.745  0.0168  0.8170 -0.3952
  942MOL0     H24321   1.003   1.895   2.821  0.9507 -0.9966  0.9333
  942MOL0     H24322   1.130   1.879   3.049 -1.6558 -2.2780  1.4305
  942MOL0     H24323   1.070   1.731   2.977  0.8246 -0.9011  2.4070
  942MOL0     H24324   1.288   1.659   2.899  1.7440  1.4178 -1.5810
  942MOL0     H24325   1.276   1.665   3.068  0.0475  0.5774  0.4308
  942MOL0     H24326   1.095   2.566   2.377 -0.1713 -3.7935  1.3233
  942MOL0     H24327   0.965   2.783   2.368 -1.5821  1.8680  1.4771
  942MOL0     H24328   0.690   3.073   2.124  0.2177 -1.2885 -0.6808
  942MOL0     H24329   0.482   3.230   2.102  3.2623  0.6017  2.2577
  942MOL0     H24330   0.908   3.884   3.593  1.0656 -1.4242  2.0991
  942MOL0     H24331   1.077   4.045   3.690  0.4729 -0.6473 -1.1567
  942MOL0     H24332   1.193   4.301   3.940 -0.4211 -2.1972  0.1881
  942MOL0     H24333   1.412   4.384   4.043  1.4444  0.4673 -0.6727
  942MOL0     H24334   1.691   4.724   3.876  1.3334  0.2683  1.1558
  942MOL0     H24335   1.699   4.576   3.773 -0.8459  1.0489 -0.6626
  942MOL0     H24336   1.809   4.613   4.060  0.5441 -0.6415  0.6684
  942MOL0     H24337   1.805   4.462   3.979  2.1078  0.5674  0.0722
  942MOL0     H24338   2.032   4.590   3.977 -0.8643 -0.0433  0.5923
  942MOL0     H24339   1.972   4.695   3.855  2.0103 -0.0781  2.1210
  942MOL0     H24340   1.971   4.395   3.811  1.7550 -1.6460 -3.1875
  942MOL0     H24341   1.931   4.543   3.702  3.2048  0.9797 -0.7692
  942MOL0     H24342   2.323   4.503   3.637  0.5159 -3.3827  1.7666
  942MOL0     H24343   1.500   4.590   3.661  0.8376 -0.6390 -0.1206
  942MOL0     H24344   1.285   4.520   3.581 -3.5450  1.1007  1.3357
  943MOL0     O24345   0.045   2.938   6.894  0.1121 -0.5229 -0.1801
  943MOL0     C24346   0.152   2.959   6.944 -0.4752 -0.6704 -0.5401
  943MOL0     O24347   0.255   3.012   6.881 -0.1201  0.0926  0.5457
  943MOL0     C24348   0.255   3.048   6.744  0.0186 -1.1706 -0.8436
  943MOL0     C24349   0.144   3.106   6.676  0.1687 -0.3957 -0.5542
  943MOL0     C24350   0.142   3.136   6.542 -0.3862  0.2881  1.1402
  943MOL0     C24351   0.259   3.124   6.466 -0.9716  0.0369  0.4559
  943MOL0     O24352   0.279   3.146   6.328  0.3202  0.8644 -0.7003
  943MOL0     C24353   0.195   3.059   6.251 -0.3246 -0.6271  0.6380
  943MOL0     C24354   0.183   3.100   6.108 -0.0013 -0.6481  0.7863
  943MOL0     C24355   0.064   3.035   6.047  0.4914 -0.0364  0.3394
  943MOL0     C24356   0.047   3.058   5.897  0.9635  0.2254 -0.9095
  943MOL0     C24357  -0.073   2.984   5.832  1.0870 -0.1885  0.2041
  943MOL0     C24358  -0.105   3.036   5.691 -0.2760 -1.0075  0.0182
  943MOL0     C24359  -0.236   2.981   5.639  0.2998  0.2957 -0.6801
  943MOL0     C24360  -0.238   2.827   5.604 -0.7443 -0.2757 -0.6162
  943MOL0     N24361  -0.329   2.750   5.695 -0.2883 -0.2247  0.9541
  943MOL0     C24362  -0.460   2.726   5.671  0.6291 -0.1363  0.1053
  943MOL0     C24363  -0.485   2.637   5.760  0.3700 -0.3998 -0.2850
  943MOL0     C24364  -0.623   2.584   5.781 -0.1374  0.8312 -0.5999
  943MOL0     C24365  -0.638   2.430   5.787 -0.4271 -0.7508 -0.0389
  943MOL0     C24366  -0.604   2.362   5.658 -0.8873  0.8041  0.8789
  943MOL0     C24367  -0.646   2.216   5.672  1.0791 -1.1520 -0.6569
  943MOL0     O24368  -0.622   2.152   5.549  1.1005 -0.0355 -0.0183
  943MOL0     C24369  -0.714   2.136   5.443 -0.8598 -0.5192 -0.2913
  943MOL0     C24370  -0.830   2.208   5.436 -0.9399  0.6957  1.0710
  943MOL0     C24371  -0.918   2.199   5.323 -0.1178 -0.1509  0.4948
  943MOL0     C24372  -0.888   2.112   5.221  0.7615  0.2575 -0.2118
  943MOL0     C24373  -0.979   2.106   5.099 -0.4479 -0.5206  1.5587
  943MOL0     O24374  -0.953   2.015   4.998 -0.8278 -0.7961 -0.3593
  943MOL0     C24375  -0.993   2.024   4.871  0.6541  0.1824  0.0040
  943MOL0     C24376  -1.118   1.967   4.828  0.3916 -0.6808 -0.3716
  943MOL0     C24377  -1.157   1.977   4.694  0.0163 -0.0634  0.1891
  943MOL0     C24378  -1.079   2.053   4.605  0.0103 -0.3951 -0.7647
  943MOL0     O24379  -1.134   2.077   4.484 -0.2856  0.7621 -0.1478
  943MOL0     C24380  -1.078   2.167   4.384 -0.1938  0.2828  0.3981
  943MOL0     C24381  -1.188   2.200   4.275  0.8323  0.3367  0.1785
  943MOL0     C24382  -1.143   2.254   4.131  0.3109  0.8560 -0.5040
  943MOL0     C24383  -1.114   2.150   4.023  0.0020  0.1088 -0.2147
  943MOL0     C24384  -1.063   2.222   3.896  0.6294 -0.6486 -0.5238
  943MOL0     C24385  -1.059   2.132   3.773 -0.3949 -0.3680 -0.2479
  943MOL0     C24386  -1.001   2.206   3.651  0.2497 -0.6164  0.4878
  943MOL0     C24387  -0.980   2.107   3.527 -0.1470  0.4517  0.0689
  943MOL0    Cl24388  -0.851   1.984   3.549 -0.3416 -0.1025 -0.1015
  943MOL0     C24389  -0.959   2.105   4.643 -0.1041 -0.9403 -0.1562
  943MOL0     C24390  -0.911   2.095   4.778 -0.5197  1.1790  0.0916
  943MOL0     O24391  -1.071   2.195   5.083 -0.9701  0.2665  0.5542
  943MOL0     C24392  -0.779   2.023   5.244 -0.0091 -0.6246 -0.7895
  943MOL0     C24393  -0.690   2.038   5.347 -0.0405 -0.6065 -0.3172
  943MOL0     N24394  -0.374   2.611   5.848 -0.7332 -0.2596  0.2260
  943MOL0     N24395  -0.273   2.683   5.802  0.0637 -0.1081  0.4613
  943MOL0     C24396   0.376   3.076   6.529 -0.2312  0.0474 -0.7134
  943MOL0     C24397   0.366   3.031   6.666 -0.5060 -0.2516 -0.1921
  943MOL0     C24398   0.181   2.924   7.089  0.4935  0.3958  0.1809
  943MOL0     C24399   0.263   3.015   7.161  0.0776  0.5538 -0.5006
  943MOL0     C24400   0.308   2.991   7.294 -0.3972 -0.0312 -0.5210
  943MOL0     C24401   0.285   2.862   7.346  0.3405 -0.6363 -0.0078
  943MOL0     O24402   0.330   2.821   7.472  0.3381 -0.1050 -0.3268
  943MOL0     C24403   0.397   2.904   7.565 -0.0369 -0.6054  0.9502
  943MOL0     C24404   0.440   2.823   7.683 -0.9709 -0.0048  0.7178
  943MOL0     C24405   0.507   2.896   7.794  0.6820  0.6047 -0.2141
  943MOL0     C24406   0.614   2.822   7.877 -0.8336  0.0949 -0.1043
  943MOL0     C24407   0.719   2.742   7.810  1.1592 -0.2723 -0.1862
  943MOL0     C24408   0.793   2.670   7.762 -0.4091  0.6319  0.1919
  943MOL0     C24409   0.194   2.790   7.273 -0.3192  0.3377 -0.5080
  943MOL0     C24410   0.141   2.812   7.153 -0.5448  0.8603  0.3094
  943MOL0     H24411   0.054   3.122   6.735 -0.9654  4.1353 -3.0759
  943MOL0     H24412   0.062   3.201   6.508  1.0282  0.9991 -1.0208
  943MOL0     H24413   0.093   3.055   6.291 -1.2265 -0.1602 -1.4732
  943MOL0     H24414   0.252   2.966   6.252  1.9523  0.7048  1.1604
  943MOL0     H24415   0.268   3.070   6.045  0.6980  0.5303  1.1396
  943MOL0     H24416   0.177   3.208   6.097  3.2850 -0.5306 -1.1687
  943MOL0     H24417  -0.026   3.083   6.087 -0.6760 -1.9195  0.0590
  943MOL0     H24418   0.057   2.926   6.056 -2.4942 -0.2528 -2.7361
  943MOL0     H24419   0.045   3.167   5.884 -2.0307  0.1825 -1.4339
  943MOL0     H24420   0.140   3.026   5.849 -0.7285 -1.8204 -3.0618
  943MOL0     H24421  -0.155   3.011   5.899  0.9466  3.8863 -1.3121
  943MOL0     H24422  -0.063   2.875   5.833  1.4465 -0.1859  2.8636
  943MOL0     H24423  -0.015   3.022   5.629 -0.3914 -0.6023 -0.2440
  943MOL0     H24424  -0.114   3.145   5.694  0.5551 -0.8895 -1.1420
  943MOL0     H24425  -0.315   3.006   5.710  0.9157  2.1934 -0.6152
  943MOL0     H24426  -0.271   3.027   5.546 -0.6505  1.8962  0.4346
  943MOL0     H24427  -0.134   2.792   5.610 -0.2250  1.2751 -0.0465
  943MOL0     H24428  -0.268   2.809   5.501  1.0221 -2.0559 -0.8763
  943MOL0     H24429  -0.535   2.762   5.602 -0.4559 -2.8099 -0.2092
  943MOL0     H24430  -0.678   2.628   5.698  2.1651  0.9006 -2.1798
  943MOL0     H24431  -0.674   2.614   5.874 -2.5335 -1.5493 -1.0140
  943MOL0     H24432  -0.735   2.406   5.829  0.3461 -1.0372  1.6546
  943MOL0     H24433  -0.566   2.390   5.858 -2.2865 -3.5277  0.4421
  943MOL0     H24434  -0.656   2.400   5.570  0.0280 -1.6868 -0.8227
  943MOL0     H24435  -0.495   2.368   5.647 -1.0255  0.3238 -0.9764
  943MOL0     H24436  -0.754   2.212   5.693  0.2324 -2.6629 -4.4427
  943MOL0     H24437  -0.598   2.163   5.755 -0.8069 -2.4312 -0.2942
  943MOL0     H24438  -0.848   2.286   5.510  3.6595  1.8509  1.3154
  943MOL0     H24439  -1.012   2.252   5.319  1.0356  1.9044 -1.0486
  943MOL0     H24440  -1.178   1.899   4.886 -1.9797 -1.2814 -3.2777
  943MOL0     H24441  -1.254   1.941   4.662  0.4267 -1.5877  0.5652
  943MOL0     H24442  -0.995   2.119   4.332 -0.2549 -0.7263  1.1973
  943MOL0     H24443  -1.045   2.258   4.434  2.9573 -0.4884 -0.1072
  943MOL0     H24444  -1.228   2.287   4.328  0.6619  0.5541 -0.2931
  943MOL0     H24445  -1.268   2.127   4.259  0.6678  0.6927 -0.7130
  943MOL0     H24446  -1.060   2.323   4.147  1.8856 -0.9617 -0.5728
  943MOL0     H24447  -1.224   2.315   4.090  0.2738  0.8797 -0.3968
  943MOL0     H24448  -1.045   2.077   4.067 -0.1644  0.2847  0.3361
  943MOL0     H24449  -1.210   2.106   3.993 -0.0202  1.0171 -1.5840
  943MOL0     H24450  -0.961   2.253   3.921  0.2253  0.2826 -0.0045
  943MOL0     H24451  -1.122   2.312   3.878  2.9885  0.8234 -1.4632
  943MOL0     H24452  -1.151   2.073   3.764  1.2767 -3.1772  0.0461
  943MOL0     H24453  -0.986   2.052   3.788  0.7762  0.5157 -1.0856
  943MOL0     H24454  -1.064   2.284   3.607  1.6940 -0.5702 -1.6511
  943MOL0     H24455  -0.903   2.242   3.684  1.2373 -2.7481  0.0303
  943MOL0     H24456  -0.959   2.166   3.436 -0.7214  3.0605  1.5151
  943MOL0     H24457  -1.072   2.050   3.510  0.0539  0.9408 -3.5225
  943MOL0     H24458  -0.888   2.148   4.573  0.9013 -2.7387 -0.3146
  943MOL0     H24459  -0.812   2.124   4.813  0.6839 -2.8771  0.6362
  943MOL0     H24460  -0.761   1.947   5.169 -1.0924 -0.9128 -0.7752
  943MOL0     H24461  -0.610   1.966   5.358  2.4992  2.0185 -0.4790
  943MOL0     H24462   0.472   3.070   6.479  1.0386 -2.3173  1.7472
  943MOL0     H24463   0.453   2.993   6.719 -0.9304  2.1838  2.5027
  943MOL0     H24464   0.294   3.103   7.105  0.6376  1.1446  0.6931
  943MOL0     H24465   0.373   3.065   7.339 -1.3256  2.0987 -2.4566
  943MOL0     H24466   0.332   2.988   7.588 -1.4316 -1.2869 -0.3309
  943MOL0     H24467   0.485   2.949   7.517 -1.6017 -0.5029 -2.0657
  943MOL0     H24468   0.351   2.768   7.715 -0.4395 -1.1535  0.2932
  943MOL0     H24469   0.504   2.738   7.657 -0.6833 -0.5241  2.9535
  943MOL0     H24470   0.420   2.922   7.856 -0.3857 -0.1851 -1.3291
  943MOL0     H24471   0.548   2.989   7.753 -0.1439  2.1832  2.2824
  943MOL0     H24472   0.658   2.900   7.940 -2.5313  1.3096 -0.3470
  943MOL0     H24473   0.576   2.754   7.954  1.6406 -1.1654  0.1246
  943MOL0     H24474   0.865   2.608   7.713 -1.6698 -1.8363  1.2771
  943MOL0     H24475   0.152   2.709   7.332  2.3002 -2.3864 -2.0371
  943MOL0     H24476   0.072   2.741   7.108 -1.6893 -0.5399  3.9679
  944MOL0     O24477  11.376   2.216   1.683 -0.1635 -0.5258  0.0989
  944MOL0     C24478  11.480   2.155   1.707  0.4227 -0.0611  0.0280
  944MOL0     O24479  11.492   2.018   1.736 -0.3438  0.1252  0.6601
  944MOL0     C24480  11.377   1.942   1.748  0.2148  0.1592  0.0542
  944MOL0     C24481  11.303   1.914   1.862 -0.0405  0.7351 -0.4474
  944MOL0     C24482  11.190   1.831   1.840 -0.1619  0.3956  0.3721
  944MOL0     C24483  11.138   1.792   1.719 -0.2004 -1.1969  0.5468
  944MOL0     O24484  11.034   1.702   1.727  0.2774 -0.1987  0.2137
  944MOL0     C24485  11.034   1.593   1.635  0.2864 -0.5174 -0.5194
  944MOL0     C24486  10.906   1.516   1.658 -0.5360  0.6430 -0.3230
  944MOL0     C24487  10.779   1.536   1.568 -0.5489 -0.0934 -0.3339
  944MOL0     C24488  10.790   1.481   1.423  0.1723  0.5355  0.2046
  944MOL0     C24489  10.676   1.509   1.317 -0.5981 -0.0196 -0.7640
  944MOL0     C24490  10.540   1.465   1.366  0.1934  0.4563 -0.2505
  944MOL0     C24491  10.536   1.309   1.399 -0.6653  0.2705 -0.2600
  944MOL0     C24492  10.547   1.225   1.276 -0.2552  0.0344  0.5666
  944MOL0     N24493  10.437   1.136   1.266 -0.2070  0.2719  0.3983
  944MOL0     C24494  10.333   1.155   1.175  0.2545  0.5478 -0.3102
  944MOL0     C24495  10.258   1.044   1.183  0.5353  0.0884  0.1831
  944MOL0     C24496  10.123   1.024   1.103  0.1208 -0.7048 -0.5672
  944MOL0     C24497  10.111   0.934   0.983 -0.4577  0.9923  0.3043
  944MOL0     C24498   9.972   0.919   0.917 -0.1021  0.5948 -0.3533
  944MOL0     C24499   9.970   0.839   0.788 -0.8240 -0.2741  0.9716
  944MOL0     O24500   9.857   0.867   0.703  0.2914  0.2964  0.2781
  944MOL0     C24501   9.858   0.828   0.573 -0.0584 -0.1320 -0.4943
  944MOL0     C24502   9.761   0.874   0.482 -0.8203 -0.8490 -0.6880
  944MOL0     C24503   9.766   0.834   0.346 -0.5161 -0.7642  0.2932
  944MOL0     C24504   9.877   0.768   0.284  0.2450 -0.0736 -0.4155
  944MOL0     C24505   9.886   0.750   0.141  0.6216  0.0173 -0.1013
  944MOL0     O24506   9.973   0.655   0.094 -0.6467  0.0929 -0.8738
  944MOL0     C24507  10.003   0.658  -0.039 -0.6477  0.4744  0.5113
  944MOL0     C24508  10.136   0.675  -0.077  0.4091  0.5767  0.1418
  944MOL0     C24509  10.161   0.693  -0.212 -0.4216 -0.3217  1.0321
  944MOL0     C24510  10.058   0.694  -0.310 -0.0116  0.8047 -0.2335
  944MOL0     O24511  10.087   0.720  -0.441 -0.5284  0.1553  0.0059
  944MOL0     C24512  10.119   0.857  -0.471 -0.4135  0.0652  0.0333
  944MOL0     C24513  10.162   0.882  -0.611 -0.3670 -0.9398  0.7904
  944MOL0     C24514  10.199   1.031  -0.635 -0.2774  0.6244 -1.5906
  944MOL0     C24515  10.249   1.052  -0.785 -0.2330  0.3566 -0.1894
  944MOL0     C24516  10.149   1.012  -0.890 -0.5895  0.3760  0.2966
  944MOL0     C24517  10.179   0.869  -0.944 -0.2011 -0.5515 -0.4104
  944MOL0     C24518  10.083   0.841  -1.062  0.0194  0.2623 -0.5446
  944MOL0     C24519  10.142   0.740  -1.155 -1.1680 -0.0384  1.0934
  944MOL0    Cl24520  10.165   0.573  -1.076 -0.0315  0.0071  0.1374
  944MOL0     C24521   9.934   0.679  -0.266  0.8739 -0.2270 -0.6808
  944MOL0     C24522   9.900   0.653  -0.133  0.3092  0.4700  0.1152
  944MOL0     O24523   9.832   0.832   0.071 -0.7236 -0.2810 -0.0223
  944MOL0     C24524   9.985   0.741   0.378 -0.1141  0.1189 -0.8679
  944MOL0     C24525   9.969   0.752   0.518  0.9668  0.0313  0.4070
  944MOL0     N24526  10.314   0.960   1.276 -0.4290  0.4799 -0.0754
  944MOL0     N24527  10.422   1.011   1.319  0.5186  0.6337  0.4745
  944MOL0     C24528  11.212   1.824   1.606  0.5560 -0.2101 -0.0881
  944MOL0     C24529  11.329   1.898   1.621  0.5013 -0.7411 -0.6573
  944MOL0     C24530  11.602   2.245   1.703 -0.3380  0.0291 -0.3271
  944MOL0     C24531  11.600   2.382   1.662 -0.8757  0.1452  1.1079
  944MOL0     C24532  11.720   2.462   1.662  0.3595 -0.2987  0.8726
  944MOL0     C24533  11.836   2.406   1.715  0.0256 -0.4665 -0.0934
  944MOL0     O24534  11.945   2.478   1.728 -0.1476  0.0167 -0.0883
  944MOL0     C24535  11.994   2.529   1.604 -1.9069  0.1788 -0.0049
  944MOL0     C24536  12.138   2.547   1.635  0.0040 -0.0665  0.1004
  944MOL0     C24537  12.215   2.637   1.544 -1.1741 -0.3147  0.9503
  944MOL0     C24538  12.275   2.561   1.427  0.5037  0.7750  0.4320
  944MOL0     C24539  12.313   2.650   1.315 -0.1500  0.1984  0.3877
  944MOL0     C24540  12.342   2.717   1.223 -0.9094 -0.2743  0.0239
  944MOL0     C24541  11.833   2.277   1.770  0.1526 -0.5369 -0.7533
  944MOL0     C24542  11.717   2.191   1.758 -0.2791 -0.0195 -0.4397
  944MOL0     H24543  11.319   1.946   1.964 -0.2703 -0.0753 -0.1524
  944MOL0     H24544  11.144   1.787   1.928  2.2659 -1.5902  0.7602
  944MOL0     H24545  11.127   1.537   1.628  0.4878 -0.2471 -0.0481
  944MOL0     H24546  11.021   1.637   1.535 -0.8816 -1.8838 -1.0020
  944MOL0     H24547  10.874   1.531   1.761 -0.6405 -3.3860  0.3854
  944MOL0     H24548  10.930   1.413   1.630  2.2156  1.4957 -1.4631
  944MOL0     H24549  10.763   1.644   1.569  1.0891  0.2611  4.0091
  944MOL0     H24550  10.698   1.479   1.615  0.4997 -1.7777 -0.4679
  944MOL0     H24551  10.883   1.515   1.376  0.2482  2.2456  1.5109
  944MOL0     H24552  10.789   1.372   1.439 -4.2689  0.0682 -1.5975
  944MOL0     H24553  10.691   1.448   1.227  1.0157 -0.9135  0.0693
  944MOL0     H24554  10.675   1.616   1.293  2.6214  0.1332 -0.6486
  944MOL0     H24555  10.456   1.485   1.299 -0.9696  1.0471  1.3315
  944MOL0     H24556  10.531   1.519   1.461 -0.0052 -2.0906  1.2734
  944MOL0     H24557  10.619   1.272   1.461 -0.0757 -0.1285 -1.2701
  944MOL0     H24558  10.444   1.289   1.456  1.2522 -1.4841  2.5037
  944MOL0     H24559  10.638   1.164   1.280 -1.6532 -2.5312 -2.7156
  944MOL0     H24560  10.540   1.277   1.180 -1.3330 -0.4629  0.3704
  944MOL0     H24561  10.335   1.243   1.112  1.9419 -2.0893 -4.3961
  944MOL0     H24562  10.095   1.127   1.077 -0.6979 -0.6838  0.3396
  944MOL0     H24563  10.050   0.998   1.180  0.5543  2.6587  1.1849
  944MOL0     H24564  10.152   0.837   1.011 -2.6972 -0.3475 -0.7945
  944MOL0     H24565  10.172   0.981   0.906 -0.0179  0.1008  0.0957
  944MOL0     H24566   9.885   0.897   0.979 -1.1405  3.6264 -0.5744
  944MOL0     H24567   9.948   1.018   0.878 -2.3519  0.2817  0.1097
  944MOL0     H24568   9.964   0.732   0.809  0.3182 -0.2011  1.7919
  944MOL0     H24569  10.062   0.861   0.732 -0.5550 -0.3908  1.3620
  944MOL0     H24570   9.678   0.929   0.525 -1.0183 -0.7147 -1.2376
  944MOL0     H24571   9.686   0.864   0.280 -0.4716 -0.6391  0.2953
  944MOL0     H24572  10.224   0.660  -0.015  0.2405 -0.4457  0.1492
  944MOL0     H24573  10.264   0.715  -0.238 -1.5733  3.0727 -1.4339
  944MOL0     H24574  10.205   0.889  -0.412  0.3756  1.8830 -1.9565
  944MOL0     H24575  10.038   0.917  -0.430 -0.2311  0.5442 -0.2966
  944MOL0     H24576  10.086   0.856  -0.686  1.9957  0.7623 -2.4787
  944MOL0     H24577  10.258   0.832  -0.626  1.7525  2.4454  1.8501
  944MOL0     H24578  10.270   1.077  -0.566 -3.1096  1.8669  0.7335
  944MOL0     H24579  10.106   1.083  -0.610 -2.0800 -3.1717  0.3392
  944MOL0     H24580  10.274   1.157  -0.803  1.7340 -0.3991 -2.3635
  944MOL0     H24581  10.343   0.998  -0.797  0.0471  0.2566  2.0375
  944MOL0     H24582  10.156   1.070  -0.983 -2.2254 -4.5841 -3.4101
  944MOL0     H24583  10.049   1.033  -0.850  0.0243  2.1659  1.0038
  944MOL0     H24584  10.161   0.790  -0.870  2.9905 -2.8529 -1.9045
  944MOL0     H24585  10.284   0.857  -0.971 -0.0673  1.7140 -1.0868
  944MOL0     H24586   9.984   0.816  -1.023 -0.0506  2.1049  0.6018
  944MOL0     H24587  10.078   0.936  -1.116 -1.1801  0.8215  0.4898
  944MOL0     H24588  10.234   0.781  -1.199 -2.3079 -1.4582 -3.0273
  944MOL0     H24589  10.060   0.732  -1.226 -0.7751  3.2207  0.1184
  944MOL0     H24590   9.850   0.662  -0.333  3.0066 -2.0041 -3.0994
  944MOL0     H24591   9.796   0.647  -0.105  0.5673  1.5284  1.3878
  944MOL0     H24592  10.079   0.706   0.337 -0.0836  2.2120 -2.7722
  944MOL0     H24593  10.033   0.707   0.593 -0.5571 -2.6216  0.2210
  944MOL0     H24594  11.180   1.807   1.504  1.2033  2.1073 -0.7256
  944MOL0     H24595  11.389   1.926   1.534  0.0977  0.8002 -0.4488
  944MOL0     H24596  11.504   2.424   1.634 -0.9133  2.2869  3.9975
  944MOL0     H24597  11.725   2.568   1.640 -1.0911 -0.5776 -0.9833
  944MOL0     H24598  11.949   2.627   1.586  0.0019  0.9936 -0.6171
  944MOL0     H24599  11.972   2.463   1.520  0.2014 -1.2183  0.4705
  944MOL0     H24600  12.154   2.589   1.734  3.0585  0.4218 -0.5030
  944MOL0     H24601  12.176   2.445   1.626 -2.8668 -1.1544 -0.8168
  944MOL0     H24602  12.293   2.691   1.598 -0.6731 -3.0122  3.1434
  944MOL0     H24603  12.150   2.711   1.496  0.8904  0.5663 -0.6814
  944MOL0     H24604  12.359   2.495   1.449  0.7636  0.5872 -1.0025
  944MOL0     H24605  12.193   2.501   1.385 -0.3061  2.0654  0.1297
  944MOL0     H24606  12.385   2.773   1.142 -1.7778  1.5040  0.7555
  944MOL0     H24607  11.930   2.239   1.801  0.3937 -0.2122 -1.1017
  944MOL0     H24608  11.712   2.094   1.807  2.9377  0.4583  1.0377
  945MOL0     O24609   3.029   8.547   4.437  0.4229  0.1020  0.0246
  945MOL0     C24610   3.109   8.584   4.521 -0.0288  0.9892 -0.2500
  945MOL0     O24611   3.118   8.524   4.639  0.1275  0.0206 -0.9564
  945MOL0     C24612   3.015   8.448   4.696  1.0298  0.0376  0.1572
  945MOL0     C24613   2.877   8.468   4.681 -0.0361  0.1951 -1.1284
  945MOL0     C24614   2.783   8.390   4.745 -0.6879  0.5284  0.2256
  945MOL0     C24615   2.833   8.289   4.834 -0.1192 -0.5806 -0.5749
  945MOL0     O24616   2.757   8.217   4.919 -0.3121 -0.6389 -1.1227
  945MOL0     C24617   2.623   8.255   4.933 -0.5733  0.3204  1.4022
  945MOL0     C24618   2.550   8.185   4.811  0.1368  0.0426  0.2648
  945MOL0     C24619   2.519   8.038   4.843 -1.0359  0.0214 -0.0819
  945MOL0     C24620   2.410   7.967   4.760 -0.3825 -0.2695 -0.1159
  945MOL0     C24621   2.370   7.833   4.827  0.1892  0.1195  1.0642
  945MOL0     C24622   2.469   7.719   4.815 -0.2415  0.4333 -0.2927
  945MOL0     C24623   2.443   7.610   4.923  0.0058  0.9408  0.5258
  945MOL0     C24624   2.304   7.537   4.920  0.8165  0.0468  0.5220
  945MOL0     N24625   2.326   7.406   4.974 -0.4889  0.3847 -0.7388
  945MOL0     C24626   2.347   7.285   4.907  0.4881  0.4001 -0.1961
  945MOL0     C24627   2.380   7.199   5.007  0.2175 -0.1828 -0.0719
  945MOL0     C24628   2.404   7.054   4.966  0.1097  0.0566 -0.5259
  945MOL0     C24629   2.313   6.979   5.064  0.1038  0.5082 -0.5437
  945MOL0     C24630   2.388   6.928   5.191  0.7751  0.5038  0.0330
  945MOL0     C24631   2.296   6.812   5.252 -0.1675 -0.2050  0.6663
  945MOL0     O24632   2.315   6.799   5.397 -1.4381 -0.3223 -0.0913
  945MOL0     C24633   2.226   6.729   5.478  0.3278 -1.2864  0.2968
  945MOL0     C24634   2.173   6.607   5.441  0.8525  0.1434 -0.7071
  945MOL0     C24635   2.102   6.532   5.542 -0.0901 -0.0122  0.3759
  945MOL0     C24636   2.070   6.601   5.660 -0.0292 -0.2514 -1.0848
  945MOL0     C24637   1.968   6.550   5.755 -0.1083  0.0971 -0.3927
  945MOL0     O24638   1.895   6.445   5.721 -0.6623  1.3554  0.1747
  945MOL0     C24639   1.807   6.388   5.814 -0.5889 -0.5966  0.1170
  945MOL0     C24640   1.861   6.317   5.924  0.2360 -0.0383  0.1551
  945MOL0     C24641   1.773   6.279   6.032  0.9888  0.2818 -0.0375
  945MOL0     C24642   1.640   6.313   6.024 -0.0369  0.7430 -0.3397
  945MOL0     O24643   1.547   6.278   6.120  0.0055 -0.7431 -0.0383
  945MOL0     C24644   1.566   6.181   6.231 -0.7457 -0.4832 -0.1499
  945MOL0     C24645   1.456   6.078   6.223  0.2141  0.5989  0.4601
  945MOL0     C24646   1.472   5.983   6.347  0.4073  0.1850  1.2786
  945MOL0     C24647   1.378   5.856   6.328  0.4608  1.2684  0.5631
  945MOL0     C24648   1.369   5.775   6.459 -0.6606  0.1864  1.1351
  945MOL0     C24649   1.488   5.691   6.493  0.1667 -0.3760 -0.0838
  945MOL0     C24650   1.521   5.582   6.390  0.1307 -0.0305  1.0593
  945MOL0     C24651   1.592   5.460   6.451 -0.3041  0.9222  0.5535
  945MOL0    Cl24652   1.484   5.361   6.569 -0.1176  0.1736  0.5779
  945MOL0     C24653   1.593   6.372   5.909 -0.2077 -0.4303 -0.1208
  945MOL0     C24654   1.674   6.417   5.810 -0.1634 -0.7576 -0.1155
  945MOL0     O24655   1.950   6.605   5.863  0.1982  0.0177  0.0854
  945MOL0     C24656   2.130   6.726   5.692  1.4399  0.7001  0.0394
  945MOL0     C24657   2.209   6.786   5.604 -0.8815  0.7478  0.1348
  945MOL0     N24658   2.382   7.270   5.130  0.1789  0.0218  0.4801
  945MOL0     N24659   2.349   7.395   5.111  0.0809  0.0933  0.5873
  945MOL0     C24660   2.968   8.265   4.846  0.3408  0.1030  0.2271
  945MOL0     C24661   3.059   8.351   4.785 -0.2066 -0.6376 -0.0985
  945MOL0     C24662   3.217   8.680   4.492 -1.1108 -0.3706  0.5036
  945MOL0     C24663   3.333   8.689   4.565  0.2221  0.8286 -0.1249
  945MOL0     C24664   3.440   8.773   4.537 -0.0696  0.3571  1.5096
  945MOL0     C24665   3.427   8.855   4.425 -0.3568  0.1342 -0.2015
  945MOL0     O24666   3.541   8.935   4.407 -0.2275 -0.2127  0.7339
  945MOL0     C24667   3.533   9.027   4.299 -0.6154 -0.8292  0.9375
  945MOL0     C24668   3.643   9.134   4.302 -0.1644  0.0047 -0.8419
  945MOL0     C24669   3.618   9.255   4.215 -0.5191 -0.0415 -0.0945
  945MOL0     C24670   3.612   9.246   4.059  0.2249  0.4875  0.8940
  945MOL0     C24671   3.485   9.195   4.012  0.3548 -0.4024 -0.4514
  945MOL0     C24672   3.372   9.152   3.980  0.0320 -0.0154 -0.1976
  945MOL0     C24673   3.314   8.857   4.352  0.4184  0.6680  0.0157
  945MOL0     C24674   3.207   8.765   4.380  0.7396 -1.0016  0.0736
  945MOL0     H24675   2.855   8.538   4.601  1.5668  1.1597 -0.7580
  945MOL0     H24676   2.679   8.416   4.725 -0.4334  0.0711 -1.8530
  945MOL0     H24677   2.614   8.364   4.935  0.7691  0.4807  0.1804
  945MOL0     H24678   2.587   8.215   5.029 -1.2410 -0.6806  0.7567
  945MOL0     H24679   2.621   8.194   4.728  3.0696  0.3392  2.6512
  945MOL0     H24680   2.460   8.244   4.793 -0.0015 -0.8922 -2.6811
  945MOL0     H24681   2.494   8.036   4.949  1.5962  3.9963  0.8339
  945MOL0     H24682   2.613   7.985   4.829  0.9476  3.4037 -0.6952
  945MOL0     H24683   2.320   8.029   4.761  1.0017  1.8450  0.6457
  945MOL0     H24684   2.437   7.956   4.655  0.4165 -0.8918  0.1470
  945MOL0     H24685   2.268   7.807   4.799 -0.0962 -0.9438  2.9992
  945MOL0     H24686   2.365   7.848   4.935 -2.4949 -1.4086  1.2181
  945MOL0     H24687   2.569   7.760   4.828 -0.8847  1.9633 -0.0042
  945MOL0     H24688   2.463   7.689   4.710 -1.0277 -0.7052  0.0510
  945MOL0     H24689   2.521   7.536   4.905 -0.4847 -0.1341  2.5343
  945MOL0     H24690   2.466   7.653   5.020 -2.5537  0.2014  1.5644
  945MOL0     H24691   2.288   7.526   4.812  0.0758 -1.3190  0.7567
  945MOL0     H24692   2.233   7.595   4.979 -0.5591  2.1936 -2.9010
  945MOL0     H24693   2.348   7.280   4.799 -1.7728 -1.8606 -0.1925
  945MOL0     H24694   2.507   7.026   4.990  0.1073  0.0292 -0.5488
  945MOL0     H24695   2.393   7.031   4.860  1.5071 -1.8131 -0.3126
  945MOL0     H24696   2.263   6.889   5.026  2.9933 -0.2404 -2.9540
  945MOL0     H24697   2.234   7.049   5.093  1.6836  1.6924  1.0608
  945MOL0     H24698   2.472   6.873   5.146  0.9851  0.2360  0.7301
  945MOL0     H24699   2.427   7.013   5.248  1.4042  0.6528 -0.6064
  945MOL0     H24700   2.325   6.716   5.207 -0.0402  0.4360 -0.6616
  945MOL0     H24701   2.197   6.854   5.236  1.0698  1.8149 -2.9137
  945MOL0     H24702   2.188   6.570   5.340  2.9828  0.9686 -0.7548
  945MOL0     H24703   2.046   6.443   5.517 -3.4834  2.0264  0.0472
  945MOL0     H24704   1.965   6.287   5.923  0.5720  1.0302 -1.5547
  945MOL0     H24705   1.806   6.234   6.125  0.9540 -2.1578 -1.1396
  945MOL0     H24706   1.563   6.243   6.321 -0.7900  0.6746 -0.9237
  945MOL0     H24707   1.663   6.131   6.231  0.2745  1.3421  1.4565
  945MOL0     H24708   1.475   6.022   6.131  0.6421  2.2549 -0.5042
  945MOL0     H24709   1.357   6.123   6.223  0.0413  0.2460 -0.3479
  945MOL0     H24710   1.454   6.030   6.444 -0.0542 -2.9841  2.8544
  945MOL0     H24711   1.578   5.958   6.334  1.0856  3.2698 -0.1771
  945MOL0     H24712   1.276   5.878   6.295 -0.0981 -0.0251  1.3304
  945MOL0     H24713   1.427   5.797   6.250 -1.4381 -0.9967  0.9790
  945MOL0     H24714   1.282   5.710   6.447 -0.4044  0.1981 -1.1488
  945MOL0     H24715   1.343   5.839   6.545  4.5112  0.6298  2.6754
  945MOL0     H24716   1.457   5.636   6.583 -0.1731  0.3186  0.2309
  945MOL0     H24717   1.583   5.744   6.503  0.1544 -0.2248 -0.7075
  945MOL0     H24718   1.431   5.535   6.349  0.6047  0.1510 -0.2511
  945MOL0     H24719   1.584   5.621   6.310 -0.0968  0.6158  1.1854
  945MOL0     H24720   1.675   5.489   6.516  0.5675 -1.0089  0.3459
  945MOL0     H24721   1.621   5.394   6.370 -0.2143 -0.4190  1.6468
  945MOL0     H24722   1.490   6.406   5.902 -0.7136 -2.1800 -2.1298
  945MOL0     H24723   1.635   6.480   5.731 -1.4491  0.8388  1.6916
  945MOL0     H24724   2.111   6.773   5.788 -3.0612  1.9434 -1.1899
  945MOL0     H24725   2.278   6.868   5.620  0.1579  0.2823 -1.6145
  945MOL0     H24726   3.005   8.193   4.918 -0.1190  0.4085  0.7760
  945MOL0     H24727   3.164   8.343   4.812  0.9473  2.6635 -2.8910
  945MOL0     H24728   3.345   8.610   4.638 -1.3101  1.9643  1.4682
  945MOL0     H24729   3.531   8.776   4.595  0.5931 -2.1116  0.7217
  945MOL0     H24730   3.446   9.094   4.311  0.4729  0.2498  4.0493
  945MOL0     H24731   3.542   8.973   4.205 -0.9850 -2.4288  1.7782
  945MOL0     H24732   3.673   9.166   4.402  0.6929  0.3167 -1.1936
  945MOL0     H24733   3.738   9.095   4.266 -0.5971  0.0027 -2.0053
  945MOL0     H24734   3.686   9.334   4.247 -0.7750  1.1781 -2.3592
  945MOL0     H24735   3.523   9.299   4.247  0.6391  1.4990  1.3380
  945MOL0     H24736   3.611   9.344   4.010  1.8992 -1.6700 -4.1289
  945MOL0     H24737   3.694   9.181   4.027 -0.7990 -0.2765 -0.3057
  945MOL0     H24738   3.279   9.120   3.937 -1.8791  5.2027 -0.6587
  945MOL0     H24739   3.296   8.925   4.270 -1.7343 -0.5145 -0.5961
  945MOL0     H24740   3.113   8.764   4.325  0.6388  0.5112  0.1802
  946MOL0     O24741   0.614   4.951   7.887  0.6060  1.2683  0.3351
  946MOL0     C24742   0.667   5.011   7.979  0.5423 -0.4336  0.7006
  946MOL0     O24743   0.606   5.067   8.080  0.3447 -0.8738  0.2354
  946MOL0     C24744   0.484   5.022   8.109  1.2125 -0.8145 -0.0574
  946MOL0     C24745   0.477   4.941   8.221 -0.1115 -0.5464  0.7491
  946MOL0     C24746   0.358   4.890   8.264 -0.6338 -0.2728  0.5849
  946MOL0     C24747   0.241   4.920   8.195  0.6475  0.8562 -0.8251
  946MOL0     O24748   0.126   4.867   8.256  0.0436  0.6566  0.4066
  946MOL0     C24749   0.000   4.902   8.194  0.9357  0.1651  0.9435
  946MOL0     C24750  -0.108   4.895   8.305 -1.1754 -0.5691 -1.0007
  946MOL0     C24751  -0.233   4.957   8.252 -0.8175  0.0255  0.0104
  946MOL0     C24752  -0.361   4.915   8.324  0.4161  0.2886  0.6251
  946MOL0     C24753  -0.413   4.770   8.303 -0.1810  0.2281  0.6990
  946MOL0     C24754  -0.506   4.723   8.420  0.0507 -1.6089  0.1145
  946MOL0     C24755  -0.538   4.579   8.411  0.1552  0.5779 -0.0315
  946MOL0     C24756  -0.471   4.474   8.499  0.1194 -0.0430  0.3855
  946MOL0     N24757  -0.327   4.490   8.511 -0.3918  0.4818  0.7310
  946MOL0     C24758  -0.261   4.589   8.591  1.0567  0.5807 -0.0877
  946MOL0     C24759  -0.135   4.576   8.549 -0.1525  0.2929  0.0129
  946MOL0     C24760  -0.014   4.640   8.592 -0.3918 -0.0595 -0.2187
  946MOL0     C24761  -0.038   4.711   8.736 -0.6391 -1.4231  0.0821
  946MOL0     C24762   0.086   4.782   8.786  0.4524 -0.0744  0.3437
  946MOL0     C24763   0.164   4.868   8.688 -0.9052 -0.4369  0.4193
  946MOL0     O24764   0.276   4.907   8.760 -0.3669 -0.4150  0.1794
  946MOL0     C24765   0.357   5.012   8.712  0.4297  0.7876  0.4760
  946MOL0     C24766   0.339   5.148   8.736 -0.3386  0.0216 -1.0516
  946MOL0     C24767   0.409   5.243   8.671 -0.1294  0.3224  0.3206
  946MOL0     C24768   0.518   5.215   8.579 -0.2480 -0.6604 -0.4341
  946MOL0     C24769   0.601   5.318   8.505  0.1455  0.1382 -0.4889
  946MOL0     O24770   0.721   5.280   8.453 -0.2395  0.7061 -0.4367
  946MOL0     C24771   0.794   5.370   8.393  0.0268 -0.3740 -0.0544
  946MOL0     C24772   0.848   5.474   8.468 -0.6056 -0.7765  0.4236
  946MOL0     C24773   0.919   5.570   8.397 -0.0520 -0.1186  0.7496
  946MOL0     C24774   0.929   5.562   8.261 -0.0183 -0.1485  0.7441
  946MOL0     O24775   0.984   5.658   8.181 -0.3081  0.3448 -0.2115
  946MOL0     C24776   1.041   5.781   8.221 -0.4404 -0.1556 -0.2203
  946MOL0     C24777   1.087   5.861   8.091 -0.0679  0.0832 -0.6128
  946MOL0     C24778   1.139   5.999   8.120  0.3634 -0.3884 -0.5237
  946MOL0     C24779   1.190   6.071   7.992 -0.5654 -0.0991 -0.2754
  946MOL0     C24780   1.268   6.196   8.013  0.4991  0.2167 -0.9061
  946MOL0     C24781   1.265   6.305   7.903 -0.1793  0.0065 -0.0565
  946MOL0     C24782   1.129   6.387   7.930 -0.3700  0.4282 -0.3153
  946MOL0     C24783   1.116   6.515   7.837 -0.7982 -1.2367 -0.1575
  946MOL0    Cl24784   1.274   6.593   7.862 -0.0261 -0.4267  0.0698
  946MOL0     C24785   0.876   5.453   8.189 -0.3162  0.6938  0.0726
  946MOL0     C24786   0.804   5.357   8.253 -0.0099 -0.4089 -1.2986
  946MOL0     O24787   0.552   5.432   8.503 -0.4150  0.4466 -0.4557
  946MOL0     C24788   0.544   5.084   8.558 -0.1964 -0.1345  0.4686
  946MOL0     C24789   0.469   4.981   8.627 -0.7750  0.4107 -0.5338
  946MOL0     N24790  -0.129   4.488   8.447 -0.4396 -0.5592  0.0537
  946MOL0     N24791  -0.236   4.433   8.422  0.5954  0.1065  0.2328
  946MOL0     C24792   0.245   4.998   8.079  0.1934  0.4937 -0.0105
  946MOL0     C24793   0.361   5.051   8.040  0.0861  0.0462  0.5654
  946MOL0     C24794   0.815   5.022   7.975 -0.5747  1.0279  0.2368
  946MOL0     C24795   0.893   4.986   7.857  0.9540  0.4407 -0.0183
  946MOL0     C24796   1.031   4.979   7.870 -0.0200  0.0386 -0.9541
  946MOL0     C24797   1.095   5.016   7.992 -0.2955  1.0164  0.7932
  946MOL0     O24798   1.233   5.021   8.010  0.5681 -0.1896 -0.6068
  946MOL0     C24799   1.320   4.954   7.915 -0.4079 -0.1429  0.2064
  946MOL0     C24800   1.455   5.007   7.929  0.0238 -0.3481  0.2565
  946MOL0     C24801   1.469   5.131   7.835  0.9439 -0.2762  0.3994
  946MOL0     C24802   1.413   5.261   7.906 -0.8061 -0.4760  0.2673
  946MOL0     C24803   1.416   5.383   7.820 -0.2834  0.5554 -0.1927
  946MOL0     C24804   1.429   5.482   7.749  0.0575  0.2616 -0.5697
  946MOL0     C24805   1.017   5.041   8.102 -0.0454  0.7869  0.7789
  946MOL0     C24806   0.882   5.038   8.099  0.5172  0.1353  0.6476
  946MOL0     H24807   0.575   4.908   8.253  0.6212  1.0997  0.3330
  946MOL0     H24808   0.357   4.825   8.352 -0.2577  0.7235  1.3475
  946MOL0     H24809  -0.019   4.848   8.101  0.1754  2.3632 -0.2500
  946MOL0     H24810   0.001   5.008   8.169 -2.3712  0.0850  0.0045
  946MOL0     H24811  -0.082   4.952   8.394  0.9769 -0.2244 -1.7831
  946MOL0     H24812  -0.124   4.789   8.326 -0.7500 -0.4464 -0.0327
  946MOL0     H24813  -0.237   4.923   8.148  0.2430 -2.9544  0.8444
  946MOL0     H24814  -0.223   5.066   8.259 -0.3471 -0.1169  2.1528
  946MOL0     H24815  -0.365   4.940   8.430 -2.4774 -1.9298  1.1888
  946MOL0     H24816  -0.443   4.978   8.287  0.9978  1.0320  0.5804
  946MOL0     H24817  -0.332   4.699   8.284  0.6696  1.2294  0.5009
  946MOL0     H24818  -0.472   4.765   8.211  1.2773 -3.4873 -0.2138
  946MOL0     H24819  -0.601   4.778   8.424 -1.2925 -3.7166 -0.8063
  946MOL0     H24820  -0.462   4.747   8.517 -0.7535 -0.6214  0.2545
  946MOL0     H24821  -0.643   4.576   8.442  0.1811 -2.0053  0.0588
  946MOL0     H24822  -0.526   4.543   8.308 -0.2327 -1.5505  0.6020
  946MOL0     H24823  -0.498   4.381   8.448 -1.8521  1.1091 -0.8285
  946MOL0     H24824  -0.510   4.486   8.600  1.9131  2.0273  0.9114
  946MOL0     H24825  -0.302   4.653   8.669  0.3716 -0.3732  0.3637
  946MOL0     H24826   0.024   4.709   8.516  0.8420 -0.0356  0.3873
  946MOL0     H24827   0.065   4.565   8.598 -1.6938 -1.3506  2.2259
  946MOL0     H24828  -0.077   4.633   8.802 -1.4815 -0.0163  1.3242
  946MOL0     H24829  -0.103   4.798   8.721  0.9435 -0.5655 -2.3227
  946MOL0     H24830   0.060   4.833   8.878  0.0772 -0.9138  0.7145
  946MOL0     H24831   0.161   4.704   8.801 -0.2899 -1.2675 -1.6491
  946MOL0     H24832   0.106   4.958   8.667 -2.1938 -0.9874  1.4735
  946MOL0     H24833   0.196   4.825   8.592  2.8009 -1.6080  1.9646
  946MOL0     H24834   0.264   5.191   8.803 -0.6262  3.1317 -3.1774
  946MOL0     H24835   0.380   5.347   8.679  1.5516  1.0723 -2.1751
  946MOL0     H24836   0.840   5.480   8.577  1.2187 -1.5026  0.6234
  946MOL0     H24837   0.956   5.662   8.442  1.0739 -0.5090  0.6478
  946MOL0     H24838   1.124   5.762   8.288 -1.5592 -1.6631  0.8151
  946MOL0     H24839   0.970   5.837   8.283 -0.9349 -2.5054  1.4890
  946MOL0     H24840   1.004   5.885   8.025  0.0244  2.8464  0.1579
  946MOL0     H24841   1.153   5.795   8.035 -1.0469  0.0962 -1.8093
  946MOL0     H24842   1.219   5.987   8.194 -0.3119 -2.3132 -0.0623
  946MOL0     H24843   1.054   6.051   8.166  0.0732  0.7758 -2.2880
  946MOL0     H24844   1.248   6.001   7.931  0.9500 -0.6718  1.6836
  946MOL0     H24845   1.109   6.099   7.925 -2.4709 -0.1250  1.8811
  946MOL0     H24846   1.376   6.179   8.018  0.5232  0.6607  0.2282
  946MOL0     H24847   1.231   6.240   8.106 -0.4139 -1.4955 -0.4139
  946MOL0     H24848   1.238   6.260   7.807 -3.8451  2.7127 -0.4991
  946MOL0     H24849   1.357   6.362   7.890  0.6744 -0.3996  3.3042
  946MOL0     H24850   1.048   6.314   7.924  1.5911 -1.9108  0.1843
  946MOL0     H24851   1.123   6.422   8.034 -0.2668 -3.4073  1.1307
  946MOL0     H24852   1.038   6.587   7.866  0.8702  0.5275  0.1687
  946MOL0     H24853   1.112   6.481   7.733 -3.2663 -3.6219  0.5930
  946MOL0     H24854   0.900   5.443   8.084  1.1010 -1.5057  0.5499
  946MOL0     H24855   0.762   5.267   8.208  0.6585 -1.8139  0.7318
  946MOL0     H24856   0.614   5.057   8.479 -1.4982  2.6591 -1.8731
  946MOL0     H24857   0.494   4.879   8.597 -3.6230 -0.7304  0.6206
  946MOL0     H24858   0.161   5.013   8.011  0.4011  0.8609 -0.1885
  946MOL0     H24859   0.358   5.086   7.937 -1.0451  0.5050  0.7427
  946MOL0     H24860   0.845   4.956   7.764  0.9148 -0.6925  0.3469
  946MOL0     H24861   1.090   4.959   7.781 -1.5007 -3.7288 -1.2680
  946MOL0     H24862   1.283   4.986   7.817 -2.4824 -0.7577  0.7312
  946MOL0     H24863   1.328   4.846   7.929  0.5031 -0.5786 -3.0276
  946MOL0     H24864   1.471   5.030   8.035 -0.4246  3.1302 -0.3186
  946MOL0     H24865   1.518   4.923   7.901 -1.8000 -2.0469  1.0304
  946MOL0     H24866   1.412   5.118   7.742 -1.5378  1.3057  1.6039
  946MOL0     H24867   1.574   5.147   7.808  1.0727 -0.2439  0.9245
  946MOL0     H24868   1.306   5.238   7.909 -0.9880  0.2156 -0.5428
  946MOL0     H24869   1.456   5.281   8.005 -1.9555  1.8476  0.3590
  946MOL0     H24870   1.435   5.552   7.668  2.4241  1.1524  0.3001
  946MOL0     H24871   1.065   5.062   8.197  0.4404  0.9022  0.5113
  946MOL0     H24872   0.827   5.057   8.191 -2.2081  3.4267 -1.4050
  947MOL0     O24873   9.689   0.894   5.746  0.4348  0.0914  0.1726
  947MOL0     C24874   9.686   0.788   5.815  0.4652  0.6149 -0.5989
  947MOL0     O24875   9.605   0.675   5.802 -0.2376  0.7550  0.9032
  947MOL0     C24876   9.514   0.648   5.699 -0.6528 -0.5217  0.2731
  947MOL0     C24877   9.482   0.722   5.585 -0.0612 -0.0692 -0.4961
  947MOL0     C24878   9.387   0.674   5.498 -0.1243  0.3723  0.5697
  947MOL0     C24879   9.330   0.542   5.510 -0.2958  0.2877  0.0307
  947MOL0     O24880   9.230   0.518   5.415 -0.7286 -0.3911 -0.2455
  947MOL0     C24881   9.111   0.464   5.454 -0.3152  0.3708  0.8660
  947MOL0     C24882   9.026   0.434   5.329  0.7150  0.7396  0.3044
  947MOL0     C24883   9.068   0.296   5.267 -0.1096 -0.3706 -0.1339
  947MOL0     C24884   9.198   0.302   5.188 -0.0524  0.7670  0.0348
  947MOL0     C24885   9.219   0.169   5.133 -0.1133  0.3020  0.1154
  947MOL0     C24886   9.347   0.174   5.057 -0.3711 -0.2077 -0.7560
  947MOL0     C24887   9.366   0.031   4.996 -0.6570 -0.1303 -0.5214
  947MOL0     C24888   9.508  -0.017   4.952 -0.2165 -0.1434  0.3150
  947MOL0     N24889   9.519  -0.163   4.941 -0.7250  0.3510 -0.6316
  947MOL0     C24890   9.520  -0.255   5.041  0.2748 -0.3577 -1.1874
  947MOL0     C24891   9.533  -0.375   4.979  0.8632  0.1471  0.1521
  947MOL0     C24892   9.556  -0.497   5.049 -0.5449  0.3542 -0.7400
  947MOL0     C24893   9.427  -0.577   5.062 -0.2227  0.1823 -0.5791
  947MOL0     C24894   9.452  -0.696   5.146 -0.1670  0.7645  0.3991
  947MOL0     C24895   9.495  -0.815   5.058  0.1515 -0.7586 -0.1236
  947MOL0     O24896   9.558  -0.914   5.143 -0.6319  0.0649  0.0363
  947MOL0     C24897   9.698  -0.918   5.142  0.3308  0.3195  0.3914
  947MOL0     C24898   9.756  -1.025   5.208 -0.4401 -0.5470  0.6221
  947MOL0     C24899   9.894  -1.027   5.236 -0.3187 -0.6319 -0.7106
  947MOL0     C24900   9.975  -0.916   5.220 -1.1313 -0.7235 -0.5682
  947MOL0     C24901  10.123  -0.919   5.237  0.3491 -0.1491 -0.3407
  947MOL0     O24902  10.181  -0.804   5.293 -0.1157  0.2128  0.4043
  947MOL0     C24903  10.303  -0.822   5.346 -0.2036  0.3093 -0.4557
  947MOL0     C24904  10.317  -0.853   5.480 -0.6858  0.8085  0.0299
  947MOL0     C24905  10.429  -0.848   5.553 -1.1677 -0.0491 -0.6586
  947MOL0     C24906  10.546  -0.797   5.490  1.0108  0.0282 -0.1505
  947MOL0     O24907  10.666  -0.785   5.554  0.5909 -0.0360  0.7350
  947MOL0     C24908  10.663  -0.701   5.675 -0.4295  0.5484  0.0428
  947MOL0     C24909  10.746  -0.573   5.662  0.3756  0.0239  0.4395
  947MOL0     C24910  10.667  -0.447   5.606  0.2952  0.1974 -1.5729
  947MOL0     C24911  10.749  -0.320   5.565 -0.3780  0.2080 -0.2560
  947MOL0     C24912  10.802  -0.319   5.418 -0.5982 -0.3536 -0.2088
  947MOL0     C24913  10.901  -0.211   5.379 -0.0728  0.2635  0.8065
  947MOL0     C24914  10.960  -0.231   5.239 -0.4270  0.6373  0.4395
  947MOL0     C24915  11.074  -0.142   5.223 -0.3861 -0.0261 -0.0192
  947MOL0    Cl24916  11.033   0.023   5.252  0.0867 -0.2952 -0.1202
  947MOL0     C24917  10.538  -0.776   5.349 -0.1864 -0.5950 -0.2269
  947MOL0     C24918  10.417  -0.782   5.277  0.7094  0.4634 -0.1434
  947MOL0     O24919  10.174  -1.032   5.236  0.9224 -0.9323 -0.6914
  947MOL0     C24920   9.911  -0.804   5.157 -0.0338 -0.2765 -0.7132
  947MOL0     C24921   9.777  -0.809   5.116 -0.5160 -0.3627 -0.0456
  947MOL0     N24922   9.544  -0.359   4.841  0.1322 -0.3103 -0.3260
  947MOL0     N24923   9.535  -0.232   4.823 -0.7055 -0.1804 -0.5368
  947MOL0     C24924   9.361   0.459   5.619 -0.1275 -0.0717 -0.4082
  947MOL0     C24925   9.447   0.519   5.713 -0.3585  0.3900 -0.0883
  947MOL0     C24926   9.770   0.797   5.935  0.1261 -0.1958  0.3288
  947MOL0     C24927   9.887   0.874   5.933  0.4464 -0.6165  0.2164
  947MOL0     C24928   9.954   0.904   6.049 -0.0393  0.1250 -0.6584
  947MOL0     C24929   9.909   0.856   6.168  0.6397 -0.7156 -0.5165
  947MOL0     O24930   9.974   0.872   6.293  0.6724 -0.2978 -0.5126
  947MOL0     C24931  10.085   0.955   6.278  0.4153 -0.1522 -0.3184
  947MOL0     C24932  10.157   0.936   6.411  0.7776  0.1384  0.6998
  947MOL0     C24933  10.283   1.005   6.416  0.4894  0.7082  0.6757
  947MOL0     C24934  10.382   0.916   6.491  0.4363 -0.8327 -0.2528
  947MOL0     C24935  10.423   0.789   6.423 -0.0558 -0.3375 -0.8523
  947MOL0     C24936  10.437   0.679   6.379  0.1148  0.0930 -0.2218
  947MOL0     C24937   9.797   0.774   6.171  1.0240  0.4012 -0.4695
  947MOL0     C24938   9.728   0.742   6.048  0.0446 -0.0840  0.0852
  947MOL0     H24939   9.530   0.818   5.565 -0.4854 -0.2394 -2.6782
  947MOL0     H24940   9.367   0.735   5.411  1.0834  1.4562  1.0239
  947MOL0     H24941   9.065   0.536   5.521  0.5920  0.8118  1.0296
  947MOL0     H24942   9.128   0.376   5.517  0.2894  1.3502  2.1202
  947MOL0     H24943   9.043   0.512   5.254  0.1820  0.6085  0.0476
  947MOL0     H24944   8.922   0.424   5.360  1.1271  2.7344  2.6692
  947MOL0     H24945   8.991   0.281   5.191  1.1820  0.8045 -1.7334
  947MOL0     H24946   9.059   0.205   5.327 -3.0481 -1.6226 -2.2460
  947MOL0     H24947   9.183   0.377   5.110 -0.7638  2.3234  1.6057
  947MOL0     H24948   9.286   0.331   5.246  0.6135 -0.3676 -0.3747
  947MOL0     H24949   9.138   0.150   5.062  0.6714 -0.0133 -0.7140
  947MOL0     H24950   9.224   0.107   5.223 -4.0736  4.4710  3.6979
  947MOL0     H24951   9.427   0.192   5.130  0.7015  1.4429 -2.2707
  947MOL0     H24952   9.355   0.246   4.975 -2.9285  2.0170  0.7889
  947MOL0     H24953   9.342  -0.043   5.073 -0.2936  0.7508  0.4702
  947MOL0     H24954   9.298   0.021   4.911  0.4522  3.0575 -1.9653
  947MOL0     H24955   9.589   0.014   5.018  0.5241 -2.1074  0.3720
  947MOL0     H24956   9.517   0.031   4.854  0.4388  1.9839  1.3611
  947MOL0     H24957   9.509  -0.240   5.148 -0.6871  0.2607 -1.3592
  947MOL0     H24958   9.594  -0.487   5.151 -0.7363 -0.0550 -0.6255
  947MOL0     H24959   9.628  -0.559   4.996  0.4189 -0.3830  1.3398
  947MOL0     H24960   9.385  -0.604   4.965 -1.9172  0.3189  0.0777
  947MOL0     H24961   9.349  -0.516   5.109 -1.3563 -0.3386 -1.7044
  947MOL0     H24962   9.523  -0.681   5.228  0.8987  0.6709 -0.4771
  947MOL0     H24963   9.359  -0.714   5.201 -0.8469  1.0302 -0.6253
  947MOL0     H24964   9.541  -0.780   4.965  0.6263 -1.1557 -0.0392
  947MOL0     H24965   9.402  -0.865   5.027  1.1564 -2.1917 -0.9027
  947MOL0     H24966   9.694  -1.109   5.237 -0.6436 -2.6459 -4.6510
  947MOL0     H24967   9.934  -1.120   5.273  0.4465  0.3593  1.0621
  947MOL0     H24968  10.224  -0.886   5.524 -1.0689  3.0655  1.0552
  947MOL0     H24969  10.419  -0.877   5.657 -2.1065  1.9051 -0.1640
  947MOL0     H24970  10.703  -0.771   5.749  0.3052  0.7703 -0.1303
  947MOL0     H24971  10.561  -0.672   5.703  0.3882  2.1830  1.5489
  947MOL0     H24972  10.816  -0.610   5.586  1.0787 -0.7965  1.4522
  947MOL0     H24973  10.797  -0.541   5.753 -1.6452 -2.3954  2.5758
  947MOL0     H24974  10.597  -0.425   5.687 -1.1108 -4.9994 -1.0013
  947MOL0     H24975  10.600  -0.466   5.521 -2.7747 -1.0838  0.9377
  947MOL0     H24976  10.683  -0.234   5.583  0.3406  0.9530 -1.0682
  947MOL0     H24977  10.828  -0.299   5.638 -0.9561  3.8467 -0.4631
  947MOL0     H24978  10.724  -0.342   5.345 -2.0163 -1.0858  1.4485
  947MOL0     H24979  10.859  -0.412   5.422 -1.5164 -0.8795  1.2227
  947MOL0     H24980  10.985  -0.208   5.448  0.8350  0.4142 -0.2834
  947MOL0     H24981  10.869  -0.106   5.385  2.5103  1.1936 -0.0720
  947MOL0     H24982  11.001  -0.332   5.228 -1.0085  0.5909 -1.9962
  947MOL0     H24983  10.878  -0.216   5.167  1.4508  1.0120 -1.7467
  947MOL0     H24984  11.116  -0.152   5.122  2.2466  3.2374  0.5708
  947MOL0     H24985  11.155  -0.177   5.287 -2.3043 -2.6467  1.1424
  947MOL0     H24986  10.631  -0.748   5.299 -0.1813 -1.0985 -0.4983
  947MOL0     H24987  10.413  -0.757   5.172 -2.6212 -0.4921 -0.3491
  947MOL0     H24988   9.957  -0.706   5.150  0.1018 -0.4315 -2.3305
  947MOL0     H24989   9.734  -0.721   5.069 -0.3380  0.2105  0.8296
  947MOL0     H24990   9.299   0.373   5.643 -0.0687  0.0637  0.2545
  947MOL0     H24991   9.459   0.452   5.798  0.8855  0.1567 -0.4229
  947MOL0     H24992   9.924   0.915   5.840  3.0469  0.4433  1.6209
  947MOL0     H24993  10.036   0.974   6.042  0.8555 -0.6597  1.2583
  947MOL0     H24994  10.055   1.060   6.269 -2.2769 -0.1739  4.8543
  947MOL0     H24995  10.146   0.926   6.193 -0.2646 -0.2306 -0.7914
  947MOL0     H24996  10.099   0.964   6.500 -1.5567 -0.3095 -0.5940
  947MOL0     H24997  10.163   0.827   6.415 -3.5535 -0.4643 -1.9898
  947MOL0     H24998  10.269   1.096   6.475  0.9076  2.0459 -1.1885
  947MOL0     H24999  10.316   1.027   6.314 -3.7216  1.9961 -0.5989
  947MOL0     H25000  10.476   0.972   6.491  0.5711 -0.9536 -2.6981
  947MOL0     H25001  10.350   0.897   6.594  3.8037  0.5290  1.1882
  947MOL0     H25002  10.427   0.576   6.351  0.7840 -0.8473  2.6688
  947MOL0     H25003   9.761   0.732   6.265 -0.0353  2.0790 -0.0937
  947MOL0     H25004   9.643   0.676   6.060 -1.4174  1.8575  0.9193
  948MOL0     O25005   0.712   6.826   6.196 -0.1128  0.2528 -0.0675
  948MOL0     C25006   0.700   6.922   6.123 -1.1521  0.7271  0.0639
  948MOL0     O25007   0.589   6.997   6.119  0.1269 -1.0655 -0.2667
  948MOL0     C25008   0.474   6.953   6.185  0.0580 -0.0635  0.2250
  948MOL0     C25009   0.461   6.939   6.320 -0.7633  0.2585  0.3967
  948MOL0     C25010   0.339   6.907   6.382 -0.4449  0.0023  1.0819
  948MOL0     C25011   0.229   6.883   6.307 -0.4511  0.2043 -0.5504
  948MOL0     O25012   0.121   6.827   6.362  0.6150  0.4171  0.4482
  948MOL0     C25013  -0.008   6.871   6.312  0.2483 -0.3348  0.4328
  948MOL0     C25014  -0.047   7.014   6.359 -0.1923  0.1999 -0.5490
  948MOL0     C25015  -0.030   7.037   6.512  0.2030 -0.3075  0.2149
  948MOL0     C25016  -0.138   6.956   6.596 -1.2729 -0.5918  0.4829
  948MOL0     C25017  -0.098   6.969   6.749  0.3095  0.0046  2.3434
  948MOL0     C25018  -0.203   6.885   6.821 -0.0258 -0.1824 -0.2818
  948MOL0     C25019  -0.193   6.906   6.966 -0.2127  0.3220 -0.5926
  948MOL0     C25020  -0.294   6.822   7.039  0.5577  0.7864  0.0541
  948MOL0     N25021  -0.306   6.870   7.183  0.2470 -0.0504 -0.2313
  948MOL0     C25022  -0.422   6.909   7.249  0.2076 -0.3302  0.2308
  948MOL0     C25023  -0.386   6.941   7.373 -0.2650  0.0408  0.1255
  948MOL0     C25024  -0.482   6.971   7.485  0.1188 -0.2282 -0.2649
  948MOL0     C25025  -0.590   7.079   7.450  0.0811  0.2856  0.2165
  948MOL0     C25026  -0.686   7.112   7.562 -0.3029 -0.1198  0.0971
  948MOL0     C25027  -0.781   7.011   7.603  0.5966  0.5252 -0.6101
  948MOL0     O25028  -0.884   7.011   7.499  0.0316  0.5281 -0.8954
  948MOL0     C25029  -0.945   6.885   7.475 -0.3645 -1.5216  0.6191
  948MOL0     C25030  -1.021   6.836   7.582  0.1098 -0.3531  0.8108
  948MOL0     C25031  -1.103   6.728   7.562 -0.6075 -0.3747 -0.5603
  948MOL0     C25032  -1.112   6.661   7.442  0.7591  0.6070  0.1779
  948MOL0     C25033  -1.200   6.552   7.419 -0.6142 -0.0024 -0.7921
  948MOL0     O25034  -1.262   6.494   7.533 -0.3187  1.0326  0.1046
  948MOL0     C25035  -1.374   6.414   7.515 -0.3602 -0.3487 -0.1010
  948MOL0     C25036  -1.481   6.418   7.609  0.7958 -0.6035 -0.3289
  948MOL0     C25037  -1.584   6.325   7.623 -0.0066  0.7432 -0.4805
  948MOL0     C25038  -1.585   6.215   7.548 -0.4147  0.8178  1.1128
  948MOL0     O25039  -1.691   6.123   7.566  0.3158 -0.3756 -0.3743
  948MOL0     C25040  -1.698   5.999   7.486 -0.6188 -0.5745 -0.7315
  948MOL0     C25041  -1.822   5.913   7.519 -0.2257 -0.4498  0.3241
  948MOL0     C25042  -1.835   5.891   7.660 -0.2136  0.2610  0.1668
  948MOL0     C25043  -1.934   5.779   7.696 -0.3994 -0.1128  0.3113
  948MOL0     C25044  -1.930   5.763   7.848 -0.4011 -1.0106 -0.4096
  948MOL0     C25045  -2.051   5.691   7.899 -0.7186  0.8385 -0.5638
  948MOL0     C25046  -2.043   5.681   8.052 -0.8093 -0.3136 -0.7997
  948MOL0     C25047  -2.164   5.616   8.117 -0.4690  0.1316 -0.5339
  948MOL0    Cl25048  -2.121   5.547   8.279  0.3397  0.4839 -0.2817
  948MOL0     C25049  -1.478   6.198   7.455 -0.6351  0.8206  0.2756
  948MOL0     C25050  -1.372   6.293   7.443 -0.3629  0.3036 -0.9744
  948MOL0     O25051  -1.230   6.537   7.299  1.2540  0.3989  0.5611
  948MOL0     C25052  -1.049   6.721   7.332 -0.4133  0.6249  0.5889
  948MOL0     C25053  -0.958   6.829   7.347 -0.3041  0.1684  0.2094
  948MOL0     N25054  -0.253   6.916   7.388  0.6504  0.4291 -0.0626
  948MOL0     N25055  -0.202   6.872   7.277  0.4203  0.0253  0.4944
  948MOL0     C25056   0.240   6.898   6.167 -1.0672 -0.4392  1.1182
  948MOL0     C25057   0.360   6.937   6.103  0.1206 -0.1711  0.1857
  948MOL0     C25058   0.814   6.952   6.020 -0.4010 -0.0643 -1.5319
  948MOL0     C25059   0.831   7.085   5.990  1.4185 -0.7732  0.6921
  948MOL0     C25060   0.935   7.124   5.903 -0.5251 -0.5348 -0.7629
  948MOL0     C25061   1.033   7.033   5.851  0.1684 -0.3657 -0.0075
  948MOL0     O25062   1.143   7.056   5.776  0.1971 -0.0452 -0.2571
  948MOL0     C25063   1.186   7.185   5.778  0.2752 -0.2375  0.0522
  948MOL0     C25064   1.309   7.188   5.676  0.3256  0.5657 -0.0882
  948MOL0     C25065   1.429   7.101   5.720 -0.9336 -0.8380 -0.7567
  948MOL0     C25066   1.488   7.142   5.858  0.3374  0.5383  0.4829
  948MOL0     C25067   1.538   7.281   5.856 -0.1272  0.6491 -0.2063
  948MOL0     C25068   1.604   7.385   5.857 -0.4941 -0.0113 -0.5783
  948MOL0     C25069   1.008   6.899   5.877  0.1969 -0.2592 -0.0681
  948MOL0     C25070   0.905   6.855   5.958  0.1662 -0.2585 -1.1728
  948MOL0     H25071   0.554   6.948   6.376 -1.5444 -0.9602  1.9667
  948MOL0     H25072   0.320   6.901   6.489 -4.4207  1.4513  0.6249
  948MOL0     H25073  -0.084   6.802   6.350 -1.8731  2.7030  2.1895
  948MOL0     H25074  -0.018   6.871   6.203 -4.5896  0.2742  0.6436
  948MOL0     H25075  -0.155   7.019   6.341  0.1812  0.6792 -3.0023
  948MOL0     H25076   0.003   7.086   6.295 -2.0637 -0.4559 -2.8792
  948MOL0     H25077  -0.037   7.144   6.532  2.3002  0.0840 -0.8487
  948MOL0     H25078   0.072   7.005   6.534  0.5294  1.8849  2.4082
  948MOL0     H25079  -0.227   7.010   6.564  0.3592  1.0046 -1.6681
  948MOL0     H25080  -0.132   6.852   6.561  4.4439  0.3140 -2.4933
  948MOL0     H25081  -0.116   7.074   6.774  1.4756  1.2964 -1.4388
  948MOL0     H25082   0.005   6.935   6.759 -0.3399 -2.4726  1.4410
  948MOL0     H25083  -0.203   6.777   6.803 -1.3575 -0.8013  2.8082
  948MOL0     H25084  -0.300   6.920   6.786 -0.5187  0.7229  1.8611
  948MOL0     H25085  -0.094   6.892   7.010 -0.9774  2.3241  2.0841
  948MOL0     H25086  -0.219   7.012   6.980  0.6188  0.5850 -0.9679
  948MOL0     H25087  -0.273   6.715   7.028 -0.1377  0.5456  0.8553
  948MOL0     H25088  -0.396   6.842   7.006 -0.9258 -3.9425  0.9869
  948MOL0     H25089  -0.527   6.902   7.220  0.2393  0.1238 -0.0025
  948MOL0     H25090  -0.420   6.999   7.571  0.5222 -0.7365 -0.3905
  948MOL0     H25091  -0.531   6.875   7.507 -1.0793  0.2499 -0.7653
  948MOL0     H25092  -0.655   7.055   7.365 -1.3949  0.1839  1.3218
  948MOL0     H25093  -0.527   7.164   7.423  1.2232 -1.3312 -2.6348
  948MOL0     H25094  -0.629   7.133   7.653 -0.7571 -0.1665  0.3954
  948MOL0     H25095  -0.729   7.207   7.528  0.8531  1.2547  2.2076
  948MOL0     H25096  -0.828   7.037   7.698  2.0813 -2.6161  1.1235
  948MOL0     H25097  -0.741   6.911   7.622  0.9328  1.2755  3.6215
  948MOL0     H25098  -1.015   6.888   7.677  2.6892  1.6503 -0.3246
  948MOL0     H25099  -1.157   6.693   7.650  0.3135  0.3956  0.3275
  948MOL0     H25100  -1.476   6.491   7.690 -4.4334 -0.0705 -0.1737
  948MOL0     H25101  -1.666   6.332   7.695  1.1275  1.3530  0.8021
  948MOL0     H25102  -1.603   5.949   7.506  0.1605  1.1995  0.2577
  948MOL0     H25103  -1.717   6.030   7.383 -1.5180 -0.4660 -0.5419
  948MOL0     H25104  -1.811   5.821   7.462 -2.3549 -0.8647  0.4914
  948MOL0     H25105  -1.910   5.966   7.480  0.8422 -1.0601 -3.2946
  948MOL0     H25106  -1.855   5.986   7.712 -4.0574  0.9105 -2.0882
  948MOL0     H25107  -1.739   5.845   7.683  1.2806  2.5477 -1.0773
  948MOL0     H25108  -2.039   5.795   7.669 -0.2732 -1.0771 -0.8085
  948MOL0     H25109  -1.905   5.689   7.641 -1.4233 -1.0170  1.1904
  948MOL0     H25110  -1.922   5.862   7.895  2.0453 -0.5560 -1.6617
  948MOL0     H25111  -1.839   5.714   7.883 -0.1185  0.4124  0.9700
  948MOL0     H25112  -2.053   5.592   7.853  1.7393  0.6140 -0.2838
  948MOL0     H25113  -2.136   5.745   7.856  0.6433  1.3127 -2.8159
  948MOL0     H25114  -1.949   5.629   8.071 -0.1520  1.2546  0.5116
  948MOL0     H25115  -2.024   5.777   8.101  2.6310 -3.4270  4.9645
  948MOL0     H25116  -2.186   5.525   8.061 -2.9464 -0.6901  1.5661
  948MOL0     H25117  -2.261   5.666   8.119 -2.0689 -2.7675  1.3131
  948MOL0     H25118  -1.461   6.104   7.403 -0.1870  1.0532 -0.0089
  948MOL0     H25119  -1.302   6.283   7.361 -0.2175  0.5956 -0.8871
  948MOL0     H25120  -1.077   6.692   7.231  1.2609  1.8015 -0.2508
  948MOL0     H25121  -0.908   6.870   7.260  0.6835  0.0048  0.6777
  948MOL0     H25122   0.157   6.889   6.098 -2.7478  0.6585  2.8647
  948MOL0     H25123   0.362   6.944   5.994 -0.4152  1.5487  0.2610
  948MOL0     H25124   0.760   7.157   6.031  3.1361  2.1919 -1.1837
  948MOL0     H25125   0.936   7.229   5.876  2.7256 -0.2118  0.1110
  948MOL0     H25126   1.213   7.217   5.879  0.3284 -0.9982  0.2856
  948MOL0     H25127   1.105   7.247   5.737  0.2482 -1.4426 -1.8712
  948MOL0     H25128   1.274   7.155   5.578 -3.9283  1.0167  1.0762
  948MOL0     H25129   1.334   7.294   5.669 -0.2613  0.6402 -1.2272
  948MOL0     H25130   1.506   7.112   5.643  1.3238 -5.0327  0.6208
  948MOL0     H25131   1.403   6.995   5.718 -0.7098 -0.9296  0.4455
  948MOL0     H25132   1.405   7.136   5.929 -1.1648  1.0835 -1.1344
  948MOL0     H25133   1.568   7.074   5.890 -0.0673  1.3022  3.3878
  948MOL0     H25134   1.657   7.476   5.874 -5.2716  2.8007  1.2831
  948MOL0     H25135   1.068   6.821   5.833 -1.1674 -1.4598  0.1472
  948MOL0     H25136   0.915   6.752   5.991 -1.8308  0.1275  0.8878
  949MOL0     O25137   2.464  10.804   6.874  0.4044 -0.3547  0.7664
  949MOL0     C25138   2.480  10.719   6.789  0.1655  0.5193 -0.8950
  949MOL0     O25139   2.448  10.593   6.808  0.4068  0.0005  0.0786
  949MOL0     C25140   2.374  10.551   6.913  0.1116 -0.3794 -0.6197
  949MOL0     C25141   2.252  10.486   6.889  0.6771 -0.2412  0.3440
  949MOL0     C25142   2.174  10.437   7.008  0.6040  0.6313  0.3207
  949MOL0     C25143   2.220  10.444   7.141  0.1613  0.3655  0.9538
  949MOL0     O25144   2.141  10.395   7.240 -0.1501 -0.0103  0.5209
  949MOL0     C25145   2.211  10.400   7.367 -0.0482  0.3710  0.4550
  949MOL0     C25146   2.146  10.308   7.474  0.4068  0.0215  0.2049
  949MOL0     C25147   2.015  10.375   7.541 -0.1047 -0.3208  0.8051
  949MOL0     C25148   1.915  10.411   7.436  0.0764 -0.3767 -0.7568
  949MOL0     C25149   1.777  10.440   7.505 -0.6589  0.0245 -0.2657
  949MOL0     C25150   1.780  10.582   7.573  0.0259 -0.3114  0.3390
  949MOL0     C25151   1.655  10.647   7.624 -0.2733 -0.3821 -1.1530
  949MOL0     C25152   1.558  10.690   7.527  0.6980 -0.5356 -0.1855
  949MOL0     N25153   1.592  10.811   7.460 -0.9261 -0.2572  0.7697
  949MOL0     C25154   1.656  10.920   7.504 -0.6997 -0.2793  1.0016
  949MOL0     C25155   1.690  10.989   7.392  0.4782  0.5829  0.2035
  949MOL0     C25156   1.749  11.122   7.404  0.3031  0.0006 -0.5170
  949MOL0     C25157   1.800  11.165   7.277 -1.0016 -0.6531  0.9114
  949MOL0     C25158   1.862  11.299   7.286  0.5013 -0.3856  0.9419
  949MOL0     C25159   1.923  11.330   7.148 -1.0801 -0.5293 -0.4126
  949MOL0     O25160   2.025  11.234   7.123 -0.4289  0.7668  0.7139
  949MOL0     C25161   2.124  11.252   7.033  0.3216 -1.3886 -0.6226
  949MOL0     C25162   2.198  11.137   7.008 -0.3753 -1.0221  0.3955
  949MOL0     C25163   2.298  11.138   6.903 -0.3632 -0.5114 -0.0801
  949MOL0     C25164   2.320  11.260   6.834  0.2361  0.8392 -0.3405
  949MOL0     C25165   2.422  11.258   6.726  0.2306  0.9111 -0.9142
  949MOL0     O25166   2.464  11.376   6.672  0.4821  0.5215 -0.5894
  949MOL0     C25167   2.542  11.364   6.562 -0.8462  0.0024 -0.5738
  949MOL0     C25168   2.675  11.335   6.575 -0.2136 -0.4422  0.7123
  949MOL0     C25169   2.745  11.301   6.459 -0.4067  1.3454 -0.8513
  949MOL0     C25170   2.682  11.286   6.335  0.5235  0.2721  0.4239
  949MOL0     O25171   2.752  11.245   6.220 -1.1146  0.0024  0.6682
  949MOL0     C25172   2.875  11.310   6.192 -0.3977  0.5046 -0.0771
  949MOL0     C25173   2.869  11.358   6.043  0.2432 -0.2451 -0.0978
  949MOL0     C25174   3.020  11.389   6.016  0.3685 -0.4706 -0.8701
  949MOL0     C25175   3.061  11.401   5.865 -0.4795  0.0120 -0.6144
  949MOL0     C25176   3.128  11.278   5.811  0.0375  1.0124 -0.7204
  949MOL0     C25177   3.207  11.312   5.685  0.3028  0.1081  0.7081
  949MOL0     C25178   3.281  11.195   5.622  0.5647  0.2679 -0.0650
  949MOL0     C25179   3.425  11.201   5.642 -0.5248  0.2920 -0.4887
  949MOL0    Cl25180   3.484  11.306   5.504 -0.3727 -0.6591  0.5019
  949MOL0     C25181   2.549  11.311   6.329  0.7099  0.0029 -0.3220
  949MOL0     C25182   2.476  11.362   6.438  0.3955  0.1904  0.9324
  949MOL0     O25183   2.456  11.145   6.681  0.2307  0.1720  0.2676
  949MOL0     C25184   2.247  11.377   6.865  0.4224 -0.3013  0.6648
  949MOL0     C25185   2.150  11.371   6.965  0.6799  0.4623  0.4297
  949MOL0     N25186   1.648  10.916   7.285 -0.0963  0.2339  0.8006
  949MOL0     N25187   1.578  10.815   7.317 -0.3707 -0.8010  0.3468
  949MOL0     C25188   2.335  10.523   7.156  0.0805  0.0772  0.1396
  949MOL0     C25189   2.414  10.563   7.046  0.7345  0.5189 -0.1095
  949MOL0     C25190   2.572  10.747   6.676  0.3497 -1.3426  0.8434
  949MOL0     C25191   2.614  10.879   6.638 -0.0045  0.2449 -0.4830
  949MOL0     C25192   2.672  10.891   6.508  0.2794 -0.7729 -0.2020
  949MOL0     C25193   2.706  10.787   6.430  0.3076  0.4788  0.1815
  949MOL0     O25194   2.763  10.818   6.309 -0.1956  0.2850  0.0483
  949MOL0     C25195   2.825  10.712   6.237 -0.2325 -0.4630 -0.8477
  949MOL0     C25196   2.902  10.776   6.121  0.5173  0.0469 -1.0160
  949MOL0     C25197   3.017  10.870   6.168  0.7163 -0.0563 -0.8220
  949MOL0     C25198   3.095  10.927   6.047 -0.5091 -0.2865 -0.3513
  949MOL0     C25199   3.215  10.849   6.025 -0.0340  0.6056 -0.0593
  949MOL0     C25200   3.300  10.765   6.006 -0.9006  0.3704  0.5847
  949MOL0     C25201   2.671  10.661   6.479  0.3341  0.1346  0.2324
  949MOL0     C25202   2.612  10.639   6.598 -0.8883  0.7108 -0.1105
  949MOL0     H25203   2.229  10.474   6.784 -0.9822  0.7267  0.5530
  949MOL0     H25204   2.070  10.410   6.999  0.5252  1.2971 -1.1762
  949MOL0     H25205   2.213  10.498   7.415  0.8319 -0.2225  1.6783
  949MOL0     H25206   2.317  10.373   7.356  0.6428  2.2484  1.8545
  949MOL0     H25207   2.213  10.309   7.560 -0.8585  1.5430  1.2273
  949MOL0     H25208   2.125  10.207   7.438 -0.7547  0.2547  0.2034
  949MOL0     H25209   2.045  10.468   7.589  0.2534  0.6798 -1.2567
  949MOL0     H25210   1.973  10.309   7.618  0.1876 -2.1712 -0.5383
  949MOL0     H25211   1.949  10.488   7.366  1.7918 -0.9932 -0.6407
  949MOL0     H25212   1.908  10.318   7.379  0.2659 -0.5652 -0.4729
  949MOL0     H25213   1.758  10.363   7.581  4.1056 -1.9508 -0.7453
  949MOL0     H25214   1.697  10.446   7.430 -0.0744  1.0106 -0.8298
  949MOL0     H25215   1.825  10.648   7.499  0.5389  1.4208  2.1081
  949MOL0     H25216   1.850  10.587   7.657  0.1571 -1.2480  0.2955
  949MOL0     H25217   1.597  10.577   7.686  0.2940 -1.5915 -1.9681
  949MOL0     H25218   1.683  10.738   7.679 -2.7998  0.3494 -0.9380
  949MOL0     H25219   1.458  10.700   7.569  1.6383 -3.1239  3.2147
  949MOL0     H25220   1.540  10.605   7.460 -3.9602 -0.1878  0.3576
  949MOL0     H25221   1.689  10.953   7.602 -1.6896  1.5280  0.7557
  949MOL0     H25222   1.832  11.112   7.474 -0.4475  0.6538  0.5116
  949MOL0     H25223   1.671  11.188   7.444 -0.4389 -1.9228  1.4725
  949MOL0     H25224   1.715  11.168   7.208  0.2733 -0.2191 -0.7134
  949MOL0     H25225   1.874  11.091   7.244  0.5347  1.4803 -0.7820
  949MOL0     H25226   1.790  11.379   7.301 -1.8762 -1.3929 -3.3585
  949MOL0     H25227   1.937  11.297   7.366  2.2978 -1.2881 -0.6605
  949MOL0     H25228   1.947  11.437   7.145  0.9561 -0.9363 -0.2175
  949MOL0     H25229   1.849  11.324   7.068 -1.9768  2.8544  0.0018
  949MOL0     H25230   2.169  11.047   7.062 -2.5971 -0.5925 -0.0150
  949MOL0     H25231   2.345  11.046   6.871 -1.4516 -1.0805 -0.0743
  949MOL0     H25232   2.721  11.330   6.674  1.8730  0.2552 -0.1547
  949MOL0     H25233   2.844  11.261   6.477  0.6659  4.0821 -0.1144
  949MOL0     H25234   2.947  11.229   6.203  0.9434  1.4526 -1.5592
  949MOL0     H25235   2.913  11.387   6.259 -1.0413 -0.8634  1.9520
  949MOL0     H25236   2.823  11.457   6.034 -0.3569 -0.4282  0.7976
  949MOL0     H25237   2.826  11.282   5.977  0.5768  3.1194 -4.6403
  949MOL0     H25238   3.091  11.318   6.060  1.7226  1.2179 -0.2102
  949MOL0     H25239   3.040  11.481   6.072  0.4897 -0.0943 -1.5186
  949MOL0     H25240   2.971  11.421   5.806 -0.8386 -1.8626 -0.7442
  949MOL0     H25241   3.132  11.485   5.861 -2.9969  2.3242 -0.1096
  949MOL0     H25242   3.040  11.218   5.786  0.3285  0.1152  0.3131
  949MOL0     H25243   3.191  11.228   5.886  0.8261  1.4036 -1.1114
  949MOL0     H25244   3.283  11.388   5.707  2.2821 -1.2062 -1.2062
  949MOL0     H25245   3.140  11.360   5.613 -1.4685 -2.3504  0.5830
  949MOL0     H25246   3.247  11.106   5.674 -3.3164  1.7371  0.2497
  949MOL0     H25247   3.256  11.183   5.516  0.8615  0.5551 -0.1712
  949MOL0     H25248   3.471  11.103   5.629  2.2218  0.8901  3.0628
  949MOL0     H25249   3.455  11.247   5.737  0.0134  1.3319 -1.1399
  949MOL0     H25250   2.487  11.309   6.241 -0.1506 -1.0058  0.2904
  949MOL0     H25251   2.373  11.394   6.426  0.5208  1.4441  2.6875
  949MOL0     H25252   2.266  11.467   6.808  0.4775 -1.6014 -1.4833
  949MOL0     H25253   2.098  11.464   6.989  2.2435  0.4563  4.9051
  949MOL0     H25254   2.374  10.561   7.250  1.2303 -0.2592 -0.1837
  949MOL0     H25255   2.506  10.617   7.066  0.2958  1.1792  0.1582
  949MOL0     H25256   2.597  10.975   6.686 -1.6969 -0.8351  1.2188
  949MOL0     H25257   2.687  10.995   6.480 -0.0187  0.1569  2.8116
  949MOL0     H25258   2.758  10.636   6.197  0.1252 -1.4344  0.3554
  949MOL0     H25259   2.896  10.659   6.300 -0.1769 -0.7587 -1.1556
  949MOL0     H25260   2.943  10.696   6.059  0.2541 -0.9138  0.0072
  949MOL0     H25261   2.826  10.838   6.072  1.6924  1.6804 -0.8409
  949MOL0     H25262   3.081  10.818   6.240 -1.2921 -0.4220  0.8225
  949MOL0     H25263   2.964  10.947   6.226  1.1096 -1.5380  1.6815
  949MOL0     H25264   3.038  10.930   5.954 -0.6708 -0.2786 -0.2515
  949MOL0     H25265   3.127  11.031   6.065  1.1250 -0.5400 -1.5526
  949MOL0     H25266   3.370  10.686   5.986 -1.4629 -0.1946  0.8202
  949MOL0     H25267   2.679  10.570   6.420 -0.9739  0.9189 -1.2400
  949MOL0     H25268   2.593  10.536   6.627  1.9306 -0.5182 -2.0643
  950MOL0     O25269   3.528  10.338   8.442  0.1571 -1.3837  0.0861
  950MOL0     C25270   3.543  10.463   8.472 -0.4717  0.0831 -0.1699
  950MOL0     O25271   3.581  10.504   8.595  0.0785  0.0862 -0.0476
  950MOL0     C25272   3.591  10.400   8.690 -0.1312  0.2944  0.1139
  950MOL0     C25273   3.494  10.399   8.792  0.6795  0.5794  0.3894
  950MOL0     C25274   3.498  10.298   8.889  0.3773 -0.5169 -0.5020
  950MOL0     C25275   3.593  10.197   8.889  0.1535 -0.2656  0.0419
  950MOL0     O25276   3.566  10.093   8.965 -0.8705  0.1063  1.1483
  950MOL0     C25277   3.647   9.974   8.980  0.5842 -1.0148  0.4386
  950MOL0     C25278   3.681   9.971   9.135 -0.3995  0.5220  0.9157
  950MOL0     C25279   3.807  10.053   9.151 -0.3779  0.5699 -0.4360
  950MOL0     C25280   3.838  10.046   9.302 -0.2652 -1.7009  0.7199
  950MOL0     C25281   3.840  10.190   9.354 -0.1123 -0.0069 -0.3886
  950MOL0     C25282   3.857  10.187   9.500  0.2257 -0.1072  0.1456
  950MOL0     C25283   3.885  10.329   9.547 -0.9842 -0.6962  0.8865
  950MOL0     C25284   3.774  10.423   9.489 -0.0508 -0.2612 -0.8521
  950MOL0     N25285   3.757  10.557   9.552  0.7721  0.2996 -0.4720
  950MOL0     C25286   3.657  10.582   9.638  0.4962 -0.1293  0.4736
  950MOL0     C25287   3.638  10.717   9.617 -0.2701 -0.0263  0.2671
  950MOL0     C25288   3.525  10.785   9.677  0.5163  0.0578  0.6742
  950MOL0     C25289   3.567  10.913   9.747  0.9200  0.0207  0.3386
  950MOL0     C25290   3.448  10.979   9.826 -0.2277 -0.2377  0.2229
  950MOL0     C25291   3.472  10.941   9.974 -0.5010 -0.0369 -0.2156
  950MOL0     O25292   3.460  10.804  10.009 -0.5463 -0.1182 -0.6251
  950MOL0     C25293   3.335  10.761   9.975 -0.9686 -0.0664  0.0069
  950MOL0     C25294   3.215  10.833   9.967  0.6900  0.5138  0.8423
  950MOL0     C25295   3.094  10.772   9.941 -0.3039 -0.4508 -0.6064
  950MOL0     C25296   3.096  10.632   9.921 -0.1028  0.3816 -0.2905
  950MOL0     C25297   2.967  10.552   9.900  0.2877  0.3223 -0.1971
  950MOL0     O25298   2.851  10.616   9.945  0.0786  0.5022 -0.3187
  950MOL0     C25299   2.734  10.543   9.965  0.8992 -0.3069 -0.4491
  950MOL0     C25300   2.679  10.454   9.869  0.2382 -0.9738  0.0482
  950MOL0     C25301   2.592  10.356   9.911  0.0634  0.3688 -0.3814
  950MOL0     C25302   2.557  10.342  10.050  0.7214  0.5925  0.1299
  950MOL0     O25303   2.489  10.236  10.095  0.1349 -0.0863  0.0042
  950MOL0     C25304   2.445  10.129   9.992 -0.1739 -1.1770 -0.4660
  950MOL0     C25305   2.372  10.026  10.082 -0.3821 -0.8380  1.0216
  950MOL0     C25306   2.461   9.963  10.190 -0.2777  0.3556  0.4541
  950MOL0     C25307   2.393   9.846  10.256 -0.6422  0.4604 -0.4916
  950MOL0     C25308   2.283   9.893  10.360  0.9138  0.7232  0.7553
  950MOL0     C25309   2.332   9.972  10.476 -0.4324  0.5304 -0.9550
  950MOL0     C25310   2.211  10.015  10.568 -0.1199 -0.1917  0.2294
  950MOL0     C25311   2.259  10.085  10.692 -0.8171  0.3707 -0.2069
  950MOL0    Cl25312   2.114  10.159  10.745 -0.2186  0.0108 -0.1415
  950MOL0     C25313   2.602  10.432  10.142 -0.1037  0.0942 -0.2141
  950MOL0     C25314   2.686  10.536  10.098 -0.9349 -0.1097 -0.4928
  950MOL0     O25315   2.969  10.446   9.828 -0.4575 -0.6251  0.0446
  950MOL0     C25316   3.207  10.549   9.933 -0.4651  0.3037  0.1342
  950MOL0     C25317   3.330  10.625   9.956  0.4606  0.5027 -0.1396
  950MOL0     N25318   3.713  10.762   9.513 -0.1851  0.2689 -0.7559
  950MOL0     N25319   3.802  10.668   9.491 -0.0222  0.3685 -0.0172
  950MOL0     C25320   3.700  10.208   8.794  0.3846 -0.7667  0.3939
  950MOL0     C25321   3.699  10.306   8.690  0.7483 -0.4673  0.0371
  950MOL0     C25322   3.541  10.561   8.365  1.1558  1.2883 -0.2695
  950MOL0     C25323   3.532  10.510   8.235 -0.9117  0.0055  0.3699
  950MOL0     C25324   3.531  10.598   8.124  0.0618 -0.4617 -0.1207
  950MOL0     C25325   3.545  10.736   8.147  0.0520 -0.0847 -0.2515
  950MOL0     O25326   3.558  10.817   8.035  0.5014  0.0391  0.0087
  950MOL0     C25327   3.617  10.947   8.039  0.1616 -0.4738  0.0046
  950MOL0     C25328   3.499  11.054   8.004 -1.1715  0.4891 -0.8389
  950MOL0     C25329   3.436  11.032   7.872  0.3040 -0.6481 -0.5183
  950MOL0     C25330   3.525  11.083   7.750  0.3449  0.0936  0.2832
  950MOL0     C25331   3.565  11.221   7.759 -0.9584  0.3672 -0.3754
  950MOL0     C25332   3.613  11.332   7.761  0.4944 -0.9540  0.2443
  950MOL0     C25333   3.544  10.783   8.288 -0.2579  0.2123  0.6211
  950MOL0     C25334   3.541  10.694   8.396 -0.7997 -0.5502 -0.1137
  950MOL0     H25335   3.419  10.478   8.793 -2.3852 -2.1272 -0.2600
  950MOL0     H25336   3.417  10.288   8.961  0.9747 -1.2293  0.0821
  950MOL0     H25337   3.735   9.972   8.916 -0.9281 -3.5452 -1.7822
  950MOL0     H25338   3.592   9.884   8.950 -2.5279  0.8674  0.0858
  950MOL0     H25339   3.701   9.866   9.161  0.1547 -0.1159 -1.7649
  950MOL0     H25340   3.602  10.020   9.191 -2.3832  0.9107 -1.9971
  950MOL0     H25341   3.793  10.154   9.111 -0.6233  0.1972 -1.2971
  950MOL0     H25342   3.890  10.002   9.101 -0.3163 -0.5001  0.7006
  950MOL0     H25343   3.761   9.988   9.354 -1.7609  1.3906  2.1685
  950MOL0     H25344   3.934   9.998   9.327  0.4931 -0.0880  0.9911
  950MOL0     H25345   3.742  10.233   9.330 -1.1096 -1.5496  0.7275
  950MOL0     H25346   3.924  10.242   9.308  2.3079 -1.0718  2.5584
  950MOL0     H25347   3.944  10.127   9.527 -1.2618 -2.1781  0.5520
  950MOL0     H25348   3.764  10.148   9.542 -0.3853  1.0674 -0.0831
  950MOL0     H25349   3.880  10.330   9.657  1.8621 -0.8301  1.0859
  950MOL0     H25350   3.984  10.358   9.511 -1.0197 -0.9225  0.6029
  950MOL0     H25351   3.677  10.371   9.493 -0.0470 -0.3340 -1.6068
  950MOL0     H25352   3.790  10.453   9.385  0.3948  1.3665 -0.3456
  950MOL0     H25353   3.604  10.520   9.709  0.7083  1.1613  1.8273
  950MOL0     H25354   3.462  10.718   9.736  2.4188 -1.4170  1.1028
  950MOL0     H25355   3.464  10.802   9.588  0.6731 -2.0396  0.1395
  950MOL0     H25356   3.588  10.980   9.663  1.6109  0.7846  1.0974
  950MOL0     H25357   3.659  10.896   9.804  1.7149  0.7782 -0.6779
  950MOL0     H25358   3.453  11.089   9.826 -2.6777 -0.0522 -1.5524
  950MOL0     H25359   3.354  10.948   9.780 -0.6761 -3.3706  2.9213
  950MOL0     H25360   3.396  11.004  10.021 -2.4380 -2.6390  0.3371
  950MOL0     H25361   3.568  10.980  10.007  0.7010 -0.3613 -3.0116
  950MOL0     H25362   3.216  10.941   9.961  3.0458  0.5032  0.1022
  950MOL0     H25363   3.011  10.842   9.931  1.6754  2.0678 -0.4693
  950MOL0     H25364   2.724  10.460   9.770  2.9641  1.3395  1.2822
  950MOL0     H25365   2.564  10.284   9.835  1.7854  0.9202 -1.6182
  950MOL0     H25366   2.530  10.083   9.941 -1.7948 -2.1940 -2.4481
  950MOL0     H25367   2.378  10.178   9.920  1.1448 -0.8639 -1.5263
  950MOL0     H25368   2.335   9.955  10.008 -0.0434 -0.4792  0.5051
  950MOL0     H25369   2.283  10.072  10.125 -1.7119 -2.1997 -0.1567
  950MOL0     H25370   2.495  10.038  10.262 -0.0879  0.4100  0.3084
  950MOL0     H25371   2.550   9.922  10.142  1.6854  1.8021  2.6512
  950MOL0     H25372   2.341   9.796  10.174  1.1689  1.3925 -2.2668
  950MOL0     H25373   2.478   9.785  10.289  1.4399  2.0116 -2.6584
  950MOL0     H25374   2.232   9.807  10.404  1.9637 -0.6654 -0.6261
  950MOL0     H25375   2.213   9.949  10.298  1.5749  0.6624 -0.0587
  950MOL0     H25376   2.385  10.064  10.448 -0.9551  0.3779 -2.5434
  950MOL0     H25377   2.392   9.911  10.544 -2.5011 -0.2391  0.2823
  950MOL0     H25378   2.138  10.074  10.510  0.2148  2.0953  1.9771
  950MOL0     H25379   2.152   9.926  10.592 -0.0515 -0.2545  0.1658
  950MOL0     H25380   2.336  10.157  10.661  0.4373 -1.4398 -1.5139
  950MOL0     H25381   2.291  10.009  10.763 -1.7294  1.3122  1.2726
  950MOL0     H25382   2.590  10.434  10.250  1.6541  0.4438  0.0141
  950MOL0     H25383   2.729  10.610  10.165 -1.2088  0.5956 -1.0793
  950MOL0     H25384   3.208  10.442   9.916 -0.6185  0.6012 -1.9246
  950MOL0     H25385   3.422  10.568   9.963 -0.4642 -1.0339 -0.1274
  950MOL0     H25386   3.793  10.152   8.790  1.2728  0.4279  2.5252
  950MOL0     H25387   3.772  10.306   8.610 -1.1344 -1.0248 -1.7915
  950MOL0     H25388   3.508  10.406   8.219 -2.1239  0.4695 -1.1061
  950MOL0     H25389   3.529  10.557   8.023  0.0126  0.5664 -0.5472
  950MOL0     H25390   3.685  10.958   7.954 -0.9967 -0.6978 -0.9805
  950MOL0     H25391   3.672  10.963   8.132 -1.0289  2.6925  0.2745
  950MOL0     H25392   3.435  11.026   8.088  0.0963 -3.1863 -0.9301
  950MOL0     H25393   3.522  11.160   8.021  1.4867  0.0907 -1.3856
  950MOL0     H25394   3.354  11.102   7.891  4.3370  3.8815  2.9715
  950MOL0     H25395   3.386  10.936   7.860  0.1588 -0.4852 -1.3341
  950MOL0     H25396   3.617  11.024   7.736  0.3748  0.6378 -2.4135
  950MOL0     H25397   3.472  11.061   7.656 -0.4416  0.5402  0.6182
  950MOL0     H25398   3.641  11.435   7.772 -1.9096 -0.0821 -0.9541
  950MOL0     H25399   3.552  10.889   8.309  0.4383  1.0154 -3.0309
  950MOL0     H25400   3.545  10.707   8.504 -1.3529 -2.9266  0.2413
  951MOL0     O25401   2.123   7.485   3.468 -0.3459 -0.5614  0.3525
  951MOL0     C25402   2.067   7.556   3.380 -0.8330 -1.5259 -0.0066
  951MOL0     O25403   2.036   7.525   3.254  0.4777  0.2331  0.3370
  951MOL0     C25404   2.061   7.399   3.202 -1.2653  0.0458  0.7320
  951MOL0     C25405   1.999   7.278   3.243  0.1992  0.4810 -0.3347
  951MOL0     C25406   2.047   7.157   3.198 -1.2616 -0.0621  1.4399
  951MOL0     C25407   2.135   7.157   3.092 -0.1087  0.2962  0.5450
  951MOL0     O25408   2.171   7.034   3.037  0.4045  0.3801 -0.7236
  951MOL0     C25409   2.258   7.037   2.924  1.0181 -0.1287  0.0199
  951MOL0     C25410   2.306   6.907   2.888  0.4674 -0.3643  0.2795
  951MOL0     C25411   2.200   6.814   2.829  0.6088  0.6181 -0.4651
  951MOL0     C25412   2.245   6.669   2.796 -0.8650 -0.2767 -0.7868
  951MOL0     C25413   2.123   6.584   2.750  0.2851  0.0062  0.0140
  951MOL0     C25414   2.177   6.448   2.698  0.1690  0.2481  0.0815
  951MOL0     C25415   2.059   6.343   2.680  0.3147  0.8899  1.1805
  951MOL0     C25416   2.024   6.319   2.528  0.8682  0.3991  0.0435
  951MOL0     N25417   2.121   6.260   2.447  0.6630 -0.1398 -0.1554
  951MOL0     C25418   2.173   6.310   2.331  0.2290 -0.4945 -0.5896
  951MOL0     C25419   2.281   6.239   2.320 -0.6959  0.8917  0.3338
  951MOL0     C25420   2.385   6.274   2.211  0.3359 -0.5456 -0.1688
  951MOL0     C25421   2.516   6.199   2.226 -1.0034 -0.2327 -0.3779
  951MOL0     C25422   2.623   6.262   2.141 -1.0904  0.3845 -0.2370
  951MOL0     C25423   2.629   6.212   1.993  0.1944  0.9491 -0.2930
  951MOL0     O25424   2.716   6.298   1.918 -0.5726  0.1372 -0.6416
  951MOL0     C25425   2.678   6.421   1.864  0.0028 -0.6780 -0.3215
  951MOL0     C25426   2.548   6.469   1.869  0.2332  0.8849 -0.3956
  951MOL0     C25427   2.519   6.594   1.830  0.2529 -0.9354  0.7329
  951MOL0     C25428   2.615   6.673   1.761 -0.2196  0.6626  0.7095
  951MOL0     C25429   2.577   6.815   1.723  0.7389 -1.0306 -0.2028
  951MOL0     O25430   2.460   6.864   1.771 -0.4926  0.0941  0.3514
  951MOL0     C25431   2.424   7.000   1.752  0.0778  0.2544 -0.2447
  951MOL0     C25432   2.290   7.028   1.760 -0.0355  0.2595  0.3011
  951MOL0     C25433   2.230   7.155   1.755 -0.8250  0.3345  0.4800
  951MOL0     C25434   2.316   7.264   1.744  0.3289  0.0318 -0.9643
  951MOL0     O25435   2.273   7.385   1.775 -0.1782  0.0327 -0.7462
  951MOL0     C25436   2.177   7.440   1.684 -0.4638  0.7904  0.3735
  951MOL0     C25437   2.233   7.590   1.669 -0.1522  1.2510 -0.0122
  951MOL0     C25438   2.137   7.684   1.594  0.4185  0.0137  0.5577
  951MOL0     C25439   1.994   7.680   1.652  0.3476  0.5827  0.2385
  951MOL0     C25440   1.912   7.793   1.596 -1.2496 -0.2987  0.1354
  951MOL0     C25441   1.818   7.862   1.682 -0.7337 -0.1412  0.7201
  951MOL0     C25442   1.755   7.988   1.610 -0.0500  0.6008  0.2981
  951MOL0     C25443   1.640   8.053   1.691 -0.6514  0.3395 -0.0841
  951MOL0    Cl25444   1.687   8.070   1.864  0.1748 -0.6097 -0.1425
  951MOL0     C25445   2.454   7.246   1.745  0.5780 -0.0425 -0.1674
  951MOL0     C25446   2.510   7.112   1.754  0.6588 -0.9490  1.5864
  951MOL0     O25447   2.662   6.875   1.659 -0.4513  0.0164 -0.7915
  951MOL0     C25448   2.741   6.626   1.738 -0.4540 -0.4017 -0.1844
  951MOL0     C25449   2.778   6.505   1.801  0.0509 -0.9662 -0.5316
  951MOL0     N25450   2.293   6.132   2.417 -0.2201  0.3930  0.7134
  951MOL0     N25451   2.187   6.151   2.480  1.3885 -0.6743 -1.0826
  951MOL0     C25452   2.217   7.278   3.063 -0.4896 -0.4123 -0.6390
  951MOL0     C25453   2.173   7.398   3.113 -0.1145 -0.2373 -1.0938
  951MOL0     C25454   2.034   7.695   3.433  0.2670 -0.9642  0.3383
  951MOL0     C25455   1.976   7.799   3.352 -0.8398  0.4414 -0.6153
  951MOL0     C25456   1.939   7.926   3.392 -1.3193 -0.1570  0.0005
  951MOL0     C25457   1.962   7.966   3.519  0.3595  0.7992  0.2934
  951MOL0     O25458   1.946   8.101   3.547 -0.1626 -0.2488 -0.4638
  951MOL0     C25459   1.936   8.132   3.691  0.3281  0.3629  0.6665
  951MOL0     C25460   1.949   8.280   3.719  0.5410  0.7663  0.7982
  951MOL0     C25461   1.816   8.353   3.762  1.1475 -1.0256 -0.4265
  951MOL0     C25462   1.859   8.499   3.812 -0.0951 -0.0205  0.9518
  951MOL0     C25463   1.750   8.599   3.858 -0.0296 -0.3158  0.4861
  951MOL0     C25464   1.671   8.686   3.890  0.9392 -0.0684  0.1974
  951MOL0     C25465   2.017   7.870   3.605  0.1363  0.0840 -0.5768
  951MOL0     C25466   2.053   7.734   3.568  0.6099  0.7163  0.2547
  951MOL0     H25467   1.936   7.265   3.330 -0.5208 -0.2322 -0.9421
  951MOL0     H25468   2.004   7.060   3.220 -0.3123 -1.5981 -2.5321
  951MOL0     H25469   2.342   7.106   2.934  1.0777  0.1478 -1.9842
  951MOL0     H25470   2.203   7.093   2.847 -0.6493  1.1353  2.0129
  951MOL0     H25471   2.339   6.855   2.978  0.2436  0.1525  0.6626
  951MOL0     H25472   2.386   6.918   2.814 -0.7124 -0.3714 -1.0624
  951MOL0     H25473   2.161   6.865   2.741  0.1760 -0.6802 -1.0399
  951MOL0     H25474   2.114   6.800   2.896  1.1219 -0.8328 -0.0669
  951MOL0     H25475   2.330   6.681   2.728  0.9264 -0.2979  1.3099
  951MOL0     H25476   2.294   6.624   2.883  0.6036  2.0446 -0.3151
  951MOL0     H25477   2.068   6.626   2.666 -0.7846 -3.5318 -1.2422
  951MOL0     H25478   2.044   6.563   2.823  1.2210 -2.8710  0.3418
  951MOL0     H25479   2.249   6.399   2.764 -0.6656 -0.2401  0.6566
  951MOL0     H25480   2.225   6.456   2.600 -0.5016  2.7317 -0.1268
  951MOL0     H25481   2.106   6.252   2.720  3.0002  1.9101  0.5984
  951MOL0     H25482   1.964   6.368   2.729 -1.0877  1.7379 -1.7826
  951MOL0     H25483   1.991   6.408   2.473  1.3844  0.5115 -0.0861
  951MOL0     H25484   1.932   6.259   2.526  0.1997  1.4157 -0.2500
  951MOL0     H25485   2.148   6.381   2.253  2.5144 -0.8981 -1.7683
  951MOL0     H25486   2.412   6.379   2.218  0.8720 -0.5685 -1.5181
  951MOL0     H25487   2.328   6.261   2.118 -2.0187 -0.4801  1.1711
  951MOL0     H25488   2.493   6.098   2.191  0.7691 -0.7746 -0.0665
  951MOL0     H25489   2.552   6.195   2.329 -0.2837  2.8151 -0.4064
  951MOL0     H25490   2.608   6.370   2.149 -2.5981  0.1640  0.1940
  951MOL0     H25491   2.723   6.243   2.180  0.3562 -0.1687 -3.8130
  951MOL0     H25492   2.526   6.196   1.959  0.6103 -3.0431 -0.2312
  951MOL0     H25493   2.687   6.119   1.993  0.1849  0.9421 -1.0555
  951MOL0     H25494   2.469   6.406   1.909 -0.2923 -0.1007 -2.8358
  951MOL0     H25495   2.419   6.631   1.852  0.9749  1.2957  0.4356
  951MOL0     H25496   2.219   6.946   1.756 -0.2785  0.4646  0.4269
  951MOL0     H25497   2.122   7.167   1.764 -0.9592 -0.9124  0.7320
  951MOL0     H25498   2.080   7.435   1.734 -0.4451  3.3955  0.7972
  951MOL0     H25499   2.169   7.384   1.590  0.6886  3.8716 -1.7223
  951MOL0     H25500   2.324   7.588   1.609  0.1797 -0.3954  0.5118
  951MOL0     H25501   2.265   7.630   1.766 -0.3026 -1.1403  1.0806
  951MOL0     H25502   2.127   7.666   1.487  0.7797 -1.0816  0.6922
  951MOL0     H25503   2.182   7.783   1.609  2.0498 -0.6922  0.6157
  951MOL0     H25504   1.954   7.580   1.634 -1.8410  1.1004  1.8785
  951MOL0     H25505   1.999   7.696   1.761 -0.7714 -0.6263  0.4855
  951MOL0     H25506   1.854   7.746   1.517  0.3510 -3.2807  0.5815
  951MOL0     H25507   1.974   7.867   1.545  0.4400 -3.7704 -3.3272
  951MOL0     H25508   1.879   7.902   1.763  1.7888  0.7672 -1.5185
  951MOL0     H25509   1.749   7.795   1.735 -1.1513  0.6798  1.2496
  951MOL0     H25510   1.833   8.062   1.589 -1.4166  2.7175  2.2415
  951MOL0     H25511   1.712   7.971   1.511 -2.0669  3.7633  0.4663
  951MOL0     H25512   1.549   7.992   1.687  0.3323 -1.2603  0.8261
  951MOL0     H25513   1.603   8.147   1.648 -3.9735 -0.1947  1.2571
  951MOL0     H25514   2.527   7.326   1.736  1.5887 -1.1331 -2.3750
  951MOL0     H25515   2.618   7.105   1.754  0.8546  1.1472  0.0976
  951MOL0     H25516   2.822   6.684   1.694 -2.6719  3.0748 -0.0909
  951MOL0     H25517   2.881   6.470   1.811  0.4150  0.2683  0.3050
  951MOL0     H25518   2.302   7.288   2.995  0.0475 -1.4378 -0.1308
  951MOL0     H25519   2.226   7.493   3.104  0.3150  0.1679  3.4316
  951MOL0     H25520   1.965   7.770   3.248 -0.1584 -1.0434 -0.2941
  951MOL0     H25521   1.896   8.000   3.326 -3.4168 -1.0621  0.2718
  951MOL0     H25522   2.024   8.097   3.746  1.5808  2.2524 -0.0281
  951MOL0     H25523   1.842   8.095   3.733  0.6692  0.4477  1.5205
  951MOL0     H25524   2.023   8.282   3.800  1.7617 -0.4457 -0.2314
  951MOL0     H25525   1.996   8.342   3.641 -1.8900  0.3159 -1.1280
  951MOL0     H25526   1.766   8.298   3.842  1.1314  0.5082  0.6487
  951MOL0     H25527   1.742   8.361   3.682 -2.6161  0.8908  2.9025
  951MOL0     H25528   1.920   8.480   3.901  0.5374 -0.3044  0.4685
  951MOL0     H25529   1.926   8.540   3.737 -1.7707  0.8307 -0.1405
  951MOL0     H25530   1.607   8.769   3.915  2.0007  1.5331 -1.9841
  951MOL0     H25531   2.025   7.885   3.712 -0.6973  3.5771 -0.8729
  951MOL0     H25532   2.081   7.671   3.652  0.8993  1.1973  0.5251
  952MOL0     O25533   2.454   2.926   4.474  0.6503  0.4442 -0.3172
  952MOL0     C25534   2.394   3.032   4.507  0.0362  0.0594 -0.0823
  952MOL0     O25535   2.297   3.097   4.448  0.4763 -0.7529  0.4698
  952MOL0     C25536   2.267   3.063   4.316  0.3428  1.1633  0.0095
  952MOL0     C25537   2.147   3.000   4.292  0.2802  0.8110 -0.1593
  952MOL0     C25538   2.113   2.957   4.165  0.6867  1.1693 -0.8429
  952MOL0     C25539   2.182   3.002   4.054 -0.7888  0.6055 -0.1936
  952MOL0     O25540   2.140   2.988   3.924  0.2473  0.4648 -0.6618
  952MOL0     C25541   2.185   2.863   3.865  0.4284 -0.0709  0.2974
  952MOL0     C25542   2.102   2.825   3.730  0.2193 -0.6935 -0.0521
  952MOL0     C25543   2.183   2.726   3.655  0.7627 -0.0433  0.0862
  952MOL0     C25544   2.123   2.691   3.507  0.3331  0.6261 -0.4793
  952MOL0     C25545   2.241   2.646   3.411  0.6357 -0.2152 -0.5959
  952MOL0     C25546   2.212   2.644   3.263  0.8474  0.2590  0.7240
  952MOL0     C25547   2.083   2.576   3.227 -0.4638  0.5271  0.9738
  952MOL0     C25548   2.095   2.424   3.252  0.0613  0.6708  0.0371
  952MOL0     N25549   1.999   2.349   3.174 -0.4270  0.2624 -0.1046
  952MOL0     C25550   1.859   2.384   3.179 -0.3689 -0.1287  0.4924
  952MOL0     C25551   1.819   2.332   3.064  0.2140 -0.3586  0.2553
  952MOL0     C25552   1.672   2.333   3.016  0.2942 -0.5586  0.5258
  952MOL0     C25553   1.565   2.356   3.128 -0.1441 -0.3046 -1.3454
  952MOL0     C25554   1.580   2.271   3.253 -0.3113 -0.1725 -0.9749
  952MOL0     C25555   1.451   2.267   3.344  0.6839  0.3597  0.5535
  952MOL0     O25556   1.455   2.182   3.459  0.6187 -0.0785  0.2819
  952MOL0     C25557   1.439   2.051   3.452  0.1511  0.9061 -0.0896
  952MOL0     C25558   1.391   1.976   3.341 -0.2294 -0.5342 -0.3312
  952MOL0     C25559   1.371   1.839   3.354 -0.0284  0.9526 -0.0204
  952MOL0     C25560   1.389   1.768   3.472 -0.8541  0.6436  0.3128
  952MOL0     C25561   1.349   1.623   3.485  0.1551  0.4913 -0.4340
  952MOL0     O25562   1.335   1.583   3.610 -0.4511  0.1441  1.3418
  952MOL0     C25563   1.265   1.465   3.628 -0.1130 -0.5446  0.7007
  952MOL0     C25564   1.324   1.341   3.593 -0.1292 -0.0264 -0.2291
  952MOL0     C25565   1.244   1.226   3.595 -0.3211  0.3323 -0.9473
  952MOL0     C25566   1.109   1.228   3.633 -0.1745 -0.1629  0.8245
  952MOL0     O25567   1.020   1.123   3.639  0.2315  0.0768 -0.0745
  952MOL0     C25568   1.037   1.023   3.537 -0.5455  0.2277  0.1441
  952MOL0     C25569   0.907   0.955   3.529 -0.9007 -1.2599  0.0236
  952MOL0     C25570   0.895   0.881   3.395 -0.0730 -0.3795  0.0235
  952MOL0     C25571   0.770   0.798   3.397 -1.0017  0.9500  0.3632
  952MOL0     C25572   0.721   0.758   3.252  0.8266  0.3486  0.3549
  952MOL0     C25573   0.590   0.671   3.241 -0.7517  0.9030  0.6905
  952MOL0     C25574   0.625   0.522   3.208 -0.4921  0.0371  0.0003
  952MOL0     C25575   0.513   0.437   3.161  0.3355  0.0260 -0.6545
  952MOL0    Cl25576   0.398   0.434   3.306 -0.1998  0.0677  0.2962
  952MOL0     C25577   1.054   1.351   3.661  0.6392 -0.8493 -0.4235
  952MOL0     C25578   1.125   1.472   3.663 -0.0465  0.5350 -0.1031
  952MOL0     O25579   1.325   1.552   3.387  0.8117 -0.3700 -0.1332
  952MOL0     C25580   1.426   1.840   3.584 -0.2025 -0.5755 -0.3227
  952MOL0     C25581   1.451   1.974   3.575 -0.0987 -0.2695 -0.0812
  952MOL0     N25582   1.929   2.264   2.998 -0.2371  0.0453 -0.5997
  952MOL0     N25583   2.034   2.281   3.064 -0.0362  0.1070  0.3913
  952MOL0     C25584   2.303   3.075   4.076  0.4358 -0.0204 -0.8325
  952MOL0     C25585   2.345   3.100   4.207  0.3691  0.1763  0.7852
  952MOL0     C25586   2.428   3.086   4.639  0.5356 -0.0147  0.3495
  952MOL0     C25587   2.462   3.009   4.744  0.4875 -0.8124  0.2846
  952MOL0     C25588   2.503   3.060   4.865 -0.7899 -0.2378 -0.4487
  952MOL0     C25589   2.526   3.199   4.883 -0.3147 -0.4109 -1.0170
  952MOL0     O25590   2.569   3.240   5.007 -0.2223  0.1022  0.1147
  952MOL0     C25591   2.568   3.382   5.031 -0.2394  0.3785 -0.5814
  952MOL0     C25592   2.631   3.422   5.167 -0.5244 -0.3688  0.4926
  952MOL0     C25593   2.595   3.354   5.296  1.0944  0.3562 -0.2533
  952MOL0     C25594   2.441   3.332   5.302  0.2690  0.0044 -0.0034
  952MOL0     C25595   2.413   3.252   5.422  0.5409  0.8260 -0.1138
  952MOL0     C25596   2.395   3.186   5.528 -0.2896  0.0267  0.1480
  952MOL0     C25597   2.483   3.283   4.784  0.0078 -1.5397 -0.2244
  952MOL0     C25598   2.440   3.230   4.659 -0.1341 -1.1578  0.4033
  952MOL0     H25599   2.106   2.956   4.382 -0.5400 -0.3069 -1.0440
  952MOL0     H25600   2.022   2.902   4.144 -1.7526  5.7033 -3.9423
  952MOL0     H25601   2.156   2.782   3.932  1.0097 -0.0304  0.6062
  952MOL0     H25602   2.293   2.857   3.847  0.6559 -1.5186  1.9521
  952MOL0     H25603   2.079   2.916   3.674  0.8541 -1.5910 -1.8460
  952MOL0     H25604   2.010   2.773   3.757 -0.0353 -0.1822  0.0896
  952MOL0     H25605   2.192   2.635   3.715  0.5283 -0.4129 -0.4284
  952MOL0     H25606   2.287   2.760   3.652  1.2332 -1.2734  1.6001
  952MOL0     H25607   2.043   2.619   3.525  1.8142 -0.2872  3.5511
  952MOL0     H25608   2.070   2.771   3.456 -4.0807 -0.8112  1.4212
  952MOL0     H25609   2.266   2.543   3.438  1.1540 -0.9290 -3.5172
  952MOL0     H25610   2.332   2.705   3.427 -0.1849  0.6055  1.3487
  952MOL0     H25611   2.297   2.609   3.203 -0.6715 -0.4052 -1.1490
  952MOL0     H25612   2.204   2.747   3.226  1.8204  0.8261  2.0185
  952MOL0     H25613   1.997   2.609   3.286 -1.5558  1.7676 -1.1756
  952MOL0     H25614   2.054   2.596   3.124  0.8397 -0.6329  0.3400
  952MOL0     H25615   2.062   2.396   3.352 -3.3707  1.2536 -0.8172
  952MOL0     H25616   2.196   2.389   3.229  0.7146  2.0909  0.6071
  952MOL0     H25617   1.818   2.444   3.259  2.1576 -0.3117  2.0198
  952MOL0     H25618   1.639   2.233   2.986 -1.0814 -1.0276  3.2600
  952MOL0     H25619   1.662   2.402   2.932 -0.1366 -0.8366  0.3447
  952MOL0     H25620   1.468   2.330   3.086 -0.7756  0.4841 -0.4460
  952MOL0     H25621   1.569   2.462   3.158  2.1539 -0.3538 -1.2904
  952MOL0     H25622   1.602   2.167   3.228  1.7763  0.6582 -2.9240
  952MOL0     H25623   1.652   2.326   3.315 -0.5346  0.4301 -1.2333
  952MOL0     H25624   1.363   2.259   3.280  2.6377  1.0373 -2.4148
  952MOL0     H25625   1.437   2.367   3.384  0.3988  1.1237 -1.3561
  952MOL0     H25626   1.365   2.037   3.255  1.4861  3.7777  1.8722
  952MOL0     H25627   1.338   1.784   3.267 -2.6520  0.7980  0.9866
  952MOL0     H25628   1.424   1.334   3.550 -1.5972  2.5694 -4.6091
  952MOL0     H25629   1.297   1.132   3.581 -2.4226 -0.9716 -0.5507
  952MOL0     H25630   1.111   0.947   3.565  3.3987  1.5719 -5.0961
  952MOL0     H25631   1.068   1.066   3.442 -0.0921  2.1550  1.1143
  952MOL0     H25632   0.821   1.022   3.538  0.1246  0.1449 -0.1928
  952MOL0     H25633   0.888   0.884   3.610 -4.9095  0.4962  0.8682
  952MOL0     H25634   0.980   0.813   3.384 -0.8479 -1.0510 -2.9458
  952MOL0     H25635   0.893   0.947   3.307 -0.7938  0.8012  0.9020
  952MOL0     H25636   0.790   0.705   3.452 -1.5225  0.2791 -0.5565
  952MOL0     H25637   0.685   0.834   3.454 -2.1970 -1.9433  0.6034
  952MOL0     H25638   0.800   0.706   3.196 -0.9477  0.5177 -2.5497
  952MOL0     H25639   0.692   0.852   3.204  1.2555  1.0334  1.4036
  952MOL0     H25640   0.535   0.705   3.152 -1.0299  1.7287  1.1714
  952MOL0     H25641   0.531   0.666   3.332  1.8987 -5.3473  2.5823
  952MOL0     H25642   0.704   0.523   3.132  0.2195 -1.7745  0.6560
  952MOL0     H25643   0.662   0.488   3.306 -0.4638  0.9677  0.3184
  952MOL0     H25644   0.541   0.332   3.148  0.3640 -0.0342 -0.1203
  952MOL0     H25645   0.466   0.493   3.079  0.0110  1.3786  0.4244
  952MOL0     H25646   0.952   1.340   3.696 -0.1894 -1.8848 -2.9094
  952MOL0     H25647   1.083   1.567   3.692 -1.0311 -0.3091  1.4143
  952MOL0     H25648   1.426   1.787   3.679 -1.6485 -0.5438 -0.2818
  952MOL0     H25649   1.474   2.036   3.662  3.1632 -0.3449 -0.7591
  952MOL0     H25650   2.367   3.108   3.995 -1.9173  1.0739 -2.3577
  952MOL0     H25651   2.442   3.148   4.219  0.9480  0.3662 -3.2259
  952MOL0     H25652   2.451   2.902   4.732  0.9507 -0.6716 -1.7214
  952MOL0     H25653   2.526   2.999   4.952  2.2607  2.0415  0.5481
  952MOL0     H25654   2.467   3.424   5.030  0.0510  1.1956  0.7800
  952MOL0     H25655   2.631   3.434   4.958 -2.5041 -0.4362 -3.2961
  952MOL0     H25656   2.738   3.405   5.152  0.1946  2.7050  1.2949
  952MOL0     H25657   2.626   3.531   5.177  1.0060  0.0803 -2.4295
  952MOL0     H25658   2.626   3.420   5.378 -0.0282  3.3343 -2.0597
  952MOL0     H25659   2.648   3.259   5.307 -4.7880 -3.4055 -0.2386
  952MOL0     H25660   2.385   3.425   5.314 -0.3021 -0.2281 -0.7221
  952MOL0     H25661   2.401   3.267   5.223 -3.4837 -1.5493  2.8994
  952MOL0     H25662   2.383   3.155   5.630  0.9048 -0.2526  0.2196
  952MOL0     H25663   2.486   3.392   4.787 -1.0993 -1.4292 -1.7752
  952MOL0     H25664   2.419   3.317   4.598 -2.4732  1.7442  4.8341
  953MOL0     O25665   9.560   5.361   7.969  0.0622  0.6727  0.1490
  953MOL0     C25666   9.565   5.327   8.083  0.5746  0.6230  0.9445
  953MOL0     O25667   9.678   5.324   8.164 -0.4062  0.0472 -0.3068
  953MOL0     C25668   9.798   5.365   8.112 -0.0038  0.0335  0.6886
  953MOL0     C25669   9.891   5.279   8.058 -1.1810  0.1429 -0.0373
  953MOL0     C25670  10.014   5.332   7.999  0.3562  0.5474  0.4100
  953MOL0     C25671  10.038   5.479   8.006  0.4708  0.9434  0.1360
  953MOL0     O25672  10.145   5.548   7.958 -0.2108 -0.5882 -0.4936
  953MOL0     C25673  10.250   5.480   7.892  1.3289 -0.6009  0.0375
  953MOL0     C25674  10.358   5.417   7.989 -0.5809  0.1403 -0.2020
  953MOL0     C25675  10.441   5.537   8.049  0.5163  1.1185  0.2174
  953MOL0     C25676  10.568   5.496   8.139 -0.3239  0.4277  0.8664
  953MOL0     C25677  10.650   5.621   8.180  1.0984  0.1737 -0.2772
  953MOL0     C25678  10.760   5.581   8.280 -0.0590 -0.3492 -0.7517
  953MOL0     C25679  10.845   5.700   8.336  0.0293 -1.2826  0.7352
  953MOL0     C25680  10.958   5.646   8.426 -0.0352 -0.2695  0.7444
  953MOL0     N25681  11.033   5.757   8.498  0.4512 -0.0887 -0.2568
  953MOL0     C25682  11.108   5.737   8.608 -0.0050 -0.7522 -0.8070
  953MOL0     C25683  11.178   5.853   8.613  0.5066  0.1977  0.1769
  953MOL0     C25684  11.270   5.889   8.726 -0.7338  0.1856 -0.2472
  953MOL0     C25685  11.196   5.926   8.857  0.1592 -0.6429 -0.3761
  953MOL0     C25686  11.106   6.054   8.835 -0.3325 -0.2377  0.3626
  953MOL0     C25687  11.188   6.176   8.789 -0.4774  0.0305 -0.3287
  953MOL0     O25688  11.275   6.220   8.886  0.9084 -0.3389  0.4459
  953MOL0     C25689  11.358   6.321   8.845  0.0838 -1.0497  0.3509
  953MOL0     C25690  11.435   6.370   8.946 -0.3321  0.4023  0.3632
  953MOL0     C25691  11.529   6.468   8.923 -0.7923 -0.7629  0.2673
  953MOL0     C25692  11.529   6.535   8.802  1.3935  0.0285  0.5870
  953MOL0     C25693  11.609   6.659   8.787 -0.0364  0.1647 -0.8669
  953MOL0     O25694  11.654   6.708   8.896 -0.0375  0.4824 -0.2490
  953MOL0     C25695  11.769   6.792   8.897  0.5215  0.0691 -0.0346
  953MOL0     C25696  11.793   6.870   9.011  0.5188 -0.7198 -0.5055
  953MOL0     C25697  11.907   6.966   9.033  0.6469  0.0162  0.0026
  953MOL0     C25698  11.998   6.971   8.927 -0.6210  0.7265  0.2946
  953MOL0     O25699  12.106   7.050   8.936 -0.0393  0.4079  0.0075
  953MOL0     C25700  12.095   7.175   9.008  0.3025 -0.1655  0.7210
  953MOL0     C25701  12.224   7.251   8.985  1.1088 -0.6042 -0.3929
  953MOL0     C25702  12.212   7.406   9.042 -0.2631  0.9408  0.1088
  953MOL0     C25703  12.177   7.420   9.188 -0.6797  0.7629  0.7040
  953MOL0     C25704  12.158   7.561   9.234 -0.3043 -0.6071  0.9301
  953MOL0     C25705  12.126   7.550   9.377  0.9375  0.3984  0.1079
  953MOL0     C25706  12.113   7.692   9.436 -0.6760 -0.2831  0.3449
  953MOL0     C25707  12.250   7.772   9.434  0.1085 -0.7920 -0.8237
  953MOL0    Cl25708  12.221   7.912   9.541 -0.0068 -0.2990  0.3150
  953MOL0     C25709  11.977   6.891   8.812 -0.3212  0.7237 -0.4927
  953MOL0     C25710  11.862   6.809   8.796 -0.5362  0.4529  0.8239
  953MOL0     O25711  11.619   6.719   8.682 -0.5187  0.6524  1.2003
  953MOL0     C25712  11.454   6.483   8.696 -0.3834  0.4462 -0.4909
  953MOL0     C25713  11.372   6.370   8.712 -0.7656 -0.4871 -0.4206
  953MOL0     N25714  11.143   5.941   8.517 -0.1729  0.9603 -0.4184
  953MOL0     N25715  11.069   5.871   8.434  0.8152 -0.7522 -0.2060
  953MOL0     C25716   9.938   5.559   8.066 -0.2092  0.3832 -0.4871
  953MOL0     C25717   9.822   5.504   8.118  0.0090  0.1935 -0.0871
  953MOL0     C25718   9.444   5.256   8.119 -1.2750 -0.6351 -0.9445
  953MOL0     C25719   9.351   5.209   8.027  0.0481  0.0107 -0.9772
  953MOL0     C25720   9.228   5.150   8.074 -0.9393  0.0375  0.1951
  953MOL0     C25721   9.213   5.122   8.214 -0.2265 -0.5165  0.3956
  953MOL0     O25722   9.110   5.049   8.279 -0.1775  0.0230 -0.3647
  953MOL0     C25723   9.003   4.997   8.196 -0.3519  0.1286 -0.1508
  953MOL0     C25724   8.901   4.897   8.250 -1.0455 -0.3197 -0.2942
  953MOL0     C25725   8.779   4.924   8.171 -0.1770 -0.0750  0.0839
  953MOL0     C25726   8.684   4.805   8.175 -0.4770 -0.5535  0.1574
  953MOL0     C25727   8.595   4.827   8.060 -0.0973 -1.5364 -0.4394
  953MOL0     C25728   8.527   4.851   7.969 -0.8192  0.3404  0.5560
  953MOL0     C25729   9.315   5.164   8.301  0.4026  0.1269  0.5749
  953MOL0     C25730   9.427   5.231   8.264  0.2335  0.5673 -0.5114
  953MOL0     H25731   9.879   5.171   8.065 -0.3803  0.0468 -0.1497
  953MOL0     H25732  10.087   5.266   7.955 -0.2281 -1.5680  2.4003
  953MOL0     H25733  10.312   5.553   7.838  0.4647 -0.4784 -0.8048
  953MOL0     H25734  10.215   5.414   7.812  0.6287  0.2443 -0.3659
  953MOL0     H25735  10.422   5.355   7.926 -1.8456  0.4076 -1.8016
  953MOL0     H25736  10.301   5.361   8.064 -0.8409  0.1470 -0.3908
  953MOL0     H25737  10.369   5.583   8.117 -0.4936 -1.0219  0.6965
  953MOL0     H25738  10.467   5.601   7.964  1.1324 -1.2900 -1.5375
  953MOL0     H25739  10.539   5.434   8.224  0.6133 -1.1605  0.0688
  953MOL0     H25740  10.632   5.434   8.076 -0.6905  0.4850  0.4278
  953MOL0     H25741  10.592   5.699   8.230 -0.5417 -1.3416  0.2616
  953MOL0     H25742  10.685   5.662   8.084  1.2936 -1.2985 -0.8565
  953MOL0     H25743  10.821   5.507   8.227  0.9586 -1.3669  1.6933
  953MOL0     H25744  10.719   5.520   8.361 -0.1083  0.5046 -0.1238
  953MOL0     H25745  10.886   5.770   8.263 -0.3828 -0.4855  1.2560
  953MOL0     H25746  10.774   5.754   8.400  1.1906  2.7783 -1.1086
  953MOL0     H25747  11.025   5.591   8.360 -0.6617  2.4233 -2.4085
  953MOL0     H25748  10.921   5.574   8.500  0.1153 -1.5094 -0.3607
  953MOL0     H25749  11.108   5.653   8.676  0.2364 -0.5612 -0.5693
  953MOL0     H25750  11.339   5.965   8.688 -1.7162  0.5674 -1.3275
  953MOL0     H25751  11.336   5.805   8.750  0.3283  0.8986 -0.5674
  953MOL0     H25752  11.269   5.947   8.936 -0.0692 -1.8186  0.1778
  953MOL0     H25753  11.130   5.847   8.894  0.3777 -0.7114 -0.1188
  953MOL0     H25754  11.029   6.026   8.762  1.9392  0.6456 -2.6033
  953MOL0     H25755  11.058   6.076   8.931  0.5258 -3.3869  1.6485
  953MOL0     H25756  11.120   6.259   8.767 -0.6666 -0.2963 -1.0058
  953MOL0     H25757  11.242   6.157   8.695 -1.8940  2.5133 -1.7588
  953MOL0     H25758  11.433   6.308   9.035 -1.6011  1.8196  1.3667
  953MOL0     H25759  11.601   6.513   8.990  0.5142  2.1992 -2.7942
  953MOL0     H25760  11.723   6.864   9.094 -0.0360 -1.6330 -1.0299
  953MOL0     H25761  11.914   7.023   9.125  0.2665  1.9355 -1.0870
  953MOL0     H25762  12.076   7.161   9.115 -1.7949 -0.0064  0.4013
  953MOL0     H25763  12.013   7.231   8.961 -0.2252  0.2251  2.0570
  953MOL0     H25764  12.230   7.253   8.876 -3.9983  2.5348 -0.9289
  953MOL0     H25765  12.313   7.204   9.028  1.9531  3.1140  2.3993
  953MOL0     H25766  12.122   7.448   8.996  0.4924  1.9963 -0.4532
  953MOL0     H25767  12.299   7.465   9.012 -0.8206  0.5577 -2.5072
  953MOL0     H25768  12.088   7.363   9.214 -3.9338  4.2749 -1.7195
  953MOL0     H25769  12.262   7.389   9.250 -0.8351  3.3024  2.3084
  953MOL0     H25770  12.080   7.616   9.181 -0.4829 -1.5826  0.1644
  953MOL0     H25771  12.249   7.621   9.222 -1.9346  2.3984  2.5641
  953MOL0     H25772  12.199   7.496   9.438  1.6398 -2.2026 -2.7816
  953MOL0     H25773  12.030   7.499   9.393  0.7778  0.9093  0.8717
  953MOL0     H25774  12.044   7.755   9.379  3.7746  1.9313 -3.3158
  953MOL0     H25775  12.072   7.686   9.537 -0.2265 -1.8312  0.4506
  953MOL0     H25776  12.274   7.783   9.328 -2.3619 -1.6522 -1.5544
  953MOL0     H25777  12.325   7.700   9.469 -2.5938 -2.0706  3.0848
  953MOL0     H25778  12.046   6.897   8.729 -1.4657  1.7948 -1.3989
  953MOL0     H25779  11.859   6.754   8.702  2.8714 -0.5160  1.1499
  953MOL0     H25780  11.456   6.533   8.600 -0.9751 -2.1559 -1.9543
  953MOL0     H25781  11.305   6.341   8.632 -2.8061 -0.0234  1.0530
  953MOL0     H25782   9.954   5.666   8.072 -1.9473  0.7360 -1.3417
  953MOL0     H25783   9.736   5.550   8.167  0.7036  0.5728  0.8036
  953MOL0     H25784   9.377   5.203   7.922 -2.0745 -1.6771 -1.4707
  953MOL0     H25785   9.137   5.124   8.020 -2.8098  1.6865  2.2900
  953MOL0     H25786   9.049   4.947   8.110 -1.3013 -0.1104 -0.5266
  953MOL0     H25787   8.957   5.089   8.161 -0.4254  0.7898  1.5561
  953MOL0     H25788   8.928   4.791   8.243  3.2614  0.4532  1.4646
  953MOL0     H25789   8.879   4.918   8.355 -0.7794  1.2212 -0.5179
  953MOL0     H25790   8.808   4.954   8.070  0.4160  3.5987  1.2031
  953MOL0     H25791   8.734   5.016   8.209  4.1740  1.9915  0.8822
  953MOL0     H25792   8.752   4.720   8.163 -0.3960 -0.4962  0.2080
  953MOL0     H25793   8.626   4.800   8.267  3.4031 -1.3928  2.8396
  953MOL0     H25794   8.477   4.887   7.881 -1.5680  0.9427  1.2217
  953MOL0     H25795   9.302   5.133   8.404 -3.4922  0.2484  0.2866
  953MOL0     H25796   9.503   5.272   8.330 -1.7762  2.6387  0.6967
  954MOL0     O25797   6.595   5.588   3.328 -0.0105 -0.3436 -0.4710
  954MOL0     C25798   6.650   5.476   3.319  0.4063 -0.7391  0.4858
  954MOL0     O25799   6.652   5.383   3.420  0.2045 -0.0682  0.4530
  954MOL0     C25800   6.595   5.400   3.543  0.4749  0.5066  0.0349
  954MOL0     C25801   6.562   5.522   3.611 -0.2570  0.1833 -0.1756
  954MOL0     C25802   6.510   5.518   3.738  0.1873 -0.5903  0.4088
  954MOL0     C25803   6.482   5.405   3.797 -0.1635  0.5096  0.9005
  954MOL0     O25804   6.435   5.409   3.930 -0.1506 -0.4439  0.1321
  954MOL0     C25805   6.371   5.287   3.970 -0.6265 -0.0266 -0.2433
  954MOL0     C25806   6.294   5.315   4.102 -0.4017 -0.0106  0.7540
  954MOL0     C25807   6.197   5.438   4.109  0.3388 -1.2341  0.0785
  954MOL0     C25808   6.133   5.434   4.248  0.4310  0.3441  1.0863
  954MOL0     C25809   6.006   5.525   4.265 -0.4792 -0.1265  0.5906
  954MOL0     C25810   6.000   5.664   4.205  0.4163  0.3150  0.4645
  954MOL0     C25811   5.856   5.699   4.170 -1.0656 -0.0717 -0.3102
  954MOL0     C25812   5.770   5.630   4.063  1.2921 -0.3285 -0.3000
  954MOL0     N25813   5.843   5.561   3.964 -0.0372 -0.3719  1.0790
  954MOL0     C25814   5.881   5.614   3.843  0.2063  0.1267 -0.2799
  954MOL0     C25815   5.907   5.502   3.769 -0.3280 -0.7370 -0.3940
  954MOL0     C25816   5.976   5.509   3.638 -0.2839 -0.4098 -0.2515
  954MOL0     C25817   6.110   5.445   3.644 -0.8731  0.0334  0.2532
  954MOL0     C25818   6.151   5.375   3.509 -0.4693  0.5990  0.0855
  954MOL0     C25819   6.234   5.463   3.412  0.0607  0.2658 -0.1413
  954MOL0     O25820   6.196   5.420   3.273  1.1498  0.1073 -0.4626
  954MOL0     C25821   6.265   5.462   3.161 -0.1518  0.1643 -0.0422
  954MOL0     C25822   6.337   5.579   3.162 -0.2684 -0.8947 -0.5844
  954MOL0     C25823   6.407   5.628   3.050  0.2020 -0.6643  0.7270
  954MOL0     C25824   6.394   5.554   2.926  0.5378 -1.1435 -0.2858
  954MOL0     C25825   6.446   5.607   2.800  0.7983  0.8081 -0.5009
  954MOL0     O25826   6.373   5.575   2.689  0.3297 -0.2234 -0.6819
  954MOL0     C25827   6.394   5.623   2.563 -0.2628  0.6026  0.0873
  954MOL0     C25828   6.296   5.588   2.465  0.8577  0.3302  0.0043
  954MOL0     C25829   6.316   5.625   2.332  0.2244  0.6893  0.9417
  954MOL0     C25830   6.435   5.687   2.281  0.7993  0.5816 -0.5940
  954MOL0     O25831   6.463   5.708   2.148  0.4243  0.5337 -0.2227
  954MOL0     C25832   6.356   5.712   2.052 -0.1195 -0.7473  0.2574
  954MOL0     C25833   6.384   5.845   1.973  0.3079  0.3812  0.4449
  954MOL0     C25834   6.252   5.883   1.898 -0.3143  0.1392 -0.2754
  954MOL0     C25835   6.229   5.816   1.763 -0.6344 -0.4441 -0.1388
  954MOL0     C25836   6.082   5.857   1.715 -0.3496  0.3941  0.8685
  954MOL0     C25837   6.034   5.773   1.596 -0.6939  0.0912 -0.9748
  954MOL0     C25838   5.996   5.625   1.629  0.2407 -0.1412  0.1479
  954MOL0     C25839   5.904   5.558   1.524 -0.1121 -0.1104  0.1481
  954MOL0    Cl25840   5.888   5.382   1.542 -0.0998  0.2126 -0.2121
  954MOL0     C25841   6.517   5.730   2.377 -0.2057 -0.6737  0.2963
  954MOL0     C25842   6.500   5.693   2.511 -0.4421  0.3502 -0.2407
  954MOL0     O25843   6.548   5.663   2.801 -0.5916  0.3537  0.1866
  954MOL0     C25844   6.319   5.434   2.920 -1.0332 -0.1215  0.7172
  954MOL0     C25845   6.255   5.405   3.038 -0.1521  0.1124  0.6814
  954MOL0     N25846   5.870   5.387   3.844  0.0076 -0.0679 -0.1047
  954MOL0     N25847   5.836   5.432   3.960  0.1593 -1.2469  0.0074
  954MOL0     C25848   6.518   5.283   3.733  0.7325  0.1276  0.6764
  954MOL0     C25849   6.572   5.279   3.609 -0.2450  0.2575 -0.2829
  954MOL0     C25850   6.714   5.448   3.180  0.1869  0.3646  1.1580
  954MOL0     C25851   6.746   5.546   3.083 -0.1789  0.6335  0.1285
  954MOL0     C25852   6.798   5.504   2.963 -0.2923 -0.2678 -0.5541
  954MOL0     C25853   6.821   5.372   2.938 -0.4216  0.1624  0.3850
  954MOL0     O25854   6.869   5.331   2.811  0.9360 -1.0063  0.5310
  954MOL0     C25855   6.996   5.377   2.762  0.3856 -0.1842 -0.7757
  954MOL0     C25856   6.991   5.501   2.676 -0.5671  0.3809  1.3206
  954MOL0     C25857   6.899   5.501   2.553  0.7949 -0.8116 -0.2040
  954MOL0     C25858   6.912   5.633   2.477 -0.2899  0.6340  0.0043
  954MOL0     C25859   6.863   5.757   2.551  0.4852 -0.1333  0.4491
  954MOL0     C25860   6.828   5.841   2.629  0.5834  0.2858  0.6678
  954MOL0     C25861   6.814   5.282   3.034 -1.2649  0.7666  0.0586
  954MOL0     C25862   6.755   5.317   3.151 -0.3516 -0.1004 -0.9451
  954MOL0     H25863   6.585   5.622   3.574 -1.0556  0.6263  0.4874
  954MOL0     H25864   6.488   5.597   3.810 -1.1282 -0.5873  0.0235
  954MOL0     H25865   6.433   5.197   3.971 -3.4454 -2.1388 -1.7047
  954MOL0     H25866   6.295   5.256   3.897 -0.7863 -2.7814  1.0069
  954MOL0     H25867   6.354   5.321   4.193  1.4580  0.9232 -0.4619
  954MOL0     H25868   6.234   5.225   4.115 -2.3521  0.9183 -1.1880
  954MOL0     H25869   6.116   5.440   4.035 -0.4052  3.5474  0.7416
  954MOL0     H25870   6.254   5.531   4.104 -2.3117  0.5999  1.2802
  954MOL0     H25871   6.112   5.332   4.283  3.0752 -0.0501  1.7397
  954MOL0     H25872   6.208   5.469   4.319 -0.3523 -1.4336  2.8987
  954MOL0     H25873   6.000   5.538   4.373  5.4038 -3.3741  1.7468
  954MOL0     H25874   5.934   5.454   4.222  2.2405 -0.1894 -4.7153
  954MOL0     H25875   6.062   5.669   4.115 -1.1927  1.6937 -0.6379
  954MOL0     H25876   6.050   5.736   4.269 -1.5299  2.0106  0.1856
  954MOL0     H25877   5.794   5.701   4.261 -0.9166  5.7489  0.0658
  954MOL0     H25878   5.849   5.805   4.144  0.1322 -0.1190 -0.9107
  954MOL0     H25879   5.711   5.704   4.009  2.3976  1.2390  0.5480
  954MOL0     H25880   5.702   5.565   4.118 -1.5686  0.2680 -2.8728
  954MOL0     H25881   5.875   5.717   3.809 -1.3516  0.0599 -0.2491
  954MOL0     H25882   5.984   5.615   3.610 -2.0204  0.2686  1.6357
  954MOL0     H25883   5.926   5.459   3.555 -2.0789  0.8881 -0.0038
  954MOL0     H25884   6.106   5.362   3.715  0.4540 -0.5560 -0.3247
  954MOL0     H25885   6.176   5.524   3.683 -5.2375  1.8985  4.9435
  954MOL0     H25886   6.219   5.291   3.528  0.8664  1.1326 -1.9299
  954MOL0     H25887   6.070   5.334   3.448 -1.8701  2.2853  0.7447
  954MOL0     H25888   6.337   5.434   3.440 -0.1669  0.6743  1.1883
  954MOL0     H25889   6.219   5.568   3.435 -1.2466 -0.2435  1.5251
  954MOL0     H25890   6.343   5.628   3.258 -1.1562  2.0975 -1.9448
  954MOL0     H25891   6.474   5.712   3.036  1.5618 -1.8314 -0.2011
  954MOL0     H25892   6.204   5.538   2.493  0.7783 -1.8622 -3.4652
  954MOL0     H25893   6.239   5.580   2.270  0.2149 -0.0403  1.4714
  954MOL0     H25894   6.256   5.707   2.096  0.1028 -2.0631  0.6692
  954MOL0     H25895   6.367   5.620   1.993  3.1853 -0.6147  0.4820
  954MOL0     H25896   6.463   5.827   1.900 -2.7124  0.1978 -3.0923
  954MOL0     H25897   6.437   5.919   2.033  1.2240  0.4010 -0.3576
  954MOL0     H25898   6.252   5.992   1.899 -0.4398  0.1586  1.5008
  954MOL0     H25899   6.163   5.857   1.957  1.1061 -2.2206  1.0010
  954MOL0     H25900   6.294   5.840   1.679  4.6847 -4.3328  2.2810
  954MOL0     H25901   6.238   5.707   1.768  1.8324 -0.4377 -2.3647
  954MOL0     H25902   6.089   5.961   1.681  3.3241  0.1693  0.5056
  954MOL0     H25903   6.009   5.838   1.794 -1.1864 -1.1442 -0.2271
  954MOL0     H25904   6.116   5.769   1.524 -0.8133  3.1602 -1.4159
  954MOL0     H25905   5.945   5.812   1.545 -0.6559  0.0643 -1.0604
  954MOL0     H25906   6.087   5.568   1.650  0.4511  0.2317  0.2432
  954MOL0     H25907   5.947   5.619   1.726  2.0531 -1.9416  1.0396
  954MOL0     H25908   5.941   5.576   1.422 -0.3247  3.5186  0.5653
  954MOL0     H25909   5.804   5.603   1.526 -1.0222 -2.0957  0.8957
  954MOL0     H25910   6.604   5.791   2.352 -1.4847  2.4077  2.7315
  954MOL0     H25911   6.579   5.722   2.580 -1.2429  0.3638  0.6939
  954MOL0     H25912   6.298   5.378   2.829  1.0191  1.9383 -1.1455
  954MOL0     H25913   6.180   5.328   3.027  1.2113 -1.3263  1.0745
  954MOL0     H25914   6.493   5.183   3.767 -1.4507  0.4041  0.0213
  954MOL0     H25915   6.600   5.187   3.559 -1.0095  0.5188 -1.2087
  954MOL0     H25916   6.704   5.645   3.096  1.5171  1.5850 -1.2514
  954MOL0     H25917   6.807   5.578   2.884 -1.1382 -2.0664 -2.4389
  954MOL0     H25918   7.034   5.294   2.702 -0.0443 -0.7577 -0.2559
  954MOL0     H25919   7.052   5.396   2.853 -0.8224 -0.2132 -0.0029
  954MOL0     H25920   6.976   5.587   2.743 -0.2186 -0.9250  3.1564
  954MOL0     H25921   7.090   5.516   2.632 -0.2834 -0.4888  1.6445
  954MOL0     H25922   6.795   5.498   2.587  1.1004 -1.6695  0.7071
  954MOL0     H25923   6.904   5.410   2.492 -1.5098 -2.6258  2.1023
  954MOL0     H25924   7.011   5.656   2.439  0.9849 -4.1404 -0.1349
  954MOL0     H25925   6.838   5.621   2.397 -1.1910 -2.0744  1.1139
  954MOL0     H25926   6.798   5.923   2.691 -1.7742 -0.0196  0.0233
  954MOL0     H25927   6.842   5.178   3.019  3.3962  0.9991  4.2124
  954MOL0     H25928   6.734   5.238   3.222 -2.6351 -0.5243 -1.9885
  955MOL0     O25929   1.607   7.545   8.471  0.2547  0.4501 -0.0805
  955MOL0     C25930   1.605   7.513   8.588 -0.5786 -0.1028 -0.2255
  955MOL0     O25931   1.584   7.386   8.641 -0.8277  0.1788  0.0713
  955MOL0     C25932   1.565   7.271   8.564 -0.6545  0.3796  0.0381
  955MOL0     C25933   1.609   7.239   8.432 -0.2780 -0.3523 -0.1238
  955MOL0     C25934   1.575   7.129   8.366  0.2252 -0.0812  0.3150
  955MOL0     C25935   1.498   7.032   8.434  0.1569 -0.2796 -0.4458
  955MOL0     O25936   1.451   6.930   8.354 -0.0617 -0.0398  0.3800
  955MOL0     C25937   1.381   6.819   8.419 -0.4324 -0.0317 -0.5817
  955MOL0     C25938   1.355   6.702   8.323 -0.0237  0.6100  0.7692
  955MOL0     C25939   1.486   6.634   8.289 -0.0730  0.7618  0.1074
  955MOL0     C25940   1.460   6.482   8.247  0.5558  0.5054  0.4323
  955MOL0     C25941   1.573   6.391   8.282 -0.3196  0.7465  0.7331
  955MOL0     C25942   1.682   6.404   8.180 -0.3910 -0.8970 -0.5418
  955MOL0     C25943   1.796   6.298   8.221 -0.3970  0.1860 -1.2047
  955MOL0     C25944   1.901   6.296   8.111  0.1223 -0.2281  0.3066
  955MOL0     N25945   2.007   6.191   8.139  0.9980 -0.3825 -0.2145
  955MOL0     C25946   2.124   6.162   8.071 -0.3579  0.4871 -0.2560
  955MOL0     C25947   2.183   6.057   8.126 -0.3692 -0.9667 -1.5203
  955MOL0     C25948   2.315   5.991   8.114 -0.4750 -0.2708 -0.7468
  955MOL0     C25949   2.347   5.975   7.973 -0.2332  0.8154 -0.1046
  955MOL0     C25950   2.458   5.875   7.931  0.6234  0.1410 -0.6462
  955MOL0     C25951   2.579   5.900   8.018  0.0996  0.0177 -0.6679
  955MOL0     O25952   2.685   5.811   7.994 -1.0122  0.2913 -0.5492
  955MOL0     C25953   2.670   5.674   8.018 -1.2777  0.2168  0.4085
  955MOL0     C25954   2.580   5.611   8.100 -0.1018 -0.9063 -0.2032
  955MOL0     C25955   2.592   5.474   8.120  0.5853 -0.4260 -0.5331
  955MOL0     C25956   2.690   5.404   8.052  0.4553  0.5616  0.0259
  955MOL0     C25957   2.685   5.266   8.072  0.5885  1.0845  0.4093
  955MOL0     O25958   2.739   5.195   7.965 -0.1395  0.2158  0.4797
  955MOL0     C25959   2.722   5.055   7.960 -0.1139  0.2205 -0.6927
  955MOL0     C25960   2.617   4.985   8.022  0.2108 -0.5068 -0.1123
  955MOL0     C25961   2.602   4.847   8.015 -0.0276  0.3668  0.5338
  955MOL0     C25962   2.702   4.773   7.947  0.5949  0.0819 -0.3521
  955MOL0     O25963   2.710   4.629   7.955  0.2269  0.1489 -0.0945
  955MOL0     C25964   2.720   4.552   7.829  1.0978  0.3952 -0.6787
  955MOL0     C25965   2.681   4.407   7.858  0.1818 -0.8239  0.4251
  955MOL0     C25966   2.527   4.386   7.895 -0.1619 -0.2609 -0.2687
  955MOL0     C25967   2.434   4.424   7.776  0.1120 -0.2945  0.4557
  955MOL0     C25968   2.286   4.397   7.809  0.0988  0.6230 -0.8157
  955MOL0     C25969   2.254   4.248   7.788 -0.5129  0.1670  0.5054
  955MOL0     C25970   2.107   4.216   7.798 -0.8048 -0.5349  0.1481
  955MOL0     C25971   2.094   4.068   7.833 -0.6223  0.8485 -0.3391
  955MOL0    Cl25972   1.926   4.015   7.805 -0.4693 -0.4098 -0.5515
  955MOL0     C25973   2.804   4.834   7.887  0.5594  0.6048  0.5001
  955MOL0     C25974   2.814   4.972   7.891  0.7037  0.2048 -0.7365
  955MOL0     O25975   2.641   5.207   8.172  0.3317 -0.2122 -0.0996
  955MOL0     C25976   2.789   5.464   7.969  0.3723 -0.7504 -0.9131
  955MOL0     C25977   2.776   5.605   7.962  0.2854  0.0749 -0.0914
  955MOL0     N25978   2.094   6.013   8.228  0.0502 -0.6786  0.3247
  955MOL0     N25979   1.992   6.090   8.237  0.2309 -0.4562 -0.1762
  955MOL0     C25980   1.455   7.061   8.566  0.2986  1.0585 -0.2365
  955MOL0     C25981   1.496   7.176   8.632  0.0416 -0.3433 -0.0130
  955MOL0     C25982   1.626   7.623   8.686 -0.7251 -0.8297 -0.5545
  955MOL0     C25983   1.626   7.594   8.830  0.9462 -0.0682 -0.1608
  955MOL0     C25984   1.640   7.707   8.915 -1.0974 -0.1034 -0.2822
  955MOL0     C25985   1.636   7.837   8.866  0.1571  0.1162  0.2713
  955MOL0     O25986   1.632   7.953   8.944 -0.2149  1.1156  0.1263
  955MOL0     C25987   1.691   7.941   9.076 -0.9887  0.3467 -0.0995
  955MOL0     C25988   1.689   8.073   9.149  0.2191 -0.7604 -0.6309
  955MOL0     C25989   1.706   8.058   9.304 -0.5022  0.5516  0.6908
  955MOL0     C25990   1.738   8.184   9.383 -0.0565  0.5212  0.1452
  955MOL0     C25991   1.605   8.255   9.398 -0.9716 -1.6224 -0.1174
  955MOL0     C25992   1.504   8.326   9.420  0.0462 -0.0895 -0.4997
  955MOL0     C25993   1.611   7.855   8.726 -0.7194 -0.4978  0.0866
  955MOL0     C25994   1.623   7.754   8.636 -0.6557 -0.3196  0.9787
  955MOL0     H25995   1.668   7.317   8.384  1.5376 -1.7237 -0.1979
  955MOL0     H25996   1.598   7.108   8.262 -0.2595 -3.2047  0.7395
  955MOL0     H25997   1.280   6.846   8.452 -1.8351 -3.0614 -2.0216
  955MOL0     H25998   1.443   6.796   8.506  1.7611  1.4585 -1.6722
  955MOL0     H25999   1.310   6.718   8.225  0.5597 -3.8938 -0.4538
  955MOL0     H26000   1.280   6.638   8.369 -0.2958  0.4423  0.0915
  955MOL0     H26001   1.544   6.622   8.380 -0.6705  1.1295  0.5489
  955MOL0     H26002   1.550   6.696   8.226  5.7138 -2.9015  1.6573
  955MOL0     H26003   1.380   6.438   8.306  0.3918  0.5095  0.2154
  955MOL0     H26004   1.422   6.469   8.145 -2.9779  2.1014  1.3723
  955MOL0     H26005   1.538   6.287   8.283 -0.1715  0.5844 -2.3214
  955MOL0     H26006   1.614   6.430   8.376  1.6745  1.5301 -0.4049
  955MOL0     H26007   1.721   6.505   8.191  0.3670 -1.2862  0.4963
  955MOL0     H26008   1.655   6.378   8.077  0.6175 -3.4444 -0.2488
  955MOL0     H26009   1.846   6.331   8.313 -0.9705 -1.2292 -0.3385
  955MOL0     H26010   1.757   6.197   8.242  1.7973 -0.8220 -1.6676
  955MOL0     H26011   1.940   6.398   8.097 -1.0203  0.2439  0.4177
  955MOL0     H26012   1.859   6.267   8.014  0.7419 -1.0554  0.2813
  955MOL0     H26013   2.174   6.211   7.989 -0.3025 -0.3175 -0.7133
  955MOL0     H26014   2.309   5.901   8.175  1.5556  0.0027 -0.0813
  955MOL0     H26015   2.395   6.050   8.160  0.4819 -0.1335 -2.5044
  955MOL0     H26016   2.377   6.076   7.942 -0.3345  0.6649 -0.7069
  955MOL0     H26017   2.257   5.948   7.917  0.7187 -3.7796  0.2125
  955MOL0     H26018   2.421   5.776   7.960 -2.2198  1.7722  1.9486
  955MOL0     H26019   2.503   5.875   7.831  3.3404 -0.5269  0.4788
  955MOL0     H26020   2.550   5.896   8.123  0.6411 -0.0171 -0.5207
  955MOL0     H26021   2.614   5.999   7.988  0.9528 -0.4669 -1.3251
  955MOL0     H26022   2.505   5.673   8.149  0.8681 -0.1892  0.4152
  955MOL0     H26023   2.521   5.425   8.186 -2.3551  3.3109 -0.5810
  955MOL0     H26024   2.533   5.036   8.070  1.0028  1.7118 -0.9512
  955MOL0     H26025   2.506   4.811   8.050  0.1823  1.2307  2.0829
  955MOL0     H26026   2.824   4.548   7.794  1.0177  1.8036 -1.1281
  955MOL0     H26027   2.662   4.597   7.748  0.9168  2.6404  0.6329
  955MOL0     H26028   2.738   4.370   7.944  0.9380  4.1235  2.3522
  955MOL0     H26029   2.708   4.345   7.771  0.8945  2.4115 -1.8257
  955MOL0     H26030   2.505   4.452   7.979  0.5919 -2.2867  1.6457
  955MOL0     H26031   2.498   4.288   7.935 -2.4146  0.7274  0.7149
  955MOL0     H26032   2.444   4.531   7.754 -1.6628 -0.2779 -0.4598
  955MOL0     H26033   2.463   4.371   7.685 -0.8869  0.9943 -0.6699
  955MOL0     H26034   2.231   4.461   7.739  1.0643  0.6397 -1.5810
  955MOL0     H26035   2.257   4.428   7.910  1.0774 -1.1150  0.0606
  955MOL0     H26036   2.309   4.183   7.857 -0.7930 -1.6513 -0.9014
  955MOL0     H26037   2.297   4.225   7.690 -1.4059  2.9269 -0.6229
  955MOL0     H26038   2.073   4.278   7.881  3.0514 -1.5816  2.7604
  955MOL0     H26039   2.069   4.233   7.697  1.7603 -0.7365 -0.9330
  955MOL0     H26040   2.114   4.052   7.940 -2.0325  2.3523  0.1949
  955MOL0     H26041   2.164   4.010   7.773  1.2389  2.4317  0.2080
  955MOL0     H26042   2.876   4.771   7.835 -0.4428 -0.1938  0.0286
  955MOL0     H26043   2.885   5.039   7.844  1.8945 -0.7702 -0.3584
  955MOL0     H26044   2.864   5.402   7.920  1.9788 -0.6847  1.3009
  955MOL0     H26045   2.849   5.650   7.895  1.5317  0.4434  1.4692
  955MOL0     H26046   1.392   6.996   8.626  0.3114 -0.9340 -2.2379
  955MOL0     H26047   1.473   7.180   8.738  0.0435 -3.4537  0.1950
  955MOL0     H26048   1.621   7.490   8.863  0.5490  0.3744  1.2478
  955MOL0     H26049   1.654   7.683   9.020  1.6910 -0.8229 -0.7243
  955MOL0     H26050   1.793   7.902   9.083 -0.8056  0.8939  0.3150
  955MOL0     H26051   1.623   7.872   9.127 -1.0334 -0.1539 -0.8229
  955MOL0     H26052   1.769   8.135   9.107 -1.2868  2.1073  0.4939
  955MOL0     H26053   1.595   8.124   9.127 -0.2825 -2.4668 -2.8783
  955MOL0     H26054   1.791   7.994   9.327  1.3679  2.8913  0.5992
  955MOL0     H26055   1.613   8.016   9.344  0.5423 -0.6987  1.8790
  955MOL0     H26056   1.763   8.157   9.486 -1.3248 -0.8728  0.1287
  955MOL0     H26057   1.813   8.253   9.343 -1.7606  1.6640 -1.2124
  955MOL0     H26058   1.420   8.389   9.443  0.2577 -0.7023  2.3015
  955MOL0     H26059   1.584   7.953   8.690  1.0116  0.8304  2.1326
  955MOL0     H26060   1.622   7.782   8.531 -0.5616  3.1261  1.7903
  956MOL0     O26061   9.411   6.220   7.357 -0.2554 -0.5008 -0.0881
  956MOL0     C26062   9.525   6.249   7.307  0.5489 -0.7274 -0.2703
  956MOL0     O26063   9.579   6.182   7.204  0.2067 -0.5344 -0.0336
  956MOL0     C26064   9.523   6.081   7.132 -0.0237  0.0799 -0.8108
  956MOL0     C26065   9.607   5.979   7.093 -1.0523 -0.3899 -0.5983
  956MOL0     C26066   9.552   5.888   6.994 -0.2356  0.0853  0.2266
  956MOL0     C26067   9.419   5.898   6.951 -0.4852 -0.2132  0.1218
  956MOL0     O26068   9.364   5.816   6.850  0.5883 -0.3109 -0.3720
  956MOL0     C26069   9.458   5.768   6.761 -0.7761 -0.0661 -0.8715
  956MOL0     C26070   9.501   5.878   6.667 -0.3102 -0.0071 -0.1339
  956MOL0     C26071   9.585   5.830   6.552 -0.0258  0.0447 -0.9888
  956MOL0     C26072   9.525   5.852   6.416 -0.2277 -0.3460 -0.8365
  956MOL0     C26073   9.628   5.857   6.299  0.6033  0.4119  0.1484
  956MOL0     C26074   9.687   5.714   6.261  0.5989 -1.3948  0.3088
  956MOL0     C26075   9.722   5.716   6.111 -0.4909 -0.0804 -0.1072
  956MOL0     C26076   9.799   5.584   6.064 -0.0614 -0.6747  0.4867
  956MOL0     N26077   9.918   5.551   6.146  0.2506  0.8381 -0.0281
  956MOL0     C26078  10.039   5.611   6.162 -0.4973  0.6525 -0.3210
  956MOL0     C26079  10.119   5.554   6.257 -0.2304  0.1005 -0.3355
  956MOL0     C26080  10.253   5.605   6.319  1.0072  0.7428  1.0360
  956MOL0     C26081  10.211   5.686   6.444 -0.1351  0.6084 -0.5998
  956MOL0     C26082  10.322   5.760   6.502  0.7602 -0.6307 -1.0130
  956MOL0     C26083  10.258   5.823   6.624 -0.2704  0.0340 -0.6319
  956MOL0     O26084  10.347   5.907   6.694  0.2412  0.6915  0.0577
  956MOL0     C26085  10.352   6.031   6.658 -0.5679  0.6342 -0.3995
  956MOL0     C26086  10.272   6.097   6.576  0.2993 -0.8705 -0.2530
  956MOL0     C26087  10.289   6.236   6.548 -1.2828 -0.1878  0.0230
  956MOL0     C26088  10.381   6.317   6.612  1.4111  0.1374  0.3396
  956MOL0     C26089  10.389   6.457   6.569  0.0353 -0.0484  0.5966
  956MOL0     O26090  10.293   6.503   6.476 -0.5339 -0.6647  0.7620
  956MOL0     C26091  10.298   6.634   6.442 -0.9761 -0.0551 -0.3341
  956MOL0     C26092  10.171   6.689   6.427 -0.3415  0.2566  0.2606
  956MOL0     C26093  10.158   6.827   6.412  0.9953  0.1718 -0.0445
  956MOL0     C26094  10.270   6.907   6.399 -0.8119  0.1700 -0.2094
  956MOL0     O26095  10.270   7.040   6.405 -0.0087  0.3705 -0.0185
  956MOL0     C26096  10.144   7.101   6.403 -0.2133 -0.4543 -0.5370
  956MOL0     C26097  10.148   7.254   6.406 -0.6069  0.3548 -0.3044
  956MOL0     C26098  10.099   7.315   6.273 -0.3187 -0.2239 -0.6998
  956MOL0     C26099  10.068   7.464   6.321  0.0299 -0.3747 -0.0461
  956MOL0     C26100  10.039   7.546   6.197 -0.3013  0.1679  0.2804
  956MOL0     C26101  10.012   7.694   6.232 -0.8185  0.4868  0.1914
  956MOL0     C26102   9.995   7.773   6.102  0.5044  0.2327  0.0984
  956MOL0     C26103   9.993   7.927   6.122  0.0889  0.1446  0.2859
  956MOL0    Cl26104  10.151   8.005   6.144  0.2219 -0.0865  0.2676
  956MOL0     C26105  10.396   6.853   6.400 -0.0586  0.2915  0.7386
  956MOL0     C26106  10.416   6.714   6.419  0.2985  0.2615  0.1176
  956MOL0     O26107  10.466   6.524   6.629  0.7430  0.2733  0.3533
  956MOL0     C26108  10.458   6.245   6.707  1.0489 -0.4415  0.0999
  956MOL0     C26109  10.450   6.106   6.722 -0.6042 -0.8867 -0.6024
  956MOL0     N26110  10.044   5.436   6.292 -0.3873  1.0191  0.6353
  956MOL0     N26111   9.935   5.443   6.231  0.1184 -0.3255  0.7934
  956MOL0     C26112   9.333   5.991   7.006 -1.0335 -0.5798 -0.5329
  956MOL0     C26113   9.389   6.080   7.092 -0.0977 -0.0122 -0.8805
  956MOL0     C26114   9.591   6.374   7.350  0.6177  0.0276  0.0252
  956MOL0     C26115   9.517   6.464   7.431 -0.7288 -0.2453 -0.1593
  956MOL0     C26116   9.576   6.587   7.474 -0.9549  1.1423 -0.6992
  956MOL0     C26117   9.707   6.615   7.435 -0.3304 -0.4992 -0.4164
  956MOL0     O26118   9.764   6.735   7.488 -0.0328 -0.5109  0.2068
  956MOL0     C26119   9.880   6.785   7.422 -0.1795 -1.0273 -0.5518
  956MOL0     C26120   9.903   6.927   7.469  0.6090 -0.0759 -0.2635
  956MOL0     C26121  10.044   6.981   7.441 -0.3829  0.1922 -0.3258
  956MOL0     C26122  10.041   7.132   7.466 -0.0100 -0.4818  0.0897
  956MOL0     C26123  10.163   7.202   7.433 -0.3243  0.7432 -0.2146
  956MOL0     C26124  10.274   7.239   7.398 -0.2007  0.9010 -0.2112
  956MOL0     C26125   9.783   6.523   7.353  0.5565 -0.1220  0.1056
  956MOL0     C26126   9.718   6.404   7.309  0.8776 -0.2133 -0.2341
  956MOL0     H26127   9.714   5.982   7.114 -0.9670  0.3440 -1.1128
  956MOL0     H26128   9.627   5.825   6.947 -0.0291 -0.6421  1.4870
  956MOL0     H26129   9.398   5.696   6.705 -3.8753 -2.3665  4.5725
  956MOL0     H26130   9.538   5.716   6.816  0.1161  4.5193  2.8537
  956MOL0     H26131   9.566   5.946   6.722 -2.5697  0.7943  1.7289
  956MOL0     H26132   9.416   5.937   6.631 -1.3405 -0.8992  0.7644
  956MOL0     H26133   9.575   5.721   6.561 -0.0605  0.0543 -0.9117
  956MOL0     H26134   9.685   5.873   6.556  0.3185 -0.7163 -1.2565
  956MOL0     H26135   9.446   5.778   6.400  2.6124 -3.2996 -2.6474
  956MOL0     H26136   9.486   5.954   6.413 -0.5653 -0.4403  0.1828
  956MOL0     H26137   9.713   5.923   6.319  0.6729 -0.1359  1.8342
  956MOL0     H26138   9.578   5.899   6.211  2.6320 -1.3462 -1.9704
  956MOL0     H26139   9.613   5.633   6.273 -2.4758  1.2925  1.1120
  956MOL0     H26140   9.766   5.687   6.332  2.6834  0.3302 -1.2420
  956MOL0     H26141   9.629   5.720   6.053  0.3859  0.5632 -1.5083
  956MOL0     H26142   9.787   5.796   6.076 -0.3993 -0.6953 -1.4306
  956MOL0     H26143   9.834   5.596   5.961 -0.3306 -3.9858 -0.0847
  956MOL0     H26144   9.727   5.502   6.063 -2.2575  1.0328 -3.0887
  956MOL0     H26145  10.096   5.693   6.118  2.7633 -0.1164  2.1174
  956MOL0     H26146  10.291   5.670   6.240 -2.6437  0.7888 -0.8831
  956MOL0     H26147  10.324   5.524   6.337 -0.9462 -1.4954 -0.7393
  956MOL0     H26148  10.167   5.616   6.515  0.3918 -2.9586 -3.5207
  956MOL0     H26149  10.141   5.762   6.407 -0.5993  1.6050  2.0689
  956MOL0     H26150  10.408   5.702   6.535 -0.2920 -0.5181  2.3024
  956MOL0     H26151  10.374   5.829   6.435  0.8037 -0.6799 -1.0303
  956MOL0     H26152  10.238   5.737   6.688  0.0680 -0.2879 -0.9474
  956MOL0     H26153  10.163   5.877   6.619  0.4605  2.0018  3.0501
  956MOL0     H26154  10.191   6.047   6.523  0.6113 -0.7909 -0.8146
  956MOL0     H26155  10.224   6.281   6.473  3.6908  3.8516 -2.4893
  956MOL0     H26156  10.095   6.612   6.419  4.0001 -4.3599 -2.8976
  956MOL0     H26157  10.057   6.860   6.391  0.6753  0.9480  2.4620
  956MOL0     H26158  10.084   7.068   6.489  3.7382 -0.6023  2.4793
  956MOL0     H26159  10.104   7.080   6.304 -2.6491 -0.7275  0.4388
  956MOL0     H26160  10.251   7.290   6.416 -0.2497 -0.7963  0.4066
  956MOL0     H26161  10.082   7.291   6.485 -1.1607  1.2992 -1.1855
  956MOL0     H26162  10.007   7.266   6.240 -1.6470  2.0583 -0.5946
  956MOL0     H26163  10.180   7.304   6.200  1.0495  3.0746  0.1395
  956MOL0     H26164   9.980   7.479   6.385  0.2480 -0.9491  0.4013
  956MOL0     H26165  10.159   7.503   6.367  1.9663  1.8697 -5.0595
  956MOL0     H26166   9.965   7.490   6.139 -0.0142 -1.2429  1.1914
  956MOL0     H26167  10.126   7.540   6.130 -1.0308  0.5547 -0.7174
  956MOL0     H26168  10.095   7.740   6.287  0.0458  1.4415 -1.8183
  956MOL0     H26169   9.923   7.694   6.296  1.3235  0.3991  3.4574
  956MOL0     H26170  10.077   7.754   6.033 -0.0854 -0.0178 -0.5345
  956MOL0     H26171   9.900   7.749   6.054  1.6857 -1.1262 -1.7031
  956MOL0     H26172   9.930   7.940   6.210  1.7005 -0.2921  1.5495
  956MOL0     H26173   9.931   7.975   6.045 -2.4674 -1.7793  1.0174
  956MOL0     H26174  10.478   6.921   6.380 -0.5977  0.5326 -0.7462
  956MOL0     H26175  10.519   6.683   6.437  1.0671  1.5152 -1.8090
  956MOL0     H26176  10.536   6.304   6.753 -0.2570  0.9282  0.6387
  956MOL0     H26177  10.524   6.065   6.791  0.8891  1.2266 -0.8514
  956MOL0     H26178   9.237   5.989   6.955  0.1397 -4.2742 -2.9881
  956MOL0     H26179   9.330   6.167   7.120  2.0413  2.1258 -2.5258
  956MOL0     H26180   9.423   6.444   7.481 -0.5511  3.5664  2.1263
  956MOL0     H26181   9.523   6.660   7.535 -0.4065  2.1455 -1.3981
  956MOL0     H26182   9.868   6.770   7.314  1.4400 -1.7208 -0.6542
  956MOL0     H26183   9.965   6.725   7.454  2.0169  3.4577  3.0389
  956MOL0     H26184   9.828   6.992   7.424  0.8032 -0.4150 -1.0878
  956MOL0     H26185   9.874   6.929   7.575 -3.4325 -3.4566 -1.0517
  956MOL0     H26186  10.061   6.962   7.335  1.7403 -1.8859  0.2722
  956MOL0     H26187  10.123   6.928   7.496  0.3097 -0.1122 -1.5718
  956MOL0     H26188   9.953   7.183   7.427  2.3182  1.1944 -3.5143
  956MOL0     H26189  10.026   7.132   7.575 -0.2193 -0.9593  0.0617
  956MOL0     H26190  10.371   7.256   7.357  0.8368 -1.0635  1.2468
  956MOL0     H26191   9.881   6.544   7.312  1.3178 -1.8507  0.9347
  956MOL0     H26192   9.784   6.346   7.245  2.2904  0.3490  0.6693
  957MOL0     O26193   3.286   4.028   3.876 -0.2635 -0.0446 -0.3512
  957MOL0     C26194   3.373   4.061   3.950  0.7004 -0.7530  0.8158
  957MOL0     O26195   3.417   3.994   4.055  0.7042 -0.2288  0.0170
  957MOL0     C26196   3.370   3.862   4.061 -0.1662  0.4346 -0.0015
  957MOL0     C26197   3.352   3.801   4.186  0.2971 -0.1376 -0.8141
  957MOL0     C26198   3.325   3.662   4.197 -1.0352  0.4729  0.6254
  957MOL0     C26199   3.326   3.579   4.083  0.6377 -0.4245 -0.7419
  957MOL0     O26200   3.327   3.447   4.114 -0.3785  0.8762  0.5491
  957MOL0     C26201   3.388   3.358   4.025 -1.3517  0.8626 -0.7425
  957MOL0     C26202   3.537   3.344   4.050 -0.6193 -0.1864 -0.1154
  957MOL0     C26203   3.620   3.221   4.003 -0.2080 -0.0748 -0.5405
  957MOL0     C26204   3.612   3.186   3.854 -0.9970  0.5881 -0.5260
  957MOL0     C26205   3.631   3.297   3.753  0.0418 -0.6864 -0.6265
  957MOL0     C26206   3.607   3.245   3.618  0.6689 -1.1102  0.5278
  957MOL0     C26207   3.664   3.342   3.511 -0.4262  0.0739  0.5278
  957MOL0     C26208   3.691   3.260   3.377 -0.5524  1.1659  0.0332
  957MOL0     N26209   3.570   3.178   3.334 -0.4325  0.3799  0.5003
  957MOL0     C26210   3.567   3.059   3.272 -0.7992  0.3137 -0.8509
  957MOL0     C26211   3.438   3.039   3.238  0.9465  0.3313 -0.1263
  957MOL0     C26212   3.375   2.925   3.174 -0.5824  0.6684 -0.2741
  957MOL0     C26213   3.304   2.816   3.254 -0.2986  0.0114 -1.4532
  957MOL0     C26214   3.168   2.857   3.286  0.9146  0.2859 -0.1632
  957MOL0     C26215   3.115   2.783   3.413 -0.4316 -0.5803 -0.1681
  957MOL0     O26216   3.088   2.644   3.390 -0.5898 -0.2641  0.0610
  957MOL0     C26217   2.973   2.605   3.323 -0.5967  0.4865 -0.4621
  957MOL0     C26218   2.877   2.692   3.255  0.0735  1.1223 -0.4161
  957MOL0     C26219   2.766   2.632   3.195 -0.3511  0.0441 -0.5426
  957MOL0     C26220   2.744   2.497   3.197 -0.2559 -0.6078  0.4775
  957MOL0     C26221   2.626   2.450   3.114 -0.4766 -0.3256 -0.8636
  957MOL0     O26222   2.545   2.556   3.069 -0.0794  0.3986 -0.3081
  957MOL0     C26223   2.430   2.549   2.992 -0.9237  0.1614  0.1734
  957MOL0     C26224   2.357   2.433   2.958  0.3980 -0.3636  0.3709
  957MOL0     C26225   2.232   2.441   2.899 -0.6627 -0.6620 -0.3566
  957MOL0     C26226   2.173   2.567   2.871 -0.0269 -0.9792  0.1216
  957MOL0     O26227   2.042   2.577   2.833  0.0905 -1.1376 -0.2232
  957MOL0     C26228   1.989   2.492   2.733 -0.5497 -0.4292  0.3588
  957MOL0     C26229   1.868   2.563   2.663  0.3413  1.0206 -0.5491
  957MOL0     C26230   1.923   2.680   2.574 -0.9104 -0.2674  0.1736
  957MOL0     C26231   1.818   2.741   2.485  0.5822 -0.2131  0.1625
  957MOL0     C26232   1.871   2.857   2.406  0.3088  0.2260  0.5124
  957MOL0     C26233   1.801   2.993   2.422  0.1999  0.4941 -0.7380
  957MOL0     C26234   1.880   3.095   2.330  0.7208 -0.1930  0.0362
  957MOL0     C26235   1.863   3.064   2.182 -0.1270 -0.2784 -0.4196
  957MOL0    Cl26236   1.950   3.180   2.088 -0.1440 -0.1088 -0.0085
  957MOL0     C26237   2.241   2.679   2.906  0.3404 -0.0371 -0.5755
  957MOL0     C26238   2.365   2.675   2.959  0.2563  0.4467  0.2143
  957MOL0     O26239   2.600   2.330   3.125  0.0179 -0.1245 -0.0096
  957MOL0     C26240   2.847   2.415   3.240  0.4324 -0.2783 -0.3050
  957MOL0     C26241   2.956   2.463   3.310 -0.3469 -0.2381 -0.0035
  957MOL0     N26242   3.368   3.159   3.274  0.5639  0.1343 -0.6043
  957MOL0     N26243   3.448   3.235   3.333  0.5823  0.1123 -0.2463
  957MOL0     C26244   3.350   3.637   3.954  0.1062  0.1378 -0.3206
  957MOL0     C26245   3.367   3.779   3.949  0.2840 -0.3048  0.6043
  957MOL0     C26246   3.424   4.203   3.932 -0.8427 -0.1350  0.0084
  957MOL0     C26247   3.525   4.252   4.020 -0.1505 -0.5698  0.9619
  957MOL0     C26248   3.554   4.392   4.023  0.9488 -0.4867 -0.1519
  957MOL0     C26249   3.504   4.477   3.922  0.4641  0.4933 -0.3589
  957MOL0     O26250   3.551   4.598   3.918 -0.2858 -0.3667 -0.6553
  957MOL0     C26251   3.466   4.698   3.861  0.3211  0.0515 -0.4574
  957MOL0     C26252   3.524   4.839   3.888  0.9681 -0.7761  0.8465
  957MOL0     C26253   3.675   4.860   3.872 -0.9691  0.5958  1.3168
  957MOL0     C26254   3.715   5.007   3.904  0.6867 -0.0129  0.8426
  957MOL0     C26255   3.710   5.044   4.048  0.1737 -0.0708 -0.0591
  957MOL0     C26256   3.709   5.079   4.167 -0.9891  0.0999 -0.2355
  957MOL0     C26257   3.411   4.421   3.829  0.0310  0.1685 -1.2037
  957MOL0     C26258   3.376   4.284   3.828 -0.1506 -0.3531  0.5454
  957MOL0     H26259   3.358   3.862   4.276 -1.2586  3.3910 -2.8491
  957MOL0     H26260   3.315   3.619   4.297 -0.6418  1.0851  0.9383
  957MOL0     H26261   3.383   3.378   3.918 -1.8142 -1.2297 -1.1513
  957MOL0     H26262   3.341   3.260   4.037 -1.4106  0.7824 -1.5882
  957MOL0     H26263   3.553   3.337   4.158 -2.0981 -0.9228  0.0757
  957MOL0     H26264   3.581   3.437   4.013  0.5233  0.0864  1.7837
  957MOL0     H26265   3.602   3.139   4.073  4.4669  2.6083  4.6185
  957MOL0     H26266   3.724   3.248   4.019 -0.1753  0.1268 -1.0830
  957MOL0     H26267   3.686   3.107   3.838  0.2514  1.9660 -1.8071
  957MOL0     H26268   3.514   3.142   3.834 -0.4571  0.0668 -2.2020
  957MOL0     H26269   3.735   3.329   3.763 -0.4035  0.6133  0.0076
  957MOL0     H26270   3.571   3.387   3.773  1.0379 -0.2493  0.4902
  957MOL0     H26271   3.501   3.243   3.594  1.2202 -1.8601 -2.2108
  957MOL0     H26272   3.652   3.145   3.617  0.6257 -1.1414 -0.9116
  957MOL0     H26273   3.615   3.439   3.497  1.0208  1.2074  2.7639
  957MOL0     H26274   3.761   3.368   3.552 -0.9347  3.9240 -0.3241
  957MOL0     H26275   3.783   3.201   3.387  0.1753  2.4896  2.0660
  957MOL0     H26276   3.717   3.322   3.291  1.9432 -0.6448 -0.6182
  957MOL0     H26277   3.644   2.985   3.254 -1.7546 -0.7401 -0.7392
  957MOL0     H26278   3.462   2.878   3.127 -1.2049 -0.8672  0.0402
  957MOL0     H26279   3.307   2.964   3.098  0.5257 -0.4830 -1.9388
  957MOL0     H26280   3.364   2.805   3.345  1.3772 -3.3814 -2.8028
  957MOL0     H26281   3.298   2.720   3.203 -0.6601  0.5323 -2.4167
  957MOL0     H26282   3.152   2.963   3.307  1.4216  0.4236 -0.4429
  957MOL0     H26283   3.103   2.836   3.201  1.2034 -3.8942  0.4442
  957MOL0     H26284   3.033   2.835   3.464 -0.3865 -2.8259  2.3759
  957MOL0     H26285   3.195   2.787   3.487  1.1621 -1.8850 -1.7147
  957MOL0     H26286   2.880   2.799   3.240 -2.1547  0.8466 -3.7771
  957MOL0     H26287   2.695   2.697   3.145  0.1180  0.0871 -1.1744
  957MOL0     H26288   2.394   2.336   2.990  1.1099 -0.2834 -0.1849
  957MOL0     H26289   2.181   2.347   2.879 -1.4676 -0.4985  0.8094
  957MOL0     H26290   1.951   2.405   2.788  0.7101 -0.8244  0.6274
  957MOL0     H26291   2.055   2.457   2.653 -1.7749  1.9269 -1.8308
  957MOL0     H26292   1.800   2.615   2.731  0.4803  0.4189  0.0642
  957MOL0     H26293   1.812   2.480   2.619  0.5947  1.3608 -1.5272
  957MOL0     H26294   1.998   2.633   2.510 -3.5634 -3.9247 -0.5805
  957MOL0     H26295   1.975   2.756   2.634 -1.2586  2.5715 -2.8472
  957MOL0     H26296   1.770   2.663   2.426  2.6477 -0.3058 -1.4870
  957MOL0     H26297   1.737   2.779   2.548  0.6744  1.4769 -0.6955
  957MOL0     H26298   1.886   2.824   2.303  1.6408 -0.6718  0.9497
  957MOL0     H26299   1.975   2.869   2.440  1.2678 -1.4967 -1.5377
  957MOL0     H26300   1.806   3.016   2.529 -1.4672  0.2975 -0.5876
  957MOL0     H26301   1.697   3.006   2.392  0.0524 -0.2687 -0.5639
  957MOL0     H26302   1.846   3.195   2.356  1.6462  0.6668 -1.8665
  957MOL0     H26303   1.985   3.083   2.359  0.6800  0.0506  0.2893
  957MOL0     H26304   1.755   3.059   2.161 -0.5032 -3.2197  1.5368
  957MOL0     H26305   1.909   2.966   2.169  1.7638  0.4097  0.7197
  957MOL0     H26306   2.197   2.776   2.887 -1.0963 -1.0209 -2.7400
  957MOL0     H26307   2.417   2.770   2.969  0.3684  0.6395 -1.8406
  957MOL0     H26308   2.841   2.307   3.248  2.6608 -0.4069  0.2405
  957MOL0     H26309   3.035   2.400   3.349  0.8483  0.4818 -1.1733
  957MOL0     H26310   3.354   3.575   3.865  1.4065 -2.2020  1.2511
  957MOL0     H26311   3.391   3.813   3.849 -0.5772 -1.8658 -0.1760
  957MOL0     H26312   3.554   4.177   4.093 -0.9588 -1.7975  0.0471
  957MOL0     H26313   3.614   4.438   4.101  1.6382 -0.3734 -0.7442
  957MOL0     H26314   3.362   4.687   3.893  0.4743 -2.4122 -0.6252
  957MOL0     H26315   3.465   4.681   3.753  2.9932  0.3911 -0.5959
  957MOL0     H26316   3.480   4.912   3.818  0.2212  1.0663  3.0906
  957MOL0     H26317   3.495   4.869   3.989 -1.2491 -0.7823  0.2565
  957MOL0     H26318   3.700   4.841   3.767  0.0790 -0.0865  1.6749
  957MOL0     H26319   3.734   4.789   3.930  1.9901  0.3825 -1.6841
  957MOL0     H26320   3.816   5.015   3.864  0.3660  1.6597  0.2745
  957MOL0     H26321   3.645   5.064   3.842  1.6019 -1.0729 -1.2697
  957MOL0     H26322   3.707   5.113   4.268  2.3672  1.2092 -0.4401
  957MOL0     H26323   3.377   4.488   3.750 -1.4624  0.2481 -0.5382
  957MOL0     H26324   3.309   4.244   3.753  0.0362  0.6621 -0.1781
  958MOL0     O26325  11.232   9.059   9.249  1.1325  0.2799 -0.2163
  958MOL0     C26326  11.109   9.082   9.251 -0.1384  0.5452  0.6714
  958MOL0     O26327  11.011   8.986   9.225 -0.6416  0.1499 -0.7187
  958MOL0     C26328  11.043   8.853   9.198 -0.3949  0.2568 -0.1054
  958MOL0     C26329  10.975   8.761   9.278  0.6461  0.6214 -0.0680
  958MOL0     C26330  10.999   8.627   9.261 -0.0263  0.3163  0.2221
  958MOL0     C26331  11.091   8.585   9.156  0.3872  0.0661 -0.0320
  958MOL0     O26332  11.109   8.451   9.139 -0.7158 -0.3059 -0.7329
  958MOL0     C26333  11.246   8.403   9.117 -0.1622 -0.2417  0.4753
  958MOL0     C26334  11.277   8.274   9.195  1.3644  0.6023 -0.6965
  958MOL0     C26335  11.401   8.194   9.159 -1.1983 -0.4021 -0.2163
  958MOL0     C26336  11.393   8.112   9.027 -0.0498  0.7448 -0.9385
  958MOL0     C26337  11.536   8.050   9.010 -0.0845 -0.2810  0.2509
  958MOL0     C26338  11.557   7.983   8.880  0.6554 -0.0212  0.5647
  958MOL0     C26339  11.464   7.866   8.845  0.2930  0.7764  0.2694
  958MOL0     C26340  11.347   7.903   8.758 -0.3722  0.9826 -0.4158
  958MOL0     N26341  11.398   7.968   8.628 -0.5394 -0.1529 -0.0934
  958MOL0     C26342  11.496   7.924   8.543 -0.4938  0.5605 -0.3129
  958MOL0     C26343  11.519   8.017   8.458  0.0484 -0.7801  0.0944
  958MOL0     C26344  11.624   8.028   8.349  0.3217 -0.7978  0.5150
  958MOL0     C26345  11.757   8.102   8.387 -0.0787 -0.1582 -0.7739
  958MOL0     C26346  11.841   8.153   8.269 -0.7246  0.7974  0.7542
  958MOL0     C26347  11.958   8.240   8.326  0.1272 -0.1535 -0.2184
  958MOL0     O26348  12.017   8.184   8.448  0.2012 -0.4271  0.1661
  958MOL0     C26349  12.121   8.248   8.511  0.0421  0.5581 -0.3516
  958MOL0     C26350  12.198   8.355   8.462 -0.3281  0.3313  0.0518
  958MOL0     C26351  12.317   8.394   8.526 -0.4835 -0.6070  0.1354
  958MOL0     C26352  12.355   8.326   8.646 -0.0876  0.3501 -0.9239
  958MOL0     C26353  12.484   8.355   8.707  0.0954  0.2598  0.5097
  958MOL0     O26354  12.520   8.288   8.820 -1.1043  0.1640 -0.3127
  958MOL0     C26355  12.640   8.339   8.883 -0.0792 -0.7973  0.7289
  958MOL0     C26356  12.767   8.300   8.827 -0.6440  0.3756  0.2944
  958MOL0     C26357  12.888   8.355   8.874  0.5842  0.4363  0.4063
  958MOL0     C26358  12.889   8.441   8.984 -0.5745 -1.2046 -0.0688
  958MOL0     O26359  13.000   8.492   9.046 -0.2287  0.0263  0.1970
  958MOL0     C26360  13.112   8.539   8.956 -1.1948  0.4981 -0.5553
  958MOL0     C26361  13.236   8.570   9.042  0.1449 -0.1595 -0.1507
  958MOL0     C26362  13.370   8.585   8.971 -0.7044  0.5821 -0.4783
  958MOL0     C26363  13.476   8.628   9.073  0.4017  0.5291 -0.1376
  958MOL0     C26364  13.602   8.686   9.002  0.4412 -0.5670  0.0421
  958MOL0     C26365  13.715   8.689   9.120  0.7687  0.1275 -0.5120
  958MOL0     C26366  13.856   8.712   9.068 -0.0926  0.8716 -0.0453
  958MOL0     C26367  13.970   8.633   9.148 -0.4537 -0.0495  0.1428
  958MOL0    Cl26368  13.943   8.447   9.119  0.0294 -0.3861 -0.1973
  958MOL0     C26369  12.762   8.479   9.040 -0.3183  0.7102  0.2266
  958MOL0     C26370  12.646   8.432   8.983 -0.3934  0.1768 -0.0476
  958MOL0     O26371  12.551   8.431   8.641 -0.3388  0.3562  0.2194
  958MOL0     C26372  12.275   8.217   8.689  0.4782 -0.7269 -0.5115
  958MOL0     C26373  12.155   8.183   8.624  1.4734 -0.1364 -1.0294
  958MOL0     N26374  11.425   8.116   8.479 -1.0594  0.1987  0.3792
  958MOL0     N26375  11.357   8.089   8.586  0.0657 -0.3548  0.0531
  958MOL0     C26376  11.151   8.681   9.081 -0.0476  0.5437  0.8313
  958MOL0     C26377  11.132   8.816   9.092  0.4444  1.3590 -0.0673
  958MOL0     C26378  11.065   9.213   9.294 -0.4714 -0.5242 -0.1207
  958MOL0     C26379  11.165   9.312   9.314  0.5959  0.1649 -0.3500
  958MOL0     C26380  11.126   9.437   9.343  0.6632 -0.8896  0.1453
  958MOL0     C26381  10.994   9.473   9.359  0.3885 -0.4479 -0.2448
  958MOL0     O26382  10.973   9.608   9.366 -0.1092 -0.3016 -0.8684
  958MOL0     C26383  10.866   9.659   9.285 -1.0289  0.6531  0.1992
  958MOL0     C26384  10.791   9.747   9.370 -0.1711  0.7519 -0.0753
  958MOL0     C26385  10.654   9.790   9.300  0.1124 -0.2748 -0.1274
  958MOL0     C26386  10.537   9.693   9.294 -0.5026 -0.1745  0.6944
  958MOL0     C26387  10.543   9.592   9.180  0.2503  0.3575 -0.2672
  958MOL0     C26388  10.565   9.518   9.086 -0.2633  0.0619 -0.1350
  958MOL0     C26389  10.895   9.374   9.355 -0.0122  0.1556  0.6699
  958MOL0     C26390  10.931   9.246   9.310 -0.1243 -0.3616 -0.2631
  958MOL0     H26391  10.904   8.780   9.358 -1.3636 -0.3286 -1.5343
  958MOL0     H26392  10.958   8.555   9.330 -2.8062 -1.1808 -2.7652
  958MOL0     H26393  11.320   8.478   9.149  0.6311 -1.0620  0.6221
  958MOL0     H26394  11.262   8.384   9.011  1.3882 -2.4218  1.0244
  958MOL0     H26395  11.183   8.218   9.191  0.1994  2.3869 -0.0644
  958MOL0     H26396  11.291   8.308   9.298  1.0475 -4.5445  1.3007
  958MOL0     H26397  11.421   8.136   9.250  4.0000  0.8076 -0.3121
  958MOL0     H26398  11.484   8.263   9.143 -0.6289 -0.8564  0.6820
  958MOL0     H26399  11.309   8.045   9.045 -0.7266  1.0237 -2.8468
  958MOL0     H26400  11.369   8.174   8.940 -0.1375  1.2141 -0.5826
  958MOL0     H26401  11.551   7.978   9.091 -0.1449  1.6093  2.0080
  958MOL0     H26402  11.607   8.130   9.031  0.1155  0.2515 -2.1510
  958MOL0     H26403  11.660   7.948   8.874  0.7649  0.4652 -0.9977
  958MOL0     H26404  11.540   8.062   8.806 -1.0258 -1.5958 -0.8559
  958MOL0     H26405  11.523   7.787   8.799  0.8537  1.0666  0.4838
  958MOL0     H26406  11.423   7.829   8.940  1.6808  1.9843  1.3699
  958MOL0     H26407  11.300   7.982   8.817 -0.0258 -0.0471  1.2820
  958MOL0     H26408  11.273   7.825   8.738  0.5122 -0.2892  1.0920
  958MOL0     H26409  11.550   7.830   8.530 -0.0341  0.5059  1.6775
  958MOL0     H26410  11.581   8.067   8.256 -0.2960 -2.5173  0.0245
  958MOL0     H26411  11.659   7.929   8.316 -0.1697 -0.4991 -1.0015
  958MOL0     H26412  11.816   8.041   8.456  0.8847 -0.8753 -2.1834
  958MOL0     H26413  11.736   8.193   8.444  2.2844  0.6736 -1.1249
  958MOL0     H26414  11.893   8.071   8.220  0.5266  2.1254 -0.2261
  958MOL0     H26415  11.788   8.207   8.190  0.6940 -1.2385 -1.7411
  958MOL0     H26416  11.918   8.340   8.346  0.6104 -0.2334  1.3286
  958MOL0     H26417  12.027   8.256   8.243 -0.6895 -1.5268 -1.1870
  958MOL0     H26418  12.164   8.399   8.368  0.4788  0.1201 -0.3537
  958MOL0     H26419  12.378   8.472   8.481  1.9819  0.1792  4.2997
  958MOL0     H26420  12.784   8.234   8.743 -1.3221  0.7063 -0.1086
  958MOL0     H26421  12.979   8.338   8.818  1.0396  4.6400 -0.4723
  958MOL0     H26422  13.085   8.627   8.896  1.4954  2.6478  1.1793
  958MOL0     H26423  13.144   8.458   8.890 -1.1620  0.1135 -0.0715
  958MOL0     H26424  13.246   8.483   9.108 -2.2182  1.0331  1.9567
  958MOL0     H26425  13.220   8.654   9.111  1.6209 -1.7891  2.3389
  958MOL0     H26426  13.363   8.672   8.905  3.5362  0.0847 -1.9363
  958MOL0     H26427  13.407   8.502   8.909 -2.2240  1.5817 -2.8976
  958MOL0     H26428  13.442   8.703   9.145  2.0941  0.5599  0.6570
  958MOL0     H26429  13.501   8.537   9.127  1.1766  0.6102 -0.3510
  958MOL0     H26430  13.568   8.783   8.963  0.1572 -1.3225 -1.6816
  958MOL0     H26431  13.626   8.618   8.920  2.4115 -2.8879  2.4083
  958MOL0     H26432  13.715   8.591   9.169 -1.2570 -0.7609 -2.1295
  958MOL0     H26433  13.687   8.766   9.193 -0.2561  0.0683 -0.8230
  958MOL0     H26434  13.862   8.679   8.964  0.7464 -1.1814  0.5937
  958MOL0     H26435  13.895   8.814   9.071  3.5369 -0.1321 -3.8132
  958MOL0     H26436  13.970   8.664   9.253  0.0388 -3.9239  1.4554
  958MOL0     H26437  14.070   8.659   9.114 -1.4912  1.0141 -2.2973
  958MOL0     H26438  12.756   8.537   9.132 -2.0403 -0.4852  0.9267
  958MOL0     H26439  12.555   8.472   9.025  0.8443  0.5512  2.5025
  958MOL0     H26440  12.303   8.169   8.782 -0.6642 -0.0491  0.2121
  958MOL0     H26441  12.083   8.112   8.663 -0.4697  2.4992  0.5264
  958MOL0     H26442  11.219   8.648   9.004  0.6435 -2.3312  2.5198
  958MOL0     H26443  11.178   8.883   9.020  0.9386  3.3740  2.0104
  958MOL0     H26444  11.266   9.287   9.285 -0.5133 -0.7440 -4.0473
  958MOL0     H26445  11.200   9.516   9.348  0.3145 -0.5668  0.2748
  958MOL0     H26446  10.808   9.576   9.242  0.8857 -0.3018 -0.6468
  958MOL0     H26447  10.900   9.724   9.204 -0.4953  0.1264 -0.0029
  958MOL0     H26448  10.756   9.697   9.461 -0.1369  1.3750  0.2848
  958MOL0     H26449  10.841   9.837   9.405 -0.0770 -0.2446  2.5281
  958MOL0     H26450  10.679   9.818   9.198 -2.9208 -1.6571 -1.3871
  958MOL0     H26451  10.619   9.877   9.356  0.2206 -0.1146 -0.3113
  958MOL0     H26452  10.513   9.637   9.385 -2.2660 -2.3633 -0.9772
  958MOL0     H26453  10.453   9.755   9.262  0.1970  0.3049 -0.2245
  958MOL0     H26454  10.581   9.444   9.010 -0.7890 -0.4903  0.2811
  958MOL0     H26455  10.790   9.395   9.373 -0.1012 -0.0482  0.4060
  958MOL0     H26456  10.843   9.182   9.309 -1.0169  0.8376  0.3343
  959MOL0     O26457   8.623   8.932   8.064 -0.2308  0.7763  0.3394
  959MOL0     C26458   8.602   8.889   7.949  0.1135  0.3987 -0.8257
  959MOL0     O26459   8.630   8.771   7.897  0.0492  0.3710  0.0617
  959MOL0     C26460   8.714   8.671   7.961 -0.0278 -0.5982  0.0887
  959MOL0     C26461   8.809   8.683   8.065  0.3870 -0.3025 -0.2118
  959MOL0     C26462   8.908   8.579   8.086 -0.3020 -0.1948  0.5603
  959MOL0     C26463   8.901   8.454   8.023 -1.1313 -0.2147  0.2856
  959MOL0     O26464   8.978   8.337   8.039  0.5967  0.0576 -0.2380
  959MOL0     C26465   9.020   8.307   8.171  0.5107  0.1589  1.3374
  959MOL0     C26466   9.056   8.159   8.184 -0.5515 -0.6953  0.0620
  959MOL0     C26467   9.204   8.127   8.139  0.8976  0.2540 -0.1822
  959MOL0     C26468   9.254   7.989   8.182 -0.1909  1.0290  0.1184
  959MOL0     C26469   9.386   7.964   8.103 -0.1524  0.1494 -1.2247
  959MOL0     C26470   9.492   8.065   8.116 -0.8137 -0.1545  0.1926
  959MOL0     C26471   9.532   8.080   8.260  0.3456 -0.0701  0.1711
  959MOL0     C26472   9.664   8.155   8.269  0.3715 -0.4447  0.2532
  959MOL0     N26473   9.700   8.185   8.411  0.8837  0.2107  0.5576
  959MOL0     C26474   9.713   8.096   8.509 -0.2062  0.9173  1.0228
  959MOL0     C26475   9.766   8.163   8.612  0.2064 -0.0673 -0.0888
  959MOL0     C26476   9.794   8.111   8.746  0.3696  0.8699  0.2581
  959MOL0     C26477   9.790   8.209   8.868  0.5631 -0.0313 -0.2702
  959MOL0     C26478   9.835   8.149   9.001  0.1346 -0.3156  0.8846
  959MOL0     C26479   9.755   8.023   9.038 -0.3611 -0.0440 -0.3418
  959MOL0     O26480   9.778   7.964   9.167  0.4777  0.5195  0.4350
  959MOL0     C26481   9.747   7.836   9.191  0.3097 -0.4328  0.3120
  959MOL0     C26482   9.769   7.797   9.323 -0.6026  0.7694  0.3143
  959MOL0     C26483   9.736   7.670   9.364  0.2640 -0.0162 -0.8329
  959MOL0     C26484   9.663   7.584   9.281  0.1167  0.0493  0.1611
  959MOL0     C26485   9.605   7.447   9.322 -0.3687  0.1258  0.0602
  959MOL0     O26486   9.510   7.394   9.236 -0.3037  0.6832 -0.3305
  959MOL0     C26487   9.463   7.267   9.268  0.2660 -0.7492  0.6273
  959MOL0     C26488   9.514   7.149   9.224  0.0131 -0.3397  0.4631
  959MOL0     C26489   9.461   7.029   9.272  0.7664 -0.2891  0.3718
  959MOL0     C26490   9.359   7.018   9.366  0.0811 -0.5083  0.1810
  959MOL0     O26491   9.304   6.905   9.412  0.3253  0.2638  0.2930
  959MOL0     C26492   9.285   6.807   9.308  0.0798  0.2355  0.4505
  959MOL0     C26493   9.159   6.735   9.358  0.4458  0.3706  0.5536
  959MOL0     C26494   9.174   6.675   9.500 -0.1794  0.5320  0.4855
  959MOL0     C26495   9.285   6.574   9.524  0.4071 -1.2797 -0.6694
  959MOL0     C26496   9.274   6.422   9.483 -0.1560  0.6168  0.5374
  959MOL0     C26497   9.393   6.330   9.527  0.3446 -0.2072  0.6459
  959MOL0     C26498   9.522   6.372   9.458 -0.3986 -0.2199 -0.0642
  959MOL0     C26499   9.511   6.388   9.303  0.3127  1.0407  0.8604
  959MOL0    Cl26500   9.502   6.226   9.229 -0.1483 -0.0323  0.1050
  959MOL0     C26501   9.306   7.140   9.408  0.0158 -0.1701  0.0167
  959MOL0     C26502   9.345   7.260   9.341  0.5752  1.3573 -0.5512
  959MOL0     O26503   9.636   7.389   9.422  0.2025  0.0717 -0.5551
  959MOL0     C26504   9.650   7.618   9.141 -0.5949 -0.1094 -0.1066
  959MOL0     C26505   9.691   7.748   9.103  0.8676  0.6186 -0.3285
  959MOL0     N26506   9.792   8.289   8.578 -0.1052  0.7134 -0.3705
  959MOL0     N26507   9.761   8.298   8.448 -0.5413 -0.1772  0.0920
  959MOL0     C26508   8.785   8.433   7.933 -0.0030  0.0936  0.7600
  959MOL0     C26509   8.699   8.543   7.900  0.2907 -0.3980  0.0683
  959MOL0     C26510   8.522   8.979   7.857 -0.5071  0.8296 -0.1698
  959MOL0     C26511   8.478   8.935   7.730  0.0494  0.1871  0.5608
  959MOL0     C26512   8.423   9.029   7.639  0.2218 -0.4825  0.6463
  959MOL0     C26513   8.387   9.158   7.679  1.7859 -0.9185 -0.7517
  959MOL0     O26514   8.314   9.235   7.593  0.0587 -0.6541 -0.7237
  959MOL0     C26515   8.215   9.327   7.653 -0.5470  0.3131  0.4763
  959MOL0     C26516   8.106   9.336   7.551  0.2843  0.3487 -0.5273
  959MOL0     C26517   7.994   9.433   7.597 -0.6906 -0.0755  0.6384
  959MOL0     C26518   7.861   9.375   7.550 -0.5672  0.6836 -0.0229
  959MOL0     C26519   7.747   9.452   7.584 -0.0428  0.1878 -0.1864
  959MOL0     C26520   7.643   9.510   7.617  0.4054 -0.4994  0.7521
  959MOL0     C26521   8.415   9.196   7.810  0.0626  0.7181  0.3282
  959MOL0     C26522   8.494   9.111   7.886  0.3604 -0.1670 -0.4830
  959MOL0     H26523   8.818   8.769   8.132  0.4630  0.0603 -0.6814
  959MOL0     H26524   8.988   8.593   8.157  1.2906  2.1508 -1.5272
  959MOL0     H26525   8.936   8.332   8.237 -1.7466  3.0644 -2.2651
  959MOL0     H26526   9.108   8.369   8.187  0.5786  0.2954  0.4971
  959MOL0     H26527   8.993   8.086   8.133 -0.6382 -0.3740 -0.2891
  959MOL0     H26528   9.042   8.134   8.290  0.5276  4.1282  1.6080
  959MOL0     H26529   9.279   8.190   8.187  1.2445 -0.4213  0.1833
  959MOL0     H26530   9.216   8.135   8.030 -0.0726  0.6929 -0.2652
  959MOL0     H26531   9.259   7.984   8.291 -2.6146 -0.1176  0.2285
  959MOL0     H26532   9.179   7.914   8.154  1.8278 -0.3437 -1.9491
  959MOL0     H26533   9.361   7.961   7.996 -1.3991 -0.4533 -0.9478
  959MOL0     H26534   9.426   7.865   8.126 -1.9254 -0.3329 -0.0421
  959MOL0     H26535   9.456   8.164   8.086 -1.4414 -0.7898 -1.2116
  959MOL0     H26536   9.583   8.053   8.057 -2.1716  1.5404 -2.4383
  959MOL0     H26537   9.455   8.128   8.321  0.7908 -1.3194  1.7765
  959MOL0     H26538   9.549   7.979   8.296 -0.6342 -0.8803 -1.4878
  959MOL0     H26539   9.656   8.251   8.217  1.1188  2.1076  4.3932
  959MOL0     H26540   9.742   8.104   8.210 -2.3045 -3.1219 -1.2397
  959MOL0     H26541   9.692   7.990   8.496 -0.5040  1.0191  0.6804
  959MOL0     H26542   9.899   8.083   8.740  0.3256  0.1546  2.1416
  959MOL0     H26543   9.731   8.022   8.751 -3.5550  3.3940  0.9497
  959MOL0     H26544   9.685   8.237   8.875  0.6934  0.0831  4.1758
  959MOL0     H26545   9.847   8.301   8.852 -3.0094  2.4943  0.4356
  959MOL0     H26546   9.944   8.138   9.004  0.6363  3.1902  0.4808
  959MOL0     H26547   9.822   8.231   9.073  0.5210  2.2308 -1.7389
  959MOL0     H26548   9.780   7.956   8.955  0.8100  1.5441 -1.3304
  959MOL0     H26549   9.651   8.053   9.046 -0.4882 -0.7220  0.9811
  959MOL0     H26550   9.836   7.847   9.392  0.3723  0.4302 -0.3537
  959MOL0     H26551   9.754   7.641   9.467 -0.6294  0.0164 -0.6541
  959MOL0     H26552   9.594   7.151   9.150 -1.7499 -0.0501 -1.4946
  959MOL0     H26553   9.521   6.942   9.249  1.7186  0.8271 -1.7021
  959MOL0     H26554   9.373   6.744   9.293  0.1434  0.0284  1.6207
  959MOL0     H26555   9.259   6.843   9.207  4.8364  2.5349 -0.2484
  959MOL0     H26556   9.136   6.659   9.282 -1.5114  2.8125 -1.4736
  959MOL0     H26557   9.068   6.796   9.363  1.4868  1.9175  1.5378
  959MOL0     H26558   9.076   6.630   9.520  0.5348 -1.0570  0.5904
  959MOL0     H26559   9.179   6.753   9.577 -2.1567  0.1434  1.0600
  959MOL0     H26560   9.375   6.618   9.480  1.8047 -1.1707  2.1340
  959MOL0     H26561   9.298   6.569   9.632 -2.1718  0.0072 -0.2174
  959MOL0     H26562   9.261   6.416   9.375 -1.9051  0.6529  0.7033
  959MOL0     H26563   9.185   6.372   9.524  1.9973 -3.4470  0.8072
  959MOL0     H26564   9.360   6.227   9.512  0.6108 -0.7292  3.1839
  959MOL0     H26565   9.394   6.324   9.636  0.3938 -5.7412  0.6253
  959MOL0     H26566   9.527   6.473   9.501  0.7265 -0.6263  0.8191
  959MOL0     H26567   9.615   6.317   9.478  0.7629 -0.0453 -4.0112
  959MOL0     H26568   9.602   6.441   9.273  0.2700  1.6912  1.8332
  959MOL0     H26569   9.429   6.450   9.266  0.4228 -0.4474 -2.1515
  959MOL0     H26570   9.239   7.140   9.493  0.2716 -1.5944  0.2402
  959MOL0     H26571   9.311   7.358   9.373 -1.4375  0.8854 -1.1168
  959MOL0     H26572   9.603   7.545   9.075  1.4004 -2.4531  0.9033
  959MOL0     H26573   9.649   7.768   9.005 -2.1891  0.3466  0.8271
  959MOL0     H26574   8.761   8.339   7.884  3.0814 -1.0568  1.2052
  959MOL0     H26575   8.637   8.535   7.811 -0.1804  1.8753  0.1352
  959MOL0     H26576   8.488   8.836   7.686  0.0607  2.1241 -4.4786
  959MOL0     H26577   8.393   9.002   7.538  0.2260  0.0709  0.4915
  959MOL0     H26578   8.252   9.429   7.655  1.1224 -0.2838  1.0273
  959MOL0     H26579   8.171   9.305   7.751 -3.7460  0.1246 -0.8602
  959MOL0     H26580   8.155   9.355   7.455  2.6495 -2.4073 -0.0081
  959MOL0     H26581   8.079   9.230   7.555  1.3043 -0.0382 -2.4845
  959MOL0     H26582   8.010   9.533   7.557 -2.5480  0.6033  1.4740
  959MOL0     H26583   8.004   9.450   7.705  1.7158  0.1615  0.4377
  959MOL0     H26584   7.853   9.344   7.445  0.0327  2.6385 -0.6776
  959MOL0     H26585   7.850   9.279   7.601 -2.1031  0.2125 -1.1589
  959MOL0     H26586   7.553   9.566   7.635  0.0681 -0.6876 -0.3126
  959MOL0     H26587   8.384   9.295   7.842  0.3642  0.7028  0.6699
  959MOL0     H26588   8.512   9.139   7.989 -2.0083  3.6289 -0.8888
  960MOL0     O26589   9.687   2.096   7.338 -0.9456 -0.0297 -0.5360
  960MOL0     C26590   9.569   2.122   7.312 -0.6835  0.6562 -1.0117
  960MOL0     O26591   9.516   2.252   7.291  0.4759  0.1701  0.5119
  960MOL0     C26592   9.606   2.346   7.324 -0.5573 -0.3173 -0.1612
  960MOL0     C26593   9.627   2.387   7.457 -0.2650 -0.4009  0.9038
  960MOL0     C26594   9.698   2.502   7.486  0.2324 -0.2689  0.6464
  960MOL0     C26595   9.744   2.574   7.386 -0.4479 -0.4234  0.9214
  960MOL0     O26596   9.805   2.688   7.429  0.4280 -0.1235 -0.7621
  960MOL0     C26597   9.938   2.710   7.375 -0.0713  0.5935 -0.7297
  960MOL0     C26598   9.969   2.867   7.364  0.6102  0.3096  0.0927
  960MOL0     C26599   9.965   2.959   7.490 -0.0693 -0.7644 -0.3778
  960MOL0     C26600   9.934   3.100   7.455 -0.0901  0.2655  0.7376
  960MOL0     C26601   9.925   3.207   7.566 -0.3154 -0.3127 -0.1582
  960MOL0     C26602  10.023   3.321   7.543  0.1965 -0.1582  0.1681
  960MOL0     C26603  10.029   3.388   7.686  0.5587  0.3394  0.0782
  960MOL0     C26604   9.893   3.467   7.731 -0.2651 -0.0390  0.0797
  960MOL0     N26605   9.926   3.573   7.822 -0.3549  0.5103  0.5023
  960MOL0     C26606   9.989   3.559   7.946 -0.1901  0.3764  0.5195
  960MOL0     C26607  10.007   3.685   7.993  0.0541  0.1519 -0.2031
  960MOL0     C26608  10.078   3.724   8.122 -0.0864 -0.5648  0.2147
  960MOL0     C26609   9.965   3.766   8.226  0.2108  0.4529 -0.2986
  960MOL0     C26610   9.887   3.896   8.212  0.7615  0.2480 -0.5846
  960MOL0     C26611   9.970   4.021   8.209  0.3574 -0.6245  0.4042
  960MOL0     O26612   9.901   4.144   8.204  0.2421 -0.5188  0.0934
  960MOL0     C26613   9.979   4.246   8.250 -0.0301 -0.1039  0.3454
  960MOL0     C26614  10.068   4.301   8.155 -0.1308 -0.4329  0.3783
  960MOL0     C26615  10.140   4.411   8.191  0.1553  0.2595 -0.2247
  960MOL0     C26616  10.128   4.467   8.327 -0.7779  0.6083  0.5751
  960MOL0     C26617  10.204   4.590   8.361 -0.5945 -0.4630  0.1895
  960MOL0     O26618  10.252   4.608   8.492  0.1459  0.3667 -0.6127
  960MOL0     C26619  10.287   4.735   8.532  0.9204  0.2467  0.0983
  960MOL0     C26620  10.195   4.829   8.577 -0.4746 -0.2378  0.0619
  960MOL0     C26621  10.238   4.961   8.620 -0.0628 -0.7044  0.2885
  960MOL0     C26622  10.366   5.007   8.583  0.3467  0.1094 -1.1656
  960MOL0     O26623  10.420   5.127   8.621  0.1483 -0.3579  0.0998
  960MOL0     C26624  10.353   5.253   8.640 -1.3004 -0.6986 -1.2536
  960MOL0     C26625  10.429   5.371   8.582 -0.7722 -0.4014  0.2005
  960MOL0     C26626  10.485   5.469   8.688  0.2210 -0.8194 -0.6562
  960MOL0     C26627  10.593   5.551   8.621 -0.1367  0.5863  0.0400
  960MOL0     C26628  10.635   5.667   8.711  0.4097 -1.1958 -0.5433
  960MOL0     C26629  10.744   5.637   8.811 -0.2964 -0.7175 -0.0238
  960MOL0     C26630  10.747   5.747   8.913  0.1801 -0.8736 -0.7325
  960MOL0     C26631  10.780   5.892   8.852 -1.0490  0.2511 -0.4881
  960MOL0    Cl26632  10.776   6.032   8.972  0.2428 -0.0447 -0.2682
  960MOL0     C26633  10.456   4.912   8.527 -0.1918 -0.6993  0.1877
  960MOL0     C26634  10.413   4.781   8.503  0.2780 -0.1771 -0.3340
  960MOL0     O26635  10.220   4.660   8.267 -0.3506 -0.9450  0.8414
  960MOL0     C26636  10.055   4.402   8.424  0.1754 -0.0544 -0.9308
  960MOL0     C26637   9.976   4.295   8.381  0.3610 -0.3533  0.3976
  960MOL0     N26638   9.944   3.764   7.900  0.9712 -0.1559  1.1610
  960MOL0     N26639   9.892   3.702   7.792 -0.2092  0.1798  0.2391
  960MOL0     C26640   9.741   2.531   7.246  1.2780 -0.9807 -0.3317
  960MOL0     C26641   9.667   2.412   7.217 -0.0302 -0.6943 -0.1204
  960MOL0     C26642   9.478   2.007   7.290 -0.6702  0.1840 -0.6526
  960MOL0     C26643   9.516   1.879   7.332 -0.1397 -0.7701  0.7455
  960MOL0     C26644   9.430   1.776   7.325 -0.3479  0.1761 -0.0331
  960MOL0     C26645   9.300   1.787   7.270  0.1521 -0.2220  0.7468
  960MOL0     O26646   9.223   1.677   7.284  0.3186 -0.3544  0.0520
  960MOL0     C26647   9.078   1.686   7.275 -0.3065  0.2842  0.4161
  960MOL0     C26648   9.006   1.558   7.232 -0.1392 -1.0697 -0.6610
  960MOL0     C26649   8.859   1.566   7.178  0.3307 -0.5160  0.5769
  960MOL0     C26650   8.826   1.440   7.096  1.1059  0.6404 -1.1184
  960MOL0     C26651   8.676   1.431   7.070 -0.2529  1.1057 -0.6677
  960MOL0     C26652   8.558   1.421   7.059  0.6402 -0.3544  0.8019
  960MOL0     C26653   9.260   1.914   7.235  0.8550  0.3581  0.1005
  960MOL0     C26654   9.352   2.023   7.238 -0.0896 -0.4279  0.4928
  960MOL0     H26655   9.585   2.323   7.535 -1.8897  0.2317  0.5751
  960MOL0     H26656   9.698   2.536   7.589 -1.8573  0.8982  0.3122
  960MOL0     H26657   9.945   2.674   7.272  4.7132 -1.2946  0.0031
  960MOL0     H26658  10.016   2.647   7.419  2.5834  2.2579 -2.8039
  960MOL0     H26659   9.887   2.904   7.300  0.7755  2.7637  1.2159
  960MOL0     H26660  10.057   2.889   7.303  2.3255  0.0938  2.3967
  960MOL0     H26661  10.057   2.962   7.548 -1.1194 -2.2123  1.4545
  960MOL0     H26662   9.888   2.920   7.557  0.7050 -0.6800  0.5763
  960MOL0     H26663  10.003   3.135   7.378 -4.8279  1.8207 -3.3685
  960MOL0     H26664   9.836   3.104   7.407  0.4756 -1.7922 -0.7334
  960MOL0     H26665   9.949   3.167   7.665  0.9734  1.4323  0.2897
  960MOL0     H26666   9.821   3.241   7.564 -1.1033 -2.4421  1.1791
  960MOL0     H26667   9.989   3.402   7.478  0.3896  1.0705  1.5394
  960MOL0     H26668  10.121   3.282   7.514  0.3288  0.2909  0.0092
  960MOL0     H26669  10.056   3.311   7.759 -0.1362 -1.4276 -1.4615
  960MOL0     H26670  10.112   3.459   7.691  1.4355 -0.6583  0.2259
  960MOL0     H26671   9.813   3.406   7.775  1.0150 -4.2889 -2.8612
  960MOL0     H26672   9.851   3.506   7.638  0.5884 -1.0203 -0.7429
  960MOL0     H26673  10.034   3.467   7.982  1.5319 -0.0170 -2.2952
  960MOL0     H26674  10.150   3.805   8.110 -0.9268  0.2066  0.1963
  960MOL0     H26675  10.134   3.635   8.149 -0.9578 -0.6474  1.9008
  960MOL0     H26676  10.017   3.762   8.322  0.0778 -3.4809 -0.2253
  960MOL0     H26677   9.903   3.676   8.237  2.5890 -1.0803  1.4700
  960MOL0     H26678   9.819   3.888   8.126  1.9915 -0.8584 -1.4956
  960MOL0     H26679   9.824   3.905   8.301  3.7384  0.1886  1.6914
  960MOL0     H26680  10.034   3.998   8.123  0.8469  0.2330  0.5330
  960MOL0     H26681  10.027   4.013   8.302  1.1066 -1.3981 -0.0977
  960MOL0     H26682  10.083   4.260   8.056  0.0938 -1.0547  0.6687
  960MOL0     H26683  10.209   4.460   8.124  1.2830  1.2749  1.5892
  960MOL0     H26684  10.092   4.797   8.583 -0.0660 -1.4049  1.4825
  960MOL0     H26685  10.167   5.030   8.665 -0.4077 -0.1807 -0.9985
  960MOL0     H26686  10.344   5.264   8.749  1.6828 -0.6598 -0.9379
  960MOL0     H26687  10.256   5.258   8.588 -1.0745  0.0882 -1.6033
  960MOL0     H26688  10.359   5.421   8.515  1.1543  4.9634  1.6856
  960MOL0     H26689  10.506   5.326   8.519 -0.2474 -3.0283  2.5195
  960MOL0     H26690  10.536   5.410   8.765  2.3024  0.1781 -1.1870
  960MOL0     H26691  10.406   5.530   8.733  1.2502  1.3038 -1.5830
  960MOL0     H26692  10.680   5.488   8.599  0.1762  0.1466  2.2961
  960MOL0     H26693  10.551   5.605   8.536  0.1581 -0.0226 -0.5025
  960MOL0     H26694  10.549   5.699   8.770  0.7026 -1.3668 -0.0204
  960MOL0     H26695  10.660   5.748   8.642 -0.7925 -0.9843 -0.7590
  960MOL0     H26696  10.839   5.626   8.759  0.4204  1.1644  0.8051
  960MOL0     H26697  10.729   5.538   8.856  0.5355  0.1980  2.4488
  960MOL0     H26698  10.656   5.759   8.973 -0.6675  2.2507 -2.4033
  960MOL0     H26699  10.829   5.726   8.983 -0.1791  1.7582  0.5797
  960MOL0     H26700  10.717   5.914   8.766 -0.1352  1.1142 -0.9660
  960MOL0     H26701  10.882   5.879   8.813 -1.3970 -3.0199 -0.5242
  960MOL0     H26702  10.559   4.932   8.499 -0.7346 -0.7380 -1.9350
  960MOL0     H26703  10.485   4.715   8.457  2.7326  0.6756  1.9876
  960MOL0     H26704  10.045   4.430   8.529 -2.4844 -2.3210 -0.4577
  960MOL0     H26705   9.907   4.246   8.449  2.2500 -1.4945  1.6018
  960MOL0     H26706   9.771   2.590   7.160  0.3773 -0.6813 -0.4575
  960MOL0     H26707   9.656   2.383   7.113 -0.3657  1.6211 -0.7877
  960MOL0     H26708   9.620   1.867   7.362  0.5520  1.2839 -0.6042
  960MOL0     H26709   9.476   1.686   7.365 -2.5108 -1.3400 -0.7624
  960MOL0     H26710   9.060   1.758   7.194  0.8256 -2.9107 -2.9750
  960MOL0     H26711   9.049   1.727   7.372 -1.2998 -1.3618  0.8450
  960MOL0     H26712   9.067   1.498   7.164  1.1624 -0.8325  0.2662
  960MOL0     H26713   8.996   1.498   7.324  2.6105 -0.8280 -0.1242
  960MOL0     H26714   8.860   1.649   7.106 -1.1333  0.2403  1.3911
  960MOL0     H26715   8.786   1.586   7.257  0.0335 -1.4164  0.5457
  960MOL0     H26716   8.877   1.432   6.999 -1.2571 -1.0474 -2.3362
  960MOL0     H26717   8.840   1.350   7.156 -0.9186  0.7490 -0.4266
  960MOL0     H26718   8.453   1.399   7.056  0.8419 -1.2723 -1.0067
  960MOL0     H26719   9.159   1.931   7.200  0.5515  1.5739  1.4744
  960MOL0     H26720   9.321   2.117   7.193  3.1106  0.0429 -1.0264
  961MOL0     O26721   6.072  10.726  10.017  0.4574 -0.1114 -0.9303
  961MOL0     C26722   5.965  10.667  10.051 -0.4505 -0.2709  0.2352
  961MOL0     O26723   5.839  10.705  10.020  0.0648 -0.0404  0.8459
  961MOL0     C26724   5.817  10.829   9.969 -0.0316  0.4698 -0.5098
  961MOL0     C26725   5.849  10.874   9.844  0.0730  0.2191  0.3759
  961MOL0     C26726   5.812  11.005   9.800 -0.8906  0.8694 -0.2574
  961MOL0     C26727   5.754  11.094   9.884 -0.4222 -0.4516 -0.8484
  961MOL0     O26728   5.721  11.217   9.830  0.4491  0.3113  0.2965
  961MOL0     C26729   5.715  11.331   9.915  0.6454 -0.6054 -0.0793
  961MOL0     C26730   5.693  11.466   9.840 -0.0342  0.1694  0.4297
  961MOL0     C26731   5.815  11.553   9.806  0.0160  0.2622  0.2545
  961MOL0     C26732   5.777  11.680   9.730  0.1618 -0.2590 -0.3603
  961MOL0     C26733   5.741  11.798   9.824  0.1068  0.0727  0.4710
  961MOL0     C26734   5.872  11.862   9.865  0.0245 -0.1328 -0.9166
  961MOL0     C26735   5.860  12.002   9.938  0.2007  1.0972 -0.4703
  961MOL0     C26736   5.997  12.039   9.988 -0.0450 -0.0329  0.0956
  961MOL0     N26737   6.109  12.055   9.889 -0.2117  0.2332 -0.4753
  961MOL0     C26738   6.245  12.021   9.908  0.8764 -0.5093  0.1964
  961MOL0     C26739   6.306  12.060   9.792 -0.6329  0.3301 -0.5084
  961MOL0     C26740   6.453  12.049   9.759 -0.5572  0.5019  0.1501
  961MOL0     C26741   6.489  12.176   9.685  0.4410  0.2251 -0.2604
  961MOL0     C26742   6.617  12.173   9.610 -0.5808 -0.1539  0.2077
  961MOL0     C26743   6.651  12.065   9.509  0.3336 -0.2355  0.3385
  961MOL0     O26744   6.709  11.948   9.569 -0.0187 -0.0446  0.3410
  961MOL0     C26745   6.808  11.877   9.507  0.0623  0.8002  0.4753
  961MOL0     C26746   6.922  11.851   9.581 -0.8443 -0.5676  0.9391
  961MOL0     C26747   7.033  11.789   9.532 -0.9593 -0.4708 -0.1455
  961MOL0     C26748   7.021  11.728   9.404  0.1041 -0.1446 -0.0119
  961MOL0     C26749   7.140  11.663   9.344 -0.1654 -0.3495 -0.2595
  961MOL0     O26750   7.260  11.696   9.387 -0.4879  0.1811 -0.4650
  961MOL0     C26751   7.381  11.633   9.348 -0.1805  0.4183 -0.6190
  961MOL0     C26752   7.468  11.600   9.452  0.3982 -0.0278 -0.2715
  961MOL0     C26753   7.597  11.554   9.433 -0.2800  1.5097 -0.2685
  961MOL0     C26754   7.648  11.549   9.298 -1.0599  0.0877  0.2250
  961MOL0     O26755   7.771  11.522   9.259  0.0591  0.8039  0.2180
  961MOL0     C26756   7.873  11.525   9.364 -0.5961  0.3200 -0.1475
  961MOL0     C26757   8.015  11.515   9.304  0.1386 -0.9699  0.0603
  961MOL0     C26758   8.070  11.376   9.297 -0.1471  0.6461 -0.6392
  961MOL0     C26759   8.180  11.359   9.200 -0.7764  0.9065 -0.1619
  961MOL0     C26760   8.157  11.252   9.106  0.0439  0.4229  0.3786
  961MOL0     C26761   8.281  11.223   9.022 -0.5526 -0.1292 -0.5591
  961MOL0     C26762   8.236  11.133   8.897  0.3155 -0.2852  0.1756
  961MOL0     C26763   8.349  11.150   8.795 -0.0794 -0.7001  0.2519
  961MOL0    Cl26764   8.493  11.090   8.875  0.0132  0.1212  0.1807
  961MOL0     C26765   7.562  11.591   9.191  0.1464  0.0840  0.6912
  961MOL0     C26766   7.431  11.628   9.220  0.2169  0.9142 -0.1225
  961MOL0     O26767   7.119  11.585   9.255  1.0132  0.4367  0.4089
  961MOL0     C26768   6.903  11.745   9.331  0.7952 -0.0356 -0.6721
  961MOL0     C26769   6.802  11.823   9.384 -0.9039 -0.0491 -0.2990
  961MOL0     N26770   6.207  12.112   9.713  0.4326 -0.3996  0.2894
  961MOL0     N26771   6.088  12.103   9.766  0.3122  0.5225  0.3827
  961MOL0     C26772   5.722  11.045  10.017 -0.2520  0.6019  0.3752
  961MOL0     C26773   5.751  10.915  10.057 -0.7925  0.9956  1.0445
  961MOL0     C26774   5.989  10.556  10.134  0.1212 -0.6751 -0.1834
  961MOL0     C26775   5.873  10.478  10.173  0.0323  0.0168 -0.3473
  961MOL0     C26776   5.886  10.360  10.246  0.3149 -0.8268 -0.2434
  961MOL0     C26777   6.018  10.314  10.281 -0.4967  0.6842  0.0303
  961MOL0     O26778   6.042  10.203  10.354  0.3344 -0.5627 -0.2929
  961MOL0     C26779   5.940  10.096  10.362 -1.1717  0.5949 -0.3663
  961MOL0     C26780   5.852  10.127  10.476 -0.5254 -0.0409  0.5295
  961MOL0     C26781   5.709  10.076  10.453 -0.9813 -0.3182 -0.4804
  961MOL0     C26782   5.676   9.967  10.563 -0.1621  0.1182 -0.1403
  961MOL0     C26783   5.746   9.839  10.548  0.0394 -0.1728  1.0763
  961MOL0     C26784   5.817   9.740  10.527  0.5095 -0.2490  0.8470
  961MOL0     C26785   6.132  10.394  10.239  0.5391  0.0441 -0.0304
  961MOL0     C26786   6.108  10.508  10.167 -0.1334 -0.6536  0.3596
  961MOL0     H26787   5.909  10.810   9.781 -1.1542 -0.6847  0.0900
  961MOL0     H26788   5.836  11.044   9.701  2.1032 -0.7653 -0.2824
  961MOL0     H26789   5.817  11.330   9.956  2.1406 -0.7495 -3.4062
  961MOL0     H26790   5.636  11.318   9.988  1.5899  0.4485  1.1801
  961MOL0     H26791   5.614  11.528   9.882 -0.6923  0.6994 -1.5018
  961MOL0     H26792   5.648  11.428   9.748  5.2148 -1.1588 -1.9968
  961MOL0     H26793   5.895  11.503   9.750 -0.7890  1.2788 -1.9104
  961MOL0     H26794   5.864  11.574   9.902  1.1878  0.8462 -0.4491
  961MOL0     H26795   5.859  11.714   9.665  0.7785  2.4960  1.7048
  961MOL0     H26796   5.688  11.652   9.672  0.0754  1.8985 -1.3839
  961MOL0     H26797   5.674  11.757   9.900 -1.0402 -1.9875 -1.5306
  961MOL0     H26798   5.677  11.873   9.776 -1.4985 -0.9048  0.9851
  961MOL0     H26799   5.946  11.857   9.785 -0.3676 -3.7137 -1.1907
  961MOL0     H26800   5.912  11.786   9.933  1.1025 -1.9065 -3.4053
  961MOL0     H26801   5.824  12.080   9.872 -0.4597  0.7491 -0.5288
  961MOL0     H26802   5.790  12.006  10.022 -0.4067  0.6736 -0.9465
  961MOL0     H26803   6.036  11.960  10.053  0.3893 -0.2137 -0.3868
  961MOL0     H26804   5.978  12.126  10.052 -2.9844  0.5678 -1.4079
  961MOL0     H26805   6.288  11.979   9.999  0.1755 -0.3467  0.6063
  961MOL0     H26806   6.467  11.955   9.705 -1.4772  1.2198 -1.4281
  961MOL0     H26807   6.517  12.047   9.847  1.4990 -1.7192 -1.2854
  961MOL0     H26808   6.494  12.256   9.759  2.8454 -0.9902  1.0239
  961MOL0     H26809   6.410  12.194   9.612 -2.4749  2.1263  3.0128
  961MOL0     H26810   6.623  12.263   9.547  3.5481 -0.2157  0.2713
  961MOL0     H26811   6.696  12.173   9.685  0.2699  0.2019 -0.6670
  961MOL0     H26812   6.716  12.112   9.434 -1.1054  1.5465  0.1431
  961MOL0     H26813   6.565  12.041   9.446 -1.0401 -0.5498  2.2717
  961MOL0     H26814   6.922  11.872   9.688 -2.9305  2.9811  0.3956
  961MOL0     H26815   7.113  11.765   9.602 -1.0722 -3.6921 -0.9346
  961MOL0     H26816   7.444  11.617   9.556  0.5498 -5.3714  0.9011
  961MOL0     H26817   7.655  11.522   9.519 -2.2725  0.8375  0.8918
  961MOL0     H26818   7.851  11.429   9.413 -0.9832  0.3498 -0.2630
  961MOL0     H26819   7.870  11.610   9.433  2.5906  0.7825 -0.4071
  961MOL0     H26820   8.086  11.578   9.359 -0.7501  0.5864 -0.5257
  961MOL0     H26821   8.005  11.568   9.209  4.0492  0.0936  0.0407
  961MOL0     H26822   7.983  11.312   9.278 -0.8789  0.9236  1.5034
  961MOL0     H26823   8.105  11.351   9.397 -1.1740  0.1695 -0.3850
  961MOL0     H26824   8.193  11.454   9.147  0.2084 -1.3298 -4.4109
  961MOL0     H26825   8.273  11.331   9.251 -1.1604 -0.6297 -0.2625
  961MOL0     H26826   8.071  11.267   9.041 -0.3450  0.3348  0.8677
  961MOL0     H26827   8.126  11.164   9.163 -0.3085  1.6900  2.2146
  961MOL0     H26828   8.348  11.155   9.075  0.2738 -0.3075 -1.8060
  961MOL0     H26829   8.328  11.319   8.996  0.5323 -0.1333  1.2354
  961MOL0     H26830   8.212  11.031   8.927  0.3566 -0.0400  1.0592
  961MOL0     H26831   8.141  11.177   8.864 -0.0306  1.2732  2.9233
  961MOL0     H26832   8.355  11.258   8.776 -1.1959 -0.5110  0.8869
  961MOL0     H26833   8.332  11.102   8.698  1.7593  1.4321 -1.2351
  961MOL0     H26834   7.604  11.605   9.091  2.1956  0.2886  1.5285
  961MOL0     H26835   7.355  11.657   9.147  0.9682  3.1110 -0.1053
  961MOL0     H26836   6.891  11.715   9.227 -0.6666  2.7780 -1.3943
  961MOL0     H26837   6.723  11.854   9.316  0.3083  0.2230 -1.6434
  961MOL0     H26838   5.677  11.118  10.085 -0.6200 -0.7085  1.5964
  961MOL0     H26839   5.713  10.886  10.154 -0.1343  0.5774  1.1817
  961MOL0     H26840   5.776  10.513  10.139 -0.1763 -1.9044 -1.9328
  961MOL0     H26841   5.799  10.323  10.299 -0.8177  1.7208 -0.1782
  961MOL0     H26842   5.997  10.005  10.383  0.2608  1.5415 -0.0468
  961MOL0     H26843   5.894  10.087  10.263  0.9490 -0.4504 -1.3112
  961MOL0     H26844   5.903  10.092  10.566  1.6333  1.6650  0.0402
  961MOL0     H26845   5.838  10.234  10.493 -1.3084 -0.4031  2.4551
  961MOL0     H26846   5.703  10.031  10.354 -2.3981 -0.2844 -0.4278
  961MOL0     H26847   5.636  10.158  10.453  0.2959  0.8661  0.2126
  961MOL0     H26848   5.687  10.013  10.661 -2.7884 -0.4371  0.4916
  961MOL0     H26849   5.571   9.936  10.553 -1.2195  1.1355  4.9677
  961MOL0     H26850   5.852   9.643  10.498  0.4183  0.2479 -1.0114
  961MOL0     H26851   6.235  10.364  10.258 -0.4986 -2.3587  2.4008
  961MOL0     H26852   6.191  10.546  10.108  0.1213 -3.2940 -1.1201
  962MOL0     O26853   5.909  10.166   6.461 -0.5552 -0.8723 -0.2642
  962MOL0     C26854   5.866  10.154   6.342 -0.1299  0.4702 -0.2500
  962MOL0     O26855   5.831  10.261   6.254 -0.6407  0.3612 -0.7798
  962MOL0     C26856   5.865  10.385   6.302 -1.2923  0.8493 -0.5421
  962MOL0     C26857   6.001  10.407   6.327 -0.0044  1.1692  0.2246
  962MOL0     C26858   6.024  10.527   6.385 -0.7466  1.3360 -0.1873
  962MOL0     C26859   5.924  10.615   6.439 -0.2099  0.1350  0.9246
  962MOL0     O26860   5.966  10.734   6.497  0.2981  0.8084  0.5079
  962MOL0     C26861   5.885  10.837   6.560 -0.2010 -0.0710  0.3691
  962MOL0     C26862   5.897  10.951   6.462  0.3036  0.8428  0.6310
  962MOL0     C26863   5.893  11.093   6.529  0.7134  0.7892 -1.4611
  962MOL0     C26864   5.948  11.219   6.470  0.1239 -0.3713 -0.1340
  962MOL0     C26865   5.931  11.332   6.573 -0.0171 -0.2274  1.3228
  962MOL0     C26866   5.976  11.461   6.501  0.3939 -1.1314  0.2789
  962MOL0     C26867   5.993  11.584   6.597 -0.0253  0.9689 -0.4470
  962MOL0     C26868   6.034  11.703   6.506  0.0933  0.3365 -0.8691
  962MOL0     N26869   5.987  11.831   6.558  0.2663  0.6393  0.6877
  962MOL0     C26870   6.054  11.907   6.654  0.4394 -0.4178 -0.4938
  962MOL0     C26871   5.955  11.997   6.689 -0.1954 -0.3012 -0.2782
  962MOL0     C26872   5.983  12.109   6.782  0.0312  0.5993  0.3657
  962MOL0     C26873   6.056  12.222   6.708 -0.2202  0.3121  0.0607
  962MOL0     C26874   6.014  12.365   6.754  0.4718 -0.0919 -0.1119
  962MOL0     C26875   5.898  12.398   6.658  0.0674 -1.1611  0.3834
  962MOL0     O26876   5.841  12.533   6.680  0.7728 -0.4779 -0.0614
  962MOL0     C26877   5.713  12.544   6.734  0.2989 -0.4644  0.1141
  962MOL0     C26878   5.696  12.609   6.853  1.1378 -0.0155 -0.2374
  962MOL0     C26879   5.573  12.598   6.927 -0.0279  0.0705  0.0655
  962MOL0     C26880   5.459  12.528   6.866 -0.0658 -0.5677 -1.2416
  962MOL0     C26881   5.327  12.529   6.931  0.6392 -0.1270 -0.1032
  962MOL0     O26882   5.236  12.443   6.880 -0.2140  0.2117 -0.4240
  962MOL0     C26883   5.109  12.418   6.924 -0.7608  0.2029  0.3655
  962MOL0     C26884   5.040  12.309   6.871  0.0235 -0.4396 -1.2859
  962MOL0     C26885   4.927  12.261   6.933  0.4131 -1.2405  0.4698
  962MOL0     C26886   4.862  12.325   7.042  0.0608  0.8748 -0.3059
  962MOL0     O26887   4.746  12.269   7.094 -0.5879  0.3206 -0.0476
  962MOL0     C26888   4.748  12.231   7.238  0.7639 -0.2181  1.0045
  962MOL0     C26889   4.837  12.107   7.258 -0.4464 -0.4946 -0.2493
  962MOL0     C26890   4.802  11.980   7.175  0.7615 -0.1946 -0.5734
  962MOL0     C26891   4.655  11.941   7.200 -0.5383  0.2658  0.4119
  962MOL0     C26892   4.614  11.896   7.346  0.1869  0.2201  0.2873
  962MOL0     C26893   4.465  11.858   7.352  0.1528  0.4235 -0.1674
  962MOL0     C26894   4.461  11.731   7.436 -0.3427 -0.5725  0.3939
  962MOL0     C26895   4.314  11.705   7.480  0.0330  0.0304  0.1505
  962MOL0    Cl26896   4.194  11.709   7.347 -0.1855  0.2612 -0.2591
  962MOL0     C26897   4.931  12.438   7.087 -0.5294  0.1019 -0.6058
  962MOL0     C26898   5.051  12.480   7.024  0.1308  0.3530 -0.6028
  962MOL0     O26899   5.313  12.602   7.032 -0.3842 -0.6399 -0.0352
  962MOL0     C26900   5.475  12.465   6.746 -0.4673  0.2055 -0.5440
  962MOL0     C26901   5.603  12.478   6.681  0.9483  0.9051 -0.2666
  962MOL0     N26902   5.841  11.983   6.611  0.0276  0.1826 -0.1904
  962MOL0     N26903   5.867  11.887   6.528 -0.0540  0.1784 -0.5325
  962MOL0     C26904   5.789  10.580   6.416  0.2045  0.1448  0.8928
  962MOL0     C26905   5.759  10.461   6.349 -0.0682  0.4097 -1.2365
  962MOL0     C26906   5.839  10.020   6.293  0.5298  0.4219 -0.2942
  962MOL0     C26907   5.824   9.905   6.366 -0.8290 -0.2256 -0.0216
  962MOL0     C26908   5.797   9.782   6.310 -0.4094 -0.6001  0.1789
  962MOL0     C26909   5.765   9.771   6.167  0.2611  0.2307 -0.7011
  962MOL0     O26910   5.742   9.650   6.110 -0.0853  0.7925 -0.5825
  962MOL0     C26911   5.754   9.634   5.965  0.6319 -0.3028  0.1177
  962MOL0     C26912   5.698   9.503   5.899  0.3825 -0.7142  0.0195
  962MOL0     C26913   5.744   9.388   5.986 -0.6498 -0.7171  0.0640
  962MOL0     C26914   5.688   9.255   5.927  0.4767 -0.7794 -0.0330
  962MOL0     C26915   5.751   9.142   5.985  0.7765  0.3095 -0.0743
  962MOL0     C26916   5.809   9.047   6.022  0.4992 -0.2256 -0.1715
  962MOL0     C26917   5.778   9.892   6.100  0.5532  0.9475  0.4225
  962MOL0     C26918   5.814  10.007   6.156 -0.4946  0.6453 -0.7913
  962MOL0     H26919   6.078  10.341   6.289 -1.1800  0.6122 -1.3064
  962MOL0     H26920   6.129  10.555   6.385  0.2420 -1.9470 -0.5618
  962MOL0     H26921   5.933  10.860   6.656 -1.0470  0.3489  0.7072
  962MOL0     H26922   5.781  10.807   6.573  0.6485 -3.1701  0.6729
  962MOL0     H26923   5.815  10.938   6.392 -0.9817  0.1131  2.2086
  962MOL0     H26924   5.984  10.944   6.396  0.9133 -1.6922  1.6007
  962MOL0     H26925   5.931  11.089   6.631 -0.8637  0.6069 -0.8531
  962MOL0     H26926   5.785  11.105   6.544  0.8187 -1.7977  3.0664
  962MOL0     H26927   6.054  11.201   6.451  0.2809  0.2443  0.1205
  962MOL0     H26928   5.891  11.227   6.377  0.6531 -2.8785 -0.7399
  962MOL0     H26929   6.008  11.301   6.644  3.9031 -0.6406 -2.6498
  962MOL0     H26930   5.835  11.330   6.624  0.3822 -1.5266  2.0827
  962MOL0     H26931   5.909  11.477   6.416  2.4233 -0.6647 -1.3124
  962MOL0     H26932   6.074  11.444   6.455 -1.3950 -2.2282 -3.5511
  962MOL0     H26933   5.903  11.608   6.655  0.7219  2.8723 -0.0105
  962MOL0     H26934   6.076  11.566   6.665 -0.6355 -1.4026 -0.2614
  962MOL0     H26935   5.987  11.689   6.408  1.0717  0.4618 -1.3652
  962MOL0     H26936   6.141  11.692   6.489  0.2530 -0.8639  0.5988
  962MOL0     H26937   6.152  11.900   6.701 -0.5440 -1.3109  1.5307
  962MOL0     H26938   6.055  12.075   6.857  0.3031 -3.1166 -1.3540
  962MOL0     H26939   5.896  12.149   6.834  0.5371  0.2106  1.5371
  962MOL0     H26940   6.055  12.202   6.601 -0.5947 -3.2514  0.6170
  962MOL0     H26941   6.161  12.204   6.731 -0.6855 -0.2412  1.9503
  962MOL0     H26942   5.981  12.369   6.858  0.8901  1.8910 -0.0195
  962MOL0     H26943   6.082  12.450   6.742 -1.3693  1.8822  2.2292
  962MOL0     H26944   5.823  12.319   6.662  0.1831 -1.3408 -0.7431
  962MOL0     H26945   5.935  12.401   6.555 -0.2990 -0.3075  0.2646
  962MOL0     H26946   5.768  12.672   6.906 -0.1594  1.6713 -0.3853
  962MOL0     H26947   5.552  12.665   7.009 -2.5807 -1.3373  0.6713
  962MOL0     H26948   5.097  12.257   6.794  3.1287  0.6499  0.1004
  962MOL0     H26949   4.867  12.177   6.901 -0.1785 -0.1094 -1.5817
  962MOL0     H26950   4.652  12.220   7.290  0.4900 -2.5504  0.1463
  962MOL0     H26951   4.804  12.314   7.281  2.1215 -1.0518  0.8950
  962MOL0     H26952   4.819  12.092   7.365 -0.9789 -0.3640 -0.3210
  962MOL0     H26953   4.941  12.139   7.246 -0.2536 -0.9028  0.3040
  962MOL0     H26954   4.853  11.888   7.207  0.4400  0.3740  1.7553
  962MOL0     H26955   4.816  12.004   7.069  2.3567 -0.3207 -0.4305
  962MOL0     H26956   4.590  12.023   7.166 -1.0623 -1.3012 -2.7400
  962MOL0     H26957   4.632  11.863   7.127 -0.5525  0.4327  0.2355
  962MOL0     H26958   4.635  11.974   7.420 -1.9801  0.2568  0.9282
  962MOL0     H26959   4.674  11.806   7.361  0.4077  0.4607  0.8556
  962MOL0     H26960   4.421  11.856   7.252  0.6868  3.5352 -0.5764
  962MOL0     H26961   4.421  11.941   7.409  0.8749  1.9972 -1.8066
  962MOL0     H26962   4.495  11.645   7.377 -3.4387 -2.4472  1.0936
  962MOL0     H26963   4.515  11.752   7.528 -0.5631 -2.0564  0.8891
  962MOL0     H26964   4.297  11.773   7.565 -0.0111 -1.8943  1.7646
  962MOL0     H26965   4.303  11.604   7.522  0.2033 -0.3790 -0.7718
  962MOL0     H26966   4.888  12.490   7.171 -0.0383  0.2156 -0.4206
  962MOL0     H26967   5.094  12.567   7.073  2.7334 -0.8720 -0.4976
  962MOL0     H26968   5.397  12.411   6.693 -2.4967  0.8182  1.6869
  962MOL0     H26969   5.618  12.418   6.591  2.1289  0.3355  0.2864
  962MOL0     H26970   5.723  10.657   6.453  2.9023  1.0761  4.3300
  962MOL0     H26971   5.658  10.432   6.319 -0.5921  0.7098  0.1349
  962MOL0     H26972   5.826   9.903   6.474 -0.6427  2.9401  0.1196
  962MOL0     H26973   5.808   9.701   6.382  2.6893  0.0937  0.6428
  962MOL0     H26974   5.861   9.636   5.940  0.8686 -1.2477  0.9759
  962MOL0     H26975   5.717   9.723   5.913  1.5686  0.3171  0.4974
  962MOL0     H26976   5.590   9.514   5.892  0.6181  0.6936 -2.8037
  962MOL0     H26977   5.740   9.479   5.801  3.1097 -0.1810  0.9629
  962MOL0     H26978   5.712   9.404   6.090  1.5140  1.3625  0.5103
  962MOL0     H26979   5.853   9.390   5.984 -0.6190  1.6862  0.8111
  962MOL0     H26980   5.581   9.252   5.948  0.7910 -0.8745  1.7484
  962MOL0     H26981   5.691   9.260   5.818 -1.6782 -2.2660 -0.2174
  962MOL0     H26982   5.878   8.969   6.046  0.6683  0.6010  2.4556
  962MOL0     H26983   5.762   9.900   5.993  0.8694  1.5073  0.4087
  962MOL0     H26984   5.814  10.090   6.086  1.9130  0.6730 -0.8176
  963MOL0     O26985   5.322   0.726   4.774  0.7543  0.7899  0.5528
  963MOL0     C26986   5.419   0.790   4.812  0.6778  0.4757 -0.0814
  963MOL0     O26987   5.492   0.761   4.926  0.8272  0.4311 -0.5068
  963MOL0     C26988   5.447   0.663   5.005  0.0662  0.4020  0.5830
  963MOL0     C26989   5.315   0.661   5.049  0.0603 -0.6194 -0.5411
  963MOL0     C26990   5.269   0.558   5.134 -1.3292  0.2953 -0.3311
  963MOL0     C26991   5.360   0.453   5.173  0.5745 -0.4445 -0.2543
  963MOL0     O26992   5.324   0.349   5.255 -0.0970  0.6173 -0.2267
  963MOL0     C26993   5.269   0.237   5.174  0.3694  1.1024 -0.3362
  963MOL0     C26994   5.260   0.103   5.245  0.1323  0.2131  0.2892
  963MOL0     C26995   5.178   0.109   5.377  0.1048  0.0208  0.1114
  963MOL0     C26996   5.165  -0.021   5.461 -0.4892  0.0991 -0.7530
  963MOL0     C26997   5.110   0.004   5.608 -0.1200 -0.0053  0.8653
  963MOL0     C26998   5.231   0.036   5.687 -0.0722  0.2368 -0.6550
  963MOL0     C26999   5.197   0.085   5.832 -0.7071 -0.1049  0.6976
  963MOL0     C27000   5.318   0.161   5.895  0.0552 -0.7724  0.8058
  963MOL0     N27001   5.277   0.221   6.014  0.6074 -0.8092  0.0252
  963MOL0     C27002   5.237   0.163   6.127  1.2376  0.1282  0.1549
  963MOL0     C27003   5.191   0.265   6.201 -0.7939 -0.0414 -0.9272
  963MOL0     C27004   5.139   0.269   6.341  0.3725 -0.2422  0.2064
  963MOL0     C27005   5.034   0.156   6.387  0.5578 -0.5513 -1.0486
  963MOL0     C27006   4.899   0.168   6.321 -0.2163 -0.1069  0.5090
  963MOL0     C27007   4.840   0.039   6.258  0.7175 -0.1064  0.0631
  963MOL0     O27008   4.702   0.073   6.214 -0.6475  0.3088 -0.5221
  963MOL0     C27009   4.617  -0.031   6.167 -0.5172 -0.1243 -0.6059
  963MOL0     C27010   4.638  -0.169   6.158  0.1449 -0.9551  0.2959
  963MOL0     C27011   4.527  -0.255   6.126 -1.0190 -0.1944  0.0991
  963MOL0     C27012   4.396  -0.208   6.099  0.3362  1.2960  0.5563
  963MOL0     C27013   4.274  -0.297   6.071 -0.2403 -0.0740  0.1348
  963MOL0     O27014   4.306  -0.417   6.028  0.6618  0.3413  1.0834
  963MOL0     C27015   4.199  -0.502   5.989 -0.0656  0.4909 -1.2065
  963MOL0     C27016   4.223  -0.574   5.874  1.1420 -0.2017  0.8170
  963MOL0     C27017   4.133  -0.687   5.849 -0.4256  0.2606  1.0676
  963MOL0     C27018   4.020  -0.715   5.919  0.7011 -0.6603 -0.4608
  963MOL0     O27019   3.945  -0.819   5.868  0.0086 -0.5899  0.3323
  963MOL0     C27020   3.823  -0.858   5.945 -0.7358 -0.3261 -0.0086
  963MOL0     C27021   3.754  -0.980   5.893  0.4795  0.0128  0.2262
  963MOL0     C27022   3.629  -1.025   5.973 -0.5295 -0.7458 -0.6230
  963MOL0     C27023   3.562  -1.143   5.895 -0.7798 -0.7660 -0.3968
  963MOL0     C27024   3.427  -1.175   5.941 -0.4516 -1.1975  0.1299
  963MOL0     C27025   3.329  -1.057   5.933 -1.0180 -0.0163 -0.8336
  963MOL0     C27026   3.178  -1.089   5.903  0.1701 -0.2390  0.6279
  963MOL0     C27027   3.112  -1.145   6.025 -0.1499 -0.1433 -0.0728
  963MOL0    Cl27028   3.063  -1.020   6.146  0.4456 -0.2761  0.1971
  963MOL0     C27029   3.997  -0.633   6.032  0.0327  0.3374  0.0681
  963MOL0     C27030   4.079  -0.520   6.061  0.0330  0.5055 -0.1718
  963MOL0     O27031   4.167  -0.244   6.082  0.4420  0.5956  0.5354
  963MOL0     C27032   4.386  -0.073   6.110  0.1789 -0.3445  0.1450
  963MOL0     C27033   4.490   0.011   6.136  0.3565  0.5142  0.5771
  963MOL0     N27034   5.231   0.387   6.140 -0.1678  0.3576 -0.1711
  963MOL0     N27035   5.273   0.357   6.028 -0.3110 -0.3398 -0.1043
  963MOL0     C27036   5.492   0.461   5.130 -0.2321 -0.2020  0.4449
  963MOL0     C27037   5.543   0.572   5.056  0.5140 -0.2558  1.0056
  963MOL0     C27038   5.458   0.914   4.749 -0.1475 -0.2410 -0.2746
  963MOL0     C27039   5.397   0.953   4.627  0.6668  0.8994 -0.8060
  963MOL0     C27040   5.440   1.071   4.564  0.4424 -0.1197  1.1174
  963MOL0     C27041   5.539   1.154   4.617  0.4917  0.2167 -0.4783
  963MOL0     O27042   5.576   1.271   4.556 -0.1233  0.0215  0.3090
  963MOL0     C27043   5.639   1.255   4.425  0.1894 -0.2222 -0.0903
  963MOL0     C27044   5.685   1.388   4.368  0.1983  0.6754  0.3526
  963MOL0     C27045   5.734   1.383   4.231 -1.1000  0.2634  0.5468
  963MOL0     C27046   5.868   1.311   4.226  0.1521  0.1112  0.3092
  963MOL0     C27047   5.918   1.316   4.091 -0.1426  0.1849  0.1589
  963MOL0     C27048   5.956   1.306   3.976 -0.4393  0.1120 -0.1871
  963MOL0     C27049   5.594   1.114   4.745 -0.5302 -0.8267 -0.7733
  963MOL0     C27050   5.571   0.995   4.799  0.3423  1.2151  0.2152
  963MOL0     H27051   5.247   0.744   5.032  0.2973 -0.0290  1.2071
  963MOL0     H27052   5.163   0.568   5.153 -2.1297 -1.2428 -3.4386
  963MOL0     H27053   5.333   0.228   5.086  0.5175 -0.2043 -0.1147
  963MOL0     H27054   5.164   0.262   5.156 -0.0837  1.6659  2.5865
  963MOL0     H27055   5.361   0.068   5.269 -0.3003 -0.5743  0.9908
  963MOL0     H27056   5.220   0.031   5.173  1.3545 -0.2947  0.0877
  963MOL0     H27057   5.081   0.150   5.347  0.6693  0.4291 -1.2471
  963MOL0     H27058   5.226   0.187   5.436  3.1329 -0.6067 -1.3181
  963MOL0     H27059   5.097  -0.082   5.401 -2.1233  1.4648 -0.3844
  963MOL0     H27060   5.271  -0.046   5.469 -0.4528  0.8087  2.1160
  963MOL0     H27061   5.061  -0.083   5.653  0.6085 -0.7963  0.1818
  963MOL0     H27062   5.046   0.092   5.608  1.1827  1.0041 -0.5364
  963MOL0     H27063   5.303   0.106   5.645 -0.4805  2.7128  2.3649
  963MOL0     H27064   5.291  -0.054   5.702  2.3420  1.4401 -2.5628
  963MOL0     H27065   5.104   0.142   5.820 -1.2329 -0.5812  2.2207
  963MOL0     H27066   5.184  -0.006   5.893  0.6779 -2.4428 -2.2198
  963MOL0     H27067   5.351   0.238   5.825 -0.3091 -1.2102  0.1393
  963MOL0     H27068   5.406   0.096   5.906  1.4885  1.0612  0.5811
  963MOL0     H27069   5.233   0.055   6.142 -3.9797  0.0966  0.6580
  963MOL0     H27070   5.090   0.366   6.349  0.0956 -0.4440  1.0070
  963MOL0     H27071   5.223   0.269   6.411  1.0206 -3.1734 -0.4216
  963MOL0     H27072   5.020   0.171   6.495 -2.6512 -0.6799 -1.3410
  963MOL0     H27073   5.092   0.064   6.389  2.4667  0.6044  0.7279
  963MOL0     H27074   4.830   0.210   6.396 -2.2104 -1.3791 -0.5132
  963MOL0     H27075   4.911   0.235   6.236  4.1562 -1.6118 -0.3172
  963MOL0     H27076   4.842  -0.038   6.335 -0.1500 -3.4426 -2.9852
  963MOL0     H27077   4.891   0.008   6.167 -3.1191 -0.3265 -2.2616
  963MOL0     H27078   4.738  -0.210   6.162 -0.2318 -1.8369  0.8597
  963MOL0     H27079   4.553  -0.359   6.111 -2.0006 -0.2255 -1.5329
  963MOL0     H27080   4.310  -0.546   5.817  1.0202  0.3742  0.9059
  963MOL0     H27081   4.166  -0.743   5.762  1.5259  0.7260  1.4604
  963MOL0     H27082   3.756  -0.772   5.939  0.2780  0.4879  0.1899
  963MOL0     H27083   3.847  -0.867   6.052 -0.2650  1.7996  0.0989
  963MOL0     H27084   3.828  -1.060   5.882  0.2033 -0.2305  0.1210
  963MOL0     H27085   3.718  -0.976   5.790 -4.0906 -3.7044  1.3360
  963MOL0     H27086   3.566  -0.938   5.990 -1.9027 -2.1311  2.0626
  963MOL0     H27087   3.659  -1.064   6.071  1.8564  0.3036 -0.8541
  963MOL0     H27088   3.565  -1.118   5.789 -0.4471 -1.3615 -0.5303
  963MOL0     H27089   3.626  -1.231   5.909 -2.3370 -1.8739  0.1060
  963MOL0     H27090   3.429  -1.215   6.043  1.6689 -0.2795  0.5047
  963MOL0     H27091   3.389  -1.255   5.878 -0.0690 -1.2829  0.0058
  963MOL0     H27092   3.367  -0.995   5.851  0.1856  0.5048  0.0863
  963MOL0     H27093   3.345  -0.999   6.024 -1.3878 -1.9604  0.5443
  963MOL0     H27094   3.110  -1.011   5.870 -2.3607 -3.5622 -2.9302
  963MOL0     H27095   3.174  -1.176   5.837 -3.7504 -0.3577  0.7865
  963MOL0     H27096   3.180  -1.208   6.084  0.2541  3.0487  3.2331
  963MOL0     H27097   3.018  -1.194   5.997  1.1344 -2.6409 -0.3583
  963MOL0     H27098   3.908  -0.641   6.094 -2.1794 -3.4856 -3.1250
  963MOL0     H27099   4.066  -0.453   6.144  1.6544 -0.0863  0.6031
  963MOL0     H27100   4.291  -0.024   6.092  0.0641  0.6352  2.9253
  963MOL0     H27101   4.466   0.117   6.146  0.7931  0.6386  0.3378
  963MOL0     H27102   5.566   0.390   5.165  3.4266  1.7890 -2.4809
  963MOL0     H27103   5.647   0.577   5.025  0.0604  1.6225 -0.3682
  963MOL0     H27104   5.312   0.892   4.599  0.9312 -0.6583  1.4617
  963MOL0     H27105   5.411   1.108   4.466  3.5595  1.3681  0.6192
  963MOL0     H27106   5.569   1.210   4.353 -2.8379  2.7067  0.7332
  963MOL0     H27107   5.731   1.198   4.435 -0.2231 -2.0228 -4.3440
  963MOL0     H27108   5.603   1.461   4.376 -1.5486 -1.2767  1.1593
  963MOL0     H27109   5.768   1.410   4.435  1.2983 -2.6742  0.2306
  963MOL0     H27110   5.753   1.481   4.185  3.1630 -1.0535 -0.9945
  963MOL0     H27111   5.659   1.340   4.164 -0.2010  1.9739 -1.7002
  963MOL0     H27112   5.942   1.365   4.286  2.1728 -0.5374 -1.4805
  963MOL0     H27113   5.863   1.210   4.267  3.4443 -0.2961 -0.0669
  963MOL0     H27114   5.974   1.297   3.870  0.1114 -0.9504 -0.0201
  963MOL0     H27115   5.667   1.181   4.788 -0.7683 -0.6519 -0.6378
  963MOL0     H27116   5.631   0.961   4.883  0.0117 -0.9132 -0.3518
  964MOL0     O27117   2.504   2.227   1.989  0.3629  0.3075 -0.4962
  964MOL0     C27118   2.481   2.329   2.059 -0.3079  0.8008  0.0957
  964MOL0     O27119   2.480   2.334   2.195 -0.1398 -0.1369 -0.2449
  964MOL0     C27120   2.572   2.260   2.255  0.5698 -0.0060  0.3942
  964MOL0     C27121   2.700   2.315   2.258  0.4401 -0.3763 -0.0155
  964MOL0     C27122   2.805   2.229   2.285  0.0421 -0.5263  0.8878
  964MOL0     C27123   2.784   2.111   2.344 -0.3752  0.6492 -0.7222
  964MOL0     O27124   2.876   2.040   2.417 -0.2924 -0.2559 -0.4834
  964MOL0     C27125   2.898   2.111   2.539 -0.0305 -0.4513 -0.7047
  964MOL0     C27126   2.909   2.006   2.650 -0.5253 -0.0795  0.0580
  964MOL0     C27127   3.045   1.931   2.643  1.2587  0.0581  0.5486
  964MOL0     C27128   3.040   1.814   2.745 -0.1129 -0.4685  1.3624
  964MOL0     C27129   3.153   1.837   2.848  0.2057 -0.1245 -0.7246
  964MOL0     C27130   3.167   1.719   2.948  0.4069 -0.3115 -0.5364
  964MOL0     C27131   3.278   1.747   3.051  0.5372 -0.1208  0.0766
  964MOL0     C27132   3.307   1.629   3.142  0.0326  0.2182 -0.4671
  964MOL0     N27133   3.391   1.674   3.255  0.8194  0.1944  1.6862
  964MOL0     C27134   3.522   1.636   3.281  0.0617  0.2378 -0.2458
  964MOL0     C27135   3.540   1.671   3.409  0.3571 -0.3116 -0.3870
  964MOL0     C27136   3.666   1.642   3.482  0.4353  0.8679 -0.0653
  964MOL0     C27137   3.662   1.494   3.525  0.1916  0.6507 -0.4506
  964MOL0     C27138   3.776   1.456   3.621 -0.1793  0.6081  0.2716
  964MOL0     C27139   3.915   1.406   3.557 -0.2262 -0.2799  0.2736
  964MOL0     O27140   3.939   1.494   3.446 -0.3924  0.2767  0.0886
  964MOL0     C27141   4.067   1.490   3.386  0.3251  0.3417 -1.3667
  964MOL0     C27142   4.089   1.591   3.289  0.3940  0.5140 -0.5920
  964MOL0     C27143   4.213   1.605   3.226  0.0979  0.3537 -0.3079
  964MOL0     C27144   4.317   1.520   3.255 -0.1249  0.4073  0.4976
  964MOL0     C27145   4.448   1.538   3.199 -0.0686 -0.6698 -0.6142
  964MOL0     O27146   4.468   1.609   3.091  0.9803  0.1333 -0.0673
  964MOL0     C27147   4.595   1.600   3.027 -0.1383 -0.4535 -0.5262
  964MOL0     C27148   4.585   1.619   2.889  0.4277  0.1888  0.2354
  964MOL0     C27149   4.697   1.626   2.803 -0.9448 -0.2211  0.2132
  964MOL0     C27150   4.825   1.616   2.865  0.7554  0.5146 -0.0187
  964MOL0     O27151   4.940   1.643   2.792 -0.4836 -0.0525 -0.5586
  964MOL0     C27152   5.054   1.559   2.820  0.2211  0.8807  1.6062
  964MOL0     C27153   5.132   1.544   2.699 -0.2663  0.2461  0.3853
  964MOL0     C27154   5.055   1.513   2.575 -0.0023  0.3126  0.0885
  964MOL0     C27155   4.964   1.390   2.581  0.1713  0.3035 -0.3730
  964MOL0     C27156   4.930   1.343   2.435  0.7525 -0.0759 -0.6769
  964MOL0     C27157   5.048   1.304   2.349 -1.6709  0.8193 -0.4493
  964MOL0     C27158   4.977   1.225   2.231  0.1454 -0.3392  0.4751
  964MOL0     C27159   5.081   1.175   2.141 -0.6234  0.3312 -0.4262
  964MOL0    Cl27160   4.999   1.088   2.011  0.1618  0.6864 -0.1652
  964MOL0     C27161   4.834   1.596   3.003 -0.0473  0.5167  0.2647
  964MOL0     C27162   4.721   1.596   3.086 -0.1875 -0.6161 -0.0406
  964MOL0     O27163   4.536   1.478   3.264 -0.2557  0.8056  0.1968
  964MOL0     C27164   4.286   1.404   3.339  1.0131 -0.1944  0.2276
  964MOL0     C27165   4.169   1.388   3.415 -0.3788  0.4782 -0.4970
  964MOL0     N27166   3.422   1.727   3.460  0.0665 -0.6233 -0.0527
  964MOL0     N27167   3.340   1.735   3.363 -0.7224  0.1321  0.1616
  964MOL0     C27168   2.654   2.064   2.356 -0.5479 -0.2239  0.3203
  964MOL0     C27169   2.546   2.137   2.310  0.7084 -1.0031 -0.7646
  964MOL0     C27170   2.451   2.460   1.995  0.0300 -0.1123 -0.2208
  964MOL0     C27171   2.456   2.479   1.852  0.2894  0.1586 -0.4941
  964MOL0     C27172   2.432   2.599   1.790 -0.0183  0.0138  0.8572
  964MOL0     C27173   2.419   2.717   1.860 -0.5138 -0.9080 -0.9481
  964MOL0     O27174   2.410   2.839   1.803 -0.9190 -0.5293  0.0112
  964MOL0     C27175   2.387   2.852   1.659  0.4830 -0.0742  0.4400
  964MOL0     C27176   2.387   3.002   1.621  0.4624 -0.0620  0.3909
  964MOL0     C27177   2.250   3.056   1.627  0.3655 -0.4959 -0.8428
  964MOL0     C27178   2.231   3.196   1.585  0.1770  0.6794 -0.1281
  964MOL0     C27179   2.223   3.219   1.437  0.2243 -0.2145 -0.1121
  964MOL0     C27180   2.230   3.235   1.317 -0.3794  0.2215  0.4929
  964MOL0     C27181   2.402   2.702   2.002 -0.3782  0.1548 -0.3963
  964MOL0     C27182   2.427   2.577   2.063  0.0514  1.2644 -0.0117
  964MOL0     H27183   2.731   2.415   2.228 -1.2032 -0.2582 -1.4915
  964MOL0     H27184   2.906   2.267   2.276 -0.2859  0.0893 -0.5445
  964MOL0     H27185   2.812   2.174   2.564 -0.4826 -0.9295 -1.0214
  964MOL0     H27186   2.982   2.181   2.537 -0.8882  0.7221  1.1068
  964MOL0     H27187   2.824   1.942   2.627 -1.2714  0.4455  1.2686
  964MOL0     H27188   2.895   2.049   2.750 -2.0067  0.6040 -0.4077
  964MOL0     H27189   3.123   2.006   2.658  0.4386  1.5734 -2.0974
  964MOL0     H27190   3.059   1.897   2.540  0.2446  0.7426  0.1659
  964MOL0     H27191   2.944   1.799   2.794 -1.2397 -1.7537 -1.0964
  964MOL0     H27192   3.061   1.728   2.681  1.0862  0.3046  0.6797
  964MOL0     H27193   3.129   1.931   2.899  0.8171  2.7529 -5.1618
  964MOL0     H27194   3.255   1.857   2.814  0.3299 -0.4907 -0.5637
  964MOL0     H27195   3.207   1.635   2.891  2.9937 -0.4159  1.3018
  964MOL0     H27196   3.074   1.703   3.004  0.1246  0.5286 -0.7354
  964MOL0     H27197   3.369   1.786   3.006  1.4251 -1.0009  1.0601
  964MOL0     H27198   3.232   1.824   3.113 -2.2075 -1.0570 -0.6405
  964MOL0     H27199   3.345   1.535   3.101 -0.7177  0.6403 -2.2276
  964MOL0     H27200   3.218   1.595   3.196  1.6512 -3.6111  0.1044
  964MOL0     H27201   3.596   1.586   3.220  1.9614  1.2358  1.1348
  964MOL0     H27202   3.664   1.708   3.568 -0.1468  1.4124 -0.4840
  964MOL0     H27203   3.757   1.659   3.425  1.4412 -1.2752  0.8040
  964MOL0     H27204   3.648   1.425   3.442 -0.9811 -2.0974  1.8630
  964MOL0     H27205   3.574   1.493   3.590  1.4367  1.1210  1.3337
  964MOL0     H27206   3.790   1.544   3.683  0.5431  2.1065 -1.9079
  964MOL0     H27207   3.736   1.377   3.686  1.8707 -2.0927 -1.5146
  964MOL0     H27208   3.910   1.300   3.533 -1.6030 -0.0910 -0.4120
  964MOL0     H27209   4.000   1.418   3.625  0.2005  1.6090 -0.5234
  964MOL0     H27210   4.015   1.663   3.257  0.2095  2.0613  2.8743
  964MOL0     H27211   4.226   1.688   3.156  0.8628  1.6021  1.2534
  964MOL0     H27212   4.487   1.633   2.843  0.1015 -4.8653 -1.1596
  964MOL0     H27213   4.692   1.634   2.695 -0.8511  2.0122  0.3131
  964MOL0     H27214   5.015   1.461   2.848 -0.8150  0.7702 -0.1030
  964MOL0     H27215   5.122   1.593   2.899 -0.0352  2.8180  1.0522
  964MOL0     H27216   5.207   1.466   2.710 -0.7149 -0.0817  1.2011
  964MOL0     H27217   5.188   1.636   2.678 -0.6810  0.6314  0.9217
  964MOL0     H27218   5.124   1.490   2.493 -1.8059 -3.7443 -0.5642
  964MOL0     H27219   5.004   1.607   2.553 -1.8544  0.5026  4.2737
  964MOL0     H27220   5.016   1.304   2.624  1.2320  0.7553 -0.7225
  964MOL0     H27221   4.880   1.413   2.646 -0.8993 -1.3468 -1.1066
  964MOL0     H27222   4.874   1.426   2.391  0.9477  1.8838  2.4476
  964MOL0     H27223   4.863   1.259   2.453 -0.7717  1.4070  1.0483
  964MOL0     H27224   5.114   1.247   2.415 -0.2244  5.7121  2.8356
  964MOL0     H27225   5.100   1.386   2.301 -0.6652 -0.4171 -1.5398
  964MOL0     H27226   4.928   1.135   2.271 -1.5960 -0.2880 -1.4031
  964MOL0     H27227   4.908   1.291   2.178 -1.2305 -0.2782  2.2367
  964MOL0     H27228   5.153   1.115   2.197  0.4216  3.3924  1.7746
  964MOL0     H27229   5.119   1.267   2.096  1.9685 -0.2880  0.3506
  964MOL0     H27230   4.936   1.600   3.039 -0.2489 -0.0620  0.9157
  964MOL0     H27231   4.720   1.599   3.194  0.0901  2.7979 -0.0360
  964MOL0     H27232   4.363   1.329   3.350  1.3494 -0.6882 -3.9242
  964MOL0     H27233   4.157   1.300   3.477  1.6772  2.4122  2.8852
  964MOL0     H27234   2.642   1.971   2.410 -0.2387 -1.2269 -1.2656
  964MOL0     H27235   2.440   2.113   2.304  0.3046 -0.1342  1.8465
  964MOL0     H27236   2.480   2.393   1.790 -2.5447 -0.9931 -0.1187
  964MOL0     H27237   2.424   2.609   1.682  2.3797  2.1554  0.7902
  964MOL0     H27238   2.304   2.790   1.623  1.6846 -1.6750  0.3178
  964MOL0     H27239   2.465   2.806   1.598  0.1518 -0.1702  0.0825
  964MOL0     H27240   2.459   3.059   1.680  0.9594  0.0456 -0.3013
  964MOL0     H27241   2.436   3.012   1.524  1.3052  4.0231  1.0646
  964MOL0     H27242   2.210   3.040   1.727 -1.3035 -1.5901 -1.6342
  964MOL0     H27243   2.185   2.985   1.575 -0.8910 -0.7876  1.0419
  964MOL0     H27244   2.131   3.227   1.618 -0.3347  1.0271 -1.8749
  964MOL0     H27245   2.289   3.263   1.648 -2.1785  2.1431  0.6257
  964MOL0     H27246   2.226   3.256   1.212  2.0989  3.6899  0.9215
  964MOL0     H27247   2.384   2.792   2.059 -1.5612  0.1441 -0.7144
  964MOL0     H27248   2.437   2.565   2.171  0.2752  2.9357  0.1743
  965MOL0     O27249   3.624   8.095   4.592 -0.9767 -0.2536  0.9330
  965MOL0     C27250   3.559   8.198   4.575  0.3394  0.6833  0.1651
  965MOL0     O27251   3.529   8.285   4.665  0.4936  0.3086 -0.3136
  965MOL0     C27252   3.612   8.316   4.765  0.6570  0.2063  0.0860
  965MOL0     C27253   3.713   8.244   4.833 -0.3200 -0.2094 -0.2067
  965MOL0     C27254   3.793   8.297   4.931 -0.5196 -0.4657 -0.4227
  965MOL0     C27255   3.780   8.434   4.967 -0.1472 -0.0479 -0.4026
  965MOL0     O27256   3.861   8.472   5.070 -0.9121  0.0230 -0.0324
  965MOL0     C27257   3.870   8.624   5.105 -0.2101  0.6408 -0.0376
  965MOL0     C27258   3.965   8.677   5.213 -0.7763  0.2742  0.3577
  965MOL0     C27259   3.948   8.821   5.230  0.0045  0.1825 -0.7529
  965MOL0     C27260   4.038   8.900   5.314 -1.0604  0.6341 -0.4952
  965MOL0     C27261   4.003   9.048   5.307  0.4499  0.0218 -0.7734
  965MOL0     C27262   4.079   9.145   5.399  0.7860 -0.0923  0.0220
  965MOL0     C27263   4.084   9.293   5.359  0.4146  0.8101 -0.6189
  965MOL0     C27264   3.944   9.356   5.389 -0.0233  0.2505 -0.7918
  965MOL0     N27265   3.943   9.474   5.308  0.1480 -1.0960  1.0603
  965MOL0     C27266   3.847   9.498   5.219 -0.2949 -0.3096 -0.6510
  965MOL0     C27267   3.871   9.618   5.160  0.0476 -0.1160 -0.2697
  965MOL0     C27268   3.777   9.675   5.053  0.3106  0.1155 -0.3634
  965MOL0     C27269   3.691   9.789   5.104  0.5386 -0.2212 -0.5419
  965MOL0     C27270   3.592   9.844   5.003 -0.1433 -1.1233  0.6831
  965MOL0     C27271   3.523   9.733   4.916  0.2060  0.0208  0.1280
  965MOL0     O27272   3.483   9.628   4.997  0.7263 -0.3982  0.2456
  965MOL0     C27273   3.367   9.631   5.066  0.3749  1.1131 -0.2956
  965MOL0     C27274   3.266   9.725   5.065  1.5625 -0.9562 -0.1683
  965MOL0     C27275   3.146   9.708   5.138  0.0742 -0.3351 -0.2088
  965MOL0     C27276   3.111   9.586   5.204  0.6601 -0.8266 -1.1864
  965MOL0     C27277   2.976   9.569   5.264  0.2258 -0.2374 -0.4336
  965MOL0     O27278   2.951   9.449   5.320  0.2603  0.6254 -0.1750
  965MOL0     C27279   2.821   9.412   5.342  0.0663 -1.2606  0.1003
  965MOL0     C27280   2.749   9.341   5.241  0.0809  0.1904 -0.7547
  965MOL0     C27281   2.611   9.310   5.267 -0.8424 -1.6018 -0.0121
  965MOL0     C27282   2.544   9.344   5.382 -0.0911 -0.9044 -0.5385
  965MOL0     O27283   2.419   9.309   5.420 -0.3731 -0.4590  0.6959
  965MOL0     C27284   2.319   9.317   5.319 -0.3448  0.3352  0.1376
  965MOL0     C27285   2.303   9.174   5.243  0.6212  0.5862 -0.7459
  965MOL0     C27286   2.156   9.154   5.198 -0.4993 -0.4008  0.0332
  965MOL0     C27287   2.139   9.024   5.141  0.2034  0.0894  0.9941
  965MOL0     C27288   1.986   8.981   5.143  0.3594  0.5966 -1.0173
  965MOL0     C27289   1.979   8.827   5.129 -0.3632  0.3673  0.1452
  965MOL0     C27290   1.834   8.778   5.136 -0.0021 -0.6524 -0.5292
  965MOL0     C27291   1.813   8.626   5.100 -0.3011 -0.1234 -0.2739
  965MOL0    Cl27292   1.653   8.570   5.152  0.2794 -0.0746 -0.1549
  965MOL0     C27293   2.615   9.414   5.483 -0.6329  0.5754 -0.0988
  965MOL0     C27294   2.752   9.448   5.462  0.0329 -0.2270  0.8584
  965MOL0     O27295   2.909   9.671   5.261 -0.3181 -0.1284  0.3278
  965MOL0     C27296   3.209   9.484   5.196  0.1912  0.0978  0.5460
  965MOL0     C27297   3.336   9.504   5.131  0.3144 -0.1764 -0.9439
  965MOL0     N27298   3.987   9.671   5.221  0.6436 -0.5232 -0.4063
  965MOL0     N27299   4.036   9.578   5.295  0.9335 -0.3153  0.4625
  965MOL0     C27300   3.681   8.504   4.904 -0.0638  0.8644 -0.5762
  965MOL0     C27301   3.600   8.448   4.813  0.8193 -0.0358  0.0032
  965MOL0     C27302   3.500   8.212   4.440 -0.6594  0.4260  0.1790
  965MOL0     C27303   3.505   8.108   4.334  0.2564  0.5963 -1.3535
  965MOL0     C27304   3.448   8.134   4.211 -0.1336 -0.6807  0.6476
  965MOL0     C27305   3.390   8.253   4.177  0.9147  0.1440 -1.2995
  965MOL0     O27306   3.330   8.257   4.057  0.0844 -0.0927 -0.9319
  965MOL0     C27307   3.224   8.357   4.033  0.1715  1.1358 -0.4338
  965MOL0     C27308   3.084   8.319   4.080  0.0178 -0.0114  0.2588
  965MOL0     C27309   2.981   8.382   3.986  0.8015 -0.5949  0.5302
  965MOL0     C27310   2.948   8.526   4.011  0.4266 -0.1962  0.0404
  965MOL0     C27311   3.063   8.618   4.013  0.6506 -0.1745  0.3952
  965MOL0     C27312   3.151   8.700   3.997 -0.1358  0.9166  0.9740
  965MOL0     C27313   3.387   8.351   4.279 -0.2902  0.2666  0.1186
  965MOL0     C27314   3.441   8.338   4.404  0.8057  0.3792  0.0211
  965MOL0     H27315   3.726   8.140   4.805 -2.6779 -0.2263 -1.4823
  965MOL0     H27316   3.852   8.229   4.990 -0.4931 -0.3995 -0.3726
  965MOL0     H27317   3.776   8.650   5.156 -0.3602  0.6598 -0.3262
  965MOL0     H27318   3.893   8.672   5.010  3.1236 -0.7207 -0.0603
  965MOL0     H27319   4.064   8.658   5.171 -1.5485 -1.7207 -0.6611
  965MOL0     H27320   3.956   8.622   5.307  1.8697 -0.8065  0.0578
  965MOL0     H27321   3.849   8.834   5.275 -2.5583 -0.5361 -5.5234
  965MOL0     H27322   3.932   8.870   5.133  1.7572 -0.1080 -1.2243
  965MOL0     H27323   4.017   8.867   5.416 -1.4310  0.5542 -0.5963
  965MOL0     H27324   4.140   8.878   5.281 -1.3751  1.0651 -1.8075
  965MOL0     H27325   3.894   9.053   5.308  0.2542 -2.8093  0.9936
  965MOL0     H27326   4.017   9.078   5.203 -0.5554 -0.3110 -1.0137
  965MOL0     H27327   4.179   9.103   5.406  0.7286 -0.8565 -2.5399
  965MOL0     H27328   4.039   9.130   5.500 -2.0200  0.0563 -0.9771
  965MOL0     H27329   4.159   9.354   5.410  0.5979 -1.9615  2.8101
  965MOL0     H27330   4.112   9.297   5.254  1.9011 -0.4792 -0.3239
  965MOL0     H27331   3.940   9.394   5.491  0.1051  1.4947 -1.2305
  965MOL0     H27332   3.856   9.291   5.381  2.2659 -3.3889  1.3112
  965MOL0     H27333   3.753   9.444   5.211  0.9645 -3.0476  1.4428
  965MOL0     H27334   3.727   9.582   5.025 -0.2991 -0.2428  1.7637
  965MOL0     H27335   3.826   9.707   4.960 -0.3426  0.4172 -0.6087
  965MOL0     H27336   3.759   9.868   5.137 -1.7874  1.3792  0.7251
  965MOL0     H27337   3.630   9.747   5.185 -1.0537 -0.2547 -1.7259
  965MOL0     H27338   3.512   9.900   5.051  2.3692  0.9112  2.7936
  965MOL0     H27339   3.649   9.914   4.941 -2.0568  1.4426  1.6342
  965MOL0     H27340   3.588   9.692   4.838 -1.1863  0.3666 -1.2875
  965MOL0     H27341   3.435   9.774   4.865 -1.5169 -1.0836  2.0598
  965MOL0     H27342   3.287   9.825   5.029  0.6928 -0.3122  1.0641
  965MOL0     H27343   3.070   9.784   5.133 -1.3428 -1.0042  4.9613
  965MOL0     H27344   2.817   9.303   5.166  0.3603  1.2887 -1.0662
  965MOL0     H27345   2.562   9.246   5.194 -2.0888 -3.7299  2.5281
  965MOL0     H27346   2.334   9.401   5.251  0.4925 -0.2587 -0.4299
  965MOL0     H27347   2.227   9.348   5.369 -2.2416 -4.5090  0.1403
  965MOL0     H27348   2.326   9.089   5.308  4.4366  1.1682 -1.1104
  965MOL0     H27349   2.381   9.166   5.167  0.8415 -0.1036 -0.4572
  965MOL0     H27350   2.133   9.236   5.129 -1.0727  0.5173  1.2747
  965MOL0     H27351   2.103   9.149   5.293  2.2418 -2.6438  1.5737
  965MOL0     H27352   2.178   9.023   5.038 -1.3951 -0.4064  0.3547
  965MOL0     H27353   2.187   8.944   5.198 -3.2044 -2.6845  0.3596
  965MOL0     H27354   1.945   9.035   5.057  1.6614  1.5969 -1.0519
  965MOL0     H27355   1.940   9.007   5.239 -1.2835 -2.5117 -0.8590
  965MOL0     H27356   2.048   8.772   5.194  0.8883 -1.1127 -2.2768
  965MOL0     H27357   2.028   8.797   5.036  1.7629  2.2550  0.5681
  965MOL0     H27358   1.798   8.791   5.239 -1.0059  2.8042 -1.1834
  965MOL0     H27359   1.765   8.839   5.077 -0.4127  0.9070  1.4467
  965MOL0     H27360   1.884   8.560   5.152  1.8718  2.2787  0.0484
  965MOL0     H27361   1.830   8.618   4.992 -3.0331 -1.2572 -0.6896
  965MOL0     H27362   2.562   9.448   5.572  1.9703  1.1892  1.3359
  965MOL0     H27363   2.801   9.517   5.530  0.2246  2.1083 -1.4837
  965MOL0     H27364   3.190   9.392   5.250 -0.8486  0.0068  0.0511
  965MOL0     H27365   3.423   9.441   5.144  0.0806 -0.9215 -2.6402
  965MOL0     H27366   3.678   8.607   4.940 -1.3001  0.4245  0.6843
  965MOL0     H27367   3.530   8.519   4.770  2.2807  1.6436  0.2780
  965MOL0     H27368   3.548   8.008   4.342 -0.1380  0.3851 -1.8372
  965MOL0     H27369   3.442   8.056   4.135  1.2722 -0.9692  0.8139
  965MOL0     H27370   3.223   8.361   3.924 -2.8990 -1.5042 -0.6416
  965MOL0     H27371   3.243   8.454   4.081 -0.7201  0.9958  0.2198
  965MOL0     H27372   3.078   8.210   4.081  0.1753 -0.0211  0.2545
  965MOL0     H27373   3.075   8.363   4.180 -0.4061  0.2683  0.0981
  965MOL0     H27374   2.886   8.335   4.009  1.3082 -0.6193  2.7891
  965MOL0     H27375   2.990   8.352   3.881 -0.0780  0.5676  0.0946
  965MOL0     H27376   2.875   8.554   3.935  0.7183  0.2012 -0.0947
  965MOL0     H27377   2.888   8.544   4.102  0.8435 -0.1806  0.3146
  965MOL0     H27378   3.247   8.747   3.992 -0.3173  1.1713 -0.3092
  965MOL0     H27379   3.353   8.444   4.234 -1.9604  1.1925  3.0609
  965MOL0     H27380   3.443   8.422   4.473  2.2705 -0.1955  0.7141
  966MOL0     O27381  11.021   0.456   9.673  0.8936  0.0637  0.6049
  966MOL0     C27382  11.121   0.446   9.607  0.7969 -0.5057 -0.1231
  966MOL0     O27383  11.130   0.491   9.476 -0.0072  0.3096 -0.2624
  966MOL0     C27384  11.017   0.524   9.404 -0.2336 -0.4140  0.2371
  966MOL0     C27385  11.003   0.465   9.279 -0.0825  0.2080  0.0960
  966MOL0     C27386  10.882   0.500   9.210  0.2107 -0.4194  1.0688
  966MOL0     C27387  10.785   0.586   9.262  0.6978  0.4466  0.4846
  966MOL0     O27388  10.671   0.603   9.202 -0.0170 -0.6384  0.1261
  966MOL0     C27389  10.561   0.507   9.229  0.1911  0.2408 -1.1865
  966MOL0     C27390  10.473   0.547   9.350 -0.3920 -0.0710 -0.3845
  966MOL0     C27391  10.481   0.438   9.457  0.1611 -0.0847  0.5126
  966MOL0     C27392  10.615   0.420   9.525  0.1995 -0.3215  1.0395
  966MOL0     C27393  10.616   0.322   9.638 -1.0582 -0.5739 -0.6534
  966MOL0     C27394  10.591   0.183   9.586 -0.0417  0.4350 -0.4804
  966MOL0     C27395  10.623   0.083   9.698  0.6846 -0.0640  0.2752
  966MOL0     C27396  10.538   0.095   9.828  0.5769 -0.7073 -0.0615
  966MOL0     N27397  10.582  -0.005   9.929 -0.5531 -0.1918 -0.0912
  966MOL0     C27398  10.634   0.023  10.051 -0.0204  0.4794 -0.6358
  966MOL0     C27399  10.690  -0.087  10.100 -0.1694 -0.3394  0.2994
  966MOL0     C27400  10.745  -0.099  10.234 -0.0219  0.3691  0.3782
  966MOL0     C27401  10.637  -0.123  10.342 -0.4340 -0.4321 -0.0619
  966MOL0     C27402  10.700  -0.179  10.470 -0.8118 -0.6713 -0.7117
  966MOL0     C27403  10.787  -0.072  10.536  0.1431  1.1247 -0.5604
  966MOL0     O27404  10.925  -0.090  10.513 -0.3233 -0.4447  0.0931
  966MOL0     C27405  11.003   0.019  10.525  0.2702  0.3167 -0.7815
  966MOL0     C27406  10.972   0.132  10.597 -0.6337 -0.6233  0.0681
  966MOL0     C27407  11.057   0.240  10.585  0.4642  0.2522 -0.3153
  966MOL0     C27408  11.182   0.237  10.517 -0.7713  0.4905  0.0931
  966MOL0     C27409  11.262   0.349  10.493 -0.0319  0.2521 -0.9661
  966MOL0     O27410  11.393   0.316  10.464 -0.2754 -0.6827  0.4710
  966MOL0     C27411  11.470   0.416  10.411 -1.1245 -0.0676 -0.0068
  966MOL0     C27412  11.425   0.509  10.316  0.1527  0.1130  0.2422
  966MOL0     C27413  11.515   0.602  10.266 -0.1240  0.3333 -0.1234
  966MOL0     C27414  11.651   0.603  10.316 -0.6100 -0.3970 -0.1752
  966MOL0     O27415  11.749   0.687  10.260 -0.2176 -0.0959  0.0331
  966MOL0     C27416  11.706   0.815  10.203 -0.7756  0.4808 -0.6107
  966MOL0     C27417  11.821   0.895  10.143  0.0634  0.3224  0.7999
  966MOL0     C27418  11.759   1.029  10.091  0.0752 -0.0345  0.1428
  966MOL0     C27419  11.818   1.149  10.178  0.1367 -0.2394  0.9170
  966MOL0     C27420  11.763   1.284  10.119 -0.4994 -0.0425 -0.2761
  966MOL0     C27421  11.810   1.396  10.222 -0.1000  0.0910  1.0842
  966MOL0     C27422  11.788   1.537  10.163  0.9657 -0.0943 -0.2089
  966MOL0     C27423  11.793   1.655  10.264  0.2812  0.4473 -0.0444
  966MOL0    Cl27424  11.789   1.793  10.170 -0.1572  0.2870 -0.5271
  966MOL0     C27425  11.690   0.517  10.423 -0.4461  0.1958  0.0119
  966MOL0     C27426  11.599   0.421  10.463 -0.3263  0.1569 -0.0163
  966MOL0     O27427  11.218   0.460  10.510  0.1033 -0.4195  0.4707
  966MOL0     C27428  11.215   0.120  10.459 -1.3073 -0.2216  0.1222
  966MOL0     C27429  11.130   0.011  10.465 -0.1955 -0.5157 -0.2113
  966MOL0     N27430  10.665  -0.193  10.004 -0.1522 -0.2195  0.2373
  966MOL0     N27431  10.604  -0.137   9.898 -0.4660  1.0072 -0.1253
  966MOL0     C27432  10.800   0.650   9.377  0.0097 -0.0309 -0.7020
  966MOL0     C27433  10.925   0.625   9.454  0.5663  0.3325  0.0749
  966MOL0     C27434  11.245   0.424   9.684 -0.4863  0.1570 -0.4307
  966MOL0     C27435  11.363   0.403   9.613 -0.2165 -0.3999 -0.6003
  966MOL0     C27436  11.479   0.378   9.680 -0.3889 -0.8723  0.3961
  966MOL0     C27437  11.477   0.366   9.822  0.3375  0.1084  0.4792
  966MOL0     O27438  11.595   0.339   9.880  0.1230 -1.1512  0.0551
  966MOL0     C27439  11.629   0.433   9.984  0.2493  0.5437 -0.3405
  966MOL0     C27440  11.780   0.429  10.002  0.5049 -0.3303  1.1950
  966MOL0     C27441  11.827   0.289  10.036  0.7888 -0.3879 -0.8356
  966MOL0     C27442  11.940   0.272  10.146 -0.3454 -0.1991 -0.4364
  966MOL0     C27443  12.072   0.312  10.090 -0.2274 -0.3075  1.0123
  966MOL0     C27444  12.184   0.357  10.057  0.4392  1.9877 -0.0172
  966MOL0     C27445  11.364   0.401   9.896  0.5662 -0.0791 -0.0650
  966MOL0     C27446  11.250   0.431   9.828  0.7896 -0.1525  0.0345
  966MOL0     H27447  11.070   0.389   9.239 -0.8243 -0.3706 -0.0593
  966MOL0     H27448  10.862   0.449   9.116 -0.8723  3.2230 -0.8864
  966MOL0     H27449  10.594   0.403   9.233  2.1115  0.8493  2.0194
  966MOL0     H27450  10.500   0.509   9.138 -0.8759  0.1732 -0.4962
  966MOL0     H27451  10.371   0.575   9.320 -0.0280  2.0355  0.1562
  966MOL0     H27452  10.514   0.641   9.390 -0.3525 -0.3427  0.2215
  966MOL0     H27453  10.443   0.341   9.423  2.0774 -0.4504 -0.7696
  966MOL0     H27454  10.423   0.468   9.545 -0.3180  1.6133 -0.3450
  966MOL0     H27455  10.691   0.396   9.451  1.5780  2.2445  1.5125
  966MOL0     H27456  10.645   0.517   9.566 -2.4364  1.5662 -1.1323
  966MOL0     H27457  10.544   0.359   9.711 -1.6450 -1.1494 -0.9304
  966MOL0     H27458  10.714   0.322   9.687 -1.6078 -1.9771  0.5421
  966MOL0     H27459  10.640   0.155   9.492 -0.1034  1.6048 -0.8712
  966MOL0     H27460  10.482   0.190   9.576  0.1357  2.9405 -1.3761
  966MOL0     H27461  10.610  -0.014   9.648 -0.8651  0.0391  0.4402
  966MOL0     H27462  10.728   0.098   9.726  0.9780 -1.9140  0.3286
  966MOL0     H27463  10.429   0.091   9.820 -0.1279  1.6645  4.7031
  966MOL0     H27464  10.551   0.199   9.861  0.0158 -0.0029 -1.9207
  966MOL0     H27465  10.640   0.122  10.094 -2.5581 -0.8916  3.3994
  966MOL0     H27466  10.801  -0.010  10.264 -1.5178  1.1894  0.8095
  966MOL0     H27467  10.824  -0.175  10.243  0.3920  1.0218  3.5061
  966MOL0     H27468  10.561  -0.198  10.318 -0.0132 -1.3718  1.4166
  966MOL0     H27469  10.592  -0.025  10.355  0.4261  0.0336 -0.4570
  966MOL0     H27470  10.610  -0.182  10.533 -0.3406 -0.4664 -0.0114
  966MOL0     H27471  10.747  -0.276  10.453  0.6015  0.0014 -0.7233
  966MOL0     H27472  10.786  -0.078  10.645  2.0984  2.1284 -0.4332
  966MOL0     H27473  10.744   0.027  10.515 -0.3993  1.0664  0.2324
  966MOL0     H27474  10.884   0.131  10.660 -0.8002 -1.7507 -0.1699
  966MOL0     H27475  11.028   0.331  10.636  0.6114  0.4106 -0.5133
  966MOL0     H27476  11.341   0.497  10.249  0.1319  0.1269  0.2660
  966MOL0     H27477  11.498   0.652  10.171  0.8686 -0.9920 -1.0404
  966MOL0     H27478  11.667   0.870  10.288  1.6388  2.1103 -0.4465
  966MOL0     H27479  11.637   0.795  10.121  1.1489  1.1239 -2.4822
  966MOL0     H27480  11.859   0.837  10.058 -3.5078 -0.2364 -0.5900
  966MOL0     H27481  11.892   0.904  10.225 -1.7380 -0.2855  2.5121
  966MOL0     H27482  11.651   1.038  10.102  0.1464  0.5894  0.3783
  966MOL0     H27483  11.784   1.044   9.986 -3.3690 -1.4358 -0.9984
  966MOL0     H27484  11.781   1.131  10.279 -3.0841 -1.6315 -0.3818
  966MOL0     H27485  11.927   1.155  10.192 -0.3163  3.2186  5.0719
  966MOL0     H27486  11.656   1.283  10.095 -0.6447 -0.0557  0.3620
  966MOL0     H27487  11.806   1.284  10.018  1.6950  2.4969  0.5409
  966MOL0     H27488  11.919   1.399  10.232  0.2948  0.6785 -2.2570
  966MOL0     H27489  11.764   1.384  10.320 -0.4868  0.6106  0.9666
  966MOL0     H27490  11.866   1.554  10.089  4.2729  1.1781  3.2250
  966MOL0     H27491  11.702   1.540  10.096  0.2644  2.6189  0.7105
  966MOL0     H27492  11.888   1.661  10.317  0.4535  1.1822 -0.4290
  966MOL0     H27493  11.718   1.639  10.342  2.3207 -0.9456  1.7722
  966MOL0     H27494  11.795   0.506  10.446 -0.5380  0.7730  0.7728
  966MOL0     H27495  11.643   0.354  10.536  1.3907  1.6257  0.3766
  966MOL0     H27496  11.299   0.101  10.393 -0.4563  1.1994  0.7530
  966MOL0     H27497  11.162  -0.078  10.412  1.1365 -1.0712  1.4310
  966MOL0     H27498  10.731   0.727   9.409 -1.3620 -1.3115 -0.5071
  966MOL0     H27499  10.936   0.674   9.550  1.3635  1.6833 -0.6861
  966MOL0     H27500  11.360   0.404   9.505 -2.7756  1.1109 -0.5935
  966MOL0     H27501  11.567   0.354   9.623  0.2590 -0.5319  1.2362
  966MOL0     H27502  11.581   0.394  10.074  0.7336 -1.8083 -1.0200
  966MOL0     H27503  11.590   0.530   9.953 -0.0968  0.1066 -1.3042
  966MOL0     H27504  11.813   0.458   9.902  2.4163  0.3795  1.9859
  966MOL0     H27505  11.830   0.509  10.058  2.8955 -2.0256  1.6509
  966MOL0     H27506  11.865   0.243   9.945  0.1050 -0.4132 -1.1171
  966MOL0     H27507  11.739   0.229  10.063 -0.0650  0.3876 -1.8397
  966MOL0     H27508  11.924   0.344  10.226 -0.4833 -0.2984 -0.3747
  966MOL0     H27509  11.942   0.173  10.194  3.0464  0.0855  0.2740
  966MOL0     H27510  12.276   0.404  10.031  1.1868  0.6724  0.1371
  966MOL0     H27511  11.378   0.402  10.004  3.1618 -0.1284 -0.3255
  966MOL0     H27512  11.163   0.444   9.892  2.1315 -0.8681  2.1372
  967MOL0     O27513   0.771   1.174   8.694 -0.0898 -0.3123 -1.0787
  967MOL0     C27514   0.820   1.281   8.661 -0.3546  0.5182 -0.3329
  967MOL0     O27515   0.957   1.311   8.669  0.0637 -0.3767  0.5754
  967MOL0     C27516   1.042   1.204   8.693 -0.5750  0.2146 -0.1304
  967MOL0     C27517   1.145   1.182   8.605  0.1399  0.2439  0.1133
  967MOL0     C27518   1.235   1.071   8.621  0.5158 -0.2419  0.3116
  967MOL0     C27519   1.215   0.978   8.720 -0.5406 -0.0795 -1.5032
  967MOL0     O27520   1.306   0.878   8.736  0.0021  0.8386  1.0262
  967MOL0     C27521   1.390   0.883   8.839  0.6216  0.1301 -0.3981
  967MOL0     C27522   1.501   0.784   8.802  0.7631  0.3717 -0.3233
  967MOL0     C27523   1.590   0.844   8.696  0.5737  0.0404 -0.4550
  967MOL0     C27524   1.698   0.740   8.643  1.0854 -0.9499  0.3324
  967MOL0     C27525   1.780   0.794   8.526 -0.7953 -0.2297  0.3576
  967MOL0     C27526   1.902   0.692   8.491 -0.1308 -0.5960  0.5013
  967MOL0     C27527   2.037   0.676   8.571 -0.0818  0.2363 -0.2262
  967MOL0     C27528   2.035   0.603   8.699  0.1328  0.5641  0.0564
  967MOL0     N27529   2.178   0.593   8.733  0.1737  0.4752  0.6665
  967MOL0     C27530   2.267   0.693   8.762  0.3217  0.0188 -0.7362
  967MOL0     C27531   2.380   0.623   8.797 -0.7020 -0.9517  0.1808
  967MOL0     C27532   2.492   0.709   8.848 -0.1175 -0.1112 -0.1767
  967MOL0     C27533   2.630   0.635   8.847  0.4590 -0.7529  0.2008
  967MOL0     C27534   2.738   0.714   8.914 -0.5284 -0.3380 -0.7105
  967MOL0     C27535   2.879   0.644   8.890 -0.0158 -0.2037  0.2129
  967MOL0     O27536   2.996   0.710   8.947  0.6978  0.0459 -0.1504
  967MOL0     C27537   3.119   0.684   8.909 -0.1949  0.5228 -1.0632
  967MOL0     C27538   3.152   0.607   8.797 -0.2150  0.9804 -0.5406
  967MOL0     C27539   3.282   0.598   8.751 -0.6071  0.0496  0.3183
  967MOL0     C27540   3.384   0.666   8.816  0.6808 -0.3592 -0.4760
  967MOL0     C27541   3.520   0.649   8.773 -0.2216 -0.4000  0.0031
  967MOL0     O27542   3.551   0.530   8.706  0.0158 -0.0407  0.2965
  967MOL0     C27543   3.673   0.498   8.653 -0.1800  1.4757 -0.0148
  967MOL0     C27544   3.675   0.376   8.589  0.1792  0.4668  0.2304
  967MOL0     C27545   3.793   0.328   8.537  0.4991  1.0022  0.5441
  967MOL0     C27546   3.916   0.400   8.553  1.6572  0.2668 -0.5913
  967MOL0     O27547   4.020   0.323   8.516 -0.0291  0.1741 -0.6848
  967MOL0     C27548   4.096   0.373   8.407  0.3587 -1.1564  0.6142
  967MOL0     C27549   4.028   0.340   8.278 -0.9749 -0.4073  0.3962
  967MOL0     C27550   4.025   0.182   8.264  0.8322  0.3867  0.6342
  967MOL0     C27551   4.030   0.125   8.116  0.3748 -0.8416 -0.1138
  967MOL0     C27552   4.178   0.089   8.068  0.9500  0.0912  0.6458
  967MOL0     C27553   4.174   0.041   7.918 -0.1521 -0.1498 -0.1222
  967MOL0     C27554   4.317  -0.014   7.886  0.2004  0.4112 -0.1165
  967MOL0     C27555   4.377   0.010   7.748 -0.8115 -1.2669  0.8749
  967MOL0    Cl27556   4.545  -0.049   7.750  0.1569  0.0499  0.0876
  967MOL0     C27557   3.923   0.520   8.625  0.3661  0.6444  0.7388
  967MOL0     C27558   3.798   0.556   8.680 -1.2382 -0.4899 -0.5917
  967MOL0     O27559   3.590   0.749   8.797 -0.3007  0.5625 -0.5233
  967MOL0     C27560   3.354   0.744   8.936  0.0118  0.2170  0.7160
  967MOL0     C27561   3.224   0.755   8.972 -0.6073  0.0147 -0.1732
  967MOL0     N27562   2.357   0.487   8.775 -0.3765  0.2830 -0.4830
  967MOL0     N27563   2.236   0.469   8.746 -0.1271  0.6560 -0.7281
  967MOL0     C27564   1.115   1.003   8.813 -0.0089  0.1060 -0.3711
  967MOL0     C27565   1.028   1.109   8.794  1.1155  0.3358 -0.4135
  967MOL0     C27566   0.736   1.398   8.627 -0.0967  0.1474  0.4191
  967MOL0     C27567   0.787   1.527   8.633 -0.0326 -0.0480 -0.4946
  967MOL0     C27568   0.700   1.631   8.604 -0.9880  0.5116  0.5243
  967MOL0     C27569   0.574   1.621   8.557 -0.2948  0.2567 -0.4480
  967MOL0     O27570   0.501   1.732   8.519  0.4267 -0.1489 -0.3447
  967MOL0     C27571   0.395   1.746   8.621  0.5743  0.5489  0.3955
  967MOL0     C27572   0.377   1.891   8.671 -1.2683 -1.1264  0.1428
  967MOL0     C27573   0.519   1.936   8.718  0.3284 -0.9680  0.0427
  967MOL0     C27574   0.518   2.082   8.781  0.5492  0.7405  0.6435
  967MOL0     C27575   0.661   2.130   8.799  0.4129  0.3420  1.5332
  967MOL0     C27576   0.768   2.174   8.825  0.6992  0.1509 -0.0227
  967MOL0     C27577   0.525   1.490   8.553  0.8759  0.2355 -0.1772
  967MOL0     C27578   0.597   1.374   8.595  0.0839  0.0227  1.0544
  967MOL0     H27579   1.148   1.258   8.528 -0.6408 -0.8490 -1.0201
  967MOL0     H27580   1.320   1.069   8.554  0.5295  0.3841  0.3004
  967MOL0     H27581   1.328   0.846   8.920  1.3937  1.8268  1.0351
  967MOL0     H27582   1.430   0.983   8.860 -1.1825  0.8617 -0.2413
  967MOL0     H27583   1.466   0.687   8.765  3.7411 -1.2073  0.6945
  967MOL0     H27584   1.547   0.754   8.897 -0.5892  0.7386  0.4784
  967MOL0     H27585   1.646   0.927   8.739 -1.8810  1.6117 -0.0973
  967MOL0     H27586   1.533   0.873   8.607 -0.0706 -2.5141 -0.9552
  967MOL0     H27587   1.765   0.715   8.725  1.7623  1.1090  0.4760
  967MOL0     H27588   1.639   0.654   8.611 -1.3268  0.5888  0.3693
  967MOL0     H27589   1.827   0.883   8.568  0.6988 -1.3044  1.0698
  967MOL0     H27590   1.709   0.818   8.446  1.9016  1.3041 -1.7583
  967MOL0     H27591   1.942   0.735   8.399  3.0823  0.2554  2.1762
  967MOL0     H27592   1.867   0.592   8.465 -2.2571  0.2742 -0.1974
  967MOL0     H27593   2.103   0.621   8.504 -0.3323  1.0867 -1.2159
  967MOL0     H27594   2.072   0.778   8.589 -3.5325  1.5915 -0.3830
  967MOL0     H27595   1.992   0.503   8.688  0.7479  0.1040  1.6413
  967MOL0     H27596   1.977   0.657   8.775 -4.5173 -0.6109 -2.2772
  967MOL0     H27597   2.250   0.799   8.781  0.7719  0.9108 -4.5286
  967MOL0     H27598   2.476   0.741   8.951  0.6146 -0.1909 -0.0330
  967MOL0     H27599   2.500   0.805   8.796  1.6915 -0.4438 -0.6001
  967MOL0     H27600   2.652   0.615   8.742 -0.0970 -0.5719  0.0465
  967MOL0     H27601   2.625   0.535   8.889 -1.3518 -0.7048  0.1652
  967MOL0     H27602   2.735   0.818   8.880  0.1363  1.6349  4.3138
  967MOL0     H27603   2.708   0.715   9.019 -0.8692 -0.5041 -0.8046
  967MOL0     H27604   2.891   0.637   8.781  0.4010  2.2003  0.0310
  967MOL0     H27605   2.870   0.538   8.914  3.9499 -1.8393 -3.8961
  967MOL0     H27606   3.070   0.551   8.752  0.8244  0.2857 -1.6506
  967MOL0     H27607   3.301   0.537   8.664 -1.1284 -0.3356  0.4771
  967MOL0     H27608   3.579   0.328   8.575  1.4528 -2.0218 -0.7025
  967MOL0     H27609   3.798   0.239   8.476  0.3189  0.7944  0.8329
  967MOL0     H27610   4.192   0.324   8.386  1.2983  1.0616 -0.6755
  967MOL0     H27611   4.118   0.480   8.419 -1.2485 -0.7013 -0.2763
  967MOL0     H27612   4.089   0.390   8.202 -0.4244 -2.1565 -0.3566
  967MOL0     H27613   3.935   0.394   8.256  0.5737  1.1549 -3.0371
  967MOL0     H27614   3.937   0.147   8.320  1.5055  0.7139  1.9559
  967MOL0     H27615   4.113   0.137   8.311  2.0072  0.8886 -1.0435
  967MOL0     H27616   3.993   0.022   8.126  4.1043 -2.4231 -0.9655
  967MOL0     H27617   3.971   0.171   8.036  0.1875 -1.8091 -0.5513
  967MOL0     H27618   4.209  -0.001   8.122  0.9083  0.9513  2.1761
  967MOL0     H27619   4.252   0.165   8.095  2.7134 -2.3955  3.3854
  967MOL0     H27620   4.167   0.134   7.861  0.3799  1.1989  1.8710
  967MOL0     H27621   4.093  -0.029   7.897  1.3653 -2.1931  0.5002
  967MOL0     H27622   4.393   0.022   7.955  0.9886  1.6243 -1.5624
  967MOL0     H27623   4.307  -0.119   7.916 -2.7592 -0.7475 -4.1577
  967MOL0     H27624   4.358   0.117   7.735 -3.0095 -1.8895 -2.0127
  967MOL0     H27625   4.322  -0.047   7.673 -2.4470 -0.9147  1.7477
  967MOL0     H27626   4.017   0.571   8.644 -1.4069  3.1964  3.4209
  967MOL0     H27627   3.785   0.639   8.748 -1.3645  0.5468 -1.8392
  967MOL0     H27628   3.434   0.797   8.986 -0.8988  2.5747 -0.2138
  967MOL0     H27629   3.194   0.826   9.049  0.2040 -0.3551  0.4943
  967MOL0     H27630   1.098   0.931   8.893 -1.0072  1.2499  0.4752
  967MOL0     H27631   0.947   1.108   8.866  0.5548 -2.4981 -0.9543
  967MOL0     H27632   0.886   1.559   8.665 -1.4141  3.2750  0.9938
  967MOL0     H27633   0.745   1.729   8.607  0.6261 -0.1119 -1.3379
  967MOL0     H27634   0.415   1.684   8.709 -0.6578 -1.0896 -0.4086
  967MOL0     H27635   0.302   1.707   8.579  1.7097 -0.5463 -1.2395
  967MOL0     H27636   0.345   1.948   8.583  2.5828  1.1209 -0.0592
  967MOL0     H27637   0.304   1.895   8.752 -0.6470 -1.0804  0.7121
  967MOL0     H27638   0.587   1.930   8.632  2.6987  3.3328  1.3426
  967MOL0     H27639   0.563   1.871   8.795  2.3097  0.3742  0.0980
  967MOL0     H27640   0.476   2.154   8.710  2.9182 -1.5588 -3.5218
  967MOL0     H27641   0.474   2.071   8.880  1.6762 -2.2248  0.9190
  967MOL0     H27642   0.862   2.203   8.867 -0.3563  0.8588  1.9985
  967MOL0     H27643   0.423   1.470   8.521  0.7469 -2.9619  1.8416
  967MOL0     H27644   0.560   1.272   8.594  1.8930 -0.7247 -2.0731
  968MOL0     O27645   8.415   5.768   3.303 -0.0036  0.3475  0.2872
  968MOL0     C27646   8.368   5.729   3.197 -0.2339  0.1268  0.2998
  968MOL0     O27647   8.342   5.599   3.166  0.2962 -0.4929  0.3691
  968MOL0     C27648   8.369   5.504   3.256 -0.0781  0.4019  0.1695
  968MOL0     C27649   8.459   5.395   3.229  0.4309 -1.0219  0.2389
  968MOL0     C27650   8.474   5.298   3.328  0.7628  0.0832  0.7071
  968MOL0     C27651   8.401   5.299   3.448 -0.2815  0.6034 -0.6398
  968MOL0     O27652   8.426   5.234   3.563 -0.3264  0.0457 -0.3725
  968MOL0     C27653   8.538   5.152   3.557 -0.1990 -0.9985  0.3415
  968MOL0     C27654   8.559   5.104   3.701  0.9486  1.3077  0.6849
  968MOL0     C27655   8.643   4.979   3.694 -0.6731 -0.3618 -0.1030
  968MOL0     C27656   8.563   4.879   3.777 -0.2174  0.2791  0.6626
  968MOL0     C27657   8.652   4.749   3.782 -0.0657 -0.1800  0.9351
  968MOL0     C27658   8.582   4.627   3.826 -0.3002 -0.8682  0.4451
  968MOL0     C27659   8.593   4.625   3.988 -0.0070  0.5797 -0.6911
  968MOL0     C27660   8.484   4.555   4.061  0.0389  0.2462  0.4556
  968MOL0     N27661   8.352   4.590   4.008  0.5701  0.2084  0.7682
  968MOL0     C27662   8.297   4.716   4.020 -1.0409 -0.3831 -0.3688
  968MOL0     C27663   8.180   4.712   3.947  0.3096  0.9660  1.0219
  968MOL0     C27664   8.079   4.826   3.933 -0.2857 -0.5701  0.7307
  968MOL0     C27665   8.047   4.886   3.801 -0.5114 -0.5533  0.3338
  968MOL0     C27666   8.157   4.969   3.729 -0.3211  0.7335  1.0129
  968MOL0     C27667   8.085   5.027   3.609  0.3341  0.3983 -1.1054
  968MOL0     O27668   7.989   5.119   3.655  0.4232 -0.2615  1.0510
  968MOL0     C27669   7.963   5.222   3.570  0.5072  0.4903 -0.5413
  968MOL0     C27670   7.961   5.347   3.627  0.3114  0.1925  0.4888
  968MOL0     C27671   7.934   5.465   3.550  0.3197 -0.1149  0.0971
  968MOL0     C27672   7.918   5.459   3.406 -0.2265  0.2618  0.3577
  968MOL0     C27673   7.911   5.573   3.313  0.8599  0.7947 -0.0758
  968MOL0     O27674   7.849   5.553   3.194  0.6268  0.0619 -1.0863
  968MOL0     C27675   7.822   5.649   3.100  0.5824  0.1895 -0.3266
  968MOL0     C27676   7.812   5.794   3.123 -0.1384 -0.1948  0.5151
  968MOL0     C27677   7.789   5.874   3.009  1.5588 -0.5074 -0.2179
  968MOL0     C27678   7.773   5.821   2.882  0.1637 -1.3647  1.0237
  968MOL0     O27679   7.752   5.889   2.766  0.5674 -0.6899  0.0208
  968MOL0     C27680   7.691   6.021   2.761  0.0333 -0.0040 -1.1820
  968MOL0     C27681   7.654   6.053   2.624 -0.3460  0.7849  0.1368
  968MOL0     C27682   7.751   6.143   2.540 -0.3694 -0.0224 -0.5718
  968MOL0     C27683   7.688   6.160   2.401 -0.0407  0.8657 -1.0710
  968MOL0     C27684   7.718   6.292   2.338 -0.3031  0.3310  0.0991
  968MOL0     C27685   7.863   6.312   2.300 -0.3132  0.1677  0.5582
  968MOL0     C27686   7.875   6.400   2.172  0.2841 -0.7166 -0.6731
  968MOL0     C27687   8.012   6.455   2.150 -0.1013  0.0383 -0.1227
  968MOL0    Cl27688   8.046   6.561   2.292  0.0469 -0.0254  0.4272
  968MOL0     C27689   7.787   5.688   2.862 -0.0459 -0.1679 -0.6699
  968MOL0     C27690   7.810   5.602   2.969 -0.0586  1.4868 -0.5101
  968MOL0     O27691   7.975   5.672   3.344 -0.6262  0.8397  0.4544
  968MOL0     C27692   7.900   5.327   3.359 -0.5702 -0.4693 -0.1276
  968MOL0     C27693   7.909   5.210   3.433 -0.6642  0.2565 -0.1528
  968MOL0     N27694   8.162   4.579   3.918  0.7424  1.0966 -0.4858
  968MOL0     N27695   8.259   4.506   3.955  0.0146 -0.2635  0.1400
  968MOL0     C27696   8.301   5.393   3.465 -0.0558 -0.3619 -0.3077
  968MOL0     C27697   8.288   5.501   3.371  0.4560  1.0803  0.1449
  968MOL0     C27698   8.323   5.831   3.102  0.2743  0.0743 -0.1982
  968MOL0     C27699   8.396   5.951   3.079 -1.1726  0.1227  0.2887
  968MOL0     C27700   8.346   6.040   2.988 -0.0845 -0.5608 -0.2205
  968MOL0     C27701   8.216   6.015   2.936 -0.6303  1.0946 -0.7227
  968MOL0     O27702   8.139   6.100   2.868  0.8788 -0.3426  0.7462
  968MOL0     C27703   8.188   6.218   2.803 -0.0720  0.1639  0.7233
  968MOL0     C27704   8.073   6.274   2.722 -0.2407 -0.0854  0.3386
  968MOL0     C27705   8.124   6.381   2.632  0.2859  0.0387  0.1269
  968MOL0     C27706   8.176   6.509   2.709  0.3120  0.2870  0.2688
  968MOL0     C27707   8.218   6.613   2.604 -0.0163 -0.5502 -0.0648
  968MOL0     C27708   8.259   6.690   2.522 -0.2632 -0.1493 -0.2637
  968MOL0     C27709   8.146   5.889   2.958 -0.2582 -0.6070 -0.5306
  968MOL0     C27710   8.202   5.798   3.044 -0.6112 -0.4988 -0.3383
  968MOL0     H27711   8.522   5.383   3.141 -3.0125 -2.5721 -2.2687
  968MOL0     H27712   8.554   5.225   3.329  1.8087  1.1510 -0.6179
  968MOL0     H27713   8.626   5.214   3.540  0.6766 -1.4599  2.8369
  968MOL0     H27714   8.522   5.058   3.503  2.0262 -1.2592  0.0438
  968MOL0     H27715   8.459   5.074   3.732  0.9042  1.0376  0.2875
  968MOL0     H27716   8.589   5.187   3.766 -1.0418  0.4579  2.8385
  968MOL0     H27717   8.731   5.008   3.752 -0.5378  0.6950 -0.8060
  968MOL0     H27718   8.665   4.919   3.606 -0.9622 -3.8322  1.9744
  968MOL0     H27719   8.562   4.915   3.880  0.7416 -0.7280  1.0443
  968MOL0     H27720   8.460   4.863   3.744 -1.0080  1.8907  2.1718
  968MOL0     H27721   8.748   4.762   3.832 -0.3537  1.7583  1.0727
  968MOL0     H27722   8.674   4.729   3.677 -0.4305  0.8438  0.6539
  968MOL0     H27723   8.628   4.537   3.786  2.8526  1.1373 -0.8158
  968MOL0     H27724   8.479   4.633   3.789 -1.1955  0.0989  2.8510
  968MOL0     H27725   8.689   4.586   4.024 -1.2096 -0.6907  1.3773
  968MOL0     H27726   8.604   4.725   4.031  5.0551  0.5128 -1.2039
  968MOL0     H27727   8.485   4.581   4.167 -0.4229  1.6772  0.1188
  968MOL0     H27728   8.493   4.446   4.068 -3.6997 -0.1162  1.3148
  968MOL0     H27729   8.341   4.805   4.064 -1.2623 -1.9126  3.2934
  968MOL0     H27730   8.111   4.907   3.998  1.7555  1.1689 -2.2096
  968MOL0     H27731   7.996   4.774   3.982  0.1350 -0.0764  1.9934
  968MOL0     H27732   7.963   4.954   3.820 -3.1522 -1.4985 -5.5110
  968MOL0     H27733   8.010   4.804   3.738 -1.1030 -0.1154  0.1069
  968MOL0     H27734   8.198   5.044   3.798  5.2773 -0.7580 -0.1846
  968MOL0     H27735   8.236   4.909   3.683 -2.7815 -0.5374 -1.8965
  968MOL0     H27736   8.041   4.947   3.548  1.0750 -1.6808  0.9310
  968MOL0     H27737   8.157   5.079   3.545 -0.4184 -0.5299 -2.7922
  968MOL0     H27738   7.996   5.362   3.729 -0.7156  2.7814  0.5463
  968MOL0     H27739   7.951   5.559   3.602 -1.7208  0.7018 -0.6211
  968MOL0     H27740   7.811   5.848   3.216 -0.8180 -0.8627  0.9062
  968MOL0     H27741   7.773   5.980   3.029  0.7541 -0.6459 -0.1016
  968MOL0     H27742   7.765   6.096   2.791 -1.2595  0.5739  0.7383
  968MOL0     H27743   7.604   6.020   2.827  1.5587 -0.8284  0.9244
  968MOL0     H27744   7.561   6.112   2.630  0.0767  1.3350  1.5948
  968MOL0     H27745   7.631   5.957   2.578 -1.2367  1.2891 -0.5151
  968MOL0     H27746   7.846   6.089   2.525 -0.1757 -0.5586  2.0691
  968MOL0     H27747   7.768   6.240   2.587  2.1895 -1.1920  1.1867
  968MOL0     H27748   7.724   6.075   2.342  0.2007 -1.3388  2.0170
  968MOL0     H27749   7.581   6.143   2.409  0.2470 -1.2448 -1.0604
  968MOL0     H27750   7.691   6.367   2.412  2.5668 -0.0274  1.6472
  968MOL0     H27751   7.652   6.293   2.250 -0.2708 -2.9970 -0.1063
  968MOL0     H27752   7.909   6.215   2.278 -1.1140  0.0440 -0.6629
  968MOL0     H27753   7.924   6.363   2.375 -0.6976  0.6926  0.5186
  968MOL0     H27754   7.841   6.349   2.081  0.8144 -0.6119 -0.9313
  968MOL0     H27755   7.810   6.488   2.186  1.4999 -0.0316  1.0167
  968MOL0     H27756   8.006   6.510   2.055 -1.1510 -0.4078 -0.3231
  968MOL0     H27757   8.086   6.374   2.142 -2.0241 -1.7742 -0.2711
  968MOL0     H27758   7.788   5.647   2.762  0.6425 -2.3696  0.1784
  968MOL0     H27759   7.817   5.496   2.948  0.3112  1.6063 -0.9953
  968MOL0     H27760   7.871   5.314   3.256 -2.2607  1.5261  0.0290
  968MOL0     H27761   7.904   5.107   3.399  2.1673  0.1533 -0.5083
  968MOL0     H27762   8.246   5.397   3.559  0.4039  1.1280 -0.0758
  968MOL0     H27763   8.195   5.557   3.377  0.1412  0.5892 -0.0935
  968MOL0     H27764   8.490   5.979   3.124 -2.4237 -1.4997  4.4546
  968MOL0     H27765   8.392   6.135   2.964  1.0927 -0.9481  0.4213
  968MOL0     H27766   8.271   6.196   2.737  2.5823  1.9347  3.2457
  968MOL0     H27767   8.221   6.282   2.885 -1.9814  1.8725  0.2546
  968MOL0     H27768   8.034   6.188   2.665  0.9164 -2.1683  2.5267
  968MOL0     H27769   7.990   6.304   2.786 -0.9108 -1.9133  0.3986
  968MOL0     H27770   8.045   6.415   2.563  0.7264  0.0130 -0.3991
  968MOL0     H27771   8.207   6.343   2.571 -0.1545 -1.7587  0.6097
  968MOL0     H27772   8.101   6.551   2.777 -3.0146 -0.9212 -2.3735
  968MOL0     H27773   8.266   6.483   2.765  2.0284  3.1638 -0.9196
  968MOL0     H27774   8.284   6.747   2.434  1.2277 -1.5253 -0.7847
  968MOL0     H27775   8.055   5.865   2.906 -0.0327  0.8284 -1.6394
  968MOL0     H27776   8.160   5.699   3.057 -0.2204 -0.5714  0.4218
  969MOL0     O27777   0.359   0.233   7.545 -0.1891  0.6249 -0.0202
  969MOL0     C27778   0.479   0.259   7.563  0.4048 -0.5803 -0.0614
  969MOL0     O27779   0.555   0.207   7.662 -0.3244 -0.0355  0.2217
  969MOL0     C27780   0.516   0.125   7.768  1.1107 -0.5551 -0.1399
  969MOL0     C27781   0.389   0.126   7.820  0.0100  1.0808  0.3933
  969MOL0     C27782   0.358   0.049   7.931  0.4181 -0.3822 -0.3763
  969MOL0     C27783   0.449  -0.037   7.990 -0.0411  0.4893  0.0905
  969MOL0     O27784   0.407  -0.130   8.086  1.0311 -1.0900 -0.1654
  969MOL0     C27785   0.478  -0.254   8.076  0.2761 -0.2713 -0.1990
  969MOL0     C27786   0.409  -0.367   8.145  0.6574 -0.4397 -0.1103
  969MOL0     C27787   0.296  -0.408   8.057  0.3677  0.5474  0.0047
  969MOL0     C27788   0.204  -0.519   8.114 -0.6745 -0.5552 -0.2271
  969MOL0     C27789   0.087  -0.574   8.028  0.7810 -0.7518  0.1535
  969MOL0     C27790  -0.025  -0.478   7.980  0.8557  0.0882 -0.1422
  969MOL0     C27791  -0.094  -0.547   7.860  0.4895 -0.0184 -0.2234
  969MOL0     C27792  -0.214  -0.459   7.803 -0.2596  0.5774  0.5149
  969MOL0     N27793  -0.306  -0.422   7.910 -0.0521 -0.1010  0.0208
  969MOL0     C27794  -0.390  -0.494   7.999 -0.3340 -0.0911 -0.1005
  969MOL0     C27795  -0.465  -0.401   8.055 -0.7666 -0.4886 -0.6075
  969MOL0     C27796  -0.557  -0.403   8.179 -0.2199 -0.0815 -0.6764
  969MOL0     C27797  -0.505  -0.453   8.317  0.4859  0.5151 -0.3231
  969MOL0     C27798  -0.594  -0.413   8.438 -0.3452 -0.2668 -0.8486
  969MOL0     C27799  -0.571  -0.492   8.564 -1.0639  0.3161  0.0688
  969MOL0     O27800  -0.617  -0.625   8.552  0.5563  0.7711 -0.5804
  969MOL0     C27801  -0.584  -0.709   8.656  0.6494 -0.4031  0.7626
  969MOL0     C27802  -0.585  -0.843   8.638 -0.5189 -0.1780  0.7797
  969MOL0     C27803  -0.548  -0.932   8.737  0.6335 -0.1245 -0.3412
  969MOL0     C27804  -0.523  -0.883   8.870 -0.5950  1.0675  0.3947
  969MOL0     C27805  -0.483  -0.974   8.981 -0.4245 -0.2293 -0.1313
  969MOL0     O27806  -0.515  -0.964   9.106 -0.7269 -0.0146 -0.1523
  969MOL0     C27807  -0.641  -0.923   9.140 -0.1299 -0.5279 -0.0859
  969MOL0     C27808  -0.751  -0.942   9.054 -0.1763 -1.2999  0.7908
  969MOL0     C27809  -0.873  -0.887   9.089 -0.5680 -0.1620  0.3911
  969MOL0     C27810  -0.883  -0.793   9.193  0.4945 -0.5906 -0.1251
  969MOL0     O27811  -1.000  -0.726   9.238  0.5882 -0.0131  0.1056
  969MOL0     C27812  -1.129  -0.777   9.199  0.1689 -0.5497  0.1148
  969MOL0     C27813  -1.242  -0.676   9.212  0.6514 -0.4503 -0.3889
  969MOL0     C27814  -1.286  -0.660   9.362 -0.2801 -0.1723 -0.7128
  969MOL0     C27815  -1.371  -0.543   9.384 -0.0593  0.0410  0.3694
  969MOL0     C27816  -1.427  -0.533   9.529 -0.9118  0.0167 -0.3292
  969MOL0     C27817  -1.529  -0.422   9.545  0.2003  0.5451 -0.0894
  969MOL0     C27818  -1.469  -0.282   9.511  0.3714  0.7372  0.7604
  969MOL0     C27819  -1.581  -0.182   9.536 -0.6385 -0.1949 -0.5200
  969MOL0    Cl27820  -1.579  -0.156   9.713 -0.2578  0.0155  0.3070
  969MOL0     C27821  -0.767  -0.772   9.280 -0.5053  0.4113  0.8052
  969MOL0     C27822  -0.652  -0.849   9.259  0.1679 -0.7545  0.2900
  969MOL0     O27823  -0.402  -1.060   8.936 -1.2355 -1.1336  0.3238
  969MOL0     C27824  -0.530  -0.747   8.894  0.7318  0.9048 -0.0916
  969MOL0     C27825  -0.561  -0.660   8.785 -0.5856 -0.6343  0.7837
  969MOL0     N27826  -0.436  -0.281   8.007  0.9574 -0.0336  0.8974
  969MOL0     N27827  -0.338  -0.290   7.923  0.3490 -0.0917 -0.6006
  969MOL0     C27828   0.574  -0.038   7.934 -0.0757 -0.7214 -0.7716
  969MOL0     C27829   0.603   0.037   7.820  1.2665 -0.2332  0.1945
  969MOL0     C27830   0.546   0.347   7.472 -0.8587 -0.2083  0.2056
  969MOL0     C27831   0.497   0.363   7.342 -0.5487  0.0155 -0.0047
  969MOL0     C27832   0.545   0.454   7.260 -0.6771  0.4698 -0.9205
  969MOL0     C27833   0.640   0.547   7.309 -0.9726  0.0140 -0.0178
  969MOL0     O27834   0.683   0.655   7.240  0.7412  0.7333 -0.3430
  969MOL0     C27835   0.649   0.670   7.098  0.0747 -0.4376  0.1554
  969MOL0     C27836   0.756   0.759   7.035  0.2944 -0.3093  0.5669
  969MOL0     C27837   0.716   0.818   6.900 -0.5742 -0.2573  0.1515
  969MOL0     C27838   0.819   0.912   6.841 -0.3047 -0.3200 -0.3070
  969MOL0     C27839   0.951   0.850   6.813 -0.7694  0.8230 -1.0959
  969MOL0     C27840   1.064   0.803   6.786 -0.8992 -0.2107  0.0619
  969MOL0     C27841   0.703   0.530   7.439 -1.1978  0.3712 -0.6142
  969MOL0     C27842   0.660   0.419   7.513 -0.4524  0.0159 -0.0531
  969MOL0     H27843   0.318   0.198   7.781 -0.2523 -1.0532 -3.5998
  969MOL0     H27844   0.263   0.080   7.975  0.3396  0.3832 -1.0772
  969MOL0     H27845   0.570  -0.242   8.133  0.1550 -0.0854 -0.0435
  969MOL0     H27846   0.502  -0.284   7.973  2.3925 -3.5425  1.0926
  969MOL0     H27847   0.367  -0.331   8.239  0.5171  4.0558 -1.6443
  969MOL0     H27848   0.480  -0.446   8.169  0.8990 -0.7152 -1.5925
  969MOL0     H27849   0.347  -0.456   7.972 -1.4826 -3.3156  0.8709
  969MOL0     H27850   0.241  -0.323   8.017  2.2355  1.6414 -0.3616
  969MOL0     H27851   0.272  -0.602   8.136  1.0931  0.9205  0.1034
  969MOL0     H27852   0.183  -0.486   8.216 -0.2038  1.9145 -0.8759
  969MOL0     H27853   0.031  -0.650   8.084 -2.9687  0.8935 -1.0350
  969MOL0     H27854   0.121  -0.633   7.943 -1.5305  2.0269 -2.9606
  969MOL0     H27855   0.008  -0.379   7.949  0.0703  0.3319 -0.2185
  969MOL0     H27856  -0.103  -0.483   8.057  0.3939 -0.9372 -0.6588
  969MOL0     H27857  -0.025  -0.558   7.776  2.4558  2.9830  0.8452
  969MOL0     H27858  -0.128  -0.647   7.889  0.5074 -0.5686 -2.0148
  969MOL0     H27859  -0.268  -0.522   7.732 -0.6305  0.9181  0.4926
  969MOL0     H27860  -0.190  -0.375   7.738 -0.9298 -1.1761 -2.1615
  969MOL0     H27861  -0.386  -0.600   8.021 -2.3308 -0.2919 -0.5233
  969MOL0     H27862  -0.643  -0.467   8.160  0.5318 -1.4288  0.2970
  969MOL0     H27863  -0.591  -0.299   8.187  2.2787  1.0235 -2.8629
  969MOL0     H27864  -0.410  -0.406   8.340 -0.9763  3.8951 -0.5651
  969MOL0     H27865  -0.499  -0.562   8.317 -0.1146  0.3692 -3.7076
  969MOL0     H27866  -0.567  -0.311   8.467 -2.1867 -1.2684  6.1886
  969MOL0     H27867  -0.700  -0.417   8.410 -0.5794 -1.8355  0.1158
  969MOL0     H27868  -0.620  -0.451   8.653  1.7812 -0.4254  2.1310
  969MOL0     H27869  -0.465  -0.487   8.588 -1.0378  0.5829 -0.0852
  969MOL0     H27870  -0.605  -0.895   8.545 -2.5307 -3.5562  2.9110
  969MOL0     H27871  -0.559  -1.039   8.720 -1.0392 -0.1437  0.7215
  969MOL0     H27872  -0.745  -1.000   8.963 -0.2906 -1.8655  1.1365
  969MOL0     H27873  -0.951  -0.915   9.019  1.2973 -0.2297 -1.7710
  969MOL0     H27874  -1.148  -0.868   9.257 -2.4462 -0.3163 -0.2576
  969MOL0     H27875  -1.128  -0.816   9.097 -5.1496 -4.4189  1.0811
  969MOL0     H27876  -1.329  -0.689   9.147  0.1739  0.1931  0.1018
  969MOL0     H27877  -1.191  -0.588   9.172  2.0175 -0.5132  1.1291
  969MOL0     H27878  -1.202  -0.655   9.431 -0.3950 -0.1419 -0.5744
  969MOL0     H27879  -1.344  -0.747   9.392 -3.9310  2.4510  0.5459
  969MOL0     H27880  -1.305  -0.459   9.359 -2.6691  2.3863  0.9231
  969MOL0     H27881  -1.447  -0.545   9.305 -0.2417 -2.4391  0.5277
  969MOL0     H27882  -1.337  -0.523   9.590 -1.5905  0.4741  0.6258
  969MOL0     H27883  -1.477  -0.628   9.551  2.8589 -2.1555 -0.2420
  969MOL0     H27884  -1.559  -0.436   9.649 -3.6470  1.1526 -0.9681
  969MOL0     H27885  -1.618  -0.453   9.489  1.1878  0.7975 -1.8885
  969MOL0     H27886  -1.383  -0.249   9.572 -1.2253  1.3676  2.7829
  969MOL0     H27887  -1.445  -0.281   9.404 -0.8780  0.2866  0.4636
  969MOL0     H27888  -1.677  -0.222   9.501  0.7704 -3.4256 -1.0039
  969MOL0     H27889  -1.569  -0.091   9.476 -0.3337  0.5722  0.6666
  969MOL0     H27890  -0.778  -0.705   9.365  2.9768  1.6563  0.4532
  969MOL0     H27891  -0.556  -0.829   9.306 -1.4324  3.7063  2.2217
  969MOL0     H27892  -0.526  -0.718   8.999 -2.8387 -0.1911  0.5010
  969MOL0     H27893  -0.567  -0.553   8.805  2.4699 -0.3439  0.5946
  969MOL0     H27894   0.650  -0.098   7.982 -1.6086 -2.7990 -0.7618
  969MOL0     H27895   0.705   0.042   7.785  1.5278 -1.0875  0.8174
  969MOL0     H27896   0.408   0.312   7.307 -1.2883 -0.0074  1.8029
  969MOL0     H27897   0.495   0.454   7.163  1.2870  3.4999 -2.0919
  969MOL0     H27898   0.549   0.709   7.077  1.4163  1.4164 -3.6128
  969MOL0     H27899   0.652   0.578   7.039 -0.0188 -0.8433  0.7815
  969MOL0     H27900   0.762   0.840   7.108  0.8864  1.1669 -1.0322
  969MOL0     H27901   0.848   0.700   7.046 -0.3583 -0.9266  3.3953
  969MOL0     H27902   0.618   0.867   6.900  0.1564  1.3258  1.6445
  969MOL0     H27903   0.715   0.730   6.836 -0.8680 -1.0999  1.2860
  969MOL0     H27904   0.791   0.951   6.743  2.8426  1.5125 -0.6188
  969MOL0     H27905   0.827   0.997   6.909  2.2942  0.5374 -1.5587
  969MOL0     H27906   1.153   0.750   6.758 -0.9924 -0.0954 -0.4628
  969MOL0     H27907   0.789   0.583   7.479  0.0249 -0.0145 -2.5888
  969MOL0     H27908   0.697   0.405   7.614  4.5490 -1.6402 -1.7968
  970MOL0     O27909   8.521  10.389  11.039 -0.5378  0.0125  0.1641
  970MOL0     C27910   8.428  10.309  11.047  0.4092  1.2777  0.4978
  970MOL0     O27911   8.361  10.250  10.945  0.1801 -0.4001  0.3372
  970MOL0     C27912   8.412  10.281  10.815  0.9601  0.6184  0.4092
  970MOL0     C27913   8.327  10.341  10.722  0.7030  0.2677  0.6026
  970MOL0     C27914   8.372  10.370  10.597  0.3121 -0.0268  0.8058
  970MOL0     C27915   8.508  10.339  10.559  0.9812  0.0410 -0.2298
  970MOL0     O27916   8.568  10.388  10.450 -0.3757  0.3784 -0.1284
  970MOL0     C27917   8.486  10.436  10.343 -0.1414 -0.4781 -0.0076
  970MOL0     C27918   8.426  10.311  10.273 -0.3894 -0.2499  0.2592
  970MOL0     C27919   8.375  10.344  10.128 -0.0178 -0.2454 -0.6583
  970MOL0     C27920   8.267  10.239  10.077 -0.8231 -0.1596  0.5171
  970MOL0     C27921   8.142  10.199  10.164  0.4543  0.0224  0.9207
  970MOL0     C27922   8.063  10.319  10.216 -0.1087 -0.2131 -0.5684
  970MOL0     C27923   7.958  10.249  10.305  0.2715  1.0842 -0.6577
  970MOL0     C27924   7.857  10.361  10.351  0.0191  0.2255  0.1065
  970MOL0     N27925   7.925  10.477  10.419 -0.5005  0.7706  0.0137
  970MOL0     C27926   7.886  10.604  10.400 -0.0406  0.2005  0.3830
  970MOL0     C27927   7.959  10.665  10.491 -0.2046 -0.2971 -0.6119
  970MOL0     C27928   7.969  10.816  10.507 -0.1567 -0.2775 -0.5483
  970MOL0     C27929   7.965  10.856  10.662 -1.2002  0.5889  0.0734
  970MOL0     C27930   7.986  11.000  10.689 -0.2620 -0.4500 -0.0903
  970MOL0     C27931   7.882  11.087  10.618 -0.3295  1.2392 -0.3124
  970MOL0     O27932   7.900  11.228  10.652 -0.3803 -0.9514  0.5067
  970MOL0     C27933   7.800  11.322  10.631 -0.4211 -0.3147 -0.9069
  970MOL0     C27934   7.684  11.297  10.554 -0.0842  0.0443 -0.9389
  970MOL0     C27935   7.579  11.397  10.552 -0.0580  0.4460  0.5209
  970MOL0     C27936   7.582  11.517  10.625  0.9383 -0.2498  0.3587
  970MOL0     C27937   7.487  11.630  10.604 -0.2221  0.1912  0.1761
  970MOL0     O27938   7.380  11.598  10.525  0.5054 -0.4783 -0.6279
  970MOL0     C27939   7.270  11.670  10.540  0.4297 -1.0230  0.1869
  970MOL0     C27940   7.159  11.604  10.576  0.9332  0.3125  0.8173
  970MOL0     C27941   7.029  11.654  10.574 -0.2823  0.4085 -0.1106
  970MOL0     C27942   7.005  11.786  10.527 -0.6132  0.1655 -0.6719
  970MOL0     O27943   6.875  11.822  10.507  0.0612  0.2595  1.1532
  970MOL0     C27944   6.845  11.944  10.437 -1.1358 -0.7165 -0.0247
  970MOL0     C27945   6.851  12.067  10.540 -0.1956  0.6363 -0.0175
  970MOL0     C27946   6.854  12.206  10.478  0.6705 -0.4992 -0.4686
  970MOL0     C27947   6.852  12.310  10.591 -0.0515 -0.1252  0.2582
  970MOL0     C27948   6.907  12.450  10.550 -0.3219  0.2469 -0.7233
  970MOL0     C27949   6.888  12.564  10.650 -0.1647 -0.7464 -0.6952
  970MOL0     C27950   6.957  12.546  10.792 -0.5760 -0.1572  0.4090
  970MOL0     C27951   6.905  12.652  10.890 -0.2589 -0.3202  0.1246
  970MOL0    Cl27952   6.964  12.815  10.845 -0.1473 -0.1718  0.4392
  970MOL0     C27953   7.125  11.863  10.499  0.0181  0.4195  0.7353
  970MOL0     C27954   7.247  11.798  10.503 -0.4896 -0.4934  0.1674
  970MOL0     O27955   7.514  11.743  10.641 -0.1590 -0.1937 -0.2997
  970MOL0     C27956   7.706  11.541  10.696  0.5065  0.6248  0.0197
  970MOL0     C27957   7.811  11.446  10.696  0.4819 -0.0369 -0.2436
  970MOL0     N27958   8.042  10.577  10.561 -0.0964 -0.6238 -0.8739
  970MOL0     N27959   8.025  10.459  10.510 -0.2732 -0.6973  0.3412
  970MOL0     C27960   8.590  10.288  10.655  0.4130  0.4953 -0.4289
  970MOL0     C27961   8.543  10.259  10.784 -0.2150  0.6851 -0.1089
  970MOL0     C27962   8.377  10.292  11.181 -0.3920 -0.3468  0.3207
  970MOL0     C27963   8.248  10.233  11.208  0.6073  0.5740 -0.0710
  970MOL0     C27964   8.193  10.236  11.337 -0.5148 -0.8127 -0.1135
  970MOL0     C27965   8.260  10.285  11.451 -0.1907 -1.0322  0.0653
  970MOL0     O27966   8.213  10.306  11.576  0.1803  0.3583  0.0293
  970MOL0     C27967   8.092  10.242  11.612 -0.2613 -0.1733 -0.0047
  970MOL0     C27968   8.055  10.255  11.764  0.2332  0.0495  1.1980
  970MOL0     C27969   8.133  10.165  11.854  0.7641 -0.6377 -0.0657
  970MOL0     C27970   8.279  10.190  11.881 -0.0143 -0.4603 -0.3469
  970MOL0     C27971   8.320  10.092  11.979 -0.5265 -0.5504  0.3408
  970MOL0     C27972   8.328  10.004  12.063  0.2630  0.5487 -0.1611
  970MOL0     C27973   8.389  10.331  11.426 -0.0499 -0.2082 -0.2936
  970MOL0     C27974   8.451  10.341  11.298  0.1608 -0.0777  0.5755
  970MOL0     H27975   8.225  10.374  10.738 -0.6772 -1.5013 -3.2955
  970MOL0     H27976   8.304  10.416  10.526  0.9403  2.0459  1.4866
  970MOL0     H27977   8.554  10.500  10.286  0.3241  0.5038  1.5712
  970MOL0     H27978   8.404  10.504  10.371 -2.2569 -1.5172 -3.0923
  970MOL0     H27979   8.358  10.259  10.341  0.7381  1.6346  2.9912
  970MOL0     H27980   8.513  10.248  10.251 -0.9501 -1.8290  2.2663
  970MOL0     H27981   8.462  10.337  10.062 -0.7917 -0.9956 -1.6492
  970MOL0     H27982   8.329  10.443  10.124  1.5415  0.5436  0.3875
  970MOL0     H27983   8.231  10.266   9.977  1.7328 -2.4898 -1.2028
  970MOL0     H27984   8.335  10.156  10.056  2.5693  2.7167 -1.0125
  970MOL0     H27985   8.178  10.146  10.252  1.3232  1.6037  1.5532
  970MOL0     H27986   8.074  10.138  10.103  0.6186  2.4196 -1.9232
  970MOL0     H27987   8.026  10.385  10.137 -0.2151 -2.2877 -2.3682
  970MOL0     H27988   8.137  10.374  10.275 -2.3215  2.7392 -0.3187
  970MOL0     H27989   7.903  10.168  10.257 -1.7599  0.6865  2.0870
  970MOL0     H27990   8.009  10.207  10.393 -0.4013  0.4123 -0.5796
  970MOL0     H27991   7.785  10.314  10.418 -0.0985  1.0939  0.6054
  970MOL0     H27992   7.808  10.384  10.256 -0.9996 -2.4126 -0.0892
  970MOL0     H27993   7.813  10.646  10.331 -0.4475 -0.3595  0.4579
  970MOL0     H27994   7.884  10.860  10.454 -2.1390  0.0506  2.6125
  970MOL0     H27995   8.067  10.854  10.476 -0.3912  2.2584  1.4750
  970MOL0     H27996   8.045  10.800  10.713 -1.1867  1.0586  0.5752
  970MOL0     H27997   7.870  10.826  10.707  0.6829 -2.2826  2.5341
  970MOL0     H27998   7.978  11.014  10.798  3.7121 -0.9983  0.4279
  970MOL0     H27999   8.087  11.023  10.655 -1.3617  2.2166 -1.9292
  970MOL0     H28000   7.782  11.045  10.632  0.0835  0.2164 -0.4238
  970MOL0     H28001   7.900  11.089  10.510  0.1060  1.0652 -0.2446
  970MOL0     H28002   7.672  11.208  10.493  1.1246 -0.8030  0.0101
  970MOL0     H28003   7.499  11.374  10.482 -0.2424  4.2344 -0.7306
  970MOL0     H28004   7.170  11.499  10.600  0.6793  0.3767  1.2134
  970MOL0     H28005   6.950  11.581  10.588  0.0152  0.3363  1.3640
  970MOL0     H28006   6.748  11.948  10.387 -0.5725  0.1816 -1.1086
  970MOL0     H28007   6.918  11.950  10.355  0.0738 -1.6328  0.9367
  970MOL0     H28008   6.941  12.046  10.599 -1.4783 -2.7762  0.9714
  970MOL0     H28009   6.766  12.063  10.609 -1.0874 -0.0236 -1.1285
  970MOL0     H28010   6.767  12.230  10.416  1.6469  1.1029 -1.2700
  970MOL0     H28011   6.937  12.210  10.407  1.2341 -0.6994  0.1712
  970MOL0     H28012   6.749  12.329  10.621 -0.3421  1.9042 -1.7129
  970MOL0     H28013   6.901  12.267  10.679  3.0855 -1.0864 -1.7940
  970MOL0     H28014   6.881  12.469  10.445 -3.9241  1.4210  0.2661
  970MOL0     H28015   7.013  12.423  10.545  0.4073  2.8400 -0.6520
  970MOL0     H28016   6.781  12.570  10.675  0.5207 -1.2709  2.9080
  970MOL0     H28017   6.927  12.653  10.599  2.7328 -0.7997  1.2008
  970MOL0     H28018   6.964  12.446  10.835  1.1786  0.8499  2.6311
  970MOL0     H28019   7.061  12.568  10.768 -0.8128 -0.3678 -0.9207
  970MOL0     H28020   6.938  12.632  10.993 -2.3515  2.4932  1.4839
  970MOL0     H28021   6.796  12.658  10.880 -0.1936 -0.4311 -0.7019
  970MOL0     H28022   7.109  11.962  10.457 -4.0419 -0.5920 -0.5753
  970MOL0     H28023   7.325  11.868  10.475 -1.5222  0.6101 -0.0403
  970MOL0     H28024   7.710  11.631  10.756 -0.8860  0.1908  0.8148
  970MOL0     H28025   7.896  11.463  10.760 -2.4617  1.0441  3.7406
  970MOL0     H28026   8.696  10.280  10.631  0.6100  0.7226  0.3643
  970MOL0     H28027   8.618  10.221  10.851  2.5975 -0.8469 -3.7959
  970MOL0     H28028   8.187  10.196  11.126 -2.0282  4.0789  0.0536
  970MOL0     H28029   8.093  10.195  11.340 -0.7107 -0.5653 -1.8680
  970MOL0     H28030   8.107  10.137  11.588 -2.2615 -0.0765 -2.0192
  970MOL0     H28031   7.997  10.272  11.567 -2.1370 -1.6863  2.6506
  970MOL0     H28032   8.064  10.358  11.800  1.8820  1.0035 -1.6523
  970MOL0     H28033   7.952  10.219  11.776 -0.7746  2.3959  0.1829
  970MOL0     H28034   8.129  10.072  11.797  0.4826 -0.3816 -0.4617
  970MOL0     H28035   8.072  10.165  11.946  1.4649  0.3173  0.4148
  970MOL0     H28036   8.354  10.163  11.806  1.1770 -1.7710  1.2226
  970MOL0     H28037   8.295  10.294  11.911  4.8870 -1.0872  0.0863
  970MOL0     H28038   8.337   9.925  12.135  0.3935  0.1464 -0.6101
  970MOL0     H28039   8.435  10.383  11.509  1.2136 -2.8995  0.8008
  970MOL0     H28040   8.544  10.392  11.275 -1.4961  1.5677 -3.6676
  971MOL0     O28041   1.910   4.759   2.954  0.1865  0.6956  0.0532
  971MOL0     C28042   1.902   4.732   2.832 -0.8155  0.6022 -0.3175
  971MOL0     O28043   1.902   4.832   2.730 -0.1540 -0.3015 -0.5606
  971MOL0     C28044   1.892   4.962   2.761 -0.0652 -0.2018 -0.4618
  971MOL0     C28045   1.918   5.049   2.654  0.0255  0.0067 -0.8739
  971MOL0     C28046   1.878   5.191   2.662 -0.4681  0.7363  1.0185
  971MOL0     C28047   1.826   5.248   2.782  0.3940  0.5325 -0.3987
  971MOL0     O28048   1.777   5.373   2.800 -0.1014  0.0038  0.1331
  971MOL0     C28049   1.791   5.467   2.693 -0.3872 -0.8553 -0.1802
  971MOL0     C28050   1.738   5.605   2.726 -0.5751 -0.3716  0.2827
  971MOL0     C28051   1.741   5.646   2.871 -0.2687 -0.2518  0.1957
  971MOL0     C28052   1.878   5.627   2.951 -0.6158 -0.0299 -0.0625
  971MOL0     C28053   1.968   5.755   2.960 -0.1850 -0.3276 -0.1646
  971MOL0     C28054   2.101   5.712   3.031  0.1363 -0.7806 -0.4334
  971MOL0     C28055   2.176   5.836   3.084 -0.1621 -0.8522  0.4961
  971MOL0     C28056   2.141   5.968   3.013  0.8491 -0.0166  0.9808
  971MOL0     N28057   2.222   6.079   3.048 -0.9003 -0.6052 -0.4446
  971MOL0     C28058   2.365   6.095   3.062 -0.8219 -0.1748 -0.7665
  971MOL0     C28059   2.376   6.229   3.075 -0.3676  1.1950  0.0731
  971MOL0     C28060   2.497   6.289   3.135  0.8095  0.7825 -0.6872
  971MOL0     C28061   2.476   6.305   3.287  0.6565 -0.3159 -0.3315
  971MOL0     C28062   2.389   6.423   3.344 -0.2347 -0.3685  0.2480
  971MOL0     C28063   2.482   6.539   3.412 -0.1089 -0.7031  0.6315
  971MOL0     O28064   2.548   6.599   3.293 -0.2661  0.1363 -0.5095
  971MOL0     C28065   2.576   6.729   3.330 -0.2408  0.2116  0.3611
  971MOL0     C28066   2.488   6.838   3.286 -0.1072 -0.0659  0.0407
  971MOL0     C28067   2.517   6.967   3.319  0.1592 -0.2712  0.2033
  971MOL0     C28068   2.638   7.004   3.386  1.3281 -0.5276  0.2190
  971MOL0     C28069   2.661   7.153   3.414 -0.1024 -0.0777  1.5853
  971MOL0     O28070   2.581   7.234   3.344  0.3209 -0.1193 -0.3883
  971MOL0     C28071   2.601   7.370   3.347  0.1260  0.7324 -0.4455
  971MOL0     C28072   2.485   7.447   3.327  0.2698  0.3182  0.2473
  971MOL0     C28073   2.473   7.584   3.356 -0.1379  0.3873 -0.3012
  971MOL0     C28074   2.588   7.655   3.400  0.5633 -0.0656 -0.3796
  971MOL0     O28075   2.593   7.785   3.446 -0.4747 -0.0066 -1.0573
  971MOL0     C28076   2.504   7.873   3.375 -0.0538 -0.4790  0.4178
  971MOL0     C28077   2.555   8.014   3.346  0.5726 -0.2785  0.3245
  971MOL0     C28078   2.507   8.104   3.456 -0.4038 -0.0879  0.1396
  971MOL0     C28079   2.527   8.255   3.431  0.1242 -0.4511 -0.3855
  971MOL0     C28080   2.662   8.297   3.501  0.5762  0.2921  0.0183
  971MOL0     C28081   2.713   8.438   3.502  0.1483  0.6807  0.4413
  971MOL0     C28082   2.602   8.529   3.551 -0.4556  0.0260  0.0307
  971MOL0     C28083   2.533   8.609   3.446  0.1673  0.3582  0.3690
  971MOL0    Cl28084   2.635   8.718   3.352  0.2151 -0.3150 -0.0061
  971MOL0     C28085   2.702   7.581   3.415 -0.3387 -0.4079  0.0080
  971MOL0     C28086   2.711   7.444   3.390 -0.2006  0.0649  0.3441
  971MOL0     O28087   2.749   7.178   3.499 -0.1775  0.1814  0.4651
  971MOL0     C28088   2.725   6.901   3.423 -0.5751 -0.3719 -1.0369
  971MOL0     C28089   2.689   6.769   3.406 -0.6903  0.3821 -0.1669
  971MOL0     N28090   2.258   6.289   3.054  0.4467  0.2797  0.0771
  971MOL0     N28091   2.163   6.198   3.065  0.1857 -0.1416  0.5167
  971MOL0     C28092   1.800   5.159   2.885  0.2235 -0.9086  0.0806
  971MOL0     C28093   1.823   5.024   2.879 -0.4470 -0.6775  0.5884
  971MOL0     C28094   1.910   4.591   2.801 -0.4256  0.0144 -0.1659
  971MOL0     C28095   1.951   4.495   2.893 -0.4530  0.3562 -0.2254
  971MOL0     C28096   1.978   4.364   2.862 -0.3627  0.8652 -0.0246
  971MOL0     C28097   1.954   4.327   2.735 -1.0422  0.4776  1.3937
  971MOL0     O28098   1.947   4.189   2.704 -0.1564 -0.4303  0.2791
  971MOL0     C28099   2.030   4.131   2.597 -0.6320 -0.0471  0.5938
  971MOL0     C28100   2.178   4.124   2.652 -0.1033 -0.0163  0.4600
  971MOL0     C28101   2.270   4.070   2.534  0.6028 -0.1602  0.8991
  971MOL0     C28102   2.411   4.124   2.561 -0.3066  0.2918  0.4222
  971MOL0     C28103   2.493   4.061   2.668 -0.2860  0.1820  0.3817
  971MOL0     C28104   2.546   3.976   2.746 -0.5196 -0.6187 -0.0056
  971MOL0     C28105   1.915   4.414   2.628  0.0861  0.0073 -0.2482
  971MOL0     C28106   1.896   4.545   2.664  0.4028 -0.6786 -0.2269
  971MOL0     H28107   1.953   5.007   2.561 -0.7627 -0.4449 -0.9763
  971MOL0     H28108   1.885   5.259   2.577 -0.1176 -1.2810 -0.6719
  971MOL0     H28109   1.746   5.430   2.600 -2.7445  0.6719  0.2661
  971MOL0     H28110   1.897   5.472   2.667 -0.3031 -0.3066  0.2587
  971MOL0     H28111   1.632   5.603   2.697  0.1243 -2.6466 -2.7419
  971MOL0     H28112   1.786   5.686   2.671 -2.3585  2.1954  2.2706
  971MOL0     H28113   1.654   5.601   2.921  0.1710  1.2916  2.5200
  971MOL0     H28114   1.716   5.753   2.879  2.9772  0.7800 -1.7115
  971MOL0     H28115   1.844   5.599   3.051 -0.4439  0.6487  0.1949
  971MOL0     H28116   1.938   5.546   2.908 -1.5040 -0.5093 -0.4268
  971MOL0     H28117   1.908   5.828   3.014  1.9078  1.1917  0.1772
  971MOL0     H28118   2.001   5.787   2.861  2.9168  1.1735  1.2532
  971MOL0     H28119   2.165   5.653   2.965  0.8433  0.2297 -0.6714
  971MOL0     H28120   2.067   5.669   3.126  0.1717  1.4930  0.6918
  971MOL0     H28121   2.158   5.853   3.191 -3.0247  1.5866 -0.2188
  971MOL0     H28122   2.283   5.815   3.086 -0.2124 -1.2758 -0.6624
  971MOL0     H28123   2.035   5.989   3.032  0.5977 -0.4305  0.0523
  971MOL0     H28124   2.138   5.961   2.904  2.6693  1.8810  0.7360
  971MOL0     H28125   2.446   6.023   3.065 -0.1278  0.4699 -2.6274
  971MOL0     H28126   2.496   6.382   3.077 -1.2338  0.2295 -1.6187
  971MOL0     H28127   2.585   6.230   3.110  0.9772  0.6968  0.0928
  971MOL0     H28128   2.570   6.304   3.343 -0.1718 -1.9628  1.1124
  971MOL0     H28129   2.423   6.215   3.318  0.5371 -0.0362  0.2800
  971MOL0     H28130   2.327   6.455   3.260 -0.1711 -2.4933 -0.6726
  971MOL0     H28131   2.329   6.387   3.428 -1.2192 -0.5638 -0.5239
  971MOL0     H28132   2.556   6.496   3.479 -1.0536  0.2854  2.3799
  971MOL0     H28133   2.419   6.608   3.469 -1.0821  0.1945 -1.3949
  971MOL0     H28134   2.392   6.810   3.243  0.1598 -0.3190 -0.4045
  971MOL0     H28135   2.446   7.038   3.279 -0.1147 -0.9987 -0.6493
  971MOL0     H28136   2.398   7.395   3.290 -0.6549 -1.3144  4.1583
  971MOL0     H28137   2.369   7.615   3.352 -1.5838 -3.6983 -4.8255
  971MOL0     H28138   2.417   7.860   3.440 -0.6734 -2.7514 -0.7459
  971MOL0     H28139   2.471   7.840   3.276 -2.6762  0.3965  0.9360
  971MOL0     H28140   2.519   8.045   3.247  0.8670  0.2143  0.3662
  971MOL0     H28141   2.663   8.010   3.333  0.3625  0.8507 -2.7816
  971MOL0     H28142   2.571   8.087   3.543  0.0068  0.2240 -0.0954
  971MOL0     H28143   2.406   8.077   3.490 -1.1695  0.0010 -1.9254
  971MOL0     H28144   2.546   8.278   3.325 -0.5259  0.9780 -0.2151
  971MOL0     H28145   2.445   8.318   3.466  1.1154  0.4608  0.3586
  971MOL0     H28146   2.730   8.232   3.445  0.3328  2.1153 -2.5846
  971MOL0     H28147   2.665   8.269   3.607  0.5951  3.3914  0.9435
  971MOL0     H28148   2.742   8.472   3.402 -1.5333  1.7037  0.2699
  971MOL0     H28149   2.796   8.438   3.574 -1.7342 -0.6126  2.7544
  971MOL0     H28150   2.521   8.479   3.606  0.4198  0.2402  1.5829
  971MOL0     H28151   2.651   8.593   3.625 -0.2871 -2.1457  1.9292
  971MOL0     H28152   2.463   8.679   3.493 -0.6682 -1.8814  2.6448
  971MOL0     H28153   2.485   8.545   3.372 -0.4159  2.3705 -1.0959
  971MOL0     H28154   2.790   7.623   3.464 -0.1176 -2.4726  1.5414
  971MOL0     H28155   2.798   7.392   3.428 -0.8800 -1.7700 -0.4716
  971MOL0     H28156   2.821   6.917   3.471 -1.9784 -0.5283  2.0699
  971MOL0     H28157   2.756   6.691   3.442 -1.5888  0.0646  0.8649
  971MOL0     H28158   1.755   5.196   2.977  0.4831  2.1296 -0.8825
  971MOL0     H28159   1.798   4.957   2.961  1.5957 -2.8472 -0.4425
  971MOL0     H28160   1.959   4.522   2.998 -1.1592  0.2775 -0.1513
  971MOL0     H28161   2.009   4.293   2.937 -4.3191  0.8439  1.8579
  971MOL0     H28162   2.015   4.191   2.507  2.5534  1.9399  1.2415
  971MOL0     H28163   1.993   4.034   2.561 -1.1929  0.9137 -1.6033
  971MOL0     H28164   2.217   4.223   2.675  2.2057 -0.6235 -0.5538
  971MOL0     H28165   2.181   4.054   2.736 -1.2246 -0.7939 -0.1036
  971MOL0     H28166   2.237   4.120   2.442  0.6346 -1.0028  0.4210
  971MOL0     H28167   2.250   3.963   2.533 -3.6444  0.4251  2.0413
  971MOL0     H28168   2.476   4.106   2.475 -1.3078 -1.5829 -0.0176
  971MOL0     H28169   2.419   4.233   2.564  3.2501  0.2389 -1.6373
  971MOL0     H28170   2.602   3.899   2.794 -2.3106 -0.7744  1.9578
  971MOL0     H28171   1.875   4.372   2.536 -0.1650 -0.8480  0.2444
  971MOL0     H28172   1.853   4.609   2.588 -5.1052 -2.9772  0.4958
  972MOL0     O28173  10.483   1.304   3.033  0.1290 -0.6950  0.4285
  972MOL0     C28174  10.447   1.423   3.040  0.1518 -0.1911 -0.5139
  972MOL0     O28175  10.521   1.526   3.100 -0.3108 -0.4798 -0.1929
  972MOL0     C28176  10.650   1.523   3.152  0.1051 -1.0973 -0.5242
  972MOL0     C28177  10.707   1.650   3.175 -0.7277  0.5752 -0.2174
  972MOL0     C28178  10.814   1.671   3.259  0.1180 -0.2300 -0.7607
  972MOL0     C28179  10.894   1.561   3.310  0.4717  0.7956  0.9271
  972MOL0     O28180  11.005   1.589   3.380  0.0445 -0.7504  1.2035
  972MOL0     C28181  11.020   1.516   3.504  0.3555 -0.0479  0.5165
  972MOL0     C28182  11.148   1.561   3.576 -0.1757  0.3933 -0.2519
  972MOL0     C28183  11.152   1.500   3.717  0.7371  1.1251 -0.1295
  972MOL0     C28184  11.155   1.350   3.716 -0.3194 -0.2409  0.4897
  972MOL0     C28185  11.070   1.272   3.835 -0.0357  0.4330  0.2515
  972MOL0     C28186  11.097   1.334   3.975  0.1253  0.2248 -0.0655
  972MOL0     C28187  11.244   1.321   4.015 -0.3742  0.0317  0.2683
  972MOL0     C28188  11.295   1.177   4.036 -0.8558  0.0187  0.8721
  972MOL0     N28189  11.223   1.084   4.131 -0.6195 -0.1987  0.0102
  972MOL0     C28190  11.094   1.024   4.103  0.2604  0.3759 -0.0431
  972MOL0     C28191  11.055   0.988   4.230 -0.2546  0.5363 -1.1287
  972MOL0     C28192  10.942   0.897   4.285 -0.2144 -0.1594  0.1923
  972MOL0     C28193  10.914   0.790   4.179 -0.0944  0.2843  0.0586
  972MOL0     C28194  10.823   0.672   4.223 -0.0121  0.0830 -0.6276
  972MOL0     C28195  10.751   0.605   4.109 -0.8378 -0.1057 -0.6946
  972MOL0     O28196  10.835   0.596   3.993  0.2339 -0.6262 -0.4911
  972MOL0     C28197  10.788   0.557   3.873 -0.4175  0.1042  0.3203
  972MOL0     C28198  10.877   0.577   3.766 -0.2370  0.2361  0.3488
  972MOL0     C28199  10.828   0.554   3.638 -0.2704  0.8668  0.2380
  972MOL0     C28200  10.694   0.520   3.609  0.3992  0.1257 -0.5006
  972MOL0     C28201  10.646   0.496   3.471 -1.2990  0.5606  0.3679
  972MOL0     O28202  10.726   0.543   3.373  0.7159 -0.2493 -0.2995
  972MOL0     C28203  10.691   0.528   3.239 -0.6594 -1.0030 -0.0474
  972MOL0     C28204  10.702   0.646   3.168 -0.6413 -0.5841 -0.5044
  972MOL0     C28205  10.682   0.636   3.031  0.1714 -0.1290 -0.5693
  972MOL0     C28206  10.656   0.517   2.958  0.7018  0.5575  0.4620
  972MOL0     O28207  10.626   0.518   2.826 -0.3050  0.4084 -0.6107
  972MOL0     C28208  10.534   0.626   2.774  0.2654  0.3853 -0.9147
  972MOL0     C28209  10.463   0.560   2.649 -0.4069  0.1156  0.0086
  972MOL0     C28210  10.500   0.630   2.525  0.6213  0.0712  1.6741
  972MOL0     C28211  10.389   0.591   2.417  0.2310  0.9401  0.8063
  972MOL0     C28212  10.437   0.607   2.271 -0.3077 -0.7434 -0.1788
  972MOL0     C28213  10.528   0.723   2.235  0.1242 -0.2207  0.1947
  972MOL0     C28214  10.446   0.857   2.229  0.5542  0.0694  0.0798
  972MOL0     C28215  10.528   0.978   2.268  0.1708 -0.2901  0.5882
  972MOL0    Cl28216  10.437   1.126   2.270 -0.0124 -0.7654 -0.2572
  972MOL0     C28217  10.643   0.395   3.033 -0.0036 -0.9353 -0.7243
  972MOL0     C28218  10.660   0.402   3.177  0.1503 -0.3642  0.0536
  972MOL0     O28219  10.543   0.430   3.456  0.1780  0.4162 -0.4374
  972MOL0     C28220  10.608   0.504   3.719  0.2267  0.7576 -0.3369
  972MOL0     C28221  10.657   0.511   3.851 -0.6140 -0.0077 -0.0128
  972MOL0     N28222  11.151   1.026   4.316 -0.5139  0.0191 -0.3452
  972MOL0     N28223  11.252   1.091   4.265  0.3130  0.1012  0.9102
  972MOL0     C28224  10.841   1.432   3.275  0.1127  0.0406 -0.0326
  972MOL0     C28225  10.724   1.409   3.202 -0.1503 -0.4958  0.0220
  972MOL0     C28226  10.301   1.437   3.013 -0.4994 -0.9175 -0.1687
  972MOL0     C28227  10.224   1.340   2.957  0.5877  0.2277 -0.4406
  972MOL0     C28228  10.086   1.354   2.947  0.8205 -0.3852 -0.4565
  972MOL0     C28229  10.022   1.460   3.013  0.4933 -0.2034 -0.1283
  972MOL0     O28230   9.888   1.487   3.010  0.4304 -0.6055  0.7501
  972MOL0     C28231   9.795   1.407   2.944 -0.6291  0.3541 -0.5517
  972MOL0     C28232   9.679   1.492   2.892 -0.2168  0.2422  0.1290
  972MOL0     C28233   9.618   1.555   3.020 -0.1423 -0.5487  0.3130
  972MOL0     C28234   9.523   1.680   3.001  0.4691 -0.0862  0.5386
  972MOL0     C28235   9.404   1.627   2.936 -1.2777  0.2409 -0.3663
  972MOL0     C28236   9.298   1.597   2.890 -0.8734 -0.0938 -0.3210
  972MOL0     C28237  10.098   1.563   3.062 -0.1535 -0.4640  0.5923
  972MOL0     C28238  10.238   1.556   3.057  0.5901 -0.7701  0.1268
  972MOL0     H28239  10.657   1.738   3.137 -0.2749  1.2837  0.7776
  972MOL0     H28240  10.846   1.772   3.282 -2.7755  0.0249  3.0804
  972MOL0     H28241  11.004   1.409   3.493 -2.6268  0.4412 -1.1384
  972MOL0     H28242  10.934   1.534   3.571 -2.7055 -1.7113 -2.6550
  972MOL0     H28243  11.152   1.670   3.582  0.2700  0.3336  0.8527
  972MOL0     H28244  11.230   1.527   3.512 -0.4339 -1.9253  0.5612
  972MOL0     H28245  11.065   1.531   3.776  0.9093 -1.1156  1.4221
  972MOL0     H28246  11.241   1.533   3.772  1.4121 -1.3584  0.3817
  972MOL0     H28247  11.124   1.301   3.623  0.3447  0.6801 -0.2409
  972MOL0     H28248  11.260   1.324   3.731 -1.0022 -2.1446  2.4738
  972MOL0     H28249  11.092   1.166   3.824  2.3171  0.7057  1.5432
  972MOL0     H28250  10.963   1.281   3.814  0.1673  1.9785 -0.2604
  972MOL0     H28251  11.045   1.280   4.055  2.1513 -0.3270  0.9286
  972MOL0     H28252  11.064   1.438   3.984 -0.5258  0.1562 -1.4376
  972MOL0     H28253  11.305   1.382   3.948 -1.8242  0.7656 -0.4405
  972MOL0     H28254  11.252   1.361   4.117 -0.6038  1.8659 -0.3822
  972MOL0     H28255  11.400   1.186   4.064 -0.8774  2.0999  0.4607
  972MOL0     H28256  11.290   1.137   3.935  2.8601  2.4264 -0.4695
  972MOL0     H28257  11.042   1.005   4.009  1.1916 -1.8629 -0.1681
  972MOL0     H28258  10.859   0.967   4.298 -0.5235 -0.4106 -0.4066
  972MOL0     H28259  10.966   0.846   4.379 -1.0414 -1.3739 -0.2367
  972MOL0     H28260  11.007   0.745   4.140  0.5308 -0.1115  1.9226
  972MOL0     H28261  10.872   0.839   4.090  1.8125  1.5796 -0.1986
  972MOL0     H28262  10.875   0.597   4.283 -1.5609 -0.8973 -0.4626
  972MOL0     H28263  10.754   0.705   4.301 -1.1464 -1.0618 -1.1071
  972MOL0     H28264  10.667   0.670   4.082 -2.1037 -0.8192  1.2843
  972MOL0     H28265  10.705   0.508   4.134  1.2112 -0.5409  1.8287
  972MOL0     H28266  10.970   0.632   3.772  0.0438 -0.2852  0.9146
  972MOL0     H28267  10.893   0.583   3.556 -1.0350  1.5666 -0.1335
  972MOL0     H28268  10.727   0.744   3.206  0.7027 -1.7985  1.9740
  972MOL0     H28269  10.696   0.731   2.983  1.8462 -0.5563 -0.9878
  972MOL0     H28270  10.595   0.717   2.767  1.6280 -0.3813  0.4175
  972MOL0     H28271  10.456   0.647   2.847 -0.4382 -3.7999 -0.2362
  972MOL0     H28272  10.355   0.561   2.668 -0.0805 -0.3333  2.1533
  972MOL0     H28273  10.475   0.452   2.634 -0.4111  0.0412  0.5180
  972MOL0     H28274  10.595   0.591   2.488  0.3907  2.3187 -1.7668
  972MOL0     H28275  10.508   0.740   2.525  0.9301  0.0488  1.5599
  972MOL0     H28276  10.349   0.490   2.430 -0.2115  0.9609 -0.3125
  972MOL0     H28277  10.308   0.664   2.415  0.0981  0.7805 -0.1165
  972MOL0     H28278  10.354   0.608   2.199  1.6133 -1.8220 -2.5397
  972MOL0     H28279  10.495   0.516   2.249  1.5198  0.6361 -1.3838
  972MOL0     H28280  10.580   0.707   2.140 -0.5409  2.0658 -0.6073
  972MOL0     H28281  10.605   0.745   2.310 -0.4966  2.9140  0.0540
  972MOL0     H28282  10.406   0.873   2.128 -0.7876  3.4997  1.0116
  972MOL0     H28283  10.365   0.851   2.302  1.6047  2.1253  1.5069
  972MOL0     H28284  10.611   0.999   2.199 -0.5954  1.7204  0.2072
  972MOL0     H28285  10.577   0.967   2.366  1.6355 -1.6515 -0.2387
  972MOL0     H28286  10.639   0.301   2.980  1.1927 -3.0404  2.6404
  972MOL0     H28287  10.649   0.310   3.233 -0.4598 -1.6811 -2.1123
  972MOL0     H28288  10.508   0.465   3.707  0.3686  0.5889 -1.0721
  972MOL0     H28289  10.587   0.503   3.934 -0.9867  1.3859 -0.1606
  972MOL0     H28290  10.885   1.335   3.295 -2.2817 -1.3200 -0.9945
  972MOL0     H28291  10.688   1.313   3.166 -2.9182  1.4018 -2.7520
  972MOL0     H28292  10.268   1.247   2.922 -0.5990 -0.2386 -0.7418
  972MOL0     H28293  10.032   1.282   2.886  1.7999 -0.9601 -0.6505
  972MOL0     H28294   9.753   1.331   3.011  1.2915 -1.2572 -1.0590
  972MOL0     H28295   9.833   1.344   2.863 -0.6550 -3.4137  2.0695
  972MOL0     H28296   9.718   1.579   2.838  0.9268 -0.5315 -0.3285
  972MOL0     H28297   9.612   1.437   2.826  1.1423 -2.4753  0.8459
  972MOL0     H28298   9.695   1.591   3.088 -0.9767  0.2282  0.8718
  972MOL0     H28299   9.572   1.468   3.067 -2.0946 -0.4443 -1.2720
  972MOL0     H28300   9.492   1.719   3.099 -1.2558 -1.7147  0.7103
  972MOL0     H28301   9.584   1.750   2.944  0.4837 -2.1687 -2.1554
  972MOL0     H28302   9.215   1.559   2.834  0.3570 -2.7507 -0.4973
  972MOL0     H28303  10.055   1.642   3.122  3.0797 -0.3529  3.0185
  972MOL0     H28304  10.284   1.641   3.105 -0.9432  2.0643 -3.0127
  973MOL0     O28305  10.149  10.876   8.793  0.0937  0.4026  0.1723
  973MOL0     C28306  10.228  10.879   8.889  0.3162 -0.9086 -0.4431
  973MOL0     O28307  10.324  10.779   8.919 -0.1483 -0.0026 -0.2669
  973MOL0     C28308  10.336  10.665   8.844  0.2839  0.4936  0.1942
  973MOL0     C28309  10.234  10.563   8.842  0.2415  0.5258  0.2427
  973MOL0     C28310  10.251  10.449   8.764  0.2186 -0.2772  0.3067
  973MOL0     C28311  10.371  10.432   8.699  0.4276  0.7507  1.2038
  973MOL0     O28312  10.383  10.315   8.628 -0.4876  0.5152 -0.3192
  973MOL0     C28313  10.518  10.258   8.580  0.5750 -0.2260  0.2634
  973MOL0     C28314  10.500  10.149   8.482  0.3086  0.7248  0.2956
  973MOL0     C28315  10.630  10.096   8.417  0.2787  0.3693 -0.2035
  973MOL0     C28316  10.728  10.209   8.361  0.6416  0.7029  0.7133
  973MOL0     C28317  10.848  10.127   8.289 -0.0768 -0.2452 -0.1373
  973MOL0     C28318  10.956  10.219   8.227 -0.7549 -0.3629  0.7612
  973MOL0     C28319  11.085  10.157   8.165 -0.3530 -0.0381 -0.9462
  973MOL0     C28320  11.191  10.274   8.135 -0.1230  0.6376 -0.5749
  973MOL0     N28321  11.150  10.382   8.045 -0.1407 -0.5289 -0.2158
  973MOL0     C28322  11.093  10.372   7.923  0.5134  0.1531 -0.7524
  973MOL0     C28323  11.062  10.505   7.884 -0.7007  0.7616 -1.0438
  973MOL0     C28324  10.988  10.541   7.764  0.8004 -0.3133 -0.2820
  973MOL0     C28325  10.832  10.531   7.780 -0.8067 -0.6510  1.6205
  973MOL0     C28326  10.791  10.388   7.809 -0.2581 -0.4592 -0.9997
  973MOL0     C28327  10.637  10.364   7.806  0.2142  0.4148  0.0145
  973MOL0     O28328  10.634  10.239   7.875 -0.0170 -0.1751  0.7202
  973MOL0     C28329  10.511  10.210   7.923 -0.0267 -0.1541  0.0807
  973MOL0     C28330  10.507  10.134   8.038 -0.4553  1.2195  0.3146
  973MOL0     C28331  10.393  10.115   8.106  0.5284 -0.2261  1.2058
  973MOL0     C28332  10.272  10.169   8.053 -0.9786  1.2038 -0.9871
  973MOL0     C28333  10.148  10.154   8.134 -0.2989  1.0443 -0.6656
  973MOL0     O28334  10.166  10.087   8.255 -0.1163 -0.5195  0.1775
  973MOL0     C28335  10.067  10.113   8.350  0.0336 -0.7166  0.7367
  973MOL0     C28336  10.099  10.208   8.444  0.6093  0.1410  0.0057
  973MOL0     C28337  10.003  10.244   8.537  0.6075 -1.0040  0.1095
  973MOL0     C28338   9.871  10.189   8.538 -1.4664 -0.4193  0.3543
  973MOL0     O28339   9.798  10.222   8.652  0.7087  0.2365  0.7631
  973MOL0     C28340   9.688  10.145   8.699  0.3440  0.3132 -1.3873
  973MOL0     C28341   9.632  10.209   8.829  0.3234 -0.1835  0.9242
  973MOL0     C28342   9.740  10.225   8.928  0.5002 -0.0129  0.3275
  973MOL0     C28343   9.690  10.284   9.064  0.1362 -0.2620  0.3256
  973MOL0     C28344   9.793  10.269   9.171  0.2891  0.5841  0.7920
  973MOL0     C28345   9.762  10.367   9.290 -0.6850  0.1853 -0.0644
  973MOL0     C28346   9.885  10.376   9.384 -0.6172  0.7240  0.3479
  973MOL0     C28347   9.865  10.488   9.488 -0.5390  0.7576  0.2714
  973MOL0    Cl28348  10.011  10.515   9.592 -0.2267 -0.0751  0.3525
  973MOL0     C28349   9.838  10.090   8.439  0.3785 -0.8895 -0.8090
  973MOL0     C28350   9.936  10.058   8.348  0.4116 -0.4529 -0.4982
  973MOL0     O28351  10.041  10.207   8.092  0.2382  0.4374 -0.2976
  973MOL0     C28352  10.272  10.238   7.929 -0.5193  0.5043  0.2925
  973MOL0     C28353  10.392  10.256   7.870  0.3178  0.7377  0.7712
  973MOL0     N28354  11.111  10.587   7.978  0.6855  0.7224 -0.2164
  973MOL0     N28355  11.162  10.515   8.068 -0.5193 -0.1676 -0.4209
  973MOL0     C28356  10.471  10.528   8.694 -0.0626 -0.1837 -0.7106
  973MOL0     C28357  10.449  10.653   8.765  0.2527 -0.2759  0.6346
  973MOL0     C28358  10.251  11.004   8.967  0.7057 -1.0117  0.8706
  973MOL0     C28359  10.167  11.112   8.934  0.2666 -0.0085 -0.8845
  973MOL0     C28360  10.165  11.229   9.000 -0.1403  0.0508 -0.8329
  973MOL0     C28361  10.262  11.243   9.100  0.0381  0.1719  0.2305
  973MOL0     O28362  10.277  11.355   9.176 -0.2813  0.3463 -0.4507
  973MOL0     C28363  10.183  11.452   9.160  0.4615 -0.1172 -0.1334
  973MOL0     C28364  10.184  11.546   9.277 -0.5629 -0.7113  0.1999
  973MOL0     C28365  10.073  11.640   9.297  0.4043 -0.1081 -0.3511
  973MOL0     C28366  10.059  11.736   9.180 -0.0251  0.0458 -0.0788
  973MOL0     C28367   9.979  11.855   9.219  1.3211  0.4943  0.1735
  973MOL0     C28368   9.928  11.969   9.211  0.0751 -0.2947  0.5553
  973MOL0     C28369  10.349  11.144   9.120 -0.5872  0.8106 -0.5962
  973MOL0     C28370  10.345  11.021   9.056 -0.3842 -1.0695 -0.2089
  973MOL0     H28371  10.148  10.566   8.908 -2.2379  1.8368 -2.7875
  973MOL0     H28372  10.178  10.369   8.755 -0.8336  0.6411  0.5000
  973MOL0     H28373  10.576  10.218   8.664 -0.5321 -0.7232  0.8051
  973MOL0     H28374  10.564  10.342   8.528 -1.2982 -0.5629 -2.0826
  973MOL0     H28375  10.433  10.188   8.405 -0.2937 -3.3681 -1.4890
  973MOL0     H28376  10.447  10.074   8.541 -3.2497  1.3362 -1.8234
  973MOL0     H28377  10.602  10.035   8.331  0.0516  0.3629 -0.1249
  973MOL0     H28378  10.686  10.024   8.478 -1.4309  0.5227  1.6455
  973MOL0     H28379  10.671  10.267   8.287  0.5661 -0.5871 -0.2795
  973MOL0     H28380  10.773  10.275   8.436  0.9384  1.2920  0.0297
  973MOL0     H28381  10.817  10.049   8.219  0.8427 -0.4725 -0.3125
  973MOL0     H28382  10.901  10.071   8.366 -0.3347 -0.0148  0.2115
  973MOL0     H28383  10.985  10.294   8.301  4.3303 -0.5988 -0.6293
  973MOL0     H28384  10.915  10.267   8.138 -1.1417  0.8139  1.5446
  973MOL0     H28385  11.124  10.086   8.239 -1.2337  1.0969  0.6649
  973MOL0     H28386  11.063  10.115   8.067 -1.5823 -0.3800 -0.5397
  973MOL0     H28387  11.287  10.234   8.102  0.5709  0.3754  1.6162
  973MOL0     H28388  11.211  10.333   8.225  1.8812 -1.3625  0.3745
  973MOL0     H28389  11.069  10.283   7.866  0.5996  0.8469 -1.9058
  973MOL0     H28390  11.026  10.478   7.683 -2.2784 -1.2276 -1.1543
  973MOL0     H28391  11.014  10.643   7.735 -2.5910  0.7128 -0.1015
  973MOL0     H28392  10.789  10.569   7.686 -2.0571  0.0825  2.4626
  973MOL0     H28393  10.800  10.594   7.863  0.4116 -0.8567  2.2674
  973MOL0     H28394  10.831  10.332   7.724 -1.1991 -0.1910 -1.6240
  973MOL0     H28395  10.834  10.355   7.905 -0.8586 -3.5694 -1.6974
  973MOL0     H28396  10.598  10.370   7.704  1.6470  3.2857 -0.4803
  973MOL0     H28397  10.598  10.449   7.862 -1.1963 -1.1101  1.4714
  973MOL0     H28398  10.601  10.097   8.079 -3.3288 -3.2606  3.9474
  973MOL0     H28399  10.380  10.057   8.197 -1.6468 -2.8515 -0.6278
  973MOL0     H28400  10.202  10.242   8.441  0.8107 -0.4796 -2.6184
  973MOL0     H28401  10.021  10.326   8.606  2.7741 -0.2461 -1.2843
  973MOL0     H28402   9.718  10.040   8.712  0.9714  0.4112 -2.0455
  973MOL0     H28403   9.613  10.144   8.619 -1.7214 -2.9596  0.3398
  973MOL0     H28404   9.555  10.147   8.876 -1.8589  0.9952 -0.9000
  973MOL0     H28405   9.580  10.300   8.797  0.2069 -0.1514  1.2092
  973MOL0     H28406   9.806  10.300   8.882  0.2816 -0.8062 -1.3652
  973MOL0     H28407   9.790  10.128   8.938 -0.9201 -1.2655 -3.2116
  973MOL0     H28408   9.680  10.393   9.053  1.3539 -0.0137  1.4465
  973MOL0     H28409   9.593  10.240   9.089  1.1221 -1.6284  1.9058
  973MOL0     H28410   9.889  10.293   9.123  0.0989 -0.4475 -0.1308
  973MOL0     H28411   9.791  10.172   9.219 -0.6270  0.0548 -0.2547
  973MOL0     H28412   9.672  10.329   9.339 -0.7818  0.5871  0.0722
  973MOL0     H28413   9.741  10.468   9.253 -2.3606  0.1465  0.6936
  973MOL0     H28414   9.889  10.281   9.438 -3.5828  2.6779  4.5150
  973MOL0     H28415   9.974  10.401   9.325 -1.0954 -1.6232 -1.5486
  973MOL0     H28416   9.789  10.468   9.563  2.2189  0.9401  3.3264
  973MOL0     H28417   9.839  10.582   9.437 -0.0289  1.4044  1.1709
  973MOL0     H28418   9.739  10.046   8.443 -0.8428  1.7299  2.7853
  973MOL0     H28419   9.912   9.996   8.262 -0.2687  1.3765 -1.7077
  973MOL0     H28420  10.187  10.288   7.885 -1.1690 -0.4804  0.4045
  973MOL0     H28421  10.376  10.314   7.780  0.5132  0.3633  0.4939
  973MOL0     H28422  10.556  10.526   8.627  1.2718 -0.1281  0.9128
  973MOL0     H28423  10.532  10.722   8.781  1.0561 -1.0899  0.0927
  973MOL0     H28424  10.105  11.096   8.847  0.9943 -2.7729 -0.9888
  973MOL0     H28425  10.090  11.304   8.979  1.0594  1.6360  0.2689
  973MOL0     H28426  10.083  11.408   9.150  0.3303 -0.3129  1.6909
  973MOL0     H28427  10.203  11.500   9.063  1.9304 -0.3801  0.0244
  973MOL0     H28428  10.182  11.485   9.368 -0.7883  1.4179  1.6749
  973MOL0     H28429  10.280  11.597   9.275 -0.9875  0.1389  0.7495
  973MOL0     H28430  10.081  11.691   9.394  1.9536 -1.1285  0.0897
  973MOL0     H28431   9.985  11.576   9.308 -1.5539  1.7169 -3.8128
  973MOL0     H28432  10.158  11.776   9.158  2.2379 -3.7227  2.1328
  973MOL0     H28433  10.014  11.689   9.092 -0.6492 -1.4191  0.9716
  973MOL0     H28434   9.884  12.067   9.208 -0.6283 -0.6018  0.6223
  973MOL0     H28435  10.424  11.159   9.197 -3.3181  0.4319  2.3877
  973MOL0     H28436  10.415  10.946   9.090  0.3876 -0.2029  0.1577
  974MOL0     O28437   8.196   0.241   7.217 -0.1038 -0.0558 -0.4170
  974MOL0     C28438   8.301   0.277   7.165  0.6412 -0.2401 -0.2342
  974MOL0     O28439   8.375   0.380   7.209 -0.8006  0.0176 -0.0637
  974MOL0     C28440   8.337   0.459   7.312  0.4273  1.3404 -0.2740
  974MOL0     C28441   8.213   0.507   7.322 -0.7553  0.0845  0.3139
  974MOL0     C28442   8.183   0.595   7.434 -0.1258  0.3463  1.4489
  974MOL0     C28443   8.280   0.624   7.524  0.0118 -0.2624 -1.4378
  974MOL0     O28444   8.233   0.681   7.640  0.5196  0.3260 -0.2619
  974MOL0     C28445   8.310   0.792   7.693 -0.5521  0.3069 -0.9382
  974MOL0     C28446   8.376   0.742   7.822 -0.4071 -0.2619 -0.8229
  974MOL0     C28447   8.512   0.812   7.850  0.2243  0.2347 -0.2524
  974MOL0     C28448   8.511   0.967   7.840  0.5484  0.2761  0.0007
  974MOL0     C28449   8.407   1.041   7.924 -0.7398  0.0057 -0.0114
  974MOL0     C28450   8.426   1.025   8.070  0.0707  0.1781  0.6618
  974MOL0     C28451   8.323   1.098   8.165  0.0511  0.0097  1.1106
  974MOL0     C28452   8.383   1.084   8.310 -0.0983  0.2111  0.5089
  974MOL0     N28453   8.343   1.195   8.397 -0.4365 -0.3071  0.0316
  974MOL0     C28454   8.211   1.238   8.430  0.6287 -0.7167 -0.1078
  974MOL0     C28455   8.243   1.367   8.462  0.3372  1.1865  0.1650
  974MOL0     C28456   8.162   1.482   8.502  1.1153  0.5017  0.5712
  974MOL0     C28457   8.078   1.536   8.384 -0.5533 -0.4020  0.4067
  974MOL0     C28458   8.161   1.565   8.257  0.4458 -0.4700 -0.4799
  974MOL0     C28459   8.239   1.697   8.262 -0.3955 -0.0925  0.2154
  974MOL0     O28460   8.151   1.791   8.210  0.1950 -0.0718  0.0636
  974MOL0     C28461   8.194   1.917   8.190 -0.3745  0.5166 -0.6289
  974MOL0     C28462   8.324   1.957   8.221  0.5637 -0.3465  0.9140
  974MOL0     C28463   8.377   2.078   8.172 -0.7865  0.1564  0.2943
  974MOL0     C28464   8.301   2.152   8.079  0.1981  0.2585 -0.2493
  974MOL0     C28465   8.354   2.282   8.023 -0.2995  0.2753 -0.2541
  974MOL0     O28466   8.266   2.345   7.933 -0.1933 -0.0431 -0.8225
  974MOL0     C28467   8.290   2.470   7.873 -0.1096 -0.2032 -0.1726
  974MOL0     C28468   8.239   2.591   7.924 -0.4251 -0.8839  0.1689
  974MOL0     C28469   8.254   2.710   7.845  0.5512 -0.3804  0.1586
  974MOL0     C28470   8.306   2.705   7.717  0.0450 -0.7365  0.5447
  974MOL0     O28471   8.302   2.825   7.640  0.3852  0.3238 -0.1087
  974MOL0     C28472   8.426   2.862   7.581 -0.5991 -0.8003 -0.2396
  974MOL0     C28473   8.435   3.013   7.550 -0.0479 -0.1175 -0.5119
  974MOL0     C28474   8.392   3.096   7.676  0.5770  0.6623 -0.0897
  974MOL0     C28475   8.467   3.062   7.804 -0.2155 -0.3959 -0.0689
  974MOL0     C28476   8.606   3.136   7.797 -0.4661  0.8439 -0.0583
  974MOL0     C28477   8.688   3.108   7.926 -0.4748 -0.5328  1.0803
  974MOL0     C28478   8.821   3.186   7.928 -0.6238  0.3796  0.0445
  974MOL0     C28479   8.942   3.112   7.992  0.0016  0.0477  0.7330
  974MOL0    Cl28480   8.907   3.059   8.160 -0.4592 -0.1541  0.1305
  974MOL0     C28481   8.354   2.586   7.666 -0.5212 -0.3546 -1.1347
  974MOL0     C28482   8.355   2.472   7.754  0.3079  0.3327  0.3613
  974MOL0     O28483   8.467   2.328   8.045 -0.8500  0.2378  0.3859
  974MOL0     C28484   8.162   2.115   8.061  0.5191  0.2641 -0.1486
  974MOL0     C28485   8.120   1.995   8.113  0.2698  0.5409  0.4756
  974MOL0     N28486   8.375   1.384   8.484  0.3348  0.8990 -0.7474
  974MOL0     N28487   8.436   1.279   8.432 -0.2675 -0.2632  0.1403
  974MOL0     C28488   8.403   0.574   7.514 -0.1681 -0.9688  0.2872
  974MOL0     C28489   8.435   0.505   7.398 -0.1912  0.5132 -0.0504
  974MOL0     C28490   8.348   0.195   7.057 -0.1911 -0.2700 -0.2938
  974MOL0     C28491   8.325   0.059   7.058 -0.2428  0.4199  0.7588
  974MOL0     C28492   8.382  -0.023   6.953 -0.0891  0.5511  0.9100
  974MOL0     C28493   8.468   0.037   6.858 -0.0631  0.4262  0.3423
  974MOL0     O28494   8.520  -0.028   6.756 -0.3395 -0.0812  0.0983
  974MOL0     C28495   8.435  -0.031   6.640 -0.4289  0.1749  0.6910
  974MOL0     C28496   8.355  -0.164   6.632 -0.8180 -0.7928 -0.6296
  974MOL0     C28497   8.435  -0.282   6.574 -1.0307 -0.4300  1.2380
  974MOL0     C28498   8.556  -0.319   6.667  0.0814  0.4031 -0.0672
  974MOL0     C28499   8.607  -0.461   6.655 -0.7910 -0.5119 -0.4219
  974MOL0     C28500   8.647  -0.570   6.624  0.3584 -1.6750 -0.0328
  974MOL0     C28501   8.488   0.177   6.855 -0.6838 -0.4148 -0.4748
  974MOL0     C28502   8.421   0.263   6.953 -0.3039  1.0344 -0.1980
  974MOL0     H28503   8.142   0.491   7.241  0.1193  0.1761 -0.4942
  974MOL0     H28504   8.081   0.633   7.442 -1.1655 -0.9408 -2.7827
  974MOL0     H28505   8.238   0.871   7.715  0.9863  1.2063  1.1965
  974MOL0     H28506   8.385   0.837   7.627  2.0444 -4.1057 -1.3775
  974MOL0     H28507   8.398   0.635   7.815 -1.8187 -0.5504 -1.1366
  974MOL0     H28508   8.303   0.757   7.902  0.8739 -0.5570  0.4502
  974MOL0     H28509   8.581   0.778   7.772 -0.2996 -0.2840 -0.4948
  974MOL0     H28510   8.558   0.793   7.947 -2.0167  0.5050  0.9182
  974MOL0     H28511   8.609   1.014   7.855  1.6322 -2.2184  1.2455
  974MOL0     H28512   8.488   0.988   7.735  4.8236 -6.3364 -2.9025
  974MOL0     H28513   8.309   1.004   7.891 -1.0417  2.9327 -2.9991
  974MOL0     H28514   8.404   1.148   7.902  1.5737  1.1221  4.0554
  974MOL0     H28515   8.528   1.062   8.087  0.0582  0.5423 -0.0104
  974MOL0     H28516   8.425   0.917   8.090  3.4574 -0.6711 -2.5855
  974MOL0     H28517   8.306   1.200   8.131 -1.0453 -0.7994 -0.9251
  974MOL0     H28518   8.225   1.049   8.166 -1.6893  3.2186  0.2850
  974MOL0     H28519   8.492   1.091   8.306 -0.2239  1.7728 -1.0270
  974MOL0     H28520   8.346   0.990   8.354 -3.6801 -0.8552 -3.9580
  974MOL0     H28521   8.115   1.189   8.416  0.7271 -0.3336 -2.7071
  974MOL0     H28522   8.225   1.567   8.529  0.3602  1.3314 -0.1870
  974MOL0     H28523   8.101   1.456   8.588  1.3878 -0.6783  0.4190
  974MOL0     H28524   8.037   1.630   8.423 -0.4696 -0.2459  0.1234
  974MOL0     H28525   7.995   1.467   8.368 -0.5886 -0.3834  0.5053
  974MOL0     H28526   8.227   1.481   8.236  3.0533  1.2030  0.5556
  974MOL0     H28527   8.089   1.573   8.175 -1.7291 -0.4589  1.3306
  974MOL0     H28528   8.332   1.691   8.204  1.8372  0.1795  3.4969
  974MOL0     H28529   8.270   1.726   8.362 -0.9643  0.3446  0.2684
  974MOL0     H28530   8.389   1.896   8.283  3.0331  2.2627  1.0924
  974MOL0     H28531   8.481   2.094   8.198 -0.7197  0.5375 -0.1762
  974MOL0     H28532   8.195   2.592   8.023 -0.3170 -1.1749  0.2208
  974MOL0     H28533   8.230   2.809   7.881  0.8600 -0.3211  0.2088
  974MOL0     H28534   8.437   2.816   7.482 -0.9814 -2.8135  0.5904
  974MOL0     H28535   8.510   2.826   7.641  0.0071 -0.0314 -0.6138
  974MOL0     H28536   8.360   3.056   7.484  3.5394  3.2071 -2.8656
  974MOL0     H28537   8.535   3.039   7.513  2.0747 -2.5080  2.9150
  974MOL0     H28538   8.285   3.079   7.689  1.4181 -3.9709  3.4599
  974MOL0     H28539   8.399   3.200   7.642 -0.1724  0.2707 -1.5305
  974MOL0     H28540   8.399   3.088   7.885  0.5992 -0.1453  0.5483
  974MOL0     H28541   8.482   2.954   7.802 -1.9225 -0.6678 -1.9916
  974MOL0     H28542   8.597   3.244   7.781  0.4505  0.8933 -0.2564
  974MOL0     H28543   8.650   3.094   7.706  1.3765  0.3904  0.9991
  974MOL0     H28544   8.703   3.000   7.922  0.5533 -0.3445 -1.4886
  974MOL0     H28545   8.630   3.139   8.014 -1.8946  0.3331 -0.1158
  974MOL0     H28546   8.858   3.222   7.832 -0.4909  1.1467  0.3784
  974MOL0     H28547   8.799   3.283   7.973 -2.5046 -0.5342  1.2099
  974MOL0     H28548   9.022   3.186   7.985  1.5746 -1.6712 -0.4884
  974MOL0     H28549   8.975   3.017   7.949  2.2986  0.9648  0.3124
  974MOL0     H28550   8.408   2.587   7.572  1.4031  0.5010 -0.0943
  974MOL0     H28551   8.404   2.380   7.723 -0.7069  0.2114 -0.9579
  974MOL0     H28552   8.095   2.159   7.988 -0.4616  1.4222  1.3855
  974MOL0     H28553   8.025   1.956   8.077  2.8974 -1.4184 -5.7250
  974MOL0     H28554   8.481   0.596   7.586  1.9954 -1.0931 -1.9050
  974MOL0     H28555   8.536   0.471   7.378  0.2548  1.7561  0.0172
  974MOL0     H28556   8.279   0.007   7.141 -2.3734  4.5962  2.4823
  974MOL0     H28557   8.371  -0.131   6.955 -0.7913  0.6257  1.2873
  974MOL0     H28558   8.488  -0.021   6.545 -2.2028 -2.1385 -0.6203
  974MOL0     H28559   8.356   0.044   6.649  0.6340  1.3536  0.4714
  974MOL0     H28560   8.322  -0.192   6.733 -2.1224 -0.4288 -0.9352
  974MOL0     H28561   8.262  -0.147   6.577 -2.0555 -1.6419  1.1068
  974MOL0     H28562   8.479  -0.247   6.481 -1.2852  1.1472  1.6805
  974MOL0     H28563   8.385  -0.379   6.564  1.9235 -1.8926 -0.4968
  974MOL0     H28564   8.638  -0.249   6.649  0.4078  0.2586  0.8078
  974MOL0     H28565   8.531  -0.295   6.771  0.1992  2.1150 -0.4031
  974MOL0     H28566   8.677  -0.669   6.596  1.2676 -1.2206 -0.7343
  974MOL0     H28567   8.560   0.220   6.787 -0.5691  3.9750  2.0393
  974MOL0     H28568   8.435   0.371   6.951 -1.0335  1.1922  1.4030
  975MOL0     O28569   7.225   1.868   3.769  0.3979  0.0083 -0.2795
  975MOL0     C28570   7.162   1.839   3.663 -0.1187 -0.0553  0.1900
  975MOL0     O28571   7.024   1.842   3.651 -0.5337  0.5487 -0.0859
  975MOL0     C28572   6.948   1.913   3.739 -0.5766 -0.7832 -0.2989
  975MOL0     C28573   6.862   1.860   3.837  0.7336 -0.2292 -0.7209
  975MOL0     C28574   6.789   1.938   3.929  0.5350 -0.0908 -1.1015
  975MOL0     C28575   6.790   2.079   3.907 -0.2707  0.1062  0.1402
  975MOL0     O28576   6.704   2.149   3.988 -0.2558  0.4236  0.3005
  975MOL0     C28577   6.765   2.224   4.092  0.1615 -0.4922  0.2389
  975MOL0     C28578   6.685   2.221   4.226  1.6474 -0.3763 -0.3567
  975MOL0     C28579   6.770   2.272   4.348  0.7160  0.7154 -0.5906
  975MOL0     C28580   6.666   2.308   4.455  0.2992  0.4917 -0.7503
  975MOL0     C28581   6.738   2.290   4.593 -0.1229  0.0595 -0.1517
  975MOL0     C28582   6.631   2.311   4.698  0.0533  0.2732  1.1282
  975MOL0     C28583   6.693   2.287   4.838 -0.8849 -0.0918 -0.1042
  975MOL0     C28584   6.606   2.345   4.964  0.2835  0.4337  0.4345
  975MOL0     N28585   6.655   2.285   5.089  0.0214  0.5534  0.1009
  975MOL0     C28586   6.729   2.354   5.186  0.5763  1.1998  0.2908
  975MOL0     C28587   6.769   2.264   5.270  0.1802  1.0133 -1.1716
  975MOL0     C28588   6.839   2.290   5.398  0.3884  0.7841 -0.6952
  975MOL0     C28589   6.967   2.212   5.406  0.2055 -0.1288 -0.2261
  975MOL0     C28590   7.078   2.267   5.307  0.4910  0.4359 -0.7594
  975MOL0     C28591   7.179   2.344   5.394 -0.3335  0.7343 -0.9290
  975MOL0     O28592   7.274   2.404   5.314 -0.6410 -0.0712 -0.5331
  975MOL0     C28593   7.379   2.470   5.371 -0.2424 -0.1549 -0.3456
  975MOL0     C28594   7.407   2.475   5.503 -0.3804 -0.6403 -0.3749
  975MOL0     C28595   7.515   2.555   5.551  0.1656  0.2331 -0.0281
  975MOL0     C28596   7.599   2.631   5.457  0.6046  0.1203  0.0415
  975MOL0     C28597   7.713   2.713   5.500  0.0747  0.3388 -0.2546
  975MOL0     O28598   7.757   2.692   5.623 -0.2743 -0.2750 -0.0283
  975MOL0     C28599   7.866   2.780   5.650 -0.9158  0.7118 -0.4443
  975MOL0     C28600   7.991   2.728   5.633  0.1545  0.7814  0.7361
  975MOL0     C28601   8.109   2.805   5.674  0.3283  1.4472  0.8661
  975MOL0     C28602   8.099   2.929   5.723  0.0127 -0.2388 -0.7692
  975MOL0     O28603   8.210   2.987   5.775  0.0318 -0.4916  0.6245
  975MOL0     C28604   8.195   3.116   5.836 -0.2840  0.5699  0.3320
  975MOL0     C28605   8.337   3.138   5.904 -0.4995 -0.1789 -0.0935
  975MOL0     C28606   8.315   3.265   5.988 -1.0250  0.6281  0.8556
  975MOL0     C28607   8.242   3.233   6.114 -0.1982 -0.1195  0.8414
  975MOL0     C28608   8.282   3.335   6.227 -0.5289  0.7052  0.7389
  975MOL0     C28609   8.239   3.282   6.360 -0.5640 -0.0278 -0.2254
  975MOL0     C28610   8.280   3.369   6.476  0.2429  0.1650  0.3896
  975MOL0     C28611   8.164   3.391   6.583  0.2673 -0.2350  0.9445
  975MOL0    Cl28612   8.224   3.479   6.724  0.0336 -0.2800 -0.1083
  975MOL0     C28613   7.968   2.977   5.746 -0.0020  0.0007  0.3874
  975MOL0     C28614   7.856   2.907   5.697 -0.9838  0.4753 -0.5406
  975MOL0     O28615   7.759   2.786   5.410  0.2348  0.1879  0.1212
  975MOL0     C28616   7.570   2.622   5.319 -0.8069  0.8384  0.2820
  975MOL0     C28617   7.456   2.545   5.284 -1.1263 -0.6995  0.3513
  975MOL0     N28618   6.733   2.142   5.217  0.6271 -0.3329  0.5873
  975MOL0     N28619   6.656   2.155   5.116  0.4129  0.4875 -0.0931
  975MOL0     C28620   6.880   2.137   3.818 -0.0241  1.1907 -0.2829
  975MOL0     C28621   6.959   2.051   3.739 -0.6350  0.0190 -0.5994
  975MOL0     C28622   7.237   1.798   3.541  1.0189 -0.6034  0.4405
  975MOL0     C28623   7.358   1.732   3.552 -1.4478  0.7323 -0.7051
  975MOL0     C28624   7.428   1.671   3.447 -0.2032 -0.3030  0.3170
  975MOL0     C28625   7.374   1.681   3.315  0.4381  0.4975 -0.0435
  975MOL0     O28626   7.415   1.598   3.210  0.2138  0.3145 -0.2968
  975MOL0     C28627   7.541   1.664   3.151  0.0457 -0.1876 -0.3290
  975MOL0     C28628   7.566   1.602   3.022  0.2078  0.0297  0.4417
  975MOL0     C28629   7.477   1.666   2.916 -0.2281  1.1935 -1.0417
  975MOL0     C28630   7.493   1.592   2.778 -0.5099 -0.0528 -0.1664
  975MOL0     C28631   7.391   1.644   2.683  0.7097  0.0842  0.1317
  975MOL0     C28632   7.302   1.664   2.602  0.4113  1.3591  0.6454
  975MOL0     C28633   7.243   1.732   3.312 -0.6611  0.5335  0.3670
  975MOL0     C28634   7.173   1.787   3.418 -0.6131 -0.4677  0.3777
  975MOL0     H28635   6.855   1.753   3.858 -2.2543 -0.3215 -1.6815
  975MOL0     H28636   6.720   1.908   4.008  1.7093  0.6572  0.2458
  975MOL0     H28637   6.781   2.330   4.070 -1.7238 -0.0756  0.7381
  975MOL0     H28638   6.868   2.190   4.111  0.0635  0.2655  2.5071
  975MOL0     H28639   6.654   2.117   4.239  1.8979 -0.4350 -0.2302
  975MOL0     H28640   6.595   2.282   4.214  1.2652 -0.6467  1.0186
  975MOL0     H28641   6.831   2.362   4.334  1.4253  0.1564 -1.1493
  975MOL0     H28642   6.843   2.200   4.387  0.3595  0.8989  0.4605
  975MOL0     H28643   6.619   2.407   4.451 -2.4593 -0.5478  1.7639
  975MOL0     H28644   6.586   2.233   4.458  0.1190  0.6778 -0.8648
  975MOL0     H28645   6.820   2.359   4.616 -2.6213  2.9252  0.8427
  975MOL0     H28646   6.776   2.188   4.605  2.6353  0.9298 -0.7270
  975MOL0     H28647   6.546   2.244   4.680  0.4009 -1.0560  3.8378
  975MOL0     H28648   6.591   2.413   4.690  0.5596  0.4642  0.9731
  975MOL0     H28649   6.696   2.178   4.848 -0.7052 -0.5028 -3.4720
  975MOL0     H28650   6.798   2.320   4.833 -0.3711 -1.8399 -1.9951
  975MOL0     H28651   6.499   2.326   4.950  0.2156 -1.6905  3.0211
  975MOL0     H28652   6.623   2.453   4.971 -4.0136  1.1994  2.2574
  975MOL0     H28653   6.749   2.460   5.195 -0.9232  1.6628 -1.2870
  975MOL0     H28654   6.783   2.243   5.480  4.7886 -2.1938  0.9854
  975MOL0     H28655   6.853   2.396   5.421  1.5324  1.2553 -3.2329
  975MOL0     H28656   6.933   2.110   5.382  0.5618 -0.5093  0.8463
  975MOL0     H28657   6.995   2.189   5.509  1.3356 -2.8733 -1.0443
  975MOL0     H28658   7.126   2.181   5.261  0.9119  1.0189 -1.4400
  975MOL0     H28659   7.035   2.332   5.229  1.8589  0.2272 -1.7223
  975MOL0     H28660   7.229   2.267   5.453  0.6413  1.9360 -0.1338
  975MOL0     H28661   7.126   2.405   5.468  1.1241 -1.2139  1.8895
  975MOL0     H28662   7.337   2.418   5.563 -2.1513  2.4634  0.7705
  975MOL0     H28663   7.531   2.564   5.658 -2.5472  2.5718  0.3128
  975MOL0     H28664   8.005   2.629   5.591 -1.5107  1.9099 -2.9188
  975MOL0     H28665   8.211   2.770   5.659  0.4503  1.0400  2.4809
  975MOL0     H28666   8.120   3.112   5.915 -0.7569  0.0516 -0.1327
  975MOL0     H28667   8.172   3.192   5.761  1.1857  0.5035 -0.2263
  975MOL0     H28668   8.410   3.143   5.822 -2.2704 -0.6425 -1.7868
  975MOL0     H28669   8.365   3.058   5.973  0.1940  1.1697  1.2323
  975MOL0     H28670   8.270   3.351   5.938  1.9161  1.1798 -1.0704
  975MOL0     H28671   8.411   3.304   6.022 -0.1669 -1.6066  1.1538
  975MOL0     H28672   8.136   3.250   6.093 -0.2907  2.1005  2.6962
  975MOL0     H28673   8.234   3.126   6.139  0.9879 -1.0252 -2.2294
  975MOL0     H28674   8.233   3.433   6.218  0.6448  1.6428  3.6003
  975MOL0     H28675   8.390   3.344   6.222 -0.3937 -0.9884 -2.1513
  975MOL0     H28676   8.276   3.180   6.368 -0.2398  0.1301  0.3963
  975MOL0     H28677   8.129   3.280   6.361 -0.6609  0.4858  3.0167
  975MOL0     H28678   8.363   3.316   6.524 -1.8768 -3.2543  0.6602
  975MOL0     H28679   8.306   3.465   6.431  1.9262 -0.0120  0.8935
  975MOL0     H28680   8.115   3.297   6.611 -2.2791  1.2923  2.0724
  975MOL0     H28681   8.083   3.453   6.543  2.5489  0.5854 -2.8701
  975MOL0     H28682   7.955   3.078   5.783 -0.9232 -0.4234  1.2784
  975MOL0     H28683   7.758   2.953   5.696 -0.7286  1.0111 -0.9280
  975MOL0     H28684   7.630   2.668   5.241  1.5279 -1.6084  0.4619
  975MOL0     H28685   7.430   2.548   5.179 -2.8920 -1.6732  0.7192
  975MOL0     H28686   6.895   2.244   3.803  2.9167  0.8403 -0.5605
  975MOL0     H28687   7.018   2.092   3.658 -0.9679  3.7302  0.8529
  975MOL0     H28688   7.405   1.728   3.651  2.6235 -1.6616 -2.4702
  975MOL0     H28689   7.518   1.616   3.474  0.5741  1.0849  0.6559
  975MOL0     H28690   7.621   1.648   3.224 -1.4038 -0.5775  1.2433
  975MOL0     H28691   7.509   1.768   3.138 -2.4511 -0.6500  1.3579
  975MOL0     H28692   7.674   1.617   3.009  0.3040  0.5043  1.6390
  975MOL0     H28693   7.558   1.493   3.028 -0.7485 -0.0781 -1.8086
  975MOL0     H28694   7.490   1.775   2.916  0.1004  1.1814 -2.8066
  975MOL0     H28695   7.381   1.640   2.960  1.0392  0.3460  1.4447
  975MOL0     H28696   7.598   1.590   2.745  0.0508  0.4067  1.5179
  975MOL0     H28697   7.470   1.485   2.784  0.0074 -0.0969  1.3643
  975MOL0     H28698   7.229   1.685   2.526 -0.1301 -1.6834  0.1624
  975MOL0     H28699   7.182   1.727   3.223  3.1472 -0.0803 -2.4848
  975MOL0     H28700   7.070   1.816   3.403 -0.5885 -1.3418 -1.8402
  976MOL0     O28701   7.281  11.070   1.380  0.4361  0.0449  0.7013
  976MOL0     C28702   7.266  11.018   1.492  0.5968 -0.2101  0.6954
  976MOL0     O28703   7.315  10.904   1.540  0.1201 -0.2722 -0.7553
  976MOL0     C28704   7.375  10.829   1.446  0.8318  0.6187 -0.2967
  976MOL0     C28705   7.503  10.800   1.444  1.1259 -0.9220 -0.2144
  976MOL0     C28706   7.556  10.707   1.357  0.6038  0.4358 -0.0122
  976MOL0     C28707   7.482  10.608   1.285  0.1979 -2.0223 -0.2102
  976MOL0     O28708   7.541  10.520   1.208  0.7027  0.2021  0.1390
  976MOL0     C28709   7.489  10.385   1.224 -0.2791 -0.2424  0.1518
  976MOL0     C28710   7.578  10.305   1.127  0.4465 -0.0188  0.2048
  976MOL0     C28711   7.519  10.165   1.100 -1.0451 -1.5676  0.0991
  976MOL0     C28712   7.599  10.086   0.999  0.5066  0.3462  0.1064
  976MOL0     C28713   7.530   9.952   0.945  0.6807  1.4117 -0.5140
  976MOL0     C28714   7.457   9.869   1.043  0.2777  0.1783 -0.1008
  976MOL0     C28715   7.426   9.734   0.981 -0.0588 -0.6349  0.2640
  976MOL0     C28716   7.542   9.631   0.984 -0.3170  0.2097  0.2492
  976MOL0     N28717   7.495   9.511   0.915  0.1319  1.0597 -0.3658
  976MOL0     C28718   7.386   9.451   0.972 -0.5205  0.5473  0.7965
  976MOL0     C28719   7.352   9.368   0.864 -1.2305 -0.2480 -0.3501
  976MOL0     C28720   7.223   9.301   0.850 -0.1436 -0.0598  0.0461
  976MOL0     C28721   7.114   9.375   0.769 -0.9412 -0.4597 -0.8659
  976MOL0     C28722   6.990   9.392   0.861  1.0332  0.2526 -0.8568
  976MOL0     C28723   6.994   9.517   0.946  0.4923 -0.1679  0.8587
  976MOL0     O28724   6.997   9.643   0.873  0.0481 -0.1069  0.7246
  976MOL0     C28725   7.025   9.764   0.935  0.4861  0.7908  0.5936
  976MOL0     C28726   7.107   9.858   0.881 -0.5718  0.7448  0.9182
  976MOL0     C28727   7.140   9.977   0.953  0.4423 -0.3369 -0.0983
  976MOL0     C28728   7.073  10.009   1.071  0.2015 -0.5897  0.7842
  976MOL0     C28729   7.085  10.137   1.149 -0.7208  0.9261  0.1460
  976MOL0     O28730   6.989  10.161   1.238  0.1579  0.6661  0.4302
  976MOL0     C28731   7.006  10.264   1.326 -1.3219  0.3382  0.3028
  976MOL0     C28732   6.998  10.251   1.460 -0.0497  0.6649 -0.6555
  976MOL0     C28733   7.021  10.356   1.554  0.1546  0.5936 -0.8426
  976MOL0     C28734   7.032  10.488   1.515 -0.1441 -0.9900 -0.7119
  976MOL0     O28735   7.036  10.593   1.607 -0.0975 -0.6032  0.1063
  976MOL0     C28736   6.972  10.721   1.573  0.9297  1.1522 -0.6516
  976MOL0     C28737   6.822  10.719   1.584  0.1003  0.9387 -0.1669
  976MOL0     C28738   6.757  10.858   1.610 -0.5318  0.6651 -0.2949
  976MOL0     C28739   6.773  10.879   1.766 -0.0578 -0.2296  0.1516
  976MOL0     C28740   6.700  11.002   1.811 -0.8287 -0.3692 -1.1349
  976MOL0     C28741   6.718  11.011   1.966 -1.1134  0.2852  0.1815
  976MOL0     C28742   6.643  11.125   2.032 -0.0781  0.3953 -0.7084
  976MOL0     C28743   6.609  11.087   2.189  0.3312  0.0501 -0.4151
  976MOL0    Cl28744   6.440  11.150   2.223 -0.2391 -0.3075  0.4091
  976MOL0     C28745   7.038  10.506   1.371 -0.8773  0.9592 -0.3315
  976MOL0     C28746   7.039  10.401   1.282  0.1417 -1.1140  0.1107
  976MOL0     O28747   7.196  10.191   1.141  0.5542 -0.3276  0.0295
  976MOL0     C28748   6.990   9.912   1.125  0.1141 -0.5041 -0.1305
  976MOL0     C28749   6.983   9.783   1.068 -0.1108 -0.8262 -0.0958
  976MOL0     N28750   7.436   9.376   0.757  0.2029 -0.2040  0.0126
  976MOL0     N28751   7.526   9.468   0.791 -0.3872  0.5679 -0.2642
  976MOL0     C28752   7.343  10.633   1.294 -0.2251 -0.3666  0.0594
  976MOL0     C28753   7.296  10.740   1.368 -0.7940  0.4605 -0.6159
  976MOL0     C28754   7.175  11.089   1.581 -0.5365  0.2587 -0.7792
  976MOL0     C28755   7.175  11.047   1.720 -0.4445  0.2299 -0.0684
  976MOL0     C28756   7.087  11.107   1.812 -0.3070 -0.1614 -0.5244
  976MOL0     C28757   6.997  11.198   1.769 -0.0489 -0.6062 -0.5854
  976MOL0     O28758   6.905  11.257   1.862 -0.2437  0.0375 -0.5080
  976MOL0     C28759   6.974  11.332   1.978 -0.1048  0.4237  0.1767
  976MOL0     C28760   7.031  11.474   1.941  0.4045  0.4387  0.5073
  976MOL0     C28761   7.174  11.469   1.880  0.2842  0.1034 -0.1857
  976MOL0     C28762   7.273  11.577   1.948 -0.4016  0.2202 -0.3310
  976MOL0     C28763   7.240  11.715   1.924  0.1279 -0.5431  0.4105
  976MOL0     C28764   7.192  11.824   1.922 -0.0625 -0.1931 -0.7768
  976MOL0     C28765   6.991  11.244   1.637 -0.2317 -1.0707  0.5777
  976MOL0     C28766   7.078  11.183   1.544  0.0808  0.6718 -0.2117
  976MOL0     H28767   7.560  10.864   1.511  0.1973  1.9328 -1.9426
  976MOL0     H28768   7.664  10.706   1.347  0.5435 -2.5240 -1.5187
  976MOL0     H28769   7.389  10.375   1.182 -1.6519  1.5116  2.7467
  976MOL0     H28770   7.492  10.338   1.324 -0.9212  0.4406  0.4973
  976MOL0     H28771   7.673  10.288   1.178  0.9659  2.6595  0.2687
  976MOL0     H28772   7.597  10.357   1.033  1.0303 -0.8912 -0.1740
  976MOL0     H28773   7.414  10.174   1.069 -1.3065 -2.9795  0.5256
  976MOL0     H28774   7.529  10.114   1.196  3.0914 -0.6704  0.3313
  976MOL0     H28775   7.638  10.148   0.918 -1.2537 -0.6313 -1.5650
  976MOL0     H28776   7.686  10.052   1.056 -2.1939 -3.6652  2.3273
  976MOL0     H28777   7.611   9.903   0.891 -1.5894 -1.0153 -1.9811
  976MOL0     H28778   7.458   9.987   0.870 -1.2373  1.6198  1.3256
  976MOL0     H28779   7.371   9.922   1.083  1.7795  2.8004 -0.0880
  976MOL0     H28780   7.523   9.845   1.127  1.0873 -0.1187 -0.8056
  976MOL0     H28781   7.342   9.694   1.037 -1.2652  1.5335  0.1035
  976MOL0     H28782   7.396   9.753   0.877  0.1092 -2.0644 -0.0747
  976MOL0     H28783   7.564   9.601   1.087  2.2059 -1.7018 -0.7488
  976MOL0     H28784   7.636   9.676   0.952  1.2056 -1.5557  1.9968
  976MOL0     H28785   7.326   9.458   1.062 -1.8598 -2.0867  0.2216
  976MOL0     H28786   7.180   9.276   0.948  1.4329 -2.8559  0.1462
  976MOL0     H28787   7.230   9.202   0.804 -2.5101 -0.7212  0.9622
  976MOL0     H28788   7.089   9.310   0.685 -0.3615 -1.5894 -0.1909
  976MOL0     H28789   7.138   9.468   0.718 -2.7515  0.7035  0.2525
  976MOL0     H28790   6.903   9.393   0.794 -0.6987  0.9114  1.2727
  976MOL0     H28791   6.972   9.307   0.927  5.3079  0.5517  1.0367
  976MOL0     H28792   7.080   9.501   1.011  0.5858  0.4793  0.9022
  976MOL0     H28793   6.903   9.517   1.006 -0.4669 -1.9643 -0.5099
  976MOL0     H28794   7.147   9.830   0.784 -1.2850 -0.7543  1.0271
  976MOL0     H28795   7.204  10.038   0.890  0.9779 -0.5039  0.2851
  976MOL0     H28796   6.998  10.156   1.512  2.6164 -0.7231 -2.8910
  976MOL0     H28797   6.999  10.334   1.658  2.4920  1.8297 -0.0321
  976MOL0     H28798   6.995  10.748   1.469 -0.1354 -1.2753 -1.6049
  976MOL0     H28799   7.004  10.799   1.643  0.9936  0.6084 -0.0706
  976MOL0     H28800   6.794  10.657   1.670 -0.5654  1.5218  0.0458
  976MOL0     H28801   6.769  10.677   1.498 -1.5593 -1.1403  1.7514
  976MOL0     H28802   6.649  10.858   1.591 -0.6269  0.3536  0.2072
  976MOL0     H28803   6.797  10.942   1.552 -1.9272 -0.1023 -2.4870
  976MOL0     H28804   6.722  10.792   1.808 -1.3312  0.4252  0.0082
  976MOL0     H28805   6.878  10.885   1.795 -0.4148 -2.4734  2.2474
  976MOL0     H28806   6.593  10.997   1.789 -0.8575 -0.7898 -0.9082
  976MOL0     H28807   6.745  11.087   1.759  0.2038 -2.4613 -3.8975
  976MOL0     H28808   6.817  11.004   2.010 -0.1153 -0.2051 -2.0145
  976MOL0     H28809   6.663  10.921   1.996 -2.6289  0.9747 -0.3748
  976MOL0     H28810   6.709  11.212   2.028  3.8051 -2.1711  0.9522
  976MOL0     H28811   6.543  11.135   1.990 -1.3031 -2.1544  1.3061
  976MOL0     H28812   6.672  11.133   2.265 -0.5938 -0.3404  0.6053
  976MOL0     H28813   6.622  10.979   2.205  2.0178  0.1070 -1.1850
  976MOL0     H28814   7.063  10.602   1.327  3.3424  0.2516  0.0504
  976MOL0     H28815   7.045  10.425   1.176 -0.2773 -1.3096  0.0389
  976MOL0     H28816   6.939   9.935   1.218  1.1388  1.6878 -0.0588
  976MOL0     H28817   6.942   9.705   1.132  1.7663 -0.8979  1.1071
  976MOL0     H28818   7.282  10.564   1.236 -3.1296  2.5619 -0.6661
  976MOL0     H28819   7.189  10.755   1.360 -0.7568  0.3092 -1.5834
  976MOL0     H28820   7.243  10.977   1.766 -1.8099  0.1701  1.9981
  976MOL0     H28821   7.091  11.066   1.913 -1.1306 -0.6013 -0.6594
  976MOL0     H28822   7.044  11.262   2.023  0.2805  1.6355  1.5533
  976MOL0     H28823   6.891  11.348   2.047  1.5177  0.2387  2.2869
  976MOL0     H28824   6.965  11.520   1.867  2.4879 -1.4104 -2.7487
  976MOL0     H28825   7.024  11.540   2.027  0.5879 -1.4508  2.0377
  976MOL0     H28826   7.171  11.488   1.772 -1.3188  0.6515 -0.0736
  976MOL0     H28827   7.211  11.366   1.879 -0.8895 -0.3437 -1.7161
  976MOL0     H28828   7.275  11.543   2.052 -0.5994 -0.8840 -0.6738
  976MOL0     H28829   7.373  11.543   1.919  0.5415  2.2728  0.3936
  976MOL0     H28830   7.143  11.919   1.933 -1.5023 -1.1744  2.2679
  976MOL0     H28831   6.911  11.311   1.607  1.6151  1.1859  0.3949
  976MOL0     H28832   7.066  11.207   1.439  0.7086  1.0453 -0.2014
  977MOL0     O28833   1.930  10.064   0.572  0.0894 -0.4964 -0.4878
  977MOL0     C28834   1.813  10.021   0.586 -0.7944 -1.0788 -0.0851
  977MOL0     O28835   1.697  10.082   0.528  0.5357  0.2557 -0.0509
  977MOL0     C28836   1.697  10.224   0.534  0.1941 -0.5408  0.2227
  977MOL0     C28837   1.751  10.299   0.416  0.3386 -0.6175 -0.2370
  977MOL0     C28838   1.758  10.442   0.415  0.6710  0.2465  0.6543
  977MOL0     C28839   1.699  10.511   0.519 -0.8813  0.9447  0.2828
  977MOL0     O28840   1.677  10.645   0.505 -0.1715  0.3425 -0.2678
  977MOL0     C28841   1.637  10.726   0.612 -0.2563 -0.3850  0.5307
  977MOL0     C28842   1.686  10.868   0.589  0.1178  0.3953  0.5337
  977MOL0     C28843   1.594  10.957   0.512  0.0336 -0.5071  0.3771
  977MOL0     C28844   1.604  10.929   0.365  0.4893 -0.4999 -0.8698
  977MOL0     C28845   1.508  11.013   0.279 -0.7222  0.4169  0.0888
  977MOL0     C28846   1.360  10.976   0.269 -0.1252  0.7478  0.1350
  977MOL0     C28847   1.351  10.867   0.169 -0.8157  0.7522 -0.0727
  977MOL0     C28848   1.218  10.792   0.149  0.3662  0.0275 -0.2633
  977MOL0     N28849   1.118  10.874   0.084 -0.1828  0.0438  0.2907
  977MOL0     C28850   1.039  10.832  -0.015 -0.1914 -0.6384 -0.6678
  977MOL0     C28851   0.970  10.938  -0.048 -0.6034  0.7603 -0.5998
  977MOL0     C28852   0.876  10.939  -0.167 -1.0441 -0.6079 -0.2219
  977MOL0     C28853   0.730  10.959  -0.136 -0.0430  1.3551 -0.1726
  977MOL0     C28854   0.632  10.901  -0.239 -0.3874  0.1944  0.6169
  977MOL0     C28855   0.594  10.998  -0.353 -0.1146 -0.1654 -0.1171
  977MOL0     O28856   0.468  10.951  -0.411 -0.7212 -0.4958  0.2749
  977MOL0     C28857   0.482  10.910  -0.538 -0.5097 -1.0549 -0.3823
  977MOL0     C28858   0.526  10.781  -0.582  0.1046 -0.1603 -0.8474
  977MOL0     C28859   0.552  10.744  -0.711  0.6376  0.2626 -0.6788
  977MOL0     C28860   0.538  10.845  -0.817 -0.8112  0.1772 -0.4772
  977MOL0     C28861   0.584  10.797  -0.952  0.3950 -0.3929  0.7076
  977MOL0     O28862   0.657  10.687  -0.960  0.2668  0.4982 -0.6530
  977MOL0     C28863   0.651  10.591  -1.059  0.6661  0.7638  0.6844
  977MOL0     C28864   0.536  10.534  -1.089  0.1043  0.4568  0.3348
  977MOL0     C28865   0.536  10.409  -1.159 -0.1275  0.3906  0.1630
  977MOL0     C28866   0.651  10.342  -1.185 -1.0634  0.0765  0.1390
  977MOL0     O28867   0.661  10.228  -1.266  0.1992 -0.4524 -0.0592
  977MOL0     C28868   0.570  10.120  -1.257  0.4336  0.1623  0.5107
  977MOL0     C28869   0.641  10.000  -1.328  0.1758  0.0298 -0.0208
  977MOL0     C28870   0.770   9.944  -1.277 -0.4218  0.1215  0.0965
  977MOL0     C28871   0.831   9.846  -1.385 -0.0633 -0.4352 -0.1000
  977MOL0     C28872   0.929   9.750  -1.314  0.2286  0.1017  0.4361
  977MOL0     C28873   1.064   9.816  -1.313  0.6857 -0.4371  0.3611
  977MOL0     C28874   1.174   9.730  -1.255 -0.8341 -0.3746  0.9365
  977MOL0     C28875   1.169   9.708  -1.102 -0.5459 -0.7491 -0.6885
  977MOL0    Cl28876   1.269   9.830  -0.994  0.4695  0.1813  0.4160
  977MOL0     C28877   0.769  10.401  -1.161  0.0990 -0.4710 -0.4269
  977MOL0     C28878   0.767  10.524  -1.101  0.0236  0.1558  0.1057
  977MOL0     O28879   0.564  10.877  -1.046  0.2248  0.2484  0.4019
  977MOL0     C28880   0.498  10.972  -0.785 -0.2426  0.0526  0.5693
  977MOL0     C28881   0.467  10.997  -0.651  0.8966  0.1492  0.6096
  977MOL0     N28882   0.988  11.035   0.053 -0.4620 -0.7332  0.0970
  977MOL0     N28883   1.063  10.987   0.140  0.0349 -0.2939  0.0363
  977MOL0     C28884   1.656  10.442   0.631 -0.1556  0.6838 -1.2308
  977MOL0     C28885   1.662  10.296   0.640  0.1546 -0.7553 -0.6329
  977MOL0     C28886   1.786   9.888   0.642  0.0408 -0.3676 -0.0615
  977MOL0     C28887   1.655   9.859   0.690  0.4935 -0.3949  0.5746
  977MOL0     C28888   1.628   9.735   0.739 -0.9336  0.2253 -0.2055
  977MOL0     C28889   1.726   9.637   0.749 -0.7103  0.9511  0.4604
  977MOL0     O28890   1.700   9.509   0.794 -0.1899  0.0777  0.1990
  977MOL0     C28891   1.769   9.393   0.753 -0.5974  0.3279 -1.0354
  977MOL0     C28892   1.700   9.260   0.763 -1.4733 -0.0663  0.6832
  977MOL0     C28893   1.591   9.228   0.663  0.6076 -0.1752 -0.4585
  977MOL0     C28894   1.610   9.291   0.528  0.7917 -0.3080 -0.0281
  977MOL0     C28895   1.514   9.231   0.449  0.8775  0.8472 -0.1635
  977MOL0     C28896   1.438   9.173   0.370  0.9819 -0.1231  0.4881
  977MOL0     C28897   1.854   9.666   0.713 -0.4223  0.3096 -0.4452
  977MOL0     C28898   1.884   9.789   0.662  0.1360  0.7785 -0.3950
  977MOL0     H28899   1.779  10.255   0.320  0.0450 -0.2845 -0.4770
  977MOL0     H28900   1.796  10.493   0.326 -0.4835 -0.0738 -0.0481
  977MOL0     H28901   1.696  10.695   0.699  0.5500  4.3032  1.9004
  977MOL0     H28902   1.531  10.715   0.637 -0.7474  2.7009  0.1124
  977MOL0     H28903   1.783  10.865   0.540 -0.3463  0.5231 -0.4201
  977MOL0     H28904   1.697  10.909   0.690 -3.0084  0.3081  1.0036
  977MOL0     H28905   1.607  11.063   0.535  3.8806  0.1251 -3.3521
  977MOL0     H28906   1.488  10.946   0.536 -1.5843 -0.3553 -5.3503
  977MOL0     H28907   1.708  10.953   0.341  0.1893  0.2133 -1.5389
  977MOL0     H28908   1.581  10.824   0.351  0.1073 -0.9944  2.6685
  977MOL0     H28909   1.539  11.003   0.175 -2.6877 -0.1958 -0.4892
  977MOL0     H28910   1.515  11.106   0.336 -0.0987 -0.5535  1.6519
  977MOL0     H28911   1.287  11.052   0.241 -2.4295 -0.3911  2.6518
  977MOL0     H28912   1.313  10.948   0.363  2.4732  1.8577  1.8876
  977MOL0     H28913   1.376  10.891   0.065  1.1309 -3.0828 -0.7085
  977MOL0     H28914   1.423  10.789   0.197 -0.0751  2.2047  2.2869
  977MOL0     H28915   1.171  10.760   0.243 -2.0577 -1.4677 -1.8681
  977MOL0     H28916   1.237  10.701   0.092 -0.7184 -0.9464  0.8514
  977MOL0     H28917   1.049  10.742  -0.075  1.3462  0.0959 -1.5582
  977MOL0     H28918   0.907  10.841  -0.204  1.6996 -0.8333  2.2215
  977MOL0     H28919   0.909  11.019  -0.234  0.2599  0.7621  1.9330
  977MOL0     H28920   0.709  11.062  -0.107  2.4349  1.8924 -0.0548
  977MOL0     H28921   0.709  10.909  -0.040  1.3668  0.5698 -0.2429
  977MOL0     H28922   0.675  10.810  -0.281 -0.9964 -0.2881  1.0205
  977MOL0     H28923   0.538  10.877  -0.188 -0.2152 -0.2310  0.7323
  977MOL0     H28924   0.674  10.991  -0.427  0.1621  0.0564  0.1552
  977MOL0     H28925   0.589  11.096  -0.305 -0.6632 -2.3569  5.0563
  977MOL0     H28926   0.526  10.701  -0.509 -0.4808 -1.7260 -2.5002
  977MOL0     H28927   0.576  10.639  -0.726  3.3079  0.1551  2.9554
  977MOL0     H28928   0.443  10.581  -1.059  0.0031 -0.0398  0.8107
  977MOL0     H28929   0.439  10.362  -1.174 -2.0099  2.8386  3.2750
  977MOL0     H28930   0.485  10.143  -1.321  2.2789  0.5764 -1.9189
  977MOL0     H28931   0.543  10.117  -1.151  0.1225  1.0006  0.4614
  977MOL0     H28932   0.651  10.030  -1.433 -0.1145  0.3234  0.0346
  977MOL0     H28933   0.564   9.924  -1.337  1.1617 -0.9732 -0.1424
  977MOL0     H28934   0.731   9.887  -1.193 -4.0173  2.4387  0.2039
  977MOL0     H28935   0.836  10.025  -1.245 -1.9627  2.8820 -3.0605
  977MOL0     H28936   0.755   9.782  -1.429 -0.4832 -1.6280  2.2217
  977MOL0     H28937   0.877   9.904  -1.465 -2.2751  1.1173 -0.3184
  977MOL0     H28938   0.929   9.651  -1.361 -0.3326  1.1546 -1.9372
  977MOL0     H28939   0.898   9.740  -1.210  0.4988  2.0763  0.7360
  977MOL0     H28940   1.055   9.908  -1.256  0.2282  0.1356 -0.6070
  977MOL0     H28941   1.098   9.828  -1.417  2.6873 -0.7677  0.9168
  977MOL0     H28942   1.181   9.630  -1.299  1.9808 -0.1334  0.6702
  977MOL0     H28943   1.267   9.776  -1.290 -1.7611  1.3789  0.6381
  977MOL0     H28944   1.204   9.610  -1.067  3.2575  0.4664 -0.6367
  977MOL0     H28945   1.064   9.707  -1.071 -0.7655  0.6401 -1.3033
  977MOL0     H28946   0.866  10.355  -1.177  2.4263  3.8215 -0.1576
  977MOL0     H28947   0.866  10.567  -1.088 -1.0019  2.1261  2.0430
  977MOL0     H28948   0.483  11.056  -0.852 -1.8143 -2.5600 -2.5829
  977MOL0     H28949   0.431  11.097  -0.628 -1.1800 -0.9408  2.5499
  977MOL0     H28950   1.613  10.502   0.711 -0.8170 -0.2613 -0.8571
  977MOL0     H28951   1.608  10.242   0.717 -1.8108  2.3988  0.3765
  977MOL0     H28952   1.584   9.938   0.670  1.4560  0.0596 -1.2511
  977MOL0     H28953   1.543   9.694   0.791  1.4196 -1.8161  2.3478
  977MOL0     H28954   1.865   9.386   0.806 -0.6628 -2.4053 -1.1395
  977MOL0     H28955   1.804   9.406   0.650  5.5271  0.8739  0.7082
  977MOL0     H28956   1.776   9.182   0.749 -0.2845  1.3217 -1.1101
  977MOL0     H28957   1.651   9.246   0.859 -0.8170  4.7048  1.9411
  977MOL0     H28958   1.498   9.271   0.702  0.1476 -1.0199 -0.5921
  977MOL0     H28959   1.586   9.119   0.648  0.5055 -0.0428 -1.4409
  977MOL0     H28960   1.586   9.396   0.546  0.2048 -0.3010 -0.7803
  977MOL0     H28961   1.714   9.273   0.498  1.5017 -1.4326  2.8234
  977MOL0     H28962   1.380   9.110   0.306 -0.9419 -0.5515  2.5473
  977MOL0     H28963   1.933   9.592   0.711 -2.7520 -2.5458  2.2457
  977MOL0     H28964   1.989   9.812   0.642  0.2040  0.3861 -0.5093
  978MOL0     O28965   7.667   5.478   2.046 -0.4583  0.0140  0.0731
  978MOL0     C28966   7.604   5.413   2.134  0.2190 -0.3242  0.7092
  978MOL0     O28967   7.567   5.284   2.133 -0.3894  0.1218  0.0888
  978MOL0     C28968   7.618   5.212   2.037 -0.9575  0.4781  0.0481
  978MOL0     C28969   7.755   5.199   2.013 -0.5007  0.1302  0.7384
  978MOL0     C28970   7.803   5.118   1.908  0.3852  0.3902  1.2740
  978MOL0     C28971   7.710   5.044   1.829  0.8498 -0.6583 -1.2664
  978MOL0     O28972   7.751   4.975   1.722 -0.2611  0.0239 -0.4445
  978MOL0     C28973   7.831   5.032   1.621 -0.3312 -0.5955 -0.4303
  978MOL0     C28974   7.959   4.950   1.610 -0.2773 -0.3040  1.5981
  978MOL0     C28975   8.087   5.026   1.579  1.1485 -0.7749  0.4974
  978MOL0     C28976   8.208   4.940   1.593 -0.0819 -0.8650 -0.2252
  978MOL0     C28977   8.328   5.016   1.524 -0.3144  0.4499 -0.2133
  978MOL0     C28978   8.377   5.151   1.595  0.8797  0.0171  0.2458
  978MOL0     C28979   8.486   5.204   1.509 -0.1164  0.7097 -0.1819
  978MOL0     C28980   8.470   5.229   1.361  0.2192 -0.6258 -0.5073
  978MOL0     N28981   8.350   5.315   1.340 -0.2322  0.4435 -0.3538
  978MOL0     C28982   8.256   5.302   1.246 -0.3652  0.5175 -0.3944
  978MOL0     C28983   8.197   5.421   1.224 -0.3054  1.0155  0.5441
  978MOL0     C28984   8.104   5.446   1.118  0.5472  1.1186 -0.0707
  978MOL0     C28985   8.155   5.536   1.017  0.3250 -0.5142 -0.0888
  978MOL0     C28986   8.052   5.609   0.933 -0.3910 -0.8334 -0.8290
  978MOL0     C28987   8.119   5.723   0.854 -0.6787  0.3282 -0.4307
  978MOL0     O28988   8.157   5.839   0.933  0.3946 -0.5088  1.0850
  978MOL0     C28989   8.220   5.954   0.870  0.5348  0.4730 -0.8868
  978MOL0     C28990   8.221   6.075   0.945  0.2583  0.2594  0.4319
  978MOL0     C28991   8.258   6.192   0.886 -0.2217  0.6229  0.8142
  978MOL0     C28992   8.307   6.193   0.755 -1.0050  0.7245  0.5652
  978MOL0     C28993   8.363   6.313   0.699 -0.7007 -1.6880 -0.0020
  978MOL0     O28994   8.289   6.430   0.708  0.3475 -0.4814  0.3070
  978MOL0     C28995   8.341   6.545   0.674 -0.2267  0.0930  0.0493
  978MOL0     C28996   8.474   6.605   0.697 -1.4451  0.4785  0.1855
  978MOL0     C28997   8.507   6.730   0.653  0.0672  0.4655  0.5678
  978MOL0     C28998   8.422   6.807   0.580 -0.2262  0.0986  0.4991
  978MOL0     O28999   8.457   6.935   0.569 -0.4953 -0.0251 -0.1990
  978MOL0     C29000   8.386   7.034   0.490 -0.0195  0.3299  0.4379
  978MOL0     C29001   8.467   7.166   0.474 -1.1316 -0.0355 -0.5104
  978MOL0     C29002   8.515   7.222   0.609 -0.0077 -0.3364 -0.4909
  978MOL0     C29003   8.630   7.334   0.599  0.0027  0.4359  0.4385
  978MOL0     C29004   8.565   7.482   0.587 -0.1563 -1.1869  0.7490
  978MOL0     C29005   8.679   7.584   0.558 -0.9046  0.3425  0.6499
  978MOL0     C29006   8.618   7.718   0.533 -0.5257  0.2902 -0.0863
  978MOL0     C29007   8.712   7.813   0.465  0.1191 -0.2002 -0.0159
  978MOL0    Cl29008   8.619   7.971   0.444 -0.4574 -0.5035  0.2539
  978MOL0     C29009   8.293   6.757   0.558 -0.2933  0.0849 -0.3994
  978MOL0     C29010   8.253   6.628   0.604  0.5932  0.5532  0.2954
  978MOL0     O29011   8.472   6.307   0.649 -0.1497 -0.0328  0.8489
  978MOL0     C29012   8.319   6.075   0.685 -0.2697 -1.1712 -0.6595
  978MOL0     C29013   8.272   5.952   0.737  0.0723  0.6763  0.3398
  978MOL0     N29014   8.247   5.508   1.322 -0.0665  0.2757  0.2134
  978MOL0     N29015   8.334   5.435   1.392 -0.1005 -0.5591  0.0004
  978MOL0     C29016   7.575   5.041   1.865 -0.3072 -1.5008 -0.2376
  978MOL0     C29017   7.535   5.122   1.969  0.3925 -0.1215 -0.0714
  978MOL0     C29018   7.561   5.494   2.245  0.0335  0.2911 -0.9372
  978MOL0     C29019   7.446   5.459   2.328 -0.5943  0.9220 -0.6201
  978MOL0     C29020   7.416   5.524   2.452 -0.1309 -0.3080  1.0313
  978MOL0     C29021   7.503   5.633   2.489  0.6457  0.6381  0.6148
  978MOL0     O29022   7.483   5.723   2.593 -0.7573 -0.0434  0.7755
  978MOL0     C29023   7.355   5.739   2.655  0.4747  0.3984  0.6939
  978MOL0     C29024   7.368   5.856   2.754  1.5857  0.3149  0.1639
  978MOL0     C29025   7.220   5.885   2.808  0.2223  0.1035 -0.0836
  978MOL0     C29026   7.220   6.011   2.892 -0.0384  0.5064 -0.1035
  978MOL0     C29027   7.086   6.019   2.951  0.9125 -0.1562  0.1961
  978MOL0     C29028   6.975   6.011   2.987  0.6415  1.0270  0.6876
  978MOL0     C29029   7.622   5.660   2.414 -0.1289  0.4769  0.0336
  978MOL0     C29030   7.646   5.598   2.292  0.2135  0.7950  0.0560
  978MOL0     H29031   7.820   5.272   2.061  3.0037  0.4356 -3.7971
  978MOL0     H29032   7.909   5.113   1.887  0.5193 -2.4917  2.1802
  978MOL0     H29033   7.853   5.137   1.646 -1.1872 -0.1807 -1.3657
  978MOL0     H29034   7.778   5.031   1.525  2.1627  0.9019 -1.9284
  978MOL0     H29035   7.956   4.879   1.526  1.5980  1.1895  0.1553
  978MOL0     H29036   7.967   4.894   1.704 -0.8883  0.2575  1.9904
  978MOL0     H29037   8.087   5.108   1.652 -0.7919  1.8506 -2.1705
  978MOL0     H29038   8.069   5.066   1.479  2.5919 -1.5235 -0.0921
  978MOL0     H29039   8.229   4.931   1.700 -0.4279 -0.8855 -0.1597
  978MOL0     H29040   8.188   4.839   1.556  1.7742 -0.8824 -1.3478
  978MOL0     H29041   8.293   5.036   1.422 -1.1399 -1.7261 -0.4201
  978MOL0     H29042   8.410   4.944   1.522 -0.2732  0.3318  2.5095
  978MOL0     H29043   8.404   5.129   1.699  0.6089  2.5060  0.8881
  978MOL0     H29044   8.295   5.223   1.597 -1.7177 -2.7506  1.5273
  978MOL0     H29045   8.520   5.298   1.554 -0.8662  1.3722 -0.9823
  978MOL0     H29046   8.580   5.148   1.517  0.6149  2.1093  2.5107
  978MOL0     H29047   8.457   5.132   1.311  0.0077 -1.3062  0.8297
  978MOL0     H29048   8.554   5.287   1.323  0.9050 -1.3704 -0.1762
  978MOL0     H29049   8.235   5.214   1.186  0.1087 -0.3259  0.6461
  978MOL0     H29050   8.012   5.487   1.161 -0.6944  0.1563 -1.6927
  978MOL0     H29051   8.066   5.361   1.060  0.1100 -0.6761  2.6762
  978MOL0     H29052   8.228   5.482   0.955  0.4520  2.0931 -2.3861
  978MOL0     H29053   8.202   5.616   1.075 -0.2400 -0.5260  0.3933
  978MOL0     H29054   8.005   5.541   0.862  0.7253 -0.1848 -2.2278
  978MOL0     H29055   7.967   5.654   0.985  1.5151  3.1953 -0.8141
  978MOL0     H29056   8.052   5.755   0.774  0.0755 -0.5569 -1.4543
  978MOL0     H29057   8.200   5.665   0.807 -1.9717 -0.9294 -1.1946
  978MOL0     H29058   8.160   6.080   1.034 -1.5615  0.4177 -0.7640
  978MOL0     H29059   8.225   6.281   0.938  0.5219  1.4227 -0.0516
  978MOL0     H29060   8.538   6.555   0.769  0.5024  0.0684 -1.7329
  978MOL0     H29061   8.603   6.768   0.687  2.0659 -1.6698 -2.2251
  978MOL0     H29062   8.298   7.071   0.544  1.2830  2.3644  1.2728
  978MOL0     H29063   8.359   7.007   0.387  3.8357  0.4678 -0.7735
  978MOL0     H29064   8.420   7.249   0.421 -1.4519  1.1090  1.4599
  978MOL0     H29065   8.560   7.135   0.424 -0.5985 -1.9663  1.5309
  978MOL0     H29066   8.537   7.130   0.664 -1.9136 -2.4470 -3.0234
  978MOL0     H29067   8.428   7.257   0.667  1.7572  0.6593  1.7301
  978MOL0     H29068   8.703   7.318   0.678  0.8046  3.4154  0.4417
  978MOL0     H29069   8.683   7.308   0.506 -0.4744  1.9420 -0.2921
  978MOL0     H29070   8.504   7.514   0.671  0.6588 -0.4903  1.0906
  978MOL0     H29071   8.493   7.477   0.505 -2.3756 -3.0986  2.6677
  978MOL0     H29072   8.747   7.544   0.481 -1.1327  0.5237  0.3544
  978MOL0     H29073   8.739   7.584   0.649 -2.9768 -3.2048  2.2350
  978MOL0     H29074   8.526   7.708   0.474 -1.4593 -4.7142  1.7444
  978MOL0     H29075   8.590   7.772   0.625  1.7114  0.8750  0.3116
  978MOL0     H29076   8.739   7.772   0.368 -0.3925  0.1775 -0.3255
  978MOL0     H29077   8.802   7.821   0.527  0.1708 -0.7685 -0.0117
  978MOL0     H29078   8.214   6.814   0.509 -4.5590 -2.6890  2.5057
  978MOL0     H29079   8.156   6.585   0.585  2.0790 -2.5491 -0.7885
  978MOL0     H29080   8.343   6.071   0.580  1.8599  2.5300 -0.4797
  978MOL0     H29081   8.255   5.859   0.683 -7.2835  0.7810  1.4346
  978MOL0     H29082   7.504   4.987   1.803 -2.8434  3.1158 -1.9114
  978MOL0     H29083   7.430   5.125   1.997  0.2950  0.5849 -0.4926
  978MOL0     H29084   7.369   5.392   2.291  0.6303 -2.1864  1.9281
  978MOL0     H29085   7.327   5.513   2.512 -0.2841  0.8298  1.0362
  978MOL0     H29086   7.335   5.643   2.704  3.6609 -1.6257 -1.5598
  978MOL0     H29087   7.274   5.767   2.587 -0.1633  2.0710  2.0720
  978MOL0     H29088   7.436   5.831   2.837  2.3429  0.7313 -0.3192
  978MOL0     H29089   7.409   5.935   2.691 -1.4992 -0.1234 -2.6391
  978MOL0     H29090   7.183   5.801   2.869  3.9295  0.0043  2.3527
  978MOL0     H29091   7.157   5.901   2.720 -1.7883  1.2778  1.4874
  978MOL0     H29092   7.279   5.994   2.982 -0.6933 -2.1866 -0.1021
  978MOL0     H29093   7.251   6.098   2.833 -0.4935  3.8294  4.0889
  978MOL0     H29094   6.884   6.020   3.043  1.3450  2.7324  1.6397
  978MOL0     H29095   7.693   5.737   2.441 -0.9333  1.0388  0.5513
  978MOL0     H29096   7.736   5.619   2.234  1.5145 -0.3861  1.5611
  979MOL0     O29097   5.347   4.192   6.876  0.2591  0.3197 -0.6101
  979MOL0     C29098   5.405   4.297   6.886 -0.5716 -0.6025 -0.8314
  979MOL0     O29099   5.370   4.397   6.964  0.5967  0.4461  0.0858
  979MOL0     C29100   5.251   4.397   7.030  0.1496  0.5477 -0.4196
  979MOL0     C29101   5.134   4.419   6.961 -0.6723 -1.1029  0.6763
  979MOL0     C29102   5.009   4.403   7.024 -0.4765 -0.2558 -0.0143
  979MOL0     C29103   4.996   4.362   7.153 -1.0014  0.9296  0.5383
  979MOL0     O29104   4.872   4.331   7.197  0.4137 -0.5247 -0.0754
  979MOL0     C29105   4.840   4.386   7.321  0.6249 -0.9827 -0.0770
  979MOL0     C29106   4.815   4.538   7.331 -0.0655  0.1281  0.0808
  979MOL0     C29107   4.711   4.589   7.225 -0.7654 -0.7563 -0.7229
  979MOL0     C29108   4.673   4.737   7.249  0.9646  0.4235  0.0634
  979MOL0     C29109   4.567   4.768   7.144 -0.1745  0.0726  0.9743
  979MOL0     C29110   4.503   4.893   7.183  0.4401  0.4917  0.0607
  979MOL0     C29111   4.370   4.909   7.095 -0.6815 -0.3591 -0.6299
  979MOL0     C29112   4.410   4.961   6.959 -0.1707  0.0979 -0.8998
  979MOL0     N29113   4.296   5.001   6.868 -0.7001  0.6094  0.2025
  979MOL0     C29114   4.306   5.094   6.771  0.5903  0.1899 -0.0592
  979MOL0     C29115   4.198   5.079   6.685  0.4655  0.2033 -0.0130
  979MOL0     C29116   4.182   5.161   6.558 -0.2778 -0.2046 -0.1286
  979MOL0     C29117   4.134   5.298   6.605 -0.1907  0.0607  0.4761
  979MOL0     C29118   3.979   5.290   6.637 -0.6613 -0.6331  0.6309
  979MOL0     C29119   3.926   5.428   6.634 -0.3906  0.8700 -1.2233
  979MOL0     O29120   3.806   5.466   6.720  0.2496 -0.0754  0.3851
  979MOL0     C29121   3.687   5.407   6.706  0.5714  0.4189  0.3800
  979MOL0     C29122   3.650   5.318   6.597  0.2535 -0.0920  0.1642
  979MOL0     C29123   3.524   5.278   6.578  0.4120 -0.2343  0.0627
  979MOL0     C29124   3.425   5.303   6.669 -0.0077  0.2168  0.1969
  979MOL0     C29125   3.290   5.229   6.670  0.6170  0.1111  1.1713
  979MOL0     O29126   3.193   5.260   6.761  0.0069  0.9776 -0.7559
  979MOL0     C29127   3.083   5.176   6.787 -0.3663 -0.3141  0.0458
  979MOL0     C29128   3.079   5.041   6.750  0.0129 -0.8745  0.7001
  979MOL0     C29129   2.966   4.970   6.758 -0.0972 -0.0498  1.1835
  979MOL0     C29130   2.845   5.028   6.800 -0.1315  0.4637  0.4481
  979MOL0     O29131   2.717   4.961   6.800 -0.2941 -0.9072  0.6129
  979MOL0     C29132   2.710   4.843   6.718 -0.4547  0.9377  0.3736
  979MOL0     C29133   2.578   4.777   6.690 -0.5967 -0.0847 -0.1082
  979MOL0     C29134   2.500   4.752   6.825  0.1579  0.3144  0.4897
  979MOL0     C29135   2.368   4.682   6.799 -0.5786  0.6064  0.2414
  979MOL0     C29136   2.245   4.746   6.857 -1.1837 -1.6911  0.1847
  979MOL0     C29137   2.208   4.868   6.771 -0.2704  0.1318 -0.0009
  979MOL0     C29138   2.109   4.940   6.864 -0.3570 -0.3152 -0.0734
  979MOL0     C29139   2.150   5.083   6.858 -0.2372 -0.1633 -0.3688
  979MOL0    Cl29140   2.039   5.190   6.942  0.1374 -0.0109  0.2013
  979MOL0     C29141   2.844   5.160   6.844  0.6535 -0.0020 -1.0692
  979MOL0     C29142   2.963   5.233   6.841 -0.0323  0.5383 -0.2291
  979MOL0     O29143   3.276   5.154   6.570 -0.4782  0.3232  0.1072
  979MOL0     C29144   3.453   5.387   6.773  0.4639 -0.4604 -0.3997
  979MOL0     C29145   3.583   5.433   6.796 -0.8812 -0.4638  0.2206
  979MOL0     N29146   4.127   4.963   6.737 -0.6778 -0.6175  0.9441
  979MOL0     N29147   4.192   4.916   6.837 -0.8425 -0.6643 -0.5156
  979MOL0     C29148   5.115   4.341   7.225  0.3225 -0.2771  0.0840
  979MOL0     C29149   5.249   4.358   7.171 -0.1661 -0.5886 -0.5982
  979MOL0     C29150   5.536   4.309   6.814  0.6610 -0.4232  0.6571
  979MOL0     C29151   5.562   4.219   6.713 -0.1195 -0.3310  0.3087
  979MOL0     C29152   5.676   4.238   6.630 -0.0630  0.1215 -0.4036
  979MOL0     C29153   5.765   4.343   6.651 -0.0065 -0.1839  0.5624
  979MOL0     O29154   5.869   4.388   6.568 -0.7854 -0.0671  0.8032
  979MOL0     C29155   5.928   4.291   6.472 -0.1511 -0.9635  0.3194
  979MOL0     C29156   6.048   4.348   6.423 -1.0718  0.4674 -0.0739
  979MOL0     C29157   6.110   4.255   6.320 -0.2706  0.6066  0.2488
  979MOL0     C29158   6.248   4.292   6.267 -0.5689 -1.5199 -0.0003
  979MOL0     C29159   6.368   4.285   6.347  0.4727 -0.1727  0.1491
  979MOL0     C29160   6.463   4.271   6.407 -1.0684 -0.0993  0.0511
  979MOL0     C29161   5.724   4.439   6.753 -0.0316 -0.4628 -0.4941
  979MOL0     C29162   5.614   4.423   6.832 -0.2726  0.2262  1.0733
  979MOL0     H29163   5.138   4.430   6.853 -0.0401 -3.0800  0.4733
  979MOL0     H29164   4.912   4.413   6.975 -0.1467  3.4606 -0.2319
  979MOL0     H29165   4.910   4.347   7.396  1.6068  2.1261  0.7885
  979MOL0     H29166   4.742   4.340   7.337  0.0321  0.0217 -0.6597
  979MOL0     H29167   4.907   4.593   7.310 -0.4699  1.6231  1.9357
  979MOL0     H29168   4.785   4.541   7.436 -1.3770 -4.4067  0.0674
  979MOL0     H29169   4.625   4.522   7.236 -0.7501 -0.4799  1.3728
  979MOL0     H29170   4.753   4.575   7.125  2.4453 -0.7116  0.5190
  979MOL0     H29171   4.621   4.748   7.345  0.3598 -0.0690 -0.2009
  979MOL0     H29172   4.749   4.815   7.255  1.5539 -0.0877 -0.5274
  979MOL0     H29173   4.505   4.679   7.135  0.1984  0.0018 -1.5858
  979MOL0     H29174   4.611   4.777   7.044  3.3919 -4.5718  1.8289
  979MOL0     H29175   4.566   4.983   7.183  1.3060  0.0068  3.1829
  979MOL0     H29176   4.475   4.879   7.288  1.5714  0.8902  0.4274
  979MOL0     H29177   4.315   4.816   7.083  1.9935 -2.0230 -0.6553
  979MOL0     H29178   4.302   4.982   7.141 -1.5887 -1.3473 -0.3629
  979MOL0     H29179   4.469   4.880   6.915  2.7140  0.1612  2.4196
  979MOL0     H29180   4.471   5.051   6.978  1.1901 -1.2524  1.6201
  979MOL0     H29181   4.381   5.169   6.750  1.0087 -0.4840 -1.0664
  979MOL0     H29182   4.110   5.113   6.491 -2.2303  0.5458  1.3367
  979MOL0     H29183   4.281   5.163   6.510  1.0205 -2.6474  2.1874
  979MOL0     H29184   4.144   5.370   6.523 -1.9796  0.3367  0.4746
  979MOL0     H29185   4.182   5.344   6.692  0.6995  2.0000 -0.9367
  979MOL0     H29186   3.934   5.229   6.558 -0.0109 -1.8917  1.2090
  979MOL0     H29187   3.969   5.249   6.738  2.5649 -0.5895  1.0714
  979MOL0     H29188   3.906   5.449   6.528  2.3757 -0.9539 -2.2233
  979MOL0     H29189   4.003   5.492   6.678 -1.4326  2.2580 -1.3268
  979MOL0     H29190   3.718   5.290   6.517 -3.2906 -3.7375 -1.9469
  979MOL0     H29191   3.503   5.208   6.498  0.7765  1.3319 -1.4639
  979MOL0     H29192   3.161   4.978   6.719  0.8721 -0.9663  2.9730
  979MOL0     H29193   2.987   4.869   6.724 -0.2138 -0.0302  1.0516
  979MOL0     H29194   2.773   4.773   6.774  0.7698  2.0408  0.4332
  979MOL0     H29195   2.749   4.855   6.616  1.8082 -2.8009  0.6134
  979MOL0     H29196   2.587   4.678   6.646 -4.6558 -0.3834 -0.6830
  979MOL0     H29197   2.518   4.837   6.620  0.8868  0.9501 -0.5368
  979MOL0     H29198   2.484   4.838   6.890  0.4148  2.7411 -2.4227
  979MOL0     H29199   2.572   4.694   6.884 -1.3662 -0.4028  1.6957
  979MOL0     H29200   2.353   4.657   6.694 -2.2352  2.5065 -0.0125
  979MOL0     H29201   2.381   4.583   6.846  0.0658 -0.0427 -1.2368
  979MOL0     H29202   2.268   4.775   6.960 -2.5019  1.0965 -0.2136
  979MOL0     H29203   2.162   4.675   6.857 -0.6160 -2.4657 -2.6635
  979MOL0     H29204   2.167   4.845   6.672 -3.1645  4.1038  0.0633
  979MOL0     H29205   2.295   4.930   6.748 -0.4662  0.7802  0.9656
  979MOL0     H29206   2.011   4.926   6.818 -0.0728  1.5688 -1.3677
  979MOL0     H29207   2.102   4.911   6.970 -0.0851  1.6328  0.5209
  979MOL0     H29208   2.156   5.110   6.753 -2.9499  0.2991 -0.4854
  979MOL0     H29209   2.250   5.103   6.898 -0.4223  0.5530 -0.2628
  979MOL0     H29210   2.747   5.201   6.867 -0.0252 -0.8766 -2.2828
  979MOL0     H29211   2.951   5.334   6.880 -0.4048 -0.6124  3.0028
  979MOL0     H29212   3.385   5.415   6.852  1.0583  1.3449 -0.4681
  979MOL0     H29213   3.617   5.480   6.888  2.9236  0.8975 -1.6876
  979MOL0     H29214   5.118   4.309   7.329  2.4950  0.0536  0.1761
  979MOL0     H29215   5.331   4.333   7.237 -0.0886 -0.5772 -0.6912
  979MOL0     H29216   5.502   4.131   6.689 -1.9397  0.8071  0.5026
  979MOL0     H29217   5.692   4.165   6.551  0.9748  0.1634 -0.2355
  979MOL0     H29218   5.865   4.256   6.391  1.3358 -0.4389 -1.1149
  979MOL0     H29219   5.951   4.202   6.532 -0.3028 -1.8698 -0.9419
  979MOL0     H29220   6.017   4.441   6.374 -0.6978 -0.4593 -2.2004
  979MOL0     H29221   6.123   4.364   6.501  0.2230  0.4450 -1.2681
  979MOL0     H29222   6.035   4.245   6.242 -0.0808 -0.7678  0.2247
  979MOL0     H29223   6.141   4.162   6.369  2.8428  1.3228 -0.1610
  979MOL0     H29224   6.274   4.226   6.184 -2.7704  1.1800 -3.0809
  979MOL0     H29225   6.242   4.397   6.235 -0.8334 -2.1948 -2.2979
  979MOL0     H29226   6.551   4.246   6.462 -2.1626 -1.8588  1.0761
  979MOL0     H29227   5.775   4.533   6.768  0.4859 -0.9002  0.5586
  979MOL0     H29228   5.597   4.493   6.913  0.1385  0.0185  1.3386
  980MOL0     O29229   6.698   4.579   5.184  0.5257  0.1113 -0.7056
  980MOL0     C29230   6.740   4.479   5.246  0.6967 -0.1178 -0.5610
  980MOL0     O29231   6.660   4.386   5.312  0.0660 -0.1065 -0.2176
  980MOL0     C29232   6.521   4.386   5.302 -0.8078  0.4870 -0.5035
  980MOL0     C29233   6.433   4.492   5.281 -1.0312 -0.5410 -0.3333
  980MOL0     C29234   6.295   4.484   5.297  0.6284  1.0536 -1.0956
  980MOL0     C29235   6.245   4.351   5.329  0.6441 -0.2289 -0.1780
  980MOL0     O29236   6.116   4.347   5.360  0.3483  0.4198  0.1343
  980MOL0     C29237   6.063   4.429   5.462  0.2394  1.0785 -0.7133
  980MOL0     C29238   5.910   4.400   5.457 -0.1316  1.3601  0.0955
  980MOL0     C29239   5.867   4.253   5.464  0.8487 -0.0541  0.5241
  980MOL0     C29240   5.719   4.244   5.509  0.1368 -0.6626  1.5739
  980MOL0     C29241   5.646   4.112   5.452  0.4856  0.1011  0.3577
  980MOL0     C29242   5.490   4.139   5.452  0.7744 -1.0179 -0.5019
  980MOL0     C29243   5.447   4.246   5.344 -0.9063 -0.4339 -0.7544
  980MOL0     C29244   5.478   4.206   5.199  0.4362 -0.1663  0.0465
  980MOL0     N29245   5.464   4.323   5.104 -0.5648 -0.1952  0.3996
  980MOL0     C29246   5.526   4.331   4.984 -0.7818 -0.2176  0.2550
  980MOL0     C29247   5.487   4.445   4.926  0.8255  0.0487  0.3483
  980MOL0     C29248   5.530   4.527   4.808  0.3734  0.5389 -0.5501
  980MOL0     C29249   5.528   4.441   4.668 -0.3799  0.0227  0.1328
  980MOL0     C29250   5.384   4.401   4.628  0.2354  0.4576 -0.0213
  980MOL0     C29251   5.362   4.281   4.532 -0.5312 -0.1378  0.3029
  980MOL0     O29252   5.391   4.152   4.595 -0.0383 -0.0706 -0.5074
  980MOL0     C29253   5.521   4.115   4.622 -0.5599  0.0797 -0.3334
  980MOL0     C29254   5.542   4.035   4.730 -0.4121 -0.4671 -0.9501
  980MOL0     C29255   5.666   3.976   4.763 -0.5043 -0.6143  0.2826
  980MOL0     C29256   5.779   4.001   4.686 -0.6182  0.0516 -0.2248
  980MOL0     C29257   5.918   3.969   4.722 -1.3468  0.1506 -0.2047
  980MOL0     O29258   5.941   3.896   4.840 -0.3990 -0.6379  0.2096
  980MOL0     C29259   6.062   3.879   4.901  0.0559 -0.3359 -0.7796
  980MOL0     C29260   6.182   3.940   4.861 -0.6258  0.5893 -0.9368
  980MOL0     C29261   6.295   3.930   4.949 -1.0411 -0.1686  0.0729
  980MOL0     C29262   6.296   3.851   5.064 -0.5726  0.3432 -0.2684
  980MOL0     O29263   6.409   3.844   5.141 -0.4804 -0.3048 -0.0573
  980MOL0     C29264   6.540   3.841   5.087  0.3144  0.3187 -0.0303
  980MOL0     C29265   6.608   3.971   5.137 -1.5437  0.1124  0.4028
  980MOL0     C29266   6.770   3.958   5.146  0.5853 -0.8603 -0.2639
  980MOL0     C29267   6.837   4.095   5.156  0.7691 -0.7134  0.1670
  980MOL0     C29268   6.990   4.101   5.163  0.0444 -0.2863 -1.0503
  980MOL0     C29269   7.051   3.989   5.253  0.1750  0.7215 -0.2640
  980MOL0     C29270   7.199   4.006   5.274 -1.3354  0.2622  0.4248
  980MOL0     C29271   7.264   3.928   5.391 -0.5877 -0.0908  0.4341
  980MOL0    Cl29272   7.422   4.001   5.426 -0.1645 -0.4557 -0.0042
  980MOL0     C29273   6.183   3.778   5.090 -0.1277  0.3249 -0.2699
  980MOL0     C29274   6.073   3.795   5.008  0.7438 -0.2774  0.0781
  980MOL0     O29275   6.012   4.010   4.650 -0.1049 -0.7194 -0.6362
  980MOL0     C29276   5.764   4.086   4.577  0.2746 -0.7444 -0.4283
  980MOL0     C29277   5.635   4.134   4.540 -0.0761  0.0337  0.7585
  980MOL0     N29278   5.410   4.506   5.017  0.1748 -1.1357  0.4410
  980MOL0     N29279   5.380   4.429   5.121  0.3064  0.0924  0.0541
  980MOL0     C29280   6.321   4.243   5.340  0.2753  0.4688 -0.0632
  980MOL0     C29281   6.464   4.266   5.332 -1.0864  0.1610 -0.7255
  980MOL0     C29282   6.882   4.481   5.276 -0.0555  0.0686 -0.6686
  980MOL0     C29283   6.934   4.409   5.389  0.8953 -0.1849 -0.4218
  980MOL0     C29284   7.068   4.409   5.426 -0.1870 -0.3997 -0.3016
  980MOL0     C29285   7.164   4.473   5.347 -0.1244  0.1451 -0.2605
  980MOL0     O29286   7.294   4.481   5.383 -0.0427 -0.3210 -0.1135
  980MOL0     C29287   7.382   4.374   5.357  0.7419  0.3874 -0.9076
  980MOL0     C29288   7.522   4.437   5.325 -0.6309 -0.1909  0.1777
  980MOL0     C29289   7.627   4.331   5.288  0.9808  0.9192  0.4190
  980MOL0     C29290   7.772   4.384   5.279  0.0548  0.9029 -0.0057
  980MOL0     C29291   7.849   4.305   5.175  0.2181  0.2201  0.6515
  980MOL0     C29292   7.907   4.227   5.108  1.0661  0.7777  0.4804
  980MOL0     C29293   7.126   4.531   5.227  0.6975  0.9599 -0.5178
  980MOL0     C29294   6.986   4.535   5.198  0.1472  0.0386  0.2760
  980MOL0     H29295   6.478   4.588   5.258  1.3955 -1.4625  0.3257
  980MOL0     H29296   6.229   4.570   5.293 -1.0516 -0.1689 -0.9266
  980MOL0     H29297   6.075   4.536   5.445 -1.2397  1.1844 -1.2193
  980MOL0     H29298   6.101   4.395   5.559 -1.6808  0.0416 -0.2693
  980MOL0     H29299   5.875   4.436   5.360  2.8306 -1.3848 -2.2012
  980MOL0     H29300   5.868   4.454   5.542 -0.1531  1.0956  0.2540
  980MOL0     H29301   5.936   4.213   5.538  3.3450  0.1500 -1.5298
  980MOL0     H29302   5.876   4.202   5.367  1.2342  1.1306 -0.0879
  980MOL0     H29303   5.715   4.244   5.619  2.5152 -1.6436  1.7191
  980MOL0     H29304   5.675   4.338   5.475  1.4952  0.0801  1.7897
  980MOL0     H29305   5.664   4.025   5.515 -0.8233 -1.2686 -1.0892
  980MOL0     H29306   5.674   4.089   5.349 -0.3561  2.1852 -0.3900
  980MOL0     H29307   5.444   4.176   5.544 -0.6072 -3.7904  0.0356
  980MOL0     H29308   5.443   4.042   5.435  0.2042 -0.9969  0.8223
  980MOL0     H29309   5.339   4.260   5.343 -0.8339  0.3285 -2.2106
  980MOL0     H29310   5.490   4.346   5.359 -1.7109 -0.2166  0.2046
  980MOL0     H29311   5.424   4.121   5.157  1.6405 -1.4678  1.0178
  980MOL0     H29312   5.583   4.175   5.196  0.7826  0.5024  2.6946
  980MOL0     H29313   5.587   4.255   4.935 -1.0858  1.2037 -2.5288
  980MOL0     H29314   5.630   4.567   4.827  1.4386  0.6203 -5.0115
  980MOL0     H29315   5.468   4.617   4.801  3.1067  2.5303 -1.0553
  980MOL0     H29316   5.603   4.361   4.673 -0.8524 -0.4294  0.1266
  980MOL0     H29317   5.565   4.506   4.589  0.9164 -0.3045  0.4512
  980MOL0     H29318   5.323   4.384   4.717 -0.0373  2.1023  0.1357
  980MOL0     H29319   5.345   4.484   4.568 -0.2660  0.1700 -0.0968
  980MOL0     H29320   5.414   4.290   4.436 -1.8020  0.4697 -0.3411
  980MOL0     H29321   5.255   4.276   4.509 -0.8726  1.4166  1.4299
  980MOL0     H29322   5.468   4.025   4.810 -0.2460 -1.3698 -0.8984
  980MOL0     H29323   5.692   3.919   4.852  3.6691 -0.4507 -0.6384
  980MOL0     H29324   6.198   4.002   4.773  0.1496 -1.2730 -2.1820
  980MOL0     H29325   6.387   3.987   4.936  0.4542 -1.3182  3.9488
  980MOL0     H29326   6.552   3.812   4.983 -1.4473 -2.2018  0.3883
  980MOL0     H29327   6.598   3.764   5.139  0.0820 -0.4060 -0.8306
  980MOL0     H29328   6.566   4.012   5.230  1.2277  3.4326  0.3828
  980MOL0     H29329   6.599   4.047   5.059 -3.0961 -2.8971 -2.6331
  980MOL0     H29330   6.818   3.913   5.059 -0.0292 -1.5467 -0.2596
  980MOL0     H29331   6.777   3.900   5.239 -0.6764 -1.1451 -0.3188
  980MOL0     H29332   6.808   4.141   5.062  3.6323  1.0815  0.0258
  980MOL0     H29333   6.792   4.152   5.238 -0.9529  1.4600 -2.1482
  980MOL0     H29334   7.004   4.195   5.216 -1.1294 -1.0095  0.6391
  980MOL0     H29335   7.028   4.112   5.061  3.1129  1.2220  0.1363
  980MOL0     H29336   7.026   3.895   5.203  0.8687 -0.2407  1.1507
  980MOL0     H29337   6.997   3.996   5.348  0.4873 -0.3620  0.0033
  980MOL0     H29338   7.258   3.964   5.192  2.1850  0.1098  2.8191
  980MOL0     H29339   7.206   4.115   5.281  0.7469  0.3099 -1.2923
  980MOL0     H29340   7.273   3.820   5.375  0.2006 -0.3310  2.2968
  980MOL0     H29341   7.206   3.937   5.483  2.7170  1.0684  2.5945
  980MOL0     H29342   6.173   3.698   5.163  1.3070 -0.9356 -1.3832
  980MOL0     H29343   5.987   3.747   5.053  0.7208 -2.8640 -2.4209
  980MOL0     H29344   5.853   4.110   4.520  0.4880  1.0403  0.5893
  980MOL0     H29345   5.620   4.177   4.442  2.7789 -3.2037 -1.3633
  980MOL0     H29346   6.289   4.142   5.359  1.8336  0.3554  2.5121
  980MOL0     H29347   6.537   4.187   5.348  0.2205  1.3900 -0.5072
  980MOL0     H29348   6.876   4.351   5.461  4.6209  0.2501  3.3778
  980MOL0     H29349   7.113   4.366   5.516  1.7845 -0.0072 -1.0434
  980MOL0     H29350   7.339   4.325   5.269 -2.5473  0.8797  0.2826
  980MOL0     H29351   7.394   4.301   5.438 -2.7014  1.7789  1.0372
  980MOL0     H29352   7.511   4.509   5.243 -1.6891 -1.4416 -0.8105
  980MOL0     H29353   7.557   4.501   5.407 -1.2317 -1.1809  1.2324
  980MOL0     H29354   7.598   4.276   5.199  0.5659 -0.0532  1.1371
  980MOL0     H29355   7.631   4.248   5.359  3.1828 -0.7563 -1.5156
  980MOL0     H29356   7.765   4.486   5.240  0.6402  0.3591 -1.6419
  980MOL0     H29357   7.830   4.376   5.371  1.7358 -0.1966 -1.1029
  980MOL0     H29358   7.941   4.158   5.033  0.4779  2.6338 -1.6191
  980MOL0     H29359   7.195   4.576   5.157  0.0405  1.7199 -0.7022
  980MOL0     H29360   6.957   4.589   5.109 -0.3292 -5.7133 -3.6216
  981MOL0     O29361   7.012   0.200   6.012 -0.1581  0.3692 -0.1824
  981MOL0     C29362   7.091   0.270   6.077  0.9013 -0.6067  0.7404
  981MOL0     O29363   7.060   0.371   6.159 -0.0166 -0.1941 -0.0800
  981MOL0     C29364   6.937   0.383   6.209 -0.2945  0.6789  0.0798
  981MOL0     C29365   6.842   0.454   6.135  0.8777  0.3370 -0.3615
  981MOL0     C29366   6.721   0.479   6.198 -0.0098  0.1133 -0.5932
  981MOL0     C29367   6.683   0.419   6.318  0.4377  0.1601 -0.0166
  981MOL0     O29368   6.563   0.436   6.372 -0.1187 -0.6752 -0.0500
  981MOL0     C29369   6.468   0.514   6.304 -0.4134  0.3622 -0.5059
  981MOL0     C29370   6.348   0.513   6.405  0.2365 -0.6601  0.4434
  981MOL0     C29371   6.245   0.624   6.376 -0.7338 -0.0923  0.6403
  981MOL0     C29372   6.151   0.590   6.264  0.3806  0.8445  0.6183
  981MOL0     C29373   6.070   0.703   6.212  0.9188  0.3580 -0.0378
  981MOL0     C29374   5.949   0.659   6.121 -0.4385  0.0830 -0.6323
  981MOL0     C29375   5.969   0.612   5.981  0.4184  0.1552  0.0469
  981MOL0     C29376   6.084   0.670   5.906  0.2738 -1.1304  0.7350
  981MOL0     N29377   6.216   0.612   5.933  0.3294 -0.0023 -0.2602
  981MOL0     C29378   6.246   0.479   5.893  0.1279 -0.6238  0.1556
  981MOL0     C29379   6.380   0.481   5.916  0.6528  0.0141 -0.3461
  981MOL0     C29380   6.481   0.371   5.867 -1.0139  0.3246 -0.9125
  981MOL0     C29381   6.609   0.416   5.813  0.6821 -0.3874  0.4921
  981MOL0     C29382   6.709   0.311   5.785  0.2337  0.2099  0.3636
  981MOL0     C29383   6.784   0.324   5.647  0.4108 -0.6716 -0.1227
  981MOL0     O29384   6.829   0.460   5.624  0.2629  0.5195 -0.1492
  981MOL0     C29385   6.947   0.498   5.670 -0.5890  0.7116 -0.1100
  981MOL0     C29386   7.000   0.612   5.602 -0.9804  0.5444  0.5908
  981MOL0     C29387   7.132   0.659   5.615 -0.0151 -0.1684 -0.9934
  981MOL0     C29388   7.223   0.589   5.699  0.4596  1.6350  0.0901
  981MOL0     C29389   7.361   0.623   5.697 -0.6508  0.1805 -0.1369
  981MOL0     O29390   7.398   0.714   5.604  0.2384  0.0356 -0.2146
  981MOL0     C29391   7.527   0.728   5.568 -0.0089 -0.4232 -0.4613
  981MOL0     C29392   7.568   0.861   5.554  0.4662 -0.2266 -0.2282
  981MOL0     C29393   7.692   0.894   5.503  0.7301  0.5983  0.8384
  981MOL0     C29394   7.778   0.786   5.465 -0.7014  0.1745 -0.1818
  981MOL0     O29395   7.909   0.810   5.425 -0.3641 -0.4251 -0.1504
  981MOL0     C29396   7.923   0.924   5.351 -0.2686 -0.4832 -0.2112
  981MOL0     C29397   8.073   0.917   5.291  0.5306  0.3058  0.2868
  981MOL0     C29398   8.098   0.839   5.156  1.2228 -0.4771  0.7826
  981MOL0     C29399   8.250   0.845   5.120  0.0546 -0.4628  0.8452
  981MOL0     C29400   8.266   0.879   4.972 -0.1380  0.6204 -0.1444
  981MOL0     C29401   8.194   0.773   4.871  0.0631 -0.2321 -0.7961
  981MOL0     C29402   8.240   0.626   4.873 -0.6396 -0.1527  0.5795
  981MOL0     C29403   8.383   0.590   4.819 -0.0355  0.4366  0.7095
  981MOL0    Cl29404   8.402   0.682   4.657  0.1831 -0.1241  0.1265
  981MOL0     C29405   7.740   0.652   5.488 -0.0113 -0.5177  0.5048
  981MOL0     C29406   7.613   0.625   5.535  0.4866  0.1804 -0.0861
  981MOL0     O29407   7.441   0.582   5.777  0.3712 -0.5333  0.0494
  981MOL0     C29408   7.168   0.482   5.763  0.5667  0.8351  0.5508
  981MOL0     C29409   7.039   0.434   5.751 -0.3438  1.1186  0.0677
  981MOL0     N29410   6.431   0.606   5.971 -0.1856  0.3033 -0.8047
  981MOL0     N29411   6.320   0.679   5.980  0.1165  0.1379 -0.1328
  981MOL0     C29412   6.779   0.346   6.388 -0.1302 -0.4499 -0.0755
  981MOL0     C29413   6.908   0.326   6.335  0.5391  0.1440 -0.0050
  981MOL0     C29414   7.229   0.240   6.047  0.0492 -0.5998 -0.5566
  981MOL0     C29415   7.327   0.331   6.071  0.5336 -0.1943  0.0126
  981MOL0     C29416   7.466   0.303   6.057 -0.3571 -0.2668 -0.1889
  981MOL0     C29417   7.504   0.178   6.001  0.4983 -0.3540  0.4402
  981MOL0     O29418   7.636   0.177   5.973  0.1197 -0.3730 -0.1067
  981MOL0     C29419   7.680   0.052   5.913  0.4162  0.2746 -0.2412
  981MOL0     C29420   7.816   0.088   5.849 -0.2402  0.3577  0.1095
  981MOL0     C29421   7.816   0.121   5.699  0.4549 -0.1626 -0.4932
  981MOL0     C29422   7.705   0.227   5.664 -0.0974 -0.1122  0.1469
  981MOL0     C29423   7.662   0.212   5.518  0.4370 -0.4210 -1.0178
  981MOL0     C29424   7.633   0.215   5.399  0.2515  0.5421  0.2900
  981MOL0     C29425   7.403   0.077   5.973 -1.1619  0.2030 -0.5811
  981MOL0     C29426   7.264   0.104   6.009  0.2227  0.4015  0.7144
  981MOL0     H29427   6.860   0.488   6.034 -2.0351  1.6090 -0.5485
  981MOL0     H29428   6.647   0.531   6.138  0.4285 -0.3463 -1.5625
  981MOL0     H29429   6.432   0.466   6.213  1.5183  0.5257 -1.3965
  981MOL0     H29430   6.496   0.619   6.289 -2.0411  1.3097  2.3268
  981MOL0     H29431   6.384   0.529   6.507 -1.6862 -0.5060  1.1390
  981MOL0     H29432   6.308   0.412   6.394  1.6849 -1.2062 -0.0453
  981MOL0     H29433   6.296   0.715   6.346 -0.2755 -0.7068 -0.5117
  981MOL0     H29434   6.191   0.653   6.467 -0.1909  1.7346  0.4194
  981MOL0     H29435   6.204   0.546   6.179  1.7175  2.0538  0.7733
  981MOL0     H29436   6.078   0.518   6.303 -0.5076  2.3210  1.8288
  981MOL0     H29437   6.136   0.771   6.157  1.4735  1.1848  1.6004
  981MOL0     H29438   6.032   0.748   6.304  2.8735  0.0268  0.9854
  981MOL0     H29439   5.878   0.742   6.115  0.2286  0.6281 -1.1969
  981MOL0     H29440   5.888   0.593   6.183  0.3441  0.5916  0.7446
  981MOL0     H29441   5.981   0.504   5.969  2.9518  0.6806 -4.4200
  981MOL0     H29442   5.882   0.646   5.925  2.3440  0.6981 -2.8421
  981MOL0     H29443   6.085   0.770   5.950  0.2302 -1.4170  1.3892
  981MOL0     H29444   6.073   0.671   5.797  1.2559 -1.8849  0.6134
  981MOL0     H29445   6.184   0.403   5.845  1.5686 -0.9111 -1.3113
  981MOL0     H29446   6.446   0.308   5.784  0.0340  0.7368 -1.6918
  981MOL0     H29447   6.497   0.308   5.954  0.6445  1.2314 -0.5323
  981MOL0     H29448   6.657   0.495   5.872  3.7207 -0.5371 -1.5187
  981MOL0     H29449   6.578   0.466   5.720 -0.2393  2.3462  2.1441
  981MOL0     H29450   6.785   0.321   5.863  1.2771 -0.9881 -0.4548
  981MOL0     H29451   6.663   0.213   5.802 -2.1090  1.0534 -0.7304
  981MOL0     H29452   6.706   0.291   5.578  0.7197 -0.3047 -0.6573
  981MOL0     H29453   6.857   0.242   5.645  0.5874 -0.7414  3.2362
  981MOL0     H29454   6.927   0.666   5.542 -1.4501  1.0676  1.6068
  981MOL0     H29455   7.170   0.746   5.563  1.4215  1.5916  2.6489
  981MOL0     H29456   7.505   0.936   5.602  1.5021 -0.9725  2.5284
  981MOL0     H29457   7.713   1.000   5.493  1.2181  0.7147  2.6162
  981MOL0     H29458   7.919   1.018   5.406 -1.4565  0.8649 -2.4179
  981MOL0     H29459   7.861   0.939   5.262  0.9284  2.1066 -0.7135
  981MOL0     H29460   8.129   0.869   5.371  0.7760  3.7952  2.4061
  981MOL0     H29461   8.109   1.020   5.299 -0.1032  0.4748  1.1510
  981MOL0     H29462   8.048   0.887   5.071  3.9102  0.0774 -0.5867
  981MOL0     H29463   8.053   0.739   5.159 -0.3412  0.2162  1.1735
  981MOL0     H29464   8.308   0.906   5.190 -0.0653  0.3935  0.2093
  981MOL0     H29465   8.287   0.742   5.129 -1.1308 -1.7869 -5.3432
  981MOL0     H29466   8.372   0.872   4.945  0.6617  1.3874  2.4874
  981MOL0     H29467   8.240   0.984   4.958  0.6524  0.4674 -3.8289
  981MOL0     H29468   8.201   0.811   4.769  2.6971 -2.4424 -1.5715
  981MOL0     H29469   8.089   0.763   4.898  1.1227 -4.6744  3.0766
  981MOL0     H29470   8.241   0.577   4.971 -1.0654 -2.7090 -0.6008
  981MOL0     H29471   8.161   0.573   4.820  0.4598  0.8919 -2.2680
  981MOL0     H29472   8.375   0.485   4.787 -3.6870  1.0496 -0.7511
  981MOL0     H29473   8.459   0.616   4.893  1.3515  1.2863 -0.9452
  981MOL0     H29474   7.825   0.591   5.456  1.9432  1.2870  1.9779
  981MOL0     H29475   7.574   0.524   5.547 -1.8456  1.1957  1.7191
  981MOL0     H29476   7.240   0.425   5.821  1.3683  0.9619 -0.3083
  981MOL0     H29477   7.010   0.339   5.794 -0.4942  0.9325 -0.4448
  981MOL0     H29478   6.739   0.303   6.479 -1.8406 -0.8588 -0.9700
  981MOL0     H29479   6.986   0.276   6.391 -1.1194 -0.6464  1.7219
  981MOL0     H29480   7.301   0.433   6.098  1.9881  0.6986 -1.7103
  981MOL0     H29481   7.546   0.375   6.070  0.4639 -1.1898 -0.0716
  981MOL0     H29482   7.603   0.017   5.844 -0.2403 -0.7649  0.9660
  981MOL0     H29483   7.710  -0.022   5.988  1.6766  1.8415  0.8846
  981MOL0     H29484   7.862   0.164   5.912 -0.2177  0.7296 -0.3477
  981MOL0     H29485   7.888   0.006   5.843 -1.0979 -0.4184  0.1731
  981MOL0     H29486   7.788   0.023   5.659 -0.1228  0.0156 -0.5411
  981MOL0     H29487   7.908   0.162   5.656  1.0349 -1.9974 -1.0807
  981MOL0     H29488   7.612   0.233   5.721  0.9717  3.3580  1.8123
  981MOL0     H29489   7.748   0.325   5.684 -2.9044  1.0467  0.9479
  981MOL0     H29490   7.609   0.191   5.297  0.5794 -4.0102  1.0743
  981MOL0     H29491   7.418  -0.026   5.941  3.8566  0.7804 -0.9000
  981MOL0     H29492   7.190   0.026   5.997 -2.4274  3.0391 -1.9690
  982MOL0     O29493   5.024   9.202   2.607  0.4189  0.4062  0.3346
  982MOL0     C29494   5.104   9.157   2.688 -0.1488  0.4481 -0.1511
  982MOL0     O29495   5.179   9.227   2.772  0.0850 -0.3219 -0.1636
  982MOL0     C29496   5.159   9.359   2.771 -0.1696 -0.1506 -0.7170
  982MOL0     C29497   5.031   9.418   2.796 -0.0953 -0.8174 -0.4789
  982MOL0     C29498   5.011   9.560   2.806 -0.3362 -1.1540 -0.3858
  982MOL0     C29499   5.122   9.641   2.793  0.2965  0.0300  0.8421
  982MOL0     O29500   5.130   9.779   2.811 -0.0684 -0.2568  0.3607
  982MOL0     C29501   5.026   9.862   2.870  0.3670  0.0718 -0.2886
  982MOL0     C29502   5.043  10.002   2.808  0.6087  0.2366  0.0878
  982MOL0     C29503   5.165  10.071   2.875  0.0858 -0.1421  0.0072
  982MOL0     C29504   5.117  10.132   3.015 -0.0842  0.0414 -1.1197
  982MOL0     C29505   5.012  10.251   2.996 -0.3507 -0.2421 -0.1061
  982MOL0     C29506   5.070  10.370   2.922  0.0795 -0.1698 -0.5884
  982MOL0     C29507   4.993  10.498   2.960 -0.3648  0.5269 -0.7114
  982MOL0     C29508   4.858  10.532   2.897 -0.8715  1.1863  0.0084
  982MOL0     N29509   4.852  10.676   2.871  0.4116 -0.6293  0.2348
  982MOL0     C29510   4.834  10.773   2.956  0.9641 -0.4460 -0.3692
  982MOL0     C29511   4.797  10.876   2.883  0.3159 -0.3247 -0.0172
  982MOL0     C29512   4.754  11.012   2.940  0.7140 -0.6831 -0.1699
  982MOL0     C29513   4.825  11.050   3.072  0.2167  1.0823  0.9467
  982MOL0     C29514   4.980  11.060   3.071  0.7358  0.0589 -0.1306
  982MOL0     C29515   5.032  11.167   2.979  0.3076 -0.1299  0.5652
  982MOL0     O29516   5.173  11.161   2.963  0.2223 -0.1468 -0.5868
  982MOL0     C29517   5.236  11.265   2.902  1.1897  0.5560  0.6630
  982MOL0     C29518   5.366  11.297   2.933  0.5076  0.0088 -0.2805
  982MOL0     C29519   5.443  11.381   2.850  0.0367  1.1403 -0.2893
  982MOL0     C29520   5.390  11.434   2.730 -0.2106 -0.3838 -0.4980
  982MOL0     C29521   5.471  11.521   2.639 -0.2654  0.5131 -0.1951
  982MOL0     O29522   5.406  11.565   2.534 -0.5754  0.0735 -0.4936
  982MOL0     C29523   5.482  11.602   2.428 -1.5001  0.0116 -0.3049
  982MOL0     C29524   5.518  11.734   2.396  0.7781 -0.8345  0.4810
  982MOL0     C29525   5.586  11.769   2.280  0.2640 -0.1009 -0.6823
  982MOL0     C29526   5.632  11.676   2.182 -0.2865 -0.1201  0.3742
  982MOL0     O29527   5.714  11.710   2.079  0.1976 -0.0297  0.5129
  982MOL0     C29528   5.824  11.634   2.035  0.2314 -0.0535 -0.1277
  982MOL0     C29529   5.947  11.699   2.103 -0.0123  0.1076  0.7327
  982MOL0     C29530   6.086  11.628   2.079 -0.6499 -0.1502  0.9109
  982MOL0     C29531   6.199  11.733   2.145  0.4431 -0.1366 -0.4707
  982MOL0     C29532   6.335  11.674   2.117 -0.3122 -0.3083 -0.1164
  982MOL0     C29533   6.450  11.758   2.164 -0.3649  0.0684 -0.2562
  982MOL0     C29534   6.575  11.675   2.138  0.1816 -0.1817 -0.1137
  982MOL0     C29535   6.690  11.734   2.219 -0.5581 -0.5218  0.8266
  982MOL0    Cl29536   6.827  11.618   2.189  0.6808 -0.1501  0.0797
  982MOL0     C29537   5.610  11.538   2.219  0.0414 -0.4454  0.0292
  982MOL0     C29538   5.529  11.503   2.332  0.2650 -1.0677 -1.4293
  982MOL0     O29539   5.589  11.543   2.666 -0.8399 -0.6104  1.3465
  982MOL0     C29540   5.254  11.401   2.709  0.5992 -0.3880  0.1102
  982MOL0     C29541   5.177  11.325   2.786 -0.4994  0.2917  0.3579
  982MOL0     N29542   4.810  10.846   2.750  1.0866  0.0570 -0.0855
  982MOL0     N29543   4.846  10.721   2.746 -0.5634 -0.6850  0.7188
  982MOL0     C29544   5.253   9.582   2.773  0.2815 -0.3385 -0.4038
  982MOL0     C29545   5.265   9.445   2.766 -0.9452 -0.8970 -0.4716
  982MOL0     C29546   5.134   9.015   2.693 -0.0096  1.0694  0.4087
  982MOL0     C29547   5.105   8.932   2.589  0.4809 -0.0425 -0.0714
  982MOL0     C29548   5.158   8.806   2.573  0.5624  1.0348  0.3080
  982MOL0     C29549   5.225   8.745   2.674 -0.7202  0.5793  0.1679
  982MOL0     O29550   5.282   8.612   2.678 -0.6263  0.1645 -0.6896
  982MOL0     C29551   5.277   8.525   2.555  0.6803 -0.2294 -0.5308
  982MOL0     C29552   5.399   8.536   2.455 -0.4495  0.0337 -0.6680
  982MOL0     C29553   5.378   8.481   2.314 -0.3875 -0.4416 -0.0726
  982MOL0     C29554   5.497   8.513   2.222 -0.1716 -0.7961 -0.5714
  982MOL0     C29555   5.628   8.453   2.263  0.7025  0.7180  0.0051
  982MOL0     C29556   5.751   8.431   2.292  0.3706 -0.2036  0.9632
  982MOL0     C29557   5.258   8.821   2.787  0.3779 -0.2767  0.4615
  982MOL0     C29558   5.211   8.953   2.791 -0.2439 -0.6295 -0.4253
  982MOL0     H29559   4.945   9.353   2.792 -0.6947 -0.0021 -1.3244
  982MOL0     H29560   4.915   9.609   2.812  0.5341  0.4632  1.3633
  982MOL0     H29561   5.036   9.852   2.979 -0.8376 -1.6570 -0.2971
  982MOL0     H29562   4.929   9.821   2.840  0.8010 -1.2522  0.0590
  982MOL0     H29563   4.949  10.058   2.811  0.8513  0.6076  1.7805
  982MOL0     H29564   5.075   9.977   2.706  0.0081  0.6652 -0.2152
  982MOL0     H29565   5.213  10.141   2.806 -0.0923 -0.9998 -1.0071
  982MOL0     H29566   5.238   9.992   2.896 -0.3168 -1.2845 -2.5475
  982MOL0     H29567   5.057  10.055   3.065 -1.4385  1.6353 -0.1458
  982MOL0     H29568   5.197  10.168   3.080 -3.1036 -0.0538  3.1210
  982MOL0     H29569   4.990  10.271   3.101 -0.9743 -5.6837  1.0786
  982MOL0     H29570   4.920  10.222   2.945 -1.9059 -1.5561  3.2005
  982MOL0     H29571   5.075  10.343   2.816  2.3634  0.0500 -0.5847
  982MOL0     H29572   5.172  10.391   2.954 -0.2874 -0.5876  0.9365
  982MOL0     H29573   4.987  10.497   3.069 -3.6603 -1.2846 -0.7628
  982MOL0     H29574   5.063  10.579   2.941 -0.6054  0.4590 -1.9872
  982MOL0     H29575   4.793  10.494   2.976 -0.0286  2.8146  1.5546
  982MOL0     H29576   4.844  10.477   2.803  3.9803  1.4429 -1.1371
  982MOL0     H29577   4.841  10.762   3.064 -2.0049 -0.5030 -0.1187
  982MOL0     H29578   4.648  11.019   2.966  0.9244 -3.9489  2.2787
  982MOL0     H29579   4.770  11.078   2.855  3.0246 -3.2446 -1.9076
  982MOL0     H29580   4.792  10.980   3.150 -1.3447  2.2300  1.3683
  982MOL0     H29581   4.777  11.145   3.098 -3.3641 -0.3872  0.3407
  982MOL0     H29582   5.018  11.072   3.173 -0.4495 -0.3371  0.3730
  982MOL0     H29583   5.014  10.965   3.028 -0.1743  0.2507 -1.3187
  982MOL0     H29584   5.009  11.263   3.027 -1.6710 -0.4416  0.3519
  982MOL0     H29585   4.981  11.161   2.882  2.0405  2.0139 -0.5688
  982MOL0     H29586   5.406  11.249   3.022 -0.5343  1.3006  0.9173
  982MOL0     H29587   5.550  11.391   2.869  0.3030  2.9903 -2.3885
  982MOL0     H29588   5.493  11.807   2.473 -0.6961  0.1264 -0.8532
  982MOL0     H29589   5.600  11.872   2.248 -0.4298  0.2090 -0.0201
  982MOL0     H29590   5.830  11.649   1.927  0.8966 -0.3621 -0.1400
  982MOL0     H29591   5.827  11.530   2.069  3.7658  0.6999  2.5447
  982MOL0     H29592   5.930  11.686   2.210  0.9813 -0.8664  0.7919
  982MOL0     H29593   5.951  11.806   2.080  1.1511  0.0535  0.6205
  982MOL0     H29594   6.106  11.634   1.972  1.0499  4.9266  1.2602
  982MOL0     H29595   6.090  11.522   2.107  3.5488 -1.0592 -2.1389
  982MOL0     H29596   6.180  11.831   2.100  1.0735 -0.3638 -1.2558
  982MOL0     H29597   6.191  11.739   2.254 -1.3660  1.7721 -0.6295
  982MOL0     H29598   6.346  11.661   2.009 -0.8581  0.8445 -0.3312
  982MOL0     H29599   6.337  11.579   2.171  2.1711 -0.0761  0.3425
  982MOL0     H29600   6.454  11.778   2.272  1.2325 -1.9402  0.1318
  982MOL0     H29601   6.462  11.848   2.103  0.1242 -1.6859 -2.8784
  982MOL0     H29602   6.553  11.570   2.158  1.9285 -0.5667 -0.0785
  982MOL0     H29603   6.603  11.686   2.033  0.5799  0.3976  0.0476
  982MOL0     H29604   6.670  11.721   2.326 -1.5858 -1.9595  0.5029
  982MOL0     H29605   6.713  11.836   2.189 -0.6275 -0.9211 -0.6815
  982MOL0     H29606   5.661  11.461   2.162  0.6076  0.5755 -0.8654
  982MOL0     H29607   5.504  11.403   2.366 -3.2318 -0.1574 -0.9176
  982MOL0     H29608   5.203  11.447   2.625  4.8991  5.0972 -0.1026
  982MOL0     H29609   5.075  11.301   2.759 -1.0406  0.7646  1.8896
  982MOL0     H29610   5.337   9.650   2.774 -2.1534  2.8880  0.6195
  982MOL0     H29611   5.364   9.401   2.758 -0.1080  0.2996  2.1298
  982MOL0     H29612   5.053   8.980   2.506 -0.7864  1.2376  1.3812
  982MOL0     H29613   5.155   8.750   2.480 -1.4448 -0.7931  1.3822
  982MOL0     H29614   5.184   8.537   2.497 -0.3444  1.2699  1.3053
  982MOL0     H29615   5.272   8.421   2.588 -0.5379 -0.4451 -1.3143
  982MOL0     H29616   5.427   8.642   2.447 -2.3198  0.9774  3.0745
  982MOL0     H29617   5.486   8.491   2.504 -1.9875  0.6128  2.9037
  982MOL0     H29618   5.287   8.529   2.277 -1.4303  0.2596  3.1192
  982MOL0     H29619   5.361   8.373   2.316  1.0417 -0.6826  1.4968
  982MOL0     H29620   5.474   8.475   2.121  1.9052 -2.4085 -0.5132
  982MOL0     H29621   5.497   8.622   2.211  1.3178 -0.1579  3.9153
  982MOL0     H29622   5.854   8.410   2.312  1.6882  3.2400 -1.1500
  982MOL0     H29623   5.306   8.781   2.875 -2.5821  1.3298  3.0135
  982MOL0     H29624   5.236   9.025   2.869  1.1725  0.8066 -2.0928
  983MOL0     O29625   6.757   2.997   8.635  0.3836  0.7197  0.0495
  983MOL0     C29626   6.687   2.972   8.540 -0.6308 -0.4798 -0.3074
  983MOL0     O29627   6.705   3.023   8.420  0.4609  0.0458  0.5745
  983MOL0     C29628   6.808   3.108   8.393 -0.0322  0.2759 -0.4512
  983MOL0     C29629   6.837   3.213   8.475 -0.6991 -0.2948 -0.0338
  983MOL0     C29630   6.939   3.300   8.446  0.5091  0.4168 -0.4556
  983MOL0     C29631   7.035   3.268   8.343 -0.3964  0.7517  0.4739
  983MOL0     O29632   7.158   3.336   8.321  0.0439 -0.3772  0.3639
  983MOL0     C29633   7.182   3.456   8.390  0.4656 -0.0131  0.3278
  983MOL0     C29634   7.308   3.519   8.319  0.1524 -1.1996 -0.0509
  983MOL0     C29635   7.411   3.576   8.416  0.5607 -0.9473 -0.2115
  983MOL0     C29636   7.349   3.687   8.495  0.2126 -0.0593 -0.2550
  983MOL0     C29637   7.433   3.750   8.616 -0.1479  0.3717 -0.2838
  983MOL0     C29638   7.584   3.754   8.581 -0.5448  0.4299 -0.4829
  983MOL0     C29639   7.658   3.849   8.688  0.3071  0.3575  0.0865
  983MOL0     C29640   7.802   3.806   8.683 -0.0574  0.2516  1.0241
  983MOL0     N29641   7.833   3.662   8.708 -1.2070 -0.3530  0.3941
  983MOL0     C29642   7.932   3.595   8.654 -0.7665 -0.5996  0.3967
  983MOL0     C29643   7.934   3.474   8.725 -0.3868 -0.2210  0.3154
  983MOL0     C29644   8.013   3.358   8.685 -0.1135  0.3204  0.5934
  983MOL0     C29645   8.166   3.358   8.722 -0.3701  0.1456  0.5395
  983MOL0     C29646   8.247   3.476   8.656  0.5225  0.8800 -0.0531
  983MOL0     C29647   8.261   3.467   8.500 -0.2539  0.3968 -0.6551
  983MOL0     O29648   8.353   3.576   8.476  0.3200  0.3017 -0.0285
  983MOL0     C29649   8.429   3.582   8.358  0.0591 -0.4183  0.5071
  983MOL0     C29650   8.514   3.695   8.347  0.3654  0.0306 -0.1727
  983MOL0     C29651   8.580   3.717   8.231  0.1891  0.4384  0.2398
  983MOL0     C29652   8.570   3.623   8.121  0.6768 -0.4458  0.2634
  983MOL0     C29653   8.619   3.668   7.992  0.6429 -0.2570  0.5317
  983MOL0     O29654   8.725   3.746   7.980 -0.2079 -0.3474 -0.1189
  983MOL0     C29655   8.808   3.754   7.866 -0.2624 -0.4678  0.9809
  983MOL0     C29656   8.919   3.844   7.855  0.5483  0.1676  0.1252
  983MOL0     C29657   9.011   3.844   7.748  0.2379  0.4267  0.3063
  983MOL0     C29658   8.992   3.750   7.643  0.8531  0.0377  0.3887
  983MOL0     O29659   9.074   3.732   7.527  0.4382 -0.6448 -0.6482
  983MOL0     C29660   9.190   3.821   7.521 -0.1296  0.7148 -0.2644
  983MOL0     C29661   9.270   3.793   7.391 -0.1296  0.5037 -0.6059
  983MOL0     C29662   9.391   3.882   7.380  0.4275 -0.9359 -0.4541
  983MOL0     C29663   9.447   3.830   7.253 -0.0700 -0.1994 -0.1907
  983MOL0     C29664   9.577   3.901   7.236  0.3024 -0.1491  0.1846
  983MOL0     C29665   9.632   3.874   7.092  0.1980 -0.1461  0.3392
  983MOL0     C29666   9.719   3.748   7.094  0.4553  0.6548  0.0586
  983MOL0     C29667   9.756   3.706   6.957 -0.8487  0.0555 -0.4987
  983MOL0    Cl29668   9.873   3.827   6.889  0.1279  0.0435 -0.3558
  983MOL0     C29669   8.889   3.662   7.648 -0.2072  0.0865 -0.0689
  983MOL0     C29670   8.798   3.658   7.755 -0.0464  0.5753 -0.2312
  983MOL0     O29671   8.545   3.639   7.896  1.3978  0.2006  0.5916
  983MOL0     C29672   8.486   3.511   8.132  0.3147  1.4077 -0.6769
  983MOL0     C29673   8.416   3.498   8.246  0.2767  0.2526  0.7504
  983MOL0     N29674   7.842   3.474   8.819  0.2219  0.9170  0.0155
  983MOL0     N29675   7.780   3.584   8.805  0.1860  0.2833  0.6860
  983MOL0     C29676   7.008   3.154   8.260  0.7927  0.4006 -0.1086
  983MOL0     C29677   6.886   3.085   8.284 -0.1128  0.4088  0.3684
  983MOL0     C29678   6.580   2.882   8.554  0.2988  0.6246  0.2316
  983MOL0     C29679   6.539   2.816   8.667 -0.7781  0.0769 -0.8996
  983MOL0     C29680   6.425   2.743   8.673  0.2303  0.4047  0.3202
  983MOL0     C29681   6.347   2.709   8.561 -0.8640 -0.1892 -0.1873
  983MOL0     O29682   6.236   2.636   8.577  1.2580  0.4340 -1.6138
  983MOL0     C29683   6.144   2.634   8.477  0.0128  0.6711  0.5028
  983MOL0     C29684   6.013   2.566   8.530  0.0552  0.3663  0.6352
  983MOL0     C29685   5.938   2.503   8.411  0.3986 -0.0752  0.0719
  983MOL0     C29686   5.796   2.463   8.440 -0.1571 -0.0829 -0.6795
  983MOL0     C29687   5.718   2.589   8.470 -0.6203  1.3847 -0.8122
  983MOL0     C29688   5.651   2.683   8.499 -0.2723  0.1763  0.4559
  983MOL0     C29689   6.394   2.769   8.437  0.5465  0.0161 -0.3780
  983MOL0     C29690   6.501   2.860   8.441  0.5158  0.9542 -0.5238
  983MOL0     H29691   6.762   3.225   8.553 -0.0534 -2.7330  1.0864
  983MOL0     H29692   6.962   3.380   8.516 -1.9994 -1.3481  2.6527
  983MOL0     H29693   7.199   3.437   8.496  1.5267 -2.7037 -0.2355
  983MOL0     H29694   7.098   3.523   8.369  1.7831  1.0471 -2.0366
  983MOL0     H29695   7.280   3.589   8.240  2.1125 -0.0282  0.2481
  983MOL0     H29696   7.350   3.446   8.251 -0.1076  1.3797 -3.2171
  983MOL0     H29697   7.501   3.617   8.370 -0.2781  0.4657 -0.6696
  983MOL0     H29698   7.439   3.497   8.486  2.4764  0.3921  0.6256
  983MOL0     H29699   7.329   3.770   8.427 -0.1438  1.4743  1.6129
  983MOL0     H29700   7.251   3.657   8.534  0.8386  0.5188  1.9202
  983MOL0     H29701   7.428   3.691   8.708 -0.1286  0.7548 -0.0354
  983MOL0     H29702   7.396   3.846   8.653 -1.3344 -0.4642  0.7832
  983MOL0     H29703   7.599   3.791   8.479 -0.7459 -0.4008 -0.8232
  983MOL0     H29704   7.628   3.654   8.575 -0.6321  0.1826  1.9811
  983MOL0     H29705   7.638   3.950   8.651  1.5325  0.4758 -0.3262
  983MOL0     H29706   7.631   3.843   8.794  4.9988  1.3251  1.5908
  983MOL0     H29707   7.853   3.863   8.760 -0.0058  2.8074 -0.7895
  983MOL0     H29708   7.839   3.833   8.584 -1.4816 -1.6094 -0.0956
  983MOL0     H29709   7.982   3.621   8.561  0.3237  0.1862  1.1704
  983MOL0     H29710   8.002   3.343   8.577  2.4985 -0.7623  0.3814
  983MOL0     H29711   7.965   3.272   8.731  1.2679 -1.2847 -0.7964
  983MOL0     H29712   8.210   3.261   8.702  0.8725  0.2397  2.5732
  983MOL0     H29713   8.187   3.357   8.829  2.7471  1.5097  0.0463
  983MOL0     H29714   8.186   3.566   8.672  0.4564  1.1497 -1.6517
  983MOL0     H29715   8.343   3.471   8.707 -0.5079 -3.1104  1.8945
  983MOL0     H29716   8.165   3.498   8.456 -0.7758 -1.1278 -0.6236
  983MOL0     H29717   8.286   3.368   8.461 -3.9586 -1.0966  0.3202
  983MOL0     H29718   8.521   3.762   8.432 -0.9828 -1.7401  1.4436
  983MOL0     H29719   8.644   3.804   8.222  0.6344  0.7317  4.2236
  983MOL0     H29720   8.946   3.919   7.928 -0.0071  0.1028  0.4016
  983MOL0     H29721   9.093   3.915   7.746  2.3168 -1.7228  2.2367
  983MOL0     H29722   9.244   3.786   7.610 -0.2210 -1.9686 -1.1580
  983MOL0     H29723   9.154   3.924   7.524 -0.4936  0.5640  0.6785
  983MOL0     H29724   9.198   3.813   7.311 -1.6705  0.2392  0.6517
  983MOL0     H29725   9.298   3.688   7.408 -2.7231 -0.4558 -1.6840
  983MOL0     H29726   9.456   3.866   7.466 -1.7367  2.5733  2.0885
  983MOL0     H29727   9.372   3.989   7.382 -0.8347 -1.1522  0.0822
  983MOL0     H29728   9.466   3.722   7.259 -0.8137 -0.2888  0.6563
  983MOL0     H29729   9.376   3.849   7.172 -0.2449 -1.2974 -0.3098
  983MOL0     H29730   9.659   3.878   7.304 -0.8419 -3.2429  0.6700
  983MOL0     H29731   9.557   4.008   7.243  4.6043  0.7295  2.7227
  983MOL0     H29732   9.688   3.961   7.056 -0.1606  0.1551  0.5000
  983MOL0     H29733   9.547   3.855   7.027  0.5237  0.0776 -0.1568
  983MOL0     H29734   9.807   3.768   7.155  2.5099 -3.8934 -1.0058
  983MOL0     H29735   9.658   3.667   7.135  2.5159 -2.0636 -1.8996
  983MOL0     H29736   9.672   3.680   6.892 -1.0488  0.6290 -0.4754
  983MOL0     H29737   9.811   3.612   6.964 -0.0834  0.5613  0.6162
  983MOL0     H29738   8.884   3.596   7.562  0.2998 -1.2539  0.9078
  983MOL0     H29739   8.721   3.582   7.749 -0.6570  1.1566  0.0132
  983MOL0     H29740   8.466   3.447   8.046  3.8389  0.8167 -1.2350
  983MOL0     H29741   8.347   3.414   8.251  0.7922 -0.2414 -0.2386
  983MOL0     H29742   7.070   3.127   8.175 -0.6553  3.1565 -2.2208
  983MOL0     H29743   6.855   2.992   8.237 -1.3671 -1.1311  3.8306
  983MOL0     H29744   6.581   2.841   8.764 -2.5852  2.7362 -0.6917
  983MOL0     H29745   6.380   2.696   8.760 -1.8651  2.0100  0.1970
  983MOL0     H29746   6.183   2.571   8.396  0.7595 -0.4810  1.7273
  983MOL0     H29747   6.122   2.733   8.436 -3.0752 -0.2729 -0.4304
  983MOL0     H29748   6.026   2.480   8.597  1.1356 -0.2289 -0.3060
  983MOL0     H29749   5.949   2.630   8.591  0.0732  1.3720 -0.3862
  983MOL0     H29750   5.988   2.407   8.393  1.2724  0.4455 -0.2743
  983MOL0     H29751   5.939   2.562   8.319 -1.1246 -0.7787 -0.4317
  983MOL0     H29752   5.746   2.413   8.357 -1.8810 -1.6550  1.2069
  983MOL0     H29753   5.789   2.397   8.527 -1.8475  3.5449  2.1804
  983MOL0     H29754   5.608   2.776   8.530 -0.2474 -0.1346  1.4481
  983MOL0     H29755   6.336   2.754   8.346  0.4253  2.2932 -0.7175
  983MOL0     H29756   6.520   2.921   8.353  2.2189  4.1038  1.8063
  984MOL0     O29757   2.990   3.654   2.921 -0.3296  0.9585 -0.0182
  984MOL0     C29758   2.931   3.635   2.816  1.4224  0.3647  0.2392
  984MOL0     O29759   2.977   3.636   2.696  0.2365  0.0152  0.8197
  984MOL0     C29760   3.108   3.647   2.676  0.0086 -0.6519  0.1527
  984MOL0     C29761   3.157   3.775   2.692  0.0508 -0.6430  0.9055
  984MOL0     C29762   3.294   3.796   2.662  0.2129  0.2437 -1.0421
  984MOL0     C29763   3.375   3.694   2.633 -1.2901  0.8015 -0.2202
  984MOL0     O29764   3.507   3.710   2.588 -0.7699  0.3262  0.0082
  984MOL0     C29765   3.569   3.841   2.574 -0.6132  1.3054  0.0802
  984MOL0     C29766   3.635   3.885   2.711  0.3520 -0.5540  0.7538
  984MOL0     C29767   3.736   4.001   2.702 -0.1630  0.0751  0.4765
  984MOL0     C29768   3.702   4.117   2.608  0.2467  0.0273 -0.3752
  984MOL0     C29769   3.577   4.195   2.640 -0.1474  0.5182  0.1491
  984MOL0     C29770   3.604   4.289   2.760  0.3214  0.2734 -0.3608
  984MOL0     C29771   3.475   4.370   2.784 -0.4085 -1.2072 -0.1278
  984MOL0     C29772   3.486   4.479   2.896  0.1431 -0.4580  0.1803
  984MOL0     N29773   3.602   4.560   2.879 -0.3043 -0.8692 -0.6520
  984MOL0     C29774   3.710   4.569   2.961 -0.1731 -0.2486  0.3294
  984MOL0     C29775   3.797   4.642   2.885  1.0336 -0.8585  0.4595
  984MOL0     C29776   3.938   4.693   2.919  0.3149 -0.4144 -0.6634
  984MOL0     C29777   3.932   4.809   3.019  0.9102 -0.0134 -0.5172
  984MOL0     C29778   4.073   4.840   3.090 -0.2626  0.2975 -1.0537
  984MOL0     C29779   4.065   4.973   3.171  0.5367 -0.4280  0.1813
  984MOL0     O29780   3.971   4.957   3.284 -0.4950  0.4596  0.1626
  984MOL0     C29781   4.016   4.901   3.398 -0.0850  0.0125  0.0486
  984MOL0     C29782   4.151   4.869   3.423  1.2583  0.1095  0.6568
  984MOL0     C29783   4.192   4.803   3.538  0.4923 -0.3831 -0.3402
  984MOL0     C29784   4.098   4.766   3.635 -0.6301  0.0560 -1.2180
  984MOL0     C29785   4.145   4.680   3.753 -0.0014 -0.1433 -0.1832
  984MOL0     O29786   4.276   4.656   3.776  0.3101 -0.4563 -0.4875
  984MOL0     C29787   4.319   4.532   3.819  0.0068  0.5046  0.1627
  984MOL0     C29788   4.454   4.530   3.853 -0.1351 -0.9401 -0.3668
  984MOL0     C29789   4.510   4.410   3.896 -0.0255 -0.1647  0.4776
  984MOL0     C29790   4.434   4.290   3.916  1.1983 -0.0591 -0.4361
  984MOL0     O29791   4.477   4.169   3.971  0.6009  0.4981 -0.3436
  984MOL0     C29792   4.609   4.124   3.956 -0.6752 -0.0225 -0.2984
  984MOL0     C29793   4.629   3.985   3.908  0.2802 -0.3952  0.3272
  984MOL0     C29794   4.570   3.953   3.765 -0.1425 -1.1865 -0.1202
  984MOL0     C29795   4.540   3.804   3.759  0.1129  0.0517 -0.0264
  984MOL0     C29796   4.495   3.761   3.619  0.5367 -0.3579 -0.6896
  984MOL0     C29797   4.519   3.608   3.617  0.4641 -0.5789 -0.8001
  984MOL0     C29798   4.450   3.544   3.492  0.0883  0.3244  0.1619
  984MOL0     C29799   4.529   3.410   3.467  0.6434 -0.5013  0.4665
  984MOL0    Cl29800   4.697   3.417   3.399 -0.4494 -0.2373 -0.1968
  984MOL0     C29801   4.299   4.295   3.884 -0.5467 -0.3311  0.5482
  984MOL0     C29802   4.246   4.409   3.833  0.3152 -0.3944 -0.2624
  984MOL0     O29803   4.055   4.627   3.817 -0.1867 -0.5916 -0.1323
  984MOL0     C29804   3.965   4.808   3.616 -0.1037 -0.1697 -1.2051
  984MOL0     C29805   3.925   4.884   3.507  0.4062  0.7029  0.9269
  984MOL0     N29806   3.738   4.670   2.756 -0.2082  0.0526 -1.0193
  984MOL0     N29807   3.617   4.617   2.759 -0.1078  0.6445 -0.4372
  984MOL0     C29808   3.328   3.559   2.629 -0.2243  0.9784 -0.1519
  984MOL0     C29809   3.194   3.531   2.651  0.1298 -1.0105  0.6413
  984MOL0     C29810   2.782   3.615   2.830  0.5003 -0.1602  0.0752
  984MOL0     C29811   2.709   3.608   2.952 -0.5794  1.3101  0.2354
  984MOL0     C29812   2.572   3.601   2.964  0.6740 -0.1628  0.3940
  984MOL0     C29813   2.490   3.610   2.850  1.2663  0.3904 -0.2763
  984MOL0     O29814   2.350   3.605   2.875 -0.3874 -0.0766 -0.2910
  984MOL0     C29815   2.254   3.617   2.768 -0.4826 -0.5296 -0.2566
  984MOL0     C29816   2.162   3.500   2.755  0.3432  0.8914  0.2017
  984MOL0     C29817   2.238   3.367   2.702  0.3782  0.2122 -0.9873
  984MOL0     C29818   2.146   3.259   2.740  1.0018 -0.0736  1.2873
  984MOL0     C29819   2.159   3.201   2.877 -0.0318 -0.6529 -0.4663
  984MOL0     C29820   2.165   3.172   2.987  0.2717 -0.5154 -0.7615
  984MOL0     C29821   2.553   3.606   2.727  0.2220 -0.7567  0.8679
  984MOL0     C29822   2.692   3.612   2.713 -0.2993  0.1040  0.4870
  984MOL0     H29823   3.091   3.860   2.702  1.5520  0.6449  0.2958
  984MOL0     H29824   3.327   3.900   2.664 -1.2444  0.7953  2.3012
  984MOL0     H29825   3.493   3.910   2.535 -1.9476 -1.2153 -2.1089
  984MOL0     H29826   3.652   3.824   2.504 -0.5940 -1.8555  0.7295
  984MOL0     H29827   3.682   3.801   2.762  1.1929 -0.4471  0.1632
  984MOL0     H29828   3.561   3.912   2.788 -0.0964 -3.5666  1.4864
  984MOL0     H29829   3.826   3.962   2.652  0.9527 -0.8873  3.0737
  984MOL0     H29830   3.766   4.042   2.799  0.8729 -1.6282  0.9288
  984MOL0     H29831   3.781   4.193   2.605 -0.8303  1.1896 -0.2443
  984MOL0     H29832   3.709   4.086   2.504 -0.7529  1.6972 -0.9804
  984MOL0     H29833   3.495   4.123   2.643  0.2213 -0.2040 -3.1306
  984MOL0     H29834   3.563   4.264   2.556  0.0243 -1.2339 -1.3786
  984MOL0     H29835   3.695   4.346   2.739  0.4185  0.5553  0.7557
  984MOL0     H29836   3.626   4.234   2.852  1.7683 -2.7621 -2.3559
  984MOL0     H29837   3.430   4.413   2.694 -1.4494 -0.2352  0.8195
  984MOL0     H29838   3.405   4.294   2.821 -1.8449  0.7023  1.3162
  984MOL0     H29839   3.500   4.429   2.992 -0.4315 -0.0592  0.4749
  984MOL0     H29840   3.393   4.535   2.909 -0.4354 -1.6166  1.1426
  984MOL0     H29841   3.723   4.537   3.064  3.1520  2.5866  0.9875
  984MOL0     H29842   3.985   4.748   2.837 -0.2601  3.1096  1.1651
  984MOL0     H29843   3.996   4.609   2.958 -0.2543  0.5919  2.6164
  984MOL0     H29844   3.852   4.792   3.092 -1.2989 -0.6169 -2.9402
  984MOL0     H29845   3.900   4.895   2.959  0.5701  1.2392  1.3519
  984MOL0     H29846   4.093   4.760   3.161  2.1082  0.2499 -1.6901
  984MOL0     H29847   4.146   4.840   3.009 -0.3249 -1.1561 -1.1337
  984MOL0     H29848   4.023   5.042   3.097 -1.3976 -0.2101  1.3952
  984MOL0     H29849   4.162   5.005   3.210  0.7332 -3.7542  2.8623
  984MOL0     H29850   4.222   4.881   3.342  0.6566 -3.3146 -0.5699
  984MOL0     H29851   4.293   4.772   3.564  0.7785  0.7663 -0.0084
  984MOL0     H29852   4.510   4.623   3.849 -1.0737 -0.3575 -0.1875
  984MOL0     H29853   4.615   4.405   3.923 -0.1554 -0.0151  1.0250
  984MOL0     H29854   4.654   4.130   4.056 -0.4040  3.4349 -0.4942
  984MOL0     H29855   4.659   4.192   3.887 -0.2047  0.3051  0.3493
  984MOL0     H29856   4.589   3.906   3.972  0.6676 -0.3231  0.6614
  984MOL0     H29857   4.737   3.966   3.899  0.1412 -0.5709 -1.2159
  984MOL0     H29858   4.635   3.978   3.681  0.0036 -2.8574 -0.5511
  984MOL0     H29859   4.486   4.021   3.749 -0.4451 -1.6334 -0.4699
  984MOL0     H29860   4.619   3.738   3.797 -1.7488 -1.2813  1.7858
  984MOL0     H29861   4.458   3.785   3.829  0.4114 -0.9982  0.0487
  984MOL0     H29862   4.549   3.805   3.536  1.6216  2.4366  1.3483
  984MOL0     H29863   4.392   3.794   3.606  0.1882 -0.9688  0.3979
  984MOL0     H29864   4.487   3.563   3.712  0.5149 -0.8122 -0.8921
  984MOL0     H29865   4.625   3.582   3.616  0.2432 -1.6657  0.7703
  984MOL0     H29866   4.346   3.517   3.509  0.1049  0.5005  0.5740
  984MOL0     H29867   4.453   3.609   3.403 -0.7943 -1.6641 -1.3805
  984MOL0     H29868   4.465   3.356   3.397 -2.5694 -1.9209  4.1458
  984MOL0     H29869   4.526   3.351   3.559 -1.3035 -3.0947 -1.1377
  984MOL0     H29870   4.245   4.205   3.913  2.8073 -1.9293  2.4160
  984MOL0     H29871   4.145   4.400   3.793  1.4270 -1.1373 -3.1503
  984MOL0     H29872   3.891   4.790   3.694 -0.9788  2.3569 -1.3520
  984MOL0     H29873   3.821   4.901   3.480  0.6413  0.4085 -0.2331
  984MOL0     H29874   3.394   3.478   2.601  2.3715  2.5554  1.0493
  984MOL0     H29875   3.153   3.431   2.654 -2.5293 -0.1147 -1.1016
  984MOL0     H29876   2.778   3.601   3.036  1.0168 -0.0798 -1.1106
  984MOL0     H29877   2.540   3.586   3.067  1.0898  0.9504  0.6996
  984MOL0     H29878   2.300   3.639   2.672  1.1089  0.1731  0.6228
  984MOL0     H29879   2.181   3.697   2.783 -4.1065 -3.9577  2.4947
  984MOL0     H29880   2.128   3.478   2.857  1.4349  1.7815  0.7753
  984MOL0     H29881   2.071   3.530   2.702  0.7293  0.6853 -0.5872
  984MOL0     H29882   2.331   3.342   2.753  0.0839 -1.0448 -1.0363
  984MOL0     H29883   2.241   3.377   2.594  1.7892  2.0444 -0.8221
  984MOL0     H29884   2.044   3.296   2.734  1.5318  1.6294  2.0365
  984MOL0     H29885   2.179   3.178   2.674 -0.7099  0.2830 -0.0638
  984MOL0     H29886   2.183   3.160   3.092 -0.6371 -0.1792 -0.5599
  984MOL0     H29887   2.494   3.600   2.636  0.5661 -0.9364  0.6532
  984MOL0     H29888   2.733   3.598   2.613  1.8221 -2.4292  1.5671
  985MOL0     O29889   1.644   9.868   7.183 -0.3179 -0.5796  0.5143
  985MOL0     C29890   1.641   9.966   7.258  0.3685  0.4478 -0.7373
  985MOL0     O29891   1.622   9.963   7.387 -0.9833  0.1010  0.1028
  985MOL0     C29892   1.570   9.849   7.445  0.8766  0.4298  0.3747
  985MOL0     C29893   1.443   9.795   7.402 -0.2973 -0.9817 -0.7052
  985MOL0     C29894   1.385   9.697   7.474 -0.1976 -0.1566 -0.6175
  985MOL0     C29895   1.452   9.636   7.589  1.0374 -0.0617 -0.2457
  985MOL0     O29896   1.395   9.518   7.646 -0.0608 -0.3381 -0.7623
  985MOL0     C29897   1.448   9.474   7.780 -0.1458  0.1717  0.1096
  985MOL0     C29898   1.382   9.343   7.834  0.7458 -0.3291 -0.4851
  985MOL0     C29899   1.230   9.355   7.824 -0.2382 -0.6586  0.0963
  985MOL0     C29900   1.160   9.267   7.922 -0.5838  0.3721 -0.0681
  985MOL0     C29901   1.010   9.269   7.908  0.1873 -0.4381 -0.2495
  985MOL0     C29902   0.941   9.177   8.022  1.3661 -0.0491 -0.6978
  985MOL0     C29903   0.977   9.025   8.018 -0.0704  0.1510 -0.5033
  985MOL0     C29904   0.929   8.946   7.886  0.3628 -0.1149 -0.2302
  985MOL0     N29905   0.780   8.937   7.880 -0.4119 -0.1160  0.7386
  985MOL0     C29906   0.689   9.024   7.852 -0.1592 -1.0566  0.1128
  985MOL0     C29907   0.568   8.958   7.829 -0.1060  0.4572  0.7696
  985MOL0     C29908   0.435   9.014   7.790 -1.5184 -0.4743 -0.1619
  985MOL0     C29909   0.403   9.127   7.882 -0.4399 -0.2497  0.8256
  985MOL0     C29910   0.373   9.090   8.023 -0.6290 -0.0198 -0.0478
  985MOL0     C29911   0.493   9.065   8.102 -1.3394  0.0376 -0.2228
  985MOL0     O29912   0.455   9.051   8.240  0.1607  0.9184  0.0720
  985MOL0     C29913   0.546   9.108   8.327 -0.2175 -0.9545  0.1438
  985MOL0     C29914   0.485   9.170   8.430  0.7807  1.0542  0.1370
  985MOL0     C29915   0.553   9.225   8.545  0.2294  0.7201  1.5407
  985MOL0     C29916   0.696   9.203   8.548  1.4436 -0.4725 -0.3496
  985MOL0     C29917   0.783   9.255   8.665  0.3453  0.1797 -0.1896
  985MOL0     O29918   0.714   9.277   8.782  0.0992  0.0817 -0.1065
  985MOL0     C29919   0.768   9.308   8.909  0.3218  0.1730 -0.3926
  985MOL0     C29920   0.725   9.245   9.025  0.1739  0.0059 -0.4785
  985MOL0     C29921   0.792   9.269   9.142  0.2650 -0.2106 -0.0330
  985MOL0     C29922   0.892   9.361   9.157  1.0710 -0.3311  0.4577
  985MOL0     O29923   0.954   9.368   9.279  0.1833 -0.0754  0.0511
  985MOL0     C29924   0.978   9.499   9.322 -0.4308  0.2460  0.1365
  985MOL0     C29925   1.097   9.510   9.418  0.4188  0.9058  0.5774
  985MOL0     C29926   1.095   9.656   9.480  0.7577 -0.4720  1.1101
  985MOL0     C29927   1.223   9.684   9.559 -0.0550 -0.5918 -0.9895
  985MOL0     C29928   1.200   9.831   9.628 -0.4375  0.2357  0.5398
  985MOL0     C29929   1.296   9.845   9.749 -0.7329  0.0623 -0.0086
  985MOL0     C29930   1.315   9.995   9.789  0.4410  0.0062  0.1382
  985MOL0     C29931   1.388  10.018   9.921  0.3219  0.5404  1.1251
  985MOL0    Cl29932   1.424  10.188   9.952  0.5697 -0.1867  0.1115
  985MOL0     C29933   0.932   9.429   9.040 -0.6577 -0.1952 -0.1459
  985MOL0     C29934   0.882   9.395   8.914 -0.7665 -0.9349 -0.2964
  985MOL0     O29935   0.899   9.273   8.644 -0.0738 -0.5843  0.3824
  985MOL0     C29936   0.755   9.154   8.437 -0.3242 -0.6347  0.3118
  985MOL0     C29937   0.691   9.102   8.326 -0.2779 -0.0593  0.7876
  985MOL0     N29938   0.596   8.817   7.832  0.5423  0.0507 -0.5562
  985MOL0     N29939   0.724   8.813   7.855  0.3228  0.5116  0.0383
  985MOL0     C29940   1.572   9.691   7.627 -1.0395  0.5612  0.2758
  985MOL0     C29941   1.636   9.798   7.560  0.1963  0.3457 -0.1054
  985MOL0     C29942   1.663  10.094   7.200  1.1620 -0.3981 -0.0097
  985MOL0     C29943   1.729  10.096   7.075 -0.9343  0.1708  0.6364
  985MOL0     C29944   1.748  10.219   7.015 -0.9540  0.1769  0.4472
  985MOL0     C29945   1.690  10.328   7.064 -0.3703  0.4923 -0.1973
  985MOL0     O29946   1.691  10.433   6.978 -0.1916 -1.0071  0.2547
  985MOL0     C29947   1.641  10.557   7.023  0.1255 -0.2623  0.1341
  985MOL0     C29948   1.760  10.620   7.106  1.0395 -0.3817 -0.0085
  985MOL0     C29949   1.861  10.686   7.024 -0.0786 -0.1897  0.6511
  985MOL0     C29950   1.830  10.828   6.970  0.8868 -0.4729 -0.3339
  985MOL0     C29951   1.932  10.897   6.898  1.3069  0.6342 -0.7567
  985MOL0     C29952   2.020  10.955   6.841  0.6839 -0.2837  0.0485
  985MOL0     C29953   1.630  10.330   7.188 -0.5461 -0.6348 -0.4846
  985MOL0     C29954   1.620  10.212   7.261 -0.0393  0.9246  0.1995
  985MOL0     H29955   1.404   9.835   7.310  2.2436 -1.5005 -2.1089
  985MOL0     H29956   1.297   9.644   7.437 -0.5719  0.8470 -1.1857
  985MOL0     H29957   1.440   9.561   7.846  0.1976  1.1908 -1.1251
  985MOL0     H29958   1.556   9.459   7.781  0.0466  1.2155  3.0760
  985MOL0     H29959   1.404   9.326   7.940  0.1777 -0.6718 -0.4187
  985MOL0     H29960   1.423   9.262   7.773 -0.2441 -0.7159 -0.6585
  985MOL0     H29961   1.198   9.330   7.722 -0.5055 -0.8053  0.2176
  985MOL0     H29962   1.201   9.460   7.831  0.8657 -0.1101 -2.2336
  985MOL0     H29963   1.187   9.162   7.907  2.0777  1.2658 -2.5163
  985MOL0     H29964   1.189   9.282   8.026  0.8662 -1.3029 -0.1792
  985MOL0     H29965   0.971   9.238   7.811  1.3967  1.7644 -1.5016
  985MOL0     H29966   0.970   9.369   7.926 -1.1264 -1.2577  1.7040
  985MOL0     H29967   0.832   9.185   8.020  1.1475 -1.1800  2.0019
  985MOL0     H29968   0.969   9.203   8.124 -1.9230  0.7971  0.0879
  985MOL0     H29969   1.086   9.024   8.023  0.0835  1.2615 -2.7353
  985MOL0     H29970   0.928   8.967   8.097 -0.9478  2.7824  1.0145
  985MOL0     H29971   0.973   8.846   7.885 -1.0848 -0.8482 -3.1833
  985MOL0     H29972   0.957   8.991   7.790 -2.6263  0.1091 -1.0946
  985MOL0     H29973   0.700   9.132   7.851 -4.1754 -0.4831 -2.3461
  985MOL0     H29974   0.370   8.926   7.795 -0.0639 -1.5422  0.6162
  985MOL0     H29975   0.442   9.052   7.687  1.9640  0.0953  0.1823
  985MOL0     H29976   0.309   9.166   7.843 -0.4995 -2.2684 -1.2391
  985MOL0     H29977   0.477   9.208   7.881 -0.3101 -0.3382 -1.5858
  985MOL0     H29978   0.315   9.171   8.068 -1.9847 -1.1288  0.2774
  985MOL0     H29979   0.310   9.000   8.020 -2.7426  1.3946 -0.3427
  985MOL0     H29980   0.562   9.150   8.096 -0.7678 -0.4596 -0.9190
  985MOL0     H29981   0.555   8.978   8.076  1.5436  1.3994  1.5916
  985MOL0     H29982   0.377   9.170   8.427  0.7671 -0.6682 -0.1540
  985MOL0     H29983   0.497   9.278   8.622 -1.8234  0.3499  0.3683
  985MOL0     H29984   0.656   9.162   9.014 -0.2147  0.5130 -2.0591
  985MOL0     H29985   0.768   9.201   9.223  3.2676  0.0360  1.1589
  985MOL0     H29986   0.891   9.543   9.370  0.4955  0.5696  1.5963
  985MOL0     H29987   1.001   9.564   9.237 -0.1430  0.2049  0.1798
  985MOL0     H29988   1.194   9.510   9.368 -0.6437  1.9451 -1.6153
  985MOL0     H29989   1.085   9.431   9.492 -1.0333 -2.1854 -2.6606
  985MOL0     H29990   1.011   9.683   9.545 -0.2758 -0.1099 -0.3238
  985MOL0     H29991   1.093   9.729   9.399  1.4657 -1.1074  0.5066
  985MOL0     H29992   1.235   9.613   9.641 -1.9622 -1.7538 -1.6591
  985MOL0     H29993   1.321   9.687   9.511 -0.3764 -0.9555 -1.6917
  985MOL0     H29994   1.098   9.844   9.662 -0.8741  0.9077 -0.9389
  985MOL0     H29995   1.210   9.914   9.557 -0.9067 -2.6192 -3.1664
  985MOL0     H29996   1.395   9.814   9.712 -0.2513 -0.3385  1.5227
  985MOL0     H29997   1.269   9.786   9.836 -1.5141  4.0790  2.7480
  985MOL0     H29998   1.363  10.056   9.712 -0.5484  1.7034  0.8160
  985MOL0     H29999   1.218  10.041   9.809  1.2945  1.3411  1.3939
  985MOL0     H30000   1.477   9.954   9.923 -2.0349 -3.0504  0.3312
  985MOL0     H30001   1.324   9.980  10.001  1.1113  0.2024  1.6118
  985MOL0     H30002   1.009   9.506   9.040 -4.1646  3.6768  0.3964
  985MOL0     H30003   0.916   9.450   8.828 -0.2873  3.8009  2.5879
  985MOL0     H30004   0.862   9.144   8.428 -0.4447  0.2064 -4.1280
  985MOL0     H30005   0.734   9.058   8.237 -1.3979  2.6868 -1.2559
  985MOL0     H30006   1.628   9.646   7.708 -0.5876  2.8315  1.2963
  985MOL0     H30007   1.734   9.837   7.584  0.3873  1.0255 -1.8734
  985MOL0     H30008   1.766  10.003   7.032 -0.1001  1.2461 -1.1243
  985MOL0     H30009   1.818  10.216   6.932  0.1588  2.5175  1.2324
  985MOL0     H30010   1.550  10.550   7.083 -1.9541 -2.0249 -2.9888
  985MOL0     H30011   1.623  10.622   6.937 -1.9943 -3.6454 -2.1981
  985MOL0     H30012   1.722  10.706   7.163 -2.2657 -0.7009 -1.5212
  985MOL0     H30013   1.810  10.543   7.165 -0.9200 -2.7503 -1.2528
  985MOL0     H30014   1.891  10.634   6.933  1.2952  2.5426 -0.5781
  985MOL0     H30015   1.949  10.686   7.089 -1.3372 -2.3566  2.4786
  985MOL0     H30016   1.745  10.825   6.902  1.6437  2.0414 -1.5254
  985MOL0     H30017   1.812  10.881   7.064 -0.8290 -1.0576 -0.3003
  985MOL0     H30018   2.084  11.021   6.786  0.1373 -0.6167 -1.0072
  985MOL0     H30019   1.589  10.422   7.226  1.6311  0.7334 -1.2856
  985MOL0     H30020   1.577  10.201   7.361 -0.5308  3.8073  0.3847
  986MOL0     O30021   2.313   5.554   1.951  0.8238  0.7534 -0.5618
  986MOL0     C30022   2.388   5.566   2.048  0.4431  0.0847  0.1124
  986MOL0     O30023   2.406   5.688   2.105  0.3901  0.5567  0.8615
  986MOL0     C30024   2.303   5.786   2.084 -0.2811 -0.6464 -1.0941
  986MOL0     C30025   2.246   5.855   2.196  0.3509 -0.4561  0.3887
  986MOL0     C30026   2.158   5.961   2.181  0.0961  0.1824 -0.2803
  986MOL0     C30027   2.119   6.002   2.056  0.2534 -0.5064 -1.3997
  986MOL0     O30028   2.034   6.112   2.056 -0.6132  0.3064 -0.4602
  986MOL0     C30029   1.950   6.122   1.937 -1.2505  0.6605  0.1919
  986MOL0     C30030   1.835   6.222   1.957  0.5107  0.3927 -0.1225
  986MOL0     C30031   1.865   6.354   2.045 -0.9069  0.5541 -1.4909
  986MOL0     C30032   1.741   6.445   2.014  0.4667 -0.4963 -0.1164
  986MOL0     C30033   1.753   6.580   2.094  0.4265 -0.2404 -0.2530
  986MOL0     C30034   1.743   6.565   2.253  0.2885  0.2525  0.5577
  986MOL0     C30035   1.728   6.703   2.305 -0.4907 -0.5499  0.0811
  986MOL0     C30036   1.851   6.800   2.270 -0.1356 -0.1090  0.7206
  986MOL0     N30037   1.982   6.763   2.313 -0.4665  0.0427 -0.6844
  986MOL0     C30038   2.075   6.726   2.219  0.4168 -0.3586 -0.1846
  986MOL0     C30039   2.185   6.691   2.286  0.3090  0.4427  0.0517
  986MOL0     C30040   2.323   6.659   2.216 -0.0504 -0.1779 -0.7198
  986MOL0     C30041   2.377   6.770   2.124 -0.4219  0.5208  0.6899
  986MOL0     C30042   2.431   6.904   2.185 -0.7550 -0.5490 -0.0395
  986MOL0     C30043   2.325   6.997   2.253  0.3561  0.4812 -0.2876
  986MOL0     O30044   2.239   7.048   2.153 -0.4263  0.3025 -0.0545
  986MOL0     C30045   2.159   7.149   2.194 -0.4066  0.4078  0.5905
  986MOL0     C30046   2.129   7.253   2.101 -0.8150  0.1854 -0.2659
  986MOL0     C30047   2.052   7.368   2.143  0.4351 -0.0597  1.1860
  986MOL0     C30048   1.989   7.375   2.262  0.2358 -0.2509  0.2227
  986MOL0     C30049   1.900   7.487   2.304 -0.0955  0.0407 -0.0279
  986MOL0     O30050   1.896   7.600   2.239  0.0679  0.1913 -0.2784
  986MOL0     C30051   1.853   7.719   2.293  0.6026  0.7434  0.3689
  986MOL0     C30052   1.845   7.753   2.432  0.4113  0.5861  1.0479
  986MOL0     C30053   1.798   7.882   2.470  0.6108 -0.2892  0.5151
  986MOL0     C30054   1.752   7.979   2.384  1.2018 -1.4853  0.3116
  986MOL0     O30055   1.697   8.109   2.409  0.2987  0.3345  0.4724
  986MOL0     C30056   1.731   8.172   2.536 -0.6756  0.2148  0.2708
  986MOL0     C30057   1.640   8.292   2.568  0.2372 -0.6517 -0.2476
  986MOL0     C30058   1.493   8.282   2.595 -0.3961  0.2115 -0.7494
  986MOL0     C30059   1.427   8.415   2.633 -0.3062 -0.1183  0.8470
  986MOL0     C30060   1.277   8.407   2.627  0.2466 -0.6567  0.0072
  986MOL0     C30061   1.217   8.358   2.755  0.5469  0.0595 -0.0786
  986MOL0     C30062   1.261   8.428   2.888  0.3908  0.4335  0.1351
  986MOL0     C30063   1.210   8.576   2.896  1.0917  0.6728 -0.2679
  986MOL0    Cl30064   1.241   8.653   3.059  0.2864  0.0872  0.5517
  986MOL0     C30065   1.753   7.951   2.249 -0.2908  0.6259  0.0802
  986MOL0     C30066   1.801   7.823   2.203  0.7588  0.3861  0.8680
  986MOL0     O30067   1.832   7.462   2.401 -0.0923  0.2928  0.7040
  986MOL0     C30068   2.019   7.270   2.354 -0.9195 -0.4255 -1.4146
  986MOL0     C30069   2.096   7.162   2.317 -0.1413 -0.0914  0.8209
  986MOL0     N30070   2.164   6.719   2.426  0.7202 -0.1207  0.6098
  986MOL0     N30071   2.031   6.755   2.433 -0.6063  0.6627  0.0861
  986MOL0     C30072   2.175   5.945   1.948  0.3054  0.1752  0.2666
  986MOL0     C30073   2.262   5.836   1.954 -0.2589  0.3817  0.9683
  986MOL0     C30074   2.466   5.451   2.102  0.2313  0.3904 -0.3327
  986MOL0     C30075   2.562   5.466   2.204 -1.1276 -0.3607 -0.1195
  986MOL0     C30076   2.623   5.352   2.259  0.4617 -1.6964 -0.6395
  986MOL0     C30077   2.605   5.224   2.218  0.1441  0.2920 -0.4362
  986MOL0     O30078   2.675   5.112   2.276  0.4405  0.1403  0.0928
  986MOL0     C30079   2.668   5.099   2.421  0.0765  0.2818 -0.4136
  986MOL0     C30080   2.782   5.149   2.507 -0.1887  0.3020 -0.0854
  986MOL0     C30081   2.889   5.038   2.519  0.7329 -0.2464 -0.1277
  986MOL0     C30082   2.924   4.987   2.651  0.0927 -0.2268 -0.7135
  986MOL0     C30083   2.826   4.893   2.710  0.1710 -0.1934 -0.8595
  986MOL0     C30084   2.759   4.806   2.761  0.2591 -1.9947 -0.5542
  986MOL0     C30085   2.517   5.214   2.107  0.0340  0.6609 -0.1853
  986MOL0     C30086   2.447   5.317   2.054  0.6657 -0.8942  0.0287
  986MOL0     H30087   2.265   5.807   2.291 -0.0436 -0.6294  0.3782
  986MOL0     H30088   2.119   6.005   2.272  0.6575 -1.0807  0.6104
  986MOL0     H30089   1.911   6.026   1.902 -2.3010  1.5325 -1.1450
  986MOL0     H30090   2.008   6.152   1.849 -1.6139  1.6804  0.2908
  986MOL0     H30091   1.756   6.167   2.009  0.0118  0.2856 -0.9893
  986MOL0     H30092   1.802   6.254   1.858 -1.9808 -0.0018  0.5173
  986MOL0     H30093   1.959   6.394   2.005  0.4263  0.0983  0.9902
  986MOL0     H30094   1.882   6.332   2.150  1.0358 -0.0667 -1.8885
  986MOL0     H30095   1.727   6.465   1.907  1.3052 -2.0056 -0.5343
  986MOL0     H30096   1.655   6.394   2.059 -0.5327  1.9093  0.9169
  986MOL0     H30097   1.677   6.653   2.064  1.0095  1.9554  3.1061
  986MOL0     H30098   1.851   6.627   2.077  2.5230 -3.5333  1.6693
  986MOL0     H30099   1.831   6.517   2.297  0.1776 -2.3446 -1.8387
  986MOL0     H30100   1.659   6.504   2.286  1.3154 -1.2257  0.5398
  986MOL0     H30101   1.634   6.747   2.272 -0.8402 -0.1344  1.5658
  986MOL0     H30102   1.727   6.703   2.415 -2.6618 -1.5936  0.1110
  986MOL0     H30103   1.826   6.901   2.303 -1.1467  0.8380 -2.5723
  986MOL0     H30104   1.849   6.801   2.161 -1.8969  0.6025  0.7337
  986MOL0     H30105   2.072   6.739   2.111  2.1874  0.9018 -0.1342
  986MOL0     H30106   2.304   6.572   2.153 -3.0832 -0.1573 -0.0030
  986MOL0     H30107   2.398   6.630   2.290  0.6014  1.5683 -0.6553
  986MOL0     H30108   2.312   6.799   2.042 -1.4772 -1.1191  0.9018
  986MOL0     H30109   2.468   6.718   2.095  0.2661  0.8091  2.2125
  986MOL0     H30110   2.502   6.874   2.263 -1.8932 -1.0812  0.8276
  986MOL0     H30111   2.485   6.955   2.104  2.5217  0.9551  2.8084
  986MOL0     H30112   2.375   7.085   2.296  0.1729 -0.2362  1.4914
  986MOL0     H30113   2.264   6.958   2.335 -2.3238  0.6207 -2.1173
  986MOL0     H30114   2.168   7.240   2.000  0.9606 -1.2249  0.5515
  986MOL0     H30115   2.030   7.451   2.076  0.3725 -1.0009 -0.0040
  986MOL0     H30116   1.867   7.688   2.516 -3.1205  0.5985  2.1669
  986MOL0     H30117   1.793   7.881   2.578  0.6295 -1.2494  0.5155
  986MOL0     H30118   1.832   8.213   2.539 -0.1296 -0.9867 -1.0283
  986MOL0     H30119   1.728   8.097   2.616 -2.5540 -1.9958 -1.7265
  986MOL0     H30120   1.639   8.362   2.484  0.2271 -0.5100 -0.1294
  986MOL0     H30121   1.687   8.322   2.662  2.3850 -1.6403 -0.9270
  986MOL0     H30122   1.474   8.213   2.677  0.1688 -0.1325 -0.9013
  986MOL0     H30123   1.437   8.242   2.509 -0.9948 -1.9253  0.5757
  986MOL0     H30124   1.469   8.455   2.726  0.3831 -1.5022  1.1409
  986MOL0     H30125   1.450   8.486   2.553 -1.6311  0.0898  0.6244
  986MOL0     H30126   1.240   8.340   2.548 -1.7982  2.2417 -1.7099
  986MOL0     H30127   1.255   8.512   2.606  1.7834 -0.5608 -1.3209
  986MOL0     H30128   1.251   8.256   2.774 -0.8175  0.1549  3.5325
  986MOL0     H30129   1.110   8.356   2.733  0.8757 -1.3165 -1.8161
  986MOL0     H30130   1.209   8.375   2.969 -3.2335  3.8999  0.3639
  986MOL0     H30131   1.369   8.421   2.905  0.2556  3.1154  3.0746
  986MOL0     H30132   1.103   8.573   2.874  0.4841  0.8756  2.3098
  986MOL0     H30133   1.264   8.633   2.820 -0.7518 -0.6254 -2.6763
  986MOL0     H30134   1.720   8.024   2.176  0.0166  0.5048 -0.1794
  986MOL0     H30135   1.796   7.813   2.095 -1.3027 -0.6189  1.0022
  986MOL0     H30136   1.972   7.274   2.452 -2.8714 -1.3648 -2.2599
  986MOL0     H30137   2.100   7.087   2.395  2.2770 -0.4873  0.3740
  986MOL0     H30138   2.154   5.973   1.845 -3.6014 -2.4804  0.0956
  986MOL0     H30139   2.302   5.781   1.869 -0.7682  0.4043  0.7097
  986MOL0     H30140   2.602   5.557   2.248  1.7768 -0.8375 -1.5104
  986MOL0     H30141   2.691   5.370   2.342 -2.2124 -1.0706  1.5723
  986MOL0     H30142   2.644   4.994   2.438  0.4956  0.1617 -0.5540
  986MOL0     H30143   2.578   5.151   2.454  1.6775  0.8158  3.7997
  986MOL0     H30144   2.826   5.236   2.457 -0.9394  0.4210 -0.5547
  986MOL0     H30145   2.748   5.165   2.609  2.8902  1.7780  0.8256
  986MOL0     H30146   2.974   5.079   2.464 -1.3383  2.9795 -1.2245
  986MOL0     H30147   2.853   4.953   2.459  2.6392 -1.6832  0.6725
  986MOL0     H30148   3.026   4.947   2.653 -1.1979 -3.9908 -1.6466
  986MOL0     H30149   2.929   5.064   2.728  3.0700 -1.0781  0.0879
  986MOL0     H30150   2.688   4.731   2.789 -1.1701 -1.5107 -2.6636
  986MOL0     H30151   2.484   5.118   2.069 -1.3282  1.1631 -0.3362
  986MOL0     H30152   2.381   5.303   1.969  1.5838  2.4898 -1.4087
  987MOL0     O30153   3.733   2.199   8.138 -0.2683  0.1811 -0.1165
  987MOL0     C30154   3.820   2.229   8.057  1.0665 -1.0157  0.0791
  987MOL0     O30155   3.870   2.355   8.050 -0.3319  0.4481 -0.5788
  987MOL0     C30156   3.847   2.453   8.145  0.7433 -0.0480  0.2062
  987MOL0     C30157   3.882   2.433   8.279  0.0033  0.5686  0.9818
  987MOL0     C30158   3.876   2.547   8.369  0.0193 -0.3854  0.2431
  987MOL0     C30159   3.861   2.682   8.317  0.1834  0.1504 -0.1075
  987MOL0     O30160   3.861   2.776   8.412  0.1913  0.1386 -0.2025
  987MOL0     C30161   3.842   2.910   8.363 -0.7893 -0.3650 -0.5755
  987MOL0     C30162   3.857   3.008   8.483 -0.5910  0.1403  1.1930
  987MOL0     C30163   3.816   3.149   8.431  0.2867  0.0526 -0.6088
  987MOL0     C30164   3.852   3.246   8.533 -0.0663 -0.4390 -0.1272
  987MOL0     C30165   3.812   3.385   8.490  0.6282  1.0182 -0.5229
  987MOL0     C30166   3.884   3.488   8.577  0.0434 -0.1569 -0.7120
  987MOL0     C30167   3.802   3.621   8.582  0.7384 -0.1139  0.5127
  987MOL0     C30168   3.864   3.707   8.693 -0.2934 -0.0312  0.0267
  987MOL0     N30169   3.826   3.842   8.664 -0.0500 -0.3412  0.7197
  987MOL0     C30170   3.693   3.902   8.669 -0.4495  0.5683 -0.0966
  987MOL0     C30171   3.702   4.019   8.610 -0.5329 -0.2095  1.2810
  987MOL0     C30172   3.606   4.139   8.609 -0.2068  0.9626 -0.3233
  987MOL0     C30173   3.514   4.126   8.488  0.5225 -0.1212  0.2596
  987MOL0     C30174   3.387   4.195   8.534  0.7185 -0.0862  0.4089
  987MOL0     C30175   3.275   4.127   8.461 -0.3542 -0.0819 -0.0551
  987MOL0     O30176   3.143   4.183   8.470 -0.2990 -0.3584 -0.3340
  987MOL0     C30177   3.085   4.193   8.592 -0.1692 -0.2754 -0.2426
  987MOL0     C30178   3.035   4.081   8.654 -0.2730  0.3120  0.2335
  987MOL0     C30179   2.996   4.098   8.787 -0.0906 -0.0624  0.2303
  987MOL0     C30180   2.997   4.222   8.860  0.0663  0.8585 -0.3111
  987MOL0     C30181   2.930   4.220   8.991  0.8848 -0.9815  0.5319
  987MOL0     O30182   2.898   4.109   9.052  0.1984 -0.3262 -0.5595
  987MOL0     C30183   2.826   4.114   9.172 -1.6284 -0.1695  0.6121
  987MOL0     C30184   2.881   4.039   9.278  0.2073 -0.9044 -0.0234
  987MOL0     C30185   2.812   4.022   9.396 -0.9284 -0.2113 -1.0075
  987MOL0     C30186   2.691   4.089   9.420  0.0455  0.4329  0.1887
  987MOL0     O30187   2.607   4.054   9.518  0.7597  1.0720  0.7767
  987MOL0     C30188   2.632   3.948   9.599 -0.0901  0.2040 -0.3471
  987MOL0     C30189   2.507   3.956   9.688  0.2793 -0.4196 -1.0302
  987MOL0     C30190   2.465   3.823   9.763 -0.2194 -0.5906  0.5023
  987MOL0     C30191   2.557   3.769   9.870 -0.2026  0.4785 -0.0933
  987MOL0     C30192   2.520   3.631   9.919 -0.0897 -0.3659 -0.7890
  987MOL0     C30193   2.385   3.613   9.985  0.4310  0.7016 -0.1990
  987MOL0     C30194   2.277   3.555   9.903 -0.6791 -0.3863  0.2368
  987MOL0     C30195   2.136   3.557   9.969  0.3395 -0.3404 -0.4196
  987MOL0    Cl30196   2.060   3.711   9.962 -0.1476 -0.1494  0.0021
  987MOL0     C30197   2.644   4.170   9.309 -0.1195  1.0862  0.5127
  987MOL0     C30198   2.711   4.176   9.189  0.2027 -0.2045 -0.8217
  987MOL0     O30199   2.911   4.339   9.037  0.3500 -0.3724  0.7244
  987MOL0     C30200   3.048   4.329   8.786 -0.3322 -0.5242  0.0200
  987MOL0     C30201   3.101   4.311   8.661  0.5544 -0.6806  0.0817
  987MOL0     N30202   3.834   4.028   8.570  0.4050 -0.8144 -0.6544
  987MOL0     N30203   3.907   3.931   8.594 -0.2545  0.4080  0.5612
  987MOL0     C30204   3.826   2.693   8.189 -0.2055  0.3022  0.0094
  987MOL0     C30205   3.816   2.587   8.098  0.5747  0.5496  0.6938
  987MOL0     C30206   3.890   2.119   7.989 -0.4722 -0.1680 -0.2285
  987MOL0     C30207   4.027   2.127   7.940 -0.0376 -0.2313 -1.3071
  987MOL0     C30208   4.082   2.021   7.870  0.0576 -0.7879  0.7157
  987MOL0     C30209   4.017   1.895   7.855  0.1506  0.4708 -0.4977
  987MOL0     O30210   4.083   1.784   7.811 -0.4368 -0.8262  0.3652
  987MOL0     C30211   4.168   1.787   7.694  1.2830 -0.2667 -0.0849
  987MOL0     C30212   4.178   1.654   7.624 -0.4813  0.1001 -0.4045
  987MOL0     C30213   4.234   1.654   7.483  0.6071 -0.0226 -1.2182
  987MOL0     C30214   4.384   1.662   7.481 -0.3085 -0.3598 -0.1284
  987MOL0     C30215   4.452   1.527   7.491 -0.2954 -0.2066  0.0380
  987MOL0     C30216   4.513   1.428   7.476 -0.2331 -0.2578 -0.6131
  987MOL0     C30217   3.891   1.884   7.914 -0.2188  0.4684  0.3567
  987MOL0     C30218   3.824   1.997   7.966  0.6954  0.4390 -0.3259
  987MOL0     H30219   3.904   2.332   8.311  2.7305 -0.2640 -2.7250
  987MOL0     H30220   3.882   2.525   8.475 -3.2903 -0.8268  0.4456
  987MOL0     H30221   3.745   2.914   8.313 -2.5476 -2.6296  2.3694
  987MOL0     H30222   3.920   2.948   8.296 -0.5600  3.2782  1.4954
  987MOL0     H30223   3.960   3.006   8.517 -0.1779  2.4552  0.2317
  987MOL0     H30224   3.798   2.976   8.569  0.6352 -1.2349  1.5571
  987MOL0     H30225   3.707   3.148   8.428  0.1798 -0.7153  1.4577
  987MOL0     H30226   3.860   3.170   8.333  0.4174 -0.6106 -0.7003
  987MOL0     H30227   3.799   3.225   8.627  1.5394 -1.1369  0.6536
  987MOL0     H30228   3.958   3.242   8.557 -0.3014  0.8523  1.2943
  987MOL0     H30229   3.703   3.391   8.494  0.3821 -2.4233  1.9560
  987MOL0     H30230   3.810   3.393   8.381 -4.7630 -3.1220 -1.1817
  987MOL0     H30231   3.983   3.510   8.536  0.2275  2.9444  1.0521
  987MOL0     H30232   3.876   3.467   8.684  1.1328  2.1494 -0.1109
  987MOL0     H30233   3.809   3.669   8.484 -0.1918  2.2854  1.5227
  987MOL0     H30234   3.697   3.602   8.606  0.8213 -0.0971  0.8875
  987MOL0     H30235   3.972   3.721   8.682 -0.3358 -0.1053 -0.4952
  987MOL0     H30236   3.816   3.668   8.783  1.6382 -1.8452  0.3494
  987MOL0     H30237   3.607   3.867   8.726 -1.3367  2.0627 -0.4769
  987MOL0     H30238   3.650   4.238   8.601  0.4863  0.6513 -0.4303
  987MOL0     H30239   3.553   4.128   8.704 -0.5347 -1.8344 -0.7239
  987MOL0     H30240   3.490   4.023   8.461 -4.0341  0.5416  1.0688
  987MOL0     H30241   3.557   4.180   8.403  1.3876 -2.1044 -0.6402
  987MOL0     H30242   3.370   4.189   8.641 -1.0357  0.5168  0.1906
  987MOL0     H30243   3.397   4.303   8.519  5.3388 -0.5610 -1.8018
  987MOL0     H30244   3.275   4.022   8.492  1.5558 -0.5832 -1.5616
  987MOL0     H30245   3.304   4.134   8.356 -2.7261  1.2907 -0.6983
  987MOL0     H30246   3.026   3.990   8.595 -3.4367 -0.6964  2.0567
  987MOL0     H30247   2.942   4.018   8.836  0.2596 -0.9679 -0.8296
  987MOL0     H30248   2.980   3.999   9.257  0.6952 -0.7343  1.8351
  987MOL0     H30249   2.862   3.962   9.472  0.7688  0.1605 -1.7764
  987MOL0     H30250   2.721   3.974   9.657 -1.9912  0.5216  2.6522
  987MOL0     H30251   2.638   3.857   9.539 -1.3373 -0.4102  0.4483
  987MOL0     H30252   2.424   3.980   9.621  0.2167 -0.1227 -0.8483
  987MOL0     H30253   2.509   4.037   9.762 -1.3237 -0.3100 -1.0653
  987MOL0     H30254   2.468   3.752   9.680  0.0029 -1.0414  0.8981
  987MOL0     H30255   2.365   3.828   9.807 -1.3620 -0.6357 -1.9027
  987MOL0     H30256   2.658   3.772   9.829  0.5704  0.6213  1.7168
  987MOL0     H30257   2.547   3.840   9.952 -1.0569 -0.2491  0.4435
  987MOL0     H30258   2.598   3.602   9.989  1.6875  5.4746  0.1935
  987MOL0     H30259   2.534   3.578   9.824 -0.1935  1.9771 -2.2135
  987MOL0     H30260   2.358   3.709  10.031 -0.5162 -0.0349  0.8548
  987MOL0     H30261   2.411   3.550  10.071  0.4070  1.1603  0.1503
  987MOL0     H30262   2.253   3.604   9.809  0.2593  0.1883  0.2815
  987MOL0     H30263   2.314   3.458   9.868  0.0817 -1.1831  2.9531
  987MOL0     H30264   2.137   3.531  10.076  0.2768  1.7568  0.1353
  987MOL0     H30265   2.071   3.486   9.919 -0.7932  3.0320 -4.2912
  987MOL0     H30266   2.546   4.213   9.330 -1.8322 -2.4313  0.5088
  987MOL0     H30267   2.659   4.228   9.109 -1.7432 -1.1995 -0.2851
  987MOL0     H30268   3.054   4.428   8.830 -0.2122 -0.6436  0.2759
  987MOL0     H30269   3.140   4.403   8.617  2.1032 -0.9860  0.7738
  987MOL0     H30270   3.814   2.792   8.147 -1.1434 -0.9213 -2.8362
  987MOL0     H30271   3.806   2.598   7.991  1.1981  0.7899  0.6606
  987MOL0     H30272   4.093   2.213   7.947  0.8272 -0.9672 -0.1454
  987MOL0     H30273   4.187   2.026   7.843  0.5567 -2.7441  2.0295
  987MOL0     H30274   4.262   1.823   7.736  1.5665  0.4544 -1.2953
  987MOL0     H30275   4.122   1.859   7.626 -2.9073 -0.2309  2.4233
  987MOL0     H30276   4.231   1.587   7.691 -1.5566  2.5525  3.1767
  987MOL0     H30277   4.077   1.612   7.626 -0.4275 -0.0069  0.1930
  987MOL0     H30278   4.195   1.738   7.425  0.4516  1.3140  0.7208
  987MOL0     H30279   4.192   1.565   7.435 -3.7929  1.7221 -1.1383
  987MOL0     H30280   4.420   1.711   7.390  2.2328 -1.5629  0.1297
  987MOL0     H30281   4.425   1.719   7.565  1.3840 -0.5542 -0.7876
  987MOL0     H30282   4.564   1.334   7.487 -1.7672 -0.9538  1.1414
  987MOL0     H30283   3.830   1.795   7.909 -0.7400  0.8157  0.4631
  987MOL0     H30284   3.719   1.981   7.989  0.5765 -1.1726 -1.7502
  988MOL0     O30285   6.056   3.972   6.182 -0.1547 -0.1526  0.1466
  988MOL0     C30286   6.004   3.913   6.088  0.6410 -0.1955 -0.1660
  988MOL0     O30287   6.074   3.831   6.006 -0.2202  0.7756 -0.1284
  988MOL0     C30288   6.216   3.819   6.010 -0.2641 -0.4282  0.7653
  988MOL0     C30289   6.271   3.691   5.972  0.1937  0.3859 -0.6615
  988MOL0     C30290   6.408   3.676   5.986  1.3852  0.1279  0.1852
  988MOL0     C30291   6.498   3.773   6.038  0.7200 -0.7449 -0.1943
  988MOL0     O30292   6.633   3.765   6.048  0.1203  0.4110  1.1669
  988MOL0     C30293   6.688   3.632   6.079  0.6112 -0.8697 -0.3161
  988MOL0     C30294   6.664   3.595   6.229 -0.3490 -0.1734  0.2323
  988MOL0     C30295   6.682   3.446   6.244 -0.0442  0.8944 -0.8198
  988MOL0     C30296   6.653   3.394   6.391  0.8981  0.0427 -0.1361
  988MOL0     C30297   6.736   3.267   6.431 -0.1247 -0.0388 -0.6474
  988MOL0     C30298   6.727   3.143   6.346 -0.5415 -0.8131  1.3376
  988MOL0     C30299   6.735   3.013   6.418  0.8251  0.8427 -0.9886
  988MOL0     C30300   6.780   2.885   6.356  0.1933  0.5082  0.0649
  988MOL0     N30301   6.690   2.840   6.243  0.2717  0.4594  0.0570
  988MOL0     C30302   6.595   2.737   6.265 -0.2528 -0.2928 -0.6192
  988MOL0     C30303   6.543   2.726   6.145  0.5071  0.7864  0.3576
  988MOL0     C30304   6.459   2.602   6.096 -0.2445  0.6930  0.8841
  988MOL0     C30305   6.546   2.507   5.997  0.2437 -0.5017 -0.0914
  988MOL0     C30306   6.451   2.435   5.912  1.0456  0.4398  0.5014
  988MOL0     C30307   6.518   2.364   5.797 -0.0595 -0.3500 -0.3416
  988MOL0     O30308   6.580   2.441   5.698  0.6349  0.5766 -0.2522
  988MOL0     C30309   6.498   2.467   5.590 -0.9747 -0.8106 -0.6938
  988MOL0     C30310   6.479   2.377   5.487 -0.1677 -0.4686  0.6920
  988MOL0     C30311   6.396   2.407   5.375 -0.2816  0.4808  0.3394
  988MOL0     C30312   6.320   2.524   5.370  0.4086  1.4262  0.4576
  988MOL0     C30313   6.234   2.555   5.258  0.6023  0.3073 -0.6979
  988MOL0     O30314   6.250   2.479   5.141  0.1814  0.0361  0.4519
  988MOL0     C30315   6.145   2.469   5.057  0.4025  0.3647 -0.7976
  988MOL0     C30316   6.009   2.447   5.091 -0.4844  0.4410 -0.1382
  988MOL0     C30317   5.914   2.426   5.000  0.0370 -0.1813 -0.0607
  988MOL0     C30318   5.942   2.427   4.867 -0.1362  0.0493  1.2364
  988MOL0     O30319   5.852   2.385   4.774 -0.1635 -0.2569  0.5246
  988MOL0     C30320   5.732   2.329   4.826 -1.1677 -0.1403  0.1063
  988MOL0     C30321   5.645   2.284   4.704 -0.4999 -0.2896 -0.4065
  988MOL0     C30322   5.635   2.399   4.598 -0.6091 -0.2203  0.3760
  988MOL0     C30323   5.535   2.361   4.486  0.6446  0.3248 -0.3398
  988MOL0     C30324   5.389   2.328   4.522  0.6194  0.9111  0.2864
  988MOL0     C30325   5.285   2.356   4.423  1.3100 -0.5419 -0.1874
  988MOL0     C30326   5.313   2.306   4.276  0.2551  0.4269 -0.1913
  988MOL0     C30327   5.338   2.161   4.252  0.6222 -0.0582 -0.2324
  988MOL0    Cl30328   5.222   2.052   4.343 -0.0331  0.0387  0.1962
  988MOL0     C30329   6.075   2.449   4.825 -0.5786  0.3349 -0.2352
  988MOL0     C30330   6.171   2.462   4.923  0.0280  0.0691  0.0465
  988MOL0     O30331   6.170   2.655   5.271  0.5138  0.1510 -0.1859
  988MOL0     C30332   6.339   2.614   5.480 -0.6342  0.4428 -0.0888
  988MOL0     C30333   6.432   2.587   5.583  0.4115  0.6066 -0.0507
  988MOL0     N30334   6.568   2.843   6.072 -0.0313  0.3021 -0.0255
  988MOL0     N30335   6.665   2.903   6.125  0.1878 -0.0054 -0.6380
  988MOL0     C30336   6.441   3.893   6.076  0.5659  0.3513 -0.3163
  988MOL0     C30337   6.301   3.921   6.058  0.2061  0.0817 -0.0560
  988MOL0     C30338   5.867   3.932   6.053 -0.0666  0.2870  0.4649
  988MOL0     C30339   5.831   3.951   5.917  0.3870  0.5754 -0.2599
  988MOL0     C30340   5.701   3.975   5.874  0.2374 -0.4259 -0.4021
  988MOL0     C30341   5.588   3.976   5.974 -0.0472 -0.3906 -0.4558
  988MOL0     O30342   5.459   3.967   5.944  1.1290 -0.9951 -0.8663
  988MOL0     C30343   5.409   4.015   5.819 -0.7133 -0.4742  0.0192
  988MOL0     C30344   5.255   4.025   5.817  1.6136  0.2198 -0.3696
  988MOL0     C30345   5.197   4.044   5.671 -0.2943 -0.7730  1.0539
  988MOL0     C30346   5.046   4.043   5.666  0.0706  0.2451  0.0232
  988MOL0     C30347   5.005   4.136   5.559  0.8707  0.1958 -0.4209
  988MOL0     C30348   4.972   4.207   5.468 -0.2760  0.9152 -0.0265
  988MOL0     C30349   5.626   3.956   6.116  0.7615  0.1725 -0.7535
  988MOL0     C30350   5.765   3.939   6.145 -0.2360 -0.7969 -0.0941
  988MOL0     H30351   6.214   3.612   5.924  2.1574  0.2332 -2.9463
  988MOL0     H30352   6.444   3.582   5.947  0.6371  0.5070 -1.5243
  988MOL0     H30353   6.797   3.631   6.070  0.8107 -1.2061  1.6958
  988MOL0     H30354   6.641   3.552   6.021  0.8344 -2.3057  1.3884
  988MOL0     H30355   6.567   3.631   6.265  0.2865 -0.0622  1.9488
  988MOL0     H30356   6.740   3.650   6.284  0.2971  0.7189 -1.4960
  988MOL0     H30357   6.780   3.411   6.210  1.2347 -0.0801  3.3231
  988MOL0     H30358   6.613   3.399   6.172  0.0696 -1.8968  0.7317
  988MOL0     H30359   6.688   3.472   6.459  2.7097  1.2382 -2.3020
  988MOL0     H30360   6.545   3.375   6.401  0.7455  1.5417  1.5429
  988MOL0     H30361   6.701   3.244   6.532 -3.6459  4.4175 -0.5282
  988MOL0     H30362   6.841   3.298   6.427  0.3387 -1.6799 -2.6121
  988MOL0     H30363   6.805   3.159   6.271 -1.0292 -0.5502  0.8814
  988MOL0     H30364   6.632   3.146   6.293  0.1165 -0.9534  0.1221
  988MOL0     H30365   6.802   3.028   6.503  2.3791 -0.1399 -1.9713
  988MOL0     H30366   6.643   2.981   6.466  1.5177 -1.8002 -1.2644
  988MOL0     H30367   6.783   2.809   6.434 -1.4556  1.6474  1.3049
  988MOL0     H30368   6.879   2.892   6.311 -0.5687  2.5858 -1.4538
  988MOL0     H30369   6.602   2.661   6.342 -3.6416 -2.2751 -2.0344
  988MOL0     H30370   6.363   2.641   6.061 -0.2645  1.8836  2.1644
  988MOL0     H30371   6.427   2.542   6.182 -3.9245 -1.0343 -1.4275
  988MOL0     H30372   6.606   2.447   6.067 -0.8024  0.5403  1.7645
  988MOL0     H30373   6.613   2.562   5.931 -1.5339  2.4086  0.3951
  988MOL0     H30374   6.407   2.360   5.978  0.2422  2.1029  1.9248
  988MOL0     H30375   6.376   2.501   5.866 -1.4462 -2.6506 -0.1770
  988MOL0     H30376   6.437   2.304   5.754 -0.2079 -0.0172 -0.5351
  988MOL0     H30377   6.597   2.302   5.840  0.9693  1.1907  0.0861
  988MOL0     H30378   6.539   2.287   5.498 -0.2363 -0.5008  0.8026
  988MOL0     H30379   6.400   2.334   5.295  4.4370 -0.6562  1.3298
  988MOL0     H30380   5.982   2.453   5.196 -3.4989 -1.2711 -0.7017
  988MOL0     H30381   5.811   2.405   5.028 -0.3537  1.4957 -0.1263
  988MOL0     H30382   5.674   2.415   4.860 -3.3301 -1.0556 -1.0155
  988MOL0     H30383   5.731   2.241   4.892 -2.5943  1.8670  3.0076
  988MOL0     H30384   5.550   2.275   4.757 -0.2874 -0.2842 -0.0174
  988MOL0     H30385   5.678   2.190   4.659 -1.0653 -1.8291  2.1728
  988MOL0     H30386   5.731   2.413   4.548 -1.7647  0.3155 -1.8173
  988MOL0     H30387   5.617   2.499   4.639 -1.6928  0.5569 -1.8414
  988MOL0     H30388   5.523   2.451   4.425  1.8168  2.6744  2.6399
  988MOL0     H30389   5.571   2.278   4.425 -0.0219 -1.3894  1.4865
  988MOL0     H30390   5.363   2.380   4.614  0.7297 -1.4413  1.7239
  988MOL0     H30391   5.401   2.221   4.543  4.4272  1.0969 -0.3143
  988MOL0     H30392   5.275   2.464   4.407 -1.0622 -0.8788 -1.3976
  988MOL0     H30393   5.186   2.326   4.458 -0.3712  0.7053 -3.4411
  988MOL0     H30394   5.224   2.328   4.216 -1.0057 -0.3497  1.3383
  988MOL0     H30395   5.400   2.364   4.242 -0.6049  2.8091  1.3652
  988MOL0     H30396   5.439   2.130   4.281 -0.5577 -1.7661  2.4606
  988MOL0     H30397   5.332   2.134   4.146  3.0073 -3.4176  0.3327
  988MOL0     H30398   6.095   2.458   4.719 -0.0961 -0.9788 -0.2786
  988MOL0     H30399   6.275   2.457   4.894  1.1305  0.0306  3.5327
  988MOL0     H30400   6.287   2.708   5.493 -0.7675  0.3886 -0.2265
  988MOL0     H30401   6.445   2.664   5.658 -1.6459  2.4438 -1.4532
  988MOL0     H30402   6.508   3.966   6.120 -1.4400  1.5928  0.7916
  988MOL0     H30403   6.263   4.022   6.063  3.0897  1.2719  0.0370
  988MOL0     H30404   5.904   3.953   5.837 -2.6833  1.9276 -3.3093
  988MOL0     H30405   5.688   3.989   5.768  3.7462 -0.3548 -0.9401
  988MOL0     H30406   5.441   3.947   5.739 -1.2116  1.3055 -1.7671
  988MOL0     H30407   5.455   4.106   5.780 -0.9463 -1.4962 -2.8536
  988MOL0     H30408   5.218   3.934   5.865  0.6796 -0.4192 -2.1796
  988MOL0     H30409   5.221   4.103   5.885 -0.7964  0.2686 -1.5170
  988MOL0     H30410   5.227   3.964   5.604 -1.5696 -1.8913  1.7690
  988MOL0     H30411   5.237   4.133   5.621 -2.2640 -0.1669  0.4516
  988MOL0     H30412   5.011   3.942   5.646 -3.2184  1.3584 -0.3366
  988MOL0     H30413   5.005   4.069   5.764  3.0870  1.6812  1.0539
  988MOL0     H30414   4.941   4.255   5.378 -0.5482  0.0832 -0.3877
  988MOL0     H30415   5.544   3.939   6.185  2.8884 -1.4295  1.5745
  988MOL0     H30416   5.790   3.923   6.249  0.2565 -0.7104 -0.1951
  989MOL0     O30417   4.615   0.465   9.125 -0.5667 -0.2928 -0.2246
  989MOL0     C30418   4.537   0.467   9.029 -0.2860 -0.3709  0.4727
  989MOL0     O30419   4.479   0.575   8.979 -0.1509  0.9676  0.2085
  989MOL0     C30420   4.487   0.690   9.054  0.0509 -0.0654  0.1309
  989MOL0     C30421   4.366   0.757   9.087  0.0458  0.1981  0.1281
  989MOL0     C30422   4.370   0.885   9.155 -0.2825 -0.4230 -0.3823
  989MOL0     C30423   4.495   0.946   9.175 -0.6428 -0.9379  0.7689
  989MOL0     O30424   4.500   1.074   9.215 -0.6646  0.3779 -0.2244
  989MOL0     C30425   4.452   1.097   9.350 -1.1302  0.0447  0.0692
  989MOL0     C30426   4.540   1.029   9.463  0.1160 -0.0989 -0.6003
  989MOL0     C30427   4.510   1.070   9.612 -0.6165 -1.3109  0.5889
  989MOL0     C30428   4.367   1.027   9.667 -0.1924  0.2868  0.1349
  989MOL0     C30429   4.350   1.083   9.809  0.3807 -0.0357  0.6045
  989MOL0     C30430   4.297   1.232   9.817 -1.1512  0.9065  0.2013
  989MOL0     C30431   4.238   1.244   9.957 -0.1096 -0.1492 -0.5396
  989MOL0     C30432   4.104   1.167   9.976  0.3607 -0.2716 -0.2484
  989MOL0     N30433   4.103   1.072  10.089 -0.2721 -0.2240 -0.3347
  989MOL0     C30434   4.096   1.099  10.221 -0.2170 -0.9940  0.2085
  989MOL0     C30435   4.118   0.990  10.288 -0.2355  0.5799 -0.8313
  989MOL0     C30436   4.137   0.993  10.446 -0.1029 -0.3793  0.2130
  989MOL0     C30437   4.047   0.890  10.512  0.1774  0.9880  0.4737
  989MOL0     C30438   4.006   0.924  10.660  0.2864 -0.4578  0.3403
  989MOL0     C30439   3.914   1.043  10.666 -0.6772 -0.4066  0.6458
  989MOL0     O30440   3.876   1.065  10.804 -0.2741  0.6246  0.3318
  989MOL0     C30441   3.930   1.161  10.876 -0.7901 -0.2386  0.8058
  989MOL0     C30442   3.871   1.187  10.996  1.2456 -1.7323 -0.4516
  989MOL0     C30443   3.932   1.278  11.079 -0.9898  0.0191  0.6920
  989MOL0     C30444   4.063   1.332  11.060  0.4460 -0.6210  0.1504
  989MOL0     C30445   4.131   1.415  11.163 -1.5267  0.4820  0.0468
  989MOL0     O30446   4.066   1.407  11.285  0.0288 -0.1504  0.9283
  989MOL0     C30447   4.089   1.493  11.384 -0.8029 -0.3358  0.4097
  989MOL0     C30448   3.980   1.559  11.446 -0.4195  0.4552  0.2037
  989MOL0     C30449   4.005   1.655  11.544  0.3298  0.4573 -0.7120
  989MOL0     C30450   4.137   1.685  11.581 -0.7149 -0.6356  0.5966
  989MOL0     O30451   4.153   1.789  11.666 -0.0687 -0.3691  1.1053
  989MOL0     C30452   4.226   1.905  11.613  1.9053 -0.2748 -0.1539
  989MOL0     C30453   4.178   2.023  11.696 -0.5209 -0.5242 -0.1993
  989MOL0     C30454   4.289   2.128  11.685 -0.7658  0.0431  0.2099
  989MOL0     C30455   4.254   2.268  11.742 -0.9503 -0.2179  0.4316
  989MOL0     C30456   4.359   2.382  11.728  0.0605 -0.9399  0.6335
  989MOL0     C30457   4.501   2.347  11.776  0.4291 -0.0430 -0.2706
  989MOL0     C30458   4.584   2.468  11.801 -0.1358  1.1985  0.0949
  989MOL0     C30459   4.632   2.546  11.677  0.3413  1.2100 -0.6156
  989MOL0    Cl30460   4.538   2.687  11.634  0.2116 -0.5012  0.1845
  989MOL0     C30461   4.251   1.620  11.518 -0.6145  0.3409  0.2716
  989MOL0     C30462   4.225   1.517  11.427  0.0032  0.2151  0.5385
  989MOL0     O30463   4.233   1.481  11.143  0.2191  0.4888 -0.9417
  989MOL0     C30464   4.128   1.292  10.942  0.0225  0.4493  0.6292
  989MOL0     C30465   4.064   1.208  10.848 -0.0547 -0.3363 -0.8178
  989MOL0     N30466   4.134   0.889  10.194  0.1054 -0.1167  0.4521
  989MOL0     N30467   4.132   0.941  10.072  0.3940 -0.1000 -0.1002
  989MOL0     C30468   4.612   0.882   9.125 -1.1324  0.4800 -0.4754
  989MOL0     C30469   4.606   0.749   9.074 -0.9143 -0.5144 -0.5506
  989MOL0     C30470   4.505   0.351   8.949 -0.1190 -0.4705  0.1381
  989MOL0     C30471   4.591   0.237   8.954  0.3043  0.1181  0.5738
  989MOL0     C30472   4.568   0.130   8.868  0.2849  0.0375 -0.2314
  989MOL0     C30473   4.451   0.119   8.787  0.0490  0.3208 -0.3084
  989MOL0     O30474   4.423   0.005   8.712  0.7572 -0.1753  0.4731
  989MOL0     C30475   4.356   0.027   8.579  0.2210 -0.9541 -0.0809
  989MOL0     C30476   4.371  -0.084   8.470  0.4096  0.1611  0.8802
  989MOL0     C30477   4.498  -0.182   8.473  0.1218  0.4228 -0.6074
  989MOL0     C30478   4.489  -0.294   8.588 -0.1083 -0.7679  0.2426
  989MOL0     C30479   4.616  -0.328   8.640 -0.4310 -0.4740  0.1020
  989MOL0     C30480   4.710  -0.374   8.705 -1.1116  0.6237 -0.3277
  989MOL0     C30481   4.366   0.226   8.790  0.0663  1.0561  0.9133
  989MOL0     C30482   4.395   0.344   8.864  0.6755 -0.0672 -0.9560
  989MOL0     H30483   4.274   0.714   9.049  0.8516 -1.2450 -0.2633
  989MOL0     H30484   4.283   0.947   9.173 -0.6227 -1.2336  0.9201
  989MOL0     H30485   4.345   1.084   9.367 -0.7890  2.0120  5.5664
  989MOL0     H30486   4.465   1.205   9.357 -1.9984  0.0354  3.7719
  989MOL0     H30487   4.641   1.051   9.429 -0.5012  1.4075 -1.5721
  989MOL0     H30488   4.542   0.919   9.455  1.4385 -0.1394  0.1081
  989MOL0     H30489   4.517   1.175   9.639  0.0333 -1.3568  0.6164
  989MOL0     H30490   4.586   1.024   9.676  3.1107  0.6796 -2.0128
  989MOL0     H30491   4.293   1.068   9.598  3.9430  2.6260 -3.4479
  989MOL0     H30492   4.367   0.918   9.651  2.0720  0.3784 -0.8532
  989MOL0     H30493   4.442   1.081   9.868  1.5262  0.7167 -1.0702
  989MOL0     H30494   4.284   1.005   9.846  1.1759 -0.6042  0.8619
  989MOL0     H30495   4.231   1.258   9.734 -1.3675 -0.6069 -0.1433
  989MOL0     H30496   4.385   1.296   9.811 -0.9784  0.9997  2.7043
  989MOL0     H30497   4.315   1.220  10.032  0.4461 -0.4191 -1.1897
  989MOL0     H30498   4.226   1.352   9.970 -2.7595 -0.4067 -0.4155
  989MOL0     H30499   4.062   1.134   9.881 -3.7763  2.1699  0.4683
  989MOL0     H30500   4.028   1.243  10.000 -1.1739 -2.3195  1.9581
  989MOL0     H30501   4.061   1.195  10.260 -3.9723 -1.5026 -1.5412
  989MOL0     H30502   4.115   1.096  10.474  2.0546  0.0421  0.5605
  989MOL0     H30503   4.242   0.967  10.467  1.1974  1.8515 -2.7961
  989MOL0     H30504   4.081   0.786  10.500 -1.3566  0.4161  0.8696
  989MOL0     H30505   3.948   0.891  10.466 -1.0687 -0.2082  2.9546
  989MOL0     H30506   3.950   0.839  10.699 -0.9698  0.2025  0.0052
  989MOL0     H30507   4.099   0.941  10.717  1.1893  0.6386 -1.3710
  989MOL0     H30508   3.824   1.019  10.608  0.3072 -0.1280 -1.0561
  989MOL0     H30509   3.948   1.140  10.628 -1.1455 -0.2523  0.6062
  989MOL0     H30510   3.770   1.157  11.022  0.1089  1.2258 -1.0872
  989MOL0     H30511   3.861   1.307  11.156 -2.4193 -0.3490 -0.4516
  989MOL0     H30512   3.886   1.527  11.405 -0.7440 -0.1081  1.3464
  989MOL0     H30513   3.920   1.707  11.587 -2.0887 -1.9028 -2.3062
  989MOL0     H30514   4.196   1.925  11.510  2.4525  1.9513  0.0652
  989MOL0     H30515   4.331   1.876  11.621  2.4150  1.1496 -1.3254
  989MOL0     H30516   4.178   1.988  11.799 -3.4035  0.8658  0.3734
  989MOL0     H30517   4.079   2.057  11.663 -0.7170 -2.2417 -1.4794
  989MOL0     H30518   4.322   2.135  11.581 -1.2517 -0.7763 -0.0070
  989MOL0     H30519   4.378   2.095  11.740 -1.3261  2.4085  2.7395
  989MOL0     H30520   4.159   2.305  11.702 -1.3894  0.5436  2.0729
  989MOL0     H30521   4.239   2.256  11.850 -1.7754  0.0127  0.3441
  989MOL0     H30522   4.325   2.470  11.782 -1.6127 -0.2192 -1.4546
  989MOL0     H30523   4.356   2.422  11.626  2.1557 -0.0021  0.8910
  989MOL0     H30524   4.549   2.289  11.697  1.0442  1.2307 -0.8608
  989MOL0     H30525   4.489   2.296  11.872  1.3094  1.0720  0.4636
  989MOL0     H30526   4.516   2.536  11.853 -0.1664 -1.4160  3.8301
  989MOL0     H30527   4.672   2.452  11.864  0.1133 -4.3549 -1.2016
  989MOL0     H30528   4.637   2.472  11.596 -1.9452 -2.0841  1.9679
  989MOL0     H30529   4.733   2.576  11.707 -0.5346  0.0854  4.2669
  989MOL0     H30530   4.353   1.649  11.539 -0.4113 -0.0556 -0.1547
  989MOL0     H30531   4.308   1.470  11.375 -0.7255  0.2173 -0.6573
  989MOL0     H30532   4.234   1.310  10.935  0.1758 -0.6383 -0.0571
  989MOL0     H30533   4.116   1.198  10.753 -0.4513  0.7794 -1.1685
  989MOL0     H30534   4.712   0.917   9.149 -1.0759  0.7309 -1.0582
  989MOL0     H30535   4.696   0.703   9.034 -0.6903 -0.0388 -0.5980
  989MOL0     H30536   4.661   0.224   9.036 -0.7461  0.3419  1.5343
  989MOL0     H30537   4.637   0.047   8.863  1.0050  0.4964  1.3520
  989MOL0     H30538   4.399   0.119   8.539  0.0596  0.5481  2.8936
  989MOL0     H30539   4.251   0.046   8.600  0.1835 -2.0707  0.8656
  989MOL0     H30540   4.286  -0.151   8.478  0.3088  0.1153 -0.2895
  989MOL0     H30541   4.372  -0.033   8.373 -0.7456  1.3789  1.4701
  989MOL0     H30542   4.576  -0.107   8.490  0.1840 -0.1682  2.2150
  989MOL0     H30543   4.516  -0.226   8.374  2.8133  0.9405 -0.4072
  989MOL0     H30544   4.428  -0.254   8.670 -1.8068 -2.0334 -0.3375
  989MOL0     H30545   4.446  -0.379   8.534 -1.9340  1.1464 -1.5114
  989MOL0     H30546   4.795  -0.400   8.765  0.1485  1.7747 -1.5522
  989MOL0     H30547   4.273   0.223   8.733  1.1110  1.9997 -0.9475
  989MOL0     H30548   4.322   0.424   8.864  0.2620 -0.2036  3.0930
  990MOL0     O30549   3.015   2.463   5.984  0.9504  0.5175 -0.6635
  990MOL0     C30550   3.039   2.362   6.048  0.7669 -0.9724 -0.3179
  990MOL0     O30551   3.118   2.261   6.004  0.2686 -0.5628  0.2312
  990MOL0     C30552   3.191   2.295   5.895  0.2313 -0.3369  0.4995
  990MOL0     C30553   3.181   2.230   5.774 -0.3226  0.2372 -0.6007
  990MOL0     C30554   3.268   2.258   5.662 -0.6607  0.3428 -0.5739
  990MOL0     C30555   3.385   2.340   5.685  1.2119  0.7207  0.0814
  990MOL0     O30556   3.487   2.353   5.594 -0.5141 -0.7446 -0.0594
  990MOL0     C30557   3.456   2.413   5.465  0.0679  0.1019 -0.1065
  990MOL0     C30558   3.578   2.387   5.378  0.3536  0.3996  0.5068
  990MOL0     C30559   3.568   2.421   5.228 -0.2823  0.9181  0.6581
  990MOL0     C30560   3.610   2.315   5.139 -0.5728  1.2633  0.0990
  990MOL0     C30561   3.747   2.259   5.148  0.4819 -0.0186  0.0401
  990MOL0     C30562   3.764   2.127   5.058 -1.3134 -1.1238 -0.0078
  990MOL0     C30563   3.903   2.095   5.084 -0.3544  0.5865 -0.2836
  990MOL0     C30564   3.932   1.946   5.026  0.1177 -0.1748  0.0378
  990MOL0     N30565   4.059   1.883   5.072 -0.0997  0.0018 -1.1256
  990MOL0     C30566   4.141   1.803   4.994  0.4054  0.1919  0.0831
  990MOL0     C30567   4.255   1.779   5.072  1.1041 -0.2443  0.0020
  990MOL0     C30568   4.382   1.713   5.028  0.0925 -0.2650 -0.0654
  990MOL0     C30569   4.400   1.569   5.083 -0.1394 -0.6317 -1.0313
  990MOL0     C30570   4.463   1.574   5.222  0.0990  0.7986 -0.0026
  990MOL0     C30571   4.397   1.479   5.329 -0.1792  0.2191 -0.2564
  990MOL0     O30572   4.436   1.343   5.324 -0.4978  0.1466 -0.1679
  990MOL0     C30573   4.505   1.288   5.430 -0.3130  0.3305 -0.2233
  990MOL0     C30574   4.628   1.225   5.410 -0.5651 -0.6269 -0.8214
  990MOL0     C30575   4.705   1.191   5.522 -0.0410  0.6563  0.1642
  990MOL0     C30576   4.672   1.207   5.652 -0.0494  0.2351  0.9085
  990MOL0     C30577   4.771   1.213   5.751 -1.4136 -0.1893 -0.1768
  990MOL0     O30578   4.728   1.244   5.871 -0.1342 -0.1854 -0.0843
  990MOL0     C30579   4.816   1.259   5.982 -0.3769  0.0505  0.3300
  990MOL0     C30580   4.907   1.369   5.991  0.6180  0.1080 -0.5392
  990MOL0     C30581   4.978   1.400   6.100 -0.8827  0.4569 -0.6754
  990MOL0     C30582   4.968   1.319   6.216 -0.7023  1.0463  0.0747
  990MOL0     O30583   5.050   1.344   6.317  0.9627 -0.3069 -0.4519
  990MOL0     C30584   5.125   1.229   6.365 -0.4317  0.2244 -0.6745
  990MOL0     C30585   5.191   1.263   6.498 -0.0941  0.1828 -0.5572
  990MOL0     C30586   5.107   1.222   6.624 -0.7060 -0.8044  0.6028
  990MOL0     C30587   4.977   1.294   6.630  0.5871 -0.8473 -0.5571
  990MOL0     C30588   4.939   1.328   6.776 -0.1462 -0.0212  0.2970
  990MOL0     C30589   4.818   1.421   6.781  0.9588 -0.7089 -0.0274
  990MOL0     C30590   4.833   1.531   6.897 -0.1547  0.0998 -0.6794
  990MOL0     C30591   4.837   1.473   7.033 -0.5462  0.2198 -0.3452
  990MOL0    Cl30592   4.873   1.621   7.138 -0.2437 -0.0284 -0.0662
  990MOL0     C30593   4.885   1.211   6.203 -0.0037  0.3071  0.3226
  990MOL0     C30594   4.800   1.188   6.092  0.2831 -0.1489  0.3358
  990MOL0     O30595   4.895   1.194   5.720  0.4795  0.4447 -0.5853
  990MOL0     C30596   4.541   1.255   5.673  0.5108 -0.2580 -0.4885
  990MOL0     C30597   4.466   1.299   5.560  0.4620 -0.0348 -0.4789
  990MOL0     N30598   4.229   1.827   5.200  0.8495  0.2726  0.2251
  990MOL0     N30599   4.119   1.892   5.191 -0.3487 -0.1643  0.2033
  990MOL0     C30600   3.397   2.406   5.818 -0.3518  0.0898  0.3353
  990MOL0     C30601   3.302   2.369   5.920  0.5138 -0.6054  0.1323
  990MOL0     C30602   2.987   2.358   6.187 -0.2038 -0.0231 -0.4775
  990MOL0     C30603   2.996   2.232   6.261 -0.9272 -0.2659  0.2003
  990MOL0     C30604   2.937   2.213   6.388  0.8513 -0.9092 -0.0235
  990MOL0     C30605   2.846   2.307   6.427 -0.9691 -0.5695 -0.0584
  990MOL0     O30606   2.782   2.290   6.541 -0.8748 -0.4977 -0.8970
  990MOL0     C30607   2.744   2.389   6.640 -0.3420 -0.0657  0.8603
  990MOL0     C30608   2.737   2.331   6.767  0.8520 -0.4454 -0.3002
  990MOL0     C30609   2.626   2.216   6.770 -0.5980 -0.0362 -0.1153
  990MOL0     C30610   2.602   2.157   6.914  0.3626  0.8250 -0.4230
  990MOL0     C30611   2.717   2.141   6.995 -1.0041 -0.4530 -0.2252
  990MOL0     C30612   2.810   2.117   7.075  0.6277  0.9258 -0.3969
  990MOL0     C30613   2.836   2.434   6.362 -0.7353  1.0047  0.1868
  990MOL0     C30614   2.908   2.457   6.243 -0.4452 -0.0531 -0.9865
  990MOL0     H30615   3.108   2.150   5.774  0.5868 -0.6328 -1.8479
  990MOL0     H30616   3.239   2.203   5.573 -2.0808 -0.3365  0.2794
  990MOL0     H30617   3.441   2.522   5.465 -1.2737 -0.0656  0.7107
  990MOL0     H30618   3.363   2.371   5.428 -0.0517 -0.8995  1.2658
  990MOL0     H30619   3.590   2.280   5.398 -0.8871  0.7357  3.7020
  990MOL0     H30620   3.657   2.451   5.418 -0.7429  1.6381  0.7291
  990MOL0     H30621   3.619   2.516   5.208 -0.4003  0.8885  0.2110
  990MOL0     H30622   3.462   2.438   5.209 -0.2266  1.2519  0.6339
  990MOL0     H30623   3.532   2.239   5.139  1.7338 -1.2512 -0.4758
  990MOL0     H30624   3.609   2.357   5.038  0.6485  0.0481 -0.4655
  990MOL0     H30625   3.765   2.239   5.254  0.1783  2.1116  0.5513
  990MOL0     H30626   3.829   2.327   5.121 -0.4862 -0.2324 -4.0825
  990MOL0     H30627   3.747   2.155   4.954  0.1242 -0.0540  0.0203
  990MOL0     H30628   3.702   2.040   5.084 -1.7635 -0.7507  0.1821
  990MOL0     H30629   3.966   2.174   5.044  1.2611 -0.6578 -0.3338
  990MOL0     H30630   3.917   2.083   5.192  1.4124  0.8949 -0.4411
  990MOL0     H30631   3.938   1.959   4.918  0.1616  1.1883  0.1904
  990MOL0     H30632   3.849   1.878   5.048 -1.6500  1.9575  0.3286
  990MOL0     H30633   4.128   1.783   4.888 -1.0069 -3.4950  0.7741
  990MOL0     H30634   4.473   1.773   5.041  1.3434 -2.0396 -0.2451
  990MOL0     H30635   4.374   1.700   4.919 -1.5725  0.0719 -0.0045
  990MOL0     H30636   4.450   1.494   5.021  1.3047 -1.9173  1.5120
  990MOL0     H30637   4.298   1.532   5.100  0.4072 -1.3073  1.1099
  990MOL0     H30638   4.565   1.536   5.213  0.5400  2.3542 -2.1633
  990MOL0     H30639   4.466   1.676   5.262 -3.4470  0.9090  0.2666
  990MOL0     H30640   4.289   1.490   5.321 -0.1231 -0.1914 -1.7790
  990MOL0     H30641   4.429   1.527   5.422 -0.4819  1.1261 -0.6104
  990MOL0     H30642   4.649   1.206   5.305 -0.5803  2.1039 -1.4139
  990MOL0     H30643   4.794   1.134   5.499 -1.3486 -0.1440 -3.4909
  990MOL0     H30644   4.927   1.440   5.911  0.9327  0.2056 -0.3726
  990MOL0     H30645   5.055   1.476   6.105  1.1540 -1.5425 -0.1980
  990MOL0     H30646   5.202   1.199   6.293 -0.5872 -1.1075 -0.3139
  990MOL0     H30647   5.077   1.133   6.385 -0.9183  0.3461 -1.2386
  990MOL0     H30648   5.211   1.370   6.514  0.8885 -0.3821  2.8298
  990MOL0     H30649   5.289   1.215   6.502  1.1958  2.7052  0.2755
  990MOL0     H30650   5.165   1.230   6.717  2.2980  1.1398 -1.2854
  990MOL0     H30651   5.089   1.114   6.617 -2.2589 -0.5502  0.4592
  990MOL0     H30652   4.991   1.383   6.567 -2.5615  1.3222  1.5456
  990MOL0     H30653   4.893   1.244   6.582  0.1359  0.0760 -0.7551
  990MOL0     H30654   5.028   1.372   6.822 -0.0188  0.0224  0.0087
  990MOL0     H30655   4.924   1.236   6.834  4.2315  0.3210  2.4383
  990MOL0     H30656   4.716   1.382   6.782  0.3898  0.4771 -2.8417
  990MOL0     H30657   4.831   1.480   6.690  2.1103  2.5086  2.0354
  990MOL0     H30658   4.921   1.588   6.867  0.3926 -1.2391 -1.6898
  990MOL0     H30659   4.752   1.605   6.891  1.0135  1.6816  1.6401
  990MOL0     H30660   4.922   1.405   7.037 -0.2164  0.3938 -2.6309
  990MOL0     H30661   4.739   1.429   7.053 -0.3803 -0.3000 -0.6628
  990MOL0     H30662   4.871   1.150   6.292  2.6681  1.2364  1.5034
  990MOL0     H30663   4.730   1.105   6.084 -1.4789  1.0121  2.7475
  990MOL0     H30664   4.507   1.264   5.775  0.3528  0.9553 -0.6408
  990MOL0     H30665   4.368   1.337   5.588  1.5829  2.7258 -0.0040
  990MOL0     H30666   3.470   2.478   5.854  0.6816 -1.5876  1.7668
  990MOL0     H30667   3.315   2.413   6.019  0.0144  1.8437 -0.8118
  990MOL0     H30668   3.048   2.147   6.219  0.0048  1.0852 -1.5072
  990MOL0     H30669   2.932   2.116   6.438  2.0609 -0.5831  0.7649
  990MOL0     H30670   2.648   2.434   6.613  0.0414  2.7022  3.5723
  990MOL0     H30671   2.808   2.477   6.653 -1.8417  1.5547 -1.8636
  990MOL0     H30672   2.836   2.292   6.794  1.5254  2.6115  2.1845
  990MOL0     H30673   2.700   2.394   6.848 -0.9161 -2.8257  0.9074
  990MOL0     H30674   2.659   2.128   6.712 -1.3824 -2.2335  2.5712
  990MOL0     H30675   2.537   2.268   6.733 -0.3192  0.2940 -0.3268
  990MOL0     H30676   2.527   2.208   6.975  0.5908  1.1137 -0.3809
  990MOL0     H30677   2.547   2.063   6.905 -1.3517  1.6296  1.1331
  990MOL0     H30678   2.872   2.079   7.154 -0.1849  0.5223  0.0621
  990MOL0     H30679   2.782   2.519   6.402  3.1127  2.9282  1.7528
  990MOL0     H30680   2.892   2.547   6.185 -1.0865  1.0650  0.8154
  991MOL0     O30681   7.067   3.423   3.363 -0.2369  0.8613 -0.0541
  991MOL0     C30682   7.130   3.317   3.343  0.4465  0.1490 -0.0792
  991MOL0     O30683   7.074   3.196   3.351 -0.4436 -0.0819  0.4436
  991MOL0     C30684   6.941   3.190   3.374  0.2157 -1.3960 -0.4999
  991MOL0     C30685   6.884   3.215   3.500 -0.4339  0.7550  1.0577
  991MOL0     C30686   6.741   3.205   3.519  1.3009 -1.0118  0.6317
  991MOL0     C30687   6.661   3.162   3.411 -0.6775 -0.0186 -0.8644
  991MOL0     O30688   6.536   3.146   3.443 -0.0183 -0.1162  0.1065
  991MOL0     C30689   6.452   3.093   3.341  0.1058  0.5231  0.5722
  991MOL0     C30690   6.309   3.095   3.391  0.7680 -0.2746  0.0972
  991MOL0     C30691   6.217   3.013   3.316  0.8777 -0.2466  0.5793
  991MOL0     C30692   6.169   3.076   3.186  0.1550 -0.2810 -0.3197
  991MOL0     C30693   6.073   2.998   3.105  0.9227  0.8564 -0.0071
  991MOL0     C30694   5.997   3.088   3.005 -0.4713 -0.0485 -0.2332
  991MOL0     C30695   5.910   2.996   2.919  0.6479 -0.9092 -0.3168
  991MOL0     C30696   5.818   3.067   2.831  0.8602 -0.8132  0.9384
  991MOL0     N30697   5.737   2.977   2.743  0.5949 -1.1176 -0.4653
  991MOL0     C30698   5.629   2.899   2.782  0.6487 -0.2116  0.8643
  991MOL0     C30699   5.586   2.842   2.671  0.1869 -0.6664  0.8224
  991MOL0     C30700   5.461   2.767   2.660  0.7133 -1.1409 -0.0247
  991MOL0     C30701   5.467   2.645   2.587 -0.6359  0.8058  0.4538
  991MOL0     C30702   5.337   2.560   2.589  0.4911  0.2928 -0.6014
  991MOL0     C30703   5.338   2.448   2.484 -0.5545  0.1525 -0.0895
  991MOL0     O30704   5.414   2.342   2.532 -0.3535  0.3002 -0.7080
  991MOL0     C30705   5.441   2.245   2.437  0.2226  0.4071  0.6047
  991MOL0     C30706   5.388   2.215   2.311  0.0178 -0.0648  0.8242
  991MOL0     C30707   5.409   2.094   2.247 -0.5252  0.7528  0.8410
  991MOL0     C30708   5.490   1.992   2.305  0.2871  0.4410 -0.7950
  991MOL0     C30709   5.504   1.855   2.249 -0.5861  0.1932  0.2434
  991MOL0     O30710   5.569   1.761   2.318 -0.1801  0.1746  0.4136
  991MOL0     C30711   5.558   1.639   2.263  0.0420  0.4830  0.6553
  991MOL0     C30712   5.437   1.572   2.261 -0.5379 -0.3945  0.2350
  991MOL0     C30713   5.430   1.452   2.203  0.1987  0.0693 -0.0798
  991MOL0     C30714   5.544   1.397   2.135 -0.6372 -0.6196  1.1785
  991MOL0     O30715   5.539   1.273   2.081 -0.4621 -0.0972 -0.7551
  991MOL0     C30716   5.627   1.243   1.976 -0.3898  0.4433 -0.1441
  991MOL0     C30717   5.557   1.145   1.881 -0.2404  0.3825  0.1814
  991MOL0     C30718   5.541   1.000   1.945  0.7225 -0.6102 -0.6233
  991MOL0     C30719   5.464   0.904   1.854 -0.1764  0.6077 -0.3140
  991MOL0     C30720   5.546   0.844   1.738  0.5707 -0.3401  0.1981
  991MOL0     C30721   5.679   0.768   1.775  0.2120  0.3882 -0.2933
  991MOL0     C30722   5.657   0.663   1.883 -0.7229 -0.0968 -0.7892
  991MOL0     C30723   5.782   0.593   1.924 -0.8591  0.8487  0.5347
  991MOL0    Cl30724   5.872   0.509   1.790 -0.0921  0.4463 -0.4529
  991MOL0     C30725   5.667   1.465   2.141 -0.6713  1.0192 -0.9507
  991MOL0     C30726   5.676   1.581   2.206  0.0654  0.2553  0.1050
  991MOL0     O30727   5.450   1.840   2.140  0.1294 -0.2054  0.4352
  991MOL0     C30728   5.554   2.024   2.426  0.2441  0.2292 -0.1459
  991MOL0     C30729   5.517   2.141   2.494 -0.7402  0.1479 -0.3948
  991MOL0     N30730   5.666   2.885   2.562 -0.1329  0.6212  0.1798
  991MOL0     N30731   5.751   2.971   2.609 -0.8552 -0.2751 -0.0735
  991MOL0     C30732   6.726   3.136   3.284 -0.2872  0.7277  0.0610
  991MOL0     C30733   6.865   3.152   3.269 -0.3260  0.9569 -0.0830
  991MOL0     C30734   7.271   3.335   3.304 -1.0828  0.3552  0.3285
  991MOL0     C30735   7.343   3.224   3.244  0.1999  0.1957 -0.3512
  991MOL0     C30736   7.478   3.234   3.210 -0.1649  0.6256 -0.4830
  991MOL0     C30737   7.543   3.354   3.200 -0.6788 -1.3452 -0.6097
  991MOL0     O30738   7.670   3.382   3.161 -0.3537  0.8072  0.8437
  991MOL0     C30739   7.736   3.276   3.090  0.4025  0.1291 -0.0965
  991MOL0     C30740   7.834   3.349   2.995 -0.1063 -0.3231  0.5721
  991MOL0     C30741   7.767   3.428   2.888 -0.3011  0.0974  0.3343
  991MOL0     C30742   7.867   3.460   2.775  0.2948  0.7720  0.3960
  991MOL0     C30743   7.804   3.508   2.650 -0.5355 -0.5509 -0.9200
  991MOL0     C30744   7.747   3.552   2.557 -0.0924  0.0246  0.0216
  991MOL0     C30745   7.471   3.465   3.237 -0.9404  1.2492 -0.2137
  991MOL0     C30746   7.342   3.455   3.296 -0.4327  0.2525 -0.1079
  991MOL0     H30747   6.945   3.229   3.589  1.0479 -4.8429  1.2803
  991MOL0     H30748   6.685   3.232   3.608 -2.4060  0.9193 -2.0001
  991MOL0     H30749   6.477   2.992   3.309 -0.9717  0.3300  0.2961
  991MOL0     H30750   6.458   3.155   3.251 -1.6977 -1.2316 -0.8268
  991MOL0     H30751   6.268   3.197   3.391  1.4204 -0.0012 -0.6305
  991MOL0     H30752   6.329   3.076   3.497  0.1124 -0.5083  0.1802
  991MOL0     H30753   6.127   2.994   3.376  0.9035  1.0749  1.0649
  991MOL0     H30754   6.278   2.930   3.279  0.1678  0.0491 -1.3924
  991MOL0     H30755   6.123   3.174   3.208 -1.7608 -0.8686 -1.4179
  991MOL0     H30756   6.258   3.100   3.127  0.4464 -0.6717 -0.0374
  991MOL0     H30757   5.997   2.953   3.171  1.3266 -1.7036 -1.1772
  991MOL0     H30758   6.123   2.930   3.035  1.0606  2.4034 -1.4759
  991MOL0     H30759   6.066   3.136   2.935 -0.6995 -2.4915 -2.2918
  991MOL0     H30760   5.949   3.166   3.064 -0.5798  0.2747 -0.7374
  991MOL0     H30761   5.970   2.924   2.863 -0.1336 -1.3267 -0.6326
  991MOL0     H30762   5.863   2.937   2.998  0.6375  0.9293  1.1087
  991MOL0     H30763   5.864   3.138   2.762 -0.6775  0.4843  1.1722
  991MOL0     H30764   5.745   3.128   2.885  2.0273 -1.2437  3.1204
  991MOL0     H30765   5.592   2.886   2.883  2.9376 -1.1458  1.6280
  991MOL0     H30766   5.401   2.843   2.610 -0.4098 -2.8502 -1.4111
  991MOL0     H30767   5.425   2.746   2.761  1.7995 -0.7636  0.4593
  991MOL0     H30768   5.550   2.581   2.617 -0.5126 -1.6213 -4.2458
  991MOL0     H30769   5.494   2.676   2.486 -2.5629  2.8412  0.4771
  991MOL0     H30770   5.342   2.502   2.682  4.1696 -1.7243 -1.8407
  991MOL0     H30771   5.250   2.626   2.588  0.2769  0.4350  4.0066
  991MOL0     H30772   5.367   2.493   2.389 -1.6544 -1.0828 -1.0297
  991MOL0     H30773   5.236   2.413   2.471 -0.3544 -1.0549  1.2669
  991MOL0     H30774   5.331   2.293   2.260  0.2702  0.1829  0.9228
  991MOL0     H30775   5.369   2.089   2.146 -2.4787  0.1348  1.6023
  991MOL0     H30776   5.347   1.609   2.309  0.6067  1.3229  1.1423
  991MOL0     H30777   5.338   1.394   2.195  0.3657 -0.3893  1.1517
  991MOL0     H30778   5.718   1.195   2.012 -1.2486  0.1796  1.7827
  991MOL0     H30779   5.658   1.335   1.926 -2.2758  2.3447  1.9503
  991MOL0     H30780   5.612   1.134   1.787  1.6135  3.2210  0.8134
  991MOL0     H30781   5.457   1.188   1.867 -1.1627 -1.3169  1.2620
  991MOL0     H30782   5.478   1.019   2.033 -2.9797 -1.8345 -2.7581
  991MOL0     H30783   5.634   0.957   1.982 -2.9411 -4.7612  5.7498
  991MOL0     H30784   5.430   0.816   1.909 -5.9668  4.1314  2.7728
  991MOL0     H30785   5.375   0.955   1.816 -0.4164  1.3819  1.2217
  991MOL0     H30786   5.591   0.929   1.685 -1.3713  0.0384 -0.9367
  991MOL0     H30787   5.471   0.789   1.681 -2.2479  2.3050  1.1015
  991MOL0     H30788   5.748   0.847   1.806 -2.2301  1.7753  2.1071
  991MOL0     H30789   5.728   0.726   1.687  0.3845  1.4705 -0.7372
  991MOL0     H30790   5.618   0.698   1.979  4.3538  1.9824  0.8318
  991MOL0     H30791   5.603   0.574   1.849 -0.8841  1.0443 -3.8068
  991MOL0     H30792   5.748   0.512   1.989 -2.8268 -2.1575 -3.7923
  991MOL0     H30793   5.860   0.651   1.975  0.4677  0.5656 -1.0848
  991MOL0     H30794   5.763   1.431   2.102 -2.0856 -0.1329 -3.7490
  991MOL0     H30795   5.773   1.630   2.214 -0.3284  1.4069 -1.5263
  991MOL0     H30796   5.623   1.947   2.459 -1.2421 -0.1471  2.3749
  991MOL0     H30797   5.563   2.154   2.592  3.7367  3.5962 -2.6390
  991MOL0     H30798   6.670   3.083   3.208 -1.1778  0.4760  0.8771
  991MOL0     H30799   6.913   3.126   3.176 -0.0499  0.7741  0.1115
  991MOL0     H30800   7.299   3.126   3.259  0.8295  0.0222  0.4414
  991MOL0     H30801   7.538   3.146   3.190 -0.8577  0.0101  0.0581
  991MOL0     H30802   7.668   3.216   3.029 -1.5380 -1.8715  3.7465
  991MOL0     H30803   7.784   3.218   3.169 -2.1860 -1.9490  0.0956
  991MOL0     H30804   7.901   3.412   3.054 -0.9099 -0.8483  2.1115
  991MOL0     H30805   7.891   3.274   2.939 -1.2004 -0.6698 -0.1028
  991MOL0     H30806   7.719   3.511   2.939 -2.8714 -1.0705 -0.0153
  991MOL0     H30807   7.692   3.361   2.846 -2.5900  2.1625  0.9404
  991MOL0     H30808   7.940   3.533   2.811  0.9108 -0.7050  2.3003
  991MOL0     H30809   7.923   3.373   2.740  0.0663  0.2472  1.3087
  991MOL0     H30810   7.709   3.591   2.465 -1.4969  1.0928  1.0164
  991MOL0     H30811   7.525   3.555   3.264 -0.8110  0.3558  2.8251
  991MOL0     H30812   7.299   3.551   3.322  1.5701  1.2753 -0.3749
  992MOL0     O30813   9.388   6.996   0.870  0.3934 -0.6113  0.7207
  992MOL0     C30814   9.452   7.093   0.873 -0.0078 -1.6531  0.8780
  992MOL0     O30815   9.514   7.144   0.978  0.4200 -0.4902 -0.7452
  992MOL0     C30816   9.510   7.065   1.088 -0.0211 -0.1955 -0.2276
  992MOL0     C30817   9.565   6.930   1.088  0.1746 -0.3954  1.0251
  992MOL0     C30818   9.561   6.845   1.197  0.5500  0.9140 -0.2230
  992MOL0     C30819   9.497   6.877   1.317 -0.2618  1.1576 -0.4906
  992MOL0     O30820   9.508   6.783   1.422  0.8724 -0.5414  0.0065
  992MOL0     C30821   9.448   6.801   1.548  0.5650  0.4204  0.2121
  992MOL0     C30822   9.309   6.735   1.546 -0.4276  0.8332  0.0106
  992MOL0     C30823   9.283   6.708   1.695  0.6379 -0.4880 -1.4693
  992MOL0     C30824   9.150   6.633   1.713  0.8401 -0.3882 -0.4334
  992MOL0     C30825   9.126   6.493   1.657 -0.8527 -0.8958 -0.6098
  992MOL0     C30826   8.985   6.435   1.697 -0.7624 -0.3951  0.0246
  992MOL0     C30827   8.969   6.431   1.847  0.6977 -0.2305 -0.3520
  992MOL0     C30828   9.076   6.338   1.920  0.2968  0.1926  0.6857
  992MOL0     N30829   9.019   6.289   2.055 -0.4447  0.0890 -0.2837
  992MOL0     C30830   8.896   6.245   2.076  0.5278  0.1875  0.2195
  992MOL0     C30831   8.901   6.206   2.213 -0.2314  0.3942  0.1575
  992MOL0     C30832   8.789   6.127   2.286  0.0591  0.9204 -0.0221
  992MOL0     C30833   8.830   5.992   2.351 -0.0119 -0.4321 -0.2881
  992MOL0     C30834   8.911   6.002   2.480 -0.9867  1.0389 -0.7553
  992MOL0     C30835   8.957   5.859   2.526 -0.1274 -0.9721  0.7263
  992MOL0     O30836   8.988   5.846   2.665 -0.2909  0.5890  0.1563
  992MOL0     C30837   9.023   5.730   2.713 -0.2970  0.6363  0.2259
  992MOL0     C30838   9.044   5.723   2.846  0.1359 -0.7197 -0.5964
  992MOL0     C30839   9.092   5.606   2.906  0.4397  0.4579 -0.1288
  992MOL0     C30840   9.108   5.487   2.841 -0.1774  0.7638  0.9599
  992MOL0     C30841   9.155   5.354   2.892 -0.9481 -0.2461 -0.0671
  992MOL0     O30842   9.147   5.339   3.034 -0.2165  0.5563  0.0947
  992MOL0     C30843   9.201   5.233   3.094 -0.1227 -0.3679  0.4370
  992MOL0     C30844   9.307   5.254   3.188 -1.0189  0.4008 -0.2892
  992MOL0     C30845   9.377   5.147   3.246 -0.1757 -0.2609  1.1350
  992MOL0     C30846   9.345   5.017   3.218 -0.1355 -0.6901  0.1718
  992MOL0     O30847   9.411   4.914   3.271  0.4770 -0.1577  0.3568
  992MOL0     C30848   9.541   4.929   3.327  0.1101 -0.3795 -0.9447
  992MOL0     C30849   9.512   4.960   3.470  0.8496 -0.7595  0.4194
  992MOL0     C30850   9.436   4.846   3.538 -1.0365 -0.2204 -0.0720
  992MOL0     C30851   9.392   4.890   3.669  1.1614 -0.4891  1.3811
  992MOL0     C30852   9.332   4.778   3.757 -0.5484 -0.9385  0.1282
  992MOL0     C30853   9.204   4.704   3.718  0.2784  0.3885 -0.1468
  992MOL0     C30854   9.088   4.792   3.691 -0.3856 -0.4810 -1.4775
  992MOL0     C30855   9.036   4.875   3.813  0.2868  0.4102 -0.3953
  992MOL0    Cl30856   8.978   4.775   3.947 -0.2190 -0.2837  0.1295
  992MOL0     C30857   9.237   4.999   3.131  0.4151 -0.4471 -0.0352
  992MOL0     C30858   9.160   5.098   3.074 -0.2488 -0.6747 -0.7788
  992MOL0     O30859   9.195   5.261   2.821 -0.0318  0.5841 -0.5612
  992MOL0     C30860   9.072   5.492   2.706  1.0428 -0.6169 -0.2994
  992MOL0     C30861   9.032   5.609   2.643 -0.2576  0.0657  0.4453
  992MOL0     N30862   9.027   6.236   2.267  0.5739 -0.0775  0.0697
  992MOL0     N30863   9.097   6.281   2.165  0.2244  0.2207 -0.3548
  992MOL0     C30864   9.423   7.005   1.313  0.5620  0.9279  0.0575
  992MOL0     C30865   9.432   7.097   1.208  0.3340  0.4107 -0.1754
  992MOL0     C30866   9.487   7.162   0.742  0.4188  0.2628  0.1542
  992MOL0     C30867   9.441   7.109   0.623 -0.5235 -0.5038 -0.7630
  992MOL0     C30868   9.477   7.161   0.498  0.4044 -1.4542 -0.9390
  992MOL0     C30869   9.552   7.292   0.496  1.0697  0.6097  0.1406
  992MOL0     O30870   9.598   7.354   0.381 -0.1176 -0.4605 -0.0674
  992MOL0     C30871   9.565   7.305   0.249 -0.3681 -1.0808  0.0261
  992MOL0     C30872   9.425   7.344   0.217  0.1987  0.5236 -0.1397
  992MOL0     C30873   9.400   7.352   0.066  0.3815  0.9745 -0.3833
  992MOL0     C30874   9.260   7.312   0.012  0.4684  0.4811  0.5344
  992MOL0     C30875   9.169   7.421   0.003 -0.3199 -0.1971  0.3299
  992MOL0     C30876   9.088   7.512   0.008 -0.9915  0.0922 -1.0503
  992MOL0     C30877   9.581   7.348   0.623 -0.7609  0.0549  0.6694
  992MOL0     C30878   9.564   7.279   0.739 -0.6419  0.6998  0.8384
  992MOL0     H30879   9.635   6.897   1.012  1.0973 -0.6146  1.9510
  992MOL0     H30880   9.614   6.754   1.172  0.3026  0.5355  0.6100
  992MOL0     H30881   9.432   6.903   1.583 -0.2587 -0.5661  2.9857
  992MOL0     H30882   9.517   6.753   1.617  3.5925  2.1429 -1.4275
  992MOL0     H30883   9.319   6.646   1.483 -0.8383  0.4290  0.5073
  992MOL0     H30884   9.226   6.797   1.511  0.4512  2.0551  0.0342
  992MOL0     H30885   9.282   6.805   1.744  3.0246 -0.5038 -1.3088
  992MOL0     H30886   9.363   6.647   1.738  0.2382  0.8646  1.4359
  992MOL0     H30887   9.145   6.627   1.822  2.2193 -0.1564 -0.3410
  992MOL0     H30888   9.064   6.693   1.681  1.4233  0.7866  0.1370
  992MOL0     H30889   9.205   6.427   1.695 -2.3638 -1.4886  1.6469
  992MOL0     H30890   9.141   6.491   1.548 -1.4440  0.5124 -0.7352
  992MOL0     H30891   8.968   6.340   1.646 -6.6453 -0.4030  1.2901
  992MOL0     H30892   8.900   6.491   1.656 -2.2288 -1.1293  1.9407
  992MOL0     H30893   8.974   6.532   1.890 -0.5585 -0.3652  0.1378
  992MOL0     H30894   8.871   6.388   1.870  0.0618  0.9698 -0.7424
  992MOL0     H30895   9.169   6.395   1.926  1.5208 -0.8298 -4.2363
  992MOL0     H30896   9.102   6.245   1.869 -1.7026  1.3594 -2.7590
  992MOL0     H30897   8.812   6.227   2.010  1.1113  2.4300 -1.2272
  992MOL0     H30898   8.705   6.116   2.216 -0.4172 -0.8249  0.7514
  992MOL0     H30899   8.747   6.185   2.369 -0.1835  0.6710  0.0316
  992MOL0     H30900   8.879   5.936   2.271  0.6246 -3.6362  2.1406
  992MOL0     H30901   8.748   5.921   2.369  2.0276 -3.7565 -2.8799
  992MOL0     H30902   9.005   6.056   2.464  1.5555 -2.4166  1.0757
  992MOL0     H30903   8.852   6.060   2.551 -3.1299 -0.3516 -1.3193
  992MOL0     H30904   9.041   5.838   2.459 -1.9690  2.6562 -3.1716
  992MOL0     H30905   8.872   5.797   2.496  0.6515 -1.5826 -0.2513
  992MOL0     H30906   9.027   5.819   2.894  1.0496 -0.2956 -1.1012
  992MOL0     H30907   9.111   5.609   3.013 -1.3992  2.2992  0.2141
  992MOL0     H30908   9.342   5.354   3.212  2.1366  0.0513 -2.9025
  992MOL0     H30909   9.456   5.167   3.318  2.0398 -4.3904  0.1136
  992MOL0     H30910   9.603   4.998   3.268 -0.9759  0.2269 -1.4089
  992MOL0     H30911   9.594   4.834   3.334  1.5416  0.3775 -1.0599
  992MOL0     H30912   9.439   5.041   3.475  1.2933 -0.1170 -2.0034
  992MOL0     H30913   9.603   4.997   3.517  1.5481 -0.8490 -0.8095
  992MOL0     H30914   9.512   4.770   3.556 -0.3552  0.0295 -1.7243
  992MOL0     H30915   9.360   4.797   3.478 -0.8046 -1.3454  0.5185
  992MOL0     H30916   9.480   4.935   3.714  3.4758 -1.0251 -2.2294
  992MOL0     H30917   9.315   4.968   3.669  1.3133 -0.2885  3.2373
  992MOL0     H30918   9.326   4.808   3.862  1.6080 -5.4226  1.7795
  992MOL0     H30919   9.412   4.704   3.756  1.0722  0.7139 -1.4366
  992MOL0     H30920   9.191   4.628   3.795  3.9319 -2.3130 -1.9035
  992MOL0     H30921   9.226   4.645   3.629  1.2144 -1.8258  1.4566
  992MOL0     H30922   9.126   4.860   3.614  1.8893  1.7683  1.4263
  992MOL0     H30923   9.014   4.729   3.640  1.1185 -3.1753 -0.5232
  992MOL0     H30924   8.956   4.935   3.769 -0.5917  0.1388  0.7732
  992MOL0     H30925   9.099   4.956   3.852  1.2165  0.0398 -1.0775
  992MOL0     H30926   9.214   4.896   3.106  0.5991 -0.9923  1.8710
  992MOL0     H30927   9.083   5.075   3.001 -0.5434  2.3775 -1.5618
  992MOL0     H30928   9.079   5.402   2.646 -0.5976 -0.1447 -1.2845
  992MOL0     H30929   9.008   5.599   2.538 -0.5060  1.5922  0.3449
  992MOL0     H30930   9.376   7.048   1.401  3.2725 -1.5118  2.9723
  992MOL0     H30931   9.372   7.187   1.201 -2.9776 -1.7260 -1.9528
  992MOL0     H30932   9.377   7.021   0.618  1.3732 -2.0518  0.4394
  992MOL0     H30933   9.446   7.119   0.403  1.6515  0.7055 -2.3924
  992MOL0     H30934   9.584   7.198   0.242  0.5142 -1.0674  1.6531
  992MOL0     H30935   9.629   7.347   0.171  0.4949 -1.0467  0.7262
  992MOL0     H30936   9.368   7.262   0.262 -1.6627  0.9262 -1.6677
  992MOL0     H30937   9.402   7.437   0.271 -1.5265  0.9933 -1.5982
  992MOL0     H30938   9.469   7.287   0.011 -4.3801 -2.9956 -2.4423
  992MOL0     H30939   9.429   7.455   0.043  1.5759  0.4460 -1.3226
  992MOL0     H30940   9.281   7.286  -0.092  2.0292 -0.3868  1.0354
  992MOL0     H30941   9.221   7.223   0.063  4.2189 -1.1556  0.8998
  992MOL0     H30942   9.012   7.584   0.028  0.0365  1.3823 -1.6435
  992MOL0     H30943   9.630   7.445   0.628 -2.4898  1.0754 -0.6560
  992MOL0     H30944   9.616   7.319   0.826  1.1135  1.9860 -0.6971
  993MOL0     O30945   3.766   2.918   7.921 -0.0591  0.8831  0.1578
  993MOL0     C30946   3.709   3.006   7.987 -0.2588  0.3746 -1.1095
  993MOL0     O30947   3.584   2.996   8.033  0.4061  0.4488 -0.3583
  993MOL0     C30948   3.530   2.868   8.014  0.2360  0.7887  0.9487
  993MOL0     C30949   3.506   2.789   8.131 -0.6350 -1.2025 -0.0453
  993MOL0     C30950   3.455   2.665   8.123  0.4342  0.6210 -0.8648
  993MOL0     C30951   3.408   2.624   7.999 -0.5001 -0.6071 -0.2417
  993MOL0     O30952   3.349   2.497   7.970  0.0221 -0.1396 -0.1367
  993MOL0     C30953   3.354   2.396   8.075  0.1558  0.0742 -0.2716
  993MOL0     C30954   3.269   2.268   8.047 -0.0108  0.4128 -0.3959
  993MOL0     C30955   3.314   2.186   7.931 -0.5359 -0.0603  0.6760
  993MOL0     C30956   3.456   2.133   7.930 -0.1286 -0.2687  0.3543
  993MOL0     C30957   3.487   2.070   7.794 -0.1982  0.5521 -0.0784
  993MOL0     C30958   3.413   1.935   7.764  0.6268 -0.1408 -0.2452
  993MOL0     C30959   3.480   1.873   7.644 -0.8182 -0.2464 -0.1520
  993MOL0     C30960   3.436   1.727   7.615 -0.9840  0.2526 -0.0051
  993MOL0     N30961   3.350   1.717   7.491 -0.3736 -0.2629 -0.5226
  993MOL0     C30962   3.397   1.663   7.374  0.6254  0.0896 -0.3066
  993MOL0     C30963   3.282   1.641   7.305  0.1322 -0.1264  0.6661
  993MOL0     C30964   3.267   1.569   7.169  0.3842  0.3749 -0.0859
  993MOL0     C30965   3.230   1.424   7.170 -0.3893  0.0227  0.2158
  993MOL0     C30966   3.271   1.341   7.046 -1.1637  0.8045  0.6199
  993MOL0     C30967   3.205   1.206   7.060  0.6735  0.1661 -0.2170
  993MOL0     O30968   3.299   1.091   7.026  0.9389 -0.8653 -0.0202
  993MOL0     C30969   3.270   0.960   7.033 -0.2406 -0.1864  0.1077
  993MOL0     C30970   3.361   0.865   6.993  0.1304  0.2320 -0.3579
  993MOL0     C30971   3.333   0.731   6.985  0.0353 -0.2584 -0.4817
  993MOL0     C30972   3.217   0.683   7.038  0.7616  0.4123 -0.9028
  993MOL0     C30973   3.188   0.536   7.058  0.1322 -0.9546 -1.0184
  993MOL0     O30974   3.255   0.454   6.971 -0.5663 -0.7305  0.0150
  993MOL0     C30975   3.248   0.318   6.953 -0.4138  0.6010  0.2804
  993MOL0     C30976   3.137   0.244   6.989 -0.3261  0.4053 -0.7047
  993MOL0     C30977   3.126   0.112   6.976  0.0290 -0.9932  0.7335
  993MOL0     C30978   3.247   0.042   6.926  0.1918  0.1899 -0.5706
  993MOL0     O30979   3.255  -0.095   6.899  0.4031 -0.4323  0.0542
  993MOL0     C30980   3.137  -0.160   6.860  0.1815 -0.1013  0.1392
  993MOL0     C30981   3.170  -0.300   6.814 -0.4725  0.2818  0.0025
  993MOL0     C30982   3.220  -0.299   6.669 -0.2337 -0.5170  0.4085
  993MOL0     C30983   3.118  -0.263   6.561 -0.3247 -0.3592 -0.3901
  993MOL0     C30984   3.175  -0.279   6.423  0.5432 -1.0062 -0.2844
  993MOL0     C30985   3.285  -0.189   6.397  0.7740  0.9624  0.8244
  993MOL0     C30986   3.333  -0.181   6.248  0.5879  0.5801  0.3921
  993MOL0     C30987   3.414  -0.069   6.222 -1.2260  0.1131  0.3426
  993MOL0    Cl30988   3.311   0.079   6.236 -0.3105 -0.2386  0.0650
  993MOL0     C30989   3.362   0.115   6.890 -0.7587 -0.1186  0.0502
  993MOL0     C30990   3.365   0.251   6.908 -0.1886  0.5987  0.1534
  993MOL0     O30991   3.105   0.502   7.142 -0.4315  0.2869 -0.1130
  993MOL0     C30992   3.125   0.780   7.087 -0.6830  0.4107  0.1729
  993MOL0     C30993   3.157   0.912   7.087  0.2075  0.5276 -0.3070
  993MOL0     N30994   3.175   1.701   7.373 -0.3014 -0.2181  0.4908
  993MOL0     N30995   3.218   1.745   7.480  0.2335 -0.1306  0.0075
  993MOL0     C30996   3.438   2.695   7.882  0.6921 -0.1164 -1.2316
  993MOL0     C30997   3.490   2.825   7.886 -0.0742 -0.7936  0.0874
  993MOL0     C30998   3.804   3.119   8.031 -0.3868 -0.3756  0.8503
  993MOL0     C30999   3.940   3.101   8.028  0.3349 -0.6929  0.0791
  993MOL0     C31000   4.023   3.211   8.061  0.8968 -0.4089  0.2713
  993MOL0     C31001   3.977   3.333   8.097 -0.1518  0.9611  0.5830
  993MOL0     O31002   4.070   3.435   8.129 -0.2539 -0.4310 -0.2492
  993MOL0     C31003   4.037   3.557   8.210  0.6148  0.8828  0.6950
  993MOL0     C31004   4.138   3.672   8.218  0.8261  0.3674 -0.1787
  993MOL0     C31005   4.156   3.727   8.084  0.0629  0.4355 -0.5791
  993MOL0     C31006   4.265   3.837   8.058 -0.4639 -0.9340 -0.0599
  993MOL0     C31007   4.264   3.897   7.928 -0.9972 -0.1113 -0.1586
  993MOL0     C31008   4.259   3.950   7.820  0.4024 -0.2443  0.8026
  993MOL0     C31009   3.839   3.350   8.104 -0.0319 -0.3186 -0.7714
  993MOL0     C31010   3.747   3.247   8.067 -0.2098  0.4854 -0.6096
  993MOL0     H31011   3.525   2.840   8.224  1.1188  0.7678 -1.3885
  993MOL0     H31012   3.451   2.597   8.208  3.0962  1.6451  0.2132
  993MOL0     H31013   3.318   2.435   8.171  0.9641  0.2004 -0.0116
  993MOL0     H31014   3.457   2.365   8.095 -0.5495 -1.5322  1.2076
  993MOL0     H31015   3.168   2.301   8.022 -0.0148  0.2692 -0.5766
  993MOL0     H31016   3.265   2.200   8.133  2.7533 -2.1049 -2.0405
  993MOL0     H31017   3.317   2.258   7.849  0.5788  0.9012  1.5189
  993MOL0     H31018   3.237   2.115   7.899 -0.8901  0.9805 -0.8650
  993MOL0     H31019   3.526   2.217   7.930  0.2359 -0.5707  0.3150
  993MOL0     H31020   3.468   2.062   8.012 -4.3737 -3.4853 -1.4452
  993MOL0     H31021   3.595   2.053   7.793 -0.2204  0.3374 -1.4843
  993MOL0     H31022   3.472   2.146   7.717 -0.4808  3.1675  2.3990
  993MOL0     H31023   3.308   1.967   7.754  0.4212 -0.0793  1.8005
  993MOL0     H31024   3.405   1.869   7.851 -0.4797  0.0989 -0.1513
  993MOL0     H31025   3.469   1.944   7.562 -0.6525  3.5809  2.8750
  993MOL0     H31026   3.584   1.877   7.675 -0.7690  2.3151 -0.4552
  993MOL0     H31027   3.375   1.689   7.697  0.6708 -2.8481 -0.0818
  993MOL0     H31028   3.523   1.660   7.609 -1.2793 -0.0965 -0.4511
  993MOL0     H31029   3.496   1.626   7.349  0.0746  0.0727 -2.7580
  993MOL0     H31030   3.364   1.581   7.119  1.3191  0.8741  1.7430
  993MOL0     H31031   3.185   1.619   7.117 -0.6998 -0.0193  1.1750
  993MOL0     H31032   3.124   1.415   7.193 -0.5070 -0.8194 -0.5636
  993MOL0     H31033   3.282   1.380   7.255  2.4653  4.4710  1.0858
  993MOL0     H31034   3.241   1.390   6.953  0.2868  0.5183 -0.0182
  993MOL0     H31035   3.380   1.329   7.049 -1.3323 -1.4858  3.9265
  993MOL0     H31036   3.117   1.205   6.996 -0.2376  2.3562  0.9219
  993MOL0     H31037   3.167   1.203   7.163  4.3477 -0.0472  1.3010
  993MOL0     H31038   3.461   0.899   6.970 -0.2825 -0.7651 -4.4188
  993MOL0     H31039   3.407   0.668   6.938 -0.4835 -1.5275  0.3237
  993MOL0     H31040   3.056   0.286   7.049 -2.1809 -1.7335 -1.5491
  993MOL0     H31041   3.034   0.064   7.007 -0.3321 -1.3672 -0.8172
  993MOL0     H31042   3.083  -0.105   6.783 -1.0306 -1.5083 -0.0597
  993MOL0     H31043   3.079  -0.175   6.951 -1.4114  0.4298 -0.7423
  993MOL0     H31044   3.096  -0.378   6.835  1.5947 -1.7524  0.1242
  993MOL0     H31045   3.257  -0.324   6.876  2.0436  1.9054 -2.6602
  993MOL0     H31046   3.266  -0.397   6.652 -0.1107 -0.4215  0.1798
  993MOL0     H31047   3.307  -0.234   6.661  1.3520 -2.4032  1.3752
  993MOL0     H31048   3.041  -0.341   6.571 -1.0192  0.5185  1.8958
  993MOL0     H31049   3.081  -0.160   6.569  0.0317 -0.2158 -0.5487
  993MOL0     H31050   3.094  -0.266   6.351 -0.3857 -2.8979  0.3522
  993MOL0     H31051   3.215  -0.381   6.419  0.4180 -1.0928  0.4741
  993MOL0     H31052   3.370  -0.215   6.461  1.3910 -2.1859 -1.0399
  993MOL0     H31053   3.249  -0.089   6.423 -0.5605  0.5421  0.6785
  993MOL0     H31054   3.384  -0.277   6.233  1.0997  0.4696  2.4903
  993MOL0     H31055   3.242  -0.184   6.187  0.6407 -2.7655  0.3103
  993MOL0     H31056   3.452  -0.065   6.119  0.4715 -1.2167  0.8696
  993MOL0     H31057   3.505  -0.071   6.283  0.7218  0.5022 -2.3611
  993MOL0     H31058   3.449   0.067   6.846 -1.4753 -2.2506  0.8630
  993MOL0     H31059   3.442   0.314   6.866 -2.0405  2.5227 -0.5549
  993MOL0     H31060   3.038   0.738   7.137 -1.3882  1.3961 -0.2012
  993MOL0     H31061   3.086   0.976   7.139 -2.3308 -1.6581 -0.8904
  993MOL0     H31062   3.409   2.643   7.791 -2.2617  0.5875 -0.7938
  993MOL0     H31063   3.502   2.887   7.797  0.6729 -1.1619 -0.0754
  993MOL0     H31064   3.981   3.013   7.980 -2.9922 -1.2196 -2.1505
  993MOL0     H31065   4.130   3.201   8.051  1.3853  1.0396  2.9489
  993MOL0     H31066   4.037   3.514   8.311 -0.4687  0.0511  0.3681
  993MOL0     H31067   3.940   3.596   8.176 -0.1222  0.3489  2.0700
  993MOL0     H31068   4.100   3.752   8.283 -0.2888  0.7401 -1.2619
  993MOL0     H31069   4.230   3.637   8.266 -1.0862 -1.2903  2.5727
  993MOL0     H31070   4.064   3.771   8.043 -0.9359  0.4477  1.5625
  993MOL0     H31071   4.167   3.643   8.015 -2.2529  0.7545 -1.4342
  993MOL0     H31072   4.253   3.916   8.132 -1.2152  0.2407 -1.3993
  993MOL0     H31073   4.362   3.786   8.066 -0.4744 -0.7193  1.8379
  993MOL0     H31074   4.260   4.017   7.736  1.4344 -0.1013  0.9198
  993MOL0     H31075   3.788   3.443   8.126 -1.2775 -1.1160 -0.1792
  993MOL0     H31076   3.640   3.253   8.049 -0.2213 -0.1841 -0.8028
  994MOL0     O31077   3.573   6.884   3.603 -0.5564 -0.2671  0.8905
  994MOL0     C31078   3.581   6.925   3.483 -0.9144  0.6145 -0.9612
  994MOL0     O31079   3.701   6.977   3.424  0.3766  0.2565 -0.4007
  994MOL0     C31080   3.811   7.006   3.494 -0.3339  0.4251  0.3439
  994MOL0     C31081   3.875   6.907   3.575  0.0581  0.2883  0.2238
  994MOL0     C31082   4.001   6.938   3.629 -0.6047 -0.2041 -0.4080
  994MOL0     C31083   4.055   7.062   3.623  0.2883 -0.0950  0.2180
  994MOL0     O31084   4.182   7.108   3.661  0.1980 -0.0440 -0.1531
  994MOL0     C31085   4.245   7.053   3.778 -0.3532  0.1312  0.1835
  994MOL0     C31086   4.163   7.095   3.900 -0.0396  0.3087  0.8159
  994MOL0     C31087   4.221   7.041   4.030  0.4077 -0.4949  0.8964
  994MOL0     C31088   4.114   7.050   4.142 -0.1179  0.9028 -0.4459
  994MOL0     C31089   4.091   7.185   4.218  0.2104  0.6761  1.1022
  994MOL0     C31090   4.213   7.274   4.220  0.0612  0.0283  0.9175
  994MOL0     C31091   4.203   7.392   4.310  0.2905  0.1025  0.7283
  994MOL0     C31092   4.102   7.498   4.272 -0.2076 -0.2687 -0.0509
  994MOL0     N31093   4.094   7.530   4.125 -0.2686  0.4954 -1.4776
  994MOL0     C31094   4.197   7.575   4.052 -0.5136 -0.7229 -0.9880
  994MOL0     C31095   4.135   7.583   3.925  0.5326 -0.6448 -0.8467
  994MOL0     C31096   4.197   7.603   3.792  0.6539  0.9290 -0.0976
  994MOL0     C31097   4.240   7.475   3.717  0.0116 -0.6775  0.1949
  994MOL0     C31098   4.305   7.502   3.584 -0.8212  0.5821  0.2390
  994MOL0     C31099   4.382   7.381   3.529 -0.7188 -0.4312 -0.3434
  994MOL0     O31100   4.465   7.394   3.406 -0.3113  0.0189  0.8074
  994MOL0     C31101   4.585   7.455   3.416 -0.4338  0.1515 -1.0237
  994MOL0     C31102   4.629   7.523   3.536  0.3289 -0.6593 -0.3391
  994MOL0     C31103   4.748   7.592   3.535 -0.5373 -0.5607  0.3259
  994MOL0     C31104   4.832   7.600   3.409 -0.4730  0.8195  0.5987
  994MOL0     C31105   4.950   7.688   3.412 -0.1486  0.5893  0.2418
  994MOL0     O31106   5.035   7.686   3.307  0.2263  0.2606  0.0724
  994MOL0     C31107   5.164   7.741   3.307 -0.2956 -1.3129  0.7342
  994MOL0     C31108   5.183   7.849   3.215  0.4175  0.5687  0.3346
  994MOL0     C31109   5.311   7.912   3.209  0.5366  0.8964  0.7283
  994MOL0     C31110   5.429   7.846   3.269 -0.0479 -0.0592 -1.0481
  994MOL0     O31111   5.554   7.910   3.267 -0.7920  0.3835 -0.0649
  994MOL0     C31112   5.638   7.917   3.393 -0.2442  0.0993  0.5848
  994MOL0     C31113   5.768   7.988   3.341 -0.2211 -0.5379 -1.0234
  994MOL0     C31114   5.758   8.138   3.304 -0.3199  0.5915  0.3924
  994MOL0     C31115   5.896   8.191   3.255  0.3945 -0.3260  0.1935
  994MOL0     C31116   5.904   8.336   3.213  0.3187  0.8203 -1.8317
  994MOL0     C31117   5.839   8.424   3.329 -1.1018  0.8579  0.0775
  994MOL0     C31118   5.881   8.571   3.309 -0.3116  0.7774  0.8309
  994MOL0     C31119   5.858   8.686   3.404  0.2076 -0.2621 -0.3867
  994MOL0    Cl31120   5.952   8.642   3.558  0.0684 -0.0886  0.3143
  994MOL0     C31121   5.404   7.736   3.359 -0.2229  0.2262  0.0131
  994MOL0     C31122   5.276   7.687   3.375  0.2566  0.2944 -0.2783
  994MOL0     O31123   4.977   7.735   3.515  0.1985 -1.2012  0.5384
  994MOL0     C31124   4.789   7.524   3.298 -0.6613 -0.4360  0.0545
  994MOL0     C31125   4.665   7.462   3.299  0.7620 -0.2646 -0.5322
  994MOL0     N31126   3.994   7.560   3.938 -0.0528 -0.3231 -0.2422
  994MOL0     N31127   3.979   7.516   4.052  0.1571  0.2190 -1.0980
  994MOL0     C31128   4.000   7.155   3.538  0.3142 -0.5445  0.8909
  994MOL0     C31129   3.880   7.127   3.475  0.4365 -0.4506 -0.5762
  994MOL0     C31130   3.454   6.953   3.412 -0.3879 -0.7298 -0.5326
  994MOL0     C31131   3.448   7.040   3.303  0.0187  0.0087  0.9625
  994MOL0     C31132   3.322   7.074   3.244 -0.0045 -0.7120  0.4522
  994MOL0     C31133   3.205   7.047   3.311  0.5162  0.5287 -0.2207
  994MOL0     O31134   3.087   7.074   3.259  0.4982  0.0463 -0.1753
  994MOL0     C31135   3.069   7.183   3.164  0.2061 -0.5032 -0.1529
  994MOL0     C31136   2.926   7.181   3.113 -0.6019  0.1386 -0.3105
  994MOL0     C31137   2.895   7.251   2.979  0.1239 -0.4821 -0.2550
  994MOL0     C31138   2.750   7.292   2.959 -0.7783 -1.0509 -1.1132
  994MOL0     C31139   2.664   7.171   2.981 -0.4784 -0.0885 -0.3901
  994MOL0     C31140   2.615   7.065   3.014 -0.5392  0.7070 -0.4543
  994MOL0     C31141   3.217   6.980   3.430 -0.1189  0.8167 -0.0113
  994MOL0     C31142   3.337   6.924   3.478 -0.4432  0.3988  0.7982
  994MOL0     H31143   3.831   6.808   3.574 -1.6427  1.0100 -0.3964
  994MOL0     H31144   4.058   6.858   3.675  0.0699  0.0738 -0.7544
  994MOL0     H31145   4.346   7.095   3.771 -1.4160  2.7881 -0.5638
  994MOL0     H31146   4.247   6.944   3.765  0.5176  0.1720 -0.0774
  994MOL0     H31147   4.064   7.053   3.880  1.1229 -2.5749  0.5367
  994MOL0     H31148   4.150   7.204   3.896 -1.3487  0.2954  2.9832
  994MOL0     H31149   4.317   7.087   4.057  0.3374  0.0080  0.3291
  994MOL0     H31150   4.251   6.936   4.023  3.1132  0.1366  1.9266
  994MOL0     H31151   4.022   6.999   4.112  0.4460  1.7700 -3.9975
  994MOL0     H31152   4.150   6.987   4.224 -1.1714 -1.0388 -1.4289
  994MOL0     H31153   4.058   7.164   4.320 -1.8682 -0.7155  0.2176
  994MOL0     H31154   4.003   7.233   4.173  0.3731 -0.6034 -0.6827
  994MOL0     H31155   4.251   7.301   4.121  0.6078 -0.0908  1.0922
  994MOL0     H31156   4.287   7.213   4.271  0.2221 -0.6479 -0.0807
  994MOL0     H31157   4.195   7.356   4.413  0.7011 -1.2690  0.3045
  994MOL0     H31158   4.305   7.432   4.304  0.3438 -0.2354 -1.0464
  994MOL0     H31159   4.135   7.586   4.329  1.0670 -1.3236  0.9307
  994MOL0     H31160   4.002   7.488   4.314 -0.0655 -3.5604 -0.2984
  994MOL0     H31161   4.304   7.575   4.072 -0.7903 -2.1416  0.7231
  994MOL0     H31162   4.294   7.650   3.803  2.1050 -1.2451 -2.3754
  994MOL0     H31163   4.129   7.665   3.734  0.1918  1.7271  1.2504
  994MOL0     H31164   4.150   7.415   3.700 -0.1242 -0.3529 -0.2479
  994MOL0     H31165   4.301   7.422   3.791  0.1095  2.1411  2.2987
  994MOL0     H31166   4.233   7.524   3.505  0.4695 -0.6036 -1.3553
  994MOL0     H31167   4.369   7.590   3.597 -0.0543  0.1377 -0.4028
  994MOL0     H31168   4.303   7.306   3.520 -1.5840  0.3048  0.7827
  994MOL0     H31169   4.448   7.349   3.611 -4.2695 -0.1318  2.9389
  994MOL0     H31170   4.579   7.514   3.632  1.2532 -1.3349  0.1045
  994MOL0     H31171   4.788   7.647   3.620 -0.4138 -1.0029  0.5521
  994MOL0     H31172   5.096   7.883   3.160 -0.2703 -1.0360  0.3661
  994MOL0     H31173   5.317   7.998   3.144 -0.7753  1.0471  0.7844
  994MOL0     H31174   5.663   7.815   3.422 -0.3510 -1.4450 -4.0158
  994MOL0     H31175   5.591   7.979   3.471 -0.7944  1.4522 -0.7765
  994MOL0     H31176   5.808   7.948   3.247  0.8077 -0.2185 -0.7325
  994MOL0     H31177   5.849   7.984   3.414 -0.1389  0.3191 -1.0604
  994MOL0     H31178   5.717   8.194   3.388 -0.3166  3.0230 -1.1346
  994MOL0     H31179   5.679   8.137   3.228  0.7070 -0.4557 -0.7214
  994MOL0     H31180   5.976   8.182   3.329 -0.7034 -0.0313  1.4746
  994MOL0     H31181   5.922   8.127   3.170 -0.6686  0.2628 -0.5912
  994MOL0     H31182   5.838   8.353   3.128 -1.2392  0.6211 -0.7029
  994MOL0     H31183   6.012   8.354   3.208  0.5570  1.0742  1.5153
  994MOL0     H31184   5.854   8.388   3.431 -0.1157 -0.8338 -0.6307
  994MOL0     H31185   5.733   8.398   3.317 -0.3782 -1.8796 -1.2762
  994MOL0     H31186   5.987   8.575   3.283  0.8536 -1.2272  4.5498
  994MOL0     H31187   5.824   8.600   3.219 -2.5326  0.3418  2.0199
  994MOL0     H31188   5.754   8.699   3.433 -0.5008 -1.8084 -2.0587
  994MOL0     H31189   5.887   8.781   3.360 -0.1741 -1.1542 -2.7055
  994MOL0     H31190   5.485   7.695   3.419 -0.2841  0.3611  0.1910
  994MOL0     H31191   5.246   7.608   3.443 -0.5594  0.3680 -0.5494
  994MOL0     H31192   4.847   7.514   3.207 -3.0289  1.4800 -1.8101
  994MOL0     H31193   4.641   7.399   3.214  0.4077  1.3087 -1.6394
  994MOL0     H31194   4.054   7.246   3.515 -2.1208  0.9546  0.7314
  994MOL0     H31195   3.829   7.206   3.421 -2.0616 -1.1298  0.6260
  994MOL0     H31196   3.540   7.070   3.254  0.6729 -3.3515 -0.1369
  994MOL0     H31197   3.321   7.135   3.154  1.6675  0.2056  0.9975
  994MOL0     H31198   3.125   7.182   3.070  0.0436  0.0320 -0.2588
  994MOL0     H31199   3.096   7.279   3.208 -0.1282 -0.6320  0.3407
  994MOL0     H31200   2.902   7.074   3.105  1.6295 -0.4505  0.0144
  994MOL0     H31201   2.867   7.229   3.192 -0.4396 -0.0266 -0.0871
  994MOL0     H31202   2.915   7.172   2.906  0.9707 -1.4630  0.9979
  994MOL0     H31203   2.947   7.345   2.959 -1.3816  0.1141 -1.6069
  994MOL0     H31204   2.724   7.360   3.040  1.0348 -0.7386 -0.7492
  994MOL0     H31205   2.741   7.330   2.857  5.1585 -2.7363 -2.6690
  994MOL0     H31206   2.573   6.968   3.031  0.3649  0.7315  2.3638
  994MOL0     H31207   3.122   6.948   3.473  0.0358 -1.0972 -0.9706
  994MOL0     H31208   3.342   6.853   3.560  0.4289 -1.6535 -0.9319
  995MOL0     O31209   3.801   8.691   0.207 -0.1747 -0.0855 -0.4563
  995MOL0     C31210   3.790   8.794   0.141 -0.5850 -1.0261 -0.2230
  995MOL0     O31211   3.675   8.876   0.142 -0.1994 -0.2920  0.8157
  995MOL0     C31212   3.567   8.836   0.218 -0.5483  0.3069  0.3675
  995MOL0     C31213   3.552   8.905   0.341 -0.2464  0.9355 -0.3821
  995MOL0     C31214   3.431   8.886   0.413  0.3318  0.6394  1.4576
  995MOL0     C31215   3.329   8.803   0.363  0.7525 -0.7439  1.0239
  995MOL0     O31216   3.203   8.802   0.418 -1.3663 -0.3312  0.0301
  995MOL0     C31217   3.171   8.687   0.485  0.9108  0.1262  0.7461
  995MOL0     C31218   3.075   8.708   0.588  0.5592  0.0021 -0.0262
  995MOL0     C31219   2.946   8.779   0.540 -0.7948 -0.2972 -0.1923
  995MOL0     C31220   2.858   8.825   0.654 -0.3351  0.1746 -0.1300
  995MOL0     C31221   2.903   8.950   0.729  0.4104 -1.3311  0.4868
  995MOL0     C31222   2.900   9.070   0.638 -0.3682 -0.3441 -0.4746
  995MOL0     C31223   2.924   9.201   0.715  0.6452 -0.3794 -0.3874
  995MOL0     C31224   2.997   9.314   0.628 -0.3913 -0.5533 -0.9074
  995MOL0     N31225   2.966   9.444   0.685 -0.9317 -0.2236  0.0459
  995MOL0     C31226   2.865   9.526   0.645  0.5843  0.2147 -0.0626
  995MOL0     C31227   2.879   9.635   0.732 -0.2867 -0.5466  0.1233
  995MOL0     C31228   2.812   9.771   0.727  0.1416 -0.5995 -0.2122
  995MOL0     C31229   2.668   9.758   0.679 -0.6180 -0.1728 -0.1172
  995MOL0     C31230   2.589   9.672   0.769  0.5306  0.4221 -0.0444
  995MOL0     C31231   2.447   9.664   0.706  1.2070  0.3622 -0.3549
  995MOL0     O31232   2.434   9.555   0.608 -0.4120 -0.3607  0.5987
  995MOL0     C31233   2.308   9.553   0.558 -0.4004  0.6603 -0.3031
  995MOL0     C31234   2.212   9.463   0.604  0.2576 -1.0150 -0.2792
  995MOL0     C31235   2.084   9.469   0.544  0.0092  0.5370  0.2986
  995MOL0     C31236   2.058   9.561   0.442  0.0182  0.0594  0.1234
  995MOL0     C31237   1.919   9.566   0.378 -0.7678  0.2613 -0.7475
  995MOL0     O31238   1.866   9.691   0.363 -0.2056 -0.1038 -0.8841
  995MOL0     C31239   1.733   9.709   0.326  0.1074  0.3586  1.5425
  995MOL0     C31240   1.641   9.614   0.285  0.1718  0.2524 -0.3267
  995MOL0     C31241   1.517   9.659   0.262  1.0331 -0.3183 -0.2232
  995MOL0     C31242   1.476   9.797   0.277  0.8334  0.2358 -0.1749
  995MOL0     O31243   1.338   9.821   0.266  1.1284  1.4160  0.6182
  995MOL0     C31244   1.288   9.949   0.311  0.6251  0.0325  0.0809
  995MOL0     C31245   1.142   9.961   0.296  0.5667 -0.2204  0.2019
  995MOL0     C31246   1.085  10.101   0.326  0.8243 -0.1665  0.6970
  995MOL0     C31247   0.933  10.100   0.365 -0.4407  0.4766 -0.9543
  995MOL0     C31248   0.889  10.238   0.426  0.5179 -0.5265 -0.7761
  995MOL0     C31249   0.744  10.228   0.472 -0.8775 -0.4625 -0.3851
  995MOL0     C31250   0.682  10.365   0.512  0.0666  0.1457 -0.2273
  995MOL0     C31251   0.531  10.350   0.554 -0.5825 -0.2850 -0.3846
  995MOL0    Cl31252   0.471  10.481   0.659 -0.0442 -0.3146 -0.2948
  995MOL0     C31253   1.572   9.900   0.305 -0.5680 -0.4883 -0.0971
  995MOL0     C31254   1.700   9.848   0.325  0.0458  0.2792 -0.6192
  995MOL0     O31255   1.857   9.458   0.372  0.2386  0.2085 -0.4891
  995MOL0     C31256   2.164   9.640   0.390  0.3134  1.0796  0.2290
  995MOL0     C31257   2.291   9.637   0.447  0.5108  0.4566  0.1883
  995MOL0     N31258   2.978   9.607   0.831  0.4843 -0.5697  0.1117
  995MOL0     N31259   3.032   9.492   0.791 -0.8542 -0.0903 -0.7533
  995MOL0     C31260   3.342   8.747   0.233  0.5093  0.6115  0.2582
  995MOL0     C31261   3.463   8.765   0.157  0.5823  0.8163 -0.0661
  995MOL0     C31262   3.899   8.818   0.040  0.1574 -0.2566 -0.2289
  995MOL0     C31263   3.885   8.911  -0.053 -0.1642  0.0856  0.4489
  995MOL0     C31264   3.981   8.922  -0.153 -0.1751 -0.7641 -0.8875
  995MOL0     C31265   4.098   8.848  -0.141  0.2756 -0.1743  0.5992
  995MOL0     O31266   4.191   8.846  -0.245  0.1968  0.2826  0.6179
  995MOL0     C31267   4.296   8.939  -0.239  0.4490 -0.0760  0.1909
  995MOL0     C31268   4.261   9.077  -0.214  0.0129 -0.9556 -0.0795
  995MOL0     C31269   4.213   9.154  -0.341  1.1517 -0.4046  0.1246
  995MOL0     C31270   4.196   9.303  -0.308  1.4660 -0.5856  0.4823
  995MOL0     C31271   4.312   9.388  -0.313 -0.3292  0.2739 -0.7514
  995MOL0     C31272   4.402   9.474  -0.312 -0.0686  0.2137  0.1409
  995MOL0     C31273   4.116   8.761  -0.036  0.1446  0.5053 -0.3062
  995MOL0     C31274   4.019   8.749   0.057  0.1302 -0.1671  0.1072
  995MOL0     H31275   3.635   8.958   0.387  0.1535 -0.1881  0.2459
  995MOL0     H31276   3.425   8.926   0.514  1.8858  1.0070  1.4341
  995MOL0     H31277   3.242   8.624   0.538 -0.4691 -0.7685  1.5837
  995MOL0     H31278   3.135   8.619   0.407 -1.1208  1.7619  0.1557
  995MOL0     H31279   3.127   8.749   0.675  2.1637 -2.0230  0.0381
  995MOL0     H31280   3.057   8.609   0.630  5.0612 -1.0258 -0.0840
  995MOL0     H31281   2.895   8.711   0.471 -0.1065 -1.1689  0.1407
  995MOL0     H31282   2.976   8.862   0.475 -0.6700 -1.2604 -1.4022
  995MOL0     H31283   2.758   8.833   0.611  0.3250 -1.0454 -2.0020
  995MOL0     H31284   2.844   8.740   0.722 -0.6443  0.1396 -0.2340
  995MOL0     H31285   2.993   8.942   0.790  0.1152  0.1086  1.1581
  995MOL0     H31286   2.827   8.976   0.804 -0.6604  2.6987 -1.6745
  995MOL0     H31287   2.805   9.070   0.584 -0.2608 -1.7105 -0.6931
  995MOL0     H31288   2.976   9.063   0.558  1.0745 -1.6093  0.9309
  995MOL0     H31289   2.829   9.238   0.754  1.7075  1.1186  0.9458
  995MOL0     H31290   2.981   9.181   0.807 -2.4414  2.0192  2.2858
  995MOL0     H31291   2.966   9.321   0.523  1.4679  2.2179 -1.3969
  995MOL0     H31292   3.103   9.296   0.647 -0.4241  1.2142  1.3983
  995MOL0     H31293   2.792   9.519   0.564 -1.3422  3.2105  1.2219
  995MOL0     H31294   2.866   9.832   0.654  0.7172 -1.4930 -0.5558
  995MOL0     H31295   2.819   9.825   0.822 -0.4606  0.5735 -0.8135
  995MOL0     H31296   2.663   9.710   0.581 -0.7940  0.2149 -0.3004
  995MOL0     H31297   2.624   9.857   0.662  0.5500  0.5023  0.6566
  995MOL0     H31298   2.632   9.573   0.782 -1.0344 -0.0958  1.6765
  995MOL0     H31299   2.587   9.723   0.866  4.0425  2.9233 -1.0917
  995MOL0     H31300   2.418   9.763   0.671 -0.5682 -0.2575 -0.7238
  995MOL0     H31301   2.371   9.639   0.781 -1.0686  0.4697 -2.4992
  995MOL0     H31302   2.233   9.413   0.698 -0.4060 -0.1390  0.3522
  995MOL0     H31303   1.991   9.423   0.578 -1.4153  1.4890 -2.0722
  995MOL0     H31304   1.658   9.508   0.272  2.6557  0.5363  0.2311
  995MOL0     H31305   1.445   9.585   0.230  0.1212  1.8246 -3.7174
  995MOL0     H31306   1.335  10.034   0.259 -5.1573  2.0105 -2.7993
  995MOL0     H31307   1.318   9.957   0.416 -1.7402  1.4289  0.7245
  995MOL0     H31308   1.105   9.891   0.372  0.8505 -0.0351  0.5142
  995MOL0     H31309   1.129   9.943   0.189  0.5455 -2.6912  0.5544
  995MOL0     H31310   1.092  10.177   0.247 -0.6265  0.0442  0.7334
  995MOL0     H31311   1.143  10.141   0.409  3.7236 -0.9613 -0.8258
  995MOL0     H31312   0.872  10.065   0.282  2.4128 -1.6647 -2.3472
  995MOL0     H31313   0.931  10.026   0.445  1.0157 -0.0521 -1.3661
  995MOL0     H31314   0.901  10.300   0.337 -0.3227 -1.0610 -1.2715
  995MOL0     H31315   0.944  10.266   0.517 -0.2324  1.4024 -0.8730
  995MOL0     H31316   0.739  10.157   0.555  1.1208 -3.8875 -2.9478
  995MOL0     H31317   0.680  10.182   0.397 -1.5993  0.7805 -0.5627
  995MOL0     H31318   0.727  10.398   0.606 -1.3522 -3.5233  1.9750
  995MOL0     H31319   0.676  10.433   0.427 -0.0803  1.3275  0.7023
  995MOL0     H31320   0.527  10.258   0.613 -0.4228 -0.0520 -0.0113
  995MOL0     H31321   0.473  10.337   0.462  1.3316  2.3094 -2.1051
  995MOL0     H31322   1.548  10.002   0.333 -2.3527 -1.3526  1.7433
  995MOL0     H31323   1.782   9.915   0.347  1.7100 -1.6081 -0.8416
  995MOL0     H31324   2.147   9.702   0.303  1.0397  0.1391 -0.6146
  995MOL0     H31325   2.377   9.691   0.408  1.2790 -2.4787 -2.5575
  995MOL0     H31326   3.258   8.694   0.190  0.1852  1.6427 -0.4112
  995MOL0     H31327   3.469   8.710   0.064 -2.0814 -2.1510  1.2974
  995MOL0     H31328   3.799   8.976  -0.063 -1.0242 -1.3780 -4.3845
  995MOL0     H31329   3.971   8.992  -0.235  1.0872  0.5796  0.0492
  995MOL0     H31330   4.343   8.936  -0.338 -1.0427 -1.7685 -0.5105
  995MOL0     H31331   4.364   8.907  -0.159  2.5211 -2.1228 -2.2008
  995MOL0     H31332   4.191   9.099  -0.132 -0.8103  2.1915 -1.4748
  995MOL0     H31333   4.353   9.121  -0.175 -1.0622  0.0924  1.4245
  995MOL0     H31334   4.114   9.116  -0.368 -1.0716  3.2470  2.3116
  995MOL0     H31335   4.281   9.134  -0.424  2.3503  1.1176  0.6843
  995MOL0     H31336   4.131   9.340  -0.388 -0.9986  1.9918  3.3714
  995MOL0     H31337   4.134   9.330  -0.222 -1.8346 -0.4535 -1.7775
  995MOL0     H31338   4.454   9.568  -0.315 -0.4251  0.3803 -1.5848
  995MOL0     H31339   4.205   8.699  -0.040  0.0567  0.3030  0.6422
  995MOL0     H31340   4.025   8.678   0.139 -0.1636  1.0146  1.1897
  996MOL0     O31341   9.792  11.062   0.406 -0.1929  0.1812 -0.0894
  996MOL0     C31342   9.701  11.091   0.325 -0.0735 -0.2541 -0.5706
  996MOL0     O31343   9.621  11.005   0.257 -0.3148 -0.5441 -0.3891
  996MOL0     C31344   9.627  10.870   0.279  0.2844  0.1038  0.1577
  996MOL0     C31345   9.527  10.806   0.353  0.5296 -0.2292 -0.0702
  996MOL0     C31346   9.522  10.669   0.352  0.1179  0.1093  0.0452
  996MOL0     C31347   9.608  10.588   0.275  0.2690  0.3888  0.1541
  996MOL0     O31348   9.599  10.454   0.279  0.6529  0.2252  0.9563
  996MOL0     C31349   9.695  10.375   0.206  0.1994 -0.3942  0.5999
  996MOL0     C31350   9.682  10.224   0.255 -0.9827  0.0503 -0.9611
  996MOL0     C31351   9.758  10.123   0.178  0.3513  0.2896 -0.4728
  996MOL0     C31352   9.910  10.111   0.231  0.5892  0.6471  0.5271
  996MOL0     C31353   9.989  10.016   0.151  0.7545 -0.6485 -0.7465
  996MOL0     C31354  10.122   9.972   0.217  0.3378  0.6417  0.2240
  996MOL0     C31355  10.225   9.903   0.127 -0.4164 -0.3960 -0.9704
  996MOL0     C31356  10.179   9.778   0.058 -0.2366 -0.2060  0.1980
  996MOL0     N31357  10.138   9.682   0.167  0.0231  0.1064 -0.4668
  996MOL0     C31358  10.219   9.573   0.192  0.1229 -0.4949  0.1435
  996MOL0     C31359  10.145   9.492   0.272 -1.2310 -0.6048  0.7710
  996MOL0     C31360  10.188   9.365   0.323  1.0101  0.7637 -1.1300
  996MOL0     C31361  10.289   9.374   0.431 -0.5481 -0.6192 -0.5674
  996MOL0     C31362  10.221   9.389   0.561 -0.0369  0.8183  0.9057
  996MOL0     C31363  10.330   9.405   0.670  0.7987 -0.2104  0.3830
  996MOL0     O31364  10.328   9.274   0.741  0.0126  0.1634 -0.2527
  996MOL0     C31365  10.453   9.250   0.803 -0.3825  0.2740  0.1809
  996MOL0     C31366  10.552   9.174   0.743  0.9286  0.2937  0.4409
  996MOL0     C31367  10.672   9.154   0.800  0.7853 -0.6790  0.0095
  996MOL0     C31368  10.708   9.234   0.918 -0.0596 -0.3508  0.1323
  996MOL0     C31369  10.853   9.219   0.957  0.6135 -0.3093 -0.1218
  996MOL0     O31370  10.886   9.279   1.080  0.5797 -0.3362  0.4556
  996MOL0     C31371  11.009   9.273   1.135  0.3376  0.1535 -0.2339
  996MOL0     C31372  11.025   9.292   1.274 -0.5540  0.3628 -1.0082
  996MOL0     C31373  11.155   9.293   1.330 -0.2463 -0.1940  0.1330
  996MOL0     C31374  11.276   9.291   1.248  0.0791 -0.3379 -0.8136
  996MOL0     O31375  11.409   9.300   1.297  0.5651 -0.2045 -0.0486
  996MOL0     C31376  11.422   9.293   1.443  0.4860 -0.4173 -0.1245
  996MOL0     C31377  11.408   9.150   1.494 -0.3635  0.7924  0.1129
  996MOL0     C31378  11.535   9.072   1.459  0.3043  0.3806  0.3208
  996MOL0     C31379  11.604   9.019   1.594  0.6665 -0.8643 -0.3544
  996MOL0     C31380  11.694   8.893   1.588  1.0885 -0.3523 -0.3088
  996MOL0     C31381  11.641   8.761   1.532 -0.4639  0.0391 -0.4013
  996MOL0     C31382  11.512   8.712   1.610 -0.3575  0.0823 -0.8608
  996MOL0     C31383  11.475   8.567   1.576 -0.2775  0.5986  1.1554
  996MOL0    Cl31384  11.473   8.523   1.396  0.0980 -0.2492  0.3018
  996MOL0     C31385  11.255   9.285   1.106 -0.1106 -0.2666 -0.4689
  996MOL0     C31386  11.127   9.275   1.057  0.4359  0.3527  0.4500
  996MOL0     O31387  10.923   9.135   0.899 -0.1246 -0.0938 -0.5954
  996MOL0     C31388  10.608   9.311   0.973 -0.4036 -0.4804  0.8678
  996MOL0     C31389  10.480   9.311   0.920 -0.6303  0.2870 -0.5019
  996MOL0     N31390  10.025   9.555   0.281 -0.0042 -1.2726  0.3081
  996MOL0     N31391  10.011   9.665   0.211 -0.3244 -0.1040 -0.1733
  996MOL0     C31392   9.706  10.652   0.203 -0.7704 -0.8069 -0.1908
  996MOL0     C31393   9.719  10.792   0.210 -0.2508 -0.6457 -0.3699
  996MOL0     C31394   9.649  11.230   0.320  0.3876 -0.7272  0.3870
  996MOL0     C31395   9.509  11.257   0.305 -0.0477 -0.7761  0.1504
  996MOL0     C31396   9.457  11.381   0.327  0.1186  0.1185 -0.4911
  996MOL0     C31397   9.542  11.488   0.372  0.2647 -1.8385  0.0991
  996MOL0     O31398   9.500  11.618   0.396 -0.0492  0.1579 -0.1697
  996MOL0     C31399   9.365  11.659   0.378 -0.3501  0.3212 -0.1868
  996MOL0     C31400   9.331  11.665   0.228  0.0706  0.0490  0.4079
  996MOL0     C31401   9.202  11.751   0.202  1.0544  0.3020  0.0500
  996MOL0     C31402   9.184  11.768   0.053 -0.7638 -0.2878  0.0844
  996MOL0     C31403   9.077  11.868   0.024  0.9614 -0.0623  0.5292
  996MOL0     C31404   8.987  11.935  -0.021  1.5619 -0.5758  0.8213
  996MOL0     C31405   9.676  11.463   0.390 -0.1541 -0.4964  0.8820
  996MOL0     C31406   9.729  11.342   0.358  0.8552  0.2278 -0.3507
  996MOL0     H31407   9.448  10.853   0.411  0.1181 -2.6351  1.4688
  996MOL0     H31408   9.433  10.625   0.397 -0.4539  1.4784  0.2886
  996MOL0     H31409   9.797  10.404   0.232  0.2246  3.0631 -2.6055
  996MOL0     H31410   9.670  10.389   0.101  0.7454 -0.8328  0.4054
  996MOL0     H31411   9.576  10.201   0.243 -0.8288 -1.9656  0.8460
  996MOL0     H31412   9.710  10.228   0.361  1.5358  2.2047 -1.5930
  996MOL0     H31413   9.742  10.132   0.070  0.1421 -1.4526 -0.6242
  996MOL0     H31414   9.721  10.023   0.205 -0.0148  0.7692  0.8626
  996MOL0     H31415   9.956  10.210   0.219 -1.2276  1.2734 -2.4425
  996MOL0     H31416   9.915  10.082   0.336 -0.4771  2.3806  1.1054
  996MOL0     H31417  10.019  10.061   0.056 -0.7400 -1.1602 -1.4804
  996MOL0     H31418   9.927   9.930   0.124 -2.5450  0.2527  2.9622
  996MOL0     H31419  10.094   9.899   0.294 -0.6965 -1.5244 -2.0799
  996MOL0     H31420  10.179  10.047   0.273  0.9135 -0.1502  0.7194
  996MOL0     H31421  10.255   9.974   0.049 -1.5893 -2.9266 -3.9252
  996MOL0     H31422  10.317   9.891   0.183 -0.5319 -1.8569 -1.0416
  996MOL0     H31423  10.240   9.729  -0.019 -1.1728  3.9913 -3.6153
  996MOL0     H31424  10.085   9.804   0.009 -0.0169  1.6584  0.6949
  996MOL0     H31425  10.319   9.547   0.159 -1.6237 -3.6176 -3.4121
  996MOL0     H31426  10.233   9.307   0.242  3.2589 -0.5915  0.9469
  996MOL0     H31427  10.097   9.316   0.361  1.6103  1.3853  1.2982
  996MOL0     H31428  10.357   9.456   0.407 -0.7962 -0.5517 -1.0513
  996MOL0     H31429  10.353   9.285   0.437 -1.4171 -1.1887  2.6642
  996MOL0     H31430  10.163   9.481   0.573 -2.7174 -0.4932 -1.0559
  996MOL0     H31431  10.151   9.306   0.576  0.9872  0.0814  1.7733
  996MOL0     H31432  10.302   9.487   0.736 -1.0860 -0.9496  0.5667
  996MOL0     H31433  10.429   9.418   0.625 -0.0720 -0.7482 -1.8294
  996MOL0     H31434  10.532   9.128   0.647  3.0896 -0.0133  0.0755
  996MOL0     H31435  10.740   9.098   0.737  1.5949 -0.3084  0.5470
  996MOL0     H31436  10.934   9.306   1.332 -0.0124 -3.5757  1.1101
  996MOL0     H31437  11.165   9.315   1.436  1.7588  4.0952 -0.7118
  996MOL0     H31438  11.357   9.360   1.500  0.4145 -1.4210  1.0288
  996MOL0     H31439  11.521   9.336   1.463 -1.1217  3.3974  0.6623
  996MOL0     H31440  11.326   9.101   1.441 -0.6165 -0.5214  1.6414
  996MOL0     H31441  11.381   9.160   1.600 -0.3105  1.2467  0.0858
  996MOL0     H31442  11.612   9.122   1.399  1.9351 -1.8009  0.4385
  996MOL0     H31443  11.513   8.986   1.394  1.1672  0.0638  0.4311
  996MOL0     H31444  11.669   9.096   1.636 -2.1424 -0.9193  4.9140
  996MOL0     H31445  11.517   9.003   1.658  0.8967 -0.3462  0.0931
  996MOL0     H31446  11.734   8.878   1.689  0.8544 -0.7625 -0.2752
  996MOL0     H31447  11.786   8.920   1.535  1.9890  3.0847  2.5679
  996MOL0     H31448  11.715   8.681   1.530  0.5538  0.9013  0.9274
  996MOL0     H31449  11.615   8.782   1.428 -0.4662  2.0346 -0.0301
  996MOL0     H31450  11.522   8.727   1.718  0.3865  2.2230 -1.1851
  996MOL0     H31451  11.422   8.767   1.580 -0.8752  0.2162  0.8055
  996MOL0     H31452  11.376   8.546   1.619  0.1679 -1.5477  1.2435
  996MOL0     H31453  11.544   8.498   1.626  0.6240  1.8531  1.6791
  996MOL0     H31454  11.346   9.286   1.047  0.7830 -1.9382  0.7961
  996MOL0     H31455  11.100   9.267   0.952 -1.4074 -0.0633  0.9287
  996MOL0     H31456  10.617   9.376   1.059  0.1759 -0.3916  0.7424
  996MOL0     H31457  10.412   9.358   0.991 -0.9975 -4.2607  2.5685
  996MOL0     H31458   9.785  10.598   0.152 -2.2845 -0.2939 -3.3269
  996MOL0     H31459   9.801  10.828   0.148 -0.2932 -0.3386 -0.2494
  996MOL0     H31460   9.444  11.175   0.278 -2.3096  0.3649  1.8024
  996MOL0     H31461   9.352  11.385   0.302  0.2572  0.0534 -1.1072
  996MOL0     H31462   9.359  11.757   0.427  3.1824 -0.8902  3.1962
  996MOL0     H31463   9.299  11.594   0.436  1.6129 -0.7490  0.9515
  996MOL0     H31464   9.417  11.718   0.185  0.2621 -2.0787 -2.0432
  996MOL0     H31465   9.317  11.563   0.191  1.5662 -0.2596  0.6248
  996MOL0     H31466   9.200  11.855   0.237 -1.1262  1.0286 -1.9502
  996MOL0     H31467   9.123  11.691   0.247 -0.1539  1.5674 -0.3029
  996MOL0     H31468   9.275  11.821   0.023 -0.8659 -0.9878 -1.5719
  996MOL0     H31469   9.180  11.672   0.002  1.8597 -0.4224 -0.0132
  996MOL0     H31470   8.902  11.972  -0.076  1.9624 -2.5786 -1.3336
  996MOL0     H31471   9.738  11.540   0.436  0.8699 -0.5817 -0.3057
  996MOL0     H31472   9.836  11.343   0.376  0.7600  0.7699  0.2279
  997MOL0     O31473  11.176   2.070   0.244  0.0347  0.0428 -0.0885
  997MOL0     C31474  11.054   2.111   0.254  0.5181  0.0114 -1.2111
  997MOL0     O31475  10.984   2.201   0.171 -0.6742  0.5991  0.5758
  997MOL0     C31476  11.035   2.260   0.059 -0.8242 -0.0142  0.0148
  997MOL0     C31477  11.173   2.278   0.025  0.2576  0.2600 -0.1029
  997MOL0     C31478  11.210   2.356  -0.083  0.7144  0.5699  0.5472
  997MOL0     C31479  11.117   2.420  -0.170  0.1138  0.2738  0.1722
  997MOL0     O31480  11.155   2.488  -0.282 -1.0088  0.5243  0.4460
  997MOL0     C31481  11.091   2.615  -0.325 -0.0940 -0.7049  0.2363
  997MOL0     C31482  11.100   2.630  -0.478  0.5926 -0.3440 -0.3519
  997MOL0     C31483  11.240   2.635  -0.532  0.9155  0.2490  0.9533
  997MOL0     C31484  11.255   2.684  -0.676  0.1667 -0.1396 -0.6188
  997MOL0     C31485  11.401   2.675  -0.723  1.0254  0.3132 -0.9289
  997MOL0     C31486  11.491   2.773  -0.654 -0.8924 -0.3965  0.0298
  997MOL0     C31487  11.628   2.780  -0.709  0.4239 -0.1575 -0.5678
  997MOL0     C31488  11.644   2.844  -0.847 -0.5120  0.4335  0.0095
  997MOL0     N31489  11.596   2.985  -0.859  0.1022 -0.6293 -0.2720
  997MOL0     C31490  11.639   3.094  -0.784 -1.1974  0.5365  0.4361
  997MOL0     C31491  11.580   3.200  -0.835  0.2076  0.1543  0.0782
  997MOL0     C31492  11.594   3.334  -0.784  0.0286  0.8791  0.5293
  997MOL0     C31493  11.721   3.406  -0.832  0.2679  0.9069 -0.2664
  997MOL0     C31494  11.850   3.345  -0.764  0.8712 -0.3048 -0.2347
  997MOL0     C31495  11.978   3.409  -0.821  1.0994  0.4571 -0.4460
  997MOL0     O31496  12.089   3.391  -0.726  0.5452  0.1397  0.1544
  997MOL0     C31497  12.205   3.337  -0.775  0.1245 -0.1333 -0.4886
  997MOL0     C31498  12.322   3.364  -0.708  0.4169  0.3825  0.4305
  997MOL0     C31499  12.442   3.312  -0.750 -0.0619 -1.2531 -0.2296
  997MOL0     C31500  12.453   3.230  -0.866  0.1932  0.8161 -0.4852
  997MOL0     C31501  12.572   3.160  -0.908 -0.0327 -0.2261 -0.6385
  997MOL0     O31502  12.679   3.182  -0.831  0.1391 -0.5460 -0.1260
  997MOL0     C31503  12.804   3.122  -0.857 -1.2463 -0.0644 -0.0281
  997MOL0     C31504  12.901   3.140  -0.762  0.2242  0.1396  0.3520
  997MOL0     C31505  13.037   3.096  -0.783  0.7476 -0.8221 -0.5417
  997MOL0     C31506  13.080   3.031  -0.893  0.0941  0.0841 -0.2468
  997MOL0     O31507  13.209   3.008  -0.925  0.7377 -0.1111 -0.3972
  997MOL0     C31508  13.303   3.001  -0.820 -0.5265 -0.8709 -0.6176
  997MOL0     C31509  13.446   2.971  -0.861  0.0462  0.1990 -0.3297
  997MOL0     C31510  13.539   3.102  -0.874  0.6833  0.3729 -0.1088
  997MOL0     C31511  13.689   3.077  -0.909  0.2721  0.5922 -0.2649
  997MOL0     C31512  13.782   3.068  -0.789  0.0298 -0.9318  0.3705
  997MOL0     C31513  13.930   3.028  -0.825  0.2043 -0.0216  0.5651
  997MOL0     C31514  14.005   3.149  -0.877  0.1908 -0.5713  0.0076
  997MOL0     C31515  14.160   3.129  -0.868  0.5114 -0.1670  0.2856
  997MOL0    Cl31516  14.253   3.273  -0.836  0.0659 -0.1681  0.4987
  997MOL0     C31517  12.983   3.019  -0.995 -0.4068  0.2294 -1.1917
  997MOL0     C31518  12.849   3.063  -0.974  0.1302  0.0036  0.2372
  997MOL0     O31519  12.561   3.071  -0.994  0.1854 -0.5881 -0.3873
  997MOL0     C31520  12.335   3.207  -0.939  0.1875 -0.0995 -0.0578
  997MOL0     C31521  12.217   3.269  -0.901  0.2941 -0.4730 -0.4516
  997MOL0     N31522  11.523   3.169  -0.953 -0.2508  0.3438 -0.2079
  997MOL0     N31523  11.538   3.040  -0.973  0.2485  0.9972 -0.6708
  997MOL0     C31524  10.981   2.403  -0.137  1.1391 -0.0210  0.4480
  997MOL0     C31525  10.940   2.319  -0.028 -1.9754  0.0492 -0.3351
  997MOL0     C31526  10.988   2.081   0.384 -0.4785  0.2827  0.1193
  997MOL0     C31527  10.865   2.139   0.407  0.1316  0.3849  0.7120
  997MOL0     C31528  10.812   2.118   0.535  0.1590  0.3691 -0.0043
  997MOL0     C31529  10.872   2.039   0.635  0.0557 -0.3559  0.7114
  997MOL0     O31530  10.815   2.007   0.749 -0.3992 -0.0325 -0.2197
  997MOL0     C31531  10.700   1.929   0.745 -0.3976  0.3740 -0.0247
  997MOL0     C31532  10.680   1.874   0.881  1.5238 -0.0023 -0.4188
  997MOL0     C31533  10.789   1.767   0.901 -0.1675 -0.7040 -0.1306
  997MOL0     C31534  10.768   1.656   1.014  0.3765  0.2485  0.3863
  997MOL0     C31535  10.635   1.604   0.993 -0.5689 -0.5982 -0.3907
  997MOL0     C31536  10.522   1.569   0.985 -0.4792 -0.5183  0.0723
  997MOL0     C31537  10.999   1.993   0.606 -1.0447  0.1469  0.2576
  997MOL0     C31538  11.056   2.002   0.477  0.0178  0.4149  0.6221
  997MOL0     H31539  11.240   2.224   0.092 -1.4269 -0.1501  1.3059
  997MOL0     H31540  11.316   2.366  -0.103  1.0487 -2.1708  0.5833
  997MOL0     H31541  11.157   2.694  -0.289  0.6746 -1.0108 -0.4807
  997MOL0     H31542  10.991   2.633  -0.285  0.6354 -0.8791  2.2951
  997MOL0     H31543  11.050   2.725  -0.498 -2.6785 -1.7565  0.3438
  997MOL0     H31544  11.050   2.545  -0.525  0.0984 -1.4575  2.0100
  997MOL0     H31545  11.279   2.535  -0.508 -0.3939 -0.4417  0.3360
  997MOL0     H31546  11.308   2.697  -0.473  1.9679  1.1340 -1.0880
  997MOL0     H31547  11.187   2.634  -0.746  0.4384  1.3447 -1.9832
  997MOL0     H31548  11.224   2.788  -0.682 -4.6312 -1.4038 -3.3627
  997MOL0     H31549  11.398   2.700  -0.830 -0.9971  1.4890 -0.6525
  997MOL0     H31550  11.449   2.580  -0.699  1.8956  1.2059  1.0461
  997MOL0     H31551  11.490   2.738  -0.550 -2.0845 -2.2242 -0.5443
  997MOL0     H31552  11.458   2.877  -0.658 -0.9107 -0.4301 -1.7709
  997MOL0     H31553  11.687   2.824  -0.628 -0.4670  1.8267 -0.9502
  997MOL0     H31554  11.650   2.672  -0.703 -2.4317 -0.9683  7.7242
  997MOL0     H31555  11.589   2.788  -0.924 -1.3925  2.3706 -0.8693
  997MOL0     H31556  11.752   2.842  -0.865 -0.2252  0.5873  1.6220
  997MOL0     H31557  11.711   3.085  -0.703  1.4498  3.7845 -1.2970
  997MOL0     H31558  11.598   3.327  -0.675  0.3071 -4.2672  0.4377
  997MOL0     H31559  11.510   3.403  -0.798  0.2675  0.8927 -1.1320
  997MOL0     H31560  11.709   3.514  -0.820  1.1496  1.3037 -2.4480
  997MOL0     H31561  11.727   3.388  -0.939 -0.9398  2.0720 -0.5477
  997MOL0     H31562  11.834   3.351  -0.656 -0.8630 -2.1860 -0.3257
  997MOL0     H31563  11.862   3.237  -0.771  1.3156 -0.2971  0.3563
  997MOL0     H31564  11.958   3.516  -0.809 -4.2734 -0.6150  4.4552
  997MOL0     H31565  12.000   3.378  -0.924  2.7926 -2.6807  0.7148
  997MOL0     H31566  12.326   3.419  -0.615 -2.8881 -0.5780  1.2518
  997MOL0     H31567  12.520   3.306  -0.675 -0.0881 -1.2492 -0.2027
  997MOL0     H31568  12.865   3.194  -0.674 -0.3729  2.3051 -1.1347
  997MOL0     H31569  13.103   3.111  -0.698 -1.1532 -0.7716  1.0200
  997MOL0     H31570  13.273   2.915  -0.760  0.7092 -2.1761 -1.7945
  997MOL0     H31571  13.305   3.090  -0.757  0.7491 -0.4491 -1.2304
  997MOL0     H31572  13.438   2.907  -0.949  0.6652  3.3161 -2.8382
  997MOL0     H31573  13.494   2.917  -0.779 -1.6295  2.9579  2.7469
  997MOL0     H31574  13.536   3.166  -0.785  3.1035 -0.6775  0.8270
  997MOL0     H31575  13.495   3.160  -0.955  2.2573  1.2288 -0.3981
  997MOL0     H31576  13.698   2.979  -0.958 -2.7297  0.5897 -1.0389
  997MOL0     H31577  13.728   3.153  -0.977  1.3543  0.3716  0.0887
  997MOL0     H31578  13.749   2.982  -0.730 -1.0816  0.8280  2.4611
  997MOL0     H31579  13.788   3.159  -0.728  1.2881 -1.5635  1.2540
  997MOL0     H31580  13.932   2.944  -0.894  2.5232 -0.1057  0.6514
  997MOL0     H31581  13.986   2.990  -0.739  1.8122 -2.5641 -1.4581
  997MOL0     H31582  13.970   3.175  -0.977  0.5975 -2.8538 -0.7873
  997MOL0     H31583  13.989   3.232  -0.808 -0.7813 -0.2756 -0.5581
  997MOL0     H31584  14.189   3.095  -0.968  2.6650  1.0797  0.4194
  997MOL0     H31585  14.187   3.048  -0.800  0.7444 -0.7143 -0.4447
  997MOL0     H31586  12.995   2.971  -1.092 -4.0485  1.2357 -2.3315
  997MOL0     H31587  12.777   3.035  -1.050  1.9617 -0.6273 -1.3670
  997MOL0     H31588  12.334   3.141  -1.025 -2.5574 -1.3295  0.7674
  997MOL0     H31589  12.139   3.239  -0.970  0.5917 -0.5318 -0.7663
  997MOL0     H31590  10.903   2.448  -0.198 -1.2861 -0.2901  3.1341
  997MOL0     H31591  10.834   2.318  -0.003 -2.1856  2.0460 -1.0292
  997MOL0     H31592  10.814   2.217   0.351 -0.9835  0.5505  1.8931
  997MOL0     H31593  10.717   2.167   0.550  0.2727  1.3954 -2.2874
  997MOL0     H31594  10.708   1.843   0.678  1.4207  1.1460 -0.8635
  997MOL0     H31595  10.617   1.997   0.721 -0.1346  1.6098  2.3202
  997MOL0     H31596  10.689   1.954   0.956 -1.9161 -2.2693  2.7150
  997MOL0     H31597  10.574   1.855   0.897  1.7205  0.4089  1.8289
  997MOL0     H31598  10.888   1.814   0.914 -1.6403  2.0056  2.5219
  997MOL0     H31599  10.806   1.711   0.808 -0.3345  0.8737 -1.1539
  997MOL0     H31600  10.844   1.580   0.997 -1.1276 -1.2091 -0.1560
  997MOL0     H31601  10.782   1.708   1.109 -0.4858  0.9921  0.1288
  997MOL0     H31602  10.419   1.539   0.989 -0.8728  0.2690 -2.4005
  997MOL0     H31603  11.045   1.931   0.682 -1.2076 -0.9907 -0.5392
  997MOL0     H31604  11.155   1.959   0.461 -0.1724  0.0939  0.3126
  998MOL0     O31605   1.977  10.877   3.847 -0.5241  0.1126 -0.5542
  998MOL0     C31606   1.992  10.760   3.829 -0.9679 -0.4897  0.2164
  998MOL0     O31607   1.929  10.663   3.900 -0.0749  0.5216  0.6413
  998MOL0     C31608   1.848  10.714   3.997  0.8985 -0.4479  0.2727
  998MOL0     C31609   1.864  10.709   4.125 -0.2488  0.2587 -0.7296
  998MOL0     C31610   1.774  10.772   4.210 -0.6120 -0.3916  0.3708
  998MOL0     C31611   1.662  10.843   4.163  0.5887 -0.4196  0.2084
  998MOL0     O31612   1.570  10.909   4.238  0.2303 -0.3638 -0.0185
  998MOL0     C31613   1.592  10.909   4.379  0.8158 -0.0328  0.7569
  998MOL0     C31614   1.489  11.004   4.445  0.0532 -0.6109  0.3122
  998MOL0     C31615   1.491  11.008   4.597 -0.1830  0.1787 -0.2392
  998MOL0     C31616   1.368  11.095   4.646 -0.5235  1.2948  0.2091
  998MOL0     C31617   1.368  11.097   4.804 -0.2207  0.0168  0.3426
  998MOL0     C31618   1.289  11.214   4.871  0.3647  0.8331 -0.2287
  998MOL0     C31619   1.380  11.264   4.991 -0.2657  0.1410  0.2309
  998MOL0     C31620   1.320  11.376   5.064  0.0774  0.3053  1.1850
  998MOL0     N31621   1.402  11.385   5.186  0.1770  0.1064 -0.5773
  998MOL0     C31622   1.530  11.424   5.202 -0.8423 -0.3906  0.3769
  998MOL0     C31623   1.540  11.448   5.332  0.6053 -0.2345  0.5807
  998MOL0     C31624   1.655  11.503   5.408  0.0344 -0.3607  0.8439
  998MOL0     C31625   1.747  11.406   5.479  0.5827 -0.0605 -0.6109
  998MOL0     C31626   1.696  11.354   5.611 -0.6562  0.3232  0.0674
  998MOL0     C31627   1.792  11.259   5.675  0.3926  0.6090  0.5620
  998MOL0     O31628   1.802  11.139   5.591  0.9137 -0.6068  0.3848
  998MOL0     C31629   1.925  11.079   5.567 -0.1600 -0.0731 -0.2182
  998MOL0     C31630   1.987  11.032   5.676 -0.5557 -0.1890 -0.0672
  998MOL0     C31631   2.108  10.960   5.661  0.4814  0.4738  0.3204
  998MOL0     C31632   2.167  10.952   5.540 -0.3479  0.5470 -1.1177
  998MOL0     C31633   2.295  10.875   5.522 -0.3685 -1.7059 -0.0190
  998MOL0     O31634   2.359  10.821   5.627 -0.1842 -0.1463  0.1304
  998MOL0     C31635   2.465  10.736   5.618 -0.2878 -0.3866  0.3604
  998MOL0     C31636   2.455  10.624   5.523 -0.9479 -0.3952  0.2218
  998MOL0     C31637   2.567  10.555   5.495 -0.7951  0.1118 -0.2635
  998MOL0     C31638   2.691  10.574   5.567  0.2005  0.0493 -0.1883
  998MOL0     O31639   2.791  10.486   5.528  0.6141 -1.0224 -0.3203
  998MOL0     C31640   2.920  10.500   5.586 -0.8465  0.2133 -0.5128
  998MOL0     C31641   2.996  10.375   5.545  0.0329 -0.4588  0.5974
  998MOL0     C31642   2.955  10.239   5.610 -0.2908 -0.2936  0.6949
  998MOL0     C31643   3.048  10.127   5.548  0.1071  0.8401  1.2857
  998MOL0     C31644   3.004   9.987   5.593 -0.4072 -0.7135  0.1706
  998MOL0     C31645   3.110   9.889   5.551  0.0146 -0.6190  0.4239
  998MOL0     C31646   3.080   9.748   5.577  0.2672  1.3881  0.0647
  998MOL0     C31647   3.197   9.664   5.557  0.5743  0.8592 -0.1013
  998MOL0    Cl31648   3.158   9.495   5.616  0.2310 -0.1385  0.0069
  998MOL0     C31649   2.689  10.675   5.668 -0.7962  0.0587 -0.3135
  998MOL0     C31650   2.582  10.752   5.692 -0.4953 -0.0015  0.5289
  998MOL0     O31651   2.330  10.861   5.406  0.2251 -0.2781 -0.3500
  998MOL0     C31652   2.091  10.988   5.424 -0.0300  0.2342  0.9378
  998MOL0     C31653   1.970  11.061   5.433 -0.7263  0.5000 -0.5433
  998MOL0     N31654   1.422  11.400   5.389 -0.6356  1.0370 -0.1820
  998MOL0     N31655   1.343  11.359   5.305  0.4223  0.3419  1.3478
  998MOL0     C31656   1.648  10.853   4.026 -0.4517  0.2476 -0.4273
  998MOL0     C31657   1.735  10.788   3.946 -0.7225 -0.4027  0.5631
  998MOL0     C31658   2.086  10.715   3.717  0.2688 -0.4310 -0.8287
  998MOL0     C31659   2.107  10.577   3.708  0.2331 -0.3008  1.0488
  998MOL0     C31660   2.182  10.520   3.613  0.1277  0.2929  0.0621
  998MOL0     C31661   2.235  10.594   3.507  0.6973 -0.2454 -0.2663
  998MOL0     O31662   2.274  10.512   3.402  0.8824 -0.5534 -1.2193
  998MOL0     C31663   2.375  10.553   3.307 -0.3242  1.0384 -0.8231
  998MOL0     C31664   2.313  10.501   3.170 -0.4903  0.5665  1.2743
  998MOL0     C31665   2.363  10.350   3.143 -0.3654 -0.5768  0.2039
  998MOL0     C31666   2.329  10.309   3.008 -0.7527  0.2560  0.4153
  998MOL0     C31667   2.199  10.355   2.959  1.2281  0.2820 -0.2542
  998MOL0     C31668   2.080  10.375   2.938  0.0152  0.2158  0.3384
  998MOL0     C31669   2.230  10.733   3.513  0.1150 -0.4628  0.0861
  998MOL0     C31670   2.159  10.799   3.617 -0.7525 -0.0417 -0.2275
  998MOL0     H31671   1.950  10.654   4.162  0.3769 -2.0005 -4.8897
  998MOL0     H31672   1.787  10.760   4.317  0.7004  0.6629  0.3509
  998MOL0     H31673   1.691  10.933   4.420 -0.5643  2.1574  3.1184
  998MOL0     H31674   1.571  10.819   4.438 -0.1692  2.1087  3.9187
  998MOL0     H31675   1.392  10.971   4.406  1.4911  0.3037 -4.6826
  998MOL0     H31676   1.519  11.102   4.406  0.4992 -0.3922  1.1781
  998MOL0     H31677   1.587  11.051   4.627  1.3101 -2.0070 -1.6418
  998MOL0     H31678   1.482  10.902   4.622 -1.6735 -0.3630 -2.7794
  998MOL0     H31679   1.380  11.196   4.605 -0.5031  2.4766  2.8980
  998MOL0     H31680   1.273  11.048   4.622  1.2037 -2.5305  0.1550
  998MOL0     H31681   1.474  11.104   4.830  0.5283  0.9366 -2.5170
  998MOL0     H31682   1.346  10.998   4.844 -1.3178  0.2362  0.3046
  998MOL0     H31683   1.192  11.168   4.889  0.9148 -0.7275 -1.0721
  998MOL0     H31684   1.287  11.302   4.807  0.8604  1.8047  1.0494
  998MOL0     H31685   1.391  11.180   5.060  1.6913  1.2525  1.3645
  998MOL0     H31686   1.470  11.304   4.945 -1.6938  1.3923 -1.6173
  998MOL0     H31687   1.216  11.353   5.088  0.0233 -0.1119  0.5722
  998MOL0     H31688   1.315  11.477   5.021  3.1903  1.2350  2.7330
  998MOL0     H31689   1.607  11.435   5.126  0.1397  2.7766  1.6326
  998MOL0     H31690   1.614  11.574   5.480 -2.3878  0.5722 -1.3098
  998MOL0     H31691   1.714  11.562   5.337 -0.9578  1.8840  1.8275
  998MOL0     H31692   1.838  11.462   5.501 -0.4234  0.7778  1.7409
  998MOL0     H31693   1.763  11.325   5.407  1.6791  1.1573 -1.7783
  998MOL0     H31694   1.677  11.434   5.683  0.8415 -0.4309  1.3743
  998MOL0     H31695   1.604  11.302   5.585 -1.4219  1.5132  0.3444
  998MOL0     H31696   1.751  11.239   5.774 -0.2396  0.2813  0.2408
  998MOL0     H31697   1.889  11.305   5.696  1.3865 -1.5792  1.0068
  998MOL0     H31698   1.940  11.035   5.774  3.6609  2.2151  2.2404
  998MOL0     H31699   2.158  10.913   5.745 -0.0589  0.6389  0.7470
  998MOL0     H31700   2.366  10.603   5.464 -1.6273 -0.4976  1.2683
  998MOL0     H31701   2.564  10.481   5.415  0.3666  1.4870 -1.6583
  998MOL0     H31702   2.913  10.504   5.695 -0.7260 -1.2939 -0.4289
  998MOL0     H31703   2.961  10.582   5.527 -2.6341 -0.0534 -2.2300
  998MOL0     H31704   3.104  10.383   5.560  0.5689 -0.9892 -2.3764
  998MOL0     H31705   2.980  10.355   5.439 -1.6883 -0.7210  0.8742
  998MOL0     H31706   2.847  10.222   5.609 -0.6435  1.5546 -1.7295
  998MOL0     H31707   2.985  10.244   5.715  0.6899  2.3071  0.3674
  998MOL0     H31708   3.028  10.126   5.441  1.1717  0.9168  1.0720
  998MOL0     H31709   3.154  10.154   5.546 -0.0165  2.8059 -5.8439
  998MOL0     H31710   2.908   9.960   5.548 -0.6940  0.8526 -0.2004
  998MOL0     H31711   2.983   9.981   5.700  0.5701 -1.5779  0.3351
  998MOL0     H31712   3.208   9.907   5.596 -0.9118 -0.9322  2.6708
  998MOL0     H31713   3.116   9.887   5.441 -1.3372 -2.3471  0.3335
  998MOL0     H31714   3.053   9.738   5.682 -0.6390 -3.9612 -0.3978
  998MOL0     H31715   2.998   9.706   5.519 -0.0442  0.7290  0.9587
  998MOL0     H31716   3.276   9.704   5.622  0.9587  0.5300 -0.3540
  998MOL0     H31717   3.230   9.667   5.452 -0.1336  0.4814 -0.3369
  998MOL0     H31718   2.776  10.698   5.729  2.5601 -1.4785 -4.0959
  998MOL0     H31719   2.598  10.835   5.760  1.8699  1.4937 -1.6418
  998MOL0     H31720   2.115  10.948   5.326 -0.1280  1.4221  0.4077
  998MOL0     H31721   1.910  11.087   5.347 -0.9036 -0.1075 -0.6093
  998MOL0     H31722   1.561  10.913   3.998 -0.1728  0.6346 -0.4714
  998MOL0     H31723   1.707  10.784   3.841  0.7172 -3.4562  0.2100
  998MOL0     H31724   2.048  10.514   3.774 -1.7405  1.2931  0.9004
  998MOL0     H31725   2.188  10.413   3.600  1.8409  0.4027 -0.2621
  998MOL0     H31726   2.469  10.501   3.329 -1.6980 -1.0265  0.6723
  998MOL0     H31727   2.384  10.661   3.311 -0.8435  1.0509  1.2198
  998MOL0     H31728   2.205  10.503   3.186 -0.4705  0.2413  1.4629
  998MOL0     H31729   2.340  10.563   3.084  1.0885 -1.2251  0.3935
  998MOL0     H31730   2.296  10.289   3.205 -0.1272 -2.2003 -1.0874
  998MOL0     H31731   2.464  10.317   3.170 -2.7525 -4.8305  6.2150
  998MOL0     H31732   2.408  10.361   2.952  1.8663 -0.6368  3.0260
  998MOL0     H31733   2.331  10.200   2.998 -0.7847  0.2789  0.1216
  998MOL0     H31734   1.977  10.396   2.916 -0.3774 -3.5143 -2.2662
  998MOL0     H31735   2.269  10.784   3.426  1.1439 -0.4581  0.5393
  998MOL0     H31736   2.152  10.906   3.632 -3.3846  0.0589 -1.6563
  999MOL0     O31737   9.353   2.055   7.827  0.3101 -0.2133  0.2836
  999MOL0     C31738   9.466   2.090   7.832 -0.4209 -0.2774  0.4014
  999MOL0     O31739   9.567   2.033   7.764 -0.8456  0.2779  0.1986
  999MOL0     C31740   9.571   1.908   7.719  0.8596  1.0018  0.6404
  999MOL0     C31741   9.700   1.877   7.686  0.1401  0.8854  0.2391
  999MOL0     C31742   9.731   1.742   7.649 -0.2292 -0.6799 -1.1480
  999MOL0     C31743   9.632   1.646   7.633  0.2686 -1.1466  0.6289
  999MOL0     O31744   9.660   1.515   7.592  0.2262  0.0914 -0.1148
  999MOL0     C31745   9.764   1.494   7.488  0.1199 -0.2636 -0.8842
  999MOL0     C31746   9.788   1.348   7.474  0.6216  0.1645 -0.7379
  999MOL0     C31747   9.681   1.281   7.371 -0.2482  0.9095  1.1985
  999MOL0     C31748   9.706   1.297   7.217 -0.7178 -0.3562  0.6949
  999MOL0     C31749   9.634   1.420   7.154 -0.9653 -0.2821  0.5597
  999MOL0     C31750   9.626   1.413   7.007  0.6840  0.5258 -0.6867
  999MOL0     C31751   9.499   1.346   6.945 -0.5348 -1.3607  0.1938
  999MOL0     C31752   9.372   1.392   7.001  1.0742 -0.5742 -0.9329
  999MOL0     N31753   9.255   1.349   6.926  0.3684  0.8035 -0.0920
  999MOL0     C31754   9.218   1.403   6.805  0.8355  0.4002 -0.2991
  999MOL0     C31755   9.114   1.335   6.758 -0.0084  0.4671 -0.1668
  999MOL0     C31756   9.031   1.375   6.635 -0.3170 -0.0324 -0.3336
  999MOL0     C31757   8.964   1.501   6.657  0.7076 -0.0854 -0.7672
  999MOL0     C31758   8.906   1.549   6.519 -0.4184 -0.7835 -0.4645
  999MOL0     C31759   8.879   1.703   6.530 -0.9757 -0.7012  0.3047
  999MOL0     O31760   8.783   1.736   6.631  0.1663  0.1929  0.0174
  999MOL0     C31761   8.642   1.750   6.601 -1.1187  0.1462 -0.2552
  999MOL0     C31762   8.565   1.734   6.484 -0.0985  0.0690  0.1103
  999MOL0     C31763   8.423   1.765   6.474 -0.1511  0.0793 -0.4133
  999MOL0     C31764   8.353   1.802   6.595 -0.1610  0.5233  0.1103
  999MOL0     C31765   8.197   1.816   6.595 -0.9761  0.6191 -0.4638
  999MOL0     O31766   8.132   1.771   6.491  0.4989 -0.1411 -0.2030
  999MOL0     C31767   7.998   1.803   6.472  0.0851  0.5267 -0.7092
  999MOL0     C31768   7.961   1.756   6.349 -0.6958 -0.5275  0.3267
  999MOL0     C31769   7.840   1.772   6.295  0.2571  0.8669 -0.9908
  999MOL0     C31770   7.738   1.841   6.372 -0.5531  0.0855 -0.5720
  999MOL0     O31771   7.617   1.879   6.318 -0.5991 -0.0162  1.0144
  999MOL0     C31772   7.500   1.870   6.403  0.7944  0.1750  0.3126
  999MOL0     C31773   7.389   1.968   6.358  0.6691 -0.2060  0.5820
  999MOL0     C31774   7.356   1.930   6.220 -0.2841  0.1365  0.3711
  999MOL0     C31775   7.223   1.991   6.173 -0.6633  0.2004  0.1066
  999MOL0     C31776   7.214   1.980   6.026  0.2923 -0.5128  0.3431
  999MOL0     C31777   7.073   2.011   5.976  0.3231 -0.6518 -0.3259
  999MOL0     C31778   7.039   2.167   5.988 -1.6202 -0.4725  0.5590
  999MOL0     C31779   6.892   2.210   5.966  0.0262 -0.6538 -0.6523
  999MOL0    Cl31780   6.836   2.193   5.800  0.1431  0.1358  0.1928
  999MOL0     C31781   7.776   1.882   6.499 -0.9783  0.5512  0.0920
  999MOL0     C31782   7.897   1.859   6.558  0.4718  0.0348 -0.6200
  999MOL0     O31783   8.151   1.868   6.694 -0.3296 -0.1791 -0.2999
  999MOL0     C31784   8.432   1.825   6.709  0.4680  0.0707  0.3240
  999MOL0     C31785   8.572   1.805   6.707 -0.0602  0.1606  0.0867
  999MOL0     N31786   9.091   1.229   6.845 -0.5563  0.1767 -0.1780
  999MOL0     N31787   9.180   1.235   6.943  0.4906 -0.3659  0.1530
  999MOL0     C31788   9.498   1.678   7.667 -0.6861  0.2948 -0.8361
  999MOL0     C31789   9.461   1.806   7.702 -0.9409  0.2755 -0.0116
  999MOL0     C31790   9.481   2.226   7.882  0.4904 -0.5942  0.1096
  999MOL0     C31791   9.384   2.288   7.963 -0.7433 -1.2375 -0.4092
  999MOL0     C31792   9.396   2.424   8.006  0.8901 -0.1157  0.8521
  999MOL0     C31793   9.516   2.483   7.999 -0.2723 -0.3531 -1.1773
  999MOL0     O31794   9.539   2.611   8.038  0.3213 -0.6372 -0.2701
  999MOL0     C31795   9.481   2.703   7.950  1.2023 -0.8913 -0.5090
  999MOL0     C31796   9.463   2.838   8.019  0.3259  0.5215  0.3755
  999MOL0     C31797   9.392   2.929   7.921 -0.2665 -0.7804 -0.5189
  999MOL0     C31798   9.346   3.060   7.995  0.0962  0.9870  1.4729
  999MOL0     C31799   9.456   3.160   7.976  0.5592  0.5823 -0.5444
  999MOL0     C31800   9.551   3.231   7.952  0.1903 -0.1654  0.1343
  999MOL0     C31801   9.625   2.413   7.940 -0.0558 -0.3593 -0.4093
  999MOL0     C31802   9.608   2.293   7.874  0.8997  0.5999  0.6707
  999MOL0     H31803   9.776   1.952   7.707  1.0614 -0.4879  2.1341
  999MOL0     H31804   9.835   1.711   7.640  0.0167 -0.5296  0.7366
  999MOL0     H31805   9.853   1.534   7.538 -0.3617  0.4325 -0.5728
  999MOL0     H31806   9.754   1.547   7.393  0.6235  0.7480 -0.3954
  999MOL0     H31807   9.778   1.302   7.572  2.6883  1.3167  0.0869
  999MOL0     H31808   9.887   1.324   7.433  0.5460 -1.9486  0.2049
  999MOL0     H31809   9.582   1.311   7.407 -0.0896  0.4987  2.0183
  999MOL0     H31810   9.703   1.174   7.375  2.3129  1.3435  0.4455
  999MOL0     H31811   9.813   1.306   7.199 -0.6797  0.2934  1.2024
  999MOL0     H31812   9.663   1.209   7.168 -1.6169 -0.0570  0.9317
  999MOL0     H31813   9.690   1.509   7.184  0.8482 -0.9574 -0.6273
  999MOL0     H31814   9.535   1.426   7.200 -1.6106 -2.0875 -0.4889
  999MOL0     H31815   9.720   1.370   6.970 -0.2720 -2.7553  0.3030
  999MOL0     H31816   9.620   1.514   6.967 -1.5767 -0.2839 -2.6514
  999MOL0     H31817   9.502   1.358   6.836 -0.5973  1.5364  0.4469
  999MOL0     H31818   9.509   1.240   6.969  3.6940 -2.2472 -3.9889
  999MOL0     H31819   9.354   1.498   7.019  1.6347 -0.9075  2.3017
  999MOL0     H31820   9.360   1.340   7.097 -0.7835  1.4851  0.0340
  999MOL0     H31821   9.250   1.499   6.763 -1.8818  0.4068 -2.6499
  999MOL0     H31822   8.974   1.283   6.616  2.7312 -2.0310 -0.6285
  999MOL0     H31823   9.101   1.377   6.551 -0.1123 -0.3139 -0.1714
  999MOL0     H31824   9.029   1.574   6.705 -0.6322 -0.9093  2.5511
  999MOL0     H31825   8.892   1.485   6.738  1.1484  0.9770 -0.1467
  999MOL0     H31826   8.986   1.534   6.446  0.6384 -0.0147  0.4972
  999MOL0     H31827   8.818   1.494   6.483 -1.5469  0.5562  0.1717
  999MOL0     H31828   8.846   1.745   6.434 -2.5779 -1.8302  0.3158
  999MOL0     H31829   8.975   1.752   6.549 -0.1723  0.2648 -4.7854
  999MOL0     H31830   8.626   1.730   6.394  2.2884 -0.3111  1.6565
  999MOL0     H31831   8.362   1.753   6.386 -1.2869 -0.2662  0.3952
  999MOL0     H31832   8.035   1.700   6.293  0.7556  0.3735  1.2632
  999MOL0     H31833   7.817   1.738   6.194 -2.0560  0.5605 -0.4268
  999MOL0     H31834   7.526   1.895   6.506  0.1706 -2.3931  1.1801
  999MOL0     H31835   7.452   1.771   6.409  0.2132  0.5041  1.2630
  999MOL0     H31836   7.429   2.069   6.352  3.9867 -1.4552 -1.1102
  999MOL0     H31837   7.299   1.962   6.419  1.3323  2.4065  1.9431
  999MOL0     H31838   7.343   1.821   6.217  0.6177  0.0283 -1.0254
  999MOL0     H31839   7.441   1.959   6.157  1.0739 -1.4166  1.4043
  999MOL0     H31840   7.135   1.941   6.215  0.2551 -1.8286 -0.2587
  999MOL0     H31841   7.218   2.098   6.193  1.6890  0.6597 -1.4542
  999MOL0     H31842   7.234   1.876   6.000  1.1599 -0.5811  1.2104
  999MOL0     H31843   7.279   2.044   5.966 -1.5651 -0.3123 -1.5552
  999MOL0     H31844   7.010   1.942   6.032  0.3500 -0.8831 -0.5761
  999MOL0     H31845   7.062   1.984   5.870  0.7223  1.2613 -0.8928
  999MOL0     H31846   7.043   2.194   6.094  0.4461 -2.9090  1.2018
  999MOL0     H31847   7.094   2.226   5.914 -3.0642 -1.0977 -1.0822
  999MOL0     H31848   6.901   2.316   5.991  0.3430 -0.6406 -0.8164
  999MOL0     H31849   6.825   2.158   6.035 -0.5304 -1.0665 -1.4792
  999MOL0     H31850   7.714   1.942   6.565 -0.2382 -1.1709  2.4845
  999MOL0     H31851   7.928   1.917   6.644  1.2911  0.0200 -0.9015
  999MOL0     H31852   8.386   1.852   6.804 -2.5340  2.7142 -1.6891
  999MOL0     H31853   8.632   1.833   6.793 -1.0031  2.3205  0.1107
  999MOL0     H31854   9.421   1.602   7.676  0.8542 -1.3052 -0.3552
  999MOL0     H31855   9.362   1.828   7.741 -0.0115  3.0830  0.9473
  999MOL0     H31856   9.288   2.243   7.987  0.4253 -3.7342 -0.1196
  999MOL0     H31857   9.320   2.467   8.071 -0.9948  0.9845 -1.8524
  999MOL0     H31858   9.382   2.665   7.921  0.0533  0.5707  1.2960
  999MOL0     H31859   9.528   2.711   7.851 -2.1264  3.7170 -2.0707
  999MOL0     H31860   9.394   2.827   8.103 -0.0743  3.5674  0.5413
  999MOL0     H31861   9.560   2.870   8.057  0.9029  1.4410 -1.7258
  999MOL0     H31862   9.308   2.887   7.865  0.3270 -0.7006 -1.4835
  999MOL0     H31863   9.458   2.957   7.839  0.7401 -0.6935  0.2915
  999MOL0     H31864   9.253   3.089   7.944  0.5838  1.7088  0.9740
  999MOL0     H31865   9.328   3.038   8.100  0.4596  3.4789  2.1154
  999MOL0     H31866   9.642   3.287   7.937 -0.9554  2.2129  1.3851
  999MOL0     H31867   9.721   2.464   7.947 -1.4422  2.7613 -2.1307
  999MOL0     H31868   9.695   2.259   7.818  2.1647  0.2776  2.7070
 1000MOL0     O31869   9.458   9.521  10.144  0.6791  0.1991  0.0141
 1000MOL0     C31870   9.478   9.592  10.240 -1.0984  0.8810  0.5926
 1000MOL0     O31871   9.573   9.566  10.342 -0.2545  1.0356  0.7791
 1000MOL0     C31872   9.659   9.456  10.341 -1.1625  0.4911  0.2256
 1000MOL0     C31873   9.791   9.473  10.382 -0.1612  0.5003 -1.0188
 1000MOL0     C31874   9.880   9.374  10.390 -0.2640  0.1375 -0.6662
 1000MOL0     C31875   9.830   9.243  10.381 -0.0151 -0.3714  0.1700
 1000MOL0     O31876   9.901   9.133  10.389  0.2160  0.5765 -0.5388
 1000MOL0     C31877  10.038   9.134  10.344 -0.8960 -0.8452 -0.3531
 1000MOL0     C31878  10.084   8.995  10.335 -0.6381  0.0339 -0.5364
 1000MOL0     C31879  10.126   8.933  10.469 -0.0772 -0.0629 -0.0105
 1000MOL0     C31880  10.148   8.783  10.450 -0.0030  0.4058 -0.1196
 1000MOL0     C31881  10.218   8.718  10.568 -0.0944  0.0426  0.4888
 1000MOL0     C31882  10.231   8.562  10.553  0.6821 -0.5408  0.3148
 1000MOL0     C31883  10.332   8.502  10.655 -0.5601  0.3165 -0.4306
 1000MOL0     C31884  10.384   8.369  10.596  0.2347 -0.1309 -0.0670
 1000MOL0     N31885  10.276   8.268  10.605  0.6702 -1.0279 -0.4194
 1000MOL0     C31886  10.248   8.194  10.720 -0.3886  0.4954 -0.3082
 1000MOL0     C31887  10.145   8.120  10.674  0.4431 -0.2602 -0.1922
 1000MOL0     C31888  10.058   8.021  10.753 -0.0158  0.4089  0.2694
 1000MOL0     C31889  10.066   7.875  10.706  0.0457  0.7144  0.4263
 1000MOL0     C31890   9.978   7.785  10.794  0.4705 -0.4054  0.3260
 1000MOL0     C31891   9.982   7.642  10.752  0.5235 -0.6633 -0.9044
 1000MOL0     O31892  10.108   7.584  10.790  0.1090  0.3822 -0.5806
 1000MOL0     C31893  10.134   7.570  10.928  0.0259 -0.3382  0.5890
 1000MOL0     C31894  10.269   7.553  10.957 -0.6160 -0.3886 -0.2448
 1000MOL0     C31895  10.326   7.540  11.073  0.1261  0.3978 -0.0526
 1000MOL0     C31896  10.236   7.566  11.184 -0.8376  0.9274 -0.4177
 1000MOL0     C31897  10.293   7.589  11.314 -0.3836 -0.3091  0.3472
 1000MOL0     O31898  10.424   7.635  11.315 -1.0442 -0.3796 -0.8920
 1000MOL0     C31899  10.493   7.639  11.426 -0.6576  0.8412  1.0309
 1000MOL0     C31900  10.563   7.519  11.452 -0.6264  1.0154  0.3876
 1000MOL0     C31901  10.630   7.506  11.571  0.2875  0.1764 -0.7019
 1000MOL0     C31902  10.651   7.622  11.661  0.0544  1.2489 -0.8657
 1000MOL0     O31903  10.720   7.607  11.772 -0.0133  0.3446 -0.1192
 1000MOL0     C31904  10.728   7.714  11.871 -0.8895  0.4609 -0.4822
 1000MOL0     C31905  10.827   7.829  11.849  0.0104  0.0076 -0.3893
 1000MOL0     C31906  10.822   7.942  11.954  0.6462 -0.2257 -0.1039
 1000MOL0     C31907  10.694   8.026  11.944  0.4121  0.0586 -0.5693
 1000MOL0     C31908  10.703   8.156  12.020  0.8437 -0.9015  0.6267
 1000MOL0     C31909  10.581   8.245  11.982 -0.5034 -0.0143 -0.2113
 1000MOL0     C31910  10.584   8.381  12.064  0.5564 -0.0617 -0.2529
 1000MOL0     C31911  10.543   8.510  11.979 -0.1270  0.5510  0.3027
 1000MOL0    Cl31912  10.387   8.490  11.904 -0.7721  0.0940  0.0535
 1000MOL0     C31913  10.585   7.738  11.624  0.1136  0.4626 -0.0398
 1000MOL0     C31914  10.505   7.742  11.514  0.3731 -0.2405 -0.2498
 1000MOL0     O31915  10.229   7.550  11.410 -0.0993 -0.0791  0.2966
 1000MOL0     C31916  10.092   7.569  11.159 -1.9737 -1.4601 -0.7522
 1000MOL0     C31917  10.037   7.561  11.029  0.2788 -1.2371  0.6339
 1000MOL0     N31918  10.119   8.144  10.548  0.4744  0.1618  0.4644
 1000MOL0     N31919  10.196   8.237  10.498 -0.6029  1.1276 -0.7867
 1000MOL0     C31920   9.699   9.219  10.346  0.5959  0.5547 -0.8479
 1000MOL0     C31921   9.614   9.319  10.328  0.5606  0.0902 -0.1439
 1000MOL0     C31922   9.372   9.688  10.245  0.1063  0.5121  0.7230
 1000MOL0     C31923   9.377   9.792  10.343 -0.4467  0.4428  0.1374
 1000MOL0     C31924   9.283   9.894  10.344  0.0956 -0.7695  0.2230
 1000MOL0     C31925   9.171   9.900  10.269  0.2172  0.7649  0.2634
 1000MOL0     O31926   9.081  10.006  10.267  0.2744 -0.3625 -0.5512
 1000MOL0     C31927   9.059  10.100  10.375 -0.3388  0.2971 -0.2493
 1000MOL0     C31928   8.906  10.125  10.395  0.9270 -0.5933  0.2431
 1000MOL0     C31929   8.843  10.208  10.285 -0.1458 -0.6061  0.7790
 1000MOL0     C31930   8.884  10.360  10.276  0.0476  0.0912 -0.4634
 1000MOL0     C31931   8.823  10.415  10.153  0.1192  0.1424  0.3874
 1000MOL0     C31932   8.752  10.470  10.070 -0.4573 -0.7819  1.8989
 1000MOL0     C31933   9.159   9.789  10.170  0.1227 -0.4570  0.1921
 1000MOL0     C31934   9.259   9.688  10.158  0.7080 -0.3625  0.0096
 1000MOL0     H31935   9.833   9.573  10.392 -1.0826  0.6305  3.1676
 1000MOL0     H31936   9.988   9.388  10.393 -0.4601  1.7267  0.1937
 1000MOL0     H31937  10.106   9.185  10.414 -0.3586 -0.9860 -0.7688
 1000MOL0     H31938  10.055   9.187  10.250  0.4488  0.1161  0.3906
 1000MOL0     H31939  10.174   8.995  10.273 -1.9260 -3.3812 -2.7136
 1000MOL0     H31940  10.006   8.930  10.294 -2.2435  1.2904  0.3576
 1000MOL0     H31941  10.060   8.954  10.554  2.0299 -1.8771  2.2135
 1000MOL0     H31942  10.224   8.969  10.502 -0.0011 -2.2603  2.5048
 1000MOL0     H31943  10.049   8.737  10.450  0.8869 -1.6279  0.5768
 1000MOL0     H31944  10.196   8.759  10.355  0.3932  1.6562 -0.2638
 1000MOL0     H31945  10.177   8.746  10.666  1.4743 -2.7608  2.0733
 1000MOL0     H31946  10.322   8.750  10.573  0.7192 -2.6291  3.3960
 1000MOL0     H31947  10.265   8.544  10.450  4.1377  0.0271  1.2132
 1000MOL0     H31948  10.140   8.504  10.568 -1.6545  2.6872 -0.2193
 1000MOL0     H31949  10.413   8.575  10.665 -0.6015  0.3221 -0.1385
 1000MOL0     H31950  10.287   8.488  10.753 -0.7530 -0.4636 -0.6263
 1000MOL0     H31951  10.462   8.329  10.661  0.4825 -1.1617 -0.9700
 1000MOL0     H31952  10.420   8.378  10.494  1.1511  0.3349  0.2899
 1000MOL0     H31953  10.304   8.193  10.813  0.4665 -1.6448 -0.7817
 1000MOL0     H31954   9.954   8.054  10.746  0.0346  0.2434 -1.7496
 1000MOL0     H31955  10.078   8.018  10.861 -2.3648 -0.1159  0.7476
 1000MOL0     H31956  10.169   7.839  10.710 -0.5601 -1.2730 -0.6288
 1000MOL0     H31957  10.030   7.879  10.603  3.0497 -1.9539 -0.9127
 1000MOL0     H31958  10.010   7.800  10.897 -1.2158  1.3331  0.6600
 1000MOL0     H31959   9.878   7.832  10.794  1.0787  1.1260 -2.3755
 1000MOL0     H31960   9.971   7.638  10.643  1.7697  1.8902 -1.1842
 1000MOL0     H31961   9.899   7.592  10.802  2.5157 -2.0099  1.2435
 1000MOL0     H31962  10.346   7.560  10.880  2.2496  1.8918  2.6015
 1000MOL0     H31963  10.432   7.517  11.078 -0.2233 -1.2833  0.5513
 1000MOL0     H31964  10.573   7.441  11.377 -2.5378  1.9036 -0.8621
 1000MOL0     H31965  10.665   7.407  11.598  0.0111  0.5382  1.1216
 1000MOL0     H31966  10.749   7.658  11.962  2.2426 -1.0357 -1.9577
 1000MOL0     H31967  10.623   7.745  11.880 -1.4614 -1.6946  0.9120
 1000MOL0     H31968  10.792   7.875  11.757 -1.3565 -0.5308 -0.1617
 1000MOL0     H31969  10.930   7.797  11.834  0.0652 -0.0258  0.0468
 1000MOL0     H31970  10.912   8.001  11.933 -0.0946  0.0728 -2.9711
 1000MOL0     H31971  10.838   7.909  12.057 -1.2712  0.1774  0.3683
 1000MOL0     H31972  10.680   8.058  11.840  0.1889 -2.5288 -1.4021
 1000MOL0     H31973  10.614   7.957  11.971 -1.0563  2.1787  0.8301
 1000MOL0     H31974  10.790   8.215  11.990 -1.6416  2.4361 -0.6311
 1000MOL0     H31975  10.693   8.148  12.128  1.3306  3.2664  1.1386
 1000MOL0     H31976  10.488   8.192  12.007 -1.8020  2.4815  0.5140
 1000MOL0     H31977  10.575   8.281  11.879 -0.9481  1.4866  0.3113
 1000MOL0     H31978  10.511   8.369  12.145  1.9702 -0.5462  1.0038
 1000MOL0     H31979  10.682   8.393  12.110 -0.6629  0.8142  2.3122
 1000MOL0     H31980  10.610   8.518  11.893  1.4706 -1.3360  1.2732
 1000MOL0     H31981  10.543   8.603  12.036 -2.2210  0.1679  1.0168
 1000MOL0     H31982  10.588   7.829  11.682 -0.8351 -0.8128  2.1554
 1000MOL0     H31983  10.460   7.837  11.486  0.4171  0.3707  1.6160
 1000MOL0     H31984  10.019   7.588  11.237 -1.2557 -0.6532 -0.2542
 1000MOL0     H31985   9.929   7.574  11.024  0.6228  2.7577  0.7126
 1000MOL0     H31986   9.687   9.113  10.332  2.0298 -0.1652  2.2474
 1000MOL0     H31987   9.515   9.288  10.298  0.7193 -0.0434 -0.5382
 1000MOL0     H31988   9.449   9.784  10.424 -1.1331 -1.2431  0.6309
 1000MOL0     H31989   9.288   9.975  10.416 -3.5085  1.0342 -1.3485
 1000MOL0     H31990   9.121  10.188  10.361  1.1635 -0.9832 -2.1973
 1000MOL0     H31991   9.090  10.048  10.467  0.7984 -0.8367 -1.2254
 1000MOL0     H31992   8.857  10.030  10.416 -1.8238  0.5738 -0.5104
 1000MOL0     H31993   8.885  10.192  10.479 -2.1813 -1.5708  0.3664
 1000MOL0     H31994   8.736  10.201  10.304 -0.6414  0.9281 -1.1735
 1000MOL0     H31995   8.878  10.163  10.192  2.7201 -1.0365  1.9614
 1000MOL0     H31996   8.857  10.413  10.368 -1.3449  1.3821 -1.5729
 1000MOL0     H31997   8.991  10.377  10.261  0.8643 -0.4323  3.6169
 1000MOL0     H31998   8.680  10.514  10.005  1.7671  2.3331  1.3248
 1000MOL0     H31999   9.084   9.799  10.092  2.4240  1.7177 -1.9373
 1000MOL0     H32000   9.246   9.616  10.078  0.1920 -0.9524  0.6096
 1001MOL0     O32001  11.343   2.409   5.218  0.6036  0.1232 -0.7966
 1001MOL0     C32002  11.361   2.510   5.289 -0.4033 -0.5179 -0.1673
 1001MOL0     O32003  11.366   2.510   5.432 -0.1563  0.7183  0.8212
 1001MOL0     C32004  11.377   2.387   5.497 -0.0194 -0.1114  0.6454
 1001MOL0     C32005  11.300   2.362   5.612 -0.4190 -0.5265  0.8902
 1001MOL0     C32006  11.325   2.259   5.696  0.6470 -0.3975 -0.2746
 1001MOL0     C32007  11.411   2.156   5.662  0.9360 -0.0660  0.9784
 1001MOL0     O32008  11.412   2.033   5.721  0.0423  0.5609 -0.4751
 1001MOL0     C32009  11.362   2.026   5.855  0.1021  0.2636  0.2997
 1001MOL0     C32010  11.413   1.911   5.934 -0.1088  0.5309 -1.0798
 1001MOL0     C32011  11.367   1.781   5.861  0.9637 -0.6034  0.0700
 1001MOL0     C32012  11.413   1.653   5.922  0.3283 -0.6217  0.2811
 1001MOL0     C32013  11.384   1.532   5.840 -0.2797 -0.0378  0.2367
 1001MOL0     C32014  11.238   1.501   5.837 -0.7458 -0.0954 -0.7598
 1001MOL0     C32015  11.210   1.359   5.798  0.9528 -0.0514 -0.7814
 1001MOL0     C32016  11.051   1.328   5.806 -0.0856 -0.1871 -0.2870
 1001MOL0     N32017  11.012   1.264   5.936 -0.2900  0.5279  0.5586
 1001MOL0     C32018  10.892   1.195   5.969 -0.3606 -0.5413 -0.2759
 1001MOL0     C32019  10.916   1.141   6.095  0.3148  0.0144  1.2119
 1001MOL0     C32020  10.806   1.089   6.178 -0.4602 -1.1473 -0.5282
 1001MOL0     C32021  10.838   0.941   6.212 -0.5529 -0.5396 -0.5896
 1001MOL0     C32022  10.739   0.877   6.315 -0.7680  0.1809  0.2096
 1001MOL0     C32023  10.776   0.718   6.323 -0.3316  0.4532 -0.4309
 1001MOL0     O32024  10.912   0.697   6.356 -0.0027 -0.7200  0.4730
 1001MOL0     C32025  10.960   0.724   6.477  0.9632 -1.4690  0.9904
 1001MOL0     C32026  11.103   0.739   6.497 -0.5083 -0.0697  0.2913
 1001MOL0     C32027  11.163   0.774   6.615  0.6889 -0.5333  1.0693
 1001MOL0     C32028  11.075   0.801   6.724  0.0382 -0.5699 -0.5559
 1001MOL0     C32029  11.118   0.824   6.870  0.9050  0.1619 -0.3307
 1001MOL0     O32030  11.249   0.862   6.868  0.2180  0.5104 -0.7673
 1001MOL0     C32031  11.299   0.872   6.992 -1.0850 -0.9844  0.6962
 1001MOL0     C32032  11.300   0.755   7.075 -0.6203  0.0230 -1.0285
 1001MOL0     C32033  11.379   0.746   7.184 -0.5597 -0.5721 -0.3703
 1001MOL0     C32034  11.481   0.840   7.211 -0.1283  0.4651  1.2401
 1001MOL0     O32035  11.567   0.841   7.313 -0.0006  0.1847 -0.1963
 1001MOL0     C32036  11.632   0.720   7.334 -0.4152 -0.9499 -0.2212
 1001MOL0     C32037  11.717   0.710   7.464 -0.4528  0.3674 -0.2163
 1001MOL0     C32038  11.653   0.595   7.563  0.5562  0.7651 -0.0152
 1001MOL0     C32039  11.697   0.612   7.702  0.2048  0.2883  0.6741
 1001MOL0     C32040  11.631   0.493   7.783 -0.8147  0.8914  0.6799
 1001MOL0     C32041  11.685   0.507   7.927 -0.7493  0.3103  0.4664
 1001MOL0     C32042  11.602   0.422   8.008 -0.6551 -0.1802 -1.0258
 1001MOL0     C32043  11.668   0.385   8.144  0.6425 -0.4517  1.3056
 1001MOL0    Cl32044  11.580   0.240   8.196  0.3464  0.1311 -0.0105
 1001MOL0     C32045  11.485   0.956   7.126  0.0772 -0.7189  0.5993
 1001MOL0     C32046  11.396   0.965   7.019 -0.3402 -0.6328 -0.0676
 1001MOL0     O32047  11.049   0.814   6.967  0.7634 -0.0215 -0.5161
 1001MOL0     C32048  10.944   0.791   6.707 -0.4435  0.6979  0.0177
 1001MOL0     C32049  10.883   0.755   6.587 -0.2190  0.0751 -0.2669
 1001MOL0     N32050  11.047   1.168   6.133 -0.2727 -0.1155  0.1906
 1001MOL0     N32051  11.102   1.243   6.038 -1.0574  0.3147  0.7588
 1001MOL0     C32052  11.482   2.175   5.548 -0.0092  0.0268  0.4895
 1001MOL0     C32053  11.474   2.293   5.472 -0.0033  0.1112  1.0127
 1001MOL0     C32054  11.380   2.645   5.226  0.0376 -0.2724  0.2518
 1001MOL0     C32055  11.367   2.672   5.088 -0.9977  0.1166  0.4429
 1001MOL0     C32056  11.410   2.795   5.034  0.0158  0.3013 -0.0597
 1001MOL0     C32057  11.467   2.898   5.117 -0.0786  0.1519 -0.3663
 1001MOL0     O32058  11.506   3.023   5.072 -0.3213  0.4926 -0.1370
 1001MOL0     C32059  11.508   3.057   4.939 -0.4743  0.2334 -0.2629
 1001MOL0     C32060  11.573   3.193   4.938  0.1563 -0.3954 -0.3510
 1001MOL0     C32061  11.570   3.260   4.794  0.9774  0.8680  0.1003
 1001MOL0     C32062  11.645   3.176   4.699  0.0795  0.3944 -0.0174
 1001MOL0     C32063  11.789   3.180   4.723  0.0484  0.1600  0.2395
 1001MOL0     C32064  11.911   3.199   4.728 -0.8547  0.5431 -0.5791
 1001MOL0     C32065  11.479   2.874   5.250  0.3880 -0.0978 -0.1053
 1001MOL0     C32066  11.436   2.749   5.299  0.3485  0.0062  0.0440
 1001MOL0     H32067  11.222   2.434   5.635  0.4924  0.7743  0.0697
 1001MOL0     H32068  11.253   2.254   5.777  0.1882 -2.1120 -0.7484
 1001MOL0     H32069  11.253   2.034   5.852 -0.0044  0.5514  2.8283
 1001MOL0     H32070  11.399   2.116   5.904  2.1532  1.0232 -2.3977
 1001MOL0     H32071  11.388   1.909   6.041  1.4854  0.5926 -0.6846
 1001MOL0     H32072  11.522   1.920   5.932  0.0728 -1.3331 -1.3034
 1001MOL0     H32073  11.404   1.787   5.759  1.0161  3.3945  0.1756
 1001MOL0     H32074  11.259   1.772   5.846  0.9780 -1.2982  0.3086
 1001MOL0     H32075  11.519   1.677   5.916 -0.0715  0.9192 -1.9523
 1001MOL0     H32076  11.385   1.641   6.027 -0.9425 -0.4984 -0.0230
 1001MOL0     H32077  11.430   1.437   5.865 -3.1940 -1.5108  0.5000
 1001MOL0     H32078  11.436   1.559   5.748  1.2237 -0.8826  0.8174
 1001MOL0     H32079  11.176   1.557   5.767  1.1264  0.4239 -2.0726
 1001MOL0     H32080  11.198   1.522   5.937  1.8716  1.2087  0.1142
 1001MOL0     H32081  11.249   1.363   5.695  1.2121  2.5895 -0.6478
 1001MOL0     H32082  11.272   1.293   5.858  1.1637  1.9992  1.4091
 1001MOL0     H32083  11.038   1.264   5.718  0.3147  2.5960 -2.5215
 1001MOL0     H32084  10.992   1.417   5.784  2.9310  1.0529 -5.0075
 1001MOL0     H32085  10.799   1.196   5.914 -1.0016  1.4291  0.7594
 1001MOL0     H32086  10.707   1.109   6.136 -0.8731 -1.0266  0.4591
 1001MOL0     H32087  10.802   1.147   6.271 -0.6879  0.4155 -1.4675
 1001MOL0     H32088  10.938   0.954   6.255 -1.1641  0.0384  0.7016
 1001MOL0     H32089  10.843   0.874   6.125  0.0179 -1.2040 -0.0573
 1001MOL0     H32090  10.737   0.926   6.413 -2.6713 -0.2727  0.4430
 1001MOL0     H32091  10.639   0.884   6.270 -1.2993  1.5959  1.5337
 1001MOL0     H32092  10.741   0.673   6.229 -0.2935 -1.2333  0.3351
 1001MOL0     H32093  10.720   0.658   6.394  4.5016 -2.1166  1.6566
 1001MOL0     H32094  11.168   0.746   6.410  0.7576 -0.4553  1.1749
 1001MOL0     H32095  11.270   0.791   6.626  0.7295  1.4468 -1.3281
 1001MOL0     H32096  11.240   0.667   7.056  1.6824 -1.8281 -0.2310
 1001MOL0     H32097  11.373   0.660   7.249  3.0189  1.4052  3.0040
 1001MOL0     H32098  11.698   0.710   7.247  2.2122  2.6925  1.1015
 1001MOL0     H32099  11.558   0.639   7.335  0.1608 -1.5330 -1.7701
 1001MOL0     H32100  11.708   0.802   7.521 -2.6228 -0.4351  0.8181
 1001MOL0     H32101  11.820   0.690   7.432  0.7321 -1.5111  4.1085
 1001MOL0     H32102  11.681   0.495   7.529 -2.3700  0.2233 -1.1570
 1001MOL0     H32103  11.544   0.599   7.560  0.5606  0.1729 -1.6321
 1001MOL0     H32104  11.806   0.616   7.708  0.4964 -0.9920 -2.1154
 1001MOL0     H32105  11.662   0.705   7.747 -0.5486 -1.0210  2.9760
 1001MOL0     H32106  11.656   0.396   7.740  0.1690  2.2337 -2.0062
 1001MOL0     H32107  11.522   0.503   7.775 -0.8816 -0.3591 -0.3017
 1001MOL0     H32108  11.697   0.608   7.967  2.4419  1.6665 -3.2111
 1001MOL0     H32109  11.788   0.472   7.914 -0.8289  0.0202  0.6085
 1001MOL0     H32110  11.503   0.465   8.022  0.0872  0.9354  1.5202
 1001MOL0     H32111  11.594   0.324   7.961  3.4778 -0.6769 -1.0936
 1001MOL0     H32112  11.657   0.471   8.211 -2.0234 -0.4546  0.9733
 1001MOL0     H32113  11.770   0.346   8.132  0.7692  0.2796 -0.1433
 1001MOL0     H32114  11.555   1.033   7.160  0.4976 -1.5648  1.7014
 1001MOL0     H32115  11.386   1.047   6.950 -3.0459 -0.8134  0.0123
 1001MOL0     H32116  10.870   0.807   6.784 -1.6203  0.5907 -1.0645
 1001MOL0     H32117  10.775   0.753   6.591 -0.2148 -0.9269 -0.3330
 1001MOL0     H32118  11.545   2.093   5.516 -0.6121  0.1748 -1.2114
 1001MOL0     H32119  11.549   2.300   5.394 -2.1883  0.4555 -1.1605
 1001MOL0     H32120  11.335   2.595   5.019 -0.7052 -0.4493  0.9247
 1001MOL0     H32121  11.404   2.815   4.928  0.0211 -0.4616 -0.2108
 1001MOL0     H32122  11.410   3.048   4.889 -1.1578 -0.4829  1.1488
 1001MOL0     H32123  11.565   2.979   4.887 -2.0261 -1.2637  0.1642
 1001MOL0     H32124  11.516   3.254   5.008  0.0109 -2.5395  1.5182
 1001MOL0     H32125  11.673   3.180   4.979  0.5778 -0.5987 -1.4069
 1001MOL0     H32126  11.614   3.360   4.796  2.7620  0.1314 -0.0868
 1001MOL0     H32127  11.465   3.280   4.774  0.1237  0.7055  3.8204
 1001MOL0     H32128  11.591   3.083   4.684 -0.0796 -0.1453  3.2350
 1001MOL0     H32129  11.644   3.234   4.606 -1.2631  2.4178  1.1626
 1001MOL0     H32130  12.013   3.232   4.729 -1.2395  1.7733  0.2611
 1001MOL0     H32131  11.534   2.946   5.309  1.2461  1.2188 -2.3766
 1001MOL0     H32132  11.446   2.723   5.404 -0.3950  2.2220  0.7023
 1002MOL0     O32133  10.537  10.295   7.323  0.1139 -0.5914  0.1505
 1002MOL0     C32134  10.516  10.384   7.408  0.6799 -0.0352  0.0743
 1002MOL0     O32135  10.603  10.481   7.446  0.1802  0.6715 -0.8138
 1002MOL0     C32136  10.729  10.467   7.395  0.8249  0.4084  0.3817
 1002MOL0     C32137  10.818  10.364   7.445 -0.4844  0.6457  0.5682
 1002MOL0     C32138  10.936  10.348   7.383  0.2114 -0.5409  0.6013
 1002MOL0     C32139  10.977  10.422   7.276 -1.3860 -0.7223  0.3576
 1002MOL0     O32140  11.102  10.392   7.228 -0.2606  0.6347  0.3333
 1002MOL0     C32141  11.119  10.342   7.089 -0.7016 -1.5449  0.6265
 1002MOL0     C32142  11.265  10.310   7.059 -0.8597 -0.4746 -0.2413
 1002MOL0     C32143  11.278  10.290   6.898 -0.4038 -0.0111 -0.1671
 1002MOL0     C32144  11.182  10.189   6.839  0.0414  0.2127 -0.0139
 1002MOL0     C32145  11.226  10.143   6.703  1.2162  0.7889 -0.0470
 1002MOL0     C32146  11.363  10.063   6.695  0.6052  0.7726  0.3858
 1002MOL0     C32147  11.370   9.936   6.779 -0.0551 -0.9209  0.8044
 1002MOL0     C32148  11.506   9.875   6.758  0.4106 -0.1482  1.1218
 1002MOL0     N32149  11.552   9.828   6.621 -0.3857 -0.1389  0.6148
 1002MOL0     C32150  11.683   9.844   6.583 -0.7496  0.6042 -0.5746
 1002MOL0     C32151  11.688   9.808   6.451  0.5780 -0.3754 -1.3743
 1002MOL0     C32152  11.813   9.813   6.373 -0.7927  0.2100 -0.3208
 1002MOL0     C32153  11.864   9.669   6.358 -1.0433  0.4918  0.8293
 1002MOL0     C32154  11.935   9.609   6.477 -0.1694 -0.0062  0.1730
 1002MOL0     C32155  11.985   9.470   6.447  0.0863 -0.9356 -0.0097
 1002MOL0     O32156  12.090   9.484   6.343  0.0874  0.1360  0.0123
 1002MOL0     C32157  12.215   9.536   6.363  1.0516 -0.7407  0.6002
 1002MOL0     C32158  12.312   9.553   6.257  0.3589  0.0466  0.0897
 1002MOL0     C32159  12.442   9.604   6.289  0.9141  0.1168  0.3656
 1002MOL0     C32160  12.481   9.648   6.418  0.6421  0.0701 -0.1555
 1002MOL0     C32161  12.622   9.688   6.453  0.5034  0.4408  0.2719
 1002MOL0     O32162  12.660   9.708   6.586  0.2283  0.6069  0.2301
 1002MOL0     C32163  12.783   9.770   6.616 -0.7298  0.1357  0.6303
 1002MOL0     C32164  12.827   9.752   6.751  0.1427 -0.8527  0.1081
 1002MOL0     C32165  12.948   9.824   6.794 -0.0187  0.4174 -0.3939
 1002MOL0     C32166  13.018   9.914   6.712 -0.0005  0.4865 -0.7167
 1002MOL0     O32167  13.140   9.963   6.738 -0.4546  0.3037 -0.1315
 1002MOL0     C32168  13.235   9.856   6.746  0.4530 -0.3081  0.3111
 1002MOL0     C32169  13.369   9.894   6.696  1.1698 -0.5459 -0.4253
 1002MOL0     C32170  13.459   9.772   6.733 -0.2917 -0.1194  0.8618
 1002MOL0     C32171  13.487   9.739   6.880 -0.0745 -0.1925  0.4290
 1002MOL0     C32172  13.612   9.656   6.903 -1.3655 -0.0479 -0.1327
 1002MOL0     C32173  13.618   9.519   6.848  0.7354 -0.3855  0.5535
 1002MOL0     C32174  13.762   9.464   6.826 -0.4685 -0.3601  0.2384
 1002MOL0     C32175  13.751   9.327   6.765 -0.1184 -0.1986 -0.5358
 1002MOL0    Cl32176  13.907   9.281   6.695 -0.5203 -0.2818  0.3375
 1002MOL0     C32177  12.977   9.925   6.575 -0.7466  0.3032 -0.4550
 1002MOL0     C32178  12.861   9.857   6.531 -0.3029 -0.0677  0.1333
 1002MOL0     O32179  12.703   9.674   6.363  0.3353 -0.0075  0.4902
 1002MOL0     C32180  12.392   9.629   6.524  0.1982 -0.2263  0.3032
 1002MOL0     C32181  12.262   9.576   6.493  0.2206  0.4413  0.4029
 1002MOL0     N32182  11.565   9.787   6.409  0.0386 -0.0469  0.2201
 1002MOL0     N32183  11.478   9.794   6.505 -0.8029  0.4749 -1.2468
 1002MOL0     C32184  10.899  10.524   7.226  0.3824 -1.1915 -0.2494
 1002MOL0     C32185  10.777  10.561   7.298  0.1244  0.3469  0.1132
 1002MOL0     C32186  10.386  10.390   7.486  0.0209 -0.0293  0.1299
 1002MOL0     C32187  10.324  10.509   7.542  0.5847  1.0582 -0.1062
 1002MOL0     C32188  10.213  10.502   7.614 -0.5999  0.3171  0.4233
 1002MOL0     C32189  10.144  10.376   7.625  0.5855 -0.7429  0.4183
 1002MOL0     O32190  10.031  10.364   7.708  0.3507 -0.8821  0.3918
 1002MOL0     C32191   9.977  10.482   7.774  0.3011 -0.4566  0.8565
 1002MOL0     C32192   9.864  10.441   7.860  0.2515  0.1357 -0.4130
 1002MOL0     C32193   9.818  10.552   7.958 -0.6643  0.2154  0.3139
 1002MOL0     C32194   9.760  10.667   7.891 -0.5339 -0.2045  0.9991
 1002MOL0     C32195   9.735  10.775   7.993  0.2583  0.7433 -0.0063
 1002MOL0     C32196   9.715  10.872   8.065 -0.4169  0.7485 -1.5736
 1002MOL0     C32197  10.203  10.265   7.572  0.7465  0.4796  0.3564
 1002MOL0     C32198  10.323  10.266   7.506  0.1029  0.0730 -0.3217
 1002MOL0     H32199  10.779  10.290   7.513 -1.1357 -1.4086 -1.8970
 1002MOL0     H32200  11.004  10.270   7.415 -0.2704 -0.0733  2.9825
 1002MOL0     H32201  11.084  10.420   7.022 -2.0957 -1.9836  0.8190
 1002MOL0     H32202  11.050  10.259   7.077 -3.7825  1.1172 -1.9851
 1002MOL0     H32203  11.295  10.227   7.123 -0.8679 -0.2644  0.0395
 1002MOL0     H32204  11.328  10.396   7.084 -2.2340  0.7915 -0.9071
 1002MOL0     H32205  11.381  10.260   6.878 -0.4689 -0.0962 -0.3789
 1002MOL0     H32206  11.270  10.389   6.851 -0.7125  0.5096  0.9536
 1002MOL0     H32207  11.166  10.106   6.908 -2.2766 -0.7675 -1.5884
 1002MOL0     H32208  11.086  10.238   6.820 -1.9153 -3.0740  0.6577
 1002MOL0     H32209  11.231  10.232   6.641  0.7233 -0.0914 -1.3775
 1002MOL0     H32210  11.154  10.071   6.662  3.7818 -2.8946  1.3657
 1002MOL0     H32211  11.450  10.128   6.707  1.4979  0.2863 -2.5247
 1002MOL0     H32212  11.369  10.029   6.591 -3.0686 -3.1101  1.1510
 1002MOL0     H32213  11.355   9.963   6.884 -3.4726  0.7920  0.0266
 1002MOL0     H32214  11.291   9.863   6.759  0.7451 -1.7276  0.5212
 1002MOL0     H32215  11.506   9.788   6.824  1.8442 -0.6735  0.4683
 1002MOL0     H32216  11.586   9.940   6.795  2.7557 -1.6437 -1.0044
 1002MOL0     H32217  11.764   9.873   6.650  0.0376 -1.9251 -0.3142
 1002MOL0     H32218  11.889   9.875   6.422 -0.6834  1.4665 -1.9828
 1002MOL0     H32219  11.790   9.871   6.283 -0.8703  4.1711  2.0173
 1002MOL0     H32220  11.917   9.678   6.263  0.0421  4.2295  1.6188
 1002MOL0     H32221  11.775   9.607   6.344 -0.3896  0.0793 -2.2097
 1002MOL0     H32222  12.022   9.668   6.508  1.7525 -2.3473 -0.4027
 1002MOL0     H32223  11.865   9.602   6.560  0.7918 -0.2809  0.9810
 1002MOL0     H32224  11.899   9.416   6.407 -0.9973  1.2174 -0.7730
 1002MOL0     H32225  12.026   9.413   6.531  1.2155 -2.9102 -1.8043
 1002MOL0     H32226  12.291   9.531   6.153  1.8427 -0.9383 -0.0393
 1002MOL0     H32227  12.517   9.601   6.210  3.4441 -2.7918  2.6652
 1002MOL0     H32228  12.777   9.696   6.829  0.8893 -2.8710 -0.8033
 1002MOL0     H32229  12.984   9.805   6.895 -0.8497  0.5444 -0.0663
 1002MOL0     H32230  13.196   9.760   6.711 -1.7071  0.4625  0.4786
 1002MOL0     H32231  13.254   9.854   6.853  0.4353  1.2988  0.3636
 1002MOL0     H32232  13.401   9.994   6.724 -3.0397  3.1148 -6.3487
 1002MOL0     H32233  13.370   9.896   6.587  2.0861  1.4412 -0.4114
 1002MOL0     H32234  13.557   9.787   6.685 -0.8205 -2.4760 -1.1841
 1002MOL0     H32235  13.411   9.687   6.685 -3.2130  2.1544 -0.5570
 1002MOL0     H32236  13.498   9.836   6.931  1.8144  1.2191 -2.4159
 1002MOL0     H32237  13.409   9.685   6.935  1.5222 -3.1024  0.0418
 1002MOL0     H32238  13.640   9.639   7.008  0.7106 -0.5826 -0.7294
 1002MOL0     H32239  13.697   9.715   6.871 -0.2172 -0.1058  2.5618
 1002MOL0     H32240  13.566   9.520   6.752  2.1787 -0.0205 -0.2578
 1002MOL0     H32241  13.578   9.453   6.925  3.0155 -0.5940  1.6396
 1002MOL0     H32242  13.822   9.532   6.764 -4.3995  0.6901 -2.7964
 1002MOL0     H32243  13.819   9.466   6.920  0.1977 -0.3416 -0.1605
 1002MOL0     H32244  13.677   9.317   6.686  0.4468  1.5181 -1.3107
 1002MOL0     H32245  13.732   9.266   6.854 -2.8841  2.3758  0.7817
 1002MOL0     H32246  13.038   9.995   6.519 -1.4125 -1.3574 -3.4471
 1002MOL0     H32247  12.820   9.876   6.433  1.2814  0.0633 -0.5319
 1002MOL0     H32248  12.409   9.680   6.619 -0.1164  2.4885 -0.9952
 1002MOL0     H32249  12.198   9.555   6.578  1.6092 -0.0151  1.3577
 1002MOL0     H32250  10.930  10.586   7.143  0.3103  2.3740  2.1583
 1002MOL0     H32251  10.724  10.647   7.259  0.5111 -0.0665 -1.4214
 1002MOL0     H32252  10.367  10.608   7.536  0.1394  1.4980  2.7006
 1002MOL0     H32253  10.168  10.591   7.659  0.3575  0.3590  1.3352
 1002MOL0     H32254   9.956  10.555   7.695  2.9684 -2.1165 -1.6291
 1002MOL0     H32255  10.045  10.522   7.849 -2.0148  1.3143  2.1187
 1002MOL0     H32256   9.776  10.407   7.804  1.1756  2.3159 -3.4475
 1002MOL0     H32257   9.899  10.357   7.920 -1.1140 -1.6298 -1.9585
 1002MOL0     H32258   9.905  10.585   8.015  0.0240 -4.1890  2.2023
 1002MOL0     H32259   9.754  10.496   8.027  0.3501 -0.1516  0.9714
 1002MOL0     H32260   9.822  10.718   7.817 -1.0129 -2.0994 -0.7904
 1002MOL0     H32261   9.665  10.643   7.842  0.3332  2.1216 -2.0875
 1002MOL0     H32262   9.697  10.960   8.124  0.0723  0.2834 -0.7205
 1002MOL0     H32263  10.164  10.169   7.605 -1.6098  2.2576  3.3014
 1002MOL0     H32264  10.373  10.174   7.474 -0.9354 -1.1286  1.3507
 1003MOL0     O32265   7.328   0.826   6.376 -0.2921 -0.1028 -0.1512
 1003MOL0     C32266   7.262   0.796   6.279  0.4374  0.3611 -0.8151
 1003MOL0     O32267   7.310   0.730   6.171  0.4315  0.4755  0.4429
 1003MOL0     C32268   7.441   0.688   6.158 -0.3252 -0.8877  0.1401
 1003MOL0     C32269   7.495   0.690   6.034 -1.3375 -0.3400  0.5047
 1003MOL0     C32270   7.628   0.661   6.004  0.4036 -0.7928 -0.9720
 1003MOL0     C32271   7.705   0.616   6.108  0.1485  0.3848 -0.6312
 1003MOL0     O32272   7.839   0.594   6.093  0.0409 -0.3848 -0.3840
 1003MOL0     C32273   7.889   0.549   5.964  0.0281  0.6348  0.7752
 1003MOL0     C32274   8.040   0.493   5.973  0.1744 -0.3959  0.3449
 1003MOL0     C32275   8.086   0.456   5.826 -0.3242  0.2568 -1.2176
 1003MOL0     C32276   8.144   0.585   5.763 -0.5121  0.3279  0.0791
 1003MOL0     C32277   8.230   0.561   5.634  0.5203  0.4716 -0.3161
 1003MOL0     C32278   8.145   0.524   5.524 -0.4805 -0.6527  1.0819
 1003MOL0     C32279   8.208   0.488   5.386  0.0343  0.4277 -1.3894
 1003MOL0     C32280   8.289   0.350   5.382 -0.5686  0.2801 -0.7980
 1003MOL0     N32281   8.214   0.233   5.343 -0.0467 -0.3885  0.5098
 1003MOL0     C32282   8.133   0.172   5.429  0.1312  0.8562  0.0501
 1003MOL0     C32283   8.083   0.077   5.350 -0.1298  0.7280  0.1050
 1003MOL0     C32284   7.962   0.004   5.392  0.4244  0.3754  0.5512
 1003MOL0     C32285   7.983  -0.134   5.462 -0.6883 -0.0412  0.3234
 1003MOL0     C32286   7.887  -0.238   5.416 -0.4919  0.6364  0.7938
 1003MOL0     C32287   7.747  -0.210   5.461 -0.2693  0.4735  0.0260
 1003MOL0     O32288   7.735  -0.219   5.602  0.1283 -0.5680  0.3210
 1003MOL0     C32289   7.606  -0.220   5.642  0.5698  0.7004 -0.4667
 1003MOL0     C32290   7.517  -0.111   5.615  0.5005  0.3242  0.5292
 1003MOL0     C32291   7.380  -0.126   5.653  0.1955  0.9074  0.4535
 1003MOL0     C32292   7.344  -0.232   5.744 -0.8303 -0.4001  0.4161
 1003MOL0     C32293   7.214  -0.251   5.804 -0.1040 -0.2109 -0.4072
 1003MOL0     O32294   7.126  -0.159   5.748  0.1363  0.5892  0.5559
 1003MOL0     C32295   6.986  -0.174   5.778 -0.8054 -1.3467  0.4230
 1003MOL0     C32296   6.928  -0.070   5.854 -0.4378 -0.3963 -0.2756
 1003MOL0     C32297   6.798  -0.087   5.896 -0.2656  0.2450 -0.2353
 1003MOL0     C32298   6.712  -0.197   5.865 -1.5988 -0.9638  0.4439
 1003MOL0     O32299   6.580  -0.190   5.908  0.8090  0.1114  0.4060
 1003MOL0     C32300   6.546  -0.313   5.970 -0.0178 -0.1041 -0.0220
 1003MOL0     C32301   6.442  -0.298   6.083 -0.3672 -0.2873 -0.2333
 1003MOL0     C32302   6.402  -0.442   6.132  0.9774  0.1309  1.4288
 1003MOL0     C32303   6.267  -0.442   6.213 -0.1484 -0.3317  0.1781
 1003MOL0     C32304   6.190  -0.566   6.179  0.9283 -0.2553 -0.1374
 1003MOL0     C32305   6.084  -0.543   6.074  0.2684 -0.8062  0.2184
 1003MOL0     C32306   6.023  -0.663   5.997 -0.3198 -0.8443 -0.2309
 1003MOL0     C32307   5.952  -0.758   6.084  0.9482  0.7930  0.3291
 1003MOL0    Cl32308   5.905  -0.900   5.972  0.3591  0.3704  0.1999
 1003MOL0     C32309   6.771  -0.289   5.776 -0.8054 -0.0675  0.2339
 1003MOL0     C32310   6.912  -0.283   5.742 -0.8090 -0.8525  0.3892
 1003MOL0     O32311   7.189  -0.345   5.883  1.1091 -0.3176  0.2786
 1003MOL0     C32312   7.441  -0.324   5.786 -0.4965  0.4830 -0.3766
 1003MOL0     C32313   7.566  -0.319   5.732 -0.1423 -0.9767 -0.2522
 1003MOL0     N32314   8.130   0.088   5.227  0.2691  0.4939  0.3503
 1003MOL0     N32315   8.223   0.175   5.225 -0.0736 -0.4678 -0.0359
 1003MOL0     C32316   7.658   0.610   6.233  0.3556 -0.2438  0.2362
 1003MOL0     C32317   7.525   0.653   6.264 -0.5395 -0.1202  0.2676
 1003MOL0     C32318   7.123   0.842   6.276  0.9487 -0.5938  1.2939
 1003MOL0     C32319   7.092   0.955   6.357  0.3319  0.3927  0.5322
 1003MOL0     C32320   6.962   1.002   6.360 -0.3977  0.5563 -0.4154
 1003MOL0     C32321   6.860   0.935   6.290 -0.5236 -0.1233  0.6959
 1003MOL0     O32322   6.729   0.959   6.300 -0.2223 -0.0013 -0.4307
 1003MOL0     C32323   6.680   1.017   6.427  0.3574  0.2078 -0.8311
 1003MOL0     C32324   6.536   0.965   6.427  0.3960  0.7207  0.3740
 1003MOL0     C32325   6.473   1.019   6.558 -0.3012 -0.4465 -0.2221
 1003MOL0     C32326   6.339   0.948   6.584  0.3426  0.3148  0.7727
 1003MOL0     C32327   6.238   0.972   6.477  0.1129  1.5974 -0.2799
 1003MOL0     C32328   6.161   0.979   6.384  0.5598 -0.3395 -0.3570
 1003MOL0     C32329   6.900   0.827   6.205  0.0901  0.6123 -0.1044
 1003MOL0     C32330   7.030   0.792   6.183  0.2671  0.1578 -0.4848
 1003MOL0     H32331   7.441   0.740   5.954  1.5994  1.5189 -0.4693
 1003MOL0     H32332   7.662   0.682   5.903  0.9419  4.0664 -0.0517
 1003MOL0     H32333   7.888   0.633   5.894 -1.2859 -0.4453 -0.5828
 1003MOL0     H32334   7.829   0.475   5.909  1.5318  0.8505 -1.2767
 1003MOL0     H32335   8.037   0.403   6.035  0.5362 -1.3744 -1.0348
 1003MOL0     H32336   8.103   0.573   6.013  1.0659 -0.4356 -0.9346
 1003MOL0     H32337   8.017   0.387   5.779  1.0037 -1.2125 -1.0982
 1003MOL0     H32338   8.167   0.383   5.837 -1.1977 -0.4553  1.1853
 1003MOL0     H32339   8.064   0.657   5.743 -0.4354 -0.0610 -1.7144
 1003MOL0     H32340   8.211   0.632   5.837  2.4949  0.5985 -2.6135
 1003MOL0     H32341   8.297   0.477   5.653 -0.0264  0.2737  0.7951
 1003MOL0     H32342   8.284   0.656   5.623  1.0142  0.4499  1.5487
 1003MOL0     H32343   8.078   0.609   5.509 -2.1635 -1.2719  4.2745
 1003MOL0     H32344   8.077   0.444   5.555  0.1017 -0.7554  2.1704
 1003MOL0     H32345   8.139   0.490   5.301  2.3648 -0.4777 -3.4012
 1003MOL0     H32346   8.273   0.571   5.357  2.6648 -0.8249  0.6319
 1003MOL0     H32347   8.349   0.325   5.471 -1.9196 -0.4727 -0.0729
 1003MOL0     H32348   8.373   0.368   5.314  3.8523  1.1207  4.1844
 1003MOL0     H32349   8.082   0.223   5.510 -0.2274  1.8814 -0.7987
 1003MOL0     H32350   7.894  -0.008   5.307  0.2348  3.1459  0.2190
 1003MOL0     H32351   7.899   0.068   5.455 -1.7265 -1.3846  0.2884
 1003MOL0     H32352   7.974  -0.116   5.570 -1.7705  3.2193 -0.2200
 1003MOL0     H32353   8.086  -0.165   5.445 -0.7737  0.8459 -2.0752
 1003MOL0     H32354   7.877  -0.241   5.307 -3.3698  2.0132  0.9072
 1003MOL0     H32355   7.927  -0.331   5.457  1.7307  1.2184  0.0703
 1003MOL0     H32356   7.688  -0.289   5.414  2.1551 -2.1907  1.1458
 1003MOL0     H32357   7.716  -0.110   5.430 -0.9239  0.3346  0.2303
 1003MOL0     H32358   7.547  -0.027   5.554 -0.9909 -0.7916 -1.8723
 1003MOL0     H32359   7.300  -0.064   5.614 -0.6119 -0.4321 -0.1092
 1003MOL0     H32360   6.989   0.015   5.886 -0.3516 -0.6838  0.3303
 1003MOL0     H32361   6.760  -0.025   5.976  1.8847 -0.6358  1.6044
 1003MOL0     H32362   6.637  -0.354   6.014 -1.4840  0.3106  3.7581
 1003MOL0     H32363   6.503  -0.380   5.894 -1.1918 -0.0805  0.5969
 1003MOL0     H32364   6.361  -0.245   6.031  0.9769  1.0014 -1.0843
 1003MOL0     H32365   6.493  -0.242   6.162 -0.8811  1.7116 -1.2426
 1003MOL0     H32366   6.488  -0.484   6.184  1.9725 -0.4581 -0.6041
 1003MOL0     H32367   6.387  -0.500   6.041 -3.6122  1.7326  0.8952
 1003MOL0     H32368   6.307  -0.441   6.314  2.5508  1.7420 -0.8109
 1003MOL0     H32369   6.207  -0.353   6.196  1.2579  0.6410  0.1490
 1003MOL0     H32370   6.149  -0.596   6.276  2.5142 -0.1615  0.5893
 1003MOL0     H32371   6.257  -0.642   6.138  2.6511  0.9716  0.3368
 1003MOL0     H32372   6.116  -0.456   6.015  1.6212  3.3947  6.2566
 1003MOL0     H32373   6.001  -0.494   6.126  0.9043  4.1060 -2.6634
 1003MOL0     H32374   5.957  -0.615   5.924  2.5116  1.5941 -1.4008
 1003MOL0     H32375   6.099  -0.715   5.938  1.3972  1.0534  0.1897
 1003MOL0     H32376   5.866  -0.712   6.133 -0.9491 -0.8828 -1.2628
 1003MOL0     H32377   6.020  -0.793   6.162 -1.4934 -0.0256  2.1941
 1003MOL0     H32378   6.717  -0.370   5.728 -0.4581  1.3279 -2.6618
 1003MOL0     H32379   6.951  -0.358   5.674  1.6452  1.0063 -0.4136
 1003MOL0     H32380   7.416  -0.399   5.860 -1.0234  2.6699  1.7962
 1003MOL0     H32381   7.625  -0.403   5.767 -0.1171 -1.4003 -1.2573
 1003MOL0     H32382   7.729   0.567   6.304 -0.1463  1.1512  1.6409
 1003MOL0     H32383   7.491   0.642   6.367  3.1792  1.8655  1.8955
 1003MOL0     H32384   7.167   1.009   6.415 -0.0184 -0.1938  1.5584
 1003MOL0     H32385   6.940   1.091   6.419 -0.1593 -0.1068  0.7049
 1003MOL0     H32386   6.698   1.123   6.409  3.6863 -0.7054 -3.8762
 1003MOL0     H32387   6.735   0.989   6.517 -0.6778 -0.3160 -0.3365
 1003MOL0     H32388   6.476   1.011   6.348 -2.6699 -2.1311  0.8214
 1003MOL0     H32389   6.530   0.856   6.420  1.7004  0.7108 -0.9727
 1003MOL0     H32390   6.462   1.128   6.558  0.3914 -0.3496  1.1184
 1003MOL0     H32391   6.535   0.996   6.645  2.9216  2.2544 -1.5757
 1003MOL0     H32392   6.352   0.843   6.609 -3.8020 -0.2461  1.2431
 1003MOL0     H32393   6.293   0.987   6.675 -4.0514  1.9405 -1.8305
 1003MOL0     H32394   6.091   1.000   6.306  0.7654 -0.6903 -0.6412
 1003MOL0     H32395   6.814   0.777   6.161 -0.3611  1.2322  0.0564
 1003MOL0     H32396   7.068   0.707   6.127  3.4858 -0.1826  1.8858
 1004MOL0     O32397   3.848   2.059   3.318 -1.0111  0.3094 -0.1451
 1004MOL0     C32398   3.961   2.025   3.347 -0.2899 -1.2823 -0.5247
 1004MOL0     O32399   4.073   2.074   3.278  0.3631  0.5393 -0.2775
 1004MOL0     C32400   4.065   2.145   3.166  0.1345  0.5654 -0.3205
 1004MOL0     C32401   3.973   2.116   3.065 -0.3996 -0.8061 -0.4075
 1004MOL0     C32402   3.989   2.167   2.934 -0.2904  1.0675  0.4545
 1004MOL0     C32403   4.079   2.268   2.911 -0.2104  0.3572  0.2807
 1004MOL0     O32404   4.093   2.325   2.784  0.2431 -0.5922 -0.9745
 1004MOL0     C32405   4.163   2.236   2.700 -0.2491 -0.2542 -0.4428
 1004MOL0     C32406   4.213   2.325   2.583 -0.9108 -0.5478  0.6993
 1004MOL0     C32407   4.294   2.445   2.604  0.1979 -0.6436 -1.2068
 1004MOL0     C32408   4.393   2.425   2.718 -0.3221  0.6846  0.1218
 1004MOL0     C32409   4.491   2.553   2.719 -0.9789 -0.4751  0.5233
 1004MOL0     C32410   4.599   2.553   2.823 -1.0284  0.4653 -0.3420
 1004MOL0     C32411   4.683   2.676   2.815  0.2326 -0.2705  0.3995
 1004MOL0     C32412   4.772   2.696   2.694 -0.6159 -0.0736 -0.0803
 1004MOL0     N32413   4.890   2.778   2.733 -0.5128 -0.1333 -0.2886
 1004MOL0     C32414   4.886   2.908   2.755  0.4282 -1.1901 -0.0912
 1004MOL0     C32415   5.012   2.951   2.781  0.5731 -0.1981 -0.1581
 1004MOL0     C32416   5.049   3.099   2.785 -0.2089 -0.3784  0.5184
 1004MOL0     C32417   4.978   3.185   2.883 -0.4785  0.6409  0.1551
 1004MOL0     C32418   4.984   3.334   2.872 -0.0576 -0.9880 -0.1214
 1004MOL0     C32419   5.129   3.383   2.876  0.3531 -0.4687  0.8505
 1004MOL0     O32420   5.125   3.526   2.895  0.7450 -0.2805  0.0802
 1004MOL0     C32421   5.221   3.609   2.857 -0.8559  0.5151  0.1886
 1004MOL0     C32422   5.345   3.578   2.790 -0.9300 -0.4978 -0.9510
 1004MOL0     C32423   5.433   3.686   2.759 -0.6131 -0.2685  0.3803
 1004MOL0     C32424   5.406   3.822   2.763 -0.2963  0.0319 -0.6600
 1004MOL0     C32425   5.500   3.923   2.721 -0.0138  0.1725 -0.2225
 1004MOL0     O32426   5.624   3.881   2.678 -0.2041  0.7460  0.3546
 1004MOL0     C32427   5.692   3.977   2.615 -1.3096 -0.4826  0.1966
 1004MOL0     C32428   5.771   4.050   2.705  0.1825 -0.0721  0.2207
 1004MOL0     C32429   5.842   4.165   2.665 -0.0432 -0.1606  0.4771
 1004MOL0     C32430   5.828   4.204   2.534 -0.3827 -0.1344 -0.0090
 1004MOL0     O32431   5.892   4.312   2.493 -0.0955 -0.5617 -0.3555
 1004MOL0     C32432   5.839   4.400   2.382 -0.2009  1.0233  0.2844
 1004MOL0     C32433   5.921   4.530   2.399  0.8615 -0.3741  0.1864
 1004MOL0     C32434   5.877   4.587   2.530 -0.4385 -0.0548 -0.6808
 1004MOL0     C32435   5.964   4.704   2.554 -0.4829  1.2255  0.2005
 1004MOL0     C32436   5.894   4.802   2.656 -0.8181 -1.1891  0.3009
 1004MOL0     C32437   5.984   4.932   2.682  0.4513  0.9284  0.0504
 1004MOL0     C32438   5.914   5.048   2.750  0.1347  0.2378  0.0254
 1004MOL0     C32439   6.013   5.153   2.785  0.2591  0.0791 -0.4663
 1004MOL0    Cl32440   5.933   5.309   2.824 -0.2419 -0.6584 -0.2725
 1004MOL0     C32441   5.768   4.124   2.441 -0.1607 -0.3188 -0.3205
 1004MOL0     C32442   5.703   4.011   2.478 -0.7410 -0.2463  0.1873
 1004MOL0     O32443   5.455   4.038   2.722 -0.4842 -0.4374 -0.5812
 1004MOL0     C32444   5.286   3.845   2.821 -0.2974  0.4672 -0.2794
 1004MOL0     C32445   5.193   3.737   2.861 -1.1807  0.6000  0.5509
 1004MOL0     N32446   5.101   2.840   2.777  0.2767  0.0873  0.4798
 1004MOL0     N32447   5.025   2.737   2.748  0.9627  0.1468 -0.2465
 1004MOL0     C32448   4.166   2.300   3.016 -0.2426 -0.4278  0.3512
 1004MOL0     C32449   4.164   2.241   3.144 -0.0353  0.1913 -0.5876
 1004MOL0     C32450   3.984   1.936   3.464 -0.3253  0.2087  0.0496
 1004MOL0     C32451   3.896   1.922   3.573 -0.3133  0.1389  0.0028
 1004MOL0     C32452   3.914   1.829   3.681 -0.6475  0.6910 -0.3817
 1004MOL0     C32453   4.033   1.751   3.693 -0.3152 -0.6405  0.0660
 1004MOL0     O32454   4.079   1.677   3.794 -0.3414 -0.2404  0.2488
 1004MOL0     C32455   3.991   1.655   3.905  0.6817  0.1470 -0.0394
 1004MOL0     C32456   4.039   1.541   3.999  0.4183  0.5628 -0.1297
 1004MOL0     C32457   3.966   1.557   4.141  0.1835 -0.3787  0.2421
 1004MOL0     C32458   4.037   1.464   4.235  0.2648  0.7413  0.0743
 1004MOL0     C32459   3.965   1.467   4.359 -0.8661 -0.0761  0.5172
 1004MOL0     C32460   3.927   1.497   4.468 -0.9796  0.3949  0.2576
 1004MOL0     C32461   4.125   1.761   3.587  0.5922 -0.6643 -0.1276
 1004MOL0     C32462   4.107   1.853   3.479  1.7035 -0.4968  0.1875
 1004MOL0     H32463   3.885   2.055   3.087 -0.6357 -0.8042 -1.3329
 1004MOL0     H32464   3.914   2.128   2.865 -0.2276 -0.8811  1.4194
 1004MOL0     H32465   4.089   2.164   2.664  0.0663 -1.1201  0.5915
 1004MOL0     H32466   4.249   2.194   2.753 -1.5482 -0.2226  1.8640
 1004MOL0     H32467   4.128   2.349   2.518 -1.1917  0.9772  1.5808
 1004MOL0     H32468   4.285   2.262   2.529 -1.6105 -2.4243  1.8557
 1004MOL0     H32469   4.228   2.529   2.628  0.0087  0.0007 -3.7580
 1004MOL0     H32470   4.352   2.472   2.516  1.6270  1.1409  0.1924
 1004MOL0     H32471   4.335   2.399   2.807 -2.0643  1.1067 -0.8529
 1004MOL0     H32472   4.456   2.340   2.691  0.1255  1.3639 -1.0551
 1004MOL0     H32473   4.429   2.642   2.731 -0.5244 -0.3326  1.9628
 1004MOL0     H32474   4.544   2.565   2.623  0.8843 -0.6425  1.4800
 1004MOL0     H32475   4.663   2.465   2.816 -3.8428 -1.6007 -3.0910
 1004MOL0     H32476   4.555   2.543   2.923  2.8463  0.7408  1.5776
 1004MOL0     H32477   4.621   2.764   2.837  0.1272 -0.3998  0.6247
 1004MOL0     H32478   4.750   2.662   2.901 -1.2273  0.2308  1.6781
 1004MOL0     H32479   4.717   2.748   2.615 -1.1082  0.5584  0.6708
 1004MOL0     H32480   4.807   2.596   2.664 -0.2046 -0.0085  0.1900
 1004MOL0     H32481   4.798   2.969   2.738  1.3255  0.5311  1.1843
 1004MOL0     H32482   5.036   3.150   2.689 -2.7523 -1.0719  0.4183
 1004MOL0     H32483   5.155   3.092   2.811 -0.5867 -1.9528  1.7815
 1004MOL0     H32484   5.040   3.167   2.971  0.5911  3.9668  0.2269
 1004MOL0     H32485   4.876   3.149   2.899 -0.3596  1.2345  2.5379
 1004MOL0     H32486   4.927   3.361   2.783  1.9394 -3.5830 -2.3285
 1004MOL0     H32487   4.933   3.375   2.961  0.3616 -0.9179  0.0898
 1004MOL0     H32488   5.179   3.358   2.782  1.0072  1.1100  0.7543
 1004MOL0     H32489   5.174   3.334   2.963  0.3608  0.1564  1.2000
 1004MOL0     H32490   5.385   3.478   2.778  1.5122  0.2250  0.5349
 1004MOL0     H32491   5.533   3.655   2.733 -1.0553 -0.4072 -1.2079
 1004MOL0     H32492   5.765   4.013   2.807 -2.6205  0.3980  0.2952
 1004MOL0     H32493   5.904   4.225   2.730  1.7411  1.1013 -2.2396
 1004MOL0     H32494   5.734   4.431   2.381 -0.2414  0.8643 -0.8246
 1004MOL0     H32495   5.858   4.354   2.285 -2.3132  1.2323 -0.2774
 1004MOL0     H32496   5.900   4.598   2.316  0.7622 -1.1879 -0.4771
 1004MOL0     H32497   6.029   4.515   2.406  0.6632 -1.9985  0.2560
 1004MOL0     H32498   5.878   4.516   2.613 -0.6213  0.8096  0.0671
 1004MOL0     H32499   5.771   4.608   2.515  0.0525  2.3564 -1.1139
 1004MOL0     H32500   6.056   4.677   2.605 -0.7146 -0.2899 -0.1534
 1004MOL0     H32501   5.973   4.764   2.463 -0.5022  1.1388  0.1412
 1004MOL0     H32502   5.873   4.755   2.752  0.4049  1.9457  2.2229
 1004MOL0     H32503   5.796   4.828   2.615 -1.6880 -0.5590  2.6418
 1004MOL0     H32504   6.013   4.964   2.582 -1.5864 -0.2675 -1.0044
 1004MOL0     H32505   6.066   4.908   2.751 -0.4320  1.3774  1.3071
 1004MOL0     H32506   5.850   5.100   2.679 -1.1767 -0.4247  0.7009
 1004MOL0     H32507   5.864   5.009   2.839 -1.4202  0.8694 -0.5367
 1004MOL0     H32508   6.098   5.163   2.717  3.1478 -2.3779  2.4699
 1004MOL0     H32509   6.070   5.116   2.871  0.8540 -2.7168 -1.9310
 1004MOL0     H32510   5.756   4.153   2.337 -0.0296  0.4926 -0.1158
 1004MOL0     H32511   5.667   3.947   2.397 -1.0864 -0.6207  0.6320
 1004MOL0     H32512   5.255   3.948   2.838 -1.0665  0.0362  1.0577
 1004MOL0     H32513   5.099   3.757   2.912 -0.1056  2.0913  2.0528
 1004MOL0     H32514   4.252   2.358   2.985 -0.4369 -1.3215 -2.1713
 1004MOL0     H32515   4.232   2.266   3.225 -0.0570  1.1000 -0.8323
 1004MOL0     H32516   3.811   1.989   3.576  0.3977  1.7926 -5.5214
 1004MOL0     H32517   3.850   1.815   3.767  0.6344  2.1918  0.8976
 1004MOL0     H32518   3.886   1.641   3.878 -0.1860  1.9184  2.0698
 1004MOL0     H32519   3.977   1.739   3.974  1.9536 -0.8009  1.4341
 1004MOL0     H32520   4.018   1.443   3.954 -1.4516  0.5495  0.7062
 1004MOL0     H32521   4.147   1.552   4.013  0.1826  2.3712  0.4462
 1004MOL0     H32522   3.859   1.536   4.127  0.3444 -0.7052 -0.5310
 1004MOL0     H32523   3.972   1.658   4.183  0.7988 -0.6813  0.8880
 1004MOL0     H32524   4.028   1.365   4.189 -5.0765  1.4228 -1.0494
 1004MOL0     H32525   4.141   1.490   4.254  0.9697 -2.2820  0.9438
 1004MOL0     H32526   3.905   1.541   4.563 -3.3121 -2.8838  1.4349
 1004MOL0     H32527   4.214   1.700   3.597  0.0770 -1.4082  0.0120
 1004MOL0     H32528   4.179   1.862   3.398  1.0062  0.1451 -0.3863
 1005MOL0     O32529   5.355  10.171   0.477 -0.3266  0.4844 -0.0926
 1005MOL0     C32530   5.284  10.270   0.494 -0.0615 -0.0234 -0.2591
 1005MOL0     O32531   5.326  10.401   0.460  0.5944  0.4241  0.4941
 1005MOL0     C32532   5.450  10.448   0.436 -0.9061  0.6693 -0.1692
 1005MOL0     C32533   5.460  10.545   0.332 -0.2833 -0.0156 -0.1690
 1005MOL0     C32534   5.588  10.600   0.314  0.0439 -0.4076 -0.6612
 1005MOL0     C32535   5.706  10.568   0.395  1.0450  0.0977 -0.3694
 1005MOL0     O32536   5.823  10.637   0.361 -0.3773 -1.2331 -0.4970
 1005MOL0     C32537   5.930  10.633   0.454 -0.7485  0.1839 -0.1849
 1005MOL0     C32538   6.062  10.700   0.388  0.0372  0.1155  0.3443
 1005MOL0     C32539   6.118  10.610   0.275 -0.1824 -0.0289 -0.0059
 1005MOL0     C32540   6.230  10.677   0.214 -0.2737 -0.0373 -0.1017
 1005MOL0     C32541   6.311  10.586   0.110 -0.1677  0.1497 -0.0865
 1005MOL0     C32542   6.379  10.669   0.002  0.2129  0.6548 -0.2208
 1005MOL0     C32543   6.439  10.590  -0.112 -0.1867 -1.4330  0.0636
 1005MOL0     C32544   6.574  10.532  -0.068  0.0172 -0.1554  0.3224
 1005MOL0     N32545   6.603  10.412  -0.141  0.6181 -0.0163 -1.0122
 1005MOL0     C32546   6.563  10.285  -0.116 -0.6038 -0.3320 -0.7100
 1005MOL0     C32547   6.614  10.204  -0.209 -0.1738  0.4020 -0.4437
 1005MOL0     C32548   6.608  10.058  -0.216  1.1106 -0.0087 -0.4457
 1005MOL0     C32549   6.744   9.997  -0.177  0.9705 -0.0275  0.9125
 1005MOL0     C32550   6.734   9.849  -0.178  0.9084  0.5639  0.4960
 1005MOL0     C32551   6.871   9.800  -0.137  0.3428 -0.2379 -0.5778
 1005MOL0     O32552   6.857   9.660  -0.108  0.2869  0.1591  0.9208
 1005MOL0     C32553   6.979   9.590  -0.079  0.2372  0.8382  0.0845
 1005MOL0     C32554   7.100   9.641  -0.022  0.3699 -0.1517 -0.0446
 1005MOL0     C32555   7.214   9.560  -0.042  0.1651 -0.3203  0.6442
 1005MOL0     C32556   7.208   9.433  -0.091 -0.1665 -0.4850 -0.0251
 1005MOL0     C32557   7.340   9.361  -0.093  0.1653 -0.3154  0.0869
 1005MOL0     O32558   7.365   9.270  -0.188 -0.4740 -0.5206 -0.3299
 1005MOL0     C32559   7.491   9.208  -0.207 -0.2262 -0.8635  0.3828
 1005MOL0     C32560   7.548   9.128  -0.108 -0.0492 -0.0136 -0.1619
 1005MOL0     C32561   7.660   9.058  -0.146 -0.2485  0.2873 -0.0569
 1005MOL0     C32562   7.718   9.065  -0.276 -0.1978  0.3609  0.5746
 1005MOL0     O32563   7.835   8.991  -0.295 -0.0582  0.4195  1.0504
 1005MOL0     C32564   7.872   8.966  -0.427  0.4341 -0.4838 -0.1726
 1005MOL0     C32565   7.970   8.847  -0.448 -0.4125 -0.3383 -0.4883
 1005MOL0     C32566   7.966   8.748  -0.333 -0.3089 -0.3101  0.7460
 1005MOL0     C32567   8.098   8.672  -0.329  1.0482 -0.1693  0.6361
 1005MOL0     C32568   8.084   8.569  -0.220  0.2416  0.6133  0.5225
 1005MOL0     C32569   8.206   8.511  -0.168 -0.6663  0.0645 -0.7471
 1005MOL0     C32570   8.285   8.419  -0.265 -0.0360 -0.6358 -0.0150
 1005MOL0     C32571   8.405   8.348  -0.207 -1.3758 -0.2040  0.0134
 1005MOL0    Cl32572   8.362   8.202  -0.119 -0.1704  0.1125 -0.3684
 1005MOL0     C32573   7.654   9.143  -0.372 -0.9898  0.2625  1.0480
 1005MOL0     C32574   7.533   9.205  -0.344 -0.3620 -0.1468  0.1054
 1005MOL0     O32575   7.415   9.389  -0.002  0.2516  0.0158 -0.5212
 1005MOL0     C32576   7.089   9.377  -0.142  0.1864 -0.7531  0.2366
 1005MOL0     C32577   6.977   9.458  -0.134 -0.2986  0.6836 -0.3428
 1005MOL0     N32578   6.683  10.287  -0.297  0.4370 -0.2537  0.1526
 1005MOL0     N32579   6.662  10.410  -0.259 -0.3170 -0.5904  0.3307
 1005MOL0     C32580   5.690  10.461   0.493  0.7443  0.3369 -0.6613
 1005MOL0     C32581   5.558  10.399   0.512 -0.2848  0.1850  0.6728
 1005MOL0     C32582   5.143  10.264   0.552  0.4223  0.1637  0.3025
 1005MOL0     C32583   5.074  10.383   0.574  0.8648 -0.0372  0.4490
 1005MOL0     C32584   4.946  10.384   0.620  0.7612 -0.3466  0.1356
 1005MOL0     C32585   4.889  10.263   0.662  0.2807 -0.0191  0.2604
 1005MOL0     O32586   4.768  10.257   0.709 -0.3771  0.2986  0.2534
 1005MOL0     C32587   4.750  10.285   0.852 -0.8096  0.1279 -0.5452
 1005MOL0     C32588   4.749  10.153   0.922  0.0089 -0.0565  0.6247
 1005MOL0     C32589   4.649  10.057   0.869 -0.0462  0.7365  1.1333
 1005MOL0     C32590   4.684   9.909   0.914  0.0739  0.6427  0.6434
 1005MOL0     C32591   4.592   9.812   0.855  0.1932  0.0522 -0.6031
 1005MOL0     C32592   4.521   9.730   0.800  0.5680  0.6888 -0.8283
 1005MOL0     C32593   4.960  10.145   0.644  0.1430  0.0010  0.1824
 1005MOL0     C32594   5.079  10.138   0.577 -0.5177  0.6702 -0.6326
 1005MOL0     H32595   5.375  10.557   0.267 -1.7600 -3.6059  0.8539
 1005MOL0     H32596   5.601  10.665   0.227 -0.1424  0.9293  0.2749
 1005MOL0     H32597   5.937  10.530   0.490 -1.8546  0.4649  0.8758
 1005MOL0     H32598   5.902  10.695   0.540  3.6015  1.4692  0.5467
 1005MOL0     H32599   6.136  10.724   0.464 -0.4937  1.2896  0.5188
 1005MOL0     H32600   6.023  10.796   0.352 -0.5888 -0.2868 -0.0647
 1005MOL0     H32601   6.046  10.601   0.193 -0.2544  2.2805 -0.2575
 1005MOL0     H32602   6.148  10.514   0.317 -0.0938 -0.8259 -1.8455
 1005MOL0     H32603   6.192  10.775   0.183  2.8676  1.4975  0.4538
 1005MOL0     H32604   6.303  10.703   0.291 -0.5109 -0.5208  0.2949
 1005MOL0     H32605   6.240  10.521   0.059 -0.2891  1.1150 -1.1764
 1005MOL0     H32606   6.377  10.519   0.166 -0.8769  0.9883  1.8761
 1005MOL0     H32607   6.450  10.732   0.057 -1.3951  1.7284  0.6832
 1005MOL0     H32608   6.312  10.742  -0.043  2.5848  0.2241 -5.0746
 1005MOL0     H32609   6.371  10.514  -0.151 -0.2283 -0.3769 -2.0725
 1005MOL0     H32610   6.454  10.659  -0.196 -1.4670 -0.4421  0.6117
 1005MOL0     H32611   6.575  10.510   0.039 -0.2606  1.7660  0.7570
 1005MOL0     H32612   6.652  10.607  -0.086 -1.0960  1.2056  0.9169
 1005MOL0     H32613   6.506  10.255  -0.028 -3.4823  0.2589 -2.2375
 1005MOL0     H32614   6.579  10.040  -0.320  0.8177  1.6785 -0.6838
 1005MOL0     H32615   6.528  10.020  -0.151  1.3127 -2.0540 -1.3030
 1005MOL0     H32616   6.761  10.024  -0.072 -2.1763  0.9017  1.2894
 1005MOL0     H32617   6.810  10.037  -0.254 -3.8729  2.8146 -2.3480
 1005MOL0     H32618   6.654   9.823  -0.108  2.7268  1.6988  3.1234
 1005MOL0     H32619   6.699   9.812  -0.275 -1.5400  0.0675  1.5066
 1005MOL0     H32620   6.901   9.859  -0.050  1.6569  1.3795 -2.0365
 1005MOL0     H32621   6.935   9.818  -0.224 -0.2542 -3.5643 -1.8441
 1005MOL0     H32622   7.100   9.745   0.009 -1.1345 -0.7206  2.0658
 1005MOL0     H32623   7.313   9.605  -0.035 -0.8292  2.7931 -2.5062
 1005MOL0     H32624   7.511   9.118  -0.006 -0.4274 -0.2931 -0.3225
 1005MOL0     H32625   7.711   9.008  -0.064 -1.0770 -0.8979 -0.2390
 1005MOL0     H32626   7.923   9.058  -0.457  3.1897 -1.7021  0.4625
 1005MOL0     H32627   7.778   8.955  -0.481 -0.1986  1.3588  0.5062
 1005MOL0     H32628   8.069   8.894  -0.446 -1.8076  3.0427 -2.7319
 1005MOL0     H32629   7.953   8.793  -0.542  3.2905 -3.2829  0.2761
 1005MOL0     H32630   7.885   8.676  -0.348  1.0922 -1.4314 -2.0955
 1005MOL0     H32631   7.954   8.793  -0.234  0.2116  0.3410  0.5130
 1005MOL0     H32632   8.118   8.615  -0.421 -0.0005 -0.6624  0.6904
 1005MOL0     H32633   8.183   8.740  -0.329 -0.1890  1.6390 -2.8822
 1005MOL0     H32634   8.018   8.491  -0.261  2.4195 -0.4786 -1.1554
 1005MOL0     H32635   8.014   8.607  -0.145 -1.1570  3.6831 -2.0803
 1005MOL0     H32636   8.184   8.462  -0.073  1.8325 -1.8310 -1.0431
 1005MOL0     H32637   8.275   8.589  -0.134  1.8975 -3.0327  1.8123
 1005MOL0     H32638   8.204   8.352  -0.295 -0.0564 -1.4262  1.6749
 1005MOL0     H32639   8.314   8.488  -0.344  0.2504  1.2652  1.6805
 1005MOL0     H32640   8.462   8.420  -0.147 -1.7997 -2.2329  3.0923
 1005MOL0     H32641   8.480   8.315  -0.280 -0.4777 -0.3553  0.9812
 1005MOL0     H32642   7.685   9.148  -0.476  0.7331 -3.6824  1.1813
 1005MOL0     H32643   7.477   9.243  -0.430 -0.2127  0.7437  0.3838
 1005MOL0     H32644   7.089   9.273  -0.173 -2.0075 -0.7623  0.1147
 1005MOL0     H32645   6.892   9.428  -0.193  1.1659 -0.9507 -1.7469
 1005MOL0     H32646   5.773  10.429   0.556  0.4223  1.6364  0.4513
 1005MOL0     H32647   5.543  10.318   0.582  3.2992  0.5227  2.0733
 1005MOL0     H32648   5.115  10.483   0.557  1.1593 -0.1373  0.5619
 1005MOL0     H32649   4.900  10.482   0.630  2.2991  0.2002  2.6227
 1005MOL0     H32650   4.658  10.343   0.854  0.2320  1.8327  0.1024
 1005MOL0     H32651   4.838  10.341   0.884  1.1327 -1.2576 -3.0751
 1005MOL0     H32652   4.848  10.109   0.937 -0.9118 -2.0559  1.0495
 1005MOL0     H32653   4.711  10.188   1.018 -0.3979  2.5114 -0.3851
 1005MOL0     H32654   4.635  10.066   0.761  0.2174  4.4860  1.2986
 1005MOL0     H32655   4.554  10.085   0.916  1.3552  3.6445  2.4605
 1005MOL0     H32656   4.786   9.895   0.876  1.3997 -0.7872  4.2794
 1005MOL0     H32657   4.695   9.888   1.020 -1.9323  1.8163  1.1250
 1005MOL0     H32658   4.454   9.656   0.762  4.0260 -3.0253 -0.3583
 1005MOL0     H32659   4.922  10.053   0.686 -1.8348  0.5304 -0.3341
 1005MOL0     H32660   5.140  10.050   0.560  1.6163  2.2457 -1.6542
 1006MOL0     O32661  10.768   7.090  11.147  0.3622  0.5504 -1.0181
 1006MOL0     C32662  10.758   7.208  11.176 -0.3986  1.1843 -0.0366
 1006MOL0     O32663  10.792   7.261  11.296 -0.6576 -0.3179 -0.9306
 1006MOL0     C32664  10.801   7.187  11.412  0.5665  0.5540  0.1739
 1006MOL0     C32665  10.717   7.071  11.431  0.2775  0.6363  0.3852
 1006MOL0     C32666  10.714   7.011  11.555 -0.5730  1.0082 -0.0828
 1006MOL0     C32667  10.790   7.052  11.662 -0.0576  0.2320  0.7812
 1006MOL0     O32668  10.789   6.982  11.774  0.3206  0.4200 -0.2407
 1006MOL0     C32669  10.858   7.024  11.892 -0.0092  0.5052  0.3365
 1006MOL0     C32670  10.797   6.962  12.019 -0.2236 -0.8961 -0.7355
 1006MOL0     C32671  10.738   6.827  12.010  0.0992  0.9045  0.7750
 1006MOL0     C32672  10.837   6.723  11.992 -0.1584  0.6856  1.5227
 1006MOL0     C32673  10.797   6.579  12.026 -0.4279 -0.2371  0.0413
 1006MOL0     C32674  10.893   6.520  12.132  0.2044  0.1633 -0.2075
 1006MOL0     C32675  10.879   6.365  12.132  0.1762 -0.3838 -0.3162
 1006MOL0     C32676  10.962   6.297  12.245 -0.3329 -1.1918 -0.1900
 1006MOL0     N32677  10.919   6.332  12.383  0.6129 -0.1821 -0.2548
 1006MOL0     C32678  10.812   6.263  12.440 -0.3530  0.7184 -0.5870
 1006MOL0     C32679  10.791   6.339  12.552  0.0678 -0.2789  0.3373
 1006MOL0     C32680  10.684   6.323  12.658  0.2175  0.3171 -0.4834
 1006MOL0     C32681  10.747   6.292  12.798 -0.6141 -0.1827  0.4226
 1006MOL0     C32682  10.631   6.283  12.900 -0.3963 -0.0151 -0.1982
 1006MOL0     C32683  10.543   6.164  12.873  0.1865  0.0669  0.4345
 1006MOL0     O32684  10.469   6.124  12.998 -0.2624  0.3560  0.5616
 1006MOL0     C32685  10.412   6.215  13.083 -0.2602  0.2037  0.6667
 1006MOL0     C32686  10.466   6.220  13.213  0.7264  1.3555 -0.4749
 1006MOL0     C32687  10.404   6.306  13.307 -0.1064  0.0125 -1.0496
 1006MOL0     C32688  10.289   6.378  13.273 -0.1441 -0.4678 -0.3575
 1006MOL0     C32689  10.228   6.481  13.356 -1.0125  0.1822 -0.1875
 1006MOL0     O32690  10.301   6.523  13.460 -0.6126 -0.0426 -0.2957
 1006MOL0     C32691  10.248   6.612  13.552 -1.0721 -1.0992  0.4109
 1006MOL0     C32692  10.289   6.600  13.687 -0.6117  0.4480 -0.9034
 1006MOL0     C32693  10.237   6.695  13.779  0.7857  0.0172  0.2872
 1006MOL0     C32694  10.170   6.813  13.738 -0.0954  0.2566 -0.4572
 1006MOL0     O32695  10.128   6.909  13.822 -0.2458 -0.3150 -0.7297
 1006MOL0     C32696  10.041   7.011  13.774 -0.0957  0.4220 -0.2351
 1006MOL0     C32697  10.020   7.128  13.874  0.2475  0.4357  0.2200
 1006MOL0     C32698  10.002   7.081  14.022 -0.7298 -0.3039 -0.3607
 1006MOL0     C32699  10.019   7.196  14.120 -0.1780  0.2912 -0.7288
 1006MOL0     C32700   9.909   7.309  14.120  0.9991  0.4323  0.3461
 1006MOL0     C32701   9.912   7.427  14.224 -0.2145 -0.2393 -0.0013
 1006MOL0     C32702   9.919   7.386  14.373  0.0471  0.5300 -0.7194
 1006MOL0     C32703   9.868   7.489  14.477  1.0167  0.6638 -0.1573
 1006MOL0    Cl32704   9.982   7.623  14.465 -0.1037 -0.0086  0.3958
 1006MOL0     C32705  10.129   6.813  13.606 -0.0016 -0.0060 -0.0254
 1006MOL0     C32706  10.165   6.716  13.511 -0.1556 -0.7729  0.8227
 1006MOL0     O32707  10.105   6.490  13.348 -0.6069  0.7931  0.0515
 1006MOL0     C32708  10.233   6.364  13.149 -0.8157  0.0639 -0.3524
 1006MOL0     C32709  10.293   6.280  13.057 -0.3216 -0.0583 -0.3897
 1006MOL0     N32710  10.878   6.440  12.564  0.1778 -0.5548  0.5503
 1006MOL0     N32711  10.960   6.442  12.462  0.7193  0.4507  0.2100
 1006MOL0     C32712  10.877   7.162  11.635 -0.1360 -0.0541 -1.5341
 1006MOL0     C32713  10.880   7.224  11.516  0.4658  0.0080 -0.2170
 1006MOL0     C32714  10.714   7.307  11.071 -0.3322  0.7861  0.0312
 1006MOL0     C32715  10.744   7.441  11.084 -0.1767  0.3836 -0.6488
 1006MOL0     C32716  10.701   7.528  10.982 -0.1303 -0.7027 -0.4450
 1006MOL0     C32717  10.624   7.475  10.877  0.2133 -0.5724 -0.8694
 1006MOL0     O32718  10.575   7.560  10.779 -0.5753  0.5421  0.7291
 1006MOL0     C32719  10.615   7.509  10.655  0.0088 -0.2625 -1.1034
 1006MOL0     C32720  10.625   7.611  10.552 -0.2497 -0.0278  0.1338
 1006MOL0     C32721  10.640   7.579  10.396  0.2947  0.5655 -1.0767
 1006MOL0     C32722  10.679   7.706  10.333  0.5925 -0.2422  0.1128
 1006MOL0     C32723  10.697   7.668  10.195 -0.4337 -0.3552  0.7983
 1006MOL0     C32724  10.706   7.624  10.083  0.9536  0.6572 -0.4585
 1006MOL0     C32725  10.599   7.338  10.877 -0.1799 -0.1144  0.0327
 1006MOL0     C32726  10.654   7.253  10.963 -0.5816 -0.6204 -0.3091
 1006MOL0     H32727  10.643   7.041  11.358  0.0089  0.6999  0.6261
 1006MOL0     H32728  10.655   6.921  11.571 -0.5267  1.0259  0.1986
 1006MOL0     H32729  10.859   7.133  11.897 -1.0427  0.5775 -0.6633
 1006MOL0     H32730  10.957   6.980  11.883  0.3558  0.7406  2.6154
 1006MOL0     H32731  10.711   7.026  12.039  0.5814  0.2710 -0.9305
 1006MOL0     H32732  10.862   6.978  12.106 -0.1065  0.3353 -1.0326
 1006MOL0     H32733  10.658   6.812  11.936  3.0524 -0.1880 -2.5186
 1006MOL0     H32734  10.694   6.804  12.107  0.6436 -0.5827  0.7032
 1006MOL0     H32735  10.885   6.722  11.893  0.6227 -1.0597  1.8790
 1006MOL0     H32736  10.925   6.745  12.053  0.3748 -1.6016  1.6682
 1006MOL0     H32737  10.794   6.530  11.928 -1.8916 -0.2972  0.1000
 1006MOL0     H32738  10.697   6.584  12.068  0.7828 -1.1286  3.4040
 1006MOL0     H32739  10.872   6.562  12.231  0.3749 -1.2566  0.4453
 1006MOL0     H32740  10.999   6.539  12.114  0.0334  0.2668 -1.1710
 1006MOL0     H32741  10.772   6.342  12.131  0.0996 -0.0381 -1.1449
 1006MOL0     H32742  10.913   6.339  12.031 -1.0484 -1.9981 -0.3550
 1006MOL0     H32743  11.068   6.319  12.231 -0.7822 -0.1904 -2.4414
 1006MOL0     H32744  10.954   6.188  12.232 -2.4994 -0.8812 -2.1467
 1006MOL0     H32745  10.760   6.176  12.401 -3.8708  2.1018  0.5663
 1006MOL0     H32746  10.609   6.254  12.619 -2.4855  2.4975  0.5223
 1006MOL0     H32747  10.630   6.418  12.657 -2.4492 -0.9886  2.3169
 1006MOL0     H32748  10.813   6.368  12.840 -3.2744  1.7161  1.4598
 1006MOL0     H32749  10.804   6.199  12.791 -0.0946  0.2248 -1.2465
 1006MOL0     H32750  10.672   6.269  13.000  1.3149 -0.3651 -0.9187
 1006MOL0     H32751  10.565   6.371  12.906 -0.0364  0.2245  0.2737
 1006MOL0     H32752  10.602   6.077  12.840  4.0231  2.2084  1.0404
 1006MOL0     H32753  10.477   6.209  12.799  0.4165  2.6769  1.6961
 1006MOL0     H32754  10.552   6.158  13.237  0.5831  0.9032 -1.1047
 1006MOL0     H32755  10.446   6.315  13.407 -1.0864  1.8443 -0.7667
 1006MOL0     H32756  10.358   6.524  13.720 -2.6478  0.0219  2.9469
 1006MOL0     H32757  10.252   6.703  13.886 -2.9653 -1.3953  1.0821
 1006MOL0     H32758   9.943   6.971  13.745  0.9490 -1.3237 -1.5411
 1006MOL0     H32759  10.083   7.070  13.692 -0.1320  0.6347 -0.1037
 1006MOL0     H32760   9.947   7.202  13.840 -0.6591 -0.6941 -0.3074
 1006MOL0     H32761  10.116   7.181  13.885  1.5332 -1.8493  0.6253
 1006MOL0     H32762  10.079   7.008  14.048  0.8371  1.5140  0.2665
 1006MOL0     H32763   9.902   7.036  14.031 -1.0962  0.7526  1.3794
 1006MOL0     H32764  10.018   7.147  14.217 -3.2697  1.0158 -0.3063
 1006MOL0     H32765  10.117   7.238  14.094 -1.6711  2.5141 -3.3933
 1006MOL0     H32766   9.807   7.270  14.133 -0.5468  4.4658  2.3154
 1006MOL0     H32767   9.911   7.361  14.023  2.6525 -0.7475 -0.2902
 1006MOL0     H32768   9.822   7.488  14.214  0.6072  1.0132 -0.0014
 1006MOL0     H32769   9.995   7.493  14.196 -1.1374  0.7917 -0.3583
 1006MOL0     H32770   9.867   7.290  14.375  1.4427 -0.2571 -1.0030
 1006MOL0     H32771  10.024   7.360  14.389 -0.1897 -2.0122 -2.7348
 1006MOL0     H32772   9.868   7.437  14.573  1.3648 -0.6940 -0.8653
 1006MOL0     H32773   9.767   7.519  14.447  0.0065 -2.4115 -0.1676
 1006MOL0     H32774  10.069   6.886  13.554 -0.0529  0.1985  0.3159
 1006MOL0     H32775  10.145   6.731  13.405  0.1478  1.9354  1.0774
 1006MOL0     H32776  10.152   6.429  13.117 -0.1565  1.9160  1.4999
 1006MOL0     H32777  10.241   6.286  12.962 -0.2345 -0.8802 -0.4991
 1006MOL0     H32778  10.954   7.181  11.709  1.4660 -0.5453 -3.0077
 1006MOL0     H32779  10.954   7.302  11.501  1.8139 -0.6784  2.2800
 1006MOL0     H32780  10.785   7.494  11.170  0.6595 -0.6405 -0.3929
 1006MOL0     H32781  10.732   7.631  10.970  0.0123 -0.7868 -0.8134
 1006MOL0     H32782  10.545   7.429  10.628 -1.8253  0.8815  0.0867
 1006MOL0     H32783  10.711   7.457  10.654 -0.9408 -2.5649  3.2067
 1006MOL0     H32784  10.532   7.668  10.559 -3.8804 -5.2357 -0.1345
 1006MOL0     H32785  10.706   7.676  10.587  2.6051 -1.7842 -2.7104
 1006MOL0     H32786  10.539   7.551  10.366 -0.0145  0.2162  0.1994
 1006MOL0     H32787  10.699   7.490  10.374 -0.9337  0.0469 -2.3952
 1006MOL0     H32788  10.607   7.788  10.329  3.1276  2.4299  3.3329
 1006MOL0     H32789  10.774   7.748  10.368  0.8902  0.1954 -1.1468
 1006MOL0     H32790  10.714   7.612   9.977 -0.4435 -1.6720 -0.3563
 1006MOL0     H32791  10.533   7.293  10.804 -1.6758 -1.8522  2.3032
 1006MOL0     H32792  10.645   7.149  10.933 -0.1154 -0.4284 -1.1299
 1007MOL0     O32793   7.093   2.868   7.408  0.2783  0.7087  0.2385
 1007MOL0     C32794   7.046   2.745   7.413 -0.5322 -0.2739  0.7627
 1007MOL0     O32795   6.921   2.703   7.373  0.0662 -0.3015  0.5490
 1007MOL0     C32796   6.873   2.797   7.287 -0.3025  1.0680  0.4037
 1007MOL0     C32797   6.789   2.907   7.313 -0.8035  0.0268 -0.2090
 1007MOL0     C32798   6.748   2.998   7.211 -0.0808 -0.2238  0.0583
 1007MOL0     C32799   6.762   2.960   7.074  0.6562 -0.0686 -0.4444
 1007MOL0     O32800   6.715   3.029   6.966  0.4684 -0.2967  0.5928
 1007MOL0     C32801   6.731   3.174   6.969 -0.2048  0.1223  0.5642
 1007MOL0     C32802   6.713   3.242   6.837 -0.5786 -0.1077  0.0565
 1007MOL0     C32803   6.737   3.390   6.835  0.0854  0.2393 -0.6898
 1007MOL0     C32804   6.603   3.462   6.860 -0.6083  0.1098 -0.1503
 1007MOL0     C32805   6.640   3.607   6.905  0.6491  0.8727 -0.3088
 1007MOL0     C32806   6.519   3.700   6.922  0.8494  0.0523 -0.6591
 1007MOL0     C32807   6.562   3.839   6.971 -0.4618  0.0628 -0.9818
 1007MOL0     C32808   6.465   3.938   6.994 -0.3364  0.3568  0.1275
 1007MOL0     N32809   6.369   3.902   7.106 -0.6939  0.4143 -0.3559
 1007MOL0     C32810   6.377   3.930   7.245 -0.5800 -0.2245  0.3662
 1007MOL0     C32811   6.266   3.886   7.303  0.7814  0.4182 -0.6321
 1007MOL0     C32812   6.235   3.867   7.446 -0.8687 -0.1340  1.1862
 1007MOL0     C32813   6.211   3.721   7.497  0.6409 -0.4939 -0.0914
 1007MOL0     C32814   6.349   3.646   7.513 -0.4553  0.2574 -0.4111
 1007MOL0     C32815   6.410   3.604   7.376  0.0983 -0.0622 -0.0468
 1007MOL0     O32816   6.516   3.511   7.401 -0.2589  0.0540  0.3580
 1007MOL0     C32817   6.641   3.497   7.334  0.2729 -0.3618  0.2381
 1007MOL0     C32818   6.717   3.591   7.272  0.1305  0.5998  0.3865
 1007MOL0     C32819   6.841   3.570   7.218 -0.5100  0.3127 -0.4374
 1007MOL0     C32820   6.905   3.452   7.242 -0.1300  0.6626 -0.2268
 1007MOL0     C32821   7.036   3.434   7.180 -0.0546 -0.5080  0.4387
 1007MOL0     O32822   7.069   3.300   7.159 -0.0137  0.1304  0.1903
 1007MOL0     C32823   7.204   3.271   7.137 -0.0316 -0.3181 -0.3155
 1007MOL0     C32824   7.241   3.150   7.199 -0.2651 -0.1855  0.5278
 1007MOL0     C32825   7.377   3.105   7.198 -0.1909  0.0342 -0.1149
 1007MOL0     C32826   7.478   3.188   7.136  1.2344  0.6314 -0.3700
 1007MOL0     O32827   7.605   3.137   7.136  0.3091 -0.5174  0.8697
 1007MOL0     C32828   7.710   3.233   7.128  0.6575 -0.3942  1.1609
 1007MOL0     C32829   7.831   3.182   7.195 -0.1585 -0.5384  0.0078
 1007MOL0     C32830   7.902   3.083   7.101  0.0407  0.0363 -0.6426
 1007MOL0     C32831   8.012   2.995   7.170  0.3255  0.3117 -1.2110
 1007MOL0     C32832   8.078   2.894   7.079 -0.2248  0.6913  0.6829
 1007MOL0     C32833   8.159   2.776   7.134  0.1163 -0.2782 -1.2468
 1007MOL0     C32834   8.306   2.824   7.178 -0.0847 -0.7976  0.2546
 1007MOL0     C32835   8.381   2.694   7.212 -1.2482 -1.0874 -0.3610
 1007MOL0    Cl32836   8.552   2.733   7.204  0.1133 -0.4390 -0.3071
 1007MOL0     C32837   7.434   3.298   7.060 -0.1564 -0.4184  0.2049
 1007MOL0     C32838   7.300   3.335   7.060 -0.3517  0.2788  0.2273
 1007MOL0     O32839   7.111   3.533   7.159 -0.0199  0.3727  0.3591
 1007MOL0     C32840   6.835   3.350   7.316 -0.8722 -0.2848  0.5000
 1007MOL0     C32841   6.711   3.381   7.359  0.0162  0.3689  0.6395
 1007MOL0     N32842   6.182   3.839   7.203  0.4019 -0.5684  0.5347
 1007MOL0     N32843   6.238   3.864   7.083 -0.2262  0.7224 -0.5612
 1007MOL0     C32844   6.832   2.844   7.049 -0.0173 -0.5906  0.3645
 1007MOL0     C32845   6.884   2.765   7.148 -0.7346  0.0748 -0.3645
 1007MOL0     C32846   7.155   2.642   7.449  0.6329 -0.3063 -0.1212
 1007MOL0     C32847   7.128   2.506   7.471 -0.2101  0.0864  0.3579
 1007MOL0     C32848   7.230   2.411   7.485  0.2751  0.0344 -0.2657
 1007MOL0     C32849   7.360   2.458   7.471 -0.1136  0.9073  0.9094
 1007MOL0     O32850   7.452   2.356   7.463 -0.1524  0.7431 -0.8862
 1007MOL0     C32851   7.593   2.379   7.454  0.4947 -0.3621 -0.4399
 1007MOL0     C32852   7.664   2.258   7.511 -0.4054 -0.8221 -0.6849
 1007MOL0     C32853   7.625   2.135   7.438  1.2387  0.3608 -0.1325
 1007MOL0     C32854   7.689   1.994   7.490  0.4203 -0.7256  0.8824
 1007MOL0     C32855   7.640   1.876   7.406  0.0421  0.0426  0.1853
 1007MOL0     C32856   7.593   1.789   7.336  0.5862 -0.0540  0.2375
 1007MOL0     C32857   7.390   2.589   7.458 -0.8992 -0.5429 -0.1305
 1007MOL0     C32858   7.294   2.685   7.446  0.5438 -0.7193 -0.5488
 1007MOL0     H32859   6.771   2.926   7.418  0.5551 -4.4425  1.0566
 1007MOL0     H32860   6.696   3.092   7.226  0.8213 -0.0747  2.9551
 1007MOL0     H32861   6.826   3.214   7.005 -1.1961  1.9340  1.3075
 1007MOL0     H32862   6.659   3.212   7.041  0.2619  1.1124  0.5185
 1007MOL0     H32863   6.618   3.218   6.787 -0.0223 -0.6928 -0.7305
 1007MOL0     H32864   6.784   3.199   6.766 -1.2854  2.1964 -2.2149
 1007MOL0     H32865   6.775   3.422   6.738 -0.8710  0.4482 -1.0057
 1007MOL0     H32866   6.813   3.428   6.903 -0.9149 -0.1887  0.7278
 1007MOL0     H32867   6.550   3.462   6.765 -0.2732 -0.2681 -0.3378
 1007MOL0     H32868   6.543   3.419   6.941  2.3025 -0.6860  1.7410
 1007MOL0     H32869   6.708   3.665   6.841  2.6885 -0.4465  0.5476
 1007MOL0     H32870   6.700   3.606   6.996 -3.5822 -0.4447  2.7451
 1007MOL0     H32871   6.433   3.663   6.980  0.9472 -0.0106 -0.5534
 1007MOL0     H32872   6.464   3.700   6.827 -0.5572 -0.1889  0.1249
 1007MOL0     H32873   6.634   3.837   7.053 -2.3110 -1.3828  0.7049
 1007MOL0     H32874   6.632   3.881   6.899  1.8512  0.9707  1.6426
 1007MOL0     H32875   6.414   3.940   6.897 -1.7060 -3.0612  0.6516
 1007MOL0     H32876   6.503   4.039   7.011  0.7032 -0.0591  0.3243
 1007MOL0     H32877   6.465   3.966   7.298 -1.9651 -0.4494  2.9827
 1007MOL0     H32878   6.144   3.924   7.465 -0.9618  0.2601 -0.2960
 1007MOL0     H32879   6.312   3.910   7.510  0.3965  0.3328 -0.5799
 1007MOL0     H32880   6.129   3.676   7.438 -1.0386 -0.3798  2.0407
 1007MOL0     H32881   6.158   3.722   7.592 -1.2321 -2.1347 -1.0334
 1007MOL0     H32882   6.419   3.719   7.555  0.2656 -0.4659 -0.3471
 1007MOL0     H32883   6.343   3.561   7.581 -3.8511  0.5772 -0.1308
 1007MOL0     H32884   6.445   3.692   7.321 -0.7650 -0.6247 -1.5794
 1007MOL0     H32885   6.335   3.545   7.322 -2.0221  0.0043  2.6248
 1007MOL0     H32886   6.679   3.693   7.270 -0.8565  0.3150 -3.4758
 1007MOL0     H32887   6.897   3.649   7.169  2.0109 -0.5675  0.8205
 1007MOL0     H32888   7.159   3.094   7.242 -0.7046  1.5726  2.0868
 1007MOL0     H32889   7.391   3.018   7.261 -0.4187 -0.1766 -0.3553
 1007MOL0     H32890   7.671   3.321   7.180 -4.2531 -2.9001  2.3820
 1007MOL0     H32891   7.731   3.251   7.022 -0.4191  1.2782  1.1956
 1007MOL0     H32892   7.806   3.115   7.278  0.2691 -2.1928 -1.1600
 1007MOL0     H32893   7.903   3.262   7.214 -2.6454  2.3313 -1.6428
 1007MOL0     H32894   7.939   3.139   7.014 -4.7401  3.2777 -0.9976
 1007MOL0     H32895   7.832   3.007   7.066 -1.8088  1.1524  0.4610
 1007MOL0     H32896   8.090   3.058   7.215  0.2343  1.4278 -2.5456
 1007MOL0     H32897   7.947   2.946   7.243 -0.4888  0.3787 -1.8819
 1007MOL0     H32898   8.142   2.949   7.009  0.0270  1.6990  1.6864
 1007MOL0     H32899   7.997   2.840   7.029  1.5407 -2.4408  0.9087
 1007MOL0     H32900   8.185   2.710   7.051  1.9063  2.5022 -3.0684
 1007MOL0     H32901   8.109   2.725   7.217  3.2780  2.3583  2.7189
 1007MOL0     H32902   8.350   2.878   7.093  2.3547  1.6192  2.8055
 1007MOL0     H32903   8.307   2.890   7.265  4.3055 -2.1126  1.4606
 1007MOL0     H32904   8.374   2.618   7.135 -0.0059 -0.3316 -1.2436
 1007MOL0     H32905   8.354   2.645   7.306 -3.6301 -1.1341 -0.9964
 1007MOL0     H32906   7.501   3.365   7.007 -0.8181  0.7974  0.8631
 1007MOL0     H32907   7.263   3.415   6.997 -0.7605 -1.0949 -1.3264
 1007MOL0     H32908   6.884   3.253   7.322  0.1887  0.1337 -1.0808
 1007MOL0     H32909   6.668   3.304   7.422  0.9699  1.5242  2.8316
 1007MOL0     H32910   6.847   2.819   6.944 -0.6997 -2.4954  0.6908
 1007MOL0     H32911   6.945   2.686   7.107 -1.9681  0.5275 -3.3353
 1007MOL0     H32912   7.027   2.468   7.485  0.7254 -1.7767  2.7126
 1007MOL0     H32913   7.217   2.304   7.498  2.3689 -0.7727 -3.6427
 1007MOL0     H32914   7.623   2.472   7.503  1.6536 -0.2005 -1.4069
 1007MOL0     H32915   7.610   2.390   7.346 -2.9063  1.0384 -0.9565
 1007MOL0     H32916   7.773   2.265   7.507 -0.3482 -1.7323 -0.9819
 1007MOL0     H32917   7.632   2.262   7.616  2.6604  0.8012  0.3080
 1007MOL0     H32918   7.622   2.148   7.330 -4.4925  2.7199 -0.0035
 1007MOL0     H32919   7.520   2.123   7.465  0.2639  2.2636 -2.7427
 1007MOL0     H32920   7.797   2.009   7.489  0.2521  1.1523  3.0088
 1007MOL0     H32921   7.646   1.975   7.589 -1.5702  1.3567  0.5111
 1007MOL0     H32922   7.570   1.701   7.279 -2.4882  0.2886  0.7815
 1007MOL0     H32923   7.487   2.634   7.438 -0.6333 -2.2374 -3.3100
 1007MOL0     H32924   7.319   2.791   7.448 -1.2018 -0.2888  0.1478
 1008MOL0     O32925   2.230   6.888   1.112  0.5879 -0.4791 -0.0502
 1008MOL0     C32926   2.154   6.852   1.205 -0.6317 -0.1939  0.4629
 1008MOL0     O32927   2.184   6.745   1.300  0.5109  0.3449 -0.1170
 1008MOL0     C32928   2.301   6.676   1.294 -0.0752 -0.3587 -0.0691
 1008MOL0     C32929   2.406   6.703   1.387  0.7727  0.0344 -0.1320
 1008MOL0     C32930   2.523   6.625   1.384  0.1558 -0.4324 -0.6606
 1008MOL0     C32931   2.537   6.527   1.291 -0.2093  0.0065 -0.3947
 1008MOL0     O32932   2.650   6.440   1.295  0.6838 -0.7269 -0.0814
 1008MOL0     C32933   2.702   6.393   1.422 -0.1006  0.2420  0.2307
 1008MOL0     C32934   2.780   6.262   1.402  0.5843 -0.1775 -0.1109
 1008MOL0     C32935   2.694   6.166   1.315  1.2407 -0.2296 -0.0990
 1008MOL0     C32936   2.750   6.034   1.314 -0.3436  0.1497 -0.2758
 1008MOL0     C32937   2.694   5.930   1.219 -0.4414  0.6292 -0.0848
 1008MOL0     C32938   2.737   5.783   1.228  0.0990 -0.2396  0.1291
 1008MOL0     C32939   2.889   5.770   1.182  0.0375 -1.0950 -0.4116
 1008MOL0     C32940   2.943   5.635   1.204 -0.6545  0.3495 -0.4987
 1008MOL0     N32941   3.085   5.638   1.151 -0.3316  0.7765 -1.2865
 1008MOL0     C32942   3.122   5.644   1.021 -0.7640  0.2073  0.9918
 1008MOL0     C32943   3.255   5.616   1.016 -0.1247  0.8856 -1.0658
 1008MOL0     C32944   3.345   5.611   0.885 -0.2107  0.8554 -0.9044
 1008MOL0     C32945   3.285   5.687   0.762  0.0328  0.1469 -0.8592
 1008MOL0     C32946   3.278   5.832   0.787 -0.4164 -1.1523 -0.1545
 1008MOL0     C32947   3.232   5.902   0.661  1.0541 -0.6585  0.1906
 1008MOL0     O32948   3.094   5.844   0.636  0.0133 -0.3370 -0.0358
 1008MOL0     C32949   2.985   5.903   0.704  0.6830 -0.2018  0.1982
 1008MOL0     C32950   2.984   6.019   0.774 -0.8588 -0.3791  0.7913
 1008MOL0     C32951   2.862   6.071   0.820  0.8443  0.1059 -0.2950
 1008MOL0     C32952   2.739   6.011   0.804 -0.7322  0.0544 -0.1690
 1008MOL0     C32953   2.621   6.079   0.838  0.4236 -0.0363 -0.1397
 1008MOL0     O32954   2.635   6.220   0.849 -0.7070  0.6074  0.2706
 1008MOL0     C32955   2.522   6.312   0.840 -0.4994  0.4507  0.3581
 1008MOL0     C32956   2.391   6.277   0.805  0.1603 -0.3140 -0.0493
 1008MOL0     C32957   2.296   6.386   0.801 -0.4465  0.5525  0.5660
 1008MOL0     C32958   2.324   6.517   0.835  0.5899 -0.0047  0.1872
 1008MOL0     O32959   2.232   6.610   0.829 -0.3248 -0.1851 -0.5564
 1008MOL0     C32960   2.281   6.743   0.788 -0.1566  0.1991  0.1430
 1008MOL0     C32961   2.156   6.824   0.719 -0.4769  0.2777 -0.5896
 1008MOL0     C32962   2.214   6.936   0.621  0.3719  0.5149 -0.5271
 1008MOL0     C32963   2.113   6.967   0.504 -0.1716 -0.4667 -0.1147
 1008MOL0     C32964   2.144   7.107   0.456  0.7390  0.7712 -0.1197
 1008MOL0     C32965   2.288   7.121   0.395  0.4025 -0.6946  0.1502
 1008MOL0     C32966   2.323   7.259   0.324  1.0558  0.1081  0.0191
 1008MOL0     C32967   2.453   7.247   0.249  0.7688 -0.2823 -0.1252
 1008MOL0    Cl32968   2.456   7.385   0.132  0.0879  0.2352  0.4486
 1008MOL0     C32969   2.453   6.549   0.873 -0.1730 -0.1274 -0.2263
 1008MOL0     C32970   2.551   6.446   0.870  0.7667  0.1617 -0.3477
 1008MOL0     O32971   2.518   6.015   0.860 -0.1016 -0.1167  0.0295
 1008MOL0     C32972   2.747   5.880   0.751  0.0554 -0.2940 -0.0632
 1008MOL0     C32973   2.863   5.833   0.694 -0.7130 -0.5966  0.3608
 1008MOL0     N32974   3.293   5.592   1.153  0.7630  0.2646 -0.2211
 1008MOL0     N32975   3.188   5.597   1.234  0.1451  0.1856 -0.0338
 1008MOL0     C32976   2.434   6.508   1.194  0.1346  1.0279  0.2741
 1008MOL0     C32977   2.324   6.581   1.198 -0.5504 -0.1112 -0.1014
 1008MOL0     C32978   2.038   6.932   1.240  0.2597 -0.3012 -0.4455
 1008MOL0     C32979   1.957   6.903   1.352  0.4581  0.0678  0.6031
 1008MOL0     C32980   1.853   6.988   1.382 -0.3213 -0.1036 -0.3536
 1008MOL0     C32981   1.826   7.098   1.295  0.1926  0.1250  0.3982
 1008MOL0     O32982   1.701   7.156   1.304 -0.2292 -0.3295  0.3413
 1008MOL0     C32983   1.697   7.305   1.317 -0.6756 -0.6645  0.1206
 1008MOL0     C32984   1.631   7.365   1.438  0.9882 -0.0453 -0.0406
 1008MOL0     C32985   1.585   7.510   1.437 -0.2123 -0.3699  0.2193
 1008MOL0     C32986   1.522   7.560   1.565  0.7045 -0.2966 -0.2884
 1008MOL0     C32987   1.605   7.561   1.681 -0.4021  0.8135 -0.7975
 1008MOL0     C32988   1.677   7.548   1.781  0.4746  0.4414 -0.6660
 1008MOL0     C32989   1.905   7.135   1.180 -0.4226  0.1408 -0.0337
 1008MOL0     C32990   2.013   7.048   1.158 -0.3619  0.4116 -0.3496
 1008MOL0     H32991   2.392   6.783   1.460 -1.2133  0.8479 -1.3109
 1008MOL0     H32992   2.600   6.651   1.455 -0.8538 -1.8585  1.0292
 1008MOL0     H32993   2.613   6.375   1.483  2.3037 -3.1321  3.1972
 1008MOL0     H32994   2.769   6.467   1.468 -0.0271 -0.8853  2.0199
 1008MOL0     H32995   2.786   6.222   1.504 -3.9295 -0.5650  0.2180
 1008MOL0     H32996   2.875   6.290   1.355  0.2084  1.2742 -0.0445
 1008MOL0     H32997   2.691   6.192   1.209  0.4555 -0.8833 -0.2492
 1008MOL0     H32998   2.591   6.156   1.350  2.0937 -2.5430  2.0935
 1008MOL0     H32999   2.856   6.045   1.289 -0.3059  0.0079 -0.1786
 1008MOL0     H33000   2.755   6.012   1.421 -0.0405  2.0514  0.1479
 1008MOL0     H33001   2.715   5.976   1.121  3.8807  2.0958  1.2804
 1008MOL0     H33002   2.588   5.929   1.245 -0.8271 -3.6520 -1.1919
 1008MOL0     H33003   2.669   5.721   1.169 -0.0100  0.5671 -0.6055
 1008MOL0     H33004   2.740   5.749   1.332  0.1814 -2.5421 -0.5637
 1008MOL0     H33005   2.900   5.802   1.077  3.2271 -0.5861 -0.0291
 1008MOL0     H33006   2.942   5.839   1.248 -2.9524  0.9798  0.0684
 1008MOL0     H33007   2.886   5.568   1.138  1.7545 -2.5275  0.1191
 1008MOL0     H33008   2.936   5.615   1.311 -4.2692  3.3674  0.0104
 1008MOL0     H33009   3.064   5.645   0.929 -0.4526  0.0445  0.7933
 1008MOL0     H33010   3.358   5.505   0.858 -1.1197  0.7588 -0.9991
 1008MOL0     H33011   3.450   5.634   0.905  0.5419 -1.2202 -2.1313
 1008MOL0     H33012   3.187   5.645   0.738 -0.1723  1.1097 -1.7650
 1008MOL0     H33013   3.351   5.659   0.679 -0.7413 -1.8700 -0.8622
 1008MOL0     H33014   3.210   5.843   0.872 -3.8663 -0.0620 -2.8330
 1008MOL0     H33015   3.373   5.877   0.816 -0.8795  0.3795 -0.8934
 1008MOL0     H33016   3.298   5.876   0.578  0.4139 -1.1499 -0.1797
 1008MOL0     H33017   3.223   6.011   0.661 -0.8526 -0.7276 -1.7844
 1008MOL0     H33018   3.071   6.081   0.790  3.2731 -5.5308  0.8184
 1008MOL0     H33019   2.892   6.167   0.862 -1.3189  1.8269 -2.3944
 1008MOL0     H33020   2.368   6.172   0.790  2.6133 -0.7259 -1.5645
 1008MOL0     H33021   2.191   6.373   0.775 -0.4320 -0.6112  1.0151
 1008MOL0     H33022   2.357   6.730   0.711  0.4932 -0.3078  0.8587
 1008MOL0     H33023   2.311   6.799   0.877 -2.4229 -0.3856  1.3580
 1008MOL0     H33024   2.087   6.855   0.799 -0.0250 -0.9623  0.3160
 1008MOL0     H33025   2.094   6.763   0.653  0.8853 -1.3963 -0.3776
 1008MOL0     H33026   2.303   6.884   0.585 -0.6323 -1.5797 -0.1861
 1008MOL0     H33027   2.250   7.025   0.673  0.5028 -0.0064  0.2917
 1008MOL0     H33028   2.115   6.895   0.422  0.3998  1.6758 -2.1092
 1008MOL0     H33029   2.013   6.973   0.547 -0.7839 -0.8493 -1.4414
 1008MOL0     H33030   2.119   7.169   0.543  4.0677  2.4171 -0.1993
 1008MOL0     H33031   2.072   7.135   0.378 -0.4075  1.2183  1.0617
 1008MOL0     H33032   2.303   7.041   0.322 -0.0605 -0.1265 -0.5765
 1008MOL0     H33033   2.363   7.104   0.473  2.2524 -0.1266 -1.4282
 1008MOL0     H33034   2.245   7.278   0.250  0.8735  1.1474  0.4730
 1008MOL0     H33035   2.327   7.347   0.389 -2.9026  0.0439  0.5797
 1008MOL0     H33036   2.457   7.157   0.187 -2.2149 -0.4571 -0.2396
 1008MOL0     H33037   2.539   7.244   0.316 -1.5533  1.7903  3.3352
 1008MOL0     H33038   2.479   6.649   0.908  3.7651 -1.5323  1.5074
 1008MOL0     H33039   2.655   6.466   0.894  0.8603  0.6187 -1.0840
 1008MOL0     H33040   2.655   5.827   0.728  0.3701  0.2672 -3.1198
 1008MOL0     H33041   2.860   5.731   0.657 -1.3065 -0.6990  0.6815
 1008MOL0     H33042   2.445   6.427   1.122  0.9043  0.4016  1.0631
 1008MOL0     H33043   2.243   6.571   1.127 -1.1653 -0.6094  0.6617
 1008MOL0     H33044   1.968   6.820   1.421  0.0409 -1.7783 -1.4696
 1008MOL0     H33045   1.787   6.979   1.467 -1.2152  0.0939 -1.0084
 1008MOL0     H33046   1.645   7.344   1.228 -4.4157 -2.7041  1.1744
 1008MOL0     H33047   1.797   7.350   1.317  1.5453 -5.0304  0.9183
 1008MOL0     H33048   1.544   7.315   1.480 -0.3129 -0.1054 -2.6276
 1008MOL0     H33049   1.708   7.361   1.517  2.7784  1.8571 -1.5645
 1008MOL0     H33050   1.502   7.506   1.366  0.2403 -2.3697 -0.2582
 1008MOL0     H33051   1.676   7.563   1.408 -0.5858  0.1376 -0.0442
 1008MOL0     H33052   1.500   7.663   1.535  1.1787 -1.0574 -3.7274
 1008MOL0     H33053   1.435   7.498   1.592  1.1542 -1.4446 -1.3674
 1008MOL0     H33054   1.748   7.539   1.861 -1.0233  0.5961  0.7326
 1008MOL0     H33055   1.876   7.222   1.121 -2.4384  1.7747  3.0834
 1008MOL0     H33056   2.081   7.070   1.076  0.7501 -0.3559  0.3372
 1009MOL0     O33057   9.022   1.953   7.472  0.3732 -0.2405 -0.4957
 1009MOL0     C33058   9.054   2.007   7.578  0.1639  0.8437  0.6434
 1009MOL0     O33059   9.043   1.946   7.702  0.7146 -0.0423 -0.3116
 1009MOL0     C33060   9.013   1.812   7.717  0.2597  0.1158  0.0745
 1009MOL0     C33061   9.095   1.718   7.652  0.1170  0.3531  0.4207
 1009MOL0     C33062   9.058   1.581   7.647 -0.7531 -0.6691  0.3441
 1009MOL0     C33063   8.935   1.544   7.706  0.9688  0.0994  0.6788
 1009MOL0     O33064   8.877   1.415   7.693 -0.4889 -0.8910  0.2613
 1009MOL0     C33065   8.869   1.354   7.565 -0.0857 -0.6318  0.0535
 1009MOL0     C33066   8.788   1.222   7.569 -0.1710  1.0750 -0.2783
 1009MOL0     C33067   8.761   1.176   7.422 -0.1965  0.0167  0.4902
 1009MOL0     C33068   8.695   1.036   7.405 -0.1352 -0.4915 -1.1366
 1009MOL0     C33069   8.688   0.989   7.263  0.0402 -0.1449  0.3992
 1009MOL0     C33070   8.621   0.861   7.247  0.5719  0.4966 -0.7182
 1009MOL0     C33071   8.622   0.810   7.106  0.8593 -0.3846  0.8763
 1009MOL0     C33072   8.488   0.765   7.053 -0.1046  0.7026 -0.4964
 1009MOL0     N33073   8.498   0.698   6.919  0.6282 -0.3727  0.1476
 1009MOL0     C33074   8.441   0.760   6.805 -0.2705 -0.3270  0.6525
 1009MOL0     C33075   8.455   0.682   6.701 -0.6034  0.8480  0.0949
 1009MOL0     C33076   8.404   0.707   6.564  0.6158 -0.5561  0.8063
 1009MOL0     C33077   8.407   0.584   6.466 -0.0119  0.4394 -0.0828
 1009MOL0     C33078   8.548   0.548   6.415  0.4358 -0.0698  0.3221
 1009MOL0     C33079   8.534   0.425   6.327 -0.4132  0.1145  0.4323
 1009MOL0     O33080   8.467   0.456   6.204  0.2760 -0.3047  1.1648
 1009MOL0     C33081   8.449   0.366   6.092  0.4831 -0.1559 -0.7471
 1009MOL0     C33082   8.474   0.410   5.966  0.2603 -0.5226 -0.1662
 1009MOL0     C33083   8.460   0.324   5.846 -0.4402  0.1843 -0.9314
 1009MOL0     C33084   8.424   0.190   5.864 -0.1424 -1.6528  0.9057
 1009MOL0     C33085   8.417   0.095   5.750 -0.5685 -0.2236  0.0941
 1009MOL0     O33086   8.357  -0.022   5.764 -0.5639 -0.3485 -0.3869
 1009MOL0     C33087   8.341  -0.119   5.669 -0.3784  0.2860 -0.1758
 1009MOL0     C33088   8.428  -0.132   5.565  0.2929  0.1323  0.7258
 1009MOL0     C33089   8.415  -0.244   5.474  0.0889  0.3610  0.0765
 1009MOL0     C33090   8.321  -0.344   5.497  0.4077  1.0298 -0.0749
 1009MOL0     O33091   8.316  -0.454   5.415  0.7103  0.1905 -0.6417
 1009MOL0     C33092   8.222  -0.561   5.438  0.2691  0.2836 -0.1122
 1009MOL0     C33093   8.240  -0.677   5.340  0.4760  0.0040 -0.9202
 1009MOL0     C33094   8.367  -0.757   5.385 -0.8198 -0.7903 -0.9576
 1009MOL0     C33095   8.476  -0.776   5.282  0.1466  0.3325  0.4252
 1009MOL0     C33096   8.547  -0.639   5.250  0.4547 -0.3779 -0.0541
 1009MOL0     C33097   8.569  -0.620   5.103  0.3151  1.0382  0.2900
 1009MOL0     C33098   8.666  -0.728   5.051 -0.5711 -0.1637 -0.5516
 1009MOL0     C33099   8.702  -0.713   4.900 -0.3499 -0.4827 -0.2851
 1009MOL0    Cl33100   8.817  -0.579   4.862  0.2850  0.1281  0.0481
 1009MOL0     C33101   8.234  -0.332   5.606 -0.9452  0.1571  0.0702
 1009MOL0     C33102   8.254  -0.227   5.691  1.0405  0.0261 -0.3221
 1009MOL0     O33103   8.468   0.137   5.652  0.2834 -0.3222 -0.1053
 1009MOL0     C33104   8.403   0.140   5.995 -1.1890  0.3744  0.9316
 1009MOL0     C33105   8.420   0.228   6.110  0.7381  0.0222 -0.0001
 1009MOL0     N33106   8.530   0.570   6.750  0.3213 -0.6116  0.5643
 1009MOL0     N33107   8.543   0.580   6.881 -1.6472  0.2320  0.0648
 1009MOL0     C33108   8.856   1.643   7.773 -0.4829  0.4700 -0.5907
 1009MOL0     C33109   8.902   1.774   7.787  0.3011  0.9300 -0.3903
 1009MOL0     C33110   9.098   2.146   7.560 -0.4229 -0.8717 -0.3711
 1009MOL0     C33111   9.118   2.197   7.427  0.6683 -1.1893  0.7327
 1009MOL0     C33112   9.141   2.331   7.411  1.0584  0.4207  0.6869
 1009MOL0     C33113   9.169   2.412   7.511  0.1003  0.2275 -0.9245
 1009MOL0     O33114   9.199   2.544   7.473 -0.5269 -0.5055 -0.4307
 1009MOL0     C33115   9.253   2.633   7.580 -0.7086  0.5653  0.8229
 1009MOL0     C33116   9.294   2.765   7.531 -0.1626 -0.1028 -0.1021
 1009MOL0     C33117   9.409   2.779   7.428 -0.2547 -0.2592  0.0039
 1009MOL0     C33118   9.446   2.922   7.380 -0.0767  1.2592  0.1461
 1009MOL0     C33119   9.492   2.992   7.502  0.2571  0.1791 -0.4609
 1009MOL0     C33120   9.536   3.039   7.604 -0.2118  0.2262  0.4976
 1009MOL0     C33121   9.157   2.365   7.640  0.8613 -0.6520 -0.8163
 1009MOL0     C33122   9.112   2.233   7.669 -0.6011  0.1805  0.2327
 1009MOL0     H33123   9.190   1.751   7.612  0.5474  0.5618  1.5724
 1009MOL0     H33124   9.126   1.507   7.606 -1.0573 -0.0942 -1.2505
 1009MOL0     H33125   8.968   1.325   7.530 -1.6596 -1.5496 -4.2217
 1009MOL0     H33126   8.822   1.421   7.493 -0.1512 -1.2198 -0.4656
 1009MOL0     H33127   8.697   1.235   7.628  2.3207  0.5342  4.1321
 1009MOL0     H33128   8.860   1.154   7.614  1.2412  3.7571  1.8255
 1009MOL0     H33129   8.854   1.156   7.369 -0.3435  0.4742  0.0564
 1009MOL0     H33130   8.697   1.250   7.375 -0.9063  1.3321  3.2879
 1009MOL0     H33131   8.740   0.959   7.468  1.5685  0.9795 -0.5107
 1009MOL0     H33132   8.594   1.045   7.446 -0.2167 -1.7729 -1.0200
 1009MOL0     H33133   8.784   0.997   7.211  0.1681  0.4757  0.7212
 1009MOL0     H33134   8.635   1.067   7.208 -1.5189 -1.2544  0.2569
 1009MOL0     H33135   8.521   0.860   7.293  1.3087 -3.2436  1.2165
 1009MOL0     H33136   8.679   0.792   7.309  1.1620  0.3252 -1.4593
 1009MOL0     H33137   8.664   0.883   7.037 -0.1417  0.0735  0.7357
 1009MOL0     H33138   8.679   0.717   7.092  0.5480 -0.1030 -3.5800
 1009MOL0     H33139   8.427   0.854   7.038 -1.4406 -0.3003 -1.2570
 1009MOL0     H33140   8.446   0.697   7.127 -1.2157  0.7017 -1.1120
 1009MOL0     H33141   8.385   0.852   6.813  1.9553  0.9294  4.8500
 1009MOL0     H33142   8.469   0.783   6.521  0.9000 -0.6134  1.1261
 1009MOL0     H33143   8.301   0.739   6.549 -0.0321 -3.9002 -5.2676
 1009MOL0     H33144   8.360   0.622   6.375  2.2540  1.0477 -1.0787
 1009MOL0     H33145   8.350   0.497   6.499  2.6967 -1.1047  0.8015
 1009MOL0     H33146   8.589   0.626   6.350  1.3768 -1.4795 -0.8455
 1009MOL0     H33147   8.622   0.522   6.491 -2.8618 -1.2548  3.3998
 1009MOL0     H33148   8.488   0.344   6.384 -1.2536  0.4442  0.2339
 1009MOL0     H33149   8.634   0.393   6.296  0.3199 -0.5955  3.1886
 1009MOL0     H33150   8.492   0.515   5.945  0.8307  0.1349  3.0866
 1009MOL0     H33151   8.470   0.360   5.744 -3.1856 -0.1810 -1.3979
 1009MOL0     H33152   8.500  -0.059   5.531 -0.1980  1.0630  1.6400
 1009MOL0     H33153   8.482  -0.262   5.390  0.9680  0.4114  0.7504
 1009MOL0     H33154   8.124  -0.515   5.425  0.9940  1.8295 -0.4281
 1009MOL0     H33155   8.233  -0.607   5.537 -0.9056 -1.0198 -0.5479
 1009MOL0     H33156   8.265  -0.640   5.241  2.3661  1.9704  0.2211
 1009MOL0     H33157   8.155  -0.746   5.333 -1.1253  1.3430  2.6892
 1009MOL0     H33158   8.334  -0.857   5.416  0.1496 -0.6035  0.7962
 1009MOL0     H33159   8.406  -0.721   5.480 -1.5467 -0.2404 -0.8583
 1009MOL0     H33160   8.547  -0.851   5.318  1.6352  1.5037  0.0206
 1009MOL0     H33161   8.432  -0.816   5.190 -2.2129  0.6729  1.3401
 1009MOL0     H33162   8.639  -0.642   5.308  1.6487  1.2601 -1.7454
 1009MOL0     H33163   8.493  -0.550   5.284  1.7769 -0.3278  2.0643
 1009MOL0     H33164   8.604  -0.519   5.083 -1.7634  1.7723  0.1618
 1009MOL0     H33165   8.474  -0.623   5.049  1.4093 -2.0077 -1.7564
 1009MOL0     H33166   8.746  -0.732   5.125 -1.8660  1.9601  1.0800
 1009MOL0     H33167   8.626  -0.830   5.060  0.6361 -0.5526  0.5218
 1009MOL0     H33168   8.616  -0.687   4.838  0.1234 -2.0067 -1.6292
 1009MOL0     H33169   8.743  -0.806   4.859  0.3944  0.5947 -2.0799
 1009MOL0     H33170   8.161  -0.406   5.637 -1.1000  1.1674  2.3437
 1009MOL0     H33171   8.181  -0.226   5.770 -1.2497 -0.2163 -2.3284
 1009MOL0     H33172   8.388   0.033   6.004 -0.6999 -0.1909 -3.2248
 1009MOL0     H33173   8.417   0.199   6.214  2.8596 -0.1241  0.0736
 1009MOL0     H33174   8.763   1.606   7.816 -0.1706 -1.5867 -1.5727
 1009MOL0     H33175   8.851   1.846   7.851 -1.3154  0.2779 -0.8860
 1009MOL0     H33176   9.110   2.128   7.344 -0.9634 -1.5930  1.1994
 1009MOL0     H33177   9.143   2.370   7.310  3.8620 -1.2854 -0.0508
 1009MOL0     H33178   9.344   2.590   7.623 -0.3092  0.7561  0.1920
 1009MOL0     H33179   9.191   2.652   7.668 -0.3429  3.6016  0.5141
 1009MOL0     H33180   9.209   2.817   7.485  0.1031  1.8100  1.4644
 1009MOL0     H33181   9.323   2.819   7.621 -0.4512 -1.4560  0.8267
 1009MOL0     H33182   9.379   2.722   7.340 -1.0598 -1.9719  1.3442
 1009MOL0     H33183   9.497   2.730   7.470 -1.5737 -1.2894  1.6940
 1009MOL0     H33184   9.528   2.919   7.307  0.9458 -1.6653  1.2556
 1009MOL0     H33185   9.353   2.966   7.345 -0.7774  1.2215  1.8626
 1009MOL0     H33186   9.575   3.084   7.693  1.8338  2.5119 -1.4067
 1009MOL0     H33187   9.172   2.431   7.724  0.1973  0.9782 -1.9346
 1009MOL0     H33188   9.104   2.210   7.774  2.5056 -2.6964  0.0046
 1010MOL0     O33189   2.754   0.374   2.593 -0.3195  0.1773 -0.8489
 1010MOL0     C33190   2.753   0.460   2.508  0.0742 -0.0404 -0.3168
 1010MOL0     O33191   2.682   0.444   2.391  0.0194  0.1927  0.1588
 1010MOL0     C33192   2.644   0.323   2.340 -0.4429 -0.0784  0.3960
 1010MOL0     C33193   2.535   0.256   2.404 -0.3305  0.2205 -0.2890
 1010MOL0     C33194   2.495   0.137   2.358 -0.6187  1.7502 -0.5983
 1010MOL0     C33195   2.560   0.063   2.263 -0.9700  0.0639  0.3700
 1010MOL0     O33196   2.530  -0.062   2.213 -0.3874 -0.0075 -0.0544
 1010MOL0     C33197   2.394  -0.082   2.175 -0.3505 -0.4928 -1.1060
 1010MOL0     C33198   2.393  -0.185   2.060 -0.3767 -0.0612  0.1015
 1010MOL0     C33199   2.242  -0.211   2.026  0.3010  0.0110  0.5600
 1010MOL0     C33200   2.224  -0.306   1.909 -1.7149 -0.5286  0.2045
 1010MOL0     C33201   2.078  -0.307   1.868 -0.6364  0.6527 -0.0115
 1010MOL0     C33202   2.018  -0.409   1.956  0.2662 -0.0306  0.6101
 1010MOL0     C33203   1.867  -0.411   1.961  0.5922 -0.3157 -0.4016
 1010MOL0     C33204   1.798  -0.275   1.990  0.0945  0.9930  0.4484
 1010MOL0     N33205   1.657  -0.285   2.024 -0.8551 -0.4990  0.4348
 1010MOL0     C33206   1.589  -0.196   2.105 -0.2399  0.6841  0.5365
 1010MOL0     C33207   1.459  -0.239   2.099 -0.3779 -0.5259 -1.3458
 1010MOL0     C33208   1.339  -0.195   2.184  0.3872  0.7072  1.4980
 1010MOL0     C33209   1.194  -0.232   2.124 -0.5542 -0.6622 -0.6295
 1010MOL0     C33210   1.081  -0.155   2.187 -1.4359 -0.1856  0.4262
 1010MOL0     C33211   1.086  -0.140   2.340 -0.3675 -0.1239 -0.3003
 1010MOL0     O33212   1.147  -0.018   2.361 -0.0296  0.1237 -0.5927
 1010MOL0     C33213   1.164   0.010   2.495  0.0604  0.1023  0.0372
 1010MOL0     C33214   1.110   0.129   2.548 -0.0168 -0.1745  0.9239
 1010MOL0     C33215   1.138   0.169   2.674 -0.0269  0.6450  1.0971
 1010MOL0     C33216   1.202   0.080   2.754  0.5474 -0.7544  1.2483
 1010MOL0     C33217   1.232   0.120   2.891 -0.5254 -0.2141  0.2231
 1010MOL0     O33218   1.172   0.240   2.929  0.0350  0.4727  0.6443
 1010MOL0     C33219   1.182   0.301   3.055  0.5985  0.3266 -0.0587
 1010MOL0     C33220   1.075   0.373   3.113 -1.1716 -0.5836 -0.4734
 1010MOL0     C33221   1.074   0.414   3.245  0.9083 -0.2919  0.0100
 1010MOL0     C33222   1.190   0.396   3.324  1.2609 -0.0584  0.0034
 1010MOL0     O33223   1.183   0.428   3.461 -0.4945  0.8624 -0.1642
 1010MOL0     C33224   1.303   0.480   3.515 -0.4847  0.0529  0.2533
 1010MOL0     C33225   1.289   0.631   3.537 -0.2312  0.8534  0.2495
 1010MOL0     C33226   1.212   0.666   3.662  0.1431 -0.6085 -0.1208
 1010MOL0     C33227   1.271   0.593   3.777  0.2512  0.2892 -0.3649
 1010MOL0     C33228   1.228   0.649   3.915 -0.5126  0.2831  1.0298
 1010MOL0     C33229   1.076   0.629   3.936  0.4197 -0.6309 -0.2161
 1010MOL0     C33230   1.028   0.670   4.079 -0.2141 -0.1400  0.3737
 1010MOL0     C33231   0.880   0.691   4.082  0.4854 -0.3509  0.7685
 1010MOL0    Cl33232   0.838   0.847   4.007  0.1077  0.0363 -0.0045
 1010MOL0     C33233   1.300   0.340   3.261 -0.4304  1.3495 -0.8331
 1010MOL0     C33234   1.302   0.291   3.129  0.0317  0.3397  0.6556
 1010MOL0     O33235   1.296   0.045   2.965  1.1329  0.2676 -0.4046
 1010MOL0     C33236   1.250  -0.041   2.700 -0.0356  0.5352 -1.0809
 1010MOL0     C33237   1.243  -0.078   2.569  0.1761  0.4150 -1.1895
 1010MOL0     N33238   1.458  -0.351   2.022  0.5888 -0.1785  0.7802
 1010MOL0     N33239   1.577  -0.385   1.971 -0.1497  0.2308  0.7055
 1010MOL0     C33240   2.675   0.125   2.202  0.1756 -0.6204 -1.0535
 1010MOL0     C33241   2.714   0.255   2.236  0.1839 -0.1221  0.1393
 1010MOL0     C33242   2.822   0.585   2.529 -0.0468 -0.3460  0.2783
 1010MOL0     C33243   2.851   0.633   2.660 -0.3953  0.5635 -0.2673
 1010MOL0     C33244   2.920   0.755   2.678 -0.2031  0.1716  0.7914
 1010MOL0     C33245   2.970   0.825   2.574 -0.1350 -0.2896 -0.1749
 1010MOL0     O33246   3.037   0.937   2.611 -0.4305  0.1039 -0.2662
 1010MOL0     C33247   3.118   1.015   2.518  0.0589  1.0251  0.6933
 1010MOL0     C33248   3.179   1.147   2.570  0.2698 -0.4204  1.0327
 1010MOL0     C33249   3.074   1.244   2.613  0.4218 -0.2079 -0.1009
 1010MOL0     C33250   3.006   1.220   2.743  0.3753 -0.2121 -0.6723
 1010MOL0     C33251   3.096   1.203   2.854  0.4034 -0.6783  0.5354
 1010MOL0     C33252   3.177   1.203   2.946 -0.0573 -0.3546 -0.8568
 1010MOL0     C33253   2.943   0.776   2.444  0.9941  0.0405 -1.1464
 1010MOL0     C33254   2.871   0.661   2.421 -0.2376 -0.1317  0.4678
 1010MOL0     H33255   2.484   0.302   2.488 -0.8577 -1.6766  0.4912
 1010MOL0     H33256   2.403   0.101   2.404  1.2532 -2.0134  0.5609
 1010MOL0     H33257   2.339   0.011   2.155 -1.1628 -0.1019  2.1866
 1010MOL0     H33258   2.339  -0.113   2.265 -0.3623  2.3083 -0.0318
 1010MOL0     H33259   2.441  -0.279   2.088 -2.5228 -0.5046  2.6699
 1010MOL0     H33260   2.438  -0.140   1.971 -0.0490  1.1762  0.8518
 1010MOL0     H33261   2.187  -0.119   2.007  0.7455  0.1071 -0.3291
 1010MOL0     H33262   2.197  -0.245   2.120 -0.2915 -2.1446 -0.4368
 1010MOL0     H33263   2.273  -0.273   1.817 -1.6387 -2.2079 -0.4065
 1010MOL0     H33264   2.277  -0.402   1.915  2.7475  1.7065  0.3598
 1010MOL0     H33265   2.070  -0.340   1.764  3.3865 -0.6632 -0.0613
 1010MOL0     H33266   2.029  -0.213   1.894 -1.6025 -0.6756  3.5053
 1010MOL0     H33267   2.053  -0.411   2.059 -0.3709 -3.1693  0.8452
 1010MOL0     H33268   2.046  -0.507   1.918  2.8926  0.6426  0.6283
 1010MOL0     H33269   1.812  -0.458   1.879 -2.0501 -0.2678  1.2267
 1010MOL0     H33270   1.842  -0.477   2.044 -1.3617 -1.1619 -1.5977
 1010MOL0     H33271   1.804  -0.207   1.904 -2.5654  1.1314  0.2971
 1010MOL0     H33272   1.855  -0.233   2.074 -0.5555 -1.2211  2.0834
 1010MOL0     H33273   1.627  -0.114   2.165 -0.7676  1.3686 -0.0355
 1010MOL0     H33274   1.338  -0.086   2.196 -0.2842  0.6815  1.7138
 1010MOL0     H33275   1.362  -0.238   2.282  1.3755 -1.4093  0.4089
 1010MOL0     H33276   1.173  -0.335   2.156 -2.3898  0.0990  0.8150
 1010MOL0     H33277   1.194  -0.227   2.015  1.2809  2.4747 -0.5896
 1010MOL0     H33278   1.083  -0.053   2.148 -1.4658  0.0209  0.9473
 1010MOL0     H33279   0.986  -0.204   2.165 -0.2605 -2.7618  0.8159
 1010MOL0     H33280   1.137  -0.220   2.394 -2.0441 -0.0243  1.5267
 1010MOL0     H33281   0.978  -0.140   2.358 -0.8588 -2.9822 -2.5558
 1010MOL0     H33282   1.061   0.200   2.482 -2.3931 -0.6052  2.1224
 1010MOL0     H33283   1.122   0.275   2.690  0.7603  1.1282 -0.9978
 1010MOL0     H33284   0.990   0.390   3.048 -0.3519  2.3894 -0.9224
 1010MOL0     H33285   0.982   0.457   3.285 -1.3542 -2.2526 -2.6852
 1010MOL0     H33286   1.388   0.482   3.446  0.6196  4.8093  1.3905
 1010MOL0     H33287   1.337   0.410   3.592  0.0288  0.0569  0.0367
 1010MOL0     H33288   1.233   0.676   3.455  1.7733 -0.2842 -1.8512
 1010MOL0     H33289   1.393   0.663   3.545  1.0344 -2.0524 -2.5702
 1010MOL0     H33290   1.110   0.633   3.641  0.4472 -1.0876 -0.8976
 1010MOL0     H33291   1.222   0.775   3.669  0.0894 -0.5734 -0.5622
 1010MOL0     H33292   1.243   0.488   3.780  0.0231  0.3735  1.0833
 1010MOL0     H33293   1.379   0.609   3.782  0.1460  0.6740  2.0099
 1010MOL0     H33294   1.260   0.754   3.919  1.1561 -0.2320  2.2733
 1010MOL0     H33295   1.283   0.603   3.997  1.7744  2.5429  0.8945
 1010MOL0     H33296   1.038   0.528   3.922  1.9467 -1.5277  1.5857
 1010MOL0     H33297   1.041   0.696   3.857  2.6890 -0.0888 -0.8594
 1010MOL0     H33298   1.045   0.578   4.137  2.3003  0.1351  0.1784
 1010MOL0     H33299   1.089   0.745   4.129 -0.4458 -1.6349  3.1220
 1010MOL0     H33300   0.846   0.702   4.185  1.0593  2.9735  0.6869
 1010MOL0     H33301   0.824   0.612   4.030 -0.4973  1.4583 -1.0804
 1010MOL0     H33302   1.391   0.322   3.317 -0.2204  0.7794 -1.3384
 1010MOL0     H33303   1.397   0.260   3.086 -0.4519 -1.8556  1.0927
 1010MOL0     H33304   1.300  -0.104   2.772 -1.9491 -1.1482 -1.1460
 1010MOL0     H33305   1.291  -0.162   2.519 -0.3971  0.8787 -2.5627
 1010MOL0     H33306   2.722   0.069   2.121 -2.0491 -4.8707  0.2917
 1010MOL0     H33307   2.790   0.310   2.182 -0.2588  0.7014  0.3356
 1010MOL0     H33308   2.824   0.573   2.747  2.3293  1.0836  1.0781
 1010MOL0     H33309   2.951   0.780   2.779 -0.2836 -0.5715  1.0031
 1010MOL0     H33310   3.056   1.039   2.431 -0.4928 -1.3251  0.3674
 1010MOL0     H33311   3.204   0.952   2.493 -0.3916 -0.4026  2.5602
 1010MOL0     H33312   3.250   1.125   2.650  1.3097 -3.5102 -0.5700
 1010MOL0     H33313   3.239   1.189   2.489  0.1937 -3.7197 -0.9231
 1010MOL0     H33314   2.995   1.249   2.537 -0.6255 -2.0378  0.8165
 1010MOL0     H33315   3.127   1.340   2.622  1.4102 -0.7960  0.5859
 1010MOL0     H33316   2.941   1.307   2.758  0.6446  0.1777 -1.6917
 1010MOL0     H33317   2.934   1.138   2.743  0.8619 -0.7264  1.9804
 1010MOL0     H33318   3.229   1.213   3.039 -0.6636  1.8730 -0.7091
 1010MOL0     H33319   2.985   0.838   2.365  1.7724  0.3830 -0.4813
 1010MOL0     H33320   2.835   0.648   2.320 -3.6073 -0.6569  1.6272
 1011MOL0     O33321   2.904  10.746   2.620  0.1055  0.1313 -0.6042
 1011MOL0     C33322   2.844  10.837   2.677  0.2000 -0.2390  0.4164
 1011MOL0     O33323   2.705  10.857   2.678 -0.7369  0.7407  0.0706
 1011MOL0     C33324   2.617  10.759   2.654  0.3971  0.6279 -0.0365
 1011MOL0     C33325   2.533  10.786   2.549 -0.6078  0.2339  0.3707
 1011MOL0     C33326   2.416  10.717   2.529  0.2647 -0.1937 -0.1296
 1011MOL0     C33327   2.381  10.602   2.606  0.1697 -0.2052  0.7794
 1011MOL0     O33328   2.262  10.536   2.598 -0.7790 -0.0209  0.7360
 1011MOL0     C33329   2.224  10.483   2.461 -0.2582  0.5782 -0.0942
 1011MOL0     C33330   2.096  10.406   2.473 -0.1906  0.4036 -0.5094
 1011MOL0     C33331   2.113  10.252   2.469  0.8188 -0.1046  0.7470
 1011MOL0     C33332   2.231  10.199   2.572 -0.1299  0.1093  0.1114
 1011MOL0     C33333   2.241  10.051   2.609 -0.9103  0.1493 -0.3574
 1011MOL0     C33334   2.112   9.988   2.655 -0.5566 -0.4218 -0.2613
 1011MOL0     C33335   2.137   9.853   2.714  0.7483  0.9405 -0.6871
 1011MOL0     C33336   2.132   9.739   2.613 -0.0265  0.1355  0.2384
 1011MOL0     N33337   2.187   9.620   2.679  1.0546 -0.6096  0.3971
 1011MOL0     C33338   2.135   9.561   2.790  0.3191  0.5930  0.3599
 1011MOL0     C33339   2.232   9.471   2.824 -0.0703  0.3571 -0.1578
 1011MOL0     C33340   2.226   9.356   2.923  0.0876  0.0431  0.5253
 1011MOL0     C33341   2.177   9.229   2.852 -0.7203 -0.1001  1.6173
 1011MOL0     C33342   2.151   9.107   2.933  0.1365  0.1792  0.5871
 1011MOL0     C33343   2.272   9.075   3.024  0.0747  0.3118  0.2123
 1011MOL0     O33344   2.282   9.174   3.133 -0.2279  0.7532  0.0003
 1011MOL0     C33345   2.407   9.169   3.196 -0.4863 -0.2699 -0.1580
 1011MOL0     C33346   2.498   9.061   3.207 -0.2383  0.0448 -0.3927
 1011MOL0     C33347   2.617   9.075   3.276 -0.3213  0.5272 -0.3189
 1011MOL0     C33348   2.649   9.189   3.343 -0.1443 -0.3983  0.0047
 1011MOL0     C33349   2.776   9.204   3.426  1.1309 -0.7963 -0.1283
 1011MOL0     O33350   2.790   9.318   3.504 -0.1610  0.7504 -0.6992
 1011MOL0     C33351   2.915   9.326   3.559 -0.4013 -0.0688  0.1232
 1011MOL0     C33352   2.944   9.274   3.682  0.3477 -0.6349  0.5807
 1011MOL0     C33353   3.073   9.275   3.732 -0.3284  0.8903  0.5179
 1011MOL0     C33354   3.174   9.316   3.649  0.0035  0.1905  0.4740
 1011MOL0     O33355   3.293   9.307   3.710  0.0566  0.0301  0.2362
 1011MOL0     C33356   3.422   9.345   3.660 -0.2745  0.2631  0.7047
 1011MOL0     C33357   3.472   9.490   3.669  0.4857 -1.0390  0.2619
 1011MOL0     C33358   3.473   9.539   3.815 -0.0597  0.3621  0.4996
 1011MOL0     C33359   3.558   9.660   3.834 -0.1794  0.2080 -0.6205
 1011MOL0     C33360   3.546   9.720   3.975  0.8410 -0.3050 -0.6918
 1011MOL0     C33361   3.431   9.815   3.978 -0.3386  1.0179  0.3843
 1011MOL0     C33362   3.411   9.880   4.117  0.6236 -0.3657 -0.9458
 1011MOL0     C33363   3.305   9.815   4.205 -0.5524 -0.7758 -0.3431
 1011MOL0    Cl33364   3.321   9.636   4.205  0.2128 -0.2198 -0.0802
 1011MOL0     C33365   3.146   9.376   3.529  0.5365  1.5611  0.3958
 1011MOL0     C33366   3.015   9.382   3.484 -0.1307  0.0108 -0.3284
 1011MOL0     O33367   2.865   9.128   3.391  0.4180 -0.0817 -0.1292
 1011MOL0     C33368   2.564   9.294   3.334 -0.0255 -1.0459  0.4463
 1011MOL0     C33369   2.444   9.284   3.259 -0.3751 -0.2958 -0.5162
 1011MOL0     N33370   2.333   9.478   2.730 -0.4518 -0.3432 -0.1400
 1011MOL0     N33371   2.319   9.586   2.661  0.5192  0.1776 -0.6497
 1011MOL0     C33372   2.479  10.559   2.707  0.4179 -0.3246  0.2898
 1011MOL0     C33373   2.589  10.640   2.730  0.0076  0.9151 -0.2912
 1011MOL0     C33374   2.925  10.935   2.747  0.5330 -0.0159  0.0090
 1011MOL0     C33375   2.856  11.045   2.809  0.1486  0.3410  0.1607
 1011MOL0     C33376   2.937  11.150   2.851  0.4099  0.3935 -0.4912
 1011MOL0     C33377   3.074  11.151   2.841  0.8625  0.6109  0.4563
 1011MOL0     O33378   3.130  11.271   2.880 -0.6795  0.8686 -0.4394
 1011MOL0     C33379   3.242  11.304   2.801 -0.8858  0.2278 -0.4230
 1011MOL0     C33380   3.269  11.456   2.824 -0.5551  0.7989  0.4381
 1011MOL0     C33381   3.306  11.481   2.966 -0.2939 -0.3591 -0.1345
 1011MOL0     C33382   3.440  11.426   3.009  0.7498  1.0542 -0.9473
 1011MOL0     C33383   3.457  11.462   3.152  0.2151  0.2796  0.1819
 1011MOL0     C33384   3.477  11.495   3.267 -0.0031 -0.8259  0.4235
 1011MOL0     C33385   3.136  11.049   2.780 -0.2176  0.2536  0.0421
 1011MOL0     C33386   3.063  10.941   2.732  0.4468  0.2139 -0.4707
 1011MOL0     H33387   2.555  10.880   2.499  1.6856 -1.8718 -3.0193
 1011MOL0     H33388   2.334  10.758   2.470 -1.2533 -1.1842  1.1973
 1011MOL0     H33389   2.298  10.412   2.423  0.2050  1.0582 -0.0919
 1011MOL0     H33390   2.209  10.565   2.391 -0.8562  1.7314  1.3350
 1011MOL0     H33391   2.026  10.444   2.398 -0.3704 -1.2029 -1.1897
 1011MOL0     H33392   2.050  10.415   2.571 -1.3043  0.4133 -1.0169
 1011MOL0     H33393   2.148  10.222   2.370  1.1039 -1.8750  1.3405
 1011MOL0     H33394   2.016  10.201   2.478  1.1287 -0.8534 -0.0009
 1011MOL0     H33395   2.325  10.227   2.525 -1.5303 -1.9475 -4.4488
 1011MOL0     H33396   2.220  10.260   2.662  2.0676 -0.2559  0.6827
 1011MOL0     H33397   2.319  10.032   2.684  0.6895  3.3159 -1.0204
 1011MOL0     H33398   2.273  10.001   2.517  2.6632  0.2371  0.6664
 1011MOL0     H33399   2.037   9.991   2.576 -1.5206  0.3935  0.6602
 1011MOL0     H33400   2.084  10.047   2.743  2.0681  0.0379  0.3397
 1011MOL0     H33401   2.234   9.847   2.765 -0.7703 -2.8688  2.2100
 1011MOL0     H33402   2.071   9.837   2.800  2.7256 -0.1897  0.7274
 1011MOL0     H33403   2.197   9.770   2.531 -1.2226 -0.8364 -1.1407
 1011MOL0     H33404   2.027   9.722   2.584 -1.3491  2.3590  3.1914
 1011MOL0     H33405   2.033   9.565   2.828 -0.6654  1.8730 -2.1578
 1011MOL0     H33406   2.152   9.385   2.998 -1.3541  0.7583 -1.0933
 1011MOL0     H33407   2.325   9.337   2.965  0.8778 -0.5387 -1.4605
 1011MOL0     H33408   2.254   9.195   2.783  0.4179  1.7355  1.9149
 1011MOL0     H33409   2.080   9.251   2.807  0.6519  1.0673 -0.9407
 1011MOL0     H33410   2.066   9.129   2.999 -1.7228 -1.4547 -1.1408
 1011MOL0     H33411   2.128   9.027   2.863 -0.1778  2.8723 -2.6439
 1011MOL0     H33412   2.363   9.075   2.963  0.0823  2.5237  0.1650
 1011MOL0     H33413   2.264   8.973   3.063 -2.3001 -0.4447 -1.9606
 1011MOL0     H33414   2.465   8.969   3.160  0.6724 -0.7897  0.5704
 1011MOL0     H33415   2.688   8.994   3.272  0.2868  1.0938 -1.2445
 1011MOL0     H33416   2.863   9.251   3.750  0.4816 -1.3959  0.4971
 1011MOL0     H33417   3.100   9.236   3.830  0.1092  1.3901  0.6026
 1011MOL0     H33418   3.426   9.316   3.554  0.7218  1.9388  0.2418
 1011MOL0     H33419   3.501   9.278   3.697 -0.3954 -0.1395  0.2523
 1011MOL0     H33420   3.419   9.566   3.611  0.4789 -2.0418 -1.1200
 1011MOL0     H33421   3.575   9.493   3.633 -0.5233  1.5989 -2.9424
 1011MOL0     H33422   3.518   9.474   3.890  2.9174  0.1412 -1.2988
 1011MOL0     H33423   3.371   9.572   3.834 -1.2660 -1.9677 -1.4517
 1011MOL0     H33424   3.664   9.637   3.827  0.1830  1.6239 -0.2712
 1011MOL0     H33425   3.537   9.743   3.765 -0.0176  1.6764  1.0056
 1011MOL0     H33426   3.634   9.783   3.994 -0.0571  1.6209 -2.4721
 1011MOL0     H33427   3.548   9.644   4.053  2.1070  2.9724  2.8348
 1011MOL0     H33428   3.338   9.760   3.960 -0.4758  2.2211 -3.4936
 1011MOL0     H33429   3.456   9.881   3.894  3.5664 -0.7083 -0.0694
 1011MOL0     H33430   3.509   9.882   4.165 -0.5942 -0.0671  1.7227
 1011MOL0     H33431   3.399   9.988   4.100  1.3920  0.0869  1.0957
 1011MOL0     H33432   3.207   9.849   4.169  1.3291  4.7228 -1.2887
 1011MOL0     H33433   3.315   9.857   4.305  0.3332 -1.7182 -0.0156
 1011MOL0     H33434   3.219   9.427   3.467 -1.5071  0.3431 -3.3522
 1011MOL0     H33435   2.998   9.438   3.393  0.9873 -0.4926 -0.8642
 1011MOL0     H33436   2.589   9.383   3.392 -2.7789 -0.4151  0.7767
 1011MOL0     H33437   2.366   9.360   3.255  1.0180  1.1625 -1.0036
 1011MOL0     H33438   2.455  10.466   2.757 -1.8511 -1.3705 -2.5027
 1011MOL0     H33439   2.651  10.600   2.810  0.4664  1.6439 -0.2738
 1011MOL0     H33440   2.749  11.063   2.804  0.5087  2.5257 -0.9082
 1011MOL0     H33441   2.900  11.230   2.915 -1.4723  0.1546 -1.2232
 1011MOL0     H33442   3.212  11.292   2.697 -1.3320  2.6989 -0.6479
 1011MOL0     H33443   3.333  11.247   2.823 -0.6306  0.8376  0.1580
 1011MOL0     H33444   3.341  11.486   2.747 -1.5535 -1.5019 -1.5498
 1011MOL0     H33445   3.174  11.509   2.807 -2.3026 -2.5928 -1.4042
 1011MOL0     H33446   3.226  11.443   3.030 -1.3036 -0.5623 -1.4722
 1011MOL0     H33447   3.302  11.590   2.982 -2.3148 -0.4796  0.4656
 1011MOL0     H33448   3.432  11.317   3.008  1.5979  0.9836 -1.8424
 1011MOL0     H33449   3.514  11.470   2.942 -0.5983  0.6053 -2.7981
 1011MOL0     H33450   3.493  11.531   3.367 -1.0123 -2.6945  1.3062
 1011MOL0     H33451   3.243  11.042   2.759 -0.4324  1.2141 -1.5682
 1011MOL0     H33452   3.116  10.854   2.697  0.1669 -0.7028  1.2816
 1012MOL0     O33453   9.814   1.241   2.072 -0.4066 -0.0780 -0.0161
 1012MOL0     C33454   9.927   1.240   2.123  0.6752 -0.5727 -0.1289
 1012MOL0     O33455  10.022   1.338   2.112 -0.2114  0.3153  0.7719
 1012MOL0     C33456   9.975   1.457   2.071  1.1051  0.6321  1.3594
 1012MOL0     C33457   9.908   1.476   1.947 -0.3046 -0.8491  0.4279
 1012MOL0     C33458   9.858   1.609   1.922  0.5854  0.0901  0.0700
 1012MOL0     C33459   9.892   1.709   2.018  0.1591 -0.1221  0.5280
 1012MOL0     O33460   9.881   1.842   1.988 -0.5208 -0.3049  0.3342
 1012MOL0     C33461   9.890   1.880   1.848 -0.1473  0.0178 -0.9118
 1012MOL0     C33462   9.938   2.022   1.841  0.5698  0.3532 -1.1052
 1012MOL0     C33463   9.895   2.091   1.712  0.0659  0.3380  0.1280
 1012MOL0     C33464   9.975   2.219   1.703 -0.2636 -0.6185 -0.5449
 1012MOL0     C33465   9.950   2.300   1.574  0.5004  0.5985  0.0469
 1012MOL0     C33466   9.803   2.343   1.572 -0.2796  0.6505 -0.3800
 1012MOL0     C33467   9.738   2.339   1.434  0.0082  0.1976  0.0751
 1012MOL0     C33468   9.719   2.194   1.387  0.0298  0.0327  0.9094
 1012MOL0     N33469   9.654   2.186   1.249 -0.0988  0.7007 -0.1291
 1012MOL0     C33470   9.714   2.234   1.131 -0.6602 -0.1532  0.5892
 1012MOL0     C33471   9.629   2.192   1.036 -0.0513  0.2925 -0.8784
 1012MOL0     C33472   9.642   2.208   0.890  0.5304 -0.0123  0.1116
 1012MOL0     C33473   9.694   2.072   0.819 -0.5101  0.2917  0.1665
 1012MOL0     C33474   9.630   2.060   0.687  0.5916 -1.5221  0.1959
 1012MOL0     C33475   9.706   1.952   0.603 -0.3144  0.5803  0.6341
 1012MOL0     O33476   9.704   1.816   0.661  0.9564 -0.4313  0.5978
 1012MOL0     C33477   9.584   1.750   0.663  0.2046 -0.3799 -0.3305
 1012MOL0     C33478   9.569   1.646   0.754 -0.0666  0.6590  0.0211
 1012MOL0     C33479   9.463   1.565   0.753 -0.8339 -0.2716 -0.0304
 1012MOL0     C33480   9.352   1.585   0.666 -0.2892 -0.5261 -0.9661
 1012MOL0     C33481   9.240   1.504   0.667  0.0132  0.4077  0.1516
 1012MOL0     O33482   9.145   1.525   0.569  0.1446  0.4469  0.9020
 1012MOL0     C33483   9.050   1.421   0.549  0.0011 -0.6867  1.1346
 1012MOL0     C33484   9.090   1.330   0.446 -0.0902  0.2764  0.1849
 1012MOL0     C33485   9.014   1.218   0.415 -0.4943 -0.8511  0.7683
 1012MOL0     C33486   8.888   1.198   0.480  0.4968  0.8894 -0.4924
 1012MOL0     O33487   8.807   1.098   0.427 -0.8307 -0.3577  0.0161
 1012MOL0     C33488   8.749   1.011   0.524 -0.5492  0.9067 -0.3141
 1012MOL0     C33489   8.667   0.893   0.458 -0.8860  0.7550  0.5304
 1012MOL0     C33490   8.761   0.778   0.406  0.2119  0.3203 -0.9475
 1012MOL0     C33491   8.695   0.641   0.378  0.5404  0.0443 -0.4991
 1012MOL0     C33492   8.802   0.538   0.334 -0.1634 -0.9112  0.0677
 1012MOL0     C33493   8.759   0.384   0.332 -1.0467  0.5200  0.3300
 1012MOL0     C33494   8.681   0.352   0.209 -0.0555  0.1596 -0.0346
 1012MOL0     C33495   8.618   0.206   0.219 -1.1549 -0.4770  0.6929
 1012MOL0    Cl33496   8.493   0.168   0.097  0.1319  0.0666 -0.5526
 1012MOL0     C33497   8.843   1.293   0.570  0.7649 -0.9770 -0.1631
 1012MOL0     C33498   8.924   1.406   0.605  0.1625  0.3692 -1.0247
 1012MOL0     O33499   9.226   1.421   0.758 -0.5815  0.5884  0.2728
 1012MOL0     C33500   9.365   1.684   0.567  0.0861 -0.9074  0.8844
 1012MOL0     C33501   9.478   1.769   0.569 -0.1318  0.1147 -0.3433
 1012MOL0     N33502   9.530   2.122   1.103  0.0119  0.0692 -0.3121
 1012MOL0     N33503   9.539   2.124   1.224 -0.7557 -0.5244  0.8392
 1012MOL0     C33504   9.967   1.676   2.130  0.4631 -0.0800  0.3469
 1012MOL0     C33505  10.006   1.551   2.164 -0.2134 -0.3073  0.1661
 1012MOL0     C33506   9.961   1.126   2.197 -0.3191  0.6526 -0.0206
 1012MOL0     C33507  10.069   1.112   2.286  0.3334 -0.6227  0.8816
 1012MOL0     C33508  10.091   0.992   2.358  0.3886  0.5790  0.8647
 1012MOL0     C33509  10.009   0.883   2.331 -0.2128 -0.5913  0.4438
 1012MOL0     O33510  10.037   0.767   2.394 -0.1037  0.2650  0.2505
 1012MOL0     C33511   9.973   0.758   2.527 -0.1955 -0.1112 -0.3892
 1012MOL0     C33512   9.931   0.620   2.550 -0.4945  0.4519 -0.5825
 1012MOL0     C33513   9.824   0.582   2.442 -0.4458  0.0683 -0.2258
 1012MOL0     C33514   9.759   0.452   2.464 -0.3488  0.3011 -0.5550
 1012MOL0     C33515   9.852   0.346   2.480 -0.1316  0.5939 -0.6301
 1012MOL0     C33516   9.930   0.260   2.493  1.1463  0.3022  0.1715
 1012MOL0     C33517   9.908   0.895   2.233 -0.1627  0.3023 -1.1756
 1012MOL0     C33518   9.884   1.006   2.170  0.1494 -0.1791 -0.2307
 1012MOL0     H33519   9.899   1.392   1.878  1.6417 -0.2217 -0.6863
 1012MOL0     H33520   9.806   1.649   1.835 -0.2485 -0.8728  0.1197
 1012MOL0     H33521   9.787   1.870   1.813 -0.4744 -1.6738  0.4121
 1012MOL0     H33522   9.954   1.812   1.792  1.3384  0.3961  0.2558
 1012MOL0     H33523  10.045   2.024   1.864  0.3234 -1.0804  0.3293
 1012MOL0     H33524   9.897   2.087   1.919  0.5606 -0.1830 -0.6564
 1012MOL0     H33525   9.787   2.096   1.700 -0.0207 -3.7764 -2.9659
 1012MOL0     H33526   9.925   2.037   1.622 -2.0866 -1.3416  0.3369
 1012MOL0     H33527   9.958   2.295   1.780  1.5392  3.6062 -3.9291
 1012MOL0     H33528  10.082   2.198   1.712  0.2299  1.6810 -0.4797
 1012MOL0     H33529   9.973   2.229   1.494 -0.5375  0.8970 -0.5385
 1012MOL0     H33530  10.009   2.392   1.574 -1.5910  2.0534 -1.7837
 1012MOL0     H33531   9.819   2.448   1.598 -1.1382 -0.0513  3.6864
 1012MOL0     H33532   9.745   2.304   1.656  2.0115  1.0472  1.5021
 1012MOL0     H33533   9.648   2.399   1.443  0.9485  1.5591  0.6361
 1012MOL0     H33534   9.799   2.388   1.359  0.7694 -0.9893 -0.1158
 1012MOL0     H33535   9.653   2.152   1.463 -0.7601  3.0999  2.0500
 1012MOL0     H33536   9.816   2.142   1.386  0.8454  1.4748 -1.0955
 1012MOL0     H33537   9.801   2.298   1.119 -0.0482 -1.5132 -5.2415
 1012MOL0     H33538   9.719   2.285   0.874  0.8436 -0.5736 -1.2852
 1012MOL0     H33539   9.549   2.247   0.848 -0.2627 -0.5674  1.3233
 1012MOL0     H33540   9.676   1.984   0.882 -2.5867  0.7369  0.2496
 1012MOL0     H33541   9.802   2.087   0.822 -0.5099  0.2588  0.3751
 1012MOL0     H33542   9.525   2.035   0.707  0.0272  0.2899 -0.3362
 1012MOL0     H33543   9.634   2.158   0.639 -0.5144 -0.4692  2.1120
 1012MOL0     H33544   9.811   1.985   0.601  0.5903 -2.0631  0.2804
 1012MOL0     H33545   9.677   1.954   0.497  0.0185 -0.0954  0.5228
 1012MOL0     H33546   9.644   1.630   0.831  1.3366  0.7378 -1.2769
 1012MOL0     H33547   9.450   1.480   0.820 -1.2796  0.7300  1.1842
 1012MOL0     H33548   9.179   1.349   0.387 -1.2957 -1.3028 -2.3303
 1012MOL0     H33549   9.041   1.145   0.339  0.2112 -0.0196  0.1856
 1012MOL0     H33550   8.675   1.055   0.590  0.1705 -2.4822  3.1127
 1012MOL0     H33551   8.818   0.976   0.602 -1.4339  1.7879  0.8911
 1012MOL0     H33552   8.610   0.925   0.370  1.4718 -0.2397 -1.4881
 1012MOL0     H33553   8.599   0.846   0.529 -2.6369 -1.9018 -2.6108
 1012MOL0     H33554   8.843   0.773   0.479  2.9777  4.9059 -3.2314
 1012MOL0     H33555   8.815   0.828   0.325 -0.1183 -0.5368 -1.7155
 1012MOL0     H33556   8.647   0.613   0.472 -0.8427  2.8856 -0.2398
 1012MOL0     H33557   8.614   0.657   0.306  0.1924 -0.9293 -0.3295
 1012MOL0     H33558   8.888   0.549   0.401  0.9424 -1.4927 -1.2061
 1012MOL0     H33559   8.826   0.572   0.232 -5.1215  0.6980 -0.8018
 1012MOL0     H33560   8.704   0.376   0.427  1.2096  1.8423  1.8568
 1012MOL0     H33561   8.846   0.320   0.343 -0.3623  1.4933  0.7731
 1012MOL0     H33562   8.597   0.422   0.207 -0.8222 -0.7129  0.6172
 1012MOL0     H33563   8.734   0.359   0.113  6.1736 -2.6707  2.6305
 1012MOL0     H33564   8.560   0.211   0.312  1.2411  1.8203  2.2130
 1012MOL0     H33565   8.690   0.125   0.228  0.9316  1.2299  0.0871
 1012MOL0     H33566   8.742   1.266   0.597  0.6775 -3.0705 -2.1928
 1012MOL0     H33567   8.895   1.477   0.682  3.3478 -0.1293  0.8201
 1012MOL0     H33568   9.294   1.699   0.486 -0.2286 -0.4320  1.2437
 1012MOL0     H33569   9.477   1.842   0.489 -3.1996 -2.5088 -2.9770
 1012MOL0     H33570   9.993   1.758   2.197 -2.0299  1.0114  0.0964
 1012MOL0     H33571  10.053   1.527   2.259  0.6312 -3.9542 -1.0009
 1012MOL0     H33572  10.146   1.186   2.305 -0.4899  0.1558  1.2686
 1012MOL0     H33573  10.169   0.987   2.433  1.9781 -0.2265 -0.7574
 1012MOL0     H33574   9.878   0.814   2.524 -2.4385 -3.4996  1.2359
 1012MOL0     H33575  10.036   0.790   2.610 -0.6291  0.4010 -0.2487
 1012MOL0     H33576  10.021   0.561   2.539  1.4916  3.0212  0.7158
 1012MOL0     H33577   9.894   0.602   2.652  0.6928  2.5427  0.2884
 1012MOL0     H33578   9.876   0.578   2.345  0.3723  2.2558  0.0508
 1012MOL0     H33579   9.740   0.652   2.448 -0.9079 -0.1890 -2.5843
 1012MOL0     H33580   9.699   0.451   2.556 -1.3570 -3.1716 -1.1005
 1012MOL0     H33581   9.691   0.422   2.384  1.3671 -3.0033 -0.9794
 1012MOL0     H33582  10.012   0.190   2.494 -1.4475 -3.0352 -0.2106
 1012MOL0     H33583   9.843   0.812   2.207  0.6716 -0.3456 -1.2364
 1012MOL0     H33584   9.802   0.989   2.102 -1.8617 -1.9989  2.4695
 1013MOL0     O33585   2.679   1.383   6.269 -0.9254  0.5541  0.1053
 1013MOL0     C33586   2.689   1.317   6.167 -0.3818 -0.0780  0.6852
 1013MOL0     O33587   2.588   1.248   6.102  1.0037 -0.4494  0.4737
 1013MOL0     C33588   2.464   1.203   6.157 -0.1158 -0.5756  0.1705
 1013MOL0     C33589   2.357   1.178   6.071  0.4310 -0.3443  0.8090
 1013MOL0     C33590   2.225   1.153   6.103 -0.4711  1.2325 -0.9174
 1013MOL0     C33591   2.185   1.161   6.240 -0.4871 -0.7537  0.1244
 1013MOL0     O33592   2.058   1.133   6.281  0.3274 -0.6269  0.1133
 1013MOL0     C33593   1.991   1.240   6.342  0.2071 -0.2703  0.3528
 1013MOL0     C33594   1.842   1.201   6.365 -0.0120  0.5129 -0.1595
 1013MOL0     C33595   1.754   1.314   6.409  0.2563 -0.9809  0.7535
 1013MOL0     C33596   1.727   1.426   6.308 -0.3530  0.1858  0.2413
 1013MOL0     C33597   1.610   1.512   6.365 -0.4082  0.5700  0.9472
 1013MOL0     C33598   1.628   1.594   6.491 -1.4712  1.0741 -0.2914
 1013MOL0     C33599   1.507   1.680   6.537 -0.2616 -0.3263  0.1382
 1013MOL0     C33600   1.542   1.767   6.649 -0.6824  0.0100 -0.0957
 1013MOL0     N33601   1.430   1.843   6.702  0.7995 -0.0084  0.2522
 1013MOL0     C33602   1.381   1.965   6.647  0.5545  0.5142  0.6769
 1013MOL0     C33603   1.265   1.990   6.709  0.0473  0.4949 -0.9222
 1013MOL0     C33604   1.211   2.124   6.706 -0.6372 -0.4698 -0.3337
 1013MOL0     C33605   1.160   2.151   6.565  0.3715 -0.1377 -1.5571
 1013MOL0     C33606   1.251   2.219   6.465 -0.7067  0.1726 -0.8287
 1013MOL0     C33607   1.178   2.263   6.339 -0.2960 -0.2584 -0.4310
 1013MOL0     O33608   1.065   2.353   6.375  0.2377  0.8704 -0.5066
 1013MOL0     C33609   0.966   2.371   6.277  0.5917 -0.8184 -0.0072
 1013MOL0     C33610   0.837   2.413   6.321  0.5041 -0.2431 -0.6065
 1013MOL0     C33611   0.726   2.426   6.232 -0.5297 -0.0105 -0.4426
 1013MOL0     C33612   0.751   2.428   6.093 -0.5307 -0.5515  0.0237
 1013MOL0     C33613   0.644   2.472   5.992 -0.8496  0.2599  0.1990
 1013MOL0     O33614   0.682   2.453   5.862  0.3333  0.3930  0.5285
 1013MOL0     C33615   0.584   2.486   5.774 -0.6327 -0.5374 -0.7020
 1013MOL0     C33616   0.464   2.421   5.768 -0.0893  0.0215  0.2616
 1013MOL0     C33617   0.381   2.432   5.653 -0.1413 -0.2149 -0.1250
 1013MOL0     C33618   0.427   2.501   5.540  0.2592  0.2760  0.0940
 1013MOL0     O33619   0.344   2.497   5.431  0.3614 -0.5279  0.4094
 1013MOL0     C33620   0.413   2.486   5.302  0.6824  1.0926 -0.7797
 1013MOL0     C33621   0.374   2.604   5.193 -0.4238  0.1907 -0.8207
 1013MOL0     C33622   0.474   2.721   5.188  0.7014  0.5827 -0.5215
 1013MOL0     C33623   0.463   2.813   5.060  0.1475  0.2768  0.6339
 1013MOL0     C33624   0.490   2.733   4.927  0.1396  1.0410  0.0849
 1013MOL0     C33625   0.605   2.634   4.930  0.2205  1.0237  0.3486
 1013MOL0     C33626   0.644   2.592   4.789  0.8822 -0.6588  0.3783
 1013MOL0     C33627   0.737   2.692   4.721 -0.7549 -0.1169 -0.1342
 1013MOL0    Cl33628   0.793   2.629   4.572  0.1464 -0.4197  0.6312
 1013MOL0     C33629   0.548   2.583   5.547 -0.0388 -0.1630 -0.7876
 1013MOL0     C33630   0.626   2.565   5.669 -0.0714 -0.2369 -0.1520
 1013MOL0     O33631   0.546   2.537   6.030 -0.3690  0.2355  0.0139
 1013MOL0     C33632   0.881   2.390   6.053  0.8145 -0.3165 -0.4850
 1013MOL0     C33633   0.984   2.351   6.139  0.3069  0.5929 -0.7153
 1013MOL0     N33634   1.233   1.878   6.788 -0.9765  0.4232  0.1736
 1013MOL0     N33635   1.333   1.789   6.786 -0.7724 -0.6118 -0.4576
 1013MOL0     C33636   2.296   1.172   6.330  0.5044 -0.2015  0.3384
 1013MOL0     C33637   2.424   1.194   6.288 -0.1639 -0.2318 -0.6575
 1013MOL0     C33638   2.813   1.334   6.081 -0.9173 -0.0166 -0.0348
 1013MOL0     C33639   2.917   1.420   6.121 -0.5873 -1.1992  1.0633
 1013MOL0     C33640   3.020   1.459   6.037 -0.1588  0.6227  0.6518
 1013MOL0     C33641   3.026   1.400   5.906  0.5793 -0.6840 -0.5499
 1013MOL0     O33642   3.136   1.420   5.827  0.2286 -0.3484  0.4977
 1013MOL0     C33643   3.223   1.300   5.819 -0.5158 -1.1796 -0.8510
 1013MOL0     C33644   3.335   1.312   5.925 -0.0532  0.8205  0.2853
 1013MOL0     C33645   3.442   1.421   5.922 -0.9793 -0.6813  0.4364
 1013MOL0     C33646   3.509   1.441   5.785  0.5604 -0.0682  0.8475
 1013MOL0     C33647   3.565   1.310   5.745 -0.3481  0.6108 -0.4845
 1013MOL0     C33648   3.602   1.199   5.720  0.6195  0.7109  0.5135
 1013MOL0     C33649   2.916   1.316   5.864 -0.1147  0.3338  0.3828
 1013MOL0     C33650   2.818   1.284   5.952  0.2058 -0.4972 -0.2054
 1013MOL0     H33651   2.388   1.182   5.967  0.5033  2.4744  0.8627
 1013MOL0     H33652   2.155   1.127   6.025  0.5914  1.0936 -1.8479
 1013MOL0     H33653   2.004   1.332   6.283  1.2985 -0.6689 -0.0573
 1013MOL0     H33654   2.047   1.272   6.430  1.8922  0.5443 -0.9352
 1013MOL0     H33655   1.842   1.127   6.445  1.7735 -0.1168 -0.7009
 1013MOL0     H33656   1.807   1.153   6.273  1.3159  4.1960 -2.8042
 1013MOL0     H33657   1.800   1.363   6.495 -0.7153  1.3988  0.0049
 1013MOL0     H33658   1.662   1.264   6.439 -0.0365  0.0434  1.6303
 1013MOL0     H33659   1.819   1.479   6.284  1.1546 -2.8535 -1.2150
 1013MOL0     H33660   1.689   1.383   6.215  0.2670  3.9420 -1.9348
 1013MOL0     H33661   1.533   1.435   6.376  0.8132 -1.5854 -3.3659
 1013MOL0     H33662   1.563   1.572   6.287  0.4824  2.5058  1.8313
 1013MOL0     H33663   1.716   1.654   6.467 -0.2114  0.7917  3.1684
 1013MOL0     H33664   1.662   1.521   6.565  2.1935  0.2311 -2.5218
 1013MOL0     H33665   1.474   1.753   6.462  2.1884  3.1967  2.1814
 1013MOL0     H33666   1.428   1.608   6.560  1.9231 -3.1704 -0.5948
 1013MOL0     H33667   1.626   1.834   6.626 -1.3872  0.7834 -0.4230
 1013MOL0     H33668   1.577   1.706   6.733 -3.4639 -0.0571  1.0974
 1013MOL0     H33669   1.438   2.034   6.586 -2.0378  2.0516 -0.1550
 1013MOL0     H33670   1.298   2.187   6.726  0.4519 -2.0070 -0.0093
 1013MOL0     H33671   1.133   2.130   6.782  0.9876 -1.2051  1.4965
 1013MOL0     H33672   1.067   2.207   6.577  0.1392 -1.0619  2.2878
 1013MOL0     H33673   1.129   2.059   6.516 -1.0277  0.0427 -1.0604
 1013MOL0     H33674   1.286   2.313   6.508  2.5062 -1.5749  0.6749
 1013MOL0     H33675   1.342   2.162   6.447 -0.3324 -0.3681  2.1911
 1013MOL0     H33676   1.146   2.173   6.285  4.5983 -2.7413  0.3163
 1013MOL0     H33677   1.253   2.319   6.283  1.4769 -1.2054  0.9170
 1013MOL0     H33678   0.826   2.412   6.429  2.9788  0.0621 -0.3041
 1013MOL0     H33679   0.624   2.450   6.258 -0.7302  2.8666 -3.2621
 1013MOL0     H33680   0.436   2.346   5.841 -1.2956  0.4910  0.2975
 1013MOL0     H33681   0.292   2.371   5.643 -0.0980 -0.2738 -0.1456
 1013MOL0     H33682   0.378   2.392   5.259  2.7912 -0.6858  1.1533
 1013MOL0     H33683   0.521   2.485   5.320  0.6387 -1.1035 -0.3308
 1013MOL0     H33684   0.269   2.628   5.215 -0.0073  1.3629  0.0319
 1013MOL0     H33685   0.374   2.557   5.095  0.4467  1.9048 -1.6748
 1013MOL0     H33686   0.580   2.694   5.185  1.3655  3.0395 -2.2582
 1013MOL0     H33687   0.454   2.768   5.285 -1.5548  2.1603 -1.6645
 1013MOL0     H33688   0.366   2.863   5.051 -0.2619 -0.3155  1.6182
 1013MOL0     H33689   0.531   2.898   5.073 -0.4563  1.1474 -1.4703
 1013MOL0     H33690   0.503   2.817   4.858  1.2370  0.0956 -0.8977
 1013MOL0     H33691   0.409   2.666   4.898  2.4481 -2.0791  0.3823
 1013MOL0     H33692   0.581   2.543   4.985  2.0040  0.6442  0.5818
 1013MOL0     H33693   0.693   2.672   4.983 -0.6519  1.0727  1.7856
 1013MOL0     H33694   0.679   2.489   4.779  2.2525 -0.0626 -1.2872
 1013MOL0     H33695   0.561   2.603   4.719  3.0527 -1.4749 -2.5306
 1013MOL0     H33696   0.821   2.721   4.785 -1.0511 -0.7452  0.5537
 1013MOL0     H33697   0.682   2.786   4.709 -1.9358 -0.0890  3.8668
 1013MOL0     H33698   0.591   2.638   5.463  2.3468  1.6891  1.4846
 1013MOL0     H33699   0.729   2.599   5.662  0.9808 -3.4305 -2.4366
 1013MOL0     H33700   0.915   2.390   5.950  0.9663 -3.6474 -0.5505
 1013MOL0     H33701   1.075   2.313   6.094 -0.6578 -0.2809 -1.9988
 1013MOL0     H33702   2.277   1.186   6.436  0.3431  0.0825  0.2723
 1013MOL0     H33703   2.496   1.222   6.363  0.5000 -0.1655 -1.3063
 1013MOL0     H33704   2.912   1.449   6.226 -0.5907 -0.9694  1.0001
 1013MOL0     H33705   3.101   1.521   6.073  0.7262 -2.5265  4.7941
 1013MOL0     H33706   3.268   1.294   5.719  1.6731  0.0750 -0.0083
 1013MOL0     H33707   3.164   1.208   5.830 -0.3770 -1.1934 -0.1807
 1013MOL0     H33708   3.281   1.326   6.019  2.8772 -0.5068  2.3214
 1013MOL0     H33709   3.373   1.210   5.933 -1.5066  0.3499  1.7312
 1013MOL0     H33710   3.519   1.395   5.994 -1.6222 -1.8188  0.7356
 1013MOL0     H33711   3.399   1.516   5.957 -0.2652  0.8759 -2.6023
 1013MOL0     H33712   3.439   1.477   5.709  1.9744  0.3291 -0.3236
 1013MOL0     H33713   3.590   1.513   5.795  1.7712 -0.7330 -2.7543
 1013MOL0     H33714   3.616   1.098   5.687 -1.2692  0.8333 -0.8301
 1013MOL0     H33715   2.926   1.278   5.763 -1.8370  0.8830 -0.0206
 1013MOL0     H33716   2.733   1.230   5.912 -1.0483  0.8557  0.5858
 1014MOL0     O33717   6.485   3.476  10.635  0.2574 -0.1937 -0.5121
 1014MOL0     C33718   6.397   3.526  10.565 -0.0280 -0.1022  0.7180
 1014MOL0     O33719   6.341   3.647  10.585  0.2650 -0.1653  0.5286
 1014MOL0     C33720   6.355   3.723  10.700 -0.2115  0.8999  0.0067
 1014MOL0     C33721   6.338   3.665  10.833  0.1021  0.1131  0.2784
 1014MOL0     C33722   6.374   3.755  10.941  0.0592  0.3653  0.5195
 1014MOL0     C33723   6.426   3.880  10.924  0.1150  0.5516  0.2856
 1014MOL0     O33724   6.475   3.931  11.046  0.5944  0.5064 -0.3593
 1014MOL0     C33725   6.591   4.005  11.042  0.0037  0.2757 -0.6722
 1014MOL0     C33726   6.632   4.036  11.183 -0.1154 -0.3401 -1.1430
 1014MOL0     C33727   6.687   3.920  11.278 -0.2741  0.5762 -0.3959
 1014MOL0     C33728   6.706   3.988  11.414 -0.2989  0.3296 -0.5667
 1014MOL0     C33729   6.695   3.891  11.531 -0.1538 -0.1008  0.4696
 1014MOL0     C33730   6.678   3.970  11.654  0.0382 -0.2162  0.7679
 1014MOL0     C33731   6.665   3.889  11.786 -0.8652 -0.6499 -0.3798
 1014MOL0     C33732   6.791   3.891  11.865  0.3369 -0.5125  0.1407
 1014MOL0     N33733   6.839   4.022  11.921 -0.0018  0.4426 -0.5766
 1014MOL0     C33734   6.961   4.050  11.977 -0.3736 -0.7339  0.1039
 1014MOL0     C33735   6.937   4.145  12.073 -0.1576 -1.0824 -0.1697
 1014MOL0     C33736   7.036   4.195  12.175  0.2668 -0.5940 -1.5207
 1014MOL0     C33737   7.086   4.085  12.265 -0.2653 -0.5757 -1.0099
 1014MOL0     C33738   7.207   4.138  12.352 -0.1066  0.1043 -0.6014
 1014MOL0     C33739   7.327   4.141  12.253  1.0794 -0.5571  0.4502
 1014MOL0     O33740   7.462   4.140  12.314  0.1526 -0.5106 -0.7596
 1014MOL0     C33741   7.569   4.090  12.236 -0.1077  0.4701  0.6982
 1014MOL0     C33742   7.565   4.062  12.095  0.5360  0.4928 -0.3677
 1014MOL0     C33743   7.682   4.028  12.030 -0.0194 -0.4831 -0.0745
 1014MOL0     C33744   7.798   4.028  12.098  0.2383 -0.6388 -0.7145
 1014MOL0     C33745   7.933   4.006  12.041 -0.2062 -0.7176  0.2369
 1014MOL0     O33746   8.042   4.018  12.126 -0.2330  0.0312 -0.1466
 1014MOL0     C33747   8.172   4.015  12.078  0.7279 -0.0828 -0.7944
 1014MOL0     C33748   8.249   4.135  12.059 -0.2165 -0.8347  0.5096
 1014MOL0     C33749   8.381   4.127  12.004 -0.0541  0.4979 -0.4588
 1014MOL0     C33750   8.436   3.995  11.965  1.5614 -0.0311  0.7773
 1014MOL0     O33751   8.556   3.985  11.897  0.2717  0.3704  0.0136
 1014MOL0     C33752   8.604   3.852  11.868 -0.2057 -0.3700  0.2847
 1014MOL0     C33753   8.741   3.874  11.805 -0.4259 -1.0446  0.3911
 1014MOL0     C33754   8.855   3.903  11.910 -0.1507 -0.4043  0.0375
 1014MOL0     C33755   9.000   3.912  11.845  0.3753 -0.0276  0.9254
 1014MOL0     C33756   9.076   3.779  11.844 -0.1250 -0.0984 -0.6561
 1014MOL0     C33757   9.236   3.793  11.863  0.0870  0.5324  1.5276
 1014MOL0     C33758   9.266   3.832  12.011  1.4828  1.4839  0.6597
 1014MOL0     C33759   9.407   3.876  12.040  0.1767  0.1214  1.0828
 1014MOL0    Cl33760   9.511   3.726  12.030 -0.1777  0.6576 -0.5693
 1014MOL0     C33761   8.355   3.884  11.985  0.4365 -0.2975  0.4751
 1014MOL0     C33762   8.233   3.894  12.052  0.2219 -0.5646  0.1048
 1014MOL0     O33763   7.939   3.987  11.920  0.7204  0.3797 -0.4602
 1014MOL0     C33764   7.795   4.031  12.237  0.2807 -0.5120 -0.2059
 1014MOL0     C33765   7.684   4.063  12.303 -0.7132 -0.2015  0.3996
 1014MOL0     N33766   6.810   4.190  12.052  0.8851  1.0267  0.7645
 1014MOL0     N33767   6.750   4.119  11.962  0.1204 -0.6319  0.0974
 1014MOL0     C33768   6.437   3.930  10.797 -0.9789 -0.1248  0.1900
 1014MOL0     C33769   6.399   3.854  10.689 -0.5314 -0.0587  0.3694
 1014MOL0     C33770   6.333   3.448  10.456 -0.6642 -0.5146 -0.0816
 1014MOL0     C33771   6.359   3.306  10.439  0.7217  0.3573 -0.5471
 1014MOL0     C33772   6.271   3.241  10.355  0.7979  0.3318  0.5861
 1014MOL0     C33773   6.167   3.297  10.277  0.1802 -0.3634 -0.9021
 1014MOL0     O33774   6.097   3.226  10.186  0.5835  0.7880  0.3342
 1014MOL0     C33775   5.989   3.291  10.121  0.3313  0.4482  0.4085
 1014MOL0     C33776   5.892   3.206  10.040  0.0032  0.3991  1.3069
 1014MOL0     C33777   5.817   3.110  10.133 -0.1669 -0.5344 -0.8641
 1014MOL0     C33778   5.770   2.982  10.073  0.0617  0.4897  0.8769
 1014MOL0     C33779   5.636   2.946  10.127 -0.4728  0.0743  0.1389
 1014MOL0     C33780   5.534   2.899  10.169  0.3817  0.6793 -0.0528
 1014MOL0     C33781   6.149   3.434  10.298  0.7317  0.1904  0.4978
 1014MOL0     C33782   6.232   3.509  10.381 -0.4705  0.3044  0.7610
 1014MOL0     H33783   6.326   3.558  10.845 -2.1874  0.3997  0.9249
 1014MOL0     H33784   6.370   3.704  11.037 -1.3728 -2.8801 -1.0933
 1014MOL0     H33785   6.568   4.096  10.985 -1.6814 -0.8462 -1.8904
 1014MOL0     H33786   6.674   3.946  11.003  1.4777  0.8789  1.4077
 1014MOL0     H33787   6.540   4.072  11.231  2.7319  1.6031  3.6205
 1014MOL0     H33788   6.704   4.119  11.184  0.0510 -0.4044  1.9958
 1014MOL0     H33789   6.784   3.892  11.238 -1.3918 -1.0341 -2.1614
 1014MOL0     H33790   6.628   3.828  11.285 -1.1569  1.0096 -1.8326
 1014MOL0     H33791   6.803   4.039  11.418  0.2602 -0.7758  0.6725
 1014MOL0     H33792   6.631   4.068  11.423 -0.2775  0.1794  1.5242
 1014MOL0     H33793   6.783   3.826  11.528 -1.1534 -1.4673 -0.0548
 1014MOL0     H33794   6.607   3.829  11.512  1.8774 -3.5732  1.5633
 1014MOL0     H33795   6.583   4.023  11.649 -0.0058  0.1635  3.8401
 1014MOL0     H33796   6.756   4.046  11.663  0.3474 -0.5793  1.2313
 1014MOL0     H33797   6.590   3.931  11.854 -0.1401 -0.8095  0.5441
 1014MOL0     H33798   6.629   3.787  11.770  1.5566 -1.2181 -3.0245
 1014MOL0     H33799   6.870   3.842  11.808 -0.1114 -2.5788  1.1778
 1014MOL0     H33800   6.778   3.823  11.950 -1.1391 -2.8012 -1.7667
 1014MOL0     H33801   7.053   4.004  11.944 -0.6126 -1.3830  0.3260
 1014MOL0     H33802   6.984   4.262  12.245  1.4288  0.7988 -1.9648
 1014MOL0     H33803   7.110   4.254  12.121 -2.5838  0.7831 -4.2667
 1014MOL0     H33804   7.111   3.993  12.211 -3.2059 -2.9282  1.2980
 1014MOL0     H33805   7.014   4.057  12.341 -2.2990  1.8841 -1.8716
 1014MOL0     H33806   7.189   4.232  12.404 -1.8248 -2.0542  3.0779
 1014MOL0     H33807   7.234   4.060  12.424  1.4047 -0.4699 -1.7461
 1014MOL0     H33808   7.303   4.233  12.198 -0.0469 -0.8444  0.4340
 1014MOL0     H33809   7.320   4.055  12.186 -2.0615 -0.5621  0.6463
 1014MOL0     H33810   7.469   4.058  12.044  0.5802  2.5143 -0.7013
 1014MOL0     H33811   7.667   4.014  11.923  2.2369  1.2661 -0.6897
 1014MOL0     H33812   8.217   4.237  12.073  1.3425  0.1729 -2.5184
 1014MOL0     H33813   8.454   4.207  11.996  0.6131  0.0722  1.0490
 1014MOL0     H33814   8.545   3.800  11.792  4.1233 -4.4584 -0.7335
 1014MOL0     H33815   8.605   3.781  11.951 -0.8407  2.7269  3.1570
 1014MOL0     H33816   8.731   3.955  11.732  1.4497 -0.8804  0.2651
 1014MOL0     H33817   8.771   3.784  11.752  0.7141 -0.3062 -0.2705
 1014MOL0     H33818   8.849   3.832  11.994 -0.0293 -0.7418 -0.2387
 1014MOL0     H33819   8.821   4.001  11.946 -0.9946 -0.9458  0.7577
 1014MOL0     H33820   8.987   3.953  11.745 -2.2793 -0.1664  1.1537
 1014MOL0     H33821   9.053   3.988  11.903 -3.7572  3.6650  0.3760
 1014MOL0     H33822   9.056   3.756  11.739 -1.0278  2.4673 -1.1207
 1014MOL0     H33823   9.038   3.702  11.912 -3.3662 -0.3286 -2.5052
 1014MOL0     H33824   9.284   3.865  11.796  1.3488 -0.1405  1.6724
 1014MOL0     H33825   9.273   3.693  11.836 -1.7338  0.1146  0.4472
 1014MOL0     H33826   9.202   3.911  12.050 -1.6561 -0.2584 -0.6034
 1014MOL0     H33827   9.247   3.740  12.067  1.5214 -0.8029 -2.7454
 1014MOL0     H33828   9.407   3.928  12.136 -2.7624  4.6178 -1.0283
 1014MOL0     H33829   9.437   3.948  11.963 -0.3920  0.2270  0.9557
 1014MOL0     H33830   8.392   3.787  11.955  1.8519  0.1088  0.8122
 1014MOL0     H33831   8.199   3.798  12.090 -4.8605  1.3923  1.3771
 1014MOL0     H33832   7.888   4.016  12.292 -0.9354 -1.2730  1.7474
 1014MOL0     H33833   7.678   4.087  12.409 -0.6050  1.5673  0.0398
 1014MOL0     H33834   6.501   4.017  10.786  0.5802 -1.0256  1.7071
 1014MOL0     H33835   6.420   3.909  10.598  1.0701 -0.0880  0.6940
 1014MOL0     H33836   6.422   3.241  10.498  1.5332  0.3495 -1.4062
 1014MOL0     H33837   6.276   3.132  10.356  0.9800  0.2645 -1.8342
 1014MOL0     H33838   6.022   3.372  10.055 -1.2501  0.0053 -1.0139
 1014MOL0     H33839   5.923   3.346  10.189 -0.2186  1.0039 -0.5520
 1014MOL0     H33840   5.826   3.269   9.980  2.9113  1.4752 -1.0040
 1014MOL0     H33841   5.951   3.144   9.971 -1.4758  2.3674 -1.9129
 1014MOL0     H33842   5.729   3.168  10.159  2.1281  1.3245  3.9059
 1014MOL0     H33843   5.880   3.090  10.220  0.2592  3.0748 -0.2139
 1014MOL0     H33844   5.766   3.009   9.966 -1.6111  0.2204  0.8454
 1014MOL0     H33845   5.847   2.904  10.070 -0.4748 -0.0366  0.5323
 1014MOL0     H33846   5.456   2.856  10.229  1.8596  0.1804  1.6049
 1014MOL0     H33847   6.071   3.486  10.244  1.3850 -0.2474 -0.9268
 1014MOL0     H33848   6.248   3.613  10.358  1.1305 -0.2032 -0.6026
 1015MOL0     O33849   8.789   1.951   0.457 -0.0324  0.3017 -1.0415
 1015MOL0     C33850   8.826   1.837   0.436  1.0171  0.2168  0.6927
 1015MOL0     O33851   8.945   1.789   0.478  0.2286  0.2610 -0.5727
 1015MOL0     C33852   9.029   1.869   0.554 -0.4883 -0.1127  0.0629
 1015MOL0     C33853   9.037   1.872   0.697 -0.1287  0.8512  0.6298
 1015MOL0     C33854   9.092   1.978   0.766  0.1787 -0.2220  0.0251
 1015MOL0     C33855   9.143   2.086   0.699  0.2746  0.1300  0.6893
 1015MOL0     O33856   9.197   2.194   0.759  0.5256 -0.8252  0.9191
 1015MOL0     C33857   9.214   2.207   0.900  0.4353  0.8126 -0.7777
 1015MOL0     C33858   9.273   2.341   0.942 -0.2187 -0.5250 -0.3603
 1015MOL0     C33859   9.258   2.370   1.095 -0.2187 -0.8625 -1.2841
 1015MOL0     C33860   9.320   2.511   1.107 -0.2281 -0.3669  0.8298
 1015MOL0     C33861   9.327   2.527   1.252 -0.7295  0.1145 -0.8391
 1015MOL0     C33862   9.408   2.637   1.301 -1.1401 -0.3848  0.0507
 1015MOL0     C33863   9.399   2.655   1.456  0.3322  0.3565 -1.0641
 1015MOL0     C33864   9.463   2.780   1.510 -0.0112 -0.5158 -0.3835
 1015MOL0     N33865   9.598   2.793   1.478  0.9159 -0.3897  0.6340
 1015MOL0     C33866   9.705   2.723   1.531  0.5389  0.2574  0.5591
 1015MOL0     C33867   9.808   2.753   1.460 -0.9383 -0.2869  0.1989
 1015MOL0     C33868   9.943   2.687   1.463  0.3806  0.5079  0.0586
 1015MOL0     C33869  10.021   2.717   1.591 -1.3478 -0.4379 -0.8355
 1015MOL0     C33870  10.161   2.658   1.586 -1.0350  0.6143 -0.1034
 1015MOL0     C33871  10.263   2.700   1.688  0.1164 -0.4927 -1.5805
 1015MOL0     O33872  10.281   2.844   1.700 -0.6376  0.1695  0.0233
 1015MOL0     C33873  10.329   2.885   1.825 -0.4400 -0.6268 -0.0184
 1015MOL0     C33874  10.346   3.024   1.846  0.4613 -0.2756 -0.3311
 1015MOL0     C33875  10.392   3.079   1.962 -0.5222  0.6029 -0.0841
 1015MOL0     C33876  10.424   3.001   2.072  0.3356  0.1487  0.0881
 1015MOL0     C33877  10.479   3.064   2.195  0.1007  1.0068  0.2126
 1015MOL0     O33878  10.513   3.193   2.195 -0.3075 -0.2496  0.4920
 1015MOL0     C33879  10.579   3.256   2.297 -0.1763 -0.0706 -0.7236
 1015MOL0     C33880  10.653   3.365   2.263 -0.8134  0.1829  0.2284
 1015MOL0     C33881  10.750   3.407   2.355 -1.1340 -0.4348 -0.1130
 1015MOL0     C33882  10.750   3.382   2.490 -1.2301  0.0294  1.4196
 1015MOL0     O33883  10.835   3.449   2.575 -0.5247 -0.9127 -0.5058
 1015MOL0     C33884  10.820   3.458   2.715 -0.1043 -0.3546 -0.3178
 1015MOL0     C33885  10.926   3.555   2.766 -0.0529 -0.3148  0.6269
 1015MOL0     C33886  10.927   3.566   2.917 -0.5196  0.1375 -0.5282
 1015MOL0     C33887  10.796   3.641   2.962  0.3061 -0.4099  0.9898
 1015MOL0     C33888  10.791   3.669   3.114 -0.2836 -0.5258  1.3269
 1015MOL0     C33889  10.657   3.715   3.173 -0.2665  0.5414 -0.5250
 1015MOL0     C33890  10.565   3.591   3.209  1.2142  0.3320  0.5027
 1015MOL0     C33891  10.443   3.625   3.303  0.4233  0.4418  0.8898
 1015MOL0    Cl33892  10.484   3.714   3.451  0.3630 -0.2047  0.0698
 1015MOL0     C33893  10.667   3.278   2.534 -0.0678 -0.1543  0.3878
 1015MOL0     C33894  10.579   3.218   2.438 -0.4786  0.6956 -0.5127
 1015MOL0     O33895  10.507   2.981   2.279  0.2382  0.7328 -0.1607
 1015MOL0     C33896  10.403   2.861   2.067  0.0210 -0.2013 -0.0141
 1015MOL0     C33897  10.367   2.806   1.943 -0.4405  0.7970 -1.0596
 1015MOL0     N33898   9.766   2.848   1.355 -0.2499  0.7088 -0.2299
 1015MOL0     N33899   9.644   2.875   1.379  0.0281 -0.7820  0.5962
 1015MOL0     C33900   9.150   2.075   0.560 -0.1455 -0.7062 -0.2709
 1015MOL0     C33901   9.086   1.982   0.488 -0.0442 -0.1704  0.3581
 1015MOL0     C33902   8.740   1.757   0.351  0.6532  0.0011  0.0103
 1015MOL0     C33903   8.740   1.612   0.359 -1.2784  0.8001 -0.7249
 1015MOL0     C33904   8.658   1.533   0.281 -0.2173  0.4911  0.5823
 1015MOL0     C33905   8.564   1.599   0.196  0.3009 -0.2845  0.1911
 1015MOL0     O33906   8.479   1.511   0.138  1.5119 -0.0590  0.0985
 1015MOL0     C33907   8.357   1.561   0.093 -0.3835 -0.9104 -0.5904
 1015MOL0     C33908   8.271   1.437   0.071  0.4895 -0.0491  0.0793
 1015MOL0     C33909   8.158   1.446  -0.030 -0.2569 -0.8430 -0.0060
 1015MOL0     C33910   8.097   1.310  -0.079 -0.9658  0.1471  0.3044
 1015MOL0     C33911   8.052   1.236   0.045 -0.6113 -0.4263 -0.1480
 1015MOL0     C33912   8.001   1.191   0.147  0.0029 -0.2821  0.1951
 1015MOL0     C33913   8.551   1.742   0.198 -1.1302  0.4026  0.0953
 1015MOL0     C33914   8.645   1.819   0.269  1.2094  0.1471 -0.2635
 1015MOL0     H33915   8.980   1.801   0.756 -0.0692  0.9158  0.7667
 1015MOL0     H33916   9.094   1.984   0.874 -4.6584  3.0932  0.2648
 1015MOL0     H33917   9.275   2.122   0.935 -0.8208  0.8891  1.8114
 1015MOL0     H33918   9.123   2.199   0.960  1.7824 -0.5455  1.2621
 1015MOL0     H33919   9.228   2.418   0.879  0.1319 -1.1224 -1.3695
 1015MOL0     H33920   9.381   2.352   0.925 -0.5676  3.8968 -0.8935
 1015MOL0     H33921   9.315   2.298   1.155  1.2912 -0.1873 -1.8493
 1015MOL0     H33922   9.152   2.378   1.121 -0.1238 -2.4391 -0.2645
 1015MOL0     H33923   9.422   2.505   1.069  0.7476 -0.3228  3.2367
 1015MOL0     H33924   9.282   2.597   1.051  1.5612 -0.6225 -0.8586
 1015MOL0     H33925   9.367   2.431   1.288 -0.3626 -0.2961 -2.2732
 1015MOL0     H33926   9.224   2.546   1.283 -0.1836  2.3261 -0.2754
 1015MOL0     H33927   9.386   2.730   1.248 -4.8436 -0.9065  0.4585
 1015MOL0     H33928   9.509   2.604   1.275 -2.5957 -3.9465 -1.8236
 1015MOL0     H33929   9.298   2.658   1.496  0.0431  1.9217 -1.8195
 1015MOL0     H33930   9.453   2.572   1.503 -0.0008  1.5543  1.6052
 1015MOL0     H33931   9.460   2.799   1.618  1.7969  0.0202 -0.3965
 1015MOL0     H33932   9.411   2.858   1.455 -0.9903 -0.9637 -0.1121
 1015MOL0     H33933   9.706   2.638   1.598 -0.3472  0.8224  1.3157
 1015MOL0     H33934  10.000   2.712   1.373  0.4655 -1.0251 -0.3513
 1015MOL0     H33935   9.929   2.579   1.448 -2.8998  1.1975 -3.3732
 1015MOL0     H33936   9.969   2.677   1.678  2.6637 -0.3739  1.8472
 1015MOL0     H33937  10.042   2.824   1.598 -0.5319 -0.5538 -1.3375
 1015MOL0     H33938  10.149   2.549   1.581  0.2098  0.4947 -0.8737
 1015MOL0     H33939  10.206   2.686   1.491 -0.7737  0.3310 -0.0642
 1015MOL0     H33940  10.365   2.664   1.669  1.3797  2.2848 -0.6873
 1015MOL0     H33941  10.232   2.657   1.784 -0.7499  0.8046 -1.2631
 1015MOL0     H33942  10.323   3.086   1.760  2.0080  0.3733 -0.2953
 1015MOL0     H33943  10.402   3.186   1.967  1.5169  0.4657 -0.3590
 1015MOL0     H33944  10.660   3.388   2.157  0.4438  3.1743  0.8533
 1015MOL0     H33945  10.837   3.467   2.329  1.4978 -3.8646  0.1271
 1015MOL0     H33946  10.837   3.356   2.750  2.6889 -1.3823 -4.0784
 1015MOL0     H33947  10.722   3.495   2.748  0.6116  1.5394 -0.1968
 1015MOL0     H33948  10.912   3.653   2.720  0.8640  0.8258  2.6298
 1015MOL0     H33949  11.028   3.525   2.739  0.6305  2.8509 -0.8205
 1015MOL0     H33950  11.015   3.625   2.944  1.7609 -2.6203 -1.5162
 1015MOL0     H33951  10.938   3.468   2.964  1.9357  1.1610  1.2697
 1015MOL0     H33952  10.777   3.739   2.919 -1.5732 -0.1499  2.2557
 1015MOL0     H33953  10.711   3.573   2.945 -0.8574  0.8506  1.5260
 1015MOL0     H33954  10.868   3.742   3.143 -0.9387  1.8723 -2.3118
 1015MOL0     H33955  10.816   3.579   3.171 -1.9219 -1.7518  0.1739
 1015MOL0     H33956  10.611   3.786   3.104 -1.7889  0.8867  0.7925
 1015MOL0     H33957  10.682   3.759   3.270 -0.3175 -0.3054 -0.1163
 1015MOL0     H33958  10.520   3.551   3.117  0.1494 -1.4038  1.7161
 1015MOL0     H33959  10.620   3.503   3.243 -1.6320 -1.2881  1.2711
 1015MOL0     H33960  10.386   3.537   3.333  0.2188  0.4767  0.6138
 1015MOL0     H33961  10.375   3.694   3.253  1.8484  1.6732  0.5733
 1015MOL0     H33962  10.649   3.257   2.638  1.3890  2.7055  1.3495
 1015MOL0     H33963  10.516   3.140   2.480 -1.3002  1.8417  0.4322
 1015MOL0     H33964  10.427   2.790   2.146  1.5323  0.4773  0.1766
 1015MOL0     H33965  10.350   2.700   1.955  2.5713  0.5818  4.4319
 1015MOL0     H33966   9.216   2.150   0.519 -1.0049 -0.5523 -1.4101
 1015MOL0     H33967   9.075   1.978   0.381 -0.2353  1.7981  0.2713
 1015MOL0     H33968   8.810   1.563   0.426  0.7169 -0.0991 -3.2600
 1015MOL0     H33969   8.685   1.428   0.287  4.3183  1.2688 -1.6233
 1015MOL0     H33970   8.376   1.617   0.001  2.0092  2.0920  1.5380
 1015MOL0     H33971   8.295   1.620   0.161 -2.8708 -3.0362 -0.8640
 1015MOL0     H33972   8.330   1.359   0.022  1.2769  0.1897  0.6131
 1015MOL0     H33973   8.240   1.411   0.172 -1.0960 -2.0746 -0.8478
 1015MOL0     H33974   8.192   1.507  -0.114 -0.6247  0.5398  0.8165
 1015MOL0     H33975   8.079   1.510   0.009  0.3982  1.4657 -2.1550
 1015MOL0     H33976   8.017   1.328  -0.152 -0.3491 -2.6090 -1.1904
 1015MOL0     H33977   8.170   1.252  -0.135 -1.0196 -2.0023  2.3218
 1015MOL0     H33978   7.946   1.153   0.230 -1.5108 -0.1919 -0.7372
 1015MOL0     H33979   8.483   1.786   0.126  1.2819  3.4736 -0.5661
 1015MOL0     H33980   8.632   1.927   0.268 -3.0161 -0.1738  1.3498
 1016MOL0     O33981   1.305   6.504  11.211 -0.0088 -0.5395 -0.4236
 1016MOL0     C33982   1.342   6.606  11.272  1.1392  0.4560  0.5912
 1016MOL0     O33983   1.272   6.663  11.377  0.6140 -0.2843  0.2495
 1016MOL0     C33984   1.173   6.572  11.414 -0.7308 -0.1807 -0.1455
 1016MOL0     C33985   1.044   6.603  11.367  0.1082  0.1429  0.7218
 1016MOL0     C33986   0.944   6.527  11.418  0.3932 -0.0478 -0.4701
 1016MOL0     C33987   0.964   6.426  11.509 -0.2735  0.9326 -0.1981
 1016MOL0     O33988   0.852   6.356  11.552  0.6449 -0.2309  0.1573
 1016MOL0     C33989   0.875   6.231  11.620 -0.1455  0.3818 -0.3035
 1016MOL0     C33990   0.728   6.175  11.635 -0.4025 -0.0674  0.0776
 1016MOL0     C33991   0.702   6.083  11.516  0.0391  0.7515 -0.4225
 1016MOL0     C33992   0.577   6.001  11.549  0.3103 -0.3392 -0.6440
 1016MOL0     C33993   0.559   5.864  11.470  0.2237 -0.2672  0.0625
 1016MOL0     C33994   0.421   5.807  11.487  0.2823 -0.3658  0.2542
 1016MOL0     C33995   0.310   5.905  11.465  0.6118 -0.2462  0.4072
 1016MOL0     C33996   0.186   5.821  11.436  0.6222  0.3523  0.2445
 1016MOL0     N33997   0.061   5.889  11.453  0.5016 -0.1395 -0.2430
 1016MOL0     C33998   0.022   5.977  11.544 -0.3571  0.5560  0.2817
 1016MOL0     C33999  -0.111   5.999  11.517 -0.0380 -0.0707  1.2875
 1016MOL0     C34000  -0.205   6.096  11.593  0.4751 -0.0268  0.5159
 1016MOL0     C34001  -0.157   6.239  11.602 -0.3847 -0.8324  0.0145
 1016MOL0     C34002  -0.233   6.312  11.715 -0.8781  0.0836  0.2810
 1016MOL0     C34003  -0.387   6.299  11.715  0.5329 -0.4564  0.1191
 1016MOL0     O34004  -0.401   6.192  11.808  0.2066  0.4252  0.5634
 1016MOL0     C34005  -0.523   6.146  11.851 -0.1585  0.3512  0.0029
 1016MOL0     C34006  -0.645   6.222  11.846  0.4909  0.2471 -0.4357
 1016MOL0     C34007  -0.761   6.163  11.895 -0.8665 -1.8071 -0.4815
 1016MOL0     C34008  -0.762   6.042  11.953  0.4420  0.1382  0.0676
 1016MOL0     C34009  -0.895   5.991  11.981  0.4510  0.6634 -0.0733
 1016MOL0     O34010  -0.994   6.081  12.024  0.2272  0.1600 -0.2188
 1016MOL0     C34011  -1.113   6.032  12.067 -0.6822  0.8885 -0.6696
 1016MOL0     C34012  -1.225   6.102  12.016 -0.4508 -0.3266 -0.2813
 1016MOL0     C34013  -1.359   6.064  12.043 -1.1546  0.9947 -0.6411
 1016MOL0     C34014  -1.378   5.943  12.108 -0.7134  0.5087  0.2612
 1016MOL0     O34015  -1.508   5.902  12.128  0.5192  0.4224  0.5062
 1016MOL0     C34016  -1.552   5.958  12.253  0.0132 -0.6733 -0.2641
 1016MOL0     C34017  -1.696   5.991  12.257  0.2462 -1.0787  0.1986
 1016MOL0     C34018  -1.735   6.084  12.143  0.4504  0.5054  0.8148
 1016MOL0     C34019  -1.774   6.007  12.016 -0.5664  0.9823  0.4413
 1016MOL0     C34020  -1.834   6.076  11.892  0.5547  0.3570  0.5307
 1016MOL0     C34021  -1.919   6.202  11.921  0.1461  0.0017  0.3987
 1016MOL0     C34022  -2.065   6.182  11.957  0.1009 -0.3238 -0.3114
 1016MOL0     C34023  -2.132   6.326  11.938 -0.0423  0.3220 -0.5869
 1016MOL0    Cl34024  -2.051   6.438  12.041 -0.6335 -0.3016  0.1983
 1016MOL0     C34025  -1.264   5.875  12.159 -0.0866 -0.4124  0.9050
 1016MOL0     C34026  -1.135   5.909  12.142 -0.3601 -0.1941  0.1844
 1016MOL0     O34027  -0.918   5.873  11.954 -0.5630  0.1756 -0.1985
 1016MOL0     C34028  -0.644   5.968  11.977  0.8822  0.5705  1.3310
 1016MOL0     C34029  -0.528   6.018  11.920  0.0044 -0.1536  0.7340
 1016MOL0     N34030  -0.144   5.934  11.397 -0.1011  0.6818 -0.3747
 1016MOL0     N34031  -0.041   5.866  11.360  0.2233  0.5884 -0.2890
 1016MOL0     C34032   1.086   6.398  11.563  0.0280  0.3101  0.1350
 1016MOL0     C34033   1.196   6.467  11.507 -0.2219 -0.3259 -0.6253
 1016MOL0     C34034   1.467   6.673  11.226  0.4003 -0.2965 -0.6615
 1016MOL0     C34035   1.499   6.698  11.093  0.2606  0.2346 -1.1312
 1016MOL0     C34036   1.610   6.781  11.061 -0.8631 -0.4432  0.5127
 1016MOL0     C34037   1.687   6.840  11.159 -0.3348  0.4528  0.1434
 1016MOL0     O34038   1.800   6.910  11.140 -1.0294 -0.7040  0.4768
 1016MOL0     C34039   1.850   6.919  11.011 -0.1329 -0.6642 -0.1979
 1016MOL0     C34040   1.985   6.988  11.014 -0.8863  0.3787 -0.7266
 1016MOL0     C34041   2.027   7.046  10.883 -0.4809 -0.7152 -0.6494
 1016MOL0     C34042   2.171   7.108  10.880  0.6091 -0.6956  0.3932
 1016MOL0     C34043   2.228   7.131  10.748  0.4511 -1.4635 -0.8176
 1016MOL0     C34044   2.279   7.153  10.635  1.1070 -0.7240 -0.2802
 1016MOL0     C34045   1.660   6.818  11.295  0.2748  0.3725 -0.1108
 1016MOL0     C34046   1.553   6.732  11.325 -0.5150  0.6424 -0.4396
 1016MOL0     H34047   1.021   6.690  11.308 -1.6220 -1.0608 -0.4847
 1016MOL0     H34048   0.843   6.549  11.385  1.2607  0.3257 -3.1229
 1016MOL0     H34049   0.925   6.255  11.714  0.3141  1.7314 -0.8592
 1016MOL0     H34050   0.940   6.162  11.567  1.9275  1.5880  0.5554
 1016MOL0     H34051   0.662   6.261  11.646  0.2799  0.3292  1.3070
 1016MOL0     H34052   0.717   6.114  11.725 -0.8732  1.7741  1.3242
 1016MOL0     H34053   0.782   6.008  11.510 -1.4672 -1.0363  0.6773
 1016MOL0     H34054   0.690   6.144  11.426 -0.8642 -0.3849 -1.1242
 1016MOL0     H34055   0.580   5.973  11.654 -0.1174 -0.6601 -0.7118
 1016MOL0     H34056   0.491   6.066  11.528  2.8898  2.1177 -5.0177
 1016MOL0     H34057   0.638   5.801  11.511 -0.2983 -0.3473  0.9806
 1016MOL0     H34058   0.571   5.875  11.361 -2.3001 -4.1527 -0.8156
 1016MOL0     H34059   0.399   5.778  11.590  0.9380 -0.3193  0.4063
 1016MOL0     H34060   0.412   5.712  11.433  0.1082 -0.6675  0.8086
 1016MOL0     H34061   0.292   5.955  11.560 -4.5154 -3.3838  1.4939
 1016MOL0     H34062   0.314   5.965  11.374 -2.4239  2.0373  1.6137
 1016MOL0     H34063   0.183   5.741  11.510  3.7332 -3.2663 -3.0661
 1016MOL0     H34064   0.204   5.776  11.338  1.1714  0.9451  0.0689
 1016MOL0     H34065   0.093   6.014  11.616  3.2358 -0.0789 -2.6178
 1016MOL0     H34066  -0.229   6.045  11.686 -2.0362 -0.5199 -0.3342
 1016MOL0     H34067  -0.296   6.097  11.532  0.5180  0.8016  0.4500
 1016MOL0     H34068  -0.174   6.290  11.507  0.1708 -2.0935 -0.7922
 1016MOL0     H34069  -0.051   6.251  11.625 -0.7078 -0.7521  1.5723
 1016MOL0     H34070  -0.195   6.272  11.809 -1.0050 -2.6512 -0.7294
 1016MOL0     H34071  -0.200   6.416  11.705  2.4359 -1.0201 -2.3729
 1016MOL0     H34072  -0.440   6.284  11.620 -1.3165 -0.1667  1.0613
 1016MOL0     H34073  -0.426   6.393  11.755 -0.7013  0.8924 -3.7278
 1016MOL0     H34074  -0.647   6.321  11.802 -1.0797  1.1965  1.6159
 1016MOL0     H34075  -0.857   6.215  11.892 -0.2778 -0.7101 -1.3144
 1016MOL0     H34076  -1.200   6.199  11.973  1.6185 -0.8561 -0.3612
 1016MOL0     H34077  -1.449   6.120  12.018 -1.9813  1.1564  2.2518
 1016MOL0     H34078  -1.501   6.045  12.295 -2.1170  0.3942  0.2161
 1016MOL0     H34079  -1.528   5.886  12.332  3.4290 -0.4689 -0.9325
 1016MOL0     H34080  -1.726   6.044  12.347  1.9660  1.1451 -0.4448
 1016MOL0     H34081  -1.746   5.894  12.256 -0.2646 -0.8317  1.0713
 1016MOL0     H34082  -1.650   6.148  12.119 -0.5220  1.5696  0.1167
 1016MOL0     H34083  -1.831   6.126  12.174 -0.7986 -1.8363  0.3739
 1016MOL0     H34084  -1.688   5.950  11.982 -0.9287 -1.2190  2.8957
 1016MOL0     H34085  -1.839   5.923  12.044  3.2967 -1.3558  3.3110
 1016MOL0     H34086  -1.888   5.998  11.838  0.0044 -1.0790  2.9789
 1016MOL0     H34087  -1.746   6.114  11.839 -0.2851  1.9735  0.2314
 1016MOL0     H34088  -1.920   6.266  11.832  4.5286  0.3242  0.3662
 1016MOL0     H34089  -1.859   6.252  11.997  2.9191 -3.2558  0.6234
 1016MOL0     H34090  -2.108   6.115  11.882 -0.1028  0.7967 -1.2074
 1016MOL0     H34091  -2.062   6.144  12.060  3.0006  0.5656  0.0399
 1016MOL0     H34092  -2.237   6.304  11.960  0.1249 -0.3172 -0.3803
 1016MOL0     H34093  -2.128   6.363  11.835  0.0754  0.5350 -0.5053
 1016MOL0     H34094  -1.287   5.780  12.208 -3.1282 -1.8373 -2.7643
 1016MOL0     H34095  -1.053   5.847  12.179  0.4709  0.3911 -0.6075
 1016MOL0     H34096  -0.641   5.878  12.038  0.7076  0.9258  1.8777
 1016MOL0     H34097  -0.438   5.959  11.930 -0.5891 -1.9477 -2.7647
 1016MOL0     H34098   1.114   6.330  11.642  0.6343 -1.3882 -1.4773
 1016MOL0     H34099   1.295   6.441  11.541 -0.3937  2.7693  2.9195
 1016MOL0     H34100   1.422   6.653  11.030 -1.7238  4.1734 -1.8286
 1016MOL0     H34101   1.630   6.783  10.954  1.0929  1.4834  0.8127
 1016MOL0     H34102   1.775   6.959  10.942  1.0677  2.3308  0.0913
 1016MOL0     H34103   1.867   6.817  10.976  3.3698  0.0870 -1.0718
 1016MOL0     H34104   1.977   7.077  11.077 -0.4062  0.9750 -1.4754
 1016MOL0     H34105   2.061   6.925  11.061 -0.3739 -0.6651 -2.8371
 1016MOL0     H34106   1.949   7.118  10.853  0.1833  0.0118 -0.6584
 1016MOL0     H34107   2.028   6.969  10.805 -0.6113  0.8038 -2.2206
 1016MOL0     H34108   2.170   7.209  10.921  1.0528 -0.3581 -0.4232
 1016MOL0     H34109   2.240   7.051  10.944 -1.4104 -4.7075 -0.6687
 1016MOL0     H34110   2.318   7.168  10.536 -2.2210 -3.4440 -2.2355
 1016MOL0     H34111   1.729   6.860  11.367  2.8803 -1.9578 -1.0954
 1016MOL0     H34112   1.511   6.717  11.424 -2.9263 -1.4013 -1.6594
 1017MOL0     O34113   0.283   5.370   2.779 -0.4705 -1.2531 -0.3076
 1017MOL0     C34114   0.237   5.483   2.777  0.2482 -0.2496  0.7815
 1017MOL0     O34115   0.244   5.563   2.663 -0.1057 -0.5404  0.2981
 1017MOL0     C34116   0.337   5.530   2.570 -0.1458  0.2218  0.0690
 1017MOL0     C34117   0.458   5.590   2.565  0.6865  0.1889 -0.1964
 1017MOL0     C34118   0.550   5.568   2.467 -0.1698 -0.0957  0.8906
 1017MOL0     C34119   0.520   5.467   2.370 -0.1465 -1.2430  0.3238
 1017MOL0     O34120   0.598   5.416   2.273  0.1810 -0.6078 -0.3290
 1017MOL0     C34121   0.731   5.472   2.255 -0.0243  0.2285  0.5729
 1017MOL0     C34122   0.792   5.414   2.128  0.2784  0.0015  0.1818
 1017MOL0     C34123   0.875   5.292   2.164  0.8538 -0.4923  0.1173
 1017MOL0     C34124   0.952   5.229   2.048 -0.1509 -0.4936 -0.3093
 1017MOL0     C34125   1.021   5.104   2.084  0.4585  0.1065 -0.7618
 1017MOL0     C34126   1.100   5.049   1.967  0.1533  0.1359  0.3424
 1017MOL0     C34127   1.116   4.899   1.995  0.3575  0.3008 -0.0459
 1017MOL0     C34128   1.252   4.849   1.924 -0.3081 -0.0305 -0.6919
 1017MOL0     N34129   1.273   4.708   1.922 -0.0168  0.5690 -0.2275
 1017MOL0     C34130   1.274   4.626   2.034 -1.5661 -0.2492 -0.2259
 1017MOL0     C34131   1.299   4.506   1.975  0.3503 -1.2191 -0.4514
 1017MOL0     C34132   1.323   4.367   2.044 -0.0172  0.7355  0.3183
 1017MOL0     C34133   1.444   4.356   2.123  0.4718 -0.5468 -0.7783
 1017MOL0     C34134   1.482   4.208   2.128 -0.5115 -0.3942 -0.4770
 1017MOL0     C34135   1.599   4.187   2.223 -0.4463  0.4790  0.1698
 1017MOL0     O34136   1.624   4.047   2.243  0.6201  0.6061  1.1195
 1017MOL0     C34137   1.666   3.981   2.357 -0.0464  0.2076  0.3095
 1017MOL0     C34138   1.677   3.844   2.354  0.6026 -0.9255  0.3186
 1017MOL0     C34139   1.704   3.772   2.470  0.5631 -0.8627 -0.2211
 1017MOL0     C34140   1.730   3.831   2.587 -0.8481  0.2282  0.9571
 1017MOL0     C34141   1.777   3.760   2.713  0.1062 -0.9418 -1.2304
 1017MOL0     O34142   1.788   3.826   2.834  0.2073 -0.0903 -0.5429
 1017MOL0     C34143   1.797   3.748   2.946  0.0835 -0.1619  0.1592
 1017MOL0     C34144   1.921   3.686   2.988  0.9877 -0.4852  0.2643
 1017MOL0     C34145   1.933   3.595   3.097 -0.4690  0.2291  0.4961
 1017MOL0     C34146   1.824   3.573   3.181 -1.0431 -0.0918  0.1707
 1017MOL0     O34147   1.820   3.469   3.273 -0.4633 -0.2949  0.1741
 1017MOL0     C34148   1.935   3.385   3.302  0.8059 -0.0051  0.5890
 1017MOL0     C34149   1.881   3.259   3.359 -0.9329  0.1458  0.1846
 1017MOL0     C34150   1.828   3.164   3.251 -0.5698 -0.0075  1.1802
 1017MOL0     C34151   1.810   3.017   3.298 -0.0671 -0.3832  0.4303
 1017MOL0     C34152   1.922   2.914   3.260 -0.3483 -0.3307 -0.8700
 1017MOL0     C34153   1.957   2.897   3.118 -0.0914 -0.2472  0.5243
 1017MOL0     C34154   1.845   2.871   3.023  0.8803  0.2907  0.6462
 1017MOL0     C34155   1.806   2.727   3.025  0.4634  0.2240  0.2269
 1017MOL0    Cl34156   1.727   2.669   3.174 -0.3697 -0.1130 -0.0818
 1017MOL0     C34157   1.703   3.638   3.148  0.1395 -0.5101 -0.6349
 1017MOL0     C34158   1.690   3.723   3.035 -0.5004  0.9672 -0.7956
 1017MOL0     O34159   1.814   3.646   2.701 -0.1527 -0.2864  0.5099
 1017MOL0     C34160   1.726   3.969   2.592  0.1324  0.7143 -0.4741
 1017MOL0     C34161   1.700   4.043   2.480  1.1119  0.7012 -0.5045
 1017MOL0     N34162   1.300   4.513   1.838 -0.1417  0.5858 -0.1885
 1017MOL0     N34163   1.286   4.634   1.809 -0.6972 -0.3409 -0.3739
 1017MOL0     C34164   0.403   5.397   2.370  1.3936 -0.4370  0.4571
 1017MOL0     C34165   0.302   5.434   2.463  0.2628  0.1876  1.1416
 1017MOL0     C34166   0.168   5.519   2.902  0.4222 -0.1403 -0.1067
 1017MOL0     C34167   0.108   5.651   2.918 -0.0389  0.5782  0.6114
 1017MOL0     C34168   0.048   5.686   3.035 -0.6970 -0.9937  0.3287
 1017MOL0     C34169   0.038   5.606   3.141  0.3226 -1.1686 -0.6552
 1017MOL0     O34170  -0.008   5.668   3.257 -0.5031  0.5106  0.7328
 1017MOL0     C34171   0.028   5.622   3.385  0.2916  0.2754 -0.2323
 1017MOL0     C34172   0.006   5.722   3.498 -0.9889  0.1724 -0.2024
 1017MOL0     C34173  -0.021   5.673   3.636 -0.0771  0.1804 -0.2116
 1017MOL0     C34174   0.109   5.608   3.698 -0.4894 -0.0952 -0.3093
 1017MOL0     C34175   0.109   5.464   3.661  0.5431  0.5590  0.3244
 1017MOL0     C34176   0.081   5.347   3.630 -0.3435 -1.0196  0.3850
 1017MOL0     C34177   0.089   5.479   3.134  0.0564  0.5081  0.0448
 1017MOL0     C34178   0.160   5.438   3.015 -0.4742 -0.3818 -0.7446
 1017MOL0     H34179   0.486   5.657   2.645  0.1537  0.4791 -0.2494
 1017MOL0     H34180   0.651   5.609   2.468  2.6112 -5.7266 -1.8401
 1017MOL0     H34181   0.799   5.446   2.336 -1.6876 -1.3223  1.5501
 1017MOL0     H34182   0.742   5.579   2.234 -0.5149  0.0136 -0.8869
 1017MOL0     H34183   0.860   5.488   2.084 -1.1869  1.0855 -0.3154
 1017MOL0     H34184   0.708   5.399   2.061 -2.3017  1.8494  2.7530
 1017MOL0     H34185   0.805   5.227   2.218  2.4290 -0.8359  1.8259
 1017MOL0     H34186   0.942   5.326   2.243 -0.3005 -0.5078  1.1248
 1017MOL0     H34187   0.886   5.208   1.964 -1.8723 -1.1744  1.1591
 1017MOL0     H34188   1.032   5.299   2.021  0.7743 -1.0024  0.9969
 1017MOL0     H34189   0.939   5.035   2.109 -1.7701  2.9148  0.1782
 1017MOL0     H34190   1.083   5.124   2.172  1.4923  0.6965 -1.6127
 1017MOL0     H34191   1.193   5.105   1.955  1.2471 -1.3953  1.3588
 1017MOL0     H34192   1.051   5.058   1.869  2.0809  0.0464 -0.6681
 1017MOL0     H34193   1.119   4.880   2.102 -2.7713 -2.7053 -0.3392
 1017MOL0     H34194   1.030   4.845   1.953 -0.0636  1.6189 -0.9466
 1017MOL0     H34195   1.332   4.890   1.987  0.6848 -1.4442 -0.9962
 1017MOL0     H34196   1.274   4.895   1.827  1.1997  0.5203 -0.1268
 1017MOL0     H34197   1.259   4.657   2.137  0.4166  0.2661 -0.0332
 1017MOL0     H34198   1.325   4.294   1.962 -3.4208 -2.0569  2.4468
 1017MOL0     H34199   1.233   4.338   2.099 -0.1365  0.6290  0.0672
 1017MOL0     H34200   1.423   4.406   2.218  2.3835 -1.4591  0.1827
 1017MOL0     H34201   1.524   4.421   2.084  1.6717 -2.0550 -0.9101
 1017MOL0     H34202   1.391   4.154   2.157 -1.5778 -0.1357 -3.1018
 1017MOL0     H34203   1.507   4.164   2.031  0.1730 -2.1289  0.4327
 1017MOL0     H34204   1.571   4.231   2.319  1.3499  1.8300  0.1128
 1017MOL0     H34205   1.693   4.235   2.195 -0.8320  1.7784  1.0536
 1017MOL0     H34206   1.654   3.792   2.261 -5.8264  1.7656 -0.1548
 1017MOL0     H34207   1.697   3.664   2.463  1.2484 -0.8750 -0.8150
 1017MOL0     H34208   2.002   3.725   2.926 -0.3743 -0.2198 -1.4341
 1017MOL0     H34209   2.031   3.556   3.123 -0.0014  1.7437  1.1392
 1017MOL0     H34210   2.012   3.432   3.364  2.1699  0.7248 -1.5186
 1017MOL0     H34211   1.984   3.361   3.207 -1.4119 -2.1241 -0.0940
 1017MOL0     H34212   1.796   3.285   3.422  0.8784 -0.8796  3.2594
 1017MOL0     H34213   1.957   3.212   3.423 -2.6295 -3.2012 -0.0293
 1017MOL0     H34214   1.881   3.166   3.155 -1.8995  0.5096  0.4323
 1017MOL0     H34215   1.733   3.208   3.217  0.3403  2.3590  1.4583
 1017MOL0     H34216   1.804   3.021   3.407  0.6087  0.3052  0.4495
 1017MOL0     H34217   1.715   2.982   3.256  1.2820  0.7613 -4.1351
 1017MOL0     H34218   1.902   2.819   3.310 -3.0170 -1.2278 -3.4054
 1017MOL0     H34219   2.013   2.963   3.297  0.0233 -0.3966 -1.6839
 1017MOL0     H34220   2.030   2.816   3.114  0.0635 -0.0460 -1.4414
 1017MOL0     H34221   1.997   2.993   3.084  0.2628 -0.5086  0.2012
 1017MOL0     H34222   1.757   2.931   3.045  2.7559  3.6044 -0.1653
 1017MOL0     H34223   1.882   2.887   2.921  1.9609 -2.3968  0.5130
 1017MOL0     H34224   1.891   2.662   3.001  1.5926  1.4674  0.6964
 1017MOL0     H34225   1.734   2.705   2.946  3.9083  1.2198 -3.5136
 1017MOL0     H34226   1.621   3.625   3.217 -0.2145  2.9223 -0.1961
 1017MOL0     H34227   1.597   3.775   3.016 -2.7736 -1.9657  1.4030
 1017MOL0     H34228   1.743   4.026   2.683  2.1497 -0.1831 -0.2354
 1017MOL0     H34229   1.709   4.150   2.493  1.9123  0.5992 -0.1742
 1017MOL0     H34230   0.398   5.318   2.296  3.4348  0.4450 -0.6915
 1017MOL0     H34231   0.205   5.388   2.474 -0.6235  0.9949 -2.0003
 1017MOL0     H34232   0.114   5.730   2.844  1.2897 -0.3950 -0.3485
 1017MOL0     H34233  -0.004   5.780   3.049 -1.6796 -1.5976  0.8571
 1017MOL0     H34234   0.136   5.610   3.370  0.7925  3.0750  0.6787
 1017MOL0     H34235  -0.038   5.538   3.411 -4.7434  3.8342 -0.1801
 1017MOL0     H34236   0.097   5.781   3.513 -0.4271 -1.1472  2.0105
 1017MOL0     H34237  -0.080   5.786   3.476 -1.7663 -0.3137  1.3543
 1017MOL0     H34238  -0.096   5.594   3.642  2.4331 -2.2219  2.9254
 1017MOL0     H34239  -0.055   5.756   3.699 -0.7071  0.6588 -1.1396
 1017MOL0     H34240   0.198   5.660   3.660  0.4273 -0.0753  1.7392
 1017MOL0     H34241   0.103   5.612   3.807 -1.2406 -0.5265 -0.3300
 1017MOL0     H34242   0.044   5.251   3.600  0.1375 -0.7355 -1.2296
 1017MOL0     H34243   0.080   5.421   3.225  0.1412  2.7105  1.5614
 1017MOL0     H34244   0.198   5.336   3.017 -0.3654 -0.3403  1.3528
 1018MOL0     O34245   1.939   2.421  10.671 -0.1949  0.0598 -0.3664
 1018MOL0     C34246   2.000   2.316  10.694 -0.8589 -0.1581 -0.2004
 1018MOL0     O34247   2.096   2.300  10.790  0.2528 -0.2868 -0.4437
 1018MOL0     C34248   2.162   2.417  10.841 -0.4581  1.1455 -0.2681
 1018MOL0     C34249   2.197   2.405  10.974 -0.3058 -0.8101 -0.1631
 1018MOL0     C34250   2.261   2.516  11.033 -0.8400 -1.0442 -0.9733
 1018MOL0     C34251   2.300   2.629  10.961 -1.1477 -0.1243  0.5728
 1018MOL0     O34252   2.377   2.735  11.015  0.6192 -0.4473 -0.0831
 1018MOL0     C34253   2.465   2.729  11.129 -0.1803 -0.9290  1.0648
 1018MOL0     C34254   2.398   2.730  11.262  0.2421 -0.3199 -0.8872
 1018MOL0     C34255   2.393   2.873  11.313 -0.3990 -0.3962  0.0479
 1018MOL0     C34256   2.293   2.891  11.426  0.0424  0.3608  0.3971
 1018MOL0     C34257   2.313   2.789  11.542 -0.3183  0.1566 -0.0917
 1018MOL0     C34258   2.278   2.827  11.683 -0.1817 -0.5726  0.3762
 1018MOL0     C34259   2.135   2.855  11.708  0.1139  0.3134  0.8983
 1018MOL0     C34260   2.119   2.878  11.861  1.0106  0.4756  0.3921
 1018MOL0     N34261   1.979   2.892  11.904 -0.2297  0.1623 -1.0026
 1018MOL0     C34262   1.888   2.799  11.883 -0.0125 -0.7454 -0.3562
 1018MOL0     C34263   1.766   2.846  11.934  0.1441 -0.1071 -0.2640
 1018MOL0     C34264   1.640   2.774  11.939  0.3229 -0.0604 -1.2141
 1018MOL0     C34265   1.524   2.865  11.890  0.4221 -0.2336 -0.8121
 1018MOL0     C34266   1.390   2.786  11.913  0.2356  0.5453 -0.0359
 1018MOL0     C34267   1.266   2.841  11.834  0.5780 -0.0189 -1.2534
 1018MOL0     O34268   1.200   2.942  11.914 -0.0733  1.5810  0.1317
 1018MOL0     C34269   1.064   2.960  11.896  0.3104 -0.2165  0.1469
 1018MOL0     C34270   0.967   2.913  11.795  0.6545  0.1474 -0.1498
 1018MOL0     C34271   0.832   2.954  11.803 -0.0789  0.9181 -0.5756
 1018MOL0     C34272   0.789   3.044  11.905 -0.2805  0.5091  0.0490
 1018MOL0     C34273   0.651   3.089  11.911 -1.8069 -0.1515 -0.0244
 1018MOL0     O34274   0.624   3.191  12.007 -0.4276 -0.4025  0.5680
 1018MOL0     C34275   0.496   3.204  12.055 -0.6901  0.3947 -0.1674
 1018MOL0     C34276   0.406   3.094  12.070 -0.1518  0.0471  0.6589
 1018MOL0     C34277   0.286   3.115  12.136  0.5203  0.2232  0.6290
 1018MOL0     C34278   0.246   3.243  12.170 -0.0242  0.8992  0.8417
 1018MOL0     O34279   0.123   3.269  12.220  0.3466  0.2582  0.4008
 1018MOL0     C34280   0.043   3.166  12.265  1.1174  1.0315  0.2579
 1018MOL0     C34281  -0.073   3.224  12.341 -1.4299  0.7241 -0.7722
 1018MOL0     C34282  -0.152   3.116  12.406  0.4971  0.4851  0.9135
 1018MOL0     C34283  -0.261   3.067  12.308  0.2187 -0.7874  0.5626
 1018MOL0     C34284  -0.313   2.923  12.342 -0.9177  0.5261 -1.3428
 1018MOL0     C34285  -0.352   2.901  12.493  0.4180 -0.4121  0.4451
 1018MOL0     C34286  -0.435   2.768  12.512 -0.4399  0.0528 -1.3905
 1018MOL0     C34287  -0.439   2.739  12.661  0.4386  0.1941 -0.5152
 1018MOL0    Cl34288  -0.497   2.574  12.701  0.3603  0.0650  0.4596
 1018MOL0     C34289   0.330   3.349  12.148 -0.2270 -0.3427  1.2066
 1018MOL0     C34290   0.463   3.327  12.100 -0.1424 -0.4849  0.2724
 1018MOL0     O34291   0.574   3.046  11.822 -0.0763  0.5979  0.0685
 1018MOL0     C34292   0.882   3.081  12.003  0.1937 -0.5288 -0.1177
 1018MOL0     C34293   1.017   3.042  11.999 -0.8737 -0.0410 -0.2952
 1018MOL0     N34294   1.791   2.985  11.974  0.0454  0.5084  1.2201
 1018MOL0     N34295   1.921   3.004  11.951  0.3599  1.0859  0.6722
 1018MOL0     C34296   2.275   2.632  10.821 -0.3319 -0.2972 -0.0705
 1018MOL0     C34297   2.195   2.533  10.766 -0.5985  0.9897 -0.8902
 1018MOL0     C34298   1.957   2.191  10.635  0.3660 -0.3361  0.1937
 1018MOL0     C34299   1.824   2.182  10.584  0.2581  0.4191  1.2789
 1018MOL0     C34300   1.780   2.062  10.523 -0.7748 -0.8838 -0.3090
 1018MOL0     C34301   1.854   1.950  10.512  0.9416 -0.1695 -0.3628
 1018MOL0     O34302   1.805   1.829  10.468  0.1380  0.2011  0.4151
 1018MOL0     C34303   1.666   1.806  10.474  0.4179  0.6112  0.9787
 1018MOL0     C34304   1.653   1.655  10.457 -0.0532 -0.0525 -0.8712
 1018MOL0     C34305   1.515   1.595  10.435 -0.4815 -0.1514  0.2785
 1018MOL0     C34306   1.417   1.607  10.554 -0.1842 -1.0793  1.2051
 1018MOL0     C34307   1.450   1.540  10.677  0.2622 -0.3798  0.6202
 1018MOL0     C34308   1.487   1.489  10.779  0.7193  0.4087 -0.2018
 1018MOL0     C34309   1.984   1.963  10.555  0.3615  0.5268  0.4843
 1018MOL0     C34310   2.037   2.077  10.622  0.1664 -1.3278  0.0620
 1018MOL0     H34311   2.163   2.314  11.021  0.4084 -0.5064  0.9831
 1018MOL0     H34312   2.295   2.504  11.136 -0.5379 -1.6272 -1.1383
 1018MOL0     H34313   2.530   2.817  11.119 -0.4604 -0.9628 -2.2971
 1018MOL0     H34314   2.526   2.638  11.125 -0.1298 -0.8642 -2.1975
 1018MOL0     H34315   2.455   2.671  11.335  1.9167  0.2733 -1.6712
 1018MOL0     H34316   2.296   2.691  11.254  0.4613 -1.1860  0.1985
 1018MOL0     H34317   2.373   2.938  11.227  1.9022  2.7026  1.6515
 1018MOL0     H34318   2.490   2.913  11.344 -1.8042  1.7767  1.8695
 1018MOL0     H34319   2.287   2.991  11.469 -1.7770 -1.0434  3.8390
 1018MOL0     H34320   2.196   2.866  11.382  0.4221 -2.1105  0.8196
 1018MOL0     H34321   2.421   2.775  11.545 -0.7884 -5.1948  2.7418
 1018MOL0     H34322   2.275   2.690  11.514 -3.5412  1.0398  0.6925
 1018MOL0     H34323   2.329   2.920  11.708  1.6010 -1.6554  0.9540
 1018MOL0     H34324   2.312   2.747  11.750 -2.2435 -4.5378 -2.8308
 1018MOL0     H34325   2.121   2.950  11.655  4.9104  0.6196 -0.3030
 1018MOL0     H34326   2.076   2.778  11.659 -2.2336  1.5282  1.6915
 1018MOL0     H34327   2.182   2.954  11.909  2.9691  0.0778 -1.3696
 1018MOL0     H34328   2.157   2.782  11.898  0.1377 -0.5346 -1.2081
 1018MOL0     H34329   1.909   2.709  11.827  0.7227  0.2438 -1.7084
 1018MOL0     H34330   1.619   2.745  12.043 -1.4108  4.1491 -0.1619
 1018MOL0     H34331   1.637   2.676  11.892 -1.3024 -2.0226  2.5774
 1018MOL0     H34332   1.550   2.876  11.784  1.5336 -2.1270 -0.7796
 1018MOL0     H34333   1.524   2.960  11.944 -2.0910 -0.7189  0.1629
 1018MOL0     H34334   1.402   2.684  11.878  1.3313 -0.5304  3.1223
 1018MOL0     H34335   1.363   2.771  12.018  0.4769  0.8924  0.0784
 1018MOL0     H34336   1.194   2.762  11.814 -0.4210  0.8530 -1.1711
 1018MOL0     H34337   1.299   2.879  11.737 -2.7153  0.7274 -2.1870
 1018MOL0     H34338   1.013   2.847  11.722  1.3181 -2.3020  2.3045
 1018MOL0     H34339   0.763   2.911  11.732  0.9331 -0.1799 -0.9334
 1018MOL0     H34340   0.422   2.992  12.035  0.7795  1.0928 -2.2289
 1018MOL0     H34341   0.219   3.030  12.136  1.8755 -0.8790  0.9410
 1018MOL0     H34342   0.103   3.099  12.328  1.6791  0.8837 -0.4240
 1018MOL0     H34343   0.001   3.113  12.179 -1.6123 -1.0701  2.6468
 1018MOL0     H34344  -0.131   3.273  12.262 -2.5463 -1.3039 -1.2869
 1018MOL0     H34345  -0.046   3.301  12.414  4.0915 -1.0246 -0.4594
 1018MOL0     H34346  -0.201   3.159  12.494  0.9159 -2.6034  2.8281
 1018MOL0     H34347  -0.105   3.021  12.436 -0.1181  0.3304  1.4346
 1018MOL0     H34348  -0.348   3.132  12.319  0.2632 -0.5205 -0.5967
 1018MOL0     H34349  -0.233   3.075  12.203 -1.3626  1.8322  0.2659
 1018MOL0     H34350  -0.237   2.852  12.306  0.1144  0.5957  0.5758
 1018MOL0     H34351  -0.406   2.907  12.287  0.1937 -1.6051 -2.7603
 1018MOL0     H34352  -0.421   2.982  12.517 -0.8547 -1.4951  0.5601
 1018MOL0     H34353  -0.260   2.893  12.550 -0.6941 -1.4943  2.1797
 1018MOL0     H34354  -0.527   2.776  12.455 -0.8164 -2.8586 -1.3256
 1018MOL0     H34355  -0.382   2.681  12.473  0.5455 -0.2385  0.4638
 1018MOL0     H34356  -0.503   2.808  12.717 -0.7500 -1.1480 -0.1678
 1018MOL0     H34357  -0.334   2.759  12.684  0.2168  5.4221 -2.6145
 1018MOL0     H34358   0.314   3.449  12.187  2.5631  0.1267  1.3667
 1018MOL0     H34359   0.530   3.412  12.089 -2.1639  1.5024  2.2676
 1018MOL0     H34360   0.844   3.153  12.074  1.1173  1.2363 -1.3328
 1018MOL0     H34361   1.089   3.060  12.078 -1.1957  0.4194 -0.1012
 1018MOL0     H34362   2.296   2.729  10.778  1.9136  0.7235  2.9501
 1018MOL0     H34363   2.167   2.544  10.662  0.8966  0.7150 -1.3446
 1018MOL0     H34364   1.760   2.267  10.604  0.2021  0.3170  1.5476
 1018MOL0     H34365   1.678   2.063  10.484 -0.4894 -0.3759 -1.0750
 1018MOL0     H34366   1.621   1.845  10.382  0.0293 -3.2821 -0.6557
 1018MOL0     H34367   1.609   1.838  10.562 -0.7849  3.2803 -0.6520
 1018MOL0     H34368   1.709   1.633  10.366 -0.2089  0.4695 -1.0965
 1018MOL0     H34369   1.697   1.608  10.546 -1.8262  0.0223  0.0994
 1018MOL0     H34370   1.532   1.488  10.426  2.2635  0.0594  2.0072
 1018MOL0     H34371   1.475   1.628  10.338  0.6387 -0.6678 -0.3737
 1018MOL0     H34372   1.389   1.711  10.574 -0.5957 -1.0940  0.7317
 1018MOL0     H34373   1.329   1.553  10.518  1.6103 -1.8359 -2.5980
 1018MOL0     H34374   1.523   1.433  10.863  1.5956  0.1873 -0.7167
 1018MOL0     H34375   2.053   1.880  10.545  2.9980  2.7591 -1.6673
 1018MOL0     H34376   2.133   2.055  10.667  1.0839  0.4627 -0.9173
 1019MOL0     O34377   2.825   7.554  11.169 -0.3694 -0.1719  0.6164
 1019MOL0     C34378   2.797   7.442  11.133 -0.3353  0.3590 -0.3016
 1019MOL0     O34379   2.892   7.345  11.106 -0.3058  0.4507  0.4702
 1019MOL0     C34380   3.029   7.358  11.130 -0.4901 -0.8950 -0.4599
 1019MOL0     C34381   3.123   7.297  11.043  0.7029  0.0038 -0.5414
 1019MOL0     C34382   3.263   7.317  11.064 -0.0505 -0.1474  0.3320
 1019MOL0     C34383   3.312   7.392  11.175  0.7114 -0.1697 -0.1766
 1019MOL0     O34384   3.451   7.402  11.204  1.2608 -0.0265 -0.7995
 1019MOL0     C34385   3.510   7.278  11.208  0.9374  0.2478  0.3914
 1019MOL0     C34386   3.602   7.273  11.327 -0.0031  0.5169  0.1075
 1019MOL0     C34387   3.715   7.170  11.329 -0.2743  0.0885 -0.4472
 1019MOL0     C34388   3.824   7.182  11.229  1.1400  0.2655 -0.6228
 1019MOL0     C34389   3.968   7.130  11.271  0.7665 -0.0001 -0.7515
 1019MOL0     C34390   4.030   7.208  11.398 -0.0025  0.6652 -0.3542
 1019MOL0     C34391   4.159   7.127  11.442 -1.0907  0.5160  0.1856
 1019MOL0     C34392   4.280   7.123  11.349  0.8119 -0.0192 -0.5700
 1019MOL0     N34393   4.324   7.265  11.327 -0.3672 -0.3009 -0.5125
 1019MOL0     C34394   4.424   7.329  11.396 -0.5200  0.7195  0.5582
 1019MOL0     C34395   4.435   7.445  11.329 -0.4795  0.1896 -0.3184
 1019MOL0     C34396   4.530   7.557  11.351 -0.2111 -0.1681  0.7163
 1019MOL0     C34397   4.453   7.678  11.401  0.3842  0.3658  0.4763
 1019MOL0     C34398   4.543   7.797  11.385 -0.9891  0.6646  0.1043
 1019MOL0     C34399   4.465   7.927  11.377  0.7381 -1.3558 -0.3031
 1019MOL0     O34400   4.382   7.962  11.499  0.2214 -0.3227 -0.5712
 1019MOL0     C34401   4.377   8.095  11.536  0.3302 -0.0161  1.0297
 1019MOL0     C34402   4.490   8.139  11.604 -1.3867 -0.7286  0.2649
 1019MOL0     C34403   4.499   8.269  11.663  0.5755 -0.0363  0.7496
 1019MOL0     C34404   4.391   8.364  11.643  0.0290  0.6872 -0.2986
 1019MOL0     C34405   4.403   8.503  11.675 -0.1289  0.7531  1.1250
 1019MOL0     O34406   4.522   8.541  11.724  0.7305 -0.3695  0.4496
 1019MOL0     C34407   4.553   8.673  11.760  0.1363  0.6459 -0.8579
 1019MOL0     C34408   4.486   8.792  11.733  0.0944  0.1735  0.0757
 1019MOL0     C34409   4.553   8.914  11.751 -0.6646  0.9789 -0.5319
 1019MOL0     C34410   4.687   8.913  11.810 -0.0466  0.2356 -0.1880
 1019MOL0     O34411   4.762   9.029  11.813  0.9609 -0.6905  0.5823
 1019MOL0     C34412   4.872   9.048  11.904  0.8292  0.4273 -0.2645
 1019MOL0     C34413   4.904   9.192  11.884 -0.5687 -0.2362 -0.8171
 1019MOL0     C34414   5.002   9.236  11.993 -0.1241 -0.2589  0.0046
 1019MOL0     C34415   5.138   9.192  11.981 -0.4118  0.6330  0.0108
 1019MOL0     C34416   5.256   9.280  12.025 -0.5118  0.1868 -0.1356
 1019MOL0     C34417   5.297   9.270  12.168  0.1455 -0.0127  0.1355
 1019MOL0     C34418   5.448   9.319  12.194 -0.1961  0.5971 -0.2911
 1019MOL0     C34419   5.489   9.308  12.337  0.3762  0.0143 -0.4810
 1019MOL0    Cl34420   5.657   9.245  12.335  0.0036 -0.4429  0.5588
 1019MOL0     C34421   4.744   8.789  11.854  0.1340  0.4037  0.1015
 1019MOL0     C34422   4.676   8.668  11.825  1.5513  0.0999 -0.9014
 1019MOL0     O34423   4.317   8.579  11.621 -0.1062  0.6271  1.0640
 1019MOL0     C34424   4.271   8.316  11.568 -0.2566 -0.4393 -0.3979
 1019MOL0     C34425   4.266   8.183  11.522  0.1847 -0.1057  1.1361
 1019MOL0     N34426   4.350   7.452  11.226  0.3347  0.3965 -0.0282
 1019MOL0     N34427   4.289   7.338  11.216  0.1706 -0.1872  0.8883
 1019MOL0     C34428   3.219   7.449  11.265 -0.6159 -1.1836 -0.1455
 1019MOL0     C34429   3.081   7.434  11.243  0.2963  0.5408  1.3991
 1019MOL0     C34430   2.652   7.411  11.137  1.1467  0.2329  0.6912
 1019MOL0     C34431   2.570   7.483  11.222  1.5993  0.2989 -0.2847
 1019MOL0     C34432   2.427   7.448  11.239  0.3272  0.8673 -0.1129
 1019MOL0     C34433   2.375   7.339  11.170  0.0525 -0.8828 -0.5130
 1019MOL0     O34434   2.248   7.284  11.174  0.0824 -0.3018  0.4289
 1019MOL0     C34435   2.172   7.297  11.297 -1.1202  0.8071 -0.1715
 1019MOL0     C34436   2.030   7.330  11.275 -0.3332 -0.3182 -0.4944
 1019MOL0     C34437   2.009   7.414  11.156  1.0983 -0.5565  0.0962
 1019MOL0     C34438   1.873   7.465  11.109 -0.7929  0.2576 -1.1845
 1019MOL0     C34439   1.776   7.365  11.076  0.7090 -0.1584 -0.3179
 1019MOL0     C34440   1.705   7.267  11.059 -0.4020 -0.3792  0.8490
 1019MOL0     C34441   2.460   7.273  11.086  0.6778 -0.1660  0.1160
 1019MOL0     C34442   2.597   7.294  11.074  1.0283  0.5278  0.1582
 1019MOL0     H34443   3.077   7.257  10.953 -2.0467  3.6401 -0.9648
 1019MOL0     H34444   3.328   7.296  10.980 -0.2187  3.9132 -1.0305
 1019MOL0     H34445   3.573   7.277  11.119  1.6768  0.1083  0.9053
 1019MOL0     H34446   3.443   7.195  11.233  0.1649 -0.2072 -2.7822
 1019MOL0     H34447   3.534   7.258  11.411 -0.6503  0.9589 -0.3238
 1019MOL0     H34448   3.650   7.370  11.345  2.2699 -0.4845 -0.1969
 1019MOL0     H34449   3.678   7.067  11.329  0.6869 -0.3247 -2.9726
 1019MOL0     H34450   3.765   7.177  11.426  0.7634 -4.7392 -0.3819
 1019MOL0     H34451   3.778   7.141  11.139 -0.2639  2.6633 -1.1007
 1019MOL0     H34452   3.818   7.291  11.216 -0.1214  0.0795 -1.8096
 1019MOL0     H34453   4.033   7.126  11.183  2.8070 -1.9482  0.7047
 1019MOL0     H34454   3.962   7.026  11.305 -3.0914  0.3373  0.0360
 1019MOL0     H34455   3.958   7.207  11.479 -1.0630 -1.1889 -1.2537
 1019MOL0     H34456   4.060   7.312  11.376  2.3648  0.4946  1.6708
 1019MOL0     H34457   4.188   7.177  11.535 -0.5705 -2.7171  1.8684
 1019MOL0     H34458   4.136   7.021  11.450  0.2668  0.0675 -1.4919
 1019MOL0     H34459   4.264   7.077  11.251  1.8200 -0.3788 -0.5817
 1019MOL0     H34460   4.357   7.068  11.404  0.6414  1.3061  1.0425
 1019MOL0     H34461   4.488   7.319  11.483  1.7423 -0.4136 -1.1174
 1019MOL0     H34462   4.575   7.571  11.253 -0.9314 -3.4439 -0.2236
 1019MOL0     H34463   4.606   7.526  11.424  1.5082 -3.1234 -2.0546
 1019MOL0     H34464   4.426   7.657  11.505  0.2723 -0.6593  0.2516
 1019MOL0     H34465   4.363   7.695  11.340 -1.5361  0.4569  3.1384
 1019MOL0     H34466   4.611   7.803  11.470 -0.2432 -2.0806 -0.1864
 1019MOL0     H34467   4.618   7.789  11.306  1.6909 -0.0927  2.5513
 1019MOL0     H34468   4.389   7.922  11.299  0.6647  0.1257 -0.3482
 1019MOL0     H34469   4.529   8.014  11.360 -0.6808 -0.1829  0.1487
 1019MOL0     H34470   4.573   8.069  11.612 -0.1433  0.8591  2.0378
 1019MOL0     H34471   4.587   8.287  11.724  0.8512  2.9154 -0.3454
 1019MOL0     H34472   4.393   8.795  11.675 -0.0585  3.9256  0.3201
 1019MOL0     H34473   4.513   9.009  11.717  0.5236  2.0896  1.0295
 1019MOL0     H34474   4.956   8.985  11.873  0.9146 -1.1313  2.7510
 1019MOL0     H34475   4.845   9.019  12.006  2.1631 -4.7889 -1.0948
 1019MOL0     H34476   4.819   9.261  11.879  2.7676  4.7523  1.7040
 1019MOL0     H34477   4.953   9.209  11.788  2.3511  0.4554  0.6713
 1019MOL0     H34478   4.964   9.198  12.088 -0.8445 -0.9679 -0.5423
 1019MOL0     H34479   5.001   9.344  12.006 -0.3510 -0.3147  0.4606
 1019MOL0     H34480   5.128   9.097  12.034 -3.1321 -1.1343 -3.3353
 1019MOL0     H34481   5.156   9.166  11.877 -2.7150 -0.4900 -0.1650
 1019MOL0     H34482   5.225   9.383  12.006 -2.7283 -0.4130 -0.0301
 1019MOL0     H34483   5.337   9.241  11.961  1.1029 -1.1813  2.5587
 1019MOL0     H34484   5.283   9.164  12.192 -3.4536  0.2327 -0.4344
 1019MOL0     H34485   5.233   9.330  12.233  0.3222 -1.2705  1.5475
 1019MOL0     H34486   5.503   9.236  12.148  0.9733  0.7562  0.7703
 1019MOL0     H34487   5.471   9.420  12.160  0.3895  0.4132 -0.4489
 1019MOL0     H34488   5.422   9.241  12.392 -1.0156 -1.8824 -4.1372
 1019MOL0     H34489   5.497   9.412  12.372  2.7314  0.4102 -2.0050
 1019MOL0     H34490   4.839   8.790  11.908  0.5316 -0.6584 -0.5400
 1019MOL0     H34491   4.733   8.583  11.862  1.0239 -0.6010 -1.6527
 1019MOL0     H34492   4.193   8.389  11.548 -1.5609 -1.3224  1.1968
 1019MOL0     H34493   4.176   8.148  11.473 -0.0241 -1.0392  2.1591
 1019MOL0     H34494   3.260   7.507  11.347 -1.1893 -1.3927  0.2994
 1019MOL0     H34495   3.006   7.482  11.305  1.2567  2.5856  1.0889
 1019MOL0     H34496   2.614   7.561  11.284 -1.7819  0.7499  1.8155
 1019MOL0     H34497   2.369   7.492  11.319 -1.9755 -0.7743 -0.7812
 1019MOL0     H34498   2.222   7.372  11.358  2.0682 -1.3587  0.1222
 1019MOL0     H34499   2.173   7.202  11.350  0.8100 -0.5320 -2.4042
 1019MOL0     H34500   1.971   7.239  11.257 -0.0555 -0.6162  0.1001
 1019MOL0     H34501   1.990   7.368  11.369 -1.2433 -1.2573 -0.4749
 1019MOL0     H34502   2.055   7.368  11.068 -2.5959 -1.7420 -1.4275
 1019MOL0     H34503   2.065   7.506  11.172  2.8440 -1.4409 -0.6870
 1019MOL0     H34504   1.835   7.543  11.175 -2.0819 -0.8920 -0.5243
 1019MOL0     H34505   1.901   7.507  11.012  3.3031  1.2394  0.2194
 1019MOL0     H34506   1.651   7.177  11.040  0.8146 -0.7753 -0.9513
 1019MOL0     H34507   2.411   7.188  11.041  1.9978 -0.9036  0.0263
 1019MOL0     H34508   2.656   7.224  11.015 -1.8315 -0.8025 -1.3099
 1020MOL0     O34509  11.178   5.342  11.223  0.1157 -0.1032 -0.4881
 1020MOL0     C34510  11.196   5.460  11.236  0.4729 -0.7695 -0.1978
 1020MOL0     O34511  11.310   5.522  11.292  0.2579  0.5246  1.1875
 1020MOL0     C34512  11.425   5.451  11.316  0.0825  0.1422 -0.7510
 1020MOL0     C34513  11.489   5.486  11.443 -0.2481  0.5275  0.0791
 1020MOL0     C34514  11.614   5.440  11.478 -0.4994 -0.7287 -0.7156
 1020MOL0     C34515  11.681   5.358  11.391 -0.0087  0.2214 -0.0897
 1020MOL0     O34516  11.804   5.302  11.414 -0.2256 -0.2509 -0.1428
 1020MOL0     C34517  11.898   5.375  11.504  0.2224 -0.7589  0.6132
 1020MOL0     C34518  11.973   5.275  11.582  0.0485  0.4711 -0.2083
 1020MOL0     C34519  12.058   5.339  11.685  0.3983  0.5830 -0.1323
 1020MOL0     C34520  12.127   5.475  11.646 -0.4532  0.9159 -0.6884
 1020MOL0     C34521  12.240   5.523  11.739 -0.1665 -0.1229  0.7413
 1020MOL0     C34522  12.307   5.655  11.689  0.4519  0.6532  0.9655
 1020MOL0     C34523  12.331   5.735  11.812  0.3634 -0.8542 -0.2539
 1020MOL0     C34524  12.378   5.874  11.767 -0.8546 -0.7733 -0.2065
 1020MOL0     N34525  12.437   5.958  11.884 -0.1122  0.5503  0.7674
 1020MOL0     C34526  12.552   5.909  11.946  0.6110  0.1252 -0.4224
 1020MOL0     C34527  12.589   6.010  12.020 -0.1639  0.0309 -0.4638
 1020MOL0     C34528  12.709   6.023  12.109  0.2279 -0.8207  0.4043
 1020MOL0     C34529  12.820   6.086  12.024  1.2947 -0.5852  0.2320
 1020MOL0     C34530  12.946   6.110  12.098 -0.0086 -0.3228 -0.3100
 1020MOL0     C34531  13.052   6.186  12.003 -0.3079  0.4503  1.2094
 1020MOL0     O34532  13.146   6.261  12.073 -0.5693 -0.0493 -0.0851
 1020MOL0     C34533  13.252   6.312  11.996 -0.1349  0.2473  0.2541
 1020MOL0     C34534  13.333   6.396  12.069  0.0805 -0.4619 -0.1287
 1020MOL0     C34535  13.445   6.456  12.019 -0.1277  0.5012  0.5823
 1020MOL0     C34536  13.489   6.432  11.891 -1.0306 -0.5031  0.6355
 1020MOL0     C34537  13.615   6.482  11.831  0.2481 -0.5893 -0.5435
 1020MOL0     O34538  13.709   6.534  11.917 -0.0730 -0.4825  0.1225
 1020MOL0     C34539  13.823   6.582  11.862 -0.5945 -0.4267 -0.1646
 1020MOL0     C34540  13.833   6.678  11.760  0.3393  0.1156  0.7799
 1020MOL0     C34541  13.958   6.714  11.697  0.6676 -0.6598 -0.0554
 1020MOL0     C34542  14.084   6.661  11.742 -0.0755  0.2618 -0.6108
 1020MOL0     O34543  14.200   6.697  11.686 -0.5215  0.3425  0.5173
 1020MOL0     C34544  14.329   6.649  11.723 -0.0824 -0.1912  0.1147
 1020MOL0     C34545  14.443   6.699  11.631 -0.3070  0.2010 -1.3645
 1020MOL0     C34546  14.580   6.676  11.696  0.0787 -0.2012  0.8701
 1020MOL0     C34547  14.691   6.757  11.628  0.4238  0.0229 -0.5003
 1020MOL0     C34548  14.830   6.682  11.669  0.2165 -0.2051 -0.6629
 1020MOL0     C34549  14.862   6.677  11.818 -0.5350 -0.3238  0.0216
 1020MOL0     C34550  14.988   6.595  11.839  0.2564 -0.2250  0.1635
 1020MOL0     C34551  14.997   6.600  12.001 -0.1571  0.1567  0.2426
 1020MOL0    Cl34552  14.933   6.450  12.082 -0.1685 -0.5620  0.1578
 1020MOL0     C34553  14.075   6.564  11.846 -0.6022  0.8119 -0.2371
 1020MOL0     C34554  13.953   6.531  11.904 -0.3292 -0.0467 -0.4768
 1020MOL0     O34555  13.625   6.475  11.707 -0.6141 -0.4290 -0.6109
 1020MOL0     C34556  13.408   6.346  11.813  0.4092  0.3824  0.6685
 1020MOL0     C34557  13.288   6.289  11.869 -0.2943  0.8300  0.7003
 1020MOL0     N34558  12.501   6.116  12.000  0.5550  0.3403 -0.1849
 1020MOL0     N34559  12.407   6.085  11.910 -0.3804  0.9429 -0.0171
 1020MOL0     C34560  11.623   5.331  11.267  0.3654 -0.2915 -0.2909
 1020MOL0     C34561  11.488   5.367  11.226 -0.1421 -0.2415 -0.0172
 1020MOL0     C34562  11.081   5.546  11.195  0.0220 -1.3322 -0.0754
 1020MOL0     C34563  10.963   5.492  11.145 -0.1761 -0.2695  0.6312
 1020MOL0     C34564  10.852   5.562  11.139  0.0090  0.7582 -0.2506
 1020MOL0     C34565  10.857   5.696  11.146 -0.3553  0.8068  0.4342
 1020MOL0     O34566  10.734   5.755  11.119 -0.4908  0.3011  0.5405
 1020MOL0     C34567  10.734   5.897  11.078 -0.8117 -0.1354 -0.0154
 1020MOL0     C34568  10.581   5.930  11.044 -0.3061 -0.4227  0.2304
 1020MOL0     C34569  10.531   5.852  10.916  0.0019 -0.0966  0.7445
 1020MOL0     C34570  10.407   5.921  10.849  0.0523 -0.5943 -0.7862
 1020MOL0     C34571  10.279   5.884  10.901  0.4109  1.0200 -0.1778
 1020MOL0     C34572  10.174   5.826  10.931 -0.4732 -0.8918  0.0295
 1020MOL0     C34573  10.981   5.766  11.157  0.2982 -0.1115 -0.9675
 1020MOL0     C34574  11.090   5.689  11.197 -0.2516 -0.1372  0.1139
 1020MOL0     H34575  11.442   5.568  11.497 -0.2077  0.8548 -0.3778
 1020MOL0     H34576  11.652   5.479  11.572 -1.9195 -1.2502  0.1036
 1020MOL0     H34577  11.852   5.443  11.577  1.5560 -0.6386  1.3780
 1020MOL0     H34578  11.969   5.422  11.435  0.5492 -3.9820 -1.4107
 1020MOL0     H34579  12.030   5.204  11.521 -1.4261 -0.0583 -1.0187
 1020MOL0     H34580  11.900   5.212  11.635 -0.7543  1.9926  0.5831
 1020MOL0     H34581  12.131   5.265  11.719  3.2083  1.4832 -3.5811
 1020MOL0     H34582  12.006   5.359  11.779 -2.2650 -3.6387 -0.4706
 1020MOL0     H34583  12.171   5.455  11.547  1.1276 -0.8594  0.2952
 1020MOL0     H34584  12.050   5.552  11.634 -1.9700 -0.7523 -2.4214
 1020MOL0     H34585  12.331   5.463  11.746  1.2976  1.9264 -0.1690
 1020MOL0     H34586  12.200   5.526  11.841 -1.2130 -1.2178  0.3865
 1020MOL0     H34587  12.257   5.709  11.608  4.2982 -1.2449 -3.1211
 1020MOL0     H34588  12.403   5.618  11.652  0.8705  2.7614 -0.2058
 1020MOL0     H34589  12.245   5.741  11.880  0.4373  2.2528 -0.2851
 1020MOL0     H34590  12.406   5.678  11.868  0.5744 -1.4632 -1.1519
 1020MOL0     H34591  12.295   5.926  11.719 -1.4923 -0.1289  1.5255
 1020MOL0     H34592  12.454   5.858  11.690  3.4235 -1.0923  3.5853
 1020MOL0     H34593  12.584   5.805  11.937  2.6179  0.3128  2.8397
 1020MOL0     H34594  12.734   5.924  12.146  4.4938 -0.7313 -1.5970
 1020MOL0     H34595  12.677   6.093  12.186 -0.4052 -2.0915  1.3256
 1020MOL0     H34596  12.791   6.189  12.002  3.8088  0.3075  0.6593
 1020MOL0     H34597  12.831   6.032  11.930 -2.9555  0.6746 -1.2113
 1020MOL0     H34598  12.912   6.175  12.178 -2.4683 -2.1872  0.2837
 1020MOL0     H34599  12.983   6.014  12.134 -0.7028 -0.4479  0.0879
 1020MOL0     H34600  12.994   6.252  11.939  0.9610  1.1009  0.6812
 1020MOL0     H34601  13.105   6.121  11.932  0.6500  1.3847  1.0344
 1020MOL0     H34602  13.298   6.418  12.169  0.0438 -1.9474  0.2116
 1020MOL0     H34603  13.497   6.516  12.093 -1.2199 -0.2229  1.9822
 1020MOL0     H34604  13.740   6.722  11.728 -0.6392 -1.0117  1.9748
 1020MOL0     H34605  13.956   6.794  11.624  0.9500 -0.1955  0.4365
 1020MOL0     H34606  14.327   6.540  11.720  1.9235 -0.2606  0.1475
 1020MOL0     H34607  14.344   6.682  11.827  1.0738 -1.2028  0.2878
 1020MOL0     H34608  14.425   6.803  11.605 -2.2121  0.1362 -0.5039
 1020MOL0     H34609  14.443   6.642  11.538 -4.2715  0.2573 -1.5899
 1020MOL0     H34610  14.596   6.568  11.693  0.5440 -0.1167 -0.8100
 1020MOL0     H34611  14.583   6.708  11.801  0.0272  0.8903  0.5441
 1020MOL0     H34612  14.670   6.767  11.521 -4.4023  0.9472  0.3267
 1020MOL0     H34613  14.676   6.857  11.670 -1.8879 -0.6473  0.4132
 1020MOL0     H34614  14.904   6.742  11.616 -0.1280 -0.2763 -1.2364
 1020MOL0     H34615  14.817   6.580  11.633 -0.6596  0.2717 -1.8097
 1020MOL0     H34616  14.785   6.639  11.885  1.6002  1.8132  4.0665
 1020MOL0     H34617  14.871   6.777  11.861  2.5902 -0.6944  0.4670
 1020MOL0     H34618  14.968   6.490  11.816 -1.0736  0.5433 -2.5229
 1020MOL0     H34619  15.077   6.628  11.785  2.7458 -0.7858  3.5748
 1020MOL0     H34620  14.972   6.695  12.049  1.8031  1.3046 -0.8876
 1020MOL0     H34621  15.103   6.576  12.016 -0.3754  1.0873  4.7340
 1020MOL0     H34622  14.155   6.502  11.888 -2.2459 -1.4610 -0.2518
 1020MOL0     H34623  13.949   6.455  11.982 -0.7308 -1.2644 -1.6412
 1020MOL0     H34624  13.445   6.318  11.715  0.9179 -0.5907  1.1247
 1020MOL0     H34625  13.241   6.223  11.797  3.2133 -0.1728 -0.9346
 1020MOL0     H34626  11.673   5.271  11.191  1.0216  2.1622 -1.9056
 1020MOL0     H34627  11.440   5.339  11.133 -4.4443  0.9611  1.5750
 1020MOL0     H34628  10.959   5.385  11.127 -1.2323 -0.0255 -0.6422
 1020MOL0     H34629  10.762   5.503  11.124  2.6563 -4.1462  1.1080
 1020MOL0     H34630  10.798   5.917  10.992  1.5640 -1.7026  1.2730
 1020MOL0     H34631  10.776   5.951  11.163 -0.2547  1.7892 -1.4635
 1020MOL0     H34632  10.524   5.904  11.133 -1.2558  0.3264 -0.1491
 1020MOL0     H34633  10.574   6.038  11.029  0.0598 -0.3764  0.3613
 1020MOL0     H34634  10.510   5.748  10.941 -0.9754  0.4507  2.3072
 1020MOL0     H34635  10.612   5.844  10.843 -0.9939 -1.2382 -0.2831
 1020MOL0     H34636  10.402   6.030  10.857  2.6682 -0.0783 -3.9715
 1020MOL0     H34637  10.393   5.900  10.743 -0.8654 -2.7430 -0.3010
 1020MOL0     H34638  10.083   5.770  10.932 -2.2402  1.7186 -1.7322
 1020MOL0     H34639  11.009   5.871  11.157  1.0679 -0.2821  0.7246
 1020MOL0     H34640  11.181   5.746  11.216  1.9100 -2.4924 -2.2631
 1021MOL0     O34641   1.636   4.651   9.819 -0.0405 -0.0071  0.2723
 1021MOL0     C34642   1.673   4.735   9.903 -0.2604 -0.2489  1.3431
 1021MOL0     O34643   1.645   4.736  10.032  0.6151 -0.4854 -0.5492
 1021MOL0     C34644   1.605   4.619  10.095  0.6963  0.5806 -0.7050
 1021MOL0     C34645   1.635   4.489  10.067 -0.1684  1.4665  0.5817
 1021MOL0     C34646   1.601   4.382  10.150  1.0906  1.0951 -0.0131
 1021MOL0     C34647   1.512   4.391  10.258 -0.3352 -0.7554  0.9968
 1021MOL0     O34648   1.450   4.296  10.327 -0.0273  0.0817  0.6451
 1021MOL0     C34649   1.406   4.179  10.256  0.4118  0.4921  0.2070
 1021MOL0     C34650   1.328   4.100  10.362  0.4193 -1.3791  1.0701
 1021MOL0     C34651   1.186   4.166  10.391 -0.1182  0.5090  0.1011
 1021MOL0     C34652   1.088   4.073  10.475 -1.3437  0.1832  0.0405
 1021MOL0     C34653   0.952   4.139  10.451 -0.4945  0.3824 -0.2892
 1021MOL0     C34654   0.926   4.240  10.568 -0.3723 -0.4218  0.7216
 1021MOL0     C34655   0.790   4.307  10.544  0.8324  0.3394  0.4887
 1021MOL0     C34656   0.665   4.218  10.524  0.2289 -0.3973  0.9166
 1021MOL0     N34657   0.540   4.307  10.537 -0.7721  1.2942  0.2795
 1021MOL0     C34658   0.521   4.414  10.615  0.2765 -0.6503 -0.4671
 1021MOL0     C34659   0.394   4.454  10.591  0.4070 -1.5894  0.1874
 1021MOL0     C34660   0.325   4.574  10.667  0.0875  0.4518  0.4507
 1021MOL0     C34661   0.323   4.698  10.577  0.6012 -0.0420  0.0799
 1021MOL0     C34662   0.200   4.739  10.510  1.3292 -0.7344  0.0557
 1021MOL0     C34663   0.136   4.614  10.433  0.2427 -1.1007  0.5560
 1021MOL0     O34664   0.027   4.659  10.345  0.1382 -0.3786 -0.3465
 1021MOL0     C34665  -0.092   4.613  10.398  0.2103 -0.4675 -0.3505
 1021MOL0     C34666  -0.166   4.699  10.488 -0.0671  0.7302 -0.6056
 1021MOL0     C34667  -0.298   4.659  10.519  0.2352  0.6532 -0.6033
 1021MOL0     C34668  -0.356   4.534  10.465  0.6346  0.2314  0.9828
 1021MOL0     C34669  -0.497   4.504  10.506  0.0740  0.4005  0.5311
 1021MOL0     O34670  -0.536   4.372  10.475 -0.3166  0.1191 -0.3502
 1021MOL0     C34671  -0.655   4.316  10.521 -0.0634 -0.4840  0.6100
 1021MOL0     C34672  -0.702   4.204  10.463  0.0948  0.4118 -0.6172
 1021MOL0     C34673  -0.828   4.145  10.495  0.6824  0.3307 -0.3245
 1021MOL0     C34674  -0.907   4.197  10.597 -0.2503  0.7293 -0.7792
 1021MOL0     O34675  -1.024   4.131  10.648 -0.0311  0.4647  0.6526
 1021MOL0     C34676  -0.998   4.004  10.708 -0.0106 -1.1044 -0.0715
 1021MOL0     C34677  -1.127   3.939  10.757  0.3527 -1.2060 -0.0103
 1021MOL0     C34678  -1.218   3.907  10.645  0.2610  0.1425  0.2172
 1021MOL0     C34679  -1.366   3.911  10.685  0.0295  0.4847  0.4870
 1021MOL0     C34680  -1.457   3.935  10.568  0.2833  0.3710 -1.1768
 1021MOL0     C34681  -1.598   3.955  10.620 -0.2620  0.2127  0.0502
 1021MOL0     C34682  -1.689   3.999  10.502 -0.5700  0.1778 -0.5641
 1021MOL0     C34683  -1.830   4.031  10.553  0.5460  0.5614  0.1748
 1021MOL0    Cl34684  -1.943   3.898  10.587  0.0591  0.6349  0.0308
 1021MOL0     C34685  -0.868   4.317  10.661  0.2440 -0.3692  0.2764
 1021MOL0     C34686  -0.741   4.379  10.619  1.1814 -0.1216  0.0669
 1021MOL0     O34687  -0.571   4.590  10.546  0.3806 -0.0016  0.5470
 1021MOL0     C34688  -0.278   4.456  10.378 -0.6941  1.0514  0.3666
 1021MOL0     C34689  -0.142   4.493  10.344 -0.1880 -0.1867 -0.4156
 1021MOL0     N34690   0.340   4.369  10.499  0.0241 -0.4863 -0.1397
 1021MOL0     N34691   0.425   4.281  10.469  0.0659  0.2619  0.8681
 1021MOL0     C34692   1.479   4.526  10.286 -0.4726 -0.8780  0.0810
 1021MOL0     C34693   1.518   4.631  10.207 -0.2524 -0.1626 -1.1773
 1021MOL0     C34694   1.762   4.846   9.858 -0.3421 -0.0815  0.8075
 1021MOL0     C34695   1.800   4.862   9.724 -0.0648 -0.1988  1.0334
 1021MOL0     C34696   1.870   4.968   9.673 -0.5023  0.4677 -0.4948
 1021MOL0     C34697   1.916   5.061   9.764  0.2933  0.5542 -0.4740
 1021MOL0     O34698   2.000   5.158   9.717 -0.9838 -0.2955  0.1862
 1021MOL0     C34699   2.014   5.288   9.781  1.1884  0.8614  0.0767
 1021MOL0     C34700   1.886   5.373   9.777  0.2214 -0.6650  0.4787
 1021MOL0     C34701   1.869   5.427   9.639  0.5705 -0.9719  0.1209
 1021MOL0     C34702   1.800   5.330   9.540  0.2749 -0.9866  0.0410
 1021MOL0     C34703   1.668   5.291   9.583 -0.0196  0.2038  0.0276
 1021MOL0     C34704   1.552   5.287   9.623  0.5027  0.6124 -0.1722
 1021MOL0     C34705   1.885   5.054   9.900 -0.0564  0.6633 -0.8395
 1021MOL0     C34706   1.798   4.954   9.941 -0.8417  0.0682 -0.4204
 1021MOL0     H34707   1.703   4.462   9.987 -2.5235 -3.0596 -0.2317
 1021MOL0     H34708   1.619   4.281  10.115  0.2488  0.6870  0.6970
 1021MOL0     H34709   1.486   4.121  10.210 -2.7072 -2.0537 -2.4961
 1021MOL0     H34710   1.344   4.217  10.174  0.3169  1.6739  0.8010
 1021MOL0     H34711   1.380   4.075  10.455 -0.8721 -1.8595  1.6934
 1021MOL0     H34712   1.319   3.997  10.325 -0.8843 -1.2870  1.0946
 1021MOL0     H34713   1.145   4.196  10.294  0.7869  0.0506 -0.4325
 1021MOL0     H34714   1.209   4.256  10.448 -1.1976 -0.5865  2.4339
 1021MOL0     H34715   1.095   3.974  10.430  0.5848  1.7446 -3.4590
 1021MOL0     H34716   1.111   4.063  10.582  2.3891 -1.0742 -0.7017
 1021MOL0     H34717   0.863   4.077  10.463  0.9790 -1.8685 -0.4235
 1021MOL0     H34718   0.949   4.197  10.358  3.3688  0.1786 -0.7107
 1021MOL0     H34719   1.000   4.321  10.561  2.1894 -2.6745  0.0894
 1021MOL0     H34720   0.926   4.196  10.668 -0.3565 -1.9016  0.0900
 1021MOL0     H34721   0.786   4.371  10.633  0.1523  0.1282  0.6232
 1021MOL0     H34722   0.803   4.367  10.454 -0.8196  0.2192  0.1385
 1021MOL0     H34723   0.667   4.134  10.595  1.8890 -1.6195 -0.4962
 1021MOL0     H34724   0.669   4.180  10.421 -3.5222  0.0492  0.4926
 1021MOL0     H34725   0.592   4.462  10.682  0.6875 -0.8075 -0.7870
 1021MOL0     H34726   0.376   4.599  10.760 -3.5577 -0.8195  2.9885
 1021MOL0     H34727   0.233   4.538  10.715 -1.3916  2.8283 -0.4411
 1021MOL0     H34728   0.401   4.702  10.500 -0.6101 -0.3031 -1.2072
 1021MOL0     H34729   0.345   4.787  10.636 -0.1012 -0.5320  1.1152
 1021MOL0     H34730   0.118   4.782  10.568  1.1893  1.3740 -1.5977
 1021MOL0     H34731   0.235   4.819  10.444  1.8931  1.2753  2.6433
 1021MOL0     H34732   0.120   4.528  10.498  0.9991 -0.6622  1.3505
 1021MOL0     H34733   0.204   4.564  10.364 -0.5402  2.3843 -3.1795
 1021MOL0     H34734  -0.117   4.794  10.507  0.0928  1.5618 -4.3425
 1021MOL0     H34735  -0.366   4.717  10.581 -1.4880 -0.4543 -1.3724
 1021MOL0     H34736  -0.635   4.164  10.387 -0.5126 -1.2415 -0.3277
 1021MOL0     H34737  -0.867   4.052  10.456 -0.5374  0.8218 -0.3451
 1021MOL0     H34738  -0.938   4.009  10.799  1.9081 -0.9179 -1.3061
 1021MOL0     H34739  -0.941   3.937  10.643  0.4840 -1.2983  0.5559
 1021MOL0     H34740  -1.178   4.002  10.831  2.3743 -0.9286  1.2202
 1021MOL0     H34741  -1.106   3.845  10.808  6.9493 -1.6722 -2.5951
 1021MOL0     H34742  -1.202   3.804  10.611 -2.3684 -0.5064  0.6964
 1021MOL0     H34743  -1.205   3.982  10.567 -0.1119  1.5077  1.4185
 1021MOL0     H34744  -1.396   3.819  10.736  2.0946 -0.2950  0.3895
 1021MOL0     H34745  -1.382   3.992  10.757  2.0930  0.1187  1.4128
 1021MOL0     H34746  -1.458   3.853  10.495  2.5127 -0.6282 -0.1747
 1021MOL0     H34747  -1.412   4.028  10.532 -0.0478  1.8876  2.0037
 1021MOL0     H34748  -1.605   4.030  10.699 -0.6766 -1.9042  2.1270
 1021MOL0     H34749  -1.636   3.865  10.669  1.4382 -0.7968 -0.3932
 1021MOL0     H34750  -1.651   4.091  10.458 -0.4772  0.3226 -0.1868
 1021MOL0     H34751  -1.685   3.917  10.431  5.1613 -0.7763  0.4357
 1021MOL0     H34752  -1.885   4.079  10.471 -0.5154 -3.0301 -1.4028
 1021MOL0     H34753  -1.850   4.093  10.641 -1.9168 -0.1972  0.2330
 1021MOL0     H34754  -0.930   4.355  10.741 -1.2713  2.8973 -2.2197
 1021MOL0     H34755  -0.725   4.462  10.687  1.0910 -0.9912  1.1836
 1021MOL0     H34756  -0.313   4.364  10.335 -1.2473  0.4793  1.9609
 1021MOL0     H34757  -0.080   4.426  10.284  0.7499  1.2436 -1.0992
 1021MOL0     H34758   1.393   4.535  10.352 -1.5248  1.3589 -1.4441
 1021MOL0     H34759   1.484   4.731  10.231  0.9590 -0.3073  1.5147
 1021MOL0     H34760   1.778   4.783   9.653  1.5370 -1.0736  1.4686
 1021MOL0     H34761   1.892   4.986   9.568  3.8275 -2.6562 -0.4177
 1021MOL0     H34762   2.107   5.321   9.734  1.4128 -4.3865 -4.1099
 1021MOL0     H34763   2.043   5.281   9.886  0.6992 -1.7316  0.0938
 1021MOL0     H34764   1.804   5.309   9.810 -1.2216  1.5978  1.5597
 1021MOL0     H34765   1.898   5.456   9.847  1.0716  1.1578 -1.7047
 1021MOL0     H34766   1.957   5.470   9.590  0.4810 -0.8681  0.0517
 1021MOL0     H34767   1.794   5.505   9.644 -0.9971 -2.3716 -0.6401
 1021MOL0     H34768   1.792   5.384   9.445 -2.5958 -0.2766  0.5915
 1021MOL0     H34769   1.867   5.244   9.527 -0.0506 -1.2717  0.2344
 1021MOL0     H34770   1.456   5.271   9.666  1.2853 -0.8751  1.1286
 1021MOL0     H34771   1.921   5.121   9.977  3.1396 -3.7861  2.0077
 1021MOL0     H34772   1.767   4.966  10.044  3.0446  0.7777  0.8090
 1022MOL0     O34773  10.915   3.279   0.190 -0.2411  0.3835 -0.1675
 1022MOL0     C34774  10.813   3.340   0.183  0.4035 -0.4794  0.7340
 1022MOL0     O34775  10.774   3.442   0.271 -0.0347 -0.4932 -0.2259
 1022MOL0     C34776  10.857   3.482   0.369  1.0316  1.7805 -0.0287
 1022MOL0     C34777  10.917   3.604   0.357 -0.1439  0.5063  0.3440
 1022MOL0     C34778  11.002   3.641   0.458  0.1394 -0.3389  0.7312
 1022MOL0     C34779  11.031   3.564   0.573 -1.2896 -0.4858  0.3969
 1022MOL0     O34780  11.123   3.611   0.672  0.0996 -0.1662  0.1620
 1022MOL0     C34781  11.158   3.527   0.777 -0.3660  0.0629 -0.7122
 1022MOL0     C34782  11.277   3.597   0.845 -0.0084  0.5533 -0.7700
 1022MOL0     C34783  11.235   3.737   0.891 -0.8279 -0.1054 -0.2111
 1022MOL0     C34784  11.361   3.809   0.935 -0.2564 -0.8132 -0.2042
 1022MOL0     C34785  11.349   3.954   0.970  0.3391  0.4435 -0.2952
 1022MOL0     C34786  11.326   4.050   0.858 -0.4381  0.8825 -0.3960
 1022MOL0     C34787  11.405   4.033   0.725 -0.4823  0.3777  0.7029
 1022MOL0     C34788  11.563   4.066   0.733  0.0884  0.7532  0.3674
 1022MOL0     N34789  11.579   4.210   0.764  0.4471  0.9602 -0.5929
 1022MOL0     C34790  11.553   4.322   0.683  0.9603 -0.2600 -0.5722
 1022MOL0     C34791  11.567   4.432   0.765 -0.4181 -0.0636 -0.6917
 1022MOL0     C34792  11.509   4.567   0.726 -0.3690  0.7108 -0.4553
 1022MOL0     C34793  11.562   4.678   0.827 -0.5948 -0.2597  0.9810
 1022MOL0     C34794  11.584   4.814   0.766 -1.0205 -0.2773  0.3053
 1022MOL0     C34795  11.619   4.917   0.877 -0.1178 -0.3601  0.1282
 1022MOL0     O34796  11.759   4.921   0.907 -0.4002  0.7207  0.7000
 1022MOL0     C34797  11.803   5.003   1.008  1.3794  0.8992  0.2563
 1022MOL0     C34798  11.923   4.977   1.068 -0.3145  0.0904  0.5074
 1022MOL0     C34799  11.981   5.057   1.164 -1.4316  0.1575 -0.0420
 1022MOL0     C34800  11.914   5.170   1.212 -0.4126  0.8098 -0.1711
 1022MOL0     C34801  11.960   5.250   1.332 -0.7680 -0.3622  0.6333
 1022MOL0     O34802  11.865   5.341   1.390 -0.4582  0.1095 -1.0671
 1022MOL0     C34803  11.899   5.406   1.511 -1.0406  0.0110 -0.1866
 1022MOL0     C34804  11.937   5.324   1.621  0.3594 -0.3065 -0.5116
 1022MOL0     C34805  11.957   5.379   1.751 -0.1919 -0.8566  0.1027
 1022MOL0     C34806  11.939   5.524   1.772 -0.3785  0.4620  0.0946
 1022MOL0     O34807  11.947   5.569   1.900  0.4939 -0.4970  0.5588
 1022MOL0     C34808  11.924   5.715   1.918  0.2508 -0.3249 -0.1829
 1022MOL0     C34809  11.916   5.726   2.069 -0.7802 -0.2423  0.5954
 1022MOL0     C34810  11.859   5.857   2.125 -0.1210  0.7962 -0.1410
 1022MOL0     C34811  11.835   5.825   2.272  0.4897 -1.0355 -0.1291
 1022MOL0     C34812  11.833   5.955   2.356  0.9620  0.7582  1.0875
 1022MOL0     C34813  11.844   5.911   2.501  0.6189 -0.4250 -0.0894
 1022MOL0     C34814  11.804   6.028   2.607  0.3604 -0.1679  1.2547
 1022MOL0     C34815  11.769   5.967   2.733  0.4335  0.7269  0.4491
 1022MOL0    Cl34816  11.666   6.071   2.853  0.0699 -0.1877  0.5025
 1022MOL0     C34817  11.920   5.598   1.655  0.0225 -0.2604 -0.1197
 1022MOL0     C34818  11.889   5.546   1.534 -0.6099 -0.1199  0.0032
 1022MOL0     O34819  12.076   5.239   1.372 -0.1592 -0.4070  0.0157
 1022MOL0     C34820  11.795   5.206   1.147  0.4631 -0.2047 -0.6350
 1022MOL0     C34821  11.740   5.124   1.048  0.4274  0.3709 -0.2301
 1022MOL0     N34822  11.604   4.383   0.889 -1.1406  0.4116 -0.5902
 1022MOL0     N34823  11.608   4.253   0.890 -0.0426  1.0084 -0.6024
 1022MOL0     C34824  10.967   3.434   0.588  1.1240  0.0365 -0.2060
 1022MOL0     C34825  10.888   3.393   0.481  0.9191  0.1596 -0.2209
 1022MOL0     C34826  10.736   3.327   0.051  0.1244 -0.2773 -1.0080
 1022MOL0     C34827  10.776   3.251  -0.061 -0.9635 -0.2930  0.1952
 1022MOL0     C34828  10.683   3.224  -0.160 -0.0089  0.5969 -0.5138
 1022MOL0     C34829  10.561   3.296  -0.171 -0.0586  0.1748  0.1148
 1022MOL0     O34830  10.475   3.265  -0.276 -0.1062 -0.1927  0.0172
 1022MOL0     C34831  10.435   3.365  -0.367  0.0619 -0.0676  0.1276
 1022MOL0     C34832  10.542   3.417  -0.462  0.1627  0.1574  0.5492
 1022MOL0     C34833  10.667   3.474  -0.400 -0.6983 -0.8846 -0.0606
 1022MOL0     C34834  10.725   3.585  -0.486  0.0986 -0.7505  1.0998
 1022MOL0     C34835  10.661   3.719  -0.470 -0.0225 -0.2347  0.0979
 1022MOL0     C34836  10.597   3.818  -0.436  0.5207  0.4394 -0.1029
 1022MOL0     C34837  10.536   3.391  -0.071  0.3457  0.4241 -0.1185
 1022MOL0     C34838  10.617   3.397   0.044  0.4977  0.6303  0.8216
 1022MOL0     H34839  10.901   3.682   0.284  3.3706  4.5286  3.3791
 1022MOL0     H34840  11.047   3.739   0.450 -1.5044  0.4989  1.2581
 1022MOL0     H34841  11.192   3.426   0.755  1.1724  0.1842  0.8962
 1022MOL0     H34842  11.074   3.521   0.847  2.8009  2.3853  3.8836
 1022MOL0     H34843  11.364   3.603   0.779  1.9493 -2.4881  1.2953
 1022MOL0     H34844  11.301   3.535   0.932 -3.3110  1.2796  0.8535
 1022MOL0     H34845  11.152   3.739   0.962  0.4742  0.2863  1.3572
 1022MOL0     H34846  11.180   3.782   0.808 -2.5343 -0.7379  0.5402
 1022MOL0     H34847  11.402   3.767   1.027  1.0807  0.3242 -0.2478
 1022MOL0     H34848  11.441   3.786   0.865  0.2643 -2.0113  0.7478
 1022MOL0     H34849  11.436   3.980   1.032  0.0523  0.5663  0.0589
 1022MOL0     H34850  11.261   3.963   1.033  0.7111 -0.8755  0.4620
 1022MOL0     H34851  11.344   4.153   0.888 -0.5698  0.7311  0.2108
 1022MOL0     H34852  11.221   4.036   0.828 -0.5344 -0.1697  0.3888
 1022MOL0     H34853  11.400   3.935   0.677  2.8485  0.9856 -1.1765
 1022MOL0     H34854  11.365   4.108   0.656  1.8832 -0.1789 -1.3929
 1022MOL0     H34855  11.617   4.051   0.639 -0.4117  0.9342  0.0449
 1022MOL0     H34856  11.618   4.011   0.809 -2.2400 -1.2356  0.7495
 1022MOL0     H34857  11.512   4.333   0.584  2.4214  1.3669 -1.0639
 1022MOL0     H34858  11.401   4.555   0.739 -0.0220 -0.3515  2.0189
 1022MOL0     H34859  11.544   4.583   0.623  0.4220 -1.1643 -0.5084
 1022MOL0     H34860  11.654   4.642   0.874 -0.3392  0.2130  0.8519
 1022MOL0     H34861  11.489   4.694   0.907 -0.4287 -1.1425  1.3253
 1022MOL0     H34862  11.663   4.812   0.690  1.8587 -1.0590  3.0940
 1022MOL0     H34863  11.499   4.852   0.708 -1.5859  1.2924  2.0827
 1022MOL0     H34864  11.564   4.913   0.971  0.1972 -1.3727  0.2765
 1022MOL0     H34865  11.587   5.009   0.828 -0.0406  0.5859  1.7848
 1022MOL0     H34866  11.987   4.906   1.016 -2.0331 -1.1028 -0.0723
 1022MOL0     H34867  12.083   5.029   1.188 -1.2306  0.9780  0.0620
 1022MOL0     H34868  11.950   5.216   1.621  4.4968  0.0089  1.3719
 1022MOL0     H34869  11.974   5.320   1.840 -1.2297 -0.4105  0.6149
 1022MOL0     H34870  11.828   5.745   1.875 -0.1958 -1.1402  0.2066
 1022MOL0     H34871  12.001   5.778   1.874  0.4052 -1.4726 -1.6534
 1022MOL0     H34872  12.020   5.703   2.094 -0.2254  0.2155 -1.1684
 1022MOL0     H34873  11.852   5.643   2.102 -2.4152  0.6451 -0.2540
 1022MOL0     H34874  11.762   5.869   2.076  0.9231  0.4150 -2.4371
 1022MOL0     H34875  11.930   5.940   2.117 -1.4405  1.8721 -1.1003
 1022MOL0     H34876  11.737   5.775   2.280  0.8775 -1.6333  0.9777
 1022MOL0     H34877  11.913   5.759   2.310  0.2407 -0.5241  1.3320
 1022MOL0     H34878  11.733   5.996   2.339 -0.4377 -2.5766  0.5446
 1022MOL0     H34879  11.912   6.026   2.332 -1.0007  1.5775 -4.5060
 1022MOL0     H34880  11.948   5.881   2.512  1.1651  1.6997  1.2269
 1022MOL0     H34881  11.775   5.828   2.519 -1.1118  1.4162  2.7493
 1022MOL0     H34882  11.883   6.101   2.627  1.2158 -1.1248  1.4553
 1022MOL0     H34883  11.716   6.083   2.573 -0.2061 -2.8473 -2.1886
 1022MOL0     H34884  11.861   5.934   2.782 -0.4584 -1.8389  0.5480
 1022MOL0     H34885  11.716   5.877   2.700  2.1916 -0.3548  0.4739
 1022MOL0     H34886  11.924   5.706   1.658  0.8396 -0.2784  2.5385
 1022MOL0     H34887  11.866   5.613   1.451  1.8886  0.8753  0.0287
 1022MOL0     H34888  11.739   5.292   1.183  1.6342 -0.2829  1.5883
 1022MOL0     H34889  11.642   5.141   1.003 -0.4788 -1.5131  0.8934
 1022MOL0     H34890  10.974   3.376   0.680 -1.4389  1.0051  0.6699
 1022MOL0     H34891  10.835   3.299   0.492 -2.5881  2.1693  1.6947
 1022MOL0     H34892  10.872   3.201  -0.065 -0.7006  0.1336  1.0142
 1022MOL0     H34893  10.692   3.146  -0.235  1.8966  1.1094 -0.8733
 1022MOL0     H34894  10.401   3.455  -0.314  0.6973  1.2989 -1.6803
 1022MOL0     H34895  10.338   3.344  -0.414 -0.8473  0.8274  1.5178
 1022MOL0     H34896  10.573   3.334  -0.527  0.8680 -0.1616  1.2827
 1022MOL0     H34897  10.492   3.493  -0.523 -1.3812  0.4411  2.0822
 1022MOL0     H34898  10.744   3.400  -0.375 -0.8608 -0.3377  2.3798
 1022MOL0     H34899  10.650   3.530  -0.308 -1.2026  0.2652 -0.8366
 1022MOL0     H34900  10.830   3.589  -0.457 -0.4051 -1.4301  3.2641
 1022MOL0     H34901  10.724   3.550  -0.590 -2.0038 -0.8672  1.1068
 1022MOL0     H34902  10.544   3.907  -0.407 -0.1388 -0.6327  2.2227
 1022MOL0     H34903  10.437   3.434  -0.085 -0.0251 -0.7572 -1.3234
 1022MOL0     H34904  10.580   3.449   0.133 -1.7363 -2.8843  2.1483
 1023MOL0     O34905   2.069   6.618   1.874  0.6080 -0.5055  0.1526
 1023MOL0     C34906   2.043   6.611   1.758  0.1597 -0.0762 -0.2284
 1023MOL0     O34907   2.113   6.547   1.662  1.2514 -0.4305 -0.3045
 1023MOL0     C34908   2.202   6.438   1.683  0.3333  0.1992  0.2677
 1023MOL0     C34909   2.210   6.361   1.790 -0.3147 -1.0112  0.2189
 1023MOL0     C34910   2.290   6.247   1.790 -0.3305 -0.5090  0.5157
 1023MOL0     C34911   2.369   6.210   1.683 -0.3687 -0.0671  1.0516
 1023MOL0     O34912   2.448   6.098   1.695 -0.2858  0.4573  0.1593
 1023MOL0     C34913   2.515   6.039   1.585 -0.1881 -0.3603 -0.4652
 1023MOL0     C34914   2.522   5.888   1.599 -0.0076  0.8523  0.9238
 1023MOL0     C34915   2.631   5.856   1.699  0.8091  1.0790  0.6676
 1023MOL0     C34916   2.658   5.704   1.698  0.1221  0.1911  0.2695
 1023MOL0     C34917   2.743   5.648   1.812 -1.2513  0.4381 -0.9281
 1023MOL0     C34918   2.720   5.500   1.831  0.5362  1.5629  0.7354
 1023MOL0     C34919   2.824   5.415   1.907 -0.8788  0.1638 -0.8154
 1023MOL0     C34920   2.866   5.480   2.046 -0.1547 -0.7312 -1.6785
 1023MOL0     N34921   2.970   5.407   2.114  0.1603  0.0290 -0.8181
 1023MOL0     C34922   3.054   5.307   2.067  0.1321  0.3562  0.5154
 1023MOL0     C34923   3.143   5.274   2.167  1.3308  1.1691 -0.3152
 1023MOL0     C34924   3.262   5.176   2.168 -1.6856  0.1742  0.0448
 1023MOL0     C34925   3.308   5.142   2.026 -0.5997  0.3614 -0.2416
 1023MOL0     C34926   3.287   5.004   1.967  1.1561 -0.6378 -0.1630
 1023MOL0     C34927   3.137   4.994   1.922 -0.2334  0.1348 -0.7961
 1023MOL0     O34928   3.109   5.077   1.811 -0.3355 -0.0104 -0.2282
 1023MOL0     C34929   2.973   5.072   1.775  0.3191 -0.5957  0.1738
 1023MOL0     C34930   2.856   5.017   1.845 -1.0106  0.8467  0.4693
 1023MOL0     C34931   2.731   5.044   1.795  0.6054 -0.1635 -0.3983
 1023MOL0     C34932   2.711   5.112   1.674 -0.3754 -0.1000  0.3446
 1023MOL0     C34933   2.581   5.140   1.630 -0.4302 -0.2100  0.6020
 1023MOL0     O34934   2.579   5.210   1.515 -0.0512 -0.2355 -0.6577
 1023MOL0     C34935   2.505   5.326   1.503  0.3516 -0.1798  0.6310
 1023MOL0     C34936   2.508   5.388   1.379  0.0716  0.5243 -0.4287
 1023MOL0     C34937   2.437   5.510   1.349  0.4758 -0.3400 -0.6015
 1023MOL0     C34938   2.364   5.570   1.450  0.0739  0.4192  1.4529
 1023MOL0     O34939   2.287   5.690   1.427 -0.0558  0.2191 -0.0936
 1023MOL0     C34940   2.335   5.775   1.323  0.3090 -0.3743 -0.1304
 1023MOL0     C34941   2.256   5.906   1.337  0.7755  0.0792  0.5038
 1023MOL0     C34942   2.276   6.007   1.220  0.3299 -0.4185  0.2322
 1023MOL0     C34943   2.195   5.956   1.097  0.3760  0.3014 -0.5557
 1023MOL0     C34944   2.175   6.060   0.991  0.2168 -0.5195 -0.2046
 1023MOL0     C34945   2.060   6.145   1.003 -0.5910 -0.0431  0.2341
 1023MOL0     C34946   2.064   6.228   1.133  0.7793 -0.7975  0.9329
 1023MOL0     C34947   1.950   6.326   1.120  0.4296  0.5693  0.0854
 1023MOL0    Cl34948   1.968   6.422   1.265  0.2642  0.2267 -0.1953
 1023MOL0     C34949   2.365   5.511   1.574  0.9104  0.8836 -1.2046
 1023MOL0     C34950   2.437   5.394   1.604  0.1707 -0.5083 -0.0676
 1023MOL0     O34951   2.480   5.090   1.686 -0.2474  0.8217 -0.0695
 1023MOL0     C34952   2.825   5.162   1.609 -0.5078  0.1071  1.0114
 1023MOL0     C34953   2.951   5.142   1.660  0.2280  0.1762  0.3286
 1023MOL0     N34954   3.109   5.354   2.276  0.2118  0.8006  0.2537
 1023MOL0     N34955   3.010   5.429   2.246  0.5262  0.0796 -0.2235
 1023MOL0     C34956   2.370   6.291   1.567  0.0121  0.9328 -0.1638
 1023MOL0     C34957   2.277   6.405   1.569 -0.1959 -0.1880 -0.0653
 1023MOL0     C34958   1.916   6.680   1.709 -0.2364 -0.7190 -0.0236
 1023MOL0     C34959   1.855   6.645   1.588 -0.0997 -0.1016 -0.2152
 1023MOL0     C34960   1.740   6.707   1.543  0.1934 -0.2743  0.0862
 1023MOL0     C34961   1.681   6.813   1.615 -0.0100  0.3214 -0.9744
 1023MOL0     O34962   1.588   6.890   1.552 -0.7151 -0.3744 -0.6847
 1023MOL0     C34963   1.496   6.963   1.630 -0.7315  0.9640 -0.0755
 1023MOL0     C34964   1.388   7.022   1.548  0.5136  0.2745  0.3853
 1023MOL0     C34965   1.284   6.920   1.502  0.9461  1.3490 -0.8901
 1023MOL0     C34966   1.180   6.993   1.426  0.1611  0.4667  0.1233
 1023MOL0     C34967   1.071   6.907   1.374 -0.8628 -0.5502 -0.1382
 1023MOL0     C34968   0.972   6.862   1.333  0.4636 -0.4817  0.2258
 1023MOL0     C34969   1.739   6.851   1.734  0.0630  0.3867  0.2159
 1023MOL0     C34970   1.868   6.790   1.781  0.5253 -0.3070  0.9949
 1023MOL0     H34971   2.147   6.383   1.875  0.3374  0.9547  0.2365
 1023MOL0     H34972   2.298   6.184   1.878  1.3087 -1.7813 -0.4996
 1023MOL0     H34973   2.611   6.091   1.575  0.5501 -1.2114  1.6030
 1023MOL0     H34974   2.448   6.042   1.498  2.2823 -2.4790 -2.5939
 1023MOL0     H34975   2.540   5.840   1.502 -1.2320  1.6210  0.2936
 1023MOL0     H34976   2.421   5.863   1.635 -1.9062  3.5228 -2.0008
 1023MOL0     H34977   2.612   5.897   1.799  0.1709  0.0083  1.0079
 1023MOL0     H34978   2.725   5.907   1.674 -0.2128  2.6131 -0.2174
 1023MOL0     H34979   2.563   5.650   1.702  0.1487 -0.3520 -3.3278
 1023MOL0     H34980   2.712   5.689   1.604  0.3958  0.8497  0.3185
 1023MOL0     H34981   2.714   5.692   1.907  2.5093  1.5891 -0.1420
 1023MOL0     H34982   2.848   5.678   1.808  0.4900 -4.6719 -1.1940
 1023MOL0     H34983   2.704   5.454   1.732 -1.2417  0.8881  1.3042
 1023MOL0     H34984   2.625   5.478   1.881  1.6141  1.3602  2.7952
 1023MOL0     H34985   2.798   5.311   1.925 -0.6522  0.3546  0.8110
 1023MOL0     H34986   2.913   5.415   1.843 -0.4257 -0.5777 -0.2015
 1023MOL0     H34987   2.780   5.495   2.112  0.2536  1.0328 -1.4935
 1023MOL0     H34988   2.907   5.579   2.022  1.9831 -1.4976 -1.4070
 1023MOL0     H34989   3.058   5.269   1.966  0.1694 -0.5355  0.8469
 1023MOL0     H34990   3.231   5.092   2.231  1.5234 -0.6743  0.6411
 1023MOL0     H34991   3.332   5.235   2.227 -1.7513  2.3869 -1.9507
 1023MOL0     H34992   3.417   5.140   2.038 -0.7363  0.7513  1.3357
 1023MOL0     H34993   3.285   5.215   1.948  0.1566 -1.2146 -2.0173
 1023MOL0     H34994   3.351   5.000   1.879  1.9207 -1.8437  0.4100
 1023MOL0     H34995   3.307   4.922   2.037  0.4575  0.3868  1.2960
 1023MOL0     H34996   3.086   5.025   2.013  1.6361  0.1756  0.2819
 1023MOL0     H34997   3.116   4.889   1.900 -2.5323  0.4000 -0.1149
 1023MOL0     H34998   2.861   4.957   1.935 -1.7158 -0.1703 -0.1540
 1023MOL0     H34999   2.644   5.016   1.854  1.9316 -2.4392  0.6095
 1023MOL0     H35000   2.574   5.339   1.309 -0.1351 -0.1847 -0.1407
 1023MOL0     H35001   2.444   5.559   1.253  3.0873  0.2677 -0.1698
 1023MOL0     H35002   2.320   5.729   1.225 -1.1009 -1.8326  0.7293
 1023MOL0     H35003   2.436   5.814   1.335 -0.6130  2.0221  0.6247
 1023MOL0     H35004   2.283   5.948   1.434 -2.0832  2.9563  0.2003
 1023MOL0     H35005   2.148   5.889   1.337  0.3061  2.5058 -1.2031
 1023MOL0     H35006   2.375   6.020   1.176 -0.2631  1.4216 -0.7030
 1023MOL0     H35007   2.251   6.105   1.264  2.1579 -0.1777  0.8078
 1023MOL0     H35008   2.236   5.861   1.063  0.5331 -1.6765  4.3271
 1023MOL0     H35009   2.095   5.931   1.133  2.7086 -3.4918  4.4724
 1023MOL0     H35010   2.153   6.008   0.897  0.3470 -3.0616  1.0842
 1023MOL0     H35011   2.262   6.126   0.984  0.7708 -1.0981  0.9769
 1023MOL0     H35012   1.969   6.085   1.000 -0.5040 -0.1440 -0.6542
 1023MOL0     H35013   2.062   6.205   0.911  1.0748 -1.7046 -0.8688
 1023MOL0     H35014   2.050   6.171   1.225  0.9317 -0.3015  1.2755
 1023MOL0     H35015   2.160   6.279   1.151  0.1284  0.0658  2.0885
 1023MOL0     H35016   1.852   6.278   1.122  0.8956 -0.4695 -0.6029
 1023MOL0     H35017   1.954   6.391   1.032 -2.1981 -0.4949 -0.9165
 1023MOL0     H35018   2.311   5.556   1.657 -0.6080 -0.5046 -1.3782
 1023MOL0     H35019   2.436   5.361   1.708 -1.4586  1.0502  0.4816
 1023MOL0     H35020   2.825   5.207   1.511 -2.3406 -1.5233  0.1978
 1023MOL0     H35021   3.035   5.172   1.598 -0.6926  0.0030 -1.0471
 1023MOL0     H35022   2.419   6.264   1.474  0.6001  1.8138 -0.1222
 1023MOL0     H35023   2.263   6.460   1.476  1.0920 -0.4476 -0.4382
 1023MOL0     H35024   1.899   6.564   1.530 -0.2486 -0.8004  0.6122
 1023MOL0     H35025   1.708   6.665   1.448 -0.9524 -0.0759  0.3685
 1023MOL0     H35026   1.549   7.040   1.687  0.6790  0.5816 -0.8134
 1023MOL0     H35027   1.453   6.897   1.706  1.7614  0.1677  0.7589
 1023MOL0     H35028   1.346   7.101   1.610  0.6090 -1.2139  2.4444
 1023MOL0     H35029   1.423   7.078   1.461 -0.3114  0.5213  0.2107
 1023MOL0     H35030   1.238   6.873   1.590  2.0845 -3.3379 -2.4910
 1023MOL0     H35031   1.321   6.839   1.438  1.1525 -1.1573  2.1733
 1023MOL0     H35032   1.148   7.079   1.485  1.4642  1.3750 -0.4560
 1023MOL0     H35033   1.214   7.054   1.342  0.4522  2.4242  1.6120
 1023MOL0     H35034   0.884   6.805   1.307  0.7346 -0.2511 -1.2905
 1023MOL0     H35035   1.689   6.921   1.800  2.5262 -0.2722  2.9976
 1023MOL0     H35036   1.909   6.830   1.873  0.8414 -2.7013  1.9885
 1024MOL0     O35037   5.414  10.064  10.962 -1.0879  0.2758 -0.8754
 1024MOL0     C35038   5.499  10.072  11.051  0.1890  1.0578 -1.2146
 1024MOL0     O35039   5.572   9.968  11.106  0.4946  0.0637  0.3415
 1024MOL0     C35040   5.559   9.852  11.032 -0.2129 -0.3175 -0.3825
 1024MOL0     C35041   5.546   9.734  11.105 -1.1084 -0.2356 -0.1029
 1024MOL0     C35042   5.560   9.603  11.047 -0.0467  0.0201 -0.2307
 1024MOL0     C35043   5.583   9.595  10.913  0.0354 -0.3594  0.3791
 1024MOL0     O35044   5.582   9.475  10.851 -0.2676  0.6838 -0.0616
 1024MOL0     C35045   5.708   9.413  10.801 -0.2443 -0.7707  0.9043
 1024MOL0     C35046   5.683   9.300  10.702  0.7188  0.4779  1.3652
 1024MOL0     C35047   5.808   9.248  10.633 -0.2943 -0.3289  0.6663
 1024MOL0     C35048   5.786   9.111  10.561 -0.4353 -0.1367  1.2151
 1024MOL0     C35049   5.701   9.126  10.424  0.5314 -1.2194  0.3439
 1024MOL0     C35050   5.682   8.988  10.366  0.5950 -0.9419  0.4648
 1024MOL0     C35051   5.613   8.998  10.221  0.6696  0.4752 -0.6447
 1024MOL0     C35052   5.560   8.859  10.180  0.6539 -0.0230 -0.7543
 1024MOL0     N35053   5.459   8.805  10.274 -0.0291 -0.8460 -1.0484
 1024MOL0     C35054   5.326   8.840  10.291 -0.7828 -0.3498 -0.1782
 1024MOL0     C35055   5.272   8.780  10.395 -0.2908 -0.6037 -0.1497
 1024MOL0     C35056   5.122   8.786  10.432 -0.3182 -0.7853  0.0500
 1024MOL0     C35057   5.031   8.722  10.322 -0.1546  0.9243  0.1026
 1024MOL0     C35058   4.914   8.803  10.280 -0.0189  0.3344 -0.4900
 1024MOL0     C35059   4.831   8.717  10.177 -0.4786 -0.7990 -0.0261
 1024MOL0     O35060   4.716   8.797  10.149  0.6585  0.2967  0.0702
 1024MOL0     C35061   4.729   8.909  10.075  1.1694 -0.4660  0.2835
 1024MOL0     C35062   4.804   8.918   9.955  0.1527 -0.1098  0.5581
 1024MOL0     C35063   4.806   9.034   9.886 -0.6452  0.5196  0.5039
 1024MOL0     C35064   4.732   9.142   9.912 -0.3687  1.0800 -0.0679
 1024MOL0     C35065   4.730   9.263   9.827  0.2397  0.6736  0.1996
 1024MOL0     O35066   4.622   9.340   9.846 -0.0127 -0.5334 -0.2769
 1024MOL0     C35067   4.592   9.456   9.766 -0.0526  0.4235  0.4883
 1024MOL0     C35068   4.622   9.463   9.631  0.3925  0.0705  0.4551
 1024MOL0     C35069   4.582   9.573   9.551  0.6963 -0.8582 -0.7539
 1024MOL0     C35070   4.523   9.685   9.625  0.1857 -0.0838 -0.5096
 1024MOL0     O35071   4.482   9.795   9.546  0.3017  1.1292  0.0505
 1024MOL0     C35072   4.358   9.763   9.474 -0.5501  0.4305 -0.5510
 1024MOL0     C35073   4.313   9.894   9.414 -1.0543 -0.2067 -0.3229
 1024MOL0     C35074   4.312  10.018   9.498 -0.8942  0.3393  0.0259
 1024MOL0     C35075   4.234   9.996   9.629  0.8287 -0.7574 -0.4920
 1024MOL0     C35076   4.197  10.124   9.708 -0.2979 -0.5463  0.2045
 1024MOL0     C35077   4.303  10.231   9.706  0.1668  1.5671  0.1871
 1024MOL0     C35078   4.262  10.358   9.782  1.5209  0.0324 -0.1651
 1024MOL0     C35079   4.382  10.457   9.800 -0.6054 -0.1268 -1.0392
 1024MOL0    Cl35080   4.546  10.385   9.820 -0.2300 -0.5403 -0.4406
 1024MOL0     C35081   4.498   9.676   9.767 -0.8579  0.0172 -0.3798
 1024MOL0     C35082   4.529   9.555   9.835 -0.0591  0.1578  0.6321
 1024MOL0     O35083   4.811   9.278   9.743 -1.1758 -0.2625  0.5513
 1024MOL0     C35084   4.650   9.128  10.023 -0.5321  0.0227  0.6744
 1024MOL0     C35085   4.645   9.015  10.111 -0.5722  0.0418  0.3201
 1024MOL0     N35086   5.367   8.701  10.451 -0.9422  0.1613  0.4878
 1024MOL0     N35087   5.481   8.726  10.379  0.3066  0.1065 -0.0418
 1024MOL0     C35088   5.581   9.716  10.843  0.2398 -0.3372 -0.3050
 1024MOL0     C35089   5.575   9.844  10.893 -0.4814 -0.3572 -0.0559
 1024MOL0     C35090   5.514  10.215  11.088 -0.1646 -0.0231 -0.5661
 1024MOL0     C35091   5.596  10.251  11.201 -0.5259  0.0757 -0.2272
 1024MOL0     C35092   5.606  10.385  11.242 -0.3773 -0.2042 -0.4407
 1024MOL0     C35093   5.556  10.495  11.164 -0.9440 -0.1674 -0.2046
 1024MOL0     O35094   5.566  10.632  11.186  0.3563 -0.3435  0.1422
 1024MOL0     C35095   5.646  10.672  11.300 -0.9005  0.4029 -0.7542
 1024MOL0     C35096   5.648  10.828  11.308 -0.5102 -1.3173 -0.7447
 1024MOL0     C35097   5.702  10.871  11.444  0.5536 -0.2448 -0.2355
 1024MOL0     C35098   5.846  10.811  11.492 -1.0741  0.1101  0.3345
 1024MOL0     C35099   5.955  10.873  11.416 -1.5302 -0.8107  0.6771
 1024MOL0     C35100   6.044  10.911  11.341  0.3414  0.4189 -0.7853
 1024MOL0     C35101   5.476  10.459  11.053 -0.0518 -0.2689 -0.6641
 1024MOL0     C35102   5.459  10.329  11.022  0.3231  0.0657 -0.7879
 1024MOL0     H35103   5.538   9.728  11.214  0.4031 -1.2596 -0.0173
 1024MOL0     H35104   5.544   9.509  11.098 -0.2490  1.0837  1.7838
 1024MOL0     H35105   5.755   9.373  10.891 -0.6925 -1.7759  0.6987
 1024MOL0     H35106   5.771   9.490  10.754 -0.3304  0.8835  3.3069
 1024MOL0     H35107   5.622   9.317  10.612  4.2179 -1.0113 -1.5468
 1024MOL0     H35108   5.649   9.212  10.758 -0.5581  0.8056  1.1519
 1024MOL0     H35109   5.872   9.228  10.720  0.5194  2.9486  0.9475
 1024MOL0     H35110   5.852   9.315  10.558 -1.4548 -0.5751 -0.2597
 1024MOL0     H35111   5.886   9.076  10.533 -0.4940  0.4968  0.2059
 1024MOL0     H35112   5.719   9.047  10.620  1.2700 -0.9913  2.3254
 1024MOL0     H35113   5.747   9.189  10.348  0.3869 -1.4320  0.0800
 1024MOL0     H35114   5.604   9.173  10.443  1.1532  0.1766  0.1860
 1024MOL0     H35115   5.619   8.941  10.442 -1.7392  0.8591 -0.2399
 1024MOL0     H35116   5.770   8.925  10.351  1.4302  0.5926 -1.6823
 1024MOL0     H35117   5.521   9.058  10.227 -0.1303 -0.6477 -1.4257
 1024MOL0     H35118   5.668   9.037  10.135 -0.6463 -1.9702 -2.7337
 1024MOL0     H35119   5.641   8.785  10.177  0.2607 -0.4416 -1.3740
 1024MOL0     H35120   5.509   8.887  10.087  1.4145 -1.8709 -1.7998
 1024MOL0     H35121   5.262   8.912  10.240  0.5519  2.4941  1.9454
 1024MOL0     H35122   5.091   8.889  10.452  0.3307 -0.6961  0.6410
 1024MOL0     H35123   5.110   8.735  10.527  0.2832 -0.0672  0.5246
 1024MOL0     H35124   4.999   8.626  10.365  0.7124  0.7371  0.3474
 1024MOL0     H35125   5.091   8.704  10.233 -2.9206  2.0554 -2.1644
 1024MOL0     H35126   4.848   8.826  10.364 -0.7667  2.0908 -1.4928
 1024MOL0     H35127   4.955   8.891  10.229  4.5510 -1.3921 -0.2258
 1024MOL0     H35128   4.811   8.622  10.226 -4.3639 -0.6529 -0.9450
 1024MOL0     H35129   4.890   8.686  10.090  1.8987 -2.5834  2.1074
 1024MOL0     H35130   4.860   8.831   9.921  0.3974  0.9211 -1.9014
 1024MOL0     H35131   4.872   9.044   9.801  0.5427  3.4172  1.6246
 1024MOL0     H35132   4.665   9.377   9.581 -0.6036 -0.6049  0.7225
 1024MOL0     H35133   4.607   9.569   9.446  0.9664 -0.5915 -0.7026
 1024MOL0     H35134   4.284   9.736   9.549  1.4179 -0.0548  1.3432
 1024MOL0     H35135   4.379   9.681   9.405 -3.0019 -1.4148  0.7434
 1024MOL0     H35136   4.211   9.884   9.377 -2.0541  4.7334  0.3669
 1024MOL0     H35137   4.372   9.918   9.324 -2.6236  0.3896 -1.2315
 1024MOL0     H35138   4.272  10.101   9.440  2.1016  1.9457  0.0283
 1024MOL0     H35139   4.413  10.049   9.527 -0.7882 -0.3918  0.4821
 1024MOL0     H35140   4.140   9.943   9.609 -0.6480  1.3603  0.4335
 1024MOL0     H35141   4.300   9.935   9.690  1.4284 -2.6025 -2.8277
 1024MOL0     H35142   4.173  10.084   9.807  2.4739 -0.0365  1.1722
 1024MOL0     H35143   4.105  10.172   9.672 -0.0406 -0.5012 -0.3975
 1024MOL0     H35144   4.324  10.259   9.603 -0.2592 -0.9114 -0.6265
 1024MOL0     H35145   4.392  10.192   9.755  2.1356  0.8451 -3.6422
 1024MOL0     H35146   4.185  10.422   9.738  0.5393  0.3099  1.8435
 1024MOL0     H35147   4.226  10.328   9.881 -0.8022  0.0194 -0.9533
 1024MOL0     H35148   4.356  10.525   9.882 -2.5723 -0.6102 -1.2142
 1024MOL0     H35149   4.392  10.516   9.708 -0.4771  0.1505 -0.8468
 1024MOL0     H35150   4.464   9.775   9.795  0.3538  0.2252  0.4429
 1024MOL0     H35151   4.503   9.531   9.937  1.4741 -0.0004  1.0095
 1024MOL0     H35152   4.584   9.210  10.052 -0.0050  0.6661  0.0815
 1024MOL0     H35153   4.588   9.009  10.203 -2.5783 -1.0451 -0.9367
 1024MOL0     H35154   5.574   9.712  10.735 -0.2485  1.2921 -0.3593
 1024MOL0     H35155   5.586   9.937  10.838  0.6608  0.0303  0.7837
 1024MOL0     H35156   5.646  10.174  11.257 -2.6938 -3.3616 -2.6123
 1024MOL0     H35157   5.660  10.410  11.333 -0.1482  2.2662 -1.2089
 1024MOL0     H35158   5.744  10.624  11.309 -3.6029 -5.7854  0.7803
 1024MOL0     H35159   5.607  10.644  11.399  3.3192  0.3584  1.1177
 1024MOL0     H35160   5.707  10.869  11.226 -0.7251  1.8225  0.5312
 1024MOL0     H35161   5.549  10.868  11.285  0.9640  0.4183 -4.9278
 1024MOL0     H35162   5.628  10.846  11.521 -1.7141 -3.0988 -3.0905
 1024MOL0     H35163   5.699  10.980  11.440 -0.5834 -0.3123 -1.8276
 1024MOL0     H35164   5.851  10.849  11.594 -0.6411 -0.3463  0.4829
 1024MOL0     H35165   5.842  10.702  11.487 -1.8625  0.1812 -3.2902
 1024MOL0     H35166   6.119  10.961  11.283 -0.0491 -0.2252 -1.8788
 1024MOL0     H35167   5.413  10.533  11.003  2.0666  1.6309 -0.6890
 1024MOL0     H35168   5.394  10.298  10.941  1.3235  0.6920 -1.8648
  11.43072  11.43072  11.43072
